/*--------------------------------*- C++ -*----------------------------------*\
  =========                 |
  \\      /  F ield         | OpenFOAM: The Open Source CFD Toolbox
   \\    /   O peration     | Website:  https://openfoam.org
    \\  /    A nd           | Version:  10
     \\/     M anipulation  |
\*---------------------------------------------------------------------------*/
FoamFile
{
    format      ascii;
    class       volScalarField;
    location    "172";
    object      gradTx;
}
// * * * * * * * * * * * * * * * * * * * * * * * * * * * * * * * * * * * * * //

dimensions      [0 -1 0 1 0 0 0];

internalField   nonuniform List<scalar> 
11250
(
14277.6
8037.89
5202.26
3680.8
2748.17
2118.09
1662.74
1318.34
1049.96
836.819
665.665
527.476
415.759
325.603
253.141
195.239
149.3
113.147
84.9493
63.1652
46.504
33.8926
24.4484
17.4527
12.328
8.6158
5.95717
4.07471
2.75703
1.84525
1.22157
0.799868
0.518003
0.331773
0.210145
0.131622
0.0815123
0.0499052
0.0302009
0.0180614
0.0106715
0.00622747
0.00358801
0.00204025
0.00114449
0.000633066
0.000345133
0.000185362
9.80276e-05
5.10237e-05
2.6128e-05
1.31576e-05
6.51367e-06
3.16894e-06
1.51465e-06
7.11084e-07
3.27842e-07
1.48395e-07
6.59405e-08
2.87675e-08
1.23021e-08
5.16758e-09
2.14365e-09
8.72606e-10
3.5014e-10
1.13055e-10
2.305e-11
3.29285e-12
1.09762e-12
0
-5.48809e-12
0
-7.68332e-12
0
-9.87856e-12
4073.67
4637.37
3893.87
3099.74
2455.09
1954.24
1563.64
1254.82
1007.47
807.518
645.007
512.687
405.063
317.818
247.458
191.087
146.27
110.943
83.3531
62.0153
45.6807
33.3073
24.0354
17.1636
12.1274
8.47784
5.86315
4.01124
2.71459
1.81716
1.20316
0.787925
0.510337
0.326904
0.207085
0.12972
0.080344
0.0491958
0.0297754
0.0178094
0.0105242
0.00614254
0.00353976
0.00201325
0.00112962
0.000625014
0.000340848
0.000183123
9.68799e-05
5.04469e-05
2.58439e-05
1.30207e-05
6.44909e-06
3.13918e-06
1.50125e-06
7.05195e-07
3.253e-07
1.47339e-07
6.55091e-08
2.86105e-08
1.22505e-08
5.15222e-09
2.12279e-09
8.8907e-10
3.72092e-10
1.47081e-10
5.1588e-11
1.86595e-11
-1.09762e-12
0
-8.78094e-12
0
8.78094e-12
2.19523e-12
0
1454.56
2547.57
2641.82
2376.86
2027.56
1690.85
1394.48
1142.16
930.199
753.293
606.308
484.734
384.711
302.93
236.545
183.09
140.421
106.68
80.2596
59.7835
44.0809
32.1688
23.2313
16.6005
11.7363
8.20871
5.67964
3.8873
2.6317
1.76226
1.16717
0.764569
0.495338
0.317374
0.201095
0.125997
0.0780556
0.0478058
0.0289412
0.0173151
0.0102351
0.0059758
0.00344496
0.00196016
0.00110037
0.000609156
0.000332401
0.000178704
9.46114e-05
4.9305e-05
2.52807e-05
1.27486e-05
6.32051e-06
3.07973e-06
1.47441e-06
6.93365e-07
3.20209e-07
1.4522e-07
6.46628e-08
2.82702e-08
1.21386e-08
5.11709e-09
2.10633e-09
8.25408e-10
3.15016e-10
1.30616e-10
6.14666e-11
1.86595e-11
0
0
3.29285e-12
8.78094e-12
0
-1.09762e-12
8.78094e-12
652.732
1459.95
1754.5
1745.82
1596.57
1397.55
1192.69
1001.15
830.143
681.348
554.034
446.468
356.564
282.178
221.24
171.817
132.143
100.626
75.8558
56.5992
41.794
30.5386
22.0785
15.792
11.1744
7.82162
5.4155
3.70877
2.51221
1.68308
1.11524
0.730852
0.473676
0.303604
0.192436
0.120612
0.0747446
0.0457937
0.0277331
0.0165988
0.00981598
0.00573386
0.00330729
0.001883
0.00105779
0.000586047
0.000320073
0.000172245
9.12892e-05
4.76291e-05
2.44521e-05
1.23473e-05
6.13019e-06
2.99143e-06
1.43438e-06
6.75633e-07
3.12559e-07
1.41981e-07
6.33413e-08
2.77346e-08
1.1919e-08
5.0238e-09
2.08108e-09
8.30896e-10
3.20504e-10
1.29519e-10
4.71976e-11
1.09762e-12
0
2.19524e-12
5.48809e-12
0
-1.09762e-12
-1.09762e-12
-5.48809e-12
350.255
888.288
1175.77
1262.51
1224.14
1120.14
988.542
851.184
719.677
599.655
493.399
401.349
322.951
257.145
202.629
158.022
121.959
93.1467
70.395
52.6386
38.9424
28.5015
20.6352
14.7783
10.4687
7.33495
5.08303
3.48385
2.36155
1.58317
1.04965
0.688246
0.446287
0.286183
0.181475
0.113792
0.0705487
0.0432421
0.0262001
0.0156892
0.00928321
0.00542602
0.00313194
0.00178458
0.00100341
0.00055648
0.000304269
0.000163945
8.70104e-05
4.54646e-05
2.33784e-05
1.18253e-05
5.88167e-06
2.8756e-06
1.38155e-06
6.52081e-07
3.02303e-07
1.37604e-07
6.15072e-08
2.69915e-08
1.16336e-08
4.92611e-09
2.04815e-09
8.34189e-10
3.24895e-10
1.18543e-10
4.28071e-11
4.39047e-12
1.09762e-12
-1.09762e-12
-9.87856e-12
-1.20738e-11
-7.68332e-12
-1.09762e-12
-1.09762e-12
211.308
570.298
802.845
911.15
925.648
879.863
800.58
706.343
608.933
515.336
429.37
352.837
286.29
229.527
181.905
142.544
110.461
84.658
64.1703
48.1075
35.6699
26.1574
18.9706
13.6068
9.6518
6.7707
4.69706
3.22242
2.18624
1.4668
0.973201
0.63854
0.414308
0.265828
0.16866
0.105811
0.0656354
0.040252
0.0244021
0.0146213
0.00865707
0.0050638
0.0029253
0.00166842
0.000939101
0.000521446
0.000285498
0.000154061
8.18986e-05
4.28697e-05
2.20862e-05
1.11944e-05
5.57984e-06
2.73415e-06
1.31664e-06
6.22932e-07
2.89508e-07
1.32138e-07
5.9222e-08
2.60443e-08
1.12627e-08
4.78122e-09
1.99437e-09
8.08944e-10
3.21602e-10
1.383e-10
4.06118e-11
6.5857e-12
0
-2.19524e-12
4.39047e-12
1.09762e-12
-4.39047e-12
0
0
136.975
381.678
558.914
659.991
695.25
682.023
637.34
574.962
504.881
433.829
366.04
303.957
248.79
200.927
160.225
126.216
98.2481
75.5884
57.4868
43.2221
32.1288
23.6131
17.159
12.3289
8.75889
6.15285
4.27374
2.93529
1.99345
1.33869
0.888945
0.583706
0.378999
0.243335
0.154485
0.0969778
0.0601919
0.0369362
0.0224061
0.0134345
0.00796034
0.00466015
0.00269466
0.00153852
0.000867031
0.000482085
0.00026435
0.00014289
7.61001e-05
3.99144e-05
2.06078e-05
1.0469e-05
5.23079e-06
2.56955e-06
1.24059e-06
5.88513e-07
2.74263e-07
1.25526e-07
5.64131e-08
2.48808e-08
1.07874e-08
4.58365e-09
1.90546e-09
7.94675e-10
3.44652e-10
1.54764e-10
5.26856e-11
9.87856e-12
-4.39047e-12
1.09762e-12
1.31714e-11
2.19524e-12
0
-7.68332e-12
0
92.8059
263.232
395.539
480.568
520.559
523.911
500.831
460.801
411.521
358.721
306.378
257.058
212.261
172.715
138.614
109.796
85.874
66.3415
50.6362
38.1914
28.468
20.9738
15.2742
10.9958
7.82534
5.50557
3.82948
2.63346
1.79051
1.20365
0.800028
0.525775
0.341658
0.219524
0.139466
0.0876086
0.0544127
0.0334121
0.0202824
0.0121701
0.00721698
0.00422878
0.00244771
0.00139913
0.000789511
0.000439628
0.000241465
0.000130758
6.9778e-05
3.66776e-05
1.89806e-05
9.66605e-06
4.84207e-06
2.38498e-06
1.1547e-06
5.4934e-07
2.56752e-07
1.17859e-07
5.31181e-08
2.35187e-08
1.02298e-08
4.35425e-09
1.80009e-09
7.39794e-10
2.88673e-10
1.18543e-10
6.69547e-11
2.85381e-11
7.68332e-12
1.09762e-12
-1.09762e-12
0
6.5857e-12
0
4.39047e-12
64.6569
185.378
283.456
351.591
389.102
399.782
389.527
364.584
330.556
291.979
252.256
213.764
178.038
145.952
117.896
93.9114
73.8121
57.2688
43.8767
33.2035
24.8231
18.3363
13.3846
9.65562
6.88443
4.85174
3.37983
2.32744
1.58442
1.06632
0.709482
0.466712
0.303543
0.195192
0.124103
0.0780144
0.0484881
0.0297952
0.0181
0.0108689
0.00645081
0.00378338
0.00219221
0.00125458
0.000708898
0.000395342
0.000217512
0.00011801
6.3106e-05
3.32452e-05
1.72458e-05
8.80499e-06
4.42253e-06
2.1844e-06
1.0606e-06
5.06049e-07
2.37198e-07
1.09214e-07
4.93774e-08
2.19315e-08
9.55586e-09
4.09521e-09
1.72875e-09
6.86011e-10
2.48062e-10
9.32975e-11
5.70761e-11
3.40261e-11
1.09762e-11
-1.09762e-12
2.19523e-12
5.48809e-12
6.58571e-12
8.78094e-12
2.19524e-12
45.8534
132.398
204.935
258.11
290.424
303.399
300.352
285.29
262.144
234.34
204.621
175.033
146.988
121.377
98.6721
79.0415
62.4332
48.6527
37.4202
28.4153
21.3086
15.7834
11.5495
8.35013
5.96545
4.21165
2.93869
2.02665
1.3815
0.930887
0.620063
0.408306
0.265805
0.171073
0.108856
0.0684821
0.0425949
0.0261929
0.0159234
0.00956938
0.00568428
0.0033369
0.00193553
0.001109
0.00062748
0.00035047
0.000193153
0.000104993
5.6262e-05
2.97066e-05
1.54474e-05
7.90697e-06
3.98212e-06
1.97234e-06
9.60344e-07
4.59515e-07
2.15986e-07
9.97153e-08
4.52076e-08
2.01138e-08
8.78423e-09
3.7758e-09
1.60581e-09
6.50887e-10
2.63428e-10
9.11023e-11
2.96357e-11
2.08547e-11
-1.09762e-12
0
1.09762e-12
0
-6.58571e-12
0
1.09762e-12
32.882
95.4116
148.997
189.829
216.377
229.098
229.816
221.056
205.514
185.696
163.727
141.279
119.572
99.4263
81.33
65.5098
51.9996
40.6999
31.4262
23.9474
18.0145
13.3812
9.81651
7.1135
5.09253
3.60212
2.51769
1.739
1.1871
0.800927
0.534125
0.352096
0.229439
0.147801
0.0941265
0.0592621
0.0368877
0.0226998
0.0138099
0.00830544
0.00493746
0.00290105
0.00168439
0.000966187
0.000547378
0.000306174
0.000169018
9.20411e-05
4.94207e-05
2.61513e-05
1.36305e-05
6.99425e-06
3.53161e-06
1.75387e-06
8.56321e-07
4.1088e-07
1.93659e-07
8.96534e-08
4.07414e-08
1.81733e-08
7.96761e-09
3.43774e-09
1.44886e-09
6.21252e-10
2.74404e-10
9.65903e-11
8.78094e-12
8.78094e-12
-1.09762e-12
0
-3.29285e-12
-5.48809e-12
0
-2.19523e-12
-3.29285e-12
23.7337
69.1129
108.643
139.643
160.807
172.126
174.577
169.735
159.419
145.425
129.351
112.515
95.9231
80.2886
66.0663
53.5
42.6711
33.5431
26.001
19.8829
15.0044
11.1772
8.22092
5.97127
4.28395
3.03607
2.1258
1.47069
1.00542
0.679263
0.453545
0.299312
0.195242
0.125889
0.0802402
0.050559
0.0314935
0.0193939
0.0118067
0.00710566
0.00422729
0.00248576
0.00144455
0.000829452
0.000470457
0.000263497
0.000145676
7.94633e-05
4.27464e-05
2.26654e-05
1.18394e-05
6.08926e-06
3.08209e-06
1.53447e-06
7.51131e-07
3.61344e-07
1.70763e-07
7.92579e-08
3.61105e-08
1.61635e-08
7.10707e-09
3.07333e-09
1.31934e-09
5.65273e-10
2.27207e-10
9.00046e-11
2.74404e-11
1.09762e-11
1.75619e-11
1.09762e-12
0
0
4.39047e-12
0
1.09762e-12
17.1845
50.1761
79.274
102.599
119.118
128.643
131.679
129.204
122.432
112.63
100.976
88.4781
75.9408
63.9564
52.9239
43.0771
34.5178
27.2485
21.2027
16.27
12.3168
9.20145
6.78544
4.94035
3.55204
2.52236
1.76931
1.22609
0.839473
0.567932
0.379688
0.250858
0.163805
0.105719
0.0674414
0.0425273
0.026509
0.016335
0.00995066
0.00599223
0.00356711
0.00209895
0.00122067
0.000701489
0.000398264
0.000223313
0.000123619
6.75299e-05
3.63862e-05
1.93276e-05
1.01155e-05
5.21341e-06
2.64452e-06
1.31961e-06
6.47433e-07
3.12184e-07
1.47893e-07
6.8791e-08
3.14193e-08
1.40813e-08
6.20264e-09
2.67709e-09
1.1514e-09
4.89537e-10
1.98669e-10
1.02078e-10
5.81737e-11
4.39047e-12
1.64643e-11
1.09762e-12
-1.09762e-12
-4.39047e-12
-8.78094e-12
1.09762e-12
6.58571e-12
12.4502
36.4283
57.7813
75.1933
87.878
95.6033
98.6182
97.5235
93.1268
86.3103
77.9284
68.7389
59.3653
50.2844
41.8309
34.2138
27.5379
21.8273
17.0477
13.1263
9.96788
7.46788
5.52141
4.02964
2.90359
2.06602
1.45188
1.00781
0.691089
0.468203
0.313416
0.207313
0.135513
0.0875417
0.055892
0.0352704
0.0219999
0.0135642
0.0082671
0.00498081
0.00296642
0.00174636
0.00101616
0.000584327
0.000331987
0.00018631
0.000103239
5.64624e-05
3.04632e-05
1.62055e-05
8.49528e-06
4.38607e-06
2.22902e-06
1.11444e-06
5.47863e-07
2.6471e-07
1.25667e-07
5.85809e-08
2.68335e-08
1.20518e-08
5.30369e-09
2.3028e-09
9.90051e-10
4.44535e-10
2.08547e-10
9.54927e-11
3.62214e-11
-4.39047e-12
-2.305e-11
-2.19523e-12
-5.48809e-12
4.39047e-12
0
0
0
9.00831
26.4008
42.0079
54.9087
64.5191
70.6197
73.3225
72.9957
70.1731
65.4646
59.4817
52.784
45.8454
39.0393
32.6372
26.8168
21.6758
17.2481
13.5198
10.4444
7.95552
5.97696
4.4305
3.24115
2.34054
1.66874
1.17486
0.816905
0.561049
0.380643
0.255132
0.168957
0.110556
0.0714852
0.0456772
0.0288442
0.018002
0.0111046
0.00677073
0.00408063
0.00243101
0.00143156
0.000833233
0.000479303
0.000272433
0.00015297
8.48203e-05
4.64264e-05
2.50724e-05
1.33525e-05
7.00841e-06
3.62339e-06
1.84416e-06
9.23494e-07
4.54744e-07
2.20099e-07
1.04655e-07
4.88879e-08
2.24496e-08
1.0131e-08
4.48377e-09
1.95156e-09
8.39677e-10
3.65507e-10
1.76716e-10
7.02475e-11
2.305e-11
5.48809e-12
-2.63428e-11
-1.09762e-12
-8.78094e-12
3.29285e-12
8.78094e-12
9.87856e-12
-3.29285e-12
6.49935
19.0729
30.4254
39.913
47.1087
51.8268
54.1083
54.1781
52.3878
49.1561
44.9163
40.0757
34.9882
29.9401
25.1455
20.7502
16.8396
13.4498
10.579
8.19878
6.26354
4.71869
3.50666
2.57133
1.86086
1.32939
0.937671
0.653091
0.449239
0.305219
0.204841
0.13581
0.0889576
0.0575707
0.036814
0.0232618
0.0145251
0.00896321
0.00546645
0.00329508
0.00196318
0.0011561
0.000672914
0.000387092
0.000220037
0.000123568
6.85352e-05
3.75272e-05
2.0277e-05
1.08059e-05
5.67638e-06
2.93751e-06
1.49668e-06
7.50364e-07
3.69986e-07
1.79313e-07
8.53859e-08
3.99599e-08
1.83686e-08
8.30238e-09
3.69239e-09
1.6146e-09
6.90401e-10
2.77697e-10
1.25128e-10
5.81737e-11
3.07333e-11
7.68332e-12
1.20738e-11
1.09762e-12
-4.39047e-12
-7.68332e-12
-2.19524e-12
2.19523e-12
5.48809e-12
4.6701
13.7196
21.9316
28.8566
34.1862
37.7723
39.6214
39.8701
38.7495
36.5453
33.5617
30.0918
26.3958
22.6892
19.1372
15.8557
12.9162
10.3527
8.16989
6.3512
4.86598
3.6756
2.73826
2.0125
1.45955
1.04475
0.738252
0.515061
0.354841
0.241424
0.162233
0.107683
0.0706041
0.0457317
0.0292639
0.0185012
0.011557
0.00713336
0.00435087
0.00262252
0.00156224
0.000919764
0.000535189
0.000307765
0.000174889
9.8187e-05
5.44471e-05
2.98105e-05
1.61081e-05
8.58573e-06
4.51158e-06
2.33587e-06
1.1909e-06
5.97509e-07
2.94868e-07
1.43069e-07
6.82147e-08
3.19516e-08
1.4685e-08
6.62851e-09
2.92844e-09
1.28092e-09
5.63078e-10
2.305e-10
9.00046e-11
3.40261e-11
2.305e-11
1.53666e-11
1.97571e-11
-1.09762e-12
-3.29285e-12
5.48809e-12
-3.29285e-12
-9.87856e-12
-1.09762e-12
3.33873
9.81711
15.7205
20.7361
24.6433
27.3282
28.7823
29.088
28.3968
26.9027
24.8177
22.3502
19.6893
16.9944
14.3906
11.9678
9.78365
7.86809
6.22866
4.85637
3.73098
2.82552
2.11003
1.55426
1.12957
0.810124
0.573487
0.400773
0.276526
0.188402
0.126762
0.0842318
0.055281
0.0358352
0.0229456
0.0145133
0.00906844
0.00559788
0.00341405
0.00205733
0.00122505
0.000720854
0.000419177
0.000240878
0.000136778
7.67341e-05
4.25217e-05
2.3267e-05
1.25661e-05
6.69546e-06
3.51755e-06
1.82112e-06
9.28558e-07
4.66001e-07
2.30058e-07
1.11701e-07
5.32882e-08
2.49752e-08
1.14855e-08
5.19063e-09
2.30061e-09
9.97734e-10
4.22583e-10
1.89888e-10
7.13451e-11
3.07333e-11
3.07333e-11
4.06118e-11
9.87856e-12
0
9.87856e-12
1.20738e-11
5.48809e-12
-5.48809e-12
-4.39047e-12
2.3729
6.98245
11.1976
14.8014
17.6374
19.6204
20.7367
21.0358
20.6165
19.6101
18.1632
16.4226
14.5239
12.5834
10.6943
8.9248
7.32027
5.90557
4.68898
3.66618
2.82404
2.14399
1.60481
1.18469
0.862732
0.619925
0.43962
0.307724
0.212642
0.145074
0.0977289
0.0650093
0.0427042
0.027703
0.0177484
0.0112301
0.00701809
0.00433199
0.0026413
0.0015909
0.000946677
0.000556577
0.000323325
0.000185589
0.000105257
5.89783e-05
3.26429e-05
1.7841e-05
9.62543e-06
5.12382e-06
2.68979e-06
1.39168e-06
7.09275e-07
3.55865e-07
1.75697e-07
8.52991e-08
4.07172e-08
1.91073e-08
8.7985e-09
3.97228e-09
1.76387e-09
7.41989e-10
3.00747e-10
1.35007e-10
3.84166e-11
1.97571e-11
4.39047e-12
5.48809e-12
1.53666e-11
2.19524e-12
1.31714e-11
-4.39047e-12
3.29285e-12
-1.09762e-12
-1.09762e-12
1.67545
4.93325
7.92119
10.4893
12.5278
13.974
14.8139
15.077
14.8277
14.1541
13.157
11.9389
10.5961
9.21225
7.85551
6.57697
5.41127
4.37842
3.48622
2.73305
2.11056
1.60614
1.20492
0.891357
0.650403
0.468219
0.332609
0.23319
0.161374
0.110243
0.0743531
0.0495106
0.0325513
0.0211309
0.0135444
0.00857231
0.00535732
0.00330618
0.00201493
0.00121278
0.000720992
0.000423396
0.000245622
0.000140772
7.97071e-05
4.45847e-05
2.46333e-05
1.34402e-05
7.23919e-06
3.84769e-06
2.01709e-06
1.04236e-06
5.30694e-07
2.66038e-07
1.31267e-07
6.36991e-08
3.04205e-08
1.42657e-08
6.57363e-09
2.96576e-09
1.30946e-09
5.53199e-10
2.19523e-10
8.56142e-11
2.305e-11
3.29285e-12
-1.31714e-11
0
-2.19523e-12
0
-4.39047e-12
-8.78094e-12
0
0
-5.48809e-12
1.17459
3.46039
5.56216
7.37685
8.82786
9.8701
10.4911
10.7082
10.5634
10.1155
9.43335
8.58783
7.64648
6.66895
5.70438
4.79028
3.95265
3.20708
2.56034
2.01227
1.55768
1.1881
0.893225
0.662121
0.48406
0.349095
0.248403
0.174424
0.120879
0.0826853
0.0558304
0.0372132
0.0244859
0.015905
0.0101987
0.00645589
0.00403429
0.0024888
0.00151582
0.000911524
0.000541244
0.000317372
0.000183798
0.000105135
5.94034e-05
3.31537e-05
1.82755e-05
9.94837e-06
5.34639e-06
2.83556e-06
1.4835e-06
7.65228e-07
3.88933e-07
1.94682e-07
9.59153e-08
4.64786e-08
2.21598e-08
1.03714e-08
4.78781e-09
2.15462e-09
9.49439e-10
4.22583e-10
1.64643e-10
4.50023e-11
1.75619e-11
4.39047e-12
1.64643e-11
3.62214e-11
1.97571e-11
0
-1.20738e-11
0
0
-3.29285e-12
2.19524e-12
0.817231
2.40871
3.87526
5.14646
6.16933
6.91183
7.36378
7.53535
7.4536
7.15783
6.69451
6.11238
5.45835
4.77437
4.09547
3.44874
2.85335
2.32115
1.85769
1.46352
1.13548
0.867951
0.653881
0.48565
0.355702
0.256971
0.183148
0.128797
0.0893822
0.0612168
0.04138
0.0276073
0.018179
0.0118147
0.00757832
0.00479746
0.00299731
0.00184815
0.00112471
0.000675566
0.000400554
0.000234459
0.000135501
7.7328e-05
4.35805e-05
2.42566e-05
1.33333e-05
7.23715e-06
3.87824e-06
2.05119e-06
1.07029e-06
5.50719e-07
2.79269e-07
1.39501e-07
6.85857e-08
3.31645e-08
1.57717e-08
7.36721e-09
3.37847e-09
1.5191e-09
6.62961e-10
2.8099e-10
1.10859e-10
2.41476e-11
-2.19523e-12
4.39047e-12
2.41476e-11
9.87856e-12
1.64643e-11
-1.09762e-12
3.29285e-12
0
-2.19524e-12
3.29285e-12
-8.78094e-12
0.564064
1.6632
2.67797
3.56056
4.27464
4.79771
5.12189
5.25306
5.20863
5.01464
4.70231
4.30483
3.85448
3.38045
2.90736
2.45454
2.03587
1.66016
1.33179
1.05157
0.817628
0.626279
0.472744
0.351774
0.258106
0.186777
0.133329
0.0938992
0.0652509
0.0447435
0.0302767
0.0202175
0.0133222
0.00866237
0.00555766
0.00351818
0.00219735
0.00135403
0.000823202
0.000493808
0.000292293
0.000170741
9.84416e-05
5.60277e-05
3.14824e-05
1.7467e-05
9.56908e-06
5.17613e-06
2.76418e-06
1.45699e-06
7.57735e-07
3.88655e-07
1.96528e-07
9.78888e-08
4.79955e-08
2.31762e-08
1.09948e-08
5.13795e-09
2.3489e-09
1.06249e-09
4.87342e-10
1.93181e-10
6.91499e-11
1.86595e-11
7.68332e-12
1.53666e-11
-1.64643e-11
-2.74404e-11
-1.53666e-11
0
4.39047e-12
-2.19523e-12
0
2.19523e-12
-1.09762e-12
0.386093
1.13883
1.83495
2.44219
2.93584
3.3003
3.5297
3.62734
3.60443
3.47808
3.26915
3.00002
2.69271
2.3673
2.04091
1.72713
1.43586
1.17353
0.943476
0.746538
0.581642
0.446393
0.337591
0.251655
0.184961
0.134062
0.0958439
0.0675952
0.047033
0.0322887
0.0218711
0.0146168
0.0096379
0.00626943
0.00402307
0.00254645
0.00158977
0.000978886
0.000594464
0.000356063
0.000210362
0.000122601
7.04981e-05
4.00025e-05
2.24025e-05
1.23843e-05
6.75858e-06
3.64133e-06
1.93672e-06
1.01673e-06
5.2668e-07
2.69108e-07
1.35581e-07
6.73158e-08
3.29022e-08
1.58573e-08
7.49892e-09
3.49042e-09
1.58276e-09
7.11256e-10
3.227e-10
1.45983e-10
5.1588e-11
2.74404e-11
3.40261e-11
3.29285e-12
-2.305e-11
-1.53666e-11
-1.09762e-11
1.09762e-12
1.09762e-12
1.09762e-12
0
1.09762e-12
1.31714e-11
0.262005
0.77306
1.24635
1.6603
1.99822
2.24943
2.40966
2.48075
2.46984
2.38814
2.24946
2.06879
1.86098
1.63973
1.41678
1.20158
1.0011
0.819919
0.660536
0.523696
0.408806
0.314328
0.238138
0.177823
0.130909
0.0950316
0.0680396
0.0480513
0.0334762
0.0230076
0.0155996
0.0104339
0.00688394
0.00447966
0.0028749
0.00181938
0.00113527
0.000698435
0.000423624
0.000253319
0.000149353
8.68284e-05
4.9783e-05
2.81547e-05
1.57094e-05
8.64949e-06
4.70015e-06
2.521e-06
1.3347e-06
6.97449e-07
3.5965e-07
1.82963e-07
9.17784e-08
4.53997e-08
2.2128e-08
1.05953e-08
5.01062e-09
2.32475e-09
1.04164e-09
4.71976e-10
1.90985e-10
8.12237e-11
3.95142e-11
2.85381e-11
5.48809e-12
-8.78094e-12
3.29285e-12
5.48809e-12
0
-1.09762e-12
7.68332e-12
3.29285e-12
0
3.29285e-12
-4.39047e-12
0.176229
0.520115
0.838999
1.11854
1.34758
1.51888
1.6294
1.68015
1.67566
1.62321
1.53189
1.41164
1.27241
1.12341
0.972638
0.826566
0.690023
0.566245
0.457044
0.363034
0.283902
0.218672
0.165947
0.124118
0.0915148
0.0665329
0.0477025
0.0337331
0.0235296
0.0161891
0.0109869
0.0073543
0.00485488
0.00316032
0.00202832
0.00128332
0.000800324
0.000491908
0.000297961
0.000177862
0.000104635
6.06699e-05
3.46773e-05
1.95422e-05
1.08607e-05
5.95389e-06
3.22028e-06
1.71878e-06
9.05343e-07
4.70635e-07
2.41442e-07
1.22218e-07
6.10242e-08
3.00308e-08
1.45764e-08
6.94463e-09
3.2731e-09
1.5213e-09
7.0028e-10
3.11723e-10
1.30616e-10
4.82952e-11
3.07333e-11
-1.64643e-11
-1.97571e-11
-6.5857e-12
-2.19523e-12
1.09762e-12
1.75619e-11
4.39047e-12
-7.68332e-12
0
-4.39047e-12
-1.4269e-11
-1.09762e-12
0.117464
0.346761
0.559629
0.746611
0.900314
1.01588
1.09119
1.12678
1.12552
1.09209
1.03244
0.953109
0.860676
0.761299
0.660352
0.562219
0.470204
0.386554
0.312559
0.248698
0.194816
0.1503
0.114243
0.0855773
0.0631918
0.046007
0.0330306
0.0233876
0.0163325
0.0112492
0.00764138
0.00511873
0.00338093
0.00220152
0.00141301
0.000893768
0.000557044
0.00034204
0.000206893
0.000123275
7.23553e-05
4.18377e-05
2.38357e-05
1.33826e-05
7.40637e-06
4.04149e-06
2.17506e-06
1.15476e-06
6.0489e-07
3.12653e-07
1.59455e-07
8.02644e-08
3.9849e-08
1.95003e-08
9.4e-09
4.46401e-09
2.06462e-09
9.42853e-10
4.33559e-10
1.76716e-10
7.68332e-11
2.74404e-11
-4.39047e-12
-2.19524e-11
-2.19523e-12
-4.39047e-12
-1.86595e-11
-7.68332e-12
6.58571e-12
0
1.09762e-12
-2.19524e-12
0
0
1.31714e-11
0.0775737
0.229052
0.369817
0.493687
0.595804
0.672945
0.723656
0.748212
0.748411
0.727267
0.688618
0.636733
0.575937
0.510295
0.44338
0.378129
0.316774
0.260851
0.211262
0.168366
0.132095
0.102067
0.0776965
0.0582857
0.0430998
0.0314216
0.0225884
0.0160136
0.0111957
0.00771918
0.00524822
0.0035182
0.00232501
0.0015144
0.000972021
0.000614656
0.000382845
0.000234839
0.000141847
8.43596e-05
4.93983e-05
2.84825e-05
1.6173e-05
9.04547e-06
4.98441e-06
2.70684e-06
1.44915e-06
7.6504e-07
3.98392e-07
2.04655e-07
1.03726e-07
5.18778e-08
2.5591e-08
1.24623e-08
5.96226e-09
2.80661e-09
1.28311e-09
5.64175e-10
2.37085e-10
8.78094e-11
2.41476e-11
1.4269e-11
-6.58571e-12
1.97571e-11
5.48809e-12
-1.53666e-11
-1.53666e-11
-2.19523e-12
4.39047e-12
9.87856e-12
6.5857e-12
-1.97571e-11
2.19524e-12
1.09762e-11
0
0.0507512
0.149881
0.242082
0.323346
0.390508
0.441454
0.475201
0.491884
0.492626
0.479345
0.454507
0.420874
0.381257
0.338317
0.294404
0.251462
0.210981
0.173997
0.141129
0.112639
0.0885001
0.0684789
0.0522004
0.0392125
0.0290345
0.0211947
0.0152555
0.0108279
0.0075787
0.00523063
0.00355943
0.00238785
0.00157887
0.00102871
0.000660303
0.000417427
0.000259837
0.000159225
9.60377e-05
5.7009e-05
3.33043e-05
1.91482e-05
1.08362e-05
6.03707e-06
3.31198e-06
1.78976e-06
9.52989e-07
5.00156e-07
2.5884e-07
1.32116e-07
6.65288e-08
3.30306e-08
1.61932e-08
7.81833e-09
3.71873e-09
1.74411e-09
7.93577e-10
3.33676e-10
1.31714e-10
2.85381e-11
-1.53666e-11
-5.48809e-12
2.19523e-12
2.08547e-11
-4.39047e-12
-1.86595e-11
-1.09762e-11
1.4269e-11
5.48809e-12
1.09762e-11
-7.68332e-12
0
0
0
-7.68332e-12
0.0328885
0.0971445
0.156955
0.209744
0.253471
0.28676
0.308958
0.320126
0.320961
0.312677
0.296845
0.275235
0.249659
0.221841
0.193311
0.165342
0.138914
0.114719
0.0931738
0.0744628
0.0585821
0.0453877
0.0346426
0.026056
0.0193169
0.0141182
0.0101741
0.0072296
0.00506564
0.00349969
0.00238364
0.00160025
0.00105869
0.000690015
0.00044293
0.000279941
0.000174154
0.000106616
6.42173e-05
3.80502e-05
2.21774e-05
1.27149e-05
7.17152e-06
3.97992e-06
2.17374e-06
1.16882e-06
6.18943e-07
3.22908e-07
1.66025e-07
8.41664e-08
4.20838e-08
2.07296e-08
1.00761e-08
4.82513e-09
2.29841e-09
1.07347e-09
4.8844e-10
1.85497e-10
6.69547e-11
1.09762e-11
-2.19524e-11
-3.18309e-11
-1.09762e-11
-9.87856e-12
-1.20738e-11
-6.58571e-12
-4.39047e-12
-1.20738e-11
-2.63428e-11
-6.58571e-12
1.09762e-12
2.41476e-11
2.19524e-12
4.39047e-12
0
0.0211088
0.0623591
0.100782
0.134735
0.162914
0.184433
0.198865
0.206235
0.206972
0.201839
0.191828
0.178066
0.161709
0.143862
0.125512
0.107482
0.0904114
0.0747537
0.0607866
0.0486369
0.0383089
0.0297152
0.0227066
0.0170982
0.0126905
0.0092858
0.00669925
0.00476567
0.00334275
0.00231168
0.00157589
0.00105877
0.000700864
0.000456967
0.000293365
0.000185378
0.000115265
7.05011e-05
4.24087e-05
2.50841e-05
1.45875e-05
8.34066e-06
4.68903e-06
2.59236e-06
1.40973e-06
7.54283e-07
3.97226e-07
2.06003e-07
1.0522e-07
5.29622e-08
2.62792e-08
1.28476e-08
6.18947e-09
2.95918e-09
1.39836e-09
6.48692e-10
2.96357e-10
1.06469e-10
2.41476e-11
6.58571e-12
-6.58571e-12
-1.64643e-11
-1.53666e-11
-1.75619e-11
-4.39047e-12
-1.31714e-11
-4.39047e-12
-2.74404e-11
-2.96357e-11
-1.09762e-11
-2.19523e-12
0
-9.87856e-12
0
5.48809e-12
0.0134172
0.0396418
0.0640828
0.085703
0.103676
0.117438
0.126713
0.131507
0.132087
0.128925
0.122645
0.113957
0.103594
0.0922551
0.0805709
0.0690684
0.0581593
0.0481368
0.0391831
0.0313835
0.0247444
0.0192132
0.0146967
0.0110782
0.00823098
0.0060291
0.00435432
0.00310082
0.00217723
0.00150714
0.00102835
0.000691439
0.000457987
0.000298734
0.000191815
0.000121195
7.53234e-05
4.6034e-05
2.76575e-05
1.63322e-05
9.47796e-06
5.40512e-06
3.02926e-06
1.66864e-06
9.03587e-07
4.81168e-07
2.52055e-07
1.29936e-07
6.59602e-08
3.29615e-08
1.62305e-08
7.90943e-09
3.79007e-09
1.80119e-09
8.26506e-10
3.89654e-10
1.78912e-10
8.78094e-11
3.51238e-11
1.97571e-11
1.31714e-11
1.20738e-11
-1.31714e-11
-3.51238e-11
-1.86595e-11
-2.41476e-11
-1.4269e-11
-1.09762e-12
4.39047e-12
-8.78094e-12
-1.31714e-11
-4.39047e-12
-6.5857e-12
-7.68332e-12
-1.09762e-12
0.00844512
0.0249541
0.0403476
0.0539761
0.0653211
0.0740271
0.0799174
0.082993
0.0834156
0.0814786
0.0775703
0.0721338
0.0656282
0.0584947
0.05113
0.0438682
0.0369711
0.0306261
0.0249508
0.0200012
0.0157835
0.012266
0.00939092
0.00708518
0.00526916
0.00386331
0.00279291
0.00199089
0.00139928
0.000969556
0.000662143
0.000445566
0.000295323
0.000192724
0.000123777
7.8204e-05
4.85878e-05
2.96741e-05
1.78092e-05
1.05009e-05
6.08209e-06
3.46012e-06
1.93353e-06
1.06137e-06
5.72467e-07
3.03442e-07
1.5816e-07
8.10569e-08
4.08797e-08
2.03037e-08
9.94222e-09
4.81196e-09
2.29073e-09
1.06359e-09
4.98318e-10
2.21719e-10
8.78094e-11
5.92713e-11
5.81737e-11
4.17095e-11
3.7319e-11
2.74404e-11
1.53666e-11
-9.87856e-12
-4.39047e-12
5.48809e-12
2.19524e-12
1.31714e-11
1.31714e-11
5.48809e-12
8.78094e-12
0
9.87856e-12
2.19523e-12
-6.58571e-12
0.00526331
0.0155535
0.025152
0.0336557
0.040742
0.0461891
0.0498859
0.0518309
0.0521226
0.0509415
0.0485274
0.0451549
0.0411091
0.0366649
0.03207
0.0275335
0.02322
0.0192478
0.0156914
0.012587
0.00993957
0.00772984
0.00592231
0.00447164
0.00332819
0.00244229
0.0017672
0.0012609
0.000887055
0.000615214
0.000420529
0.000283213
0.000187846
0.000122651
7.87984e-05
4.97894e-05
3.0927e-05
1.88776e-05
1.13191e-05
6.66529e-06
3.85377e-06
2.18758e-06
1.21913e-06
6.67067e-07
3.58458e-07
1.89197e-07
9.81215e-08
5.00228e-08
2.50597e-08
1.238e-08
6.04019e-09
2.89442e-09
1.37971e-09
6.3113e-10
2.98552e-10
1.08664e-10
4.39047e-11
3.51238e-11
3.62214e-11
1.86595e-11
2.85381e-11
1.20738e-11
1.09762e-11
4.39047e-12
1.09762e-11
2.305e-11
1.53666e-11
1.09762e-11
-1.86595e-11
0
2.08547e-11
9.87856e-12
6.58571e-12
4.39047e-12
0
0.00324777
0.00959797
0.0155228
0.0207742
0.0251536
0.0285239
0.030816
0.0320283
0.0322206
0.0315031
0.0300229
0.0279486
0.025456
0.0227143
0.0198769
0.017073
0.0144049
0.0119461
0.00974333
0.00781942
0.00617775
0.00480682
0.00368485
0.00278393
0.00207343
0.00152264
0.00110263
0.0007874
0.000554439
0.000384879
0.000263317
0.000177484
0.000117806
7.69651e-05
4.94669e-05
3.12614e-05
1.94162e-05
1.18466e-05
7.09791e-06
4.17487e-06
2.41015e-06
1.3654e-06
7.59101e-07
4.14178e-07
2.21793e-07
1.16626e-07
6.02076e-08
3.05654e-08
1.52338e-08
7.47807e-09
3.63202e-09
1.7529e-09
8.53946e-10
4.2368e-10
1.90985e-10
9.7688e-11
5.92713e-11
3.7319e-11
9.87856e-12
7.68332e-12
5.48809e-12
1.09762e-11
2.63428e-11
2.41476e-11
-7.68332e-12
5.48809e-12
2.305e-11
-1.09762e-12
-2.08547e-11
-1.31714e-11
-5.48809e-12
6.5857e-12
-1.09762e-12
-5.48809e-12
2.19523e-12
0.00198402
0.00586344
0.00948345
0.0126928
0.0153701
0.0174318
0.0188355
0.0195799
0.0197013
0.0192666
0.0183655
0.0171006
0.0155791
0.0139046
0.0121705
0.0104562
0.00882424
0.00731974
0.00597147
0.00479358
0.00378824
0.00294852
0.00226113
0.00170904
0.00127352
0.000935776
0.000678109
0.00048461
0.000341513
0.000237275
0.000162474
0.000109604
7.28059e-05
4.75961e-05
3.06055e-05
1.93468e-05
1.20163e-05
7.32968e-06
4.38899e-06
2.57912e-06
1.48694e-06
8.40935e-07
4.66515e-07
2.53895e-07
1.35552e-07
7.10224e-08
3.65122e-08
1.84345e-08
9.17169e-09
4.48047e-09
2.17438e-09
1.0603e-09
5.14783e-10
2.5355e-10
1.03176e-10
6.47594e-11
4.82952e-11
3.07333e-11
1.97571e-11
1.31714e-11
6.58571e-12
1.4269e-11
2.19524e-11
2.41476e-11
4.39047e-12
-6.58571e-12
7.68332e-12
5.48809e-12
2.19524e-11
3.29285e-12
-1.64643e-11
-9.87856e-12
1.09762e-12
-7.68332e-12
0
0.00119977
0.0035457
0.00573474
0.00767536
0.00929426
0.0105409
0.0113896
0.0118397
0.0119131
0.0116503
0.0111055
0.0103407
0.00942071
0.00840815
0.00735957
0.00632291
0.00533602
0.00442625
0.00361098
0.00289879
0.00229097
0.00178333
0.00136781
0.0010341
0.000770832
0.000566652
0.000410848
0.000293802
0.000207199
0.000144072
9.87354e-05
6.66612e-05
4.43149e-05
2.89901e-05
1.86514e-05
1.17944e-05
7.3265e-06
4.46842e-06
2.67456e-06
1.57052e-06
9.04447e-07
5.10765e-07
2.82789e-07
1.53547e-07
8.17692e-08
4.26962e-08
2.1858e-08
1.09904e-08
5.44528e-09
2.65953e-09
1.27214e-09
6.13568e-10
2.82088e-10
1.17445e-10
4.17095e-11
5.48809e-12
1.75619e-11
2.74404e-11
2.41476e-11
1.64643e-11
2.19524e-12
-9.87856e-12
-4.39047e-12
-6.58571e-12
6.5857e-12
-1.31714e-11
-1.53666e-11
5.48809e-12
3.07333e-11
2.63428e-11
5.48809e-12
-5.48809e-12
-8.78094e-12
1.09762e-12
-4.39047e-12
0.000718104
0.00212215
0.00343206
0.00459297
0.00556095
0.00630578
0.00681224
0.00708003
0.00712239
0.00696372
0.0066365
0.00617801
0.00562701
0.00502096
0.00439368
0.00377383
0.00318399
0.00264047
0.00215362
0.00172849
0.00136582
0.00106305
0.00081532
0.000616425
0.000459563
0.000337924
0.000245107
0.00017537
0.000123755
8.61123e-05
5.90604e-05
3.99064e-05
2.65494e-05
1.73804e-05
1.11887e-05
7.07832e-06
4.39798e-06
2.68232e-06
1.60509e-06
9.41969e-07
5.42001e-07
3.05702e-07
1.68989e-07
9.15654e-08
4.86398e-08
2.53154e-08
1.29288e-08
6.49351e-09
3.18858e-09
1.55862e-09
7.25525e-10
3.33676e-10
1.55862e-10
6.25642e-11
3.40261e-11
1.75619e-11
1.97571e-11
3.40261e-11
2.96357e-11
2.19523e-11
3.29285e-12
-2.19523e-12
0
-1.4269e-11
-1.64643e-11
-2.85381e-11
-1.86595e-11
-3.29285e-12
7.68332e-12
1.53666e-11
8.78094e-12
-2.19523e-12
-4.39047e-12
8.78094e-12
0
0.000425363
0.00125694
0.00203249
0.00271938
0.00329157
0.00373118
0.00402931
0.00418593
0.00420908
0.00411337