/*--------------------------------*- C++ -*----------------------------------*\
  =========                 |
  \\      /  F ield         | OpenFOAM: The Open Source CFD Toolbox
   \\    /   O peration     | Website:  https://openfoam.org
    \\  /    A nd           | Version:  10
     \\/     M anipulation  |
\*---------------------------------------------------------------------------*/
FoamFile
{
    format      ascii;
    class       volScalarField;
    location    "490";
    object      T;
}
// * * * * * * * * * * * * * * * * * * * * * * * * * * * * * * * * * * * * * //

dimensions      [0 0 0 1 0 0 0];

internalField   nonuniform List<scalar> 
11250
(
249.892
167.704
139.602
127.279
120.591
116.375
113.443
111.266
109.575
108.218
107.102
106.166
105.37
104.687
104.094
103.577
103.125
102.727
102.377
102.069
101.798
101.558
101.348
101.162
101
100.858
100.734
100.626
100.532
100.451
100.38
100.32
100.269
100.224
100.187
100.155
100.128
100.105
100.087
100.071
100.058
100.047
100.038
100.03
100.024
100.019
100.015
100.012
100.01
100.008
100.006
100.005
100.004
100.003
100.002
100.002
100.001
100.001
100.001
100.001
100
100
100
100
100
100
100
100
100
100
100
100
100
100
100
331.647
249.027
203.034
176.207
159.312
147.852
139.585
133.326
128.407
124.429
121.141
118.374
116.016
113.986
112.224
110.686
109.337
108.152
107.108
106.187
105.376
104.661
104.031
103.478
102.992
102.567
102.196
101.873
101.592
101.349
101.139
100.958
100.804
100.672
100.559
100.464
100.384
100.316
100.259
100.212
100.172
100.14
100.113
100.091
100.073
100.058
100.046
100.037
100.029
100.023
100.018
100.014
100.011
100.008
100.006
100.005
100.004
100.003
100.002
100.002
100.001
100.001
100.001
100.001
100
100
100
100
100
100
100
100
100
100
100
359.319
293.733
247.314
215.223
192.622
176.166
163.753
154.083
146.34
139.997
134.705
130.225
126.387
123.07
120.183
117.657
115.439
113.486
111.764
110.245
108.904
107.722
106.681
105.765
104.961
104.257
103.642
103.106
102.641
102.238
101.89
101.59
101.334
101.115
100.928
100.77
100.637
100.524
100.43
100.352
100.286
100.232
100.188
100.151
100.121
100.097
100.077
100.061
100.048
100.038
100.03
100.023
100.018
100.014
100.011
100.008
100.006
100.005
100.004
100.003
100.002
100.002
100.001
100.001
100.001
100
100
100
100
100
100
100
100
100
100
371.217
319.288
277.291
244.784
219.828
200.487
185.237
172.979
162.944
154.59
147.539
141.516
136.323
131.811
127.869
124.409
121.362
118.675
116.301
114.204
112.351
110.716
109.274
108.006
106.891
105.915
105.061
104.318
103.671
103.111
102.628
102.212
101.856
101.551
101.292
101.072
100.886
100.73
100.599
100.489
100.399
100.323
100.261
100.21
100.169
100.135
100.107
100.085
100.067
100.053
100.041
100.032
100.025
100.019
100.015
100.011
100.009
100.007
100.005
100.004
100.003
100.002
100.002
100.001
100.001
100.001
100
100
100
100
100
100
100
100
100
377.486
334.931
297.811
266.838
241.48
220.787
203.809
189.744
177.963
167.987
159.455
152.093
145.696
140.105
135.195
130.869
127.049
123.669
120.678
118.031
115.689
113.619
111.792
110.183
108.769
107.529
106.445
105.499
104.677
103.965
103.349
102.82
102.366
101.977
101.647
101.367
101.13
100.931
100.764
100.624
100.508
100.412
100.333
100.268
100.215
100.172
100.137
100.108
100.085
100.067
100.053
100.041
100.032
100.025
100.019
100.015
100.011
100.008
100.006
100.005
100.004
100.003
100.002
100.002
100.001
100.001
100.001
100
100
100
100
100
100
100
100
381.293
345.164
312.228
283.338
258.541
237.461
219.57
204.34
191.304
180.076
170.342
161.855
154.418
147.873
142.094
136.981
132.448
128.428
124.86
121.696
118.892
116.41
114.217
112.283
110.582
109.089
107.783
106.643
105.652
104.792
104.049
103.41
102.861
102.392
101.993
101.654
101.368
101.127
100.925
100.756
100.616
100.499
100.404
100.325
100.26
100.208
100.165
100.131
100.103
100.081
100.064
100.05
100.039
100.03
100.023
100.018
100.013
100.01
100.008
100.006
100.004
100.003
100.002
100.002
100.001
100.001
100.001
100.001
100
100
100
100
100
100
100
383.826
352.234
322.652
295.817
271.977
251.055
232.796
216.881
202.991
190.833
180.156
170.748
162.432
155.063
148.52
142.702
137.525
132.918
128.819
125.175
121.939
119.071
116.533
114.293
112.32
110.586
109.068
107.743
106.59
105.589
104.724
103.979
103.339
102.793
102.327
101.931
101.597
101.316
101.08
100.883
100.719
100.584
100.472
100.38
100.305
100.243
100.194
100.153
100.121
100.095
100.074
100.058
100.045
100.035
100.027
100.021
100.016
100.012
100.009
100.007
100.005
100.004
100.003
100.002
100.002
100.001
100.001
100.001
100
100
100
100
100
100
100
385.615
357.331
330.391
305.383
282.603
262.113
243.824
227.562
213.124
200.302
188.905
178.76
169.717
161.648
154.442
148.004
142.252
137.116
132.533
128.449
124.816
121.589
118.729
116.201
113.972
112.013
110.295
108.794
107.486
106.352
105.37
104.524
103.798
103.177
102.648
102.198
101.818
101.498
101.23
101.006
100.819
100.665
100.537
100.433
100.347
100.277
100.221
100.175
100.138
100.108
100.085
100.066
100.051
100.04
100.031
100.023
100.018
100.014
100.01
100.008
100.006
100.004
100.003
100.002
100.002
100.001
100.001
100.001
100.001
100
100
100
100
100
100
386.93
361.127
336.268
312.818
291.06
271.117
252.991
236.607
221.844
208.566
196.632
185.91
176.277
167.624
159.852
152.875
146.616
141.008
135.989
131.506
127.508
123.952
120.795
118
115.533
113.362
111.456
109.79
108.338
107.077
105.985
105.044
104.236
103.544
102.954
102.453
102.03
101.673
101.373
101.123
100.915
100.743
100.6
100.484
100.388
100.31
100.246
100.195
100.154
100.121
100.095
100.074
100.057
100.044
100.034
100.026
100.02
100.015
100.012
100.009
100.007
100.005
100.004
100.003
100.002
100.001
100.001
100.001
100.001
100
100
100
100
100
100
387.927
364.024
340.816
318.67
297.838
278.466
260.605
244.239
229.309
215.731
203.408
192.242
182.136
173.001
164.751
157.311
150.611
144.587
139.18
134.338
130.011
126.153
122.724
119.684
116.997
114.629
112.55
110.729
109.142
107.762
106.567
105.536
104.65
103.892
103.245
102.695
102.23
101.839
101.51
101.235
101.006
100.817
100.661
100.532
100.427
100.341
100.271
100.215
100.17
100.133
100.104
100.081
100.063
100.049
100.038
100.029
100.022
100.017
100.013
100.01
100.007
100.005
100.004
100.003
100.002
100.002
100.001
100.001
100.001
100
100
100
100
100
100
388.698
366.278
344.389
323.325
303.308
284.484
266.93
250.666
235.675
221.911
209.313
197.811
187.332
177.804
169.156
161.323
154.242
147.854
142.105
136.942
132.319
128.191
124.514
121.249
118.361
115.812
113.572
111.609
109.895
108.405
107.114
105.999
105.041
104.22
103.519
102.924
102.42
101.995
101.639
101.341
101.093
100.887
100.717
100.578
100.464
100.37
100.295
100.234
100.184
100.145
100.114
100.089
100.069
100.053
100.041
100.031
100.024
100.018
100.014
100.01
100.008
100.006
100.004
100.003
100.002
100.002
100.001
100.001
100.001
100
100
100
100
100
100
389.304
368.057
347.23
327.063
307.75
289.429
272.189
256.072
241.089
227.222
214.435
202.682
191.912
182.066
173.09
164.925
157.518
150.815
144.766
139.321
134.435
130.062
126.163
122.695
119.623
116.909
114.521
112.427
110.598
109.005
107.625
106.432
105.406
104.527
103.776
103.138
102.598
102.143
101.76
101.441
101.174
100.953
100.771
100.621
100.498
100.398
100.317
100.251
100.198
100.156
100.122
100.095
100.074
100.057
100.044
100.034
100.026
100.02
100.015
100.011
100.008
100.006
100.005
100.004
100.003
100.002
100.001
100.001
100.001
100.001
100
100
100
100
100
389.787
369.479
349.512
330.088
311.375
293.505
276.567
260.618
245.684
231.769
218.858
206.922
195.926
185.828
176.581
168.14
160.456
153.482
147.172
141.479
136.36
131.771
127.672
124.022
120.783
117.92
115.397
113.184
111.248
109.562
108.099
106.835
105.746
104.813
104.016
103.339
102.765
102.281
101.874
101.534
101.251
101.016
100.821
100.662
100.531
100.424
100.338
100.268
100.212
100.166
100.13
100.102
100.079
100.061
100.047
100.036
100.028
100.021
100.016
100.012
100.009
100.007
100.005
100.004
100.003
100.002
100.001
100.001
100.001
100.001
100
100
100
100
100
390.176
370.625
351.359
332.551
314.349
296.873
280.215
264.438
249.578
235.654
222.665
210.597
199.429
189.129
179.663
170.991
163.074
155.869
149.334
143.425
138.102
133.322
129.045
125.231
121.844
118.845
116.201
113.879
111.847
110.075
108.537
107.207
106.061
105.078
104.239
103.525
102.919
102.409
101.98
101.621
101.322
101.073
100.868
100.7
100.562
100.449
100.357
100.283
100.224
100.176
100.138
100.108
100.084
100.065
100.05
100.038
100.029
100.022
100.017
100.013
100.01
100.007
100.005
100.004
100.003
100.002
100.002
100.001
100.001
100.001
100
100
100
100
100
390.491
371.555
352.863
334.566
316.796
299.664
283.26
267.648
252.874
238.965
225.931
213.771
202.472
192.013
182.369
173.508
165.395
157.993
151.265
145.17
139.668
134.72
130.286
126.328
122.807
119.688
116.935
114.514
112.394
110.545
108.939
107.549
106.351
105.323
104.444
103.696
103.062
102.527
102.078
101.701
101.387
101.127
100.912
100.735
100.59
100.472
100.376
100.298
100.235
100.185
100.145
100.113
100.088
100.068
100.052
100.04
100.031
100.023
100.018
100.013
100.01
100.008
100.006
100.004
100.003
100.002
100.002
100.001
100.001
100.001
100
100
100
100
100
390.747
372.314
354.095
336.222
318.816
301.981
285.801
270.344
255.66
241.781
228.726
216.502
205.105
194.522
184.735
175.718
167.441
159.874
152.981
146.725
141.069
135.974
131.403
127.316
123.678
120.451
117.6
115.091
112.893
110.974
109.306
107.861
106.616
105.547
104.632
103.854
103.194
102.636
102.167
101.775
101.448
101.177
100.952
100.767
100.616
100.493
100.392
100.311
100.246
100.193
100.151
100.118
100.092
100.071
100.055
100.042
100.032
100.024
100.019
100.014
100.011
100.008
100.006
100.004
100.003
100.002
100.002
100.001
100.001
100.001
100
100
100
100
100
390.957
372.937
355.106
337.587
320.488
303.907
287.925
272.609
258.012
244.172
231.112
218.846
207.376
196.696
186.794
177.649
169.237
161.531
154.497
148.104
142.314
137.092
132.401
128.202
124.46
121.138
118.2
115.613
113.344
111.362
109.638
108.145
106.857
105.75
104.804
103.997
103.313
102.736
102.25
101.843
101.504
101.222
100.989
100.797
100.64
100.512
100.408
100.323
100.256
100.201
100.158
100.123
100.096
100.074
100.057
100.044
100.033
100.025
100.019
100.015
100.011
100.008
100.006
100.005
100.003
100.002
100.002
100.001
100.001
100.001
100
100
100
100
100
391.13
373.448
355.94
338.715
321.874
305.509
289.699
274.51
259.996
246.198
233.143
220.85
209.327
198.572
188.578
179.33
170.806
162.983
155.831
149.32
143.416
138.084
133.288
128.992
125.158
121.752
118.738
116.081
113.75
111.712
109.939
108.402
107.075
105.935
104.959
104.128
103.422
102.826
102.325
101.905
101.554
101.263
101.023
100.825
100.662
100.53
100.422
100.335
100.264
100.208
100.163
100.127
100.099
100.077
100.059
100.045
100.035
100.026
100.02
100.015
100.011
100.009
100.006
100.005
100.003
100.003
100.002
100.001
100.001
100.001
100.001
100
100
100
100
391.272
373.87
356.628
339.648
323.023
306.843
291.181
276.105
261.667
247.911
234.869
222.56
210.999
200.186
190.119
180.786
172.17
164.25
156.999
150.388
144.386
138.96
134.074
129.692
125.779
122.299
119.218
116.5
114.113
112.026
110.209
108.633
107.272
106.102
105.1
104.246
103.521
102.908
102.393
101.961
101.6
101.301
101.053
100.849
100.682
100.546
100.435
100.345
100.273
100.214
100.168
100.131
100.102
100.079
100.061
100.047
100.036
100.027
100.021
100.016
100.012
100.009
100.007
100.005
100.004
100.003
100.002
100.001
100.001
100.001
100.001
100
100
100
100
391.39
374.219
357.197
340.42
323.978
307.953
292.419
277.441
263.073
249.359
236.331
224.016
212.426
201.569
191.444
182.043
173.351
165.35
158.016
151.321
145.236
139.729
134.765
130.31
126.328
122.784
119.644
116.872
114.437
112.306
110.45
108.839
107.448
106.251
105.226
104.352
103.61
102.982
102.454
102.011
101.642
101.335
101.081
100.872
100.7
100.56
100.446
100.354
100.28
100.22
100.173
100.135
100.105
100.081
100.063
100.048
100.037
100.028
100.021
100.016
100.012
100.009
100.007
100.005
100.004
100.003
100.002
100.001
100.001
100.001
100.001
100
100
100
100
391.486
374.507
357.668
341.06
324.771
308.877
293.453
278.561
264.254
250.578
237.568
225.25
213.642
202.751
192.58
183.124
174.37
166.302
158.898
152.133
145.977
140.401
135.37
130.852
126.811
123.211
120.02
117.202
114.724
112.555
110.664
109.022
107.604
106.384
105.338
104.446
103.689
103.048
102.509
102.057
101.679
101.365
101.106
100.892
100.717
100.573
100.457
100.363
100.287
100.226
100.177
100.138
100.107
100.083
100.064
100.049
100.038
100.029
100.022
100.016
100.012
100.009
100.007
100.005
100.004
100.003
100.002
100.001
100.001
100.001
100.001
100
100
100
100
391.567
374.745
358.057
341.591
325.429
309.647
294.315
279.496
265.244
251.604
238.612
226.295
214.673
203.757
193.551
184.05
175.245
167.122
159.66
152.835
146.62
140.985
135.898
131.326
127.233
123.586
120.35
117.491
114.976
112.774
110.853
109.185
107.743
106.502
105.438
104.53
103.759
103.107
102.558
102.097
101.712
101.393
101.128
100.91
100.731
100.585
100.466
100.37
100.293
100.23
100.181
100.141
100.11
100.085
100.065
100.05
100.038
100.029
100.022
100.017
100.013
100.009
100.007
100.005
100.004
100.003
100.002
100.002
100.001
100.001
100.001
100
100
100
100
391.633
374.941
358.38
342.031
325.975
310.286
295.033
280.278
266.073
252.465
239.49
227.177
215.547
204.611
194.376
184.84
175.994
167.825
160.315
153.441
147.176
141.492
136.357
131.738
127.601
123.913
120.639
117.745
115.198
112.966
111.019
109.328
107.865
106.606
105.526
104.605
103.822
103.159
102.601
102.133
101.742
101.417
101.148
100.926
100.744
100.596
100.475
100.377
100.298
100.234
100.184
100.144
100.112
100.086
100.067
100.051
100.039
100.03
100.023
100.017
100.013
100.01
100.007
100.005
100.004
100.003
100.002
100.002
100.001
100.001
100.001
100
100
100
100
391.687
375.104
358.646
342.395
326.427
310.817
295.631
280.929
266.766
253.186
240.228
227.92
216.284
205.334
195.077
185.512
176.633
168.427
160.877
153.961
147.654
141.928
136.752
132.094
127.921
124.197
120.89
117.966
115.391
113.134
111.165
109.453
107.973
106.698
105.604
104.67
103.877
103.205
102.639
102.165
101.768
101.438
101.165
100.94
100.756
100.605
100.482
100.383
100.303
100.238
100.187
100.146
100.113
100.088
100.068
100.052
100.04
100.03
100.023
100.017
100.013
100.01
100.007
100.005
100.004
100.003
100.002
100.002
100.001
100.001
100.001
100
100
100
100
391.733
375.238
358.867
342.696
326.802
311.257
296.127
281.472
267.344
253.789
240.845
228.543
216.904
205.944
195.669
186.082
177.175
168.938
161.356
154.406
148.064
142.303
137.093
132.402
128.196
124.443
121.108
118.158
115.559
113.281
111.292
109.563
108.067
106.778
105.672
104.728
103.925
103.246
102.673
102.192
101.791
101.457
101.181
100.953
100.766
100.613
100.489
100.388
100.307
100.242
100.189
100.148
100.115
100.089
100.069
100.053
100.04
100.031
100.023
100.018
100.013
100.01
100.007
100.006
100.004
100.003
100.002
100.002
100.001
100.001
100.001
100
100
100
100
391.77
375.349
359.048
342.945
327.112
311.622
296.539
281.922
267.824
254.291
241.361
229.065
217.424
206.456
196.168
186.562
177.634
169.372
161.763
154.784
148.413
142.623
137.384
132.665
128.433
124.654
121.295
118.323
115.704
113.407
111.402
109.658
108.148
106.847
105.731
104.778
103.967
103.281
102.702
102.217
101.811
101.474
101.194
100.964
100.775
100.62
100.494
100.393
100.31
100.244
100.192
100.15
100.116
100.09
100.07
100.053
100.041
100.031
100.024
100.018
100.013
100.01
100.008
100.006
100.004
100.003
100.002
100.002
100.001
100.001
100.001
100
100
100
100
391.8
375.441
359.198
343.15
327.368
311.923
296.879
282.295
268.224
254.709
241.791
229.5
217.86
206.886
196.587
186.967
178.021
169.739
162.107
155.105
148.71
142.896
137.633
132.89
128.635
124.835
121.456
118.465
115.829
113.517
111.496
109.74
108.218
106.907
105.782
104.821
104.004
103.311
102.728
102.238
101.829
101.488
101.206
100.974
100.783
100.627
100.5
100.397
100.314
100.247
100.194
100.151
100.118
100.091
100.07
100.054
100.041
100.031
100.024
100.018
100.014
100.01
100.008
100.006
100.004
100.003
100.002
100.002
100.001
100.001
100.001
100
100
100
100
391.826
375.516
359.322
343.319
327.579
312.172
297.161
282.604
268.554
255.056
242.149
229.863
218.223
207.245
196.938
187.306
178.346
170.048
162.397
155.376
148.961
143.127
137.844
133.082
128.808
124.99
121.594
118.587
115.936
113.61
111.578
109.81
108.279
106.959
105.827
104.859
104.035
103.338
102.75
102.256
101.844
101.501
101.216
100.982
100.789
100.632
100.504
100.4
100.316
100.249
100.196
100.153
100.119
100.092
100.071
100.055
100.042
100.032
100.024
100.018
100.014
100.01
100.008
100.006
100.004
100.003
100.002
100.002
100.001
100.001
100.001
100
100
100
100
391.846
375.577
359.423
343.458
327.753
312.377
297.393
282.859
268.827
255.343
242.445
230.164
218.525
207.544
197.231
187.59
178.618
170.307
162.641
155.604
149.173
143.322
138.022
133.244
128.954
125.121
121.711
118.691
116.028
113.69
111.647
109.87
108.331
107.004
105.865
104.891
104.062
103.361
102.769
102.272
101.857
101.512
101.225
100.989
100.795
100.637
100.508
100.403
100.319
100.251
100.197
100.154
100.12
100.093
100.072
100.055
100.042
100.032
100.024
100.018
100.014
100.01
100.008
100.006
100.004
100.003
100.002
100.002
100.001
100.001
100.001
100
100
100
100
391.863
375.628
359.506
343.571
327.895
312.545
297.584
283.069
269.053
255.58
242.69
230.413
218.775
207.792
197.474
187.826
178.845
170.523
162.846
155.796
149.351
143.486
138.172
133.38
129.078
125.232
121.81
118.778
116.105
113.758
111.706
109.922
108.375
107.042
105.897
104.918
104.086
103.38
102.785
102.286
101.868
101.521
101.233
100.995
100.8
100.641
100.511
100.406
100.321
100.253
100.198
100.155
100.121
100.093
100.072
100.055
100.042
100.032
100.024
100.019
100.014
100.01
100.008
100.006
100.004
100.003
100.002
100.002
100.001
100.001
100.001
100
100
100
100
391.877
375.669
359.574
343.665
328.012
312.683
297.74
283.241
269.238
255.775
242.892
230.619
218.982
207.997
197.676
188.022
179.034
170.703
163.016
155.955
149.499
143.623
138.298
133.495
129.181
125.325
121.893
118.852
116.17
113.815
111.757
109.965
108.413
107.074
105.925
104.942
104.106
103.397
102.799
102.297
101.878
101.529
101.239
101.001
100.805
100.644
100.514
100.408
100.323
100.254
100.199
100.156
100.121
100.094
100.072
100.056
100.043
100.032
100.025
100.019
100.014
100.011
100.008
100.006
100.004
100.003
100.002
100.002
100.001
100.001
100.001
100
100
100
100
391.889
375.703
359.63
343.741
328.107
312.796
297.868
283.382
269.39
255.935
243.057
230.788
219.152
208.166
197.843
188.184
179.19
170.852
163.157
156.088
149.623
143.738
138.403
133.591
129.268
125.403
121.963
118.915
116.225
113.864
111.799
110.002
108.445
107.101
105.948
104.962
104.122
103.411
102.811
102.307
101.886
101.535
101.245
101.005
100.808
100.647
100.516
100.41
100.324
100.256
100.2
100.157
100.122
100.094
100.073
100.056
100.043
100.033
100.025
100.019
100.014
100.011
100.008
100.006
100.004
100.003
100.002
100.002
100.001
100.001
100.001
100
100
100
100
391.898
375.731
359.675
343.803
328.185
312.887
297.973
283.498
269.514
256.066
243.193
230.927
219.292
208.306
197.98
188.318
179.319
170.975
163.274
156.198
149.726
143.833
138.491
133.671
129.341
125.469
122.022
118.967
116.271
113.904
111.834
110.033
108.471
107.124
105.967
104.978
104.137
103.423
102.821
102.316
101.893
101.541
101.25
101.009
100.812
100.65
100.518
100.412
100.326
100.257
100.201
100.157
100.122
100.095
100.073
100.056
100.043
100.033
100.025
100.019
100.014
100.011
100.008
100.006
100.004
100.003
100.002
100.002
100.001
100.001
100.001
100
100
100
100
391.905
375.753
359.711
343.853
328.248
312.962
298.058
283.591
269.615
256.173
243.304
231.04
219.406
208.42
198.092
188.428
179.425
171.077
163.37
156.289
149.811
143.911
138.563
133.737
129.401
125.523
122.07
119.01
116.31
113.938
111.864
110.058
108.494
107.144
105.984
104.992
104.148
103.433
102.83
102.323
101.899
101.546
101.254
101.012
100.814
100.652
100.52
100.413
100.327
100.257
100.202
100.158
100.123
100.095
100.073
100.056
100.043
100.033
100.025
100.019
100.014
100.011
100.008
100.006
100.004
100.003
100.002
100.002
100.001
100.001
100.001
100
100
100
100
391.911
375.771
359.741
343.894
328.299
313.023
298.127
283.668
269.697
256.26
243.394
231.133
219.5
208.513
198.184
188.518
179.512
171.16
163.45
156.363
149.881
143.976
138.623
133.792
129.451
125.568
122.111
119.046
116.342
113.966
111.889
110.08
108.512
107.16
105.998
105.004
104.158
103.442
102.837
102.329
101.904
101.55
101.257
101.015
100.816
100.654
100.522
100.414
100.328
100.258
100.203
100.158
100.123
100.095
100.074
100.057
100.043
100.033
100.025
100.019
100.014
100.011
100.008
100.006
100.004
100.003
100.002
100.002
100.001
100.001
100.001
100
100
100
100
391.916
375.785
359.765
343.927
328.341
313.072
298.182
283.729
269.763
256.33
243.468
231.208
219.575
208.589
198.259
188.591
179.583
171.228
163.514
156.425
149.938
144.029
138.672
133.837
129.492
125.605
122.144
119.076
116.368
113.989
111.909
110.098
108.528
107.173
106.009
105.014
104.167
103.449
102.843
102.334
101.908
101.553
101.26
101.017
100.818
100.655
100.523
100.415
100.329
100.259
100.203
100.159
100.123
100.096
100.074
100.057
100.043
100.033
100.025
100.019
100.014
100.011
100.008
100.006
100.004
100.003
100.002
100.002
100.001
100.001
100.001
100
100
100
100
391.92
375.797
359.784
343.954
328.374
313.111
298.227
283.779
269.817
256.387
243.527
231.268
219.637
208.65
198.32
188.65
179.641
171.284
163.567
156.474
149.984
144.073
138.712
133.873
129.525
125.635
122.171
119.1
116.39
114.009
111.926
110.112
108.54
107.184
106.019
105.022
104.174
103.454
102.847
102.338
101.911
101.556
101.262
101.019
100.82
100.657
100.524
100.416
100.329
100.259
100.204
100.159
100.124
100.096
100.074
100.057
100.044
100.033
100.025
100.019
100.014
100.011
100.008
100.006
100.004
100.003
100.002
100.002
100.001
100.001
100.001
100
100
100
100
391.923
375.807
359.8
343.975
328.401
313.143
298.264
283.819
269.861
256.433
243.575
231.318
219.687
208.7
198.369
188.698
179.687
171.329
163.61
156.515
150.023
144.108
138.745
133.903
129.553
125.66
122.194
119.12
116.408
114.024
111.94
110.124
108.551
107.193
106.026
105.029
104.179
103.459
102.851
102.341
101.914
101.559
101.264
101.021
100.821
100.658
100.525
100.417
100.33
100.26
100.204
100.159
100.124
100.096
100.074
100.057
100.044
100.033
100.025
100.019
100.014
100.011
100.008
100.006
100.004
100.003
100.002
100.002
100.001
100.001
100.001
100
100
100
100
391.926
375.814
359.812
343.992
328.422
313.169
298.293
283.851
269.895
256.47
243.613
231.357
219.727
208.74
198.409
188.737
179.725
171.365
163.645
156.548
150.053
144.137
138.772
133.928
129.575
125.68
122.212
119.137
116.422
114.037
111.951
110.134
108.56
107.2
106.033
105.034
104.184
103.463
102.855
102.344
101.916
101.561
101.266
101.022
100.822
100.659
100.525
100.417
100.33
100.26
100.204
100.16
100.124
100.096
100.074
100.057
100.044
100.033
100.025
100.019
100.014
100.011
100.008
100.006
100.004
100.003
100.002
100.002
100.001
100.001
100.001
100
100
100
100
391.928
375.82
359.822
344.006
328.439
313.189
298.316
283.877
269.923
256.499
243.644
231.389
219.759
208.772
198.44
188.769
179.755
171.394
163.673
156.574
150.078
144.16
138.793
133.948
129.593
125.697
122.227
119.15
116.434
114.048
111.96
110.142
108.567
107.207
106.038
105.039
104.188
103.466
102.858
102.346
101.918
101.562
101.267
101.023
100.823
100.659
100.526
100.418
100.331
100.26
100.204
100.16
100.124
100.096
100.074
100.057
100.044
100.033
100.025
100.019
100.014
100.011
100.008
100.006
100.004
100.003
100.002
100.002
100.001
100.001
100.001
100
100
100
100
391.929
375.825
359.83
344.017
328.453
313.205
298.334
283.897
269.945
256.523
243.668
231.414
219.784
208.798
198.466
188.794
179.78
171.418
163.695
156.596
150.098
144.179
138.81
133.964
129.608
125.71
122.239
119.16
116.444
114.056
111.968
110.149
108.572
107.211
106.042
105.042
104.191
103.469
102.86
102.348
101.92
101.563
101.268
101.024
100.824
100.66
100.526
100.418
100.331
100.261
100.205
100.16
100.124
100.096
100.074
100.057
100.044
100.033
100.025
100.019
100.014
100.011
100.008
100.006
100.004
100.003
100.002
100.002
100.001
100.001
100.001
100
100
100
100
391.931
375.829
359.836
344.025
328.464
313.218
298.349
283.914
269.963
256.541
243.688
231.434
219.805
208.818
198.486
188.814
179.799
171.436
163.713
156.613
150.114
144.194
138.824
133.976
129.619
125.721
122.248
119.169
116.451
114.063
111.974
110.154
108.577
107.215
106.046
105.045
104.193
103.471
102.862
102.349
101.921
101.564
101.269
101.025
100.824
100.66
100.527
100.419
100.331
100.261
100.205
100.16
100.124
100.096
100.074
100.057
100.044
100.033
100.025
100.019
100.014
100.011
100.008
100.006
100.004
100.003
100.002
100.002
100.001
100.001
100.001
100
100
100
100
391.932
375.832
359.841
344.032
328.472
313.228
298.361
283.927
269.977
256.556
243.703
231.45
219.821
208.834
198.502
188.829
179.815
171.451
163.727
156.626
150.127
144.206
138.835
133.987
129.629
125.729
122.256
119.176
116.457
114.068
111.979
110.158
108.581
107.219
106.049
105.048
104.195
103.473
102.863
102.351
101.922
101.565
101.27
101.025
100.825
100.661
100.527
100.419
100.331
100.261
100.205
100.16
100.125
100.097
100.075
100.057
100.044
100.033
100.025
100.019
100.014
100.011
100.008
100.006
100.004
100.003
100.002
100.002
100.001
100.001
100.001
100
100
100
100
391.932
375.834
359.845
344.037
328.479
313.236
298.37
283.937
269.988
256.568
243.715
231.462
219.834
208.847
198.515
188.842
179.827
171.463
163.739
156.637
150.137
144.215
138.844
133.995
129.636
125.736
122.262
119.182
116.462
114.073
111.982
110.162
108.584
107.221
106.051
105.05
104.197
103.474
102.864
102.352
101.923
101.566
101.27
101.026
100.825
100.661
100.527
100.419
100.332
100.261
100.205
100.16
100.125
100.097
100.075
100.057
100.044
100.033
100.025
100.019
100.014
100.011
100.008
100.006
100.004
100.003
100.002
100.002
100.001
100.001
100.001
100
100
100
100
391.933
375.836
359.848
344.042
328.484
313.242
298.377
283.945
269.996
256.577
243.725
231.472
219.844
208.857
198.525
188.852
179.837
171.472
163.748
156.645
150.145
144.223
138.851
134.001
129.642
125.741
122.267
119.186
116.466
114.076
111.985
110.165
108.586
107.223
106.053
105.051
104.198
103.475
102.865
102.352
101.924
101.567
101.271
101.026
100.825
100.661
100.528
100.419
100.332
100.261
100.205
100.16
100.125
100.097
100.075
100.057
100.044
100.033
100.025
100.019
100.014
100.011
100.008
100.006
100.004
100.003
100.002
100.002
100.001
100.001
100.001
100
100
100
100
391.934
375.837
359.851
344.045
328.489
313.247
298.383
283.951
270.003
256.584
243.733
231.48
219.852
208.865
198.533
188.86
179.844
171.48
163.755
156.652
150.152
144.229
138.857
134.006
129.647
125.746
122.271
119.189
116.469
114.079
111.988
110.167
108.588
107.225
106.054
105.052
104.199
103.476
102.866
102.353
101.924
101.567
101.271
101.027
100.826
100.661
100.528
100.419
100.332
100.261
100.205
100.16
100.125
100.097
100.075
100.057
100.044
100.033
100.025
100.019
100.014
100.011
100.008
100.006
100.004
100.003
100.002
100.002
100.001
100.001
100.001
100
100
100
100
391.934
375.839
359.853
344.047
328.492
313.251
298.387
283.956
270.009
256.59
243.739
231.486
219.858
208.872
198.539
188.866
179.85
171.486
163.76
156.657
150.157
144.233
138.861
134.01
129.65
125.749
122.274
119.192
116.472
114.081
111.99
110.168
108.589
107.226
106.055
105.053
104.2
103.477
102.866
102.354
101.925
101.567
101.271
101.027
100.826
100.662
100.528
100.419
100.332
100.261
100.205
100.16
100.125
100.097
100.075
100.057
100.044
100.033
100.025
100.019
100.014
100.011
100.008
100.006
100.004
100.003
100.002
100.002
100.001
100.001
100.001
100
100
100
100
391.934
375.839
359.854
344.049
328.494
313.254
298.391
283.96
270.013
256.594
243.743
231.491
219.863
208.877
198.544
188.871
179.855
171.49
163.765
156.662
150.16
144.237
138.865
134.014
129.653
125.752
122.276
119.194
116.474
114.083
111.991
110.17
108.59
107.227
106.056
105.054
104.201
103.477
102.867
102.354
101.925
101.568
101.271
101.027
100.826
100.662
100.528
100.419
100.332
100.262
100.205
100.16
100.125
100.097
100.075
100.057
100.044
100.033
100.025
100.019
100.014
100.011
100.008
100.006
100.004
100.003
100.002
100.002
100.001
100.001
100.001
100
100
100
100
391.935
375.84
359.855
344.051
328.496
313.257
298.393
283.963
270.016
256.598
243.747
231.495
219.866
208.88
198.548
188.874
179.858
171.494
163.768
156.665
150.164
144.24
138.867
134.016
129.656
125.754
122.278
119.196
116.475
114.084
111.993
110.171
108.591
107.228
106.057
105.055
104.201
103.478
102.867
102.354
101.925
101.568
101.272
101.027
100.826
100.662
100.528
100.42
100.332
100.262
100.205
100.16
100.125
100.097
100.075
100.057
100.044
100.033
100.025
100.019
100.014
100.011
100.008
100.006
100.004
100.003
100.002
100.002
100.001
100.001
100.001
100
100
100
100
391.935
375.841
359.856
344.052
328.498
313.258
298.395
283.965
270.018
256.6
243.749
231.497
219.869
208.883
198.551
188.877
179.861
171.496
163.771
156.667
150.166
144.242
138.869
134.018
129.657
125.755
122.28
119.197
116.477
114.085
111.994
110.172
108.592
107.229
106.057
105.055
104.202
103.478
102.868
102.355
101.925
101.568
101.272
101.027
100.826
100.662
100.528
100.42
100.332
100.262
100.205
100.16
100.125
100.097
100.075
100.057
100.044
100.033
100.025
100.019
100.014
100.011
100.008
100.006
100.004
100.003
100.002
100.002
100.001
100.001
100.001
100
100
100
100
391.935
375.841
359.857
344.053
328.499
313.26
298.397
283.967
270.02
256.602
243.752
231.5
219.872
208.885
198.553
188.879
179.863
171.498
163.773
156.669
150.168
144.244
138.871
134.019
129.659
125.757
122.281
119.198
116.477
114.086
111.994
110.172
108.593
107.229
106.058
105.055
104.202
103.478
102.868
102.355
101.926
101.568
101.272
101.027
100.826
100.662
100.528
100.42
100.332
100.262
100.205
100.16
100.125
100.097
100.075
100.057
100.044
100.033
100.025
100.019
100.014
100.011
100.008
100.006
100.004
100.003
100.002
100.002
100.001
100.001
100.001
100
100
100
100
391.935
375.841
359.857
344.054
328.5
313.261
298.398
283.968
270.022
256.604