/*--------------------------------*- C++ -*----------------------------------*\
  =========                 |
  \\      /  F ield         | OpenFOAM: The Open Source CFD Toolbox
   \\    /   O peration     | Website:  https://openfoam.org
    \\  /    A nd           | Version:  10
     \\/     M anipulation  |
\*---------------------------------------------------------------------------*/
FoamFile
{
    format      ascii;
    class       volScalarField;
    location    "329";
    object      gradTz;
}
// * * * * * * * * * * * * * * * * * * * * * * * * * * * * * * * * * * * * * //

dimensions      [0 -1 0 1 0 0 0];

internalField   nonuniform List<scalar> 
11250
(
-14348.1
-4143.65
-1523.47
-720.061
-415.538
-274.125
-196.962
-149.659
-118.138
-95.7915
-79.1702
-66.328
-56.0987
-47.7504
-40.8057
-34.9431
-29.9397
-25.6363
-21.9161
-18.6908
-15.8918
-13.4638
-11.361
-9.54485
-7.98159
-6.64154
-5.49811
-4.52738
-3.70768
-3.01942
-2.44492
-1.96826
-1.57524
-1.25321
-0.991045
-0.778989
-0.608585
-0.472549
-0.364667
-0.279678
-0.21317
-0.161469
-0.121547
-0.0909257
-0.0675946
-0.0499364
-0.0366608
-0.0267463
-0.0193911
-0.0139707
-0.0100026
-0.0071168
-0.00503195
-0.00353565
-0.00246879
-0.00171311
-0.00118133
-0.00080955
-0.000551325
-0.000373132
-0.000250964
-0.000167747
-0.000111428
-7.35584e-05
-4.82585e-05
-3.1465e-05
-2.03902e-05
-1.31347e-05
-8.41402e-06
-5.366e-06
-3.41685e-06
-2.18886e-06
-1.43746e-06
-1.00944e-06
-8.15818e-07
-8248.49
-4846.35
-2753.34
-1661.01
-1083.24
-757.89
-560.824
-433.027
-345.111
-281.555
-233.674
-196.349
-166.426
-141.889
-121.403
-104.061
-89.2285
-76.4497
-65.3882
-55.7881
-47.4496
-40.2113
-33.9393
-28.5195
-23.8527
-19.851
-16.4355
-13.5352
-11.0857
-9.02866
-7.31135
-5.88636
-4.71125
-3.74834
-2.96435
-2.33017
-1.82051
-1.41363
-1.09094
-0.836713
-0.637758
-0.483093
-0.363661
-0.27205
-0.202247
-0.149416
-0.109696
-0.080031
-0.0580235
-0.0418048
-0.0299313
-0.0212963
-0.0150578
-0.0105803
-0.00738786
-0.00512652
-0.00353519
-0.00242265
-0.0016499
-0.00111665
-0.000751049
-0.000502013
-0.000333471
-0.00022014
-0.000144426
-9.41675e-05
-6.10234e-05
-3.93095e-05
-2.51817e-05
-1.60596e-05
-1.02262e-05
-6.55091e-06
-4.30215e-06
-3.02122e-06
-2.44171e-06
-5550.02
-4238.95
-2981.61
-2086.53
-1497.73
-1112.67
-854.81
-676.012
-547.332
-451.364
-377.451
-318.902
-271.402
-232.099
-199.059
-170.941
-146.791
-125.918
-107.803
-92.0484
-78.3417
-66.4275
-56.0925
-47.1538
-39.4512
-32.8422
-27.1985
-22.4039
-18.353
-14.95
-12.1083
-9.74967
-7.80428
-6.20988
-4.91152
-3.86111
-3.01686
-2.34276
-1.8081
-1.38683
-1.05713
-0.800803
-0.602854
-0.451007
-0.335301
-0.247722
-0.181875
-0.132695
-0.0962089
-0.0693186
-0.0496319
-0.0353142
-0.0249699
-0.0175454
-0.0122516
-0.00850171
-0.00586279
-0.00401781
-0.0027363
-0.00185195
-0.00124563
-0.000832609
-0.000553083
-0.000365122
-0.000239545
-0.000156189
-0.000101216
-6.52014e-05
-4.17685e-05
-2.66382e-05
-1.69624e-05
-1.08663e-05
-7.13625e-06
-5.01154e-06
-4.05035e-06
-4161
-3576.25
-2846.1
-2204.35
-1707.17
-1339.09
-1068.73
-868.049
-716.19
-598.653
-505.582
-430.296
-368.236
-316.25
-272.13
-234.301
-201.622
-173.244
-148.526
-126.965
-108.162
-91.7863
-77.5584
-65.2367
-54.6073
-45.4788
-37.6776
-31.0459
-25.4397
-20.728
-16.7917
-13.5235
-10.8271
-8.61648
-6.81595
-5.35895
-4.18768
-3.25233
-2.51033
-1.92563
-1.46795
-1.1121
-0.837259
-0.62641
-0.465733
-0.344105
-0.252651
-0.184342
-0.133661
-0.0963068
-0.0689581
-0.0490671
-0.0346954
-0.02438
-0.0170246
-0.0118141
-0.00814726
-0.00558352
-0.00380271
-0.00257377
-0.00173116
-0.00115718
-0.000768701
-0.000507473
-0.000332944
-0.000217091
-0.000140686
-9.06282e-05
-5.8058e-05
-3.70275e-05
-2.35784e-05
-1.51048e-05
-9.92005e-06
-6.96663e-06
-5.63052e-06
-3354.47
-3056.75
-2620.06
-2175.6
-1785.69
-1466.15
-1211.58
-1010.11
-849.822
-720.828
-615.532
-528.315
-455.072
-392.819
-339.377
-293.139
-252.907
-217.77
-187.023
-160.104
-136.558
-116.001
-98.104
-82.5792
-69.1682
-57.6373
-47.7734
-39.3813
-32.2819
-26.3115
-21.3211
-17.1758
-13.7543
-10.9484
-8.66219
-6.81169
-5.32373
-4.13521
-3.1922
-2.44897
-1.86711
-1.41463
-1.06512
-0.796959
-0.592581
-0.437859
-0.321509
-0.234599
-0.17011
-0.122576
-0.0877722
-0.0624572
-0.0441656
-0.0310359
-0.0216733
-0.0150406
-0.0103727
-0.00710891
-0.00484175
-0.00327711
-0.00220431
-0.00147349
-0.000978848
-0.000646222
-0.000423985
-0.000276459
-0.000179163
-0.000115418
-7.39402e-05
-4.71576e-05
-3.00297e-05
-1.92381e-05
-1.26348e-05
-8.87339e-06
-7.17171e-06
-2842.78
-2673.4
-2399.1
-2089.76
-1791.54
-1526.18
-1299.54
-1109.51
-951.013
-818.478
-706.902
-612.165
-531.016
-460.941
-400.017
-346.77
-300.06
-258.999
-222.878
-191.119
-163.242
-138.833
-117.534
-99.0212
-83.0027
-69.211
-57.3994
-47.3401
-38.8232
-31.6555
-25.6605
-20.678
-16.5635
-13.1878
-10.4364
-8.20854
-6.41665
-4.98499
-3.84879
-2.95311
-2.25176
-1.70628
-1.28486
-0.961469
-0.714972
-0.52834
-0.387979
-0.283122
-0.205309
-0.14795
-0.105948
-0.0753952
-0.0533175
-0.037469
-0.026167
-0.01816
-0.0125245
-0.00858399
-0.00584663
-0.00395741
-0.00266199
-0.00177949
-0.00118217
-0.000780474
-0.000512083
-0.000333913
-0.000216403
-0.000139411
-8.93135e-05
-5.69639e-05
-3.62752e-05
-2.32399e-05
-1.52635e-05
-1.07197e-05
-8.66416e-06
-2497.01
-2391.58
-2209.91
-1989.73
-1761.73
-1545
-1348.72
-1175.6
-1024.85
-894.173
-780.826
-682.196
-596.002
-520.35
-453.702
-394.826
-342.73
-296.61
-255.805
-219.761
-188
-160.104
-135.696
-114.435
-96.0053
-80.1127
-66.484
-54.8641
-45.0164
-36.7218
-29.7793
-24.0057
-19.2352
-15.3195
-12.1265
-9.54013
-7.45918
-5.79606
-4.4758
-3.43477
-2.61944
-1.98516
-1.49505
-1.1189
-0.83213
-0.614979
-0.451645
-0.32961
-0.239041
-0.172271
-0.123374
-0.0878017
-0.062095
-0.0436401
-0.0304783
-0.0211532
-0.0145896
-0.00999985
-0.00681129
-0.00461056
-0.00310147
-0.00207335
-0.00137744
-0.000909428
-0.000596712
-0.00038911
-0.000252183
-0.000162467
-0.000104087
-6.63884e-05
-4.22782e-05
-2.70866e-05
-1.77904e-05
-1.24949e-05
-1.00991e-05
-2252.61
-2182.04
-2055.44
-1893.93
-1717.38
-1540.47
-1372.24
-1217.23
-1077
-951.372
-839.324
-739.518
-650.584
-571.264
-500.458
-437.228
-380.781
-330.447
-285.647
-245.879
-210.695
-179.688
-152.483
-128.729
-108.097
-90.2765
-74.9721
-61.9077
-50.824
-41.4799
-33.6528
-27.139
-21.7537
-17.3308
-13.7226
-10.7987
-8.44527
-6.56374
-5.06964
-3.89121
-2.96803
-2.2497
-1.69453
-1.26835
-0.943398
-0.697292
-0.512151
-0.373805
-0.271118
-0.195405
-0.139953
-0.0996083
-0.07045
-0.0495153
-0.0345838
-0.0240041
-0.0165568
-0.0113488
-0.00773052
-0.00523304
-0.00352037
-0.00235349
-0.00156362
-0.00103239
-0.000677419
-0.000441755
-0.000286313
-0.000184461
-0.000118182
-7.5381e-05
-4.80065e-05
-3.07577e-05
-2.02024e-05
-1.41894e-05
-1.1469e-05
-2074.18
-2024.01
-1931.54
-1809.13
-1669.67
-1523.94
-1379.68
-1241.73
-1112.7
-993.669
-884.776
-785.658
-695.708
-614.245
-540.594
-474.124
-414.265
-360.5
-312.359
-269.413
-231.26
-197.52
-167.831
-141.845
-119.228
-99.6577
-82.8257
-68.4387
-56.2193
-45.9077
-37.2628
-30.0631
-24.1068
-19.2122
-15.2171
-11.9782
-9.37018
-7.28433
-5.62744
-4.32022
-3.29587
-2.49862
-1.88232
-1.40912
-1.04825
-0.774886
-0.56921
-0.415497
-0.301387
-0.217242
-0.155607
-0.110759
-0.078343
-0.055067
-0.0384641
-0.0266991
-0.0184168
-0.0126245
-0.00859999
-0.00582192
-0.00391672
-0.0026186
-0.00173983
-0.00114879
-0.000753827
-0.000491601
-0.000318632
-0.000205291
-0.000131533
-8.38997e-05
-5.34337e-05
-3.42361e-05
-2.2488e-05
-1.57954e-05
-1.27675e-05
-1940.8
-1903.26
-1832.75
-1736.85
-1624.08
-1502.26
-1377.63
-1254.68
-1136.35
-1024.35
-919.557
-822.284
-732.52
-650.062
-574.613
-505.835
-443.375
-386.879
-335.997
-290.383
-249.692
-213.584
-181.718
-153.758
-129.372
-108.233
-90.0231
-74.4378
-61.1853
-49.9906
-40.5972
-32.7679
-26.2864
-20.957
-16.6046
-13.0744
-10.2305
-7.95518
-6.14713
-4.72021
-3.60173
-2.731
-2.05773
-1.54067
-1.14627
-0.847466
-0.622604
-0.454526
-0.329733
-0.237699
-0.170276
-0.121212
-0.0857437
-0.0602737
-0.0421042
-0.0292279
-0.0201625
-0.0138221
-0.00941635
-0.00637494
-0.004289
-0.00286764
-0.0019054
-0.00125817
-0.00082564
-0.000538457
-0.000349017
-0.000224877
-0.000144088
-9.19115e-05
-5.85386e-05
-3.75085e-05
-2.46386e-05
-1.73066e-05
-1.39895e-05
-1839.33
-1809.97
-1754.07
-1676.49
-1583.01
-1479.34
-1370.41
-1260.14
-1151.41
-1046.22
-945.831
-851.026
-762.216
-679.578
-603.13
-532.789
-468.407
-409.785
-356.693
-308.872
-266.043
-227.909
-194.159
-164.474
-138.528
-115.997
-96.5579
-79.898
-65.7151
-53.7223
-43.65
-35.2483
-28.2881
-22.5614
-17.882
-14.0847
-11.0242
-8.57463
-6.62741
-5.09014
-3.88481
-2.9462
-2.22027
-1.66265
-1.23722
-0.914831
-0.672184
-0.490782
-0.356077
-0.256718
-0.183919
-0.130936
-0.0926308
-0.0651206
-0.0454936
-0.0315831
-0.0217889
-0.014938
-0.0101772
-0.00689048
-0.00463612
-0.0030999
-0.00205983
-0.00136021
-0.000892646
-0.000582184
-0.000377377
-0.00024316
-0.000155809
-9.93927e-05
-6.3306e-05
-4.0565e-05
-2.66475e-05
-1.87186e-05
-1.51313e-05
-1761.13
-1737.26
-1691.34
-1626.65
-1547.23
-1457.29
-1360.74
-1260.93
-1160.51
-1061.52
-965.458
-873.363
-785.948
-703.672
-626.804
-555.477
-489.72
-429.478
-374.634
-325.015
-280.408
-240.562
-205.199
-174.022
-146.717
-122.963
-102.438
-84.8234
-69.8107
-57.1031
-46.421
-37.5036
-30.1108
-24.0244
-19.0483
-15.0081
-11.7505
-9.14201
-7.06771
-5.42956
-4.14474
-3.14395
-2.36973
-1.77487
-1.32093
-0.976876
-0.717871
-0.524207
-0.380373
-0.274265
-0.196512
-0.139915
-0.0989921
-0.0695988
-0.0486262
-0.0337605
-0.0232928
-0.0159701
-0.0108812
-0.00736755
-0.00495741
-0.00331492
-0.00220282
-0.00145472
-0.000954714
-0.000622695
-0.000403656
-0.000260105
-0.000166674
-0.000106328
-6.77264e-05
-4.33994e-05
-2.85108e-05
-2.00284e-05
-1.61906e-05
-1700.28
-1680.19
-1641.27
-1585.79
-1516.69
-1437.15
-1350.31
-1258.97
-1165.55
-1072.03
-979.974
-890.583
-804.764
-723.179
-646.292
-574.408
-507.706
-446.257
-390.045
-338.981
-292.911
-251.635
-214.907
-182.453
-153.974
-129.157
-107.681
-89.2278
-73.4817
-60.1401
-48.915
-39.5369
-31.7568
-25.3475
-20.1045
-15.8454
-12.4097
-9.65754
-7.46815
-5.73852
-4.38154
-3.32423
-2.50608
-1.87732
-1.3974
-1.03358
-0.75965
-0.554788
-0.402613
-0.290335
-0.208048
-0.148144
-0.104824
-0.0737058
-0.0515
-0.0357587
-0.0246733
-0.0169179
-0.0115277
-0.00780582
-0.00525263
-0.00351254
-0.00233428
-0.00154161
-0.00101179
-0.000659957
-0.000427831
-0.000275695
-0.000176672
-0.000112712
-7.17957e-05
-4.60092e-05
-3.02267e-05
-2.12348e-05
-1.71664e-05
-1652.6
-1635.18
-1601.24
-1552.44
-1490.99
-1419.35
-1340.07
-1255.54
-1167.93
-1079.09
-990.611
-903.765
-819.582
-738.862
-662.214
-590.08
-522.761
-460.433
-403.171
-350.959
-303.701
-261.242
-223.369
-189.833
-160.351
-134.618
-112.318
-93.1329
-76.7445
-62.8453
-51.141
-41.355
-33.231
-26.5343
-21.0531
-16.5984
-13.0033
-10.1222
-7.82947
-6.01756
-4.59558
-3.48732
-2.62952
-1.97013
-1.46672
-1.08502
-0.797567
-0.582556
-0.422817
-0.30494
-0.218537
-0.155629
-0.110131
-0.0774446
-0.0541171
-0.0375788
-0.0259312
-0.0177817
-0.0121171
-0.0082055
-0.00552193
-0.00369284
-0.00245424
-0.00162093
-0.00106391
-0.000693984
-0.000449911
-0.000289938
-0.000185808
-0.000118545
-7.5515e-05
-4.83949e-05
-3.17956e-05
-2.2338e-05
-1.80589e-05
-1615.05
-1599.55
-1569.22
-1525.32
-1469.57
-1403.96
-1330.57
-1251.47
-1168.6
-1083.71
-998.336
-913.796
-831.183
-751.393
-675.138
-602.964
-535.269
-472.318
-414.263
-361.149
-312.936
-269.507
-230.685
-196.24
-165.907
-139.392
-116.384
-96.5667
-79.6207
-65.2352
-53.1116
-42.9675
-34.5407
-27.5903
-21.8985
-17.2703
-13.5336
-10.5378
-8.15295
-6.26762
-4.78756
-3.63372
-2.74041
-2.05357
-1.52908
-1.13132
-0.831719
-0.607581
-0.441034
-0.318115
-0.228004
-0.162387
-0.114925
-0.080823
-0.0564827
-0.0392247
-0.027069
-0.0185633
-0.0126506
-0.00856734
-0.0057658
-0.00385616
-0.00256293
-0.0016928
-0.00111114
-0.000724833
-0.000469934
-0.000302855
-0.000194095
-0.000123838
-7.88901e-05
-5.05602e-05
-3.32199e-05
-2.33397e-05
-1.88693e-05
-1585.38
-1571.27
-1543.59
-1503.33
-1451.87
-1390.85
-1322.04
-1247.25
-1168.23
-1086.61
-1003.9
-921.387
-840.219
-761.35
-685.565
-613.486
-545.59
-482.212
-423.566
-369.753
-320.778
-276.563
-236.958
-201.757
-170.709
-143.532
-119.921
-99.5618
-82.1356
-67.3298
-54.8421
-44.3864
-35.6951
-28.5226
-22.6459
-17.8652
-14.0036
-10.9067
-8.44032
-6.48997
-4.95844
-3.76414
-2.83928
-2.12801
-1.58476
-1.17269
-0.862249
-0.629965
-0.457338
-0.329912
-0.236485
-0.168445
-0.119223
-0.0838533
-0.0586054
-0.0407022
-0.0280907
-0.0192654
-0.01313
-0.00889256
-0.00598504
-0.00400303
-0.00266069
-0.00175747
-0.00115365
-0.0007526
-0.000487959
-0.000314487
-0.000201558
-0.000128606
-8.19311e-05
-5.25116e-05
-3.45036e-05
-2.42428e-05
-1.96001e-05
-1561.88
-1548.81
-1523.08
-1485.54
-1437.32
-1379.82
-1314.57
-1243.19
-1167.27
-1088.35
-1007.86
-927.103
-847.227
-769.225
-693.932
-622.031
-554.053
-490.392
-431.313
-376.964
-327.389
-282.541
-242.297
-206.471
-174.828
-147.095
-122.974
-102.154
-84.3174
-69.1509
-56.35
-45.6249
-36.7046
-29.3392
-23.3015
-18.3877
-14.4171
-11.2314
-8.69365
-6.68619
-5.10937
-3.87944
-2.92676
-2.19393
-1.6341
-1.20937
-0.889338
-0.649838
-0.471821
-0.340398
-0.244027
-0.173833
-0.123049
-0.0865516
-0.0604963
-0.0420188
-0.0290015
-0.0198914
-0.0135576
-0.00918275
-0.00618073
-0.00413415
-0.002748
-0.00181524
-0.00119163
-0.000777414
-0.000504072
-0.000324886
-0.000208233
-0.00013287
-8.46514e-05
-5.42576e-05
-3.56525e-05
-2.50511e-05
-2.02543e-05
-1543.25
-1530.94
-1506.69
-1471.19
-1425.43
-1370.63
-1308.15
-1239.46
-1166.02
-1089.29
-1010.66
-931.388
-852.639
-775.424
-700.614
-628.931
-560.952
-497.114
-437.724
-382.967
-332.922
-287.568
-246.807
-210.469
-178.333
-150.136
-125.588
-104.379
-86.1955
-70.7223
-57.6537
-46.6979
-37.5807
-30.049
-23.8722
-18.8432
-14.7779
-11.5153
-8.91528
-6.85804
-5.24168
-3.98061
-3.00358
-2.25186
-1.6775
-1.24166
-0.913196
-0.667351
-0.484591
-0.349648
-0.250684
-0.178593
-0.126429
-0.0889368
-0.0621685
-0.0431834
-0.0298076
-0.0204457
-0.0139363
-0.00943981
-0.00635413
-0.00425038
-0.00282541
-0.00186646
-0.00122532
-0.00079943
-0.000518371
-0.000334117
-0.000214158
-0.000136657
-8.70677e-05
-5.58087e-05
-3.66734e-05
-2.57696e-05
-2.08358e-05
-1528.48
-1516.75
-1493.6
-1459.64
-1415.76
-1363.03
-1302.71
-1236.13
-1164.67
-1089.72
-1012.61
-934.586
-856.803
-780.285
-705.925
-634.475
-566.543
-502.603
-442.994
-387.932
-337.521
-291.767
-250.589
-213.835
-181.295
-152.715
-127.81
-106.276
-87.8002
-72.0678
-58.7724
-47.6202
-38.3351
-30.6613
-24.3653
-19.2372
-15.0905
-11.7614
-9.10773
-7.00742
-5.35681
-4.06871
-3.07054
-2.3024
-1.71538
-1.26986
-0.934054
-0.682672
-0.49577
-0.35775
-0.256517
-0.182765
-0.129394
-0.0910297
-0.0636364
-0.0442063
-0.0305157
-0.0209328
-0.0142692
-0.00966589
-0.00650667
-0.00435265
-0.00289354
-0.00191157
-0.00125499
-0.000818825
-0.00053097
-0.000342252
-0.000219382
-0.000139996
-8.91985e-05
-5.71769e-05
-3.75741e-05
-2.64036e-05
-2.1349e-05
-1516.78
-1505.47
-1483.16
-1450.38
-1407.93
-1356.8
-1298.15
-1233.23
-1163.35
-1089.82
-1013.95
-936.962
-859.995
-784.082
-710.129
-638.907
-571.052
-507.061
-447.301
-392.011
-341.319
-295.25
-253.74
-216.649
-183.779
-154.884
-129.685
-107.881
-89.161
-73.2113
-59.7251
-48.4073
-38.98
-31.1855
-24.7881
-19.5756
-15.3593
-11.9733
-9.27359
-7.1363
-5.45623
-4.14488
-3.12847
-2.34616
-1.74821
-1.29432
-0.952155
-0.695976
-0.505483
-0.364794
-0.261592
-0.186396
-0.131976
-0.0928531
-0.0649158
-0.0450982
-0.0311334
-0.0213579
-0.0145598
-0.0098633
-0.00663992
-0.00444201
-0.00295309
-0.001951
-0.00128093
-0.000835789
-0.000541993
-0.000349371
-0.000223954
-0.000142919
-9.10644e-05
-5.83752e-05
-3.83631e-05
-2.69591e-05
-2.17987e-05
-1507.51
-1496.54
-1474.85
-1442.96
-1401.61
-1351.72
-1294.37
-1230.75
-1162.11
-1089.73
-1014.86
-938.72
-862.434
-787.036
-713.441
-642.434
-574.669
-510.662
-450.8
-395.343
-344.436
-298.121
-256.346
-218.985
-185.848
-156.696
-131.256
-109.229
-90.3066
-74.1762
-60.5305
-49.074
-39.5272
-31.631
-25.1479
-19.864
-15.5887
-12.1544
-9.41548
-7.24667
-5.54147
-4.21023
-3.17823
-2.38378
-1.77645
-1.31538
-0.967749
-0.707445
-0.513862
-0.370874
-0.265974
-0.189534
-0.134207
-0.0944301
-0.0660228
-0.0458702
-0.0316683
-0.0217261
-0.0148116
-0.0100344
-0.00675547
-0.00451953
-0.00300477
-0.00198523
-0.00130346
-0.000850521
-0.000551568
-0.000355556
-0.000227927
-0.000145459
-9.26865e-05
-5.94171e-05
-3.90493e-05
-2.74423e-05
-2.219e-05
-1500.19
-1489.46
-1468.26
-1437.05
-1396.54
-1347.6
-1291.26
-1228.66
-1161
-1089.53
-1015.47
-940.015
-864.291
-789.327
-716.041
-645.228
-577.555
-513.554
-453.627
-398.048
-346.978
-300.471
-258.488
-220.912
-187.56
-158.2
-132.563
-110.353
-91.2643
-74.9845
-61.2066
-49.6346
-39.9882
-32.0069
-25.452
-20.108
-15.7831
-12.308
-9.53599
-7.34051
-5.61401
-4.26591
-3.22066
-2.41588
-1.80057
-1.33338
-0.981086
-0.717261
-0.521037
-0.376084
-0.269731
-0.192226
-0.136123
-0.0957843
-0.0669738
-0.0465338
-0.0321283
-0.0220428
-0.0150283
-0.0101818
-0.00685497
-0.0045863
-0.00304929
-0.00201472
-0.00132288
-0.000863224
-0.000559826
-0.000360892
-0.000231355
-0.000147652
-9.40869e-05
-6.03169e-05
-3.9642e-05
-2.78597e-05
-2.25281e-05
-1494.42
-1483.88
-1463.04
-1432.36
-1392.49
-1344.28
-1288.72
-1226.91
-1160.03
-1089.27
-1015.86
-940.964
-865.701
-791.097
-718.073
-647.432
-579.849
-515.866
-455.898
-400.232
-349.039
-302.384
-260.238
-222.49
-188.967
-159.439
-133.642
-111.284
-92.0592
-75.6568
-61.77
-50.1026
-40.3737
-32.3217
-25.7071
-20.313
-15.9465
-12.4374
-9.63759
-7.41971
-5.6753
-4.31299
-3.25657
-2.44308
-1.82102
-1.34865
-0.992411
-0.725602
-0.527138
-0.380516
-0.27293
-0.194518
-0.137755
-0.0969388
-0.067785
-0.0471
-0.0325209
-0.0223133
-0.0152135
-0.0103077
-0.00694003
-0.00464341
-0.00308737
-0.00203996
-0.0013395
-0.0008741
-0.000566898
-0.000365463
-0.000234293
-0.000149531
-9.52872e-05
-6.10882e-05
-4.01502e-05
-2.82178e-05
-2.28181e-05
-1489.87
-1479.48
-1458.92
-1428.64
-1389.26
-1341.62
-1286.67
-1225.47
-1159.19
-1089
-1016.1
-941.657
-866.768
-792.46
-719.656
-649.163
-581.661
-517.704
-457.712
-401.984
-350.699
-303.931
-261.658
-223.776
-190.115
-160.454
-134.528
-112.05
-92.7145
-76.2121
-62.2363
-50.4906
-40.6938
-32.5836
-25.9195
-20.484
-16.0831
-12.5456
-9.72264
-7.48608
-5.72672
-4.35253
-3.28675
-2.46596
-1.83824
-1.36151
-1.00196
-0.732638
-0.532288
-0.38426
-0.275633
-0.196457
-0.139136
-0.0979161
-0.068472
-0.0475797
-0.0328537
-0.0225427
-0.0153705
-0.0104145
-0.00701224
-0.0046919
-0.00311972
-0.00206141
-0.00135363
-0.000883347
-0.000572912
-0.000369351
-0.000236791
-0.00015113
-9.63087e-05
-6.17449e-05
-4.05829e-05
-2.85227e-05
-2.30651e-05
-1486.31
-1476.03
-1455.68
-1425.7
-1386.71
-1339.5
-1285.01
-1224.3
-1158.48
-1088.74
-1016.25
-942.161
-867.572
-793.505
-720.883
-650.515
-583.088
-519.157
-459.154
-403.383
-352.03
-305.175
-262.803
-224.815
-191.047
-161.279
-135.251
-112.676
-93.2509
-76.6676
-62.6195
-50.8101
-40.9577
-32.7998
-26.0952
-20.6256
-16.1963
-12.6354
-9.79333
-7.54131
-5.76954
-4.38549
-3.31193
-2.48506
-1.85263
-1.37228
-1.00995
-0.738532
-0.536605
-0.3874
-0.277901
-0.198085
-0.140297
-0.0987376
-0.0690497
-0.0479833
-0.0331338
-0.0227358
-0.0155028
-0.0105045
-0.0070731
-0.00473278
-0.00314701
-0.0020795
-0.00136555
-0.000891152
-0.00057799
-0.000372634
-0.000238902
-0.000152481
-9.7172e-05
-6.22998e-05
-4.09487e-05
-2.87805e-05
-2.3274e-05
-1483.53
-1473.33
-1453.15
-1423.4
-1384.69
-1337.81
-1283.69
-1223.34
-1157.9
-1088.5
-1016.33
-942.525
-868.177
-794.305
-721.832
-651.569
-584.205
-520.302
-460.295
-404.493
-353.089
-306.169
-263.721
-225.651
-191.798
-161.945
-135.836
-113.183
-93.6872
-77.0388
-62.9323
-51.0712
-41.1739
-32.9772
-26.2395
-20.7421
-16.2895
-12.7094
-9.85168
-7.58693
-5.80495
-4.41277
-3.3328
-2.5009
-1.86457
-1.38121
-1.01659
-0.743434
-0.540197
-0.390015
-0.279791
-0.199442
-0.141264
-0.0994231
-0.0695321
-0.0483205
-0.0333679
-0.0228973
-0.0156135
-0.0105798
-0.00712405
-0.00476701
-0.00316986
-0.00209466
-0.00137554
-0.000897694
-0.000582247
-0.000375387
-0.000240673
-0.000153615
-9.78964e-05
-6.27657e-05
-4.12559e-05
-2.8997e-05
-2.34494e-05
-1481.36
-1471.23
-1451.17
-1421.59
-1383.11
-1336.49
-1282.63
-1222.58
-1157.41
-1088.29
-1016.37
-942.787
-868.629
-794.914
-722.561
-652.385
-585.075
-521.198
-461.191
-405.369
-353.929
-306.959
-264.452
-226.319
-192.399
-162.48
-136.306
-113.593
-94.0397
-77.3392
-63.1859
-51.2833
-41.3497
-33.1216
-26.3572
-20.8372
-16.3657
-12.77
-9.89949
-7.62436
-5.83403
-4.43519
-3.34996
-2.51394
-1.87441
-1.38858
-1.02207
-0.747482
-0.543166
-0.392177
-0.281355
-0.200566
-0.142066
-0.0999912
-0.069932
-0.0486001
-0.0335622
-0.0230313
-0.0157053
-0.0106424
-0.00716638
-0.00479547
-0.00318887
-0.00210727
-0.00138385
-0.000903139
-0.000585791
-0.00037768
-0.000242148
-0.000154559
-9.85e-05
-6.31539e-05
-4.15119e-05
-2.91775e-05
-2.35957e-05
-1479.68
-1469.59
-1449.62
-1420.19
-1381.87
-1335.44
-1281.8
-1221.96
-1157.02
-1088.11
-1016.38
-942.975
-868.967
-795.376
-723.121
-653.015
-585.751
-521.897
-461.893
-406.057
-354.59
-307.583
-265.031
-226.849
-192.878
-162.907
-136.682
-113.921
-94.3225
-77.5807
-63.3901
-51.4544
-41.4917
-33.2385
-26.4526
-20.9143
-16.4276
-12.8193
-9.9384
-7.65486
-5.85775
-4.4535
-3.36399
-2.52461
-1.88246
-1.39462
-1.02657
-0.750802
-0.545602
-0.393953
-0.28264
-0.201489
-0.142725
-0.100459
-0.0702613
-0.0488305
-0.0337223
-0.0231418
-0.0157811
-0.010694
-0.00720132
-0.00481896
-0.00320456
-0.00211769
-0.00139072
-0.000907639
-0.000588721
-0.000379576
-0.000243367
-0.00015534
-9.89995e-05
-6.34752e-05
-4.17237e-05
-2.93268e-05
-2.37168e-05
-1478.38
-1468.33
-1448.43
-1419.09
-1380.91
-1334.63
-1281.15
-1221.48
-1156.7
-1087.96
-1016.38
-943.108
-869.219
-795.725
-723.548
-653.499
-586.273
-522.438
-462.439
-406.595
-355.108
-308.073
-265.488
-227.267
-193.257
-163.246
-136.981
-114.182
-94.5481
-77.7736
-63.5534
-51.5915
-41.6056
-33.3324
-26.5293
-20.9765
-16.4775
-12.8591
-9.96985
-7.67953
-5.87695
-4.46834
-3.37536
-2.53327
-1.88901
-1.39953
-1.03022
-0.753506
-0.547588
-0.3954
-0.283689
-0.202243
-0.143264
-0.100841
-0.0705305
-0.0490189
-0.0338533
-0.0232323
-0.0158432
-0.0107363
-0.00722996
-0.00483822
-0.00321743
-0.00212623
-0.00139636
-0.000911333
-0.000591126
-0.000381132
-0.000244369
-0.000155982
-9.94098e-05
-6.37392e-05
-4.18978e-05
-2.94497e-05
-2.38163e-05
-1477.38
-1467.35
-1447.51
-1418.25
-1380.16
-1333.99
-1280.64
-1221.1
-1156.45
-1087.83
-1016.37
-943.202
-869.405
-795.989
-723.872
-653.869
-586.674
-522.856
-462.862
-407.012
-355.511
-308.455
-265.845
-227.596
-193.555
-163.512
-137.217
-114.388
-94.7267
-77.9266
-63.6833
-51.7006
-41.6965
-33.4073
-26.5906
-21.0262
-16.5175
-12.891
-9.9951
-7.69936
-5.8924
-4.48028
-3.38453
-2.54025
-1.89429
-1.40349
-1.03318
-0.755692
-0.549194
-0.396573
-0.284538
-0.202854
-0.143701
-0.101151
-0.0707491
-0.049172
-0.0339597
-0.0233058
-0.0158937
-0.0107707
-0.00725327
-0.0048539
-0.00322792
-0.00213319
-0.00140095
-0.000914343
-0.000593087
-0.000382402
-0.000245186
-0.000156505
-9.97446e-05
-6.39546e-05
-4.204e-05
-2.95499e-05
-2.38976e-05
-1476.61
-1466.61
-1446.8
-1417.6
-1379.59
-1333.5
-1280.24
-1220.8
-1156.25
-1087.72
-1016.36
-943.269
-869.543
-796.186
-724.118
-654.151
-586.98
-523.177
-463.188
-407.334
-355.823
-308.752
-266.123
-227.852
-193.787
-163.721
-137.402
-114.551
-94.8674
-78.0473
-63.7858
-51.7868
-41.7684
-33.4668
-26.6392
-21.0657
-16.5493
-12.9164
-10.0152
-7.71518
-5.90474
-4.48983
-3.39187
-2.54585
-1.89852
-1.40667
-1.03555
-0.757449
-0.550486
-0.397515
-0.285222
-0.203346
-0.144053
-0.101401
-0.0709253
-0.0492954
-0.0340456
-0.0233652
-0.0159344
-0.0107985
-0.0072721
-0.00486658
-0.00323639
-0.00213883
-0.00140466
-0.00091678
-0.000594675
-0.000383429
-0.000245848
-0.000156929
-0.000100016
-6.41291e-05
-4.21552e-05
-2.96312e-05
-2.39634e-05
-1476.02
-1466.04
-1446.26
-1417.11
-1379.14
-1333.13
-1279.94
-1220.57
-1156.09
-1087.64
-1016.34
-943.315
-869.644
-796.334
-724.303
-654.365
-587.214
-523.422
-463.437
-407.582
-356.064
-308.982
-266.338
-228.05
-193.968
-163.884
-137.547
-114.677
-94.9774
-78.1418
-63.8662
-51.8546
-41.825
-33.5136
-26.6776
-21.0969
-16.5745
-12.9365
-10.0312
-7.72773
-5.91453
-4.49742
-3.3977
-2.5503
-1.90189
-1.40921
-1.03744
-0.75885
-0.551516
-0.398268
-0.285768
-0.20374
-0.144334
-0.101601
-0.0710664
-0.0493943
-0.0341145
-0.0234128
-0.0159671
-0.0108209
-0.00728722
-0.00487676
-0.0032432
-0.00214335
-0.00140765
-0.000918738
-0.000595951
-0.000384256
-0.00024638
-0.00015727
-0.000100234
-6.42696e-05
-4.22478e-05
-2.96965e-05
-2.40164e-05
-1475.58
-1465.6
-1445.85
-1416.73
-1378.81
-1332.84
-1279.7
-1220.39
-1155.97
-1087.57
-1016.32
-943.347
-869.718
-796.444
-724.442
-654.526
-587.391
-523.609
-463.627
-407.771
-356.248
-309.158
-266.503
-228.203
-194.108
-164.01
-137.659
-114.776
-95.0629
-78.2154
-63.9289
-51.9075
-41.8692
-33.5502
-26.7077
-21.1213
-16.5942
-12.9523
-10.0437
-7.7376
-5.92225
-4.5034
-3.4023
-2.55381
-1.90455
-1.41121
-1.03894
-0.759959
-0.552333
-0.398866
-0.286201
-0.204052
-0.144558
-0.10176
-0.0711787
-0.049473
-0.0341693
-0.0234507
-0.0159932
-0.0108386
-0.00729927
-0.00488488
-0.00324863
-0.00214696
-0.00141003
-0.000920301
-0.000596969
-0.000384916
-0.000246805
-0.000157543
-0.000100408
-6.43818e-05
-4.23219e-05
-2.97488e-05
-2.40588e-05
-1475.24
-1465.27
-1445.54
-1416.44
-1378.55
-1332.62
-1279.52
-1220.25
-1155.88
-1087.52
-1016.31
-943.369
-869.772
-796.525
-724.546
-654.647
-587.524
-523.75
-463.772
-407.915
-356.389
-309.292
-266.63
-228.321
-194.215
-164.106
-137.745
-114.851
-95.129
-78.2724
-63.9775
-51.9485
-41.9035
-33.5786
-26.731
-21.1404
-16.6096
-12.9646
-10.0535
-7.74533
-5.92829
-4.50809
-3.40591
-2.55657
-1.90665
-1.41278
-1.04011
-0.760833
-0.552977
-0.399336
-0.286543
-0.204299
-0.144734
-0.101885
-0.0712673
-0.0495352
-0.0342126
-0.0234807
-0.0160138
-0.0108527
-0.00730881
-0.0048913
-0.00325293
-0.00214982
-0.00141192
-0.00092154
-0.000597777
-0.000385439
-0.000247142
-0.000157759
-0.000100547
-6.44709e-05
-4.23807e-05
-2.97903e-05
-2.40924e-05
-1474.99
-1465.03
-1445.31
-1416.22
-1378.36
-1332.45
-1279.38
-1220.14
-1155.8
-1087.48
-1016.3
-943.384
-869.812
-796.586
-724.623
-654.738
-587.624
-523.856
-463.881
-408.024
-356.495
-309.394
-266.726
-228.41
-194.297
-164.18
-137.811
-114.91
-95.1797
-78.3161
-64.0149
-51.9801
-41.93
-33.6006
-26.7491
-21.1552
-16.6215
-12.9742
-10.0611
-7.75133
-5.93299
-4.51174
-3.40872
-2.55872
-1.90828
-1.41401
-1.04103
-0.761515
-0.55348
-0.399704
-0.286811
-0.204492
-0.144872
-0.101984
-0.0713368
-0.049584
-0.0342466
-0.0235043
-0.01603
-0.0108638
-0.00731631
-0.00489636
-0.00325631
-0.00215207
-0.00141341
-0.000922516
-0.000598413
-0.000385851
-0.000247407
-0.000157929
-0.000100656
-6.45411e-05
-4.2427e-05
-2.9823e-05
-2.41189e-05
-1474.8
-1464.84
-1445.13
-1416.06
-1378.21
-1332.33
-1279.28
-1220.06
-1155.75
-1087.44
-1016.29
-943.395
-869.84
-796.63
-724.681
-654.805
-587.699
-523.935
-463.962
-408.106
-356.575
-309.471
-266.799
-228.478
-194.359
-164.236
-137.861
-114.954
-95.2183
-78.3495
-64.0434
-52.0043
-41.9503
-33.6175
-26.763
-21.1665
-16.6307
-12.9815
-10.067
-7.75596
-5.93662
-4.51456
-3.4109
-2.56038
-1.90954
-1.41497
-1.04175
-0.762045
-0.553871
-0.39999
-0.287019
-0.204642
-0.14498
-0.10206
-0.071391
-0.049622
-0.0342731
-0.0235226
-0.0160426
-0.0108724
-0.00732217
-0.00490031
-0.00325896
-0.00215383
-0.00141457
-0.000923278
-0.000598911
-0.000386174
-0.000247615
-0.000158062
-0.000100741
-6.45959e-05
-4.24633e-05
-2.98485e-05
-2.41397e-05
-1474.66
-1464.7
-1445
-1415.94
-1378.11
-1332.23
-1279.2
-1220
-1155.7
-1087.42
-1016.28
-943.401
-869.861
-796.662
-724.723
-654.855
-587.754
-523.994
-464.023
-408.167
-356.636
-309.529
-266.853
-228.529
-194.406
-164.279
-137.899
-114.987
-95.2477
-78.3749
-64.0652
-52.0227
-41.9657
-33.6304
-26.7736
-21.1752
-16.6377
-12.9872
-10.0715
-7.75951
-5.9394
-4.51672
-3.41257
-2.56166
-1.91051
-1.4157
-1.0423
-0.762454
-0.554172
-0.400211
-0.287179
-0.204758
-0.145063
-0.10212
-0.071433
-0.0496515
-0.0342937
-0.0235369
-0.0160524
-0.0108791
-0.00732671
-0.00490337
-0.00326101
-0.00215519
-0.00141547
-0.000923871
-0.000599297
-0.000386424
-0.000247776
-0.000158166
-0.000100807
-6.46386e-05
-4.24915e-05
-2.98684e-05
-2.41558e-05
-1474.55
-1464.6
-1444.9
-1415.85
-1378.02
-1332.16
-1279.15
-1219.96
-1155.67
-1087.4
-1016.27
-943.406
-869.876
-796.686
-724.754
-654.892
-587.795
-524.038
-464.069
-408.213
-356.68
-309.572
-266.894
-228.567
-194.441
-164.31
-137.927
-115.013
-95.2698
-78.394
-64.0816
-52.0367
-41.9774
-33.6401
-26.7817
-21.1817
-16.6431
-12.9915
-10.0749
-7.76222
-5.94152
-4.51837
-3.41384
-2.56264
-1.91126
-1.41626
-1.04272
-0.762767
-0.554403
-0.400381
-0.287303
-0.204847
-0.145127
-0.102165
-0.0714652
-0.0496741
-0.0343095
-0.0235478
-0.0160599
-0.0108842
-0.00733021
-0.00490573
-0.00326259
-0.00215624
-0.00141617
-0.000924328
-0.000599595
-0.000386617
-0.000247901
-0.000158245
-0.000100858
-6.46715e-05
-4.25132e-05
-2.98838e-05
-2.41683e-05
-1474.47
-1464.52
-1444.83
-1415.78
-1377.96
-1332.11
-1279.1
-1219.93
-1155.65
-1087.38
-1016.27
-943.409
-869.886
-796.703
-724.776
-654.919
-587.825
-524.07
-464.102
-408.247
-356.713
-309.605
-266.925
-228.595
-194.467
-164.334
-137.949
-115.031
-95.2863
-78.4084
-64.0939
-52.0471
-41.9862
-33.6474
-26.7877
-21.1867
-16.6471
-12.9947
-10.0775
-7.76426
-5.94313
-4.51962
-3.41481
-2.56338
-1.91182
-1.41669
-1.04304
-0.763005
-0.554579
-0.40051
-0.287397
-0.204915
-0.145176
-0.1022
-0.0714898
-0.0496914
-0.0343215
-0.0235562
-0.0160657
-0.0108882
-0.00733289
-0.00490754
-0.0032638
-0.00215705
-0.0014167
-0.000924677
-0.000599824
-0.000386765
-0.000247996
-0.000158307
-0.000100897
-6.46968e-05
-4.25298e-05
-2.98955e-05
-2.41778e-05
-1474.42
-1464.47
-1444.78
-1415.74
-1377.92
-1332.07
-1279.07
-1219.9
-1155.63
-1087.37
-1016.26
-943.411
-869.894
-796.715
-724.793
-654.938
-587.847
-524.094
-464.127
-408.271
-356.738
-309.628
-266.947
-228.616
-194.486
-164.352