/*--------------------------------*- C++ -*----------------------------------*\
  =========                 |
  \\      /  F ield         | OpenFOAM: The Open Source CFD Toolbox
   \\    /   O peration     | Website:  https://openfoam.org
    \\  /    A nd           | Version:  10
     \\/     M anipulation  |
\*---------------------------------------------------------------------------*/
FoamFile
{
    format      ascii;
    class       volScalarField;
    location    "324";
    object      T;
}
// * * * * * * * * * * * * * * * * * * * * * * * * * * * * * * * * * * * * * //

dimensions      [0 0 0 1 0 0 0];

internalField   nonuniform List<scalar> 
11250
(
249.836
167.538
139.329
126.902
120.118
115.813
112.801
110.555
108.805
107.401
106.248
105.288
104.479
103.792
103.207
102.706
102.278
101.911
101.598
101.331
101.104
100.911
100.749
100.613
100.499
100.404
100.325
100.261
100.208
100.165
100.13
100.102
100.079
100.061
100.047
100.036
100.028
100.021
100.016
100.012
100.009
100.006
100.005
100.003
100.003
100.002
100.001
100.001
100.001
100
100
100
100
100
100
100
100
100
100
100
100
100
100
100
100
100
100
100
100
100
100
100
100
100
100
331.48
248.53
202.215
175.08
157.895
146.17
137.664
131.196
126.101
121.981
118.585
115.745
113.347
111.308
109.567
108.077
106.8
105.708
104.773
103.976
103.298
102.724
102.239
101.832
101.491
101.208
100.973
100.78
100.622
100.493
100.388
100.304
100.237
100.184
100.142
100.108
100.083
100.063
100.047
100.035
100.026
100.019
100.014
100.01
100.008
100.005
100.004
100.003
100.002
100.001
100.001
100.001
100
100
100
100
100
100
100
100
100
100
100
100
100
100
100
100
100
100
100
100
100
100
100
359.042
292.908
245.955
213.352
190.27
173.373
160.564
150.548
142.512
135.932
130.461
125.859
121.954
118.623
115.771
113.325
111.227
109.428
107.888
106.573
105.455
104.506
103.705
103.032
102.469
102
101.611
101.292
101.03
100.816
100.643
100.504
100.393
100.305
100.235
100.18
100.137
100.104
100.078
100.058
100.043
100.032
100.024
100.017
100.012
100.009
100.006
100.005
100.003
100.002
100.002
100.001
100.001
100.001
100
100
100
100
100
100
100
100
100
100
100
100
100
100
100
100
100
100
100
100
100
370.832
318.139
275.398
242.179
216.555
196.599
180.797
168.057
157.614
148.932
141.631
135.438
130.152
125.621
121.727
118.378
115.499
113.025
110.905
109.093
107.549
106.239
105.132
104.201
103.421
102.772
102.234
101.791
101.428
101.132
100.893
100.7
100.546
100.423
100.326
100.25
100.19
100.144
100.108
100.081
100.06
100.045
100.033
100.024
100.017
100.013
100.009
100.006
100.005
100.003
100.002
100.002
100.001
100.001
100.001
100
100
100
100
100
100
100
100
100
100
100
100
100
100
100
100
100
100
100
100
376.995
333.465
295.396
263.515
237.303
215.826
198.143
183.463
171.162
160.766
151.915
144.337
137.821
132.205
127.358
123.174
119.565
116.459
113.792
111.508
109.56
107.905
106.506
105.328
104.341
103.518
102.836
102.274
101.814
101.438
101.134
100.889
100.693
100.538
100.414
100.317
100.242
100.183
100.138
100.103
100.077
100.057
100.042
100.03
100.022
100.016
100.011
100.008
100.006
100.004
100.003
100.002
100.001
100.001
100.001
100
100
100
100
100
100
100
100
100
100
100
100
100
100
100
100
100
100
100
100
380.698
343.389
309.304
279.313
253.484
231.454
212.71
196.734
183.069
171.332
161.213
152.463
144.882
138.307
132.604
127.662
123.386
119.696
116.52
113.797
111.47
109.491
107.815
106.402
105.219
104.231
103.413
102.737
102.184
101.732
101.366
101.072
100.836
100.648
100.499
100.383
100.291
100.221
100.166
100.124
100.092
100.068
100.05
100.037
100.027
100.019
100.014
100.01
100.007
100.005
100.003
100.002
100.002
100.001
100.001
100.001
100
100
100
100
100
100
100
100
100
100
100
100
100
100
100
100
100
100
100
383.13
350.159
319.234
291.113
266.066
244.034
224.778
207.992
193.365
180.613
169.486
159.77
151.286
143.882
137.426
131.809
126.932
122.711
119.07
115.941
113.263
110.983
109.049
107.418
106.049
104.907
103.959
103.177
102.535
102.011
101.587
101.245
100.971
100.753
100.581
100.445
100.339
100.257
100.193
100.145
100.108
100.08
100.058
100.043
100.031
100.022
100.016
100.011
100.008
100.006
100.004
100.003
100.002
100.001
100.001
100.001
100
100
100
100
100
100
100
100
100
100
100
100
100
100
100
100
100
100
100
384.822
354.968
326.498
300.025
275.869
254.115
234.69
217.435
202.159
188.66
176.749
166.254
157.02
148.91
141.804
135.594
130.184
125.488
121.426
117.929
114.93
112.372
110.201
108.367
106.827
105.541
104.472
103.59
102.866
102.275
101.795
101.409
101.099
100.852
100.657
100.504
100.384
100.291
100.219
100.164
100.122
100.09
100.066
100.048
100.035
100.025
100.018
100.013
100.009
100.006
100.005
100.003
100.002
100.002
100.001
100.001
100
100
100
100
100
100
100
100
100
100
100
100
100
100
100
100
100
100
100
386.046
358.487
331.919
306.833
283.538
262.182
242.788
225.294
209.595
195.56
183.053
171.94
162.093
153.393
145.733
139.011
133.134
128.017
123.58
119.752
116.464
113.654
111.266
109.247
107.549
106.13
104.95
103.975
103.174
102.521
101.99
101.562
101.219
100.946
100.729
100.559
100.426
100.323
100.243
100.182
100.135
100.1
100.074
100.054
100.039
100.028
100.02
100.014
100.01
100.007
100.005
100.004
100.002
100.002
100.001
100.001
100.001
100
100
100
100
100
100
100
100
100
100
100
100
100
100
100
100
100
100
386.954
361.121
336.032
312.086
289.566
268.64
249.382
231.797
215.837
201.426
188.472
176.876
166.534
157.348
149.222
142.062
135.781
130.296
125.53
121.407
117.861
114.825
112.241
110.054
108.213
106.672
105.391
104.331
103.46
102.748
102.17
101.704
101.33
101.032
100.796
100.611
100.466
100.353
100.266
100.199
100.148
100.11
100.081
100.059
100.043
100.031
100.022
100.016
100.011
100.008
100.006
100.004
100.003
100.002
100.001
100.001
100.001
100
100
100
100
100
100
100
100
100
100
100
100
100
100
100
100
100
100
387.641
363.125
339.194
316.176
294.324
273.813
254.742
237.154
221.044
206.376
193.092
181.122
170.387
160.804
152.289
144.759
138.133
132.331
127.277
122.896
119.121
115.884
113.126
110.788
108.818
107.168
105.794
104.657
103.722
102.957
102.336
101.835
101.433
101.112
100.858
100.658
100.502
100.38
100.287
100.215
100.16
100.118
100.087
100.064
100.046
100.033
100.024
100.017
100.012
100.009
100.006
100.004
100.003
100.002
100.001
100.001
100.001
100
100
100
100
100
100
100
100
100
100
100
100
100
100
100
100
100
100
388.169
364.669
341.647
319.381
298.095
277.961
259.092
241.552
225.366
210.526
197.003
184.747
173.7
163.796
154.962
147.123
140.205
134.131
128.828
124.224
120.248
116.834
113.921
111.449
109.364
107.616
106.159
104.953
103.96
103.148
102.488
101.954
101.526
101.185
100.915
100.702
100.535
100.406
100.306
100.229
100.17
100.126
100.093
100.068
100.049
100.036
100.026
100.018
100.013
100.009
100.006
100.004
100.003
100.002
100.001
100.001
100.001
100
100
100
100
100
100
100
100
100
100
100
100
100
100
100
100
100
100
388.578
365.871
343.566
321.906
301.093
281.291
262.618
245.153
228.938
213.988
200.291
187.819
176.529
166.367
157.272
149.177
142.013
135.709
130.194
125.396
121.246
117.678
114.63
112.039
109.853
108.018
106.487
105.219
104.174
103.32
102.624
102.062
101.611
101.251
100.966
100.741
100.566
100.429
100.323
100.242
100.18
100.133
100.098
100.072
100.052
100.038
100.027
100.019
100.014
100.01
100.007
100.005
100.003
100.002
100.002
100.001
100.001
100
100
100
100
100
100
100
100
100
100
100
100
100
100
100
100
100
100
388.897
366.811
345.075
323.903
303.482
283.965
265.473
248.093
231.879
216.86
203.04
190.406
178.926
168.559
159.252
150.947
143.579
137.081
131.386
126.422
122.123
118.422
115.256
112.563
110.287
108.375
106.78
105.457
104.366
103.473
102.747
102.159
101.688
101.311
101.012
100.777
100.593
100.45
100.339
100.254
100.189
100.14
100.103
100.075
100.055
100.04
100.028
100.02
100.014
100.01
100.007
100.005
100.003
100.002
100.002
100.001
100.001
100
100
100
100
100
100
100
100
100
100
100
100
100
100
100
100
100
100
389.149
367.551
346.267
325.488
305.387
286.112
267.782
250.487
234.291
219.232
205.327
192.57
180.944
170.415
160.937
152.46
144.924
138.265
132.417
127.314
122.888
119.072
115.804
113.022
110.669
108.69
107.038
105.667
104.536
103.61
102.856
102.246
101.756
101.364
101.054
100.809
100.617
100.468
100.353
100.265
100.197
100.146
100.107
100.078
100.057
100.041
100.03
100.021
100.015
100.011
100.007
100.005
100.004
100.002
100.002
100.001
100.001
100.001
100
100
100
100
100
100
100
100
100
100
100
100
100
100
100
100
100
389.346
368.136
347.21
326.747
306.908
287.836
269.646
252.432
236.263
221.184
207.219
194.372
182.633
171.976
162.362
153.745
146.07
139.278
133.304
128.083
123.549
119.636
116.281
113.422
111.002
108.966
107.265
105.852
104.686
103.73
102.952
102.322
101.816
101.411
101.09
100.837
100.639
100.485
100.366
100.274
100.204
100.151
100.111
100.081
100.059
100.043
100.031
100.022
100.016
100.011
100.008
100.005
100.004
100.003
100.002
100.001
100.001
100.001
100
100
100
100
100
100
100
100
100
100
100
100
100
100
100
100
100
389.503
368.598
347.957
327.748
308.123
289.218
271.149
254.009
237.87
222.782
208.777
195.864
184.038
173.28
163.558
154.828
147.041
140.138
134.059
128.74
124.116
120.121
116.692
113.768
111.291
109.206
107.462
106.013
104.817
103.836
103.036
102.389
101.869
101.453
101.123
100.862
100.658
100.499
100.377
100.282
100.21
100.156
100.115
100.084
100.061
100.044
100.032
100.023
100.016
100.011
100.008
100.006
100.004
100.003
100.002
100.001
100.001
100.001
100
100
100
100
100
100
100
100
100
100
100
100
100
100
100
100
100
389.626
368.963
348.55
328.544
309.092
290.325
272.357
255.282
239.174
224.086
210.054
197.092
185.2
174.365
164.556
155.736
147.857
140.864
134.699
129.298
124.598
120.535
117.044
114.065
111.54
109.412
107.632
106.152
104.93
103.927
103.109
102.447
101.915
101.489
101.151
100.884
100.675
100.512
100.386
100.29
100.216
100.16
100.118
100.086
100.063
100.045
100.032
100.023
100.016
100.012
100.008
100.006
100.004
100.003
100.002
100.001
100.001
100.001
100
100
100
100
100
100
100
100
100
100
100
100
100
100
100
100
100
389.724
369.253
349.02
329.176
309.864
291.21
273.327
256.308
240.229
225.146
211.095
198.098
186.157
175.26
165.383
156.491
148.538
141.473
135.236
129.769
125.006
120.886
117.343
114.318
111.752
109.589
107.778
106.272
105.027
104.006
103.172
102.497
101.954
101.52
101.175
100.903
100.69
100.523
100.395
100.296
100.221
100.163
100.12
100.088
100.064
100.046
100.033
100.024
100.017
100.012
100.008
100.006
100.004
100.003
100.002
100.001
100.001
100.001
100
100
100
100
100
100
100
100
100
100
100
100
100
100
100
100
100
389.802
369.482
349.392
329.678
310.478
291.916
274.103
257.132
241.08
226.003
211.942
198.918
186.939
175.995
166.065
157.116
149.104
141.979
135.685
130.163
125.349
121.181
117.595
114.532
111.931
109.739
107.902
106.373
105.11
104.073
103.226
102.54
101.988
101.547
101.196
100.919
100.702
100.533
100.402
100.302
100.225
100.167
100.123
100.09
100.065
100.047
100.034
100.024
100.017
100.012
100.008
100.006
100.004
100.003
100.002
100.001
100.001
100.001
100
100
100
100
100
100
100
100
100
100
100
100
100
100
100
100
100
389.863
369.663
349.686
330.076
310.965
292.478
274.723
257.792
241.763
226.694
212.626
199.584
187.576
176.596
166.624
157.629
149.57
142.398
136.057
130.49
125.634
121.427
117.807
114.711
112.082
109.865
108.006
106.46
105.18
104.13
103.272
102.577
102.017
101.57
101.214
100.933
100.713
100.541
100.408
100.306
100.228
100.169
100.125
100.091
100.066
100.048
100.034
100.025
100.017
100.012
100.009
100.006
100.004
100.003
100.002
100.001
100.001
100.001
100
100
100
100
100
100
100
100
100
100
100
100
100
100
100
100
100
389.911
369.805
349.919
330.39
311.352
292.924
275.215
258.318
242.309
227.248
213.176
200.121
188.092
177.084
167.079
158.049
149.952
142.741
136.364
130.761
125.871
121.632
117.982
114.86
112.208
109.97
108.094
106.532
105.239
104.177
103.311
102.608
102.042
101.589
101.229
100.945
100.722
100.548
100.414
100.31
100.231
100.171
100.126
100.092
100.067
100.049
100.035
100.025
100.018
100.012
100.009
100.006
100.004
100.003
100.002
100.001
100.001
100.001
100
100
100
100
100
100
100
100
100
100
100
100
100
100
100
100
100
389.949
369.918
350.102
330.638
311.656
293.277
275.606
258.736
242.744
227.69
213.617
200.552
188.507
177.478
167.448
158.389
150.263
143.022
136.615
130.982
126.065
121.8
118.127
114.984
112.313
110.058
108.167
106.592
105.289
104.217
103.343
102.634
102.062
101.605
101.242
100.955
100.73
100.554
100.418
100.314
100.234
100.173
100.128
100.093
100.068
100.049
100.035
100.025
100.018
100.013
100.009
100.006
100.004
100.003
100.002
100.001
100.001
100.001
100
100
100
100
100
100
100
100
100
100
100
100
100
100
100
100
100
389.978
370.006
350.245
330.833
311.896
293.555
275.915
259.067
243.09
228.042
213.969
200.897
188.84
177.795
167.745
158.664
150.515
143.25
136.819
131.163
126.224
121.938
118.246
115.086
112.399
110.13
108.227
106.642
105.329
104.251
103.37
102.655
102.08
101.619
101.252
100.963
100.736
100.559
100.422
100.317
100.236
100.175
100.129
100.094
100.069
100.05
100.036
100.025
100.018
100.013
100.009
100.006
100.004
100.003
100.002
100.001
100.001
100.001
100
100
100
100
100
100
100
100
100
100
100
100
100
100
100
100
100
390.001
370.075
350.358
330.985
312.085
293.774
276.158
259.328
243.363
228.321
214.248
201.172
189.105
178.047
167.983
158.885
150.717
143.434
136.984
131.31
126.352
122.051
118.343
115.169
112.469
110.189
108.276
106.682
105.363
104.278
103.392
102.673
102.094
101.63
101.261
100.97
100.741
100.563
100.425
100.319
100.238
100.176
100.13
100.095
100.069
100.05
100.036
100.026
100.018
100.013
100.009
100.006
100.004
100.003
100.002
100.001
100.001
100.001
100
100
100
100
100
100
100
100
100
100
100
100
100
100
100
100
100
390.02
370.129
350.446
331.105
312.232
293.945
276.348
259.533
243.577
228.541
214.468
201.389
189.316
178.249
168.172
159.061
150.879
143.581
137.116
131.427
126.456
122.141
118.421
115.236
112.526
110.237
108.317
106.716
105.39
104.3
103.41
102.688
102.105
101.639
101.268
100.976
100.746
100.566
100.428
100.321
100.239
100.177
100.131
100.096
100.07
100.05
100.036
100.026
100.018
100.013
100.009
100.006
100.004
100.003
100.002
100.001
100.001
100.001
100
100
100
100
100
100
100
100
100
100
100
100
100
100
100
100
100
390.034
370.17
350.514
331.197
312.347
294.078
276.497
259.694
243.745
228.713
214.641
201.56
189.482
178.407
168.322
159.201
151.008
143.698
137.222
131.522
126.539
122.214
118.484
115.29
112.572
110.276
108.349
106.743
105.413
104.319
103.425
102.7
102.115
101.647
101.274
100.98
100.749
100.569
100.43
100.323
100.241
100.178
100.131
100.096
100.07
100.051
100.036
100.026
100.018
100.013
100.009
100.006
100.004
100.003
100.002
100.001
100.001
100.001
100
100
100
100
100
100
100
100
100
100
100
100
100
100
100
100
100
390.045
370.203
350.567
331.269
312.436
294.182
276.612
259.818
243.876
228.847
214.777
201.694
189.612
178.532
168.441
159.312
151.11
143.791
137.306
131.597
126.606
122.272
118.535
115.333
112.609
110.307
108.375
106.765
105.431
104.333
103.437
102.709
102.123
101.653
101.279
100.984
100.752
100.571
100.432
100.324
100.242
100.179
100.132
100.097
100.07
100.051
100.037
100.026
100.019
100.013
100.009
100.006
100.004
100.003
100.002
100.001
100.001
100.001
100
100
100
100
100
100
100
100
100
100
100
100
100
100
100
100
100
390.053
370.228
350.608
331.325
312.504
294.262
276.702
259.915
243.978
228.952
214.882
201.798
189.714
178.63
168.533
159.398
151.19
143.865
137.372
131.656
126.658
122.318
118.575
115.368
112.639
110.332
108.396
106.782
105.445
104.345
103.446
102.717
102.129
101.658
101.283
100.987
100.754
100.573
100.433
100.325
100.242
100.18
100.132
100.097
100.07
100.051
100.037
100.026
100.019
100.013
100.009
100.006
100.004
100.003
100.002
100.001
100.001
100.001
100
100
100
100
100
100
100
100
100
100
100
100
100
100
100
100
100
390.059
370.247
350.639
331.367
312.557
294.323
276.771
259.989
244.056
229.033
214.964
201.879
189.793
178.706
168.605
159.466
151.253
143.922
137.424
131.702
126.699
122.354
118.606
115.395
112.662
110.352
108.413
106.796
105.456
104.354
103.454
102.723
102.134
101.662
101.286
100.989
100.756
100.575
100.434
100.326
100.243
100.18
100.133
100.097
100.071
100.051
100.037
100.026
100.019
100.013
100.009
100.006
100.004
100.003
100.002
100.001
100.001
100.001
100
100
100
100
100
100
100
100
100
100
100
100
100
100
100
100
100
390.064
370.261
350.663
331.4
312.597
294.371
276.823
260.047
244.117
229.095
215.026
201.941
189.854
178.765
168.661
159.518
151.301
143.966
137.464
131.739
126.732
122.383
118.631
115.416
112.68
110.368
108.426
106.807
105.465
104.362
103.46
102.728
102.138
101.665
101.289
100.991
100.758
100.576
100.435
100.326
100.243
100.18
100.133
100.097
100.071
100.051
100.037
100.026
100.019
100.013
100.009
100.006
100.004
100.003
100.002
100.001
100.001
100.001
100
100
100
100
100
100
100
100
100
100
100
100
100
100
100
100
100
390.068
370.273
350.681
331.425
312.628
294.407
276.864
260.09
244.163
229.142
215.075
201.989
189.901
178.81
168.704
159.559
151.339
144.001
137.495
131.767
126.757
122.405
118.65
115.433
112.694
110.38
108.436
106.815
105.472
104.368
103.465
102.732
102.141
101.667
101.29
100.993
100.759
100.577
100.436
100.327
100.244
100.181
100.133
100.098
100.071
100.051
100.037
100.026
100.019
100.013
100.009
100.006
100.004
100.003
100.002
100.001
100.001
100.001
100
100
100
100
100
100
100
100
100
100
100
100
100
100
100
100
100
390.071
370.281
350.695
331.444
312.652
294.434
276.894
260.124
244.198
229.179
215.111
202.026
189.937
178.845
168.737
159.59
151.368
144.027
137.519
131.788
126.776
122.422
118.665
115.446
112.706
110.389
108.444
106.822
105.478
104.372
103.468
102.735
102.143
101.669
101.292
100.994
100.76
100.578
100.436
100.327
100.244
100.181
100.133
100.098
100.071
100.051
100.037
100.026
100.019
100.013
100.009
100.006
100.004
100.003
100.002
100.001
100.001
100.001
100
100
100
100
100
100
100
100
100
100
100
100
100
100
100
100
100
390.073
370.287
350.705
331.458
312.669
294.454
276.917
260.149
244.225
229.206
215.139
202.053
189.964
178.871
168.762
159.613
151.39
144.048
137.538
131.805
126.791
122.435
118.676
115.456
112.714
110.396
108.45
106.827
105.482
104.376
103.471
102.737
102.145
101.671
101.293
100.995
100.761
100.578
100.437
100.328
100.244
100.181
100.134
100.098
100.071
100.051
100.037
100.026
100.019
100.013
100.009
100.006
100.004
100.003
100.002
100.001
100.001
100.001
100
100
100
100
100
100
100
100
100
100
100
100
100
100
100
100
100
390.075
370.292
350.713
331.468
312.682
294.47
276.935
260.168
244.245
229.227
215.16
202.074
189.984
178.891
168.781
159.631
151.406
144.063
137.552
131.818
126.802
122.445
118.685
115.463
112.721
110.402
108.455
106.831
105.485
104.378
103.473
102.739
102.146
101.672
101.294
100.996
100.761
100.579
100.437
100.328
100.245
100.181
100.134
100.098
100.071
100.052
100.037
100.026
100.019
100.013
100.009
100.006
100.004
100.003
100.002
100.001
100.001
100.001
100
100
100
100
100
100
100
100
100
100
100
100
100
100
100
100
100
390.076
370.296
350.719
331.476
312.692
294.482
276.948
260.182
244.259
229.242
215.176
202.09
190
178.906
168.796
159.645
151.419
144.075
137.562
131.827
126.811
122.452
118.692
115.469
112.726
110.406
108.458
106.834
105.488
104.38
103.475
102.74
102.147
101.673
101.295
100.996
100.762
100.579
100.437
100.328
100.245
100.181
100.134
100.098
100.071
100.052
100.037
100.026
100.019
100.013
100.009
100.006
100.004
100.003
100.002
100.001
100.001
100.001
100
100
100
100
100
100
100
100
100
100
100
100
100
100
100
100
100
390.077
370.298
350.723
331.482
312.7
294.49
276.957
260.192
244.271
229.254
215.188
202.102
190.011
178.917
168.806
159.655
151.428
144.083
137.57
131.834
126.817
122.458
118.697
115.473
112.729
110.409
108.461
106.836
105.49
104.382
103.476
102.741
102.148
101.673
101.295
100.997
100.762
100.579
100.437
100.328
100.245
100.182
100.134
100.098
100.071
100.052
100.037
100.026
100.019
100.013
100.009
100.006
100.004
100.003
100.002
100.001
100.001
100.001
100
100
100
100
100
100
100
100
100
100
100
100
100
100
100
100
100
390.077
370.3
350.726
331.487
312.705
294.497
276.965
260.2
244.279
229.262
215.196
202.111
190.02
178.925
168.814
159.662
151.435
144.09
137.576
131.84
126.822
122.462
118.701
115.477
112.732
110.412
108.463
106.838
105.491
104.383
103.477
102.742
102.149
101.674
101.296
100.997
100.762
100.579
100.438
100.328
100.245
100.182
100.134
100.098
100.071
100.052
100.037
100.026
100.019
100.013
100.009
100.006
100.004
100.003
100.002
100.001
100.001
100.001
100
100
100
100
100
100
100
100
100
100
100
100
100
100
100
100
100
390.078
370.302
350.729
331.49
312.709
294.501
276.97
260.206
244.285
229.269
215.203
202.117
190.026
178.932
168.82
159.668
151.441
144.095
137.581
131.844
126.825
122.466
118.703
115.479
112.734
110.414
108.465
106.839
105.492
104.384
103.478
102.743
102.149
101.674
101.296
100.997
100.763
100.579
100.438
100.329
100.245
100.182
100.134
100.098
100.071
100.052
100.037
100.026
100.019
100.013
100.009
100.006
100.004
100.003
100.002
100.001
100.001
100.001
100
100
100
100
100
100
100
100
100
100
100
100
100
100
100
100
100
390.078
370.303
350.73
331.492
312.712
294.505
276.974
260.21
244.289
229.273
215.208
202.122
190.031
178.936
168.825
159.672
151.444
144.098
137.584
131.847
126.828
122.468
118.705
115.481
112.736
110.415
108.466
106.84
105.493
104.385
103.479
102.743
102.15
101.674
101.296
100.997
100.763
100.58
100.438
100.329
100.245
100.182
100.134
100.098
100.071
100.052
100.037
100.026
100.019
100.013
100.009
100.006
100.004
100.003
100.002
100.001
100.001
100.001
100
100
100
100
100
100
100
100
100
100
100
100
100
100
100
100
100
390.078
370.303
350.732
331.494
312.714
294.507
276.977
260.213
244.293
229.277
215.211
202.125
190.034
178.939
168.828
159.675
151.447
144.101
137.586
131.849
126.83
122.47
118.707
115.482
112.737
110.416
108.467
106.841
105.494
104.385
103.479
102.743
102.15
101.675
101.296
100.997
100.763
100.58
100.438
100.329
100.245
100.182
100.134
100.098
100.071
100.052
100.037
100.027
100.019
100.013
100.009
100.006
100.004
100.003
100.002
100.001
100.001
100.001
100
100
100
100
100
100
100
100
100
100
100
100
100
100
100
100
100
390.079
370.304
350.733
331.495
312.716
294.509
276.979
260.215
244.295
229.279
215.213
202.128
190.037
178.942
168.83
159.677
151.449
144.103
137.588
131.851
126.831
122.471
118.708
115.483
112.738
110.417
108.467
106.841
105.494
104.386
103.479
102.744
102.15
101.675
101.297
100.998
100.763
100.58
100.438
100.329
100.245
100.182
100.134
100.098
100.071
100.052
100.037
100.027
100.019
100.013
100.009
100.006
100.004
100.003
100.002
100.001
100.001
100.001
100
100
100
100
100
100
100
100
100
100
100
100
100
100
100
100
100
390.079
370.304
350.733
331.496
312.717
294.51
276.98
260.217
244.297
229.281
215.215
202.129
190.039
178.944
168.832
159.679
151.451
144.104
137.589
131.852
126.833
122.472
118.709
115.484
112.738
110.417
108.468
106.842
105.495
104.386
103.48
102.744
102.15
101.675
101.297
100.998
100.763
100.58
100.438
100.329
100.245
100.182
100.134
100.098
100.071
100.052
100.037
100.027
100.019
100.013
100.009
100.006
100.004
100.003
100.002
100.001
100.001
100.001
100
100
100
100
100
100
100
100
100
100
100
100
100
100
100
100
100
390.079
370.305
350.734
331.497
312.718
294.511
276.981
260.218
244.298
229.282
215.217
202.131
190.04
178.945
168.833
159.68
151.452
144.105
137.59
131.853
126.833
122.472
118.709
115.484
112.739
110.418
108.468
106.842
105.495
104.386
103.48
102.744
102.15
101.675
101.297
100.998
100.763
100.58
100.438
100.329
100.245
100.182
100.134
100.098
100.071
100.052
100.037
100.027
100.019
100.013
100.009
100.006
100.004
100.003
100.002
100.001
100.001
100.001
100
100
100
100
100
100
100
100
100
100
100
100
100
100
100
100
100
390.079
370.305
350.734
331.497
312.718
294.512
276.982
260.219
244.299
229.283
215.217
202.132
190.041
178.946
168.834
159.681
151.453
144.106
137.591
131.853
126.834
122.473
118.71
115.485
112.739
110.418
108.468
106.842
105.495
104.386
103.48
102.744
102.151
101.675
101.297
100.998
100.763
100.58
100.438
100.329
100.245
100.182
100.134
100.098
100.071
100.052
100.037
100.027
100.019
100.013
100.009
100.006
100.004
100.003
100.002
100.001
100.001
100.001
100
100
100
100
100
100
100
100
100
100
100
100
100
100
100
100
100
390.079
370.305
350.734
331.497
312.719
294.512
276.982
260.219
244.299
229.284
215.218
202.132
190.042
178.946
168.834
159.682
151.453
144.106
137.592
131.854
126.834
122.473
118.71
115.485
112.739
110.418
108.469
106.842
105.495
104.386
103.48
102.744
102.151
101.675
101.297
100.998
100.763
100.58
100.438
100.329
100.245
100.182
100.134
100.098
100.071
100.052
100.037
100.027
100.019
100.013
100.009
100.006
100.004
100.003
100.002
100.001
100.001
100.001
100
100
100
100
100
100
100
100
100
100
100
100
100
100
100
100
100
390.079
370.305
350.734
331.498
312.719
294.513
276.983
260.22
244.3
229.284
215.219
202.133
190.042
178.947
168.835
159.682
151.454
144.107
137.592
131.854
126.834
122.474
118.71
115.485
112.74
110.418
108.469
106.842
105.495
104.386
103.48
102.744
102.151
101.675
101.297
100.998
100.763
100.58
100.438
100.329
100.245
100.182
100.134
100.098
100.071
100.052
100.037
100.027
100.019
100.013
100.009
100.006
100.004
100.003
100.002
100.001
100.001
100.001
100
100
100
100
100
100
100
100
100
100
100
100
100
100
100
100
100
390.079
370.305
350.735
331.498
312.719
294.513
276.983
260.22
244.3
229.285
215.219
202.133
190.042
178.947
168.835
159.682
151.454
144.107
137.592
131.854
126.835
122.474
118.711
115.485
112.74
110.418
108.469
106.843
105.495
104.386
103.48
102.744
102.151
101.675
101.297
100.998
100.763
100.58
100.438
100.329
100.245
100.182
100.134
100.098
100.071
100.052
100.037
100.027
100.019
100.013
100.009
100.006
100.004
100.003
100.002
100.001
100.001
100.001
100
100
100
100
100
100
100
100
100
100
100
100
100
100
100
100
100
390.079
370.305
350.735
331.498
312.719
294.513
276.983
260.22
244.3
229.285
215.219
202.133
190.043
178.947
168.835
159.682
151.454
144.107
137.592
131.854
126.835
122.474
118.711
115.485
112.74
110.418
108.469
106.843
105.495
104.386
103.48
102.744
102.151
101.675
101.297
100.998
100.763
100.58
100.438
100.329
100.245
100.182
100.134
100.098
100.071
100.052
100.037
100.027
100.019
100.013
100.009
100.006
100.004
100.003
100.002
100.001
100.001
100.001
100
100
100
100
100
100
100
100
100
100
100
100
100
100
100
100
100
390.079
370.305
350.735
331.498
312.719
294.513
276.983
260.22
244.301
229.285
215.219
202.134
190.043
178.948
168.836
159.683
151.454
144.107
137.592
131.854
126.835
122.474
118.711
115.485
112.74
110.418
108.469
106.843
105.495
104.386
103.48
102.744
102.151
101.675
101.297
100.998
100.763
100.58
100.438
100.329
100.245
100.182
100.134
100.098
100.071
100.052
100.037
100.027
100.019
100.013
100.009
100.006
100.004
100.003
100.002
100.001
100.001
100.001
100
100
100
100
100
100
100
100
100
100
100
100
100
100
100
100
100
390.079
370.305
350.735
331.498
312.719
294.513
276.983
260.221
244.301
229.285
215.219
202.134
190.043
178.948
168.836
159.683
151.454
144.107
137.592
131.854
126.835
122.474
118.711
115.486
112.74
110.418
108.469
106.843
105.495
104.386
103.48
102.744
102.151
101.675
101.297
100.998
100.763
100.58
100.438
100.329
100.245
100.182
100.134
100.098
100.071
100.052
100.037
100.027
100.019
100.013
100.009
100.006
100.004
100.003
100.002
100.001
100.001
100.001
100
100
100
100
100
100
100
100
100
100
100
100
100
100
100
100
100
390.079
370.305
350.735
331.498
312.719
294.513
276.984
260.221
244.301
229.285
215.219
202.134
190.043
178.948
168.836
159.683
151.454
144.108
137.593
131.854
126.835
122.474
118.711
115.486
112.74
110.418
108.469
106.843
105.495
104.386
103.48
102.744
102.151
101.675
101.297
100.998
100.763
100.58
100.438
100.329
100.245
100.182
100.134
100.098
100.071
100.052
100.037
100.027
100.019
100.013
100.009
100.006
100.004
100.003
100.002
100.001
100.001
100.001
100
100
100
100
100
100
100
100
100
100
100
100
100
100
100
100
100
390.079
370.305
350.735
331.498
312.719
294.513
276.984
260.221
244.301
229.285
215.22
202.134
190.043
178.948
168.836
159.683
151.454
144.108
137.593
131.854
126.835
122.474
118.711
115.486
112.74
110.418
108.469
106.843
105.495
104.386
103.48
102.744
102.151
101.675
101.297
100.998
100.763
100.58
100.438
100.329
100.245
100.182
100.134
100.098
100.071
100.052
100.037
100.027
100.019
100.013
100.009
100.006
100.004
100.003
100.002
100.001
100.001
100.001
100
100
100
100
100
100
100
100
100
100
100
100
100
100
100
100
100
390.079
370.305
350.735
331.498
312.719
294.513
276.984
260.221
244.301
229.285
215.22
202.134
190.043
178.948
168.836
159.683
151.454
144.108
137.593
131.854
126.835
122.474
118.711
115.486
112.74
110.418
108.469
106.843
105.495
104.386
103.48
102.744
102.151
101.675
101.297
100.998
100.763
100.58
100.438
100.329
100.245
100.182
100.134
100.098
100.071
100.052
100.037
100.027
100.019
100.013
100.009
100.006
100.004
100.003
100.002
100.001
100.001
100.001
100
100
100
100
100
100
100
100
100
100
100
100
100
100
100
100
100
390.079
370.305
350.735
331.498
312.719
294.513
276.984
260.221
244.301
229.285
215.22
202.134
190.043
178.948
168.836
159.683
151.454
144.108
137.593
131.854
126.835
122.474
118.711
115.486
112.74
110.418
108.469
106.843
105.495
104.386
103.48
102.744
102.151
101.675
101.297
100.998
100.763
100.58
100.438
100.329
100.245
100.182
100.134
100.098
100.071
100.052
100.037
100.027
100.019
100.013
100.009
100.006
100.004
100.003
100.002
100.001
100.001
100.001
100
100
100
100
100
100
100
100
100
100
100
100
100
100
100
100
100
390.079
370.305
350.735
331.498
312.719
294.513
276.984
260.221
244.301
229.285
215.22
202.134
190.043
178.948
168.836
159.683
151.454
144.108
137.593
131.855
126.835
122.474
118.711
115.486
112.74
110.418
108.469
106.843
105.495
104.386
103.48
102.744
102.151
101.675
101.297
100.998
100.763
100.58
100.438
100.329
100.245
100.182
100.134
100.098
100.071
100.052
100.037
100.027
100.019
100.013
100.009
100.006
100.004
100.003
100.002
100.001
100.001
100.001
100
100
100
100
100