/*--------------------------------*- C++ -*----------------------------------*\
  =========                 |
  \\      /  F ield         | OpenFOAM: The Open Source CFD Toolbox
   \\    /   O peration     | Website:  https://openfoam.org
    \\  /    A nd           | Version:  10
     \\/     M anipulation  |
\*---------------------------------------------------------------------------*/
FoamFile
{
    format      ascii;
    class       volScalarField;
    location    "336";
    object      T;
}
// * * * * * * * * * * * * * * * * * * * * * * * * * * * * * * * * * * * * * //

dimensions      [0 0 0 1 0 0 0];

internalField   nonuniform List<scalar> 
11250
(
249.842
167.555
139.358
126.942
120.168
115.872
112.868
110.628
108.884
107.483
106.333
105.374
104.565
103.878
103.29
102.787
102.355
101.984
101.666
101.394
101.162
100.964
100.797
100.656
100.537
100.437
100.355
100.286
100.229
100.183
100.145
100.115
100.09
100.07
100.055
100.042
100.032
100.025
100.019
100.014
100.011
100.008
100.006
100.004
100.003
100.002
100.002
100.001
100.001
100.001
100
100
100
100
100
100
100
100
100
100
100
100
100
100
100
100
100
100
100
100
100
100
100
100
100
331.498
248.583
202.301
175.198
158.043
146.344
137.862
131.414
126.335
122.227
118.839
116.003
113.606
111.564
109.817
108.319
107.031
105.926
104.978
104.166
103.473
102.883
102.382
101.96
101.605
101.308
101.06
100.855
100.686
100.548
100.435
100.343
100.27
100.211
100.164
100.126
100.097
100.074
100.056
100.042
100.032
100.024
100.018
100.013
100.01
100.007
100.005
100.004
100.003
100.002
100.001
100.001
100.001
100
100
100
100
100
100
100
100
100
100
100
100
100
100
100
100
100
100
100
100
100
100
359.071
292.995
246.098
213.548
190.516
173.663
160.893
150.909
142.9
136.341
130.883
126.288
122.384
119.048
116.187
113.727
111.61
109.79
108.227
106.888
105.744
104.769
103.943
103.244
102.657
102.165
101.756
101.416
101.137
100.908
100.721
100.569
100.447
100.349
100.271
100.21
100.161
100.123
100.093
100.07
100.053
100.039
100.029
100.022
100.016
100.012
100.008
100.006
100.004
100.003
100.002
100.002
100.001
100.001
100.001
100
100
100
100
100
100
100
100
100
100
100
100
100
100
100
100
100
100
100
100
370.873
318.26
275.597
242.451
216.896
197.002
181.254
168.56
158.154
149.499
142.217
136.034
130.749
126.212
122.305
118.936
116.032
113.529
111.377
109.53
107.951
106.605
105.462
104.496
103.683
103.002
102.435
101.965
101.577
101.259
101
100.79
100.621
100.485
100.377
100.291
100.223
100.171
100.13
100.098
100.073
100.055
100.041
100.03
100.022
100.016
100.012
100.008
100.006
100.004
100.003
100.002
100.001
100.001
100.001
100
100
100
100
100
100
100
100
100
100
100
100
100
100
100
100
100
100
100
100
377.047
333.619
295.649
263.862
237.738
216.339
198.725
184.104
171.85
161.49
152.663
145.097
138.583
132.959
128.094
123.885
120.245
117.101
114.393
112.066
110.072
108.372
106.926
105.704
104.674
103.811
103.092
102.496
102.004
101.6
101.271
101.004
100.789
100.616
100.479
100.37
100.284
100.217
100.165
100.125
100.093
100.07
100.052
100.038
100.028
100.02
100.015
100.011
100.008
100.005
100.004
100.003
100.002
100.001
100.001
100.001
100
100
100
100
100
100
100
100
100
100
100
100
100
100
100
100
100
100
100
380.76
343.575
309.61
279.733
254.009
232.074
213.414
197.509
183.901
172.207
162.117
153.382
145.803
139.217
133.494
128.521
124.208
120.473
117.247
114.471
112.089
110.054
108.323
106.857
105.622
104.586
103.722
103.005
102.413
101.928
101.532
101.21
100.951
100.743
100.578
100.446
100.343
100.262
100.199
100.15
100.113
100.084
100.063
100.046
100.034
100.025
100.018
100.013
100.009
100.007
100.005
100.003
100.002
100.002
100.001
100.001
100.001
100
100
100
100
100
100
100
100
100
100
100
100
100
100
100
100
100
100
383.203
350.376
319.591
291.602
266.679
244.758
225.599
208.896
194.336
181.634
170.54
160.842
152.36
144.944
138.464
132.812
127.89
123.617
119.918
116.727
113.985
111.64
109.642
107.948
106.519
105.321
104.32
103.489
102.803
102.24
101.78
101.407
101.106
100.864
100.672
100.519
100.399
100.305
100.232
100.175
100.131
100.098
100.073
100.054
100.039
100.029
100.021
100.015
100.011
100.008
100.005
100.004
100.003
100.002
100.001
100.001
100.001
100
100
100
100
100
100
100
100
100
100
100
100
100
100
100
100
100
100
384.905
355.215
326.903
300.581
276.566
254.938
235.623
218.463
203.261
189.819
177.947
167.472
158.24
150.118
142.984
136.734
131.273
126.517
122.39
118.822
115.751
113.119
110.875
108.97
107.362
106.011
104.882
103.945
103.17
102.534
102.014
101.593
101.252
100.979
100.761
100.588
100.452
100.345
100.262
100.198
100.149
100.111
100.083
100.061
100.045
100.033
100.024
100.017
100.012
100.009
100.006
100.004
100.003
100.002
100.001
100.001
100.001
100
100
100
100
100
100
100
100
100
100
100
100
100
100
100
100
100
100
386.138
358.762
332.371
307.453
284.314
263.099
243.828
226.439
210.824
196.853
184.388
173.297
163.453
154.739
147.048
140.28
134.347
129.163
124.654
120.747
117.378
114.487
112.017
109.919
108.145
106.654
105.407
104.371
103.514
102.81
102.234
101.767
101.389
101.086
100.845
100.653
100.502
100.384
100.292
100.22
100.165
100.124
100.092
100.068
100.05
100.036
100.026
100.019
100.014
100.01
100.007
100.005
100.003
100.002
100.002
100.001
100.001
100.001
100
100
100
100
100
100
100
100
100
100
100
100
100
100
100
100
100
387.055
361.422
336.528
312.766
290.416
269.645
250.523
233.052
217.185
202.844
189.937
178.364
168.026
158.824
150.663
143.454
137.111
131.554
126.707
122.499
118.864
115.738
113.065
110.791
108.866
107.247
105.892
104.765
103.832
103.065
102.438
101.929
101.517
101.187
100.923
100.714
100.549
100.42
100.319
100.241
100.181
100.135
100.1
100.074
100.054
100.04
100.029
100.021
100.015
100.011
100.008
100.005
100.004
100.003
100.002
100.001
100.001
100.001
100
100
100
100
100
100
100
100
100
100
100
100
100
100
100
100
100
387.751
363.451
339.73
316.912
295.245
274.901
255.977
238.513
222.503
207.911
194.678
182.734
172.002
162.401
153.85
146.267
139.574
133.693
128.552
124.079
120.207
116.873
114.017
111.585
109.525
107.79
106.336
105.126
104.125
103.301
102.626
102.078
101.635
101.279
100.995
100.77
100.592
100.453
100.344
100.26
100.195
100.146
100.108
100.08
100.059
100.043
100.031
100.022
100.016
100.011
100.008
100.006
100.004
100.003
100.002
100.001
100.001
100.001
100
100
100
100
100
100
100
100
100
100
100
100
100
100
100
100
100
388.286
365.019
342.222
320.169
299.082
279.127
260.415
243.008
226.929
212.17
198.701
186.473
175.431
165.507
156.634
148.738
141.748
135.59
130.194
125.49
121.411
117.893
114.876
112.303
110.122
108.282
106.74
105.456
104.392
103.515
102.798
102.215
101.743
101.364
101.062
100.821
100.632
100.483
100.367
100.278
100.209
100.156
100.116
100.086
100.063
100.046
100.033
100.024
100.017
100.012
100.009
100.006
100.004
100.003
100.002
100.001
100.001
100.001
100
100
100
100
100
100
100
100
100
100
100
100
100
100
100
100
100
388.702
366.242
344.177
322.743
302.141
282.529
264.023
246.698
230.597
215.733
202.093
189.652
178.366
168.183
159.047
150.891
143.651
137.258
131.644
126.74
122.481
118.802
115.643
112.946
110.657
108.725
107.104
105.753
104.633
103.71
102.954
102.339
101.842
101.442
101.122
100.868
100.668
100.511
100.389
100.294
100.221
100.165
100.123
100.091
100.066
100.049
100.035
100.025
100.018
100.013
100.009
100.006
100.005
100.003
100.002
100.002
100.001
100.001
100
100
100
100
100
100
100
100
100
100
100
100
100
100
100
100
100
389.029
367.202
345.718
324.785
304.585
285.268
266.952
249.721
233.627
218.698
204.939
192.336
180.86
170.472
161.121
152.752
145.304
138.713
132.913
127.838
123.424
119.606
116.323
113.518
111.134
109.12
107.43
106.019
104.849
103.885
103.094
102.451
101.93
101.511
101.177
100.911
100.701
100.536
100.408
100.308
100.232
100.173
100.129
100.095
100.07
100.051
100.037
100.027
100.019
100.014
100.01
100.007
100.005
100.003
100.002
100.002
100.001
100.001
100
100
100
100
100
100
100
100
100
100
100
100
100
100
100
100
100
389.286
367.96
346.939
326.41
306.541
287.476
269.329
252.19
236.12
221.155
207.313
194.59
182.968
172.416
162.893
154.349
146.729
139.971
134.015
128.795
124.248
120.311
116.921
114.021
111.555
109.47
107.718
106.255
105.041
104.04
103.219
102.551
102.009
101.574
101.226
100.949
100.73
100.559
100.425
100.322
100.242
100.181
100.134
100.099
100.073
100.053
100.039
100.028
100.02
100.014
100.01
100.007
100.005
100.003
100.002
100.002
100.001
100.001
100.001
100
100
100
100
100
100
100
100
100
100
100
100
100
100
100
100
389.489
368.561
347.909
327.706
308.109
289.254
271.256
254.204
238.165
223.184
209.284
196.472
184.738
174.057
164.396
155.71
147.947
141.052
134.965
129.623
124.964
120.924
117.443
114.462
111.924
109.777
107.972
106.464
105.211
104.178
103.33
102.639
102.08
101.629
101.269
100.983
100.757
100.579
100.441
100.333
100.251
100.187
100.139
100.103
100.076
100.055
100.04
100.029
100.021
100.015
100.01
100.007
100.005
100.004
100.002
100.002
100.001
100.001
100.001
100
100
100
100
100
100
100
100
100
100
100
100
100
100
100
100
389.65
369.038
348.68
328.74
309.365
290.685
272.814
255.841
239.837
224.851
210.914
198.036
186.216
175.434
165.663
156.861
148.983
141.975
135.778
130.334
125.58
121.453
117.894
114.844
112.245
110.045
108.194
106.646
105.36
104.298
103.427
102.717
102.142
101.678
101.307
101.013
100.78
100.597
100.454
100.344
100.259
100.193
100.144
100.106
100.078
100.057
100.041
100.03
100.021
100.015
100.011
100.008
100.005
100.004
100.003
100.002
100.001
100.001
100.001
100
100
100
100
100
100
100
100
100
100
100
100
100
100
100
100
389.779
369.417
349.295
329.566
310.371
291.837
274.072
257.17
241.201
226.217
212.255
199.33
187.443
176.583
166.724
157.83
149.857
142.756
136.469
130.94
126.106
121.907
118.282
115.173
112.522
110.276
108.386
106.804
105.49
104.404
103.512
102.785
102.196
101.721
101.341
101.039
100.8
100.613
100.466
100.353
100.265
100.199
100.148
100.109
100.08
100.059
100.042
100.031
100.022
100.016
100.011
100.008
100.005
100.004
100.003
100.002
100.001
100.001
100.001
100
100
100
100
100
100
100
100
100
100
100
100
100
100
100
100
389.88
369.718
349.784
330.225
311.176
292.761
275.087
258.245
242.308
227.332
213.354
200.394
188.458
177.536
167.607
158.639
150.59
143.413
137.053
131.453
126.553
122.293
118.613
115.454
112.759
110.475
108.551
106.941
105.601
104.495
103.586
102.844
102.243
101.758
101.37
101.062
100.818
100.626
100.477
100.361
100.272
100.203
100.151
100.112
100.082
100.06
100.043
100.031
100.023
100.016
100.011
100.008
100.006
100.004
100.003
100.002
100.001
100.001
100.001
100
100
100
100
100
100
100
100
100
100
100
100
100
100
100
100
389.961
369.957
350.173
330.75
311.819
293.501
275.902
259.112
243.205
228.238
214.25
201.265
189.291
178.322
168.339
159.311
151.201
143.962
137.542
131.884
126.93
122.62
118.894
115.693
112.961
110.645
108.692
107.057
105.697
104.573
103.649
102.895
102.283
101.79
101.396
101.082
100.833
100.638
100.486
100.368
100.277
100.207
100.154
100.114
100.084
100.061
100.044
100.032
100.023
100.016
100.012
100.008
100.006
100.004
100.003
100.002
100.001
100.001
100.001
100
100
100
100
100
100
100
100
100
100
100
100
100
100
100
100
390.025
370.147
350.483
331.168
312.333
294.094
276.556
259.809
243.928
228.971
214.978
201.975
189.973
178.967
168.941
159.867
151.708
144.419
137.949
132.244
127.246
122.894
119.13
115.895
113.132
110.788
108.812
107.156
105.778
104.639
103.703
102.938
102.318
101.818
101.417
101.099
100.847
100.649
100.494
100.374
100.281
100.21
100.157
100.116
100.085
100.062
100.045
100.033
100.023
100.017
100.012
100.008
100.006
100.004
100.003
100.002
100.001
100.001
100.001
100
100
100
100
100
100
100
100
100
100
100
100
100
100
100
100
390.076
370.298
350.728
331.5
312.741
294.566
277.078
260.368
244.51
229.562
215.567
202.552
190.528
179.493
169.434
160.322
152.124
144.796
138.287
132.543
127.508
123.123
119.327
116.063
113.275
110.909
108.912
107.24
105.847
104.695
103.748
102.975
102.347
101.841
101.436
101.113
100.858
100.657
100.501
100.379
100.285
100.213
100.159
100.117
100.086
100.063
100.046
100.033
100.024
100.017
100.012
100.008
100.006
100.004
100.003
100.002
100.001
100.001
100.001
100
100
100
100
100
100
100
100
100
100
100
100
100
100
100
100
390.116
370.417
350.922
331.764
313.065
294.941
277.495
260.815
244.976
230.037
216.041
203.017
190.977
179.921
169.835
160.695
152.466
145.105
138.564
132.79
127.725
123.312
119.491
116.204
113.395
111.009
108.997
107.31
105.905
104.742
103.787
103.006
102.372
101.861
101.451
101.125
100.867
100.665
100.506
100.383
100.289
100.216
100.161
100.119
100.087
100.064
100.046
100.033
100.024
100.017
100.012
100.009
100.006
100.004
100.003
100.002
100.001
100.001
100.001
100
100
100
100
100
100
100
100
100
100
100
100
100
100
100
100
390.148
370.511
351.076
331.972
313.322
295.239
277.826
261.17
245.348
230.416
216.421
203.391
191.339
180.266
170.16
160.997
152.743
145.357
138.791
132.992
127.904
123.468
119.626
116.32
113.493
111.093
109.067
107.368
105.953
104.782
103.819
103.032
102.393
101.878
101.465
101.136
100.875
100.671
100.511
100.387
100.291
100.218
100.162
100.12
100.088
100.064
100.047
100.034
100.024
100.017
100.012
100.009
100.006
100.004
100.003
100.002
100.001
100.001
100.001
100
100
100
100
100
100
100
100
100
100
100
100
100
100
100
100
390.173
370.585
351.196
332.136
313.524
295.475
278.088
261.452
245.643
230.719
216.725
203.69
191.629
180.544
170.422
161.241
152.968
145.562
138.976
133.157
128.049
123.595
119.736
116.415
113.574
111.161
109.124
107.416
105.993
104.814
103.845
103.053
102.41
101.891
101.475
101.144
100.882
100.676
100.515
100.39
100.294
100.22
100.163
100.121
100.089
100.065
100.047
100.034
100.024
100.017
100.012
100.009
100.006
100.004
100.003
100.002
100.001
100.001
100.001
100
100
100
100
100
100
100
100
100
100
100
100
100
100
100
100
390.192
370.643
351.291
332.265
313.683
295.66
278.294
261.675
245.876
230.958
216.966
203.928
191.861
180.766
170.632
161.437
153.149
145.727
139.125
133.29
128.167
123.699
119.826
116.492
113.641
111.218
109.172
107.456
106.025
104.841
103.867
103.071
102.424
101.903
101.484
101.151
100.888
100.68
100.518
100.393
100.296
100.221
100.165
100.122
100.089
100.065
100.047
100.034
100.025
100.018
100.012
100.009
100.006
100.004
100.003
100.002
100.001
100.001
100.001
100
100
100
100
100
100
100
100
100
100
100
100
100
100
100
100
390.207
370.688
351.365
332.365
313.808
295.805
278.456
261.85
246.061
231.148
217.156
204.116
192.044
180.942
170.799
161.593
153.293
145.859
139.245
133.397
128.262
123.782
119.899
116.555
113.695
111.263
109.21
107.488
106.052
104.863
103.885
103.086
102.436
101.912
101.492
101.157
100.892
100.684
100.521
100.395
100.297
100.222
100.165
100.122
100.09
100.066
100.048
100.034
100.025
100.018
100.013
100.009
100.006
100.004
100.003
100.002
100.001
100.001
100.001
100
100
100
100
100
100
100
100
100
100
100
100
100
100
100
100
390.219
370.723
351.423
332.444
313.906
295.919
278.583
261.987
246.205
231.296
217.306
204.265
192.19
181.082
170.932
161.718
153.409
145.965
139.34
133.483
128.338
123.849
119.958
116.606
113.738
111.3
109.241
107.514
106.074
104.881
103.9
103.097
102.446
101.92
101.498
101.162
100.896
100.687
100.523
100.396
100.299
100.223
100.166
100.123
100.09
100.066
100.048
100.035
100.025
100.018
100.013
100.009
100.006
100.004
100.003
100.002
100.001
100.001
100.001
100
100
100
100
100
100
100
100
100
100
100
100
100
100
100
100
390.229
370.751
351.468
332.505
313.981
296.007
278.682
262.094
246.318
231.412
217.424
204.382
192.304
181.192
171.036
161.816
153.5
146.048
139.416
133.551
128.399
123.903
120.004
116.646
113.773
111.33
109.266
107.535
106.091
104.895
103.911
103.107
102.453
101.926
101.503
101.166
100.899
100.689
100.525
100.398
100.3
100.224
100.167
100.123
100.091
100.066
100.048
100.035
100.025
100.018
100.013
100.009
100.006
100.004
100.003
100.002
100.001
100.001
100.001
100
100
100
100
100
100
100
100
100
100
100
100
100
100
100
100
390.236
370.772
351.503
332.552
314.04
296.075
278.759
262.177
246.405
231.503
217.515
204.473
192.393
181.278
171.118
161.893
153.571
146.114
139.476
133.605
128.447
123.945
120.042
116.679
113.801
111.353
109.286
107.552
106.105
104.907
103.921
103.115
102.46
101.931
101.507
101.169
100.902
100.691
100.527
100.399
100.3
100.225
100.167
100.124
100.091
100.067
100.048
100.035
100.025
100.018
100.013
100.009
100.006
100.004
100.003
100.002
100.001
100.001
100.001
100
100
100
100
100
100
100
100
100
100
100
100
100
100
100
100
390.241
370.788
351.529
332.589
314.085
296.128
278.818
262.242
246.473
231.573
217.586
204.544
192.462
181.345
171.182
161.953
153.627
146.166
139.523
133.648
128.485
123.979
120.071
116.704
113.822
111.372
109.302
107.565
106.116
104.916
103.928
103.121
102.465
101.935
101.51
101.172
100.903
100.693
100.528
100.4
100.301
100.225
100.168
100.124
100.091
100.067
100.048
100.035
100.025
100.018
100.013
100.009
100.006
100.004
100.003
100.002
100.001
100.001
100.001
100
100
100
100
100
100
100
100
100
100
100
100
100
100
100
100
390.245
370.801
351.55
332.617
314.12
296.169
278.864
262.291
246.526
231.627
217.641
204.598
192.516
181.397
171.232
162
153.671
146.206
139.56
133.681
128.515
124.005
120.094
116.724
113.84
111.387
109.315
107.575
106.125
104.923
103.934
103.126
102.468
101.938
101.513
101.174
100.905
100.694
100.529
100.401
100.302
100.226
100.168
100.124
100.091
100.067
100.049
100.035
100.025
100.018
100.013
100.009
100.006
100.004
100.003
100.002
100.001
100.001
100.001
100
100
100
100
100
100
100
100
100
100
100
100
100
100
100
100
390.249
370.81
351.565
332.638
314.146
296.2
278.898
262.329
246.566
231.669
217.683
204.64
192.557
181.437
171.27
162.036
153.705
146.237
139.588
133.706
128.538
124.025
120.112
116.74
113.853
111.398
109.324
107.584
106.132
104.929
103.939
103.129
102.472
101.941
101.515
101.175
100.906
100.695
100.53
100.401
100.302
100.226
100.168
100.125
100.092
100.067
100.049
100.035
100.025
100.018
100.013
100.009
100.006
100.004
100.003
100.002
100.001
100.001
100.001
100
100
100
100
100
100
100
100
100
100
100
100
100
100
100
100
390.251
370.818
351.577
332.654
314.166
296.223
278.925
262.358
246.596
231.7
217.715
204.673
192.589
181.467
171.299
162.064
153.731
146.261
139.61
133.726
128.555
124.041
120.126
116.752
113.864
111.407
109.332
107.59
106.137
104.934
103.943
103.132
102.474
101.942
101.516
101.176
100.907
100.696
100.53
100.402
100.303
100.226
100.169
100.125
100.092
100.067
100.049
100.035
100.025
100.018
100.013
100.009
100.006
100.004
100.003
100.002
100.001
100.001
100.001
100
100
100
100
100
100
100
100
100
100
100
100
100
100
100
100
390.253
370.823
351.586
332.666
314.182
296.241
278.945
262.38
246.619
231.724
217.74
204.697
192.613
181.491
171.322
162.085
153.751
146.28
139.627
133.742
128.569
124.053
120.136
116.761
113.872
111.414
109.338
107.595
106.141
104.937
103.946
103.135
102.476
101.944
101.517
101.177
100.908
100.696
100.531
100.402
100.303
100.227
100.169
100.125
100.092
100.067
100.049
100.035
100.025
100.018
100.013
100.009
100.006
100.004
100.003
100.002
100.001
100.001
100.001
100
100
100
100
100
100
100
100
100
100
100
100
100
100
100
100
390.254
370.827
351.593
332.676
314.193
296.255
278.96
262.396
246.637
231.742
217.758
204.716
192.631
181.509
171.339
162.101
153.766
146.294
139.64
133.753
128.58
124.063
120.145
116.768
113.878
111.42
109.343
107.599
106.145
104.94
103.948
103.137
102.477
101.945
101.518
101.178
100.909
100.697
100.531
100.402
100.303
100.227
100.169
100.125
100.092
100.067
100.049
100.035
100.025
100.018
100.013
100.009
100.006
100.004
100.003
100.002
100.001
100.001
100.001
100
100
100
100
100
100
100
100
100
100
100
100
100
100
100
100
390.255
370.83
351.598
332.683
314.202
296.265
278.971
262.408
246.65
231.756
217.772
204.73
192.645
181.522
171.352
162.113
153.777
146.304
139.649
133.762
128.588
124.07
120.151
116.774
113.883
111.424
109.346
107.602
106.147
104.942
103.95
103.138
102.478
101.946
101.519
101.179
100.909
100.697
100.531
100.403
100.303
100.227
100.169
100.125
100.092
100.067
100.049
100.035
100.025
100.018
100.013
100.009
100.006
100.004
100.003
100.002
100.001
100.001
100.001
100
100
100
100
100
100
100
100
100
100
100
100
100
100
100
100
390.256
370.833
351.602
332.688
314.208
296.272
278.98
262.418
246.66
231.766
217.783
204.74
192.655
181.532
171.361
162.122
153.786
146.312
139.657
133.769
128.594
124.075
120.156
116.778
113.886
111.427
109.349
107.604
106.149
104.943
103.951
103.139
102.479
101.947
101.52
101.179
100.909
100.697
100.531
100.403
100.303
100.227
100.169
100.125
100.092
100.067
100.049
100.035
100.025
100.018
100.013
100.009
100.006
100.004
100.003
100.002
100.001
100.001
100.001
100
100
100
100
100
100
100
100
100
100
100
100
100
100
100
100
390.257
370.834
351.605
332.692
314.213
296.278
278.986
262.425
246.667
231.774
217.79
204.748
192.663
181.54
171.368
162.129
153.792
146.318
139.662
133.774
128.598
124.079
120.159
116.781
113.889
111.429
109.351
107.606
106.15
104.945
103.952
103.14
102.48
101.947
101.52
101.179
100.91
100.698
100.532
100.403
100.303
100.227
100.169
100.125
100.092
100.067
100.049
100.035
100.025
100.018
100.013
100.009
100.006
100.004
100.003
100.002
100.001
100.001
100.001
100
100
100
100
100
100
100
100
100
100
100
100
100
100
100
100
390.257
370.836
351.607
332.694
314.216
296.282
278.991
262.43
246.673
231.78
217.796
204.754
192.669
181.545
171.374
162.134
153.797
146.323
139.666
133.777
128.601
124.082
120.162
116.783
113.891
111.431
109.352
107.607
106.151
104.945
103.953
103.14
102.48
101.948
101.52
101.18
100.91
100.698
100.532
100.403
100.303
100.227
100.169
100.125
100.092
100.067
100.049
100.035
100.025
100.018
100.013
100.009
100.006
100.004
100.003
100.002
100.001
100.001
100.001
100
100
100
100
100
100
100
100
100
100
100
100
100
100
100
100
390.257
370.837
351.608
332.697
314.219
296.285
278.994
262.433
246.677
231.784
217.8
204.758
192.673
181.549
171.378
162.138
153.8
146.326
139.669
133.78
128.604
124.084
120.164
116.785
113.893
111.432
109.353
107.608
106.152
104.946
103.953
103.141
102.481
101.948
101.521
101.18
100.91
100.698
100.532
100.403
100.304
100.227
100.169
100.125
100.092
100.067
100.049
100.035
100.025
100.018
100.013
100.009
100.006
100.004
100.003
100.002
100.001
100.001
100.001
100
100
100
100
100
100
100
100
100
100
100
100
100
100
100
100
390.258
370.837
351.609
332.698
314.221
296.287
278.997
262.436
246.679
231.787
217.804
204.761
192.676
181.552
171.381
162.141
153.803
146.328
139.672
133.782
128.606
124.086
120.165
116.786
113.894
111.433
109.354
107.609
106.153
104.947
103.953
103.141
102.481
101.948
101.521
101.18
100.91
100.698
100.532
100.403
100.304
100.227
100.169
100.125
100.092
100.067
100.049
100.035
100.025
100.018
100.013
100.009
100.006
100.004
100.003
100.002
100.001
100.001
100.001
100
100
100
100
100
100
100
100
100
100
100
100
100
100
100
100
390.258
370.838
351.61
332.699
314.222
296.289
278.999
262.438
246.682
231.789
217.806
204.763
192.678
181.554
171.383
162.143
153.805
146.33
139.673
133.784
128.607
124.087
120.166
116.787
113.894
111.434
109.355
107.609
106.153
104.947
103.954
103.141
102.481
101.948
101.521
101.18
100.91
100.698
100.532
100.403
100.304
100.227
100.169
100.125
100.092
100.067
100.049
100.035
100.025
100.018
100.013
100.009
100.006
100.004
100.003
100.002
100.001
100.001
100.001
100
100
100
100
100
100
100
100
100
100
100
100
100
100
100
100
390.258
370.838
351.611
332.7
314.223
296.29
279
262.44
246.683
231.791
217.807
204.765
192.68
181.556
171.384
162.144
153.806
146.331
139.674
133.785
128.608
124.088
120.167
116.788
113.895
111.434
109.355
107.61
106.154
104.947
103.954
103.142
102.481
101.948
101.521
101.18
100.91
100.698
100.532
100.403
100.304
100.227
100.169
100.125
100.092
100.067
100.049
100.035
100.025
100.018
100.013
100.009
100.006
100.004
100.003
100.002
100.001
100.001
100.001
100
100
100
100
100
100
100
100
100
100
100
100
100
100
100
100
390.258
370.838
351.611
332.701
314.224
296.291
279.001
262.441
246.684
231.792
217.809
204.766
192.681
181.557
171.385
162.146
153.807
146.332
139.675
133.786
128.609
124.089
120.168
116.789
113.895
111.435
109.355
107.61
106.154
104.947
103.954
103.142
102.482
101.949
101.521
101.18
100.91
100.698
100.532
100.403
100.304
100.227
100.169
100.125
100.092
100.067
100.049
100.035
100.025
100.018
100.013
100.009
100.006
100.004
100.003
100.002
100.001
100.001
100.001
100
100
100
100
100
100
100
100
100
100
100
100
100
100
100
100
390.258
370.839
351.612
332.701
314.225
296.292
279.002
262.441
246.685
231.793
217.809
204.767
192.682
181.558
171.386
162.146
153.808
146.333
139.676
133.786
128.609
124.089
120.168
116.789
113.896
111.435
109.356
107.61
106.154
104.948
103.954
103.142
102.482
101.949
101.521
101.18
100.91
100.698
100.532
100.403
100.304
100.227
100.169
100.125
100.092
100.067
100.049
100.035
100.025
100.018
100.013
100.009
100.006
100.004
100.003
100.002
100.001
100.001
100.001
100
100
100
100
100
100
100
100
100
100
100
100
100
100
100
100
390.258
370.839
351.612
332.701
314.225
296.292
279.002
262.442
246.686
231.793
217.81
204.768
192.683
181.559
171.387
162.147
153.809
146.334
139.676
133.787
128.61
124.089
120.168
116.789
113.896
111.435
109.356
107.61
106.154
104.948
103.954
103.142
102.482
101.949
101.521
101.18
100.91
100.698
100.532
100.403
100.304
100.227
100.169
100.125
100.092
100.067
100.049
100.035
100.025
100.018
100.013
100.009
100.006
100.004
100.003
100.002
100.001
100.001
100.001
100
100
100
100
100
100
100
100
100
100
100
100
100
100
100
100
390.258
370.839
351.612
332.701
314.225
296.292
279.002
262.442
246.686
231.794
217.81
204.768
192.683
181.559
171.387
162.147
153.809
146.334
139.677
133.787
128.61
124.09
120.169
116.789
113.896
111.435
109.356
107.61
106.154
104.948
103.954
103.142
102.482
101.949
101.521
101.18
100.91
100.698
100.532
100.403
100.304
100.227
100.169
100.125
100.092
100.067
100.049
100.035
100.025
100.018
100.013
100.009
100.006
100.004
100.003
100.002
100.001
100.001
100.001
100
100
100
100
100
100
100
100
100
100
100
100
100
100
100
100
390.258
370.839
351.612
332.702
314.225
296.293
279.003
262.443
246.686
231.794
217.811
204.768
192.683
181.559
171.388
162.148
153.809
146.334
139.677
133.787
128.61
124.09
120.169
116.789
113.896
111.435
109.356
107.61
106.154
104.948
103.954
103.142
102.482
101.949
101.521
101.18
100.91
100.698
100.532
100.403
100.304
100.227
100.169
100.125
100.092
100.067
100.049
100.035
100.025
100.018
100.013
100.009
100.006
100.004
100.003
100.002
100.001
100.001
100.001
100
100
100
100
100
100
100
100
100
100
100
100
100
100
100
100
390.258
370.839
351.612
332.702
314.225
296.293
279.003
262.443
246.686
231.794
217.811
204.768
192.684
181.56
171.388
162.148
153.809
146.334
139.677
133.787
128.61
124.09
120.169
116.79
113.896
111.436
109.356
107.61
106.154
104.948
103.954
103.142
102.482
101.949
101.521
101.18
100.91
100.698
100.532
100.403
100.304
100.227
100.169
100.125
100.092
100.067
100.049
100.035
100.025
100.018
100.013
100.009
100.006
100.004
100.003
100.002
100.001
100.001
100.001
100
100
100
100
100
100
100
100
100
100
100
100
100
100
100
100
390.258
370.839
351.612
332.702
314.226
296.293
279.003
262.443
246.687
231.794
217.811
204.769
192.684
181.56
171.388
162.148
153.81
146.334
139.677
133.787
128.61
124.09
120.169
116.79
113.896
111.436
109.356
107.61
106.154
104.948
103.955
103.142
102.482
101.949
101.521
101.18
100.91
100.698
100.532
100.403
100.304
100.227
100.169
100.125
100.092
100.067
100.049
100.035
100.025
100.018
100.013
100.009
100.006
100.004
100.003
100.002
100.001
100.001
100.001
100
100
100
100
100
100
100
100
100
100
100
100
100
100
100
100
390.258
370.839
351.612
332.702
314.226
296.293
279.003
262.443
246.687
231.794
217.811
204.769
192.684
181.56
171.388
162.148
153.81
146.335
139.677
133.787
128.61
124.09
120.169
116.79
113.896
111.436
109.356
107.61
106.154
104.948
103.955
103.142
102.482
101.949
101.521
101.18
100.91
100.698
100.532
100.403
100.304
100.227
100.169
100.125
100.092
100.067
100.049
100.035
100.025
100.018
100.013
100.009
100.006
100.004
100.003
100.002
100.001
100.001
100.001
100
100
100
100
100
100
100
100
100
100
100
100
100
100
100
100
390.258
370.839
351.612
332.702
314.226
296.293
279.003
262.443
246.687
231.794
217.811
204.769
192.684
181.56
171.388
162.148
153.81
146.335
139.677
133.787
128.611
124.09
120.169
116.79
113.897
111.436
109.356
107.61
106.154
104.948
103.955
103.142
102.482
101.949
101.521
101.18
100.91
100.698
100.532
100.403
100.304
100.227
100.169
100.125
100.092
100.067
100.049
100.035
100.025
100.018
100.013
100.009
100.006
100.004
100.003
100.002
100.001
100.001
100.001
100
100
100
100
100
100
100
100
100
100
100
100
100
100
100
100
390.258
370.839
351.612
332.702
314.226
296.293
279.003
262.443
246.687
231.794
217.811
204.769
192.684
181.56
171.388
162.148
153.81
146.335
139.677
133.787
128.611
124.09
120.169
116.79
113.897
111.436
109.356
107.61
106.154
104.948
103.955
103.142
102.482
101.949
101.521
101.18
100.91
100.698
100.532
100.403
100.304
100.227
100.169
100.125
100.092
100.067
100.049
100.035
100.025
100.018
100.013
100.009
100.006
100.004
100.003
100.002
100.001
100.001
100.001
100
100
100
100
100
100
100
100
100
100
100
100
100
100
100
100
390.258
370.839
351.612
332.702
314.226
296.293
279.003
262.443
246.687
231.794
217.811
204.769
192.684
181.56
171.388
162.148
153.81
146.335
139.677
133.787
128.611
124.09
120.169
116.79
113.897
111.436
109.356
107.61
106.154
104.948
103.955
103.142
102.482
101.949
101.521
101.18
100.91
100.698
100.532
100.403
100.304
100.227
100.169
100.125
100.092
100.067
100.049
100.035
100.025
100.018
100.013
100.009
100.006
100.004
100.003
100.002
100.001
100.001
100.001
100
100
100
100
100
100
100
100
100
100
100
100
100
100
100
100
390.258
370.839
351.612
332.702
314.226
296.293
279.003
262.443
246.687
231.794
217.811
204.769
192.684
181.56
171.388
162.148
153.81
146.335
139.677
133.787
128.611
124.09
120.169
116.79
113.897
111.436
109.356
107.61
106.154
104.948
103.955
103.142
102.482
101.949
101.521
101.18
100.91
100.698