/*--------------------------------*- C++ -*----------------------------------*\
  =========                 |
  \\      /  F ield         | OpenFOAM: The Open Source CFD Toolbox
   \\    /   O peration     | Website:  https://openfoam.org
    \\  /    A nd           | Version:  10
     \\/     M anipulation  |
\*---------------------------------------------------------------------------*/
FoamFile
{
    format      ascii;
    class       volScalarField;
    location    "244";
    object      gradTz;
}
// * * * * * * * * * * * * * * * * * * * * * * * * * * * * * * * * * * * * * //

dimensions      [0 -1 0 1 0 0 0];

internalField   nonuniform List<scalar> 
11250
(
-14356.5
-4151.86
-1531.29
-727.314
-422.068
-279.806
-201.699
-153.391
-120.839
-97.4666
-79.8576
-66.0924
-55.0274
-45.9476
-38.3872
-32.0306
-26.6555
-22.099
-18.2365
-14.9687
-12.2141
-9.90317
-7.97554
-6.37807
-5.06353
-3.98993
-3.11999
-2.42079
-1.86349
-1.42307
-1.078
-0.809989
-0.603651
-0.446192
-0.327095
-0.237811
-0.17147
-0.122613
-0.0869505
-0.0611497
-0.0426484
-0.0294982
-0.0202336
-0.0137638
-0.00928513
-0.0062119
-0.00412143
-0.00271179
-0.00176949
-0.00114503
-0.000734788
-0.000467599
-0.000295081
-0.000184653
-0.000114579
-7.04964e-05
-4.30058e-05
-2.60113e-05
-1.55973e-05
-9.27173e-06
-5.46348e-06
-3.19112e-06
-1.84739e-06
-1.05991e-06
-6.02597e-07
-3.39491e-07
-1.89533e-07
-1.04837e-07
-5.74438e-08
-3.11921e-08
-1.67979e-08
-9.02461e-09
-4.86684e-09
-2.766e-09
-1.91864e-09
-8273.66
-4870.92
-2776.74
-1682.71
-1102.78
-774.889
-574.999
-444.194
-353.191
-286.568
-235.731
-195.645
-163.221
-136.495
-114.167
-95.3467
-79.4024
-65.8663
-54.3787
-44.6515
-36.4458
-29.5578
-23.8096
-19.0442
-15.1215
-11.917
-9.31983
-7.23198
-5.5676
-4.25208
-3.22126
-2.42055
-1.80404
-1.33354
-0.977637
-0.710811
-0.512539
-0.366513
-0.25992
-0.1828
-0.127496
-0.0881861
-0.0604907
-0.0411493
-0.0277601
-0.0185723
-0.0123225
-0.00810799
-0.00529068
-0.00342364
-0.00219705
-0.00139816
-0.000882332
-0.000552145
-0.000342615
-0.000210802
-0.0001286
-7.77828e-05
-4.66419e-05
-2.77266e-05
-1.63385e-05
-9.5432e-06
-5.52472e-06
-3.16978e-06
-1.80227e-06
-1.01541e-06
-5.66838e-07
-3.13525e-07
-1.71827e-07
-9.33227e-08
-5.02369e-08
-2.69158e-08
-1.45566e-08
-8.3375e-09
-5.73286e-09
-5591.75
-4279.69
-3020.41
-2122.51
-1530.12
-1140.85
-878.311
-694.527
-560.728
-459.675
-380.863
-317.735
-266.089
-223.158
-187.063
-156.494
-130.501
-108.372
-89.5504
-73.5852
-60.0986
-48.765
-39.2984
-31.4444
-24.9754
-19.688
-15.4008
-11.9532
-9.20392
-7.03034
-5.32675
-4.00319
-2.98392
-2.20592
-1.61735
-1.17602
-0.84805
-0.606478
-0.430124
-0.30252
-0.211007
-0.145956
-0.100122
-0.068112
-0.0459515
-0.030744
-0.0203989
-0.0134226
-0.00875889
-0.00566812
-0.00363749
-0.0023149
-0.00146089
-0.000914222
-0.000567305
-0.000349058
-0.000212949
-0.000128804
-7.72387e-05
-4.59163e-05
-2.70581e-05
-1.5805e-05
-9.15011e-06
-5.25001e-06
-2.98514e-06
-1.68192e-06
-9.38949e-07
-5.19349e-07
-2.84628e-07
-1.5459e-07
-8.32422e-08
-4.4594e-08
-2.41245e-08
-1.38124e-08
-9.51964e-09
-4218.96
-3632.84
-2899.98
-2254.32
-1752.17
-1378.23
-1101.37
-893.768
-734.799
-610.198
-510.322
-428.678
-360.859
-303.833
-255.47
-214.237
-178.996
-148.874
-123.174
-101.32
-82.8222
-67.2525
-54.2306
-43.4152
-34.4992
-27.2063
-21.2893
-16.5284
-12.7302
-9.72613
-7.37083
-5.5404
-4.13042
-3.05396
-2.23942
-1.62855
-1.17451
-0.840026
-0.595815
-0.419092
-0.292339
-0.202229
-0.138734
-0.0943845
-0.0636799
-0.0426076
-0.0282719
-0.018604
-0.0121405
-0.00785682
-0.0050423
-0.00320905
-0.00202526
-0.00126745
-0.000786523
-0.00048396
-0.00029526
-0.000178598
-0.000107103
-6.36723e-05
-3.75232e-05
-2.19189e-05
-1.26903e-05
-7.28167e-06
-4.14055e-06
-2.33302e-06
-1.30253e-06
-7.20499e-07
-3.94878e-07
-2.14458e-07
-1.15492e-07
-6.19034e-08
-3.35081e-08
-1.91743e-08
-1.31945e-08
-3428.21
-3128.74
-2688.62
-2239.18
-1842.95
-1515.96
-1253.11
-1042.83
-873.503
-735.521
-621.567
-526.259
-445.689
-377.023
-318.182
-267.612
-224.121
-186.764
-154.767
-127.474
-104.316
-84.7839
-68.4211
-54.8126
-43.5813
-34.3858
-26.9192
-20.9073
-16.1083
-12.3108
-9.3321
-7.0163
-5.23185
-3.86908
-2.83763
-2.06391
-1.4887
-1.06489
-0.755395
-0.531399
-0.370717
-0.256472
-0.175961
-0.119721
-0.0807801
-0.054053
-0.0358688
-0.0236045
-0.0154046
-0.00996978
-0.00639868
-0.00407249
-0.00257032
-0.00160864
-0.000998302
-0.000614302
-0.0003748
-0.000226722
-0.000135969
-8.08381e-05
-4.76421e-05
-2.78314e-05
-1.61145e-05
-9.2471e-06
-5.25853e-06
-2.9632e-06
-1.65449e-06
-9.15255e-07
-5.01644e-07
-2.72476e-07
-1.46754e-07
-7.86575e-08
-4.25656e-08
-2.43715e-08
-1.67738e-08
-2931.76
-2760.27
-2481.82
-2166.47
-1860.62
-1586.28
-1349.66
-1149
-979.589
-836.211
-714.189
-609.69
-519.7
-441.887
-374.449
-315.974
-265.332
-221.591
-183.961
-151.75
-124.34
-101.168
-81.7186
-65.5173
-52.1283
-41.154
-32.2345
-25.0471
-19.3057
-14.7597
-11.192
-8.41711
-6.27802
-4.64383
-3.40656
-2.47819
-1.78783
-1.27906
-0.907456
-0.638455
-0.445456
-0.308214
-0.211482
-0.143903
-0.0971056
-0.0649825
-0.0431249
-0.0283817
-0.0185237
-0.0119892
-0.00769526
-0.00489803
-0.00309154
-0.00193496
-0.00120089
-0.000739006
-0.000450912
-0.000272781
-0.000163602
-9.72733e-05
-5.73322e-05
-3.34946e-05
-1.93951e-05
-1.11305e-05
-6.33011e-06
-3.56733e-06
-1.99198e-06
-1.10207e-06
-6.0411e-07
-3.28157e-07
-1.76771e-07
-9.4776e-08
-5.12785e-08
-2.93382e-08
-2.02247e-08
-2600.56
-2492.68
-2306.19
-2079.01
-1842.13
-1614.96
-1407.06
-1221.56
-1058.12
-914.817
-789.313
-679.322
-582.839
-498.18
-423.951
-358.99
-302.315
-253.075
-210.514
-173.942
-142.723
-116.265
-94.0094
-75.4381
-60.0679
-47.4539
-37.1909
-28.9133
-22.296
-17.0528
-12.9356
-9.73156
-7.26056
-5.37204
-3.9417
-2.86812
-2.06955
-1.48088
-1.05082
-0.739432
-0.515982
-0.357058
-0.245026
-0.166747
-0.112532
-0.0753134
-0.0499855
-0.0328997
-0.0214742
-0.0139
-0.00892235
-0.00567948
-0.00358503
-0.00224399
-0.00139277
-0.00085715
-0.000523036
-0.000316435
-0.000189798
-0.000112857
-6.65227e-05
-3.88671e-05
-2.2508e-05
-1.29182e-05
-7.34747e-06
-4.14114e-06
-2.31266e-06
-1.2796e-06
-7.01482e-07
-3.81086e-07
-2.05336e-07
-1.10137e-07
-5.95897e-08
-3.40997e-08
-2.35099e-08
-2370.01
-2296.65
-2164.58
-1995.16
-1808.53
-1619.78
-1438.38
-1269.35
-1114.72
-974.785
-848.955
-736.268
-635.67
-546.139
-466.736
-396.606
-334.968
-281.095
-234.302
-193.934
-159.364
-129.985
-105.219
-84.5136
-67.35
-53.2455
-41.7565
-32.4811
-25.0597
-19.1752
-14.5514
-10.9511
-8.17306
-6.04897
-4.43957
-3.23117
-2.33203
-1.66904
-1.18455
-0.833678
-0.58184
-0.40269
-0.276378
-0.188106
-0.126962
-0.0849796
-0.0564067
-0.0371296
-0.0242373
-0.0156899
-0.0100721
-0.00641188
-0.00404766
-0.00253376
-0.00157275
-0.000967984
-0.000590713
-0.000357408
-0.000214391
-0.000127492
-7.51553e-05
-4.3915e-05
-2.54337e-05
-1.45988e-05
-8.30426e-06
-4.68092e-06
-2.61441e-06
-1.44676e-06
-7.93208e-07
-4.30963e-07
-2.32256e-07
-1.24616e-07
-6.74574e-08
-3.86153e-08
-2.65854e-08
-2204.62
-2151.36
-2052.81
-1921.6
-1770.95
-1612.07
-1453.18
-1299.65
-1154.62
-1019.69
-895.488
-782.058
-679.148
-586.338
-503.134
-428.997
-363.367
-305.669
-255.312
-211.698
-174.224
-142.292
-115.311
-92.7112
-73.9467
-58.5051
-45.912
-35.7348
-27.5846
-21.1172
-16.0319
-12.0699
-9.01118
-6.67136
-4.89776
-3.56556
-2.57399
-1.8426
-1.30799
-0.920726
-0.642701
-0.444881
-0.305379
-0.207873
-0.140321
-0.0939324
-0.0623561
-0.0410501
-0.0267991
-0.0173499
-0.0111388
-0.00709152
-0.00447708
-0.0028028
-0.00173989
-0.00107094
-0.000653599
-0.00039549
-0.000237256
-0.000141101
-8.31859e-05
-4.86122e-05
-2.8157e-05
-1.61637e-05
-9.1955e-06
-5.1839e-06
-2.89571e-06
-1.60264e-06
-8.78805e-07
-4.7755e-07
-2.57384e-07
-1.38092e-07
-7.47851e-08
-4.28422e-08
-2.94985e-08
-2083.43
-2042.51
-1965.36
-1859.84
-1734.84
-1598.63
-1458
-1318.02
-1182.2
-1052.82
-931.283
-818.362
-714.424
-619.558
-533.662
-456.498
-387.727
-326.928
-273.62
-227.273
-187.324
-153.19
-124.284
-100.025
-79.8504
-63.2249
-49.65
-38.6678
-29.865
-22.8741
-17.3734
-13.085
-9.77256
-7.2374
-5.31489
-3.87029
-2.79466
-2.00103
-1.42075
-1.00029
-0.698365
-0.483492
-0.331933
-0.22598
-0.152564
-0.102141
-0.0678132
-0.0446475
-0.0291507
-0.0188741
-0.0121185
-0.00771598
-0.00487174
-0.00305014
-0.00189359
-0.00116565
-0.000711463
-0.000430541
-0.000258307
-0.000153635
-9.05841e-05
-5.2941e-05
-3.06677e-05
-1.7607e-05
-1.00178e-05
-5.64813e-06
-3.15543e-06
-1.74664e-06
-9.57929e-07
-5.20602e-07
-2.8062e-07
-1.50605e-07
-8.15738e-08
-4.67256e-08
-3.22304e-08
-1993.27
-1960.26
-1897.2
-1809.23
-1702.55
-1583.35
-1457.16
-1328.51
-1200.91
-1076.96
-958.501
-846.807
-742.701
-646.67
-558.945
-479.552
-408.356
-345.087
-289.374
-240.76
-198.729
-162.724
-132.167
-106.474
-85.0719
-67.4112
-52.9738
-41.2817
-31.9013
-24.4458
-18.5754
-13.996
-10.4568
-7.74668
-5.69062
-4.14504
-2.99381
-2.14412
-1.52268
-1.07227
-0.748753
-0.518464
-0.355999
-0.2424
-0.163672
-0.109592
-0.0727685
-0.0479155
-0.0312877
-0.0202599
-0.0130095
-0.00828407
-0.00523091
-0.00327531
-0.00203356
-0.00125192
-0.000764187
-0.000462489
-0.0002775
-0.000165067
-9.73339e-05
-5.68918e-05
-3.29599e-05
-1.89252e-05
-1.07691e-05
-6.07254e-06
-3.39298e-06
-1.87839e-06
-1.03033e-06
-5.60038e-07
-3.01957e-07
-1.62092e-07
-8.77721e-08
-5.02873e-08
-3.47187e-08
-1925.47
-1897.7
-1844.14
-1768.36
-1674.84
-1568.34
-1453.37
-1333.93
-1213.36
-1094.35
-979
-868.876
-765.131
-668.556
-579.647
-498.654
-425.62
-360.414
-302.769
-252.3
-208.542
-170.966
-139.01
-112.093
-89.6374
-71.0823
-55.8962
-43.5853
-33.6998
-25.8366
-19.6409
-14.8047
-11.065
-8.20003
-6.02547
-4.39017
-3.17167
-2.27204
-1.61387
-1.13671
-0.793899
-0.54982
-0.37759
-0.257139
-0.173648
-0.116287
-0.0772234
-0.0508547
-0.0332106
-0.0215072
-0.0138118
-0.0087958
-0.00555455
-0.00347827
-0.00215977
-0.00132974
-0.000811758
-0.000491324
-0.000294829
-0.000175391
-0.000103432
-6.04626e-05
-3.50325e-05
-2.01175e-05
-1.1449e-05
-6.45677e-06
-3.60814e-06
-1.99777e-06
-1.09598e-06
-5.95828e-07
-3.21309e-07
-1.72495e-07
-9.34468e-08
-5.35539e-08
-3.69414e-08
-1874.12
-1849.91
-1802.9
-1735.7
-1651.69
-1554.63
-1448.3
-1336.2
-1221.48
-1106.78
-994.317
-885.855
-782.761
-686.05
-596.425
-514.314
-439.911
-373.209
-314.03
-262.064
-216.889
-178.012
-144.885
-116.936
-93.5849
-74.266
-58.4375
-45.5934
-35.2709
-27.054
-20.5752
-15.5151
-11.6001
-8.59935
-6.32078
-4.6066
-3.32887
-2.3852
-1.69462
-1.19382
-0.83394
-0.577649
-0.396764
-0.270237
-0.182519
-0.122243
-0.0811886
-0.0534721
-0.0349236
-0.0226189
-0.0145272
-0.00925224
-0.00584332
-0.00365942
-0.00227245
-0.00139924
-0.000854262
-0.000517096
-0.000310322
-0.000184625
-0.000108889
-6.36587e-05
-3.68882e-05
-2.11856e-05
-1.20583e-05
-6.80119e-06
-3.80112e-06
-2.10492e-06
-1.15492e-06
-6.27989e-07
-3.38713e-07
-1.81863e-07
-9.85342e-08
-5.64603e-08
-3.89687e-08
-1835.05
-1813.3
-1770.87
-1709.77
-1632.67
-1542.65
-1442.92
-1336.61
-1226.63
-1115.58
-1005.68
-898.823
-796.509
-699.914
-609.895
-527.025
-451.621
-383.777
-323.399
-270.236
-223.914
-183.97
-149.874
-121.063
-96.9611
-76.9973
-60.6236
-47.3251
-36.6288
-28.1083
-21.3859
-16.1324
-12.0658
-8.94742
-6.57854
-4.79572
-3.46639
-2.4843
-1.76539
-1.24392
-0.869095
-0.602101
-0.413624
-0.281761
-0.190328
-0.127489
-0.0846831
-0.0557798
-0.0364347
-0.0236
-0.0151588
-0.00965536
-0.00609846
-0.00381954
-0.00237208
-0.00146071
-0.000891868
-0.000539906
-0.000324039
-0.000192804
-0.000113723
-6.64913e-05
-3.85336e-05
-2.21329e-05
-1.25989e-05
-7.10698e-06
-3.97255e-06
-2.20015e-06
-1.20734e-06
-6.56597e-07
-3.54193e-07
-1.90193e-07
-1.0304e-07
-5.90529e-08
-4.08193e-08
-1805.23
-1785.21
-1746.04
-1689.32
-1617.27
-1532.49
-1437.79
-1335.99
-1229.81
-1121.76
-1014.07
-908.665
-807.152
-710.812
-620.618
-537.25
-461.125
-392.421
-331.113
-277.005
-229.765
-188.955
-154.066
-124.545
-99.8183
-79.3158
-62.4844
-48.8028
-37.7902
-29.0119
-22.0819
-16.6634
-12.467
-9.24772
-6.8012
-4.95931
-3.58547
-2.5702
-1.8268
-1.28743
-0.899651
-0.62337
-0.428299
-0.291799
-0.197134
-0.132064
-0.0877323
-0.0577946
-0.0377546
-0.0244573
-0.0157109
-0.0100079
-0.00632169
-0.00395968
-0.00245932
-0.00151455
-0.000924815
-0.000559897
-0.000336065
-0.000199977
-0.000117964
-6.89774e-05
-3.99782e-05
-2.2965e-05
-1.3074e-05
-7.37582e-06
-4.1233e-06
-2.28393e-06
-1.25348e-06
-6.81775e-07
-3.67796e-07
-1.97513e-07
-1.07054e-07
-6.13952e-08
-4.24185e-08
-1782.45
-1763.67
-1726.83
-1673.28
-1604.93
-1524.05
-1433.16
-1334.85
-1231.68
-1126.06
-1020.22
-916.091
-815.338
-719.318
-629.085
-545.405
-468.769
-399.425
-337.405
-282.558
-234.588
-193.084
-157.552
-127.451
-102.211
-81.2636
-64.052
-50.0508
-38.7733
-29.7784
-22.6735
-17.1155
-12.8091
-9.50417
-6.99162
-5.09937
-3.68755
-2.64392
-1.87955
-1.32484
-0.925945
-0.641688
-0.440948
-0.300456
-0.203008
-0.136015
-0.090367
-0.0595363
-0.0388962
-0.0251991
-0.0161888
-0.0103133
-0.00651508
-0.00408113
-0.00253495
-0.00156125
-0.0009534
-0.000577247
-0.000346506
-0.000206206
-0.000121648
-7.11379e-05
-4.1234e-05
-2.36886e-05
-1.34872e-05
-7.60977e-06
-4.25455e-06
-2.35691e-06
-1.29369e-06
-7.03731e-07
-3.79713e-07
-2.03951e-07
-1.10529e-07
-6.33929e-08
-4.38487e-08
-1765.05
-1747.16
-1712
-1660.76
-1595.13
-1517.16
-1429.14
-1333.52
-1232.7
-1129.04
-1024.71
-921.665
-821.596
-725.911
-635.722
-551.856
-474.865
-405.05
-342.489
-287.071
-238.527
-196.47
-160.423
-129.853
-104.196
-82.8836
-65.3593
-51.0941
-39.597
-30.4219
-23.1712
-17.4965
-13.098
-9.72097
-7.15282
-5.2181
-3.77418
-2.70655
-1.92442
-1.35669
-0.948349
-0.657308
-0.451742
-0.30785
-0.208028
-0.139394
-0.0926211
-0.0610273
-0.0398739
-0.0258348
-0.0165986
-0.0105751
-0.006681
-0.00418537
-0.00259988
-0.00160135
-0.000977957
-0.000592157
-0.000355481
-0.000211562
-0.000124818
-7.29969e-05
-4.2315e-05
-2.43117e-05
-1.38432e-05
-7.81136e-06
-4.36771e-06
-2.41984e-06
-1.32837e-06
-7.22686e-07
-3.89982e-07
-2.09495e-07
-1.13568e-07
-6.51414e-08
-4.50649e-08
-1751.78
-1734.53
-1700.58
-1651.03
-1587.4
-1511.6
-1425.76
-1332.18
-1233.2
-1131.08
-1027.97
-925.828
-826.353
-730.988
-640.886
-556.92
-479.686
-409.528
-346.561
-290.703
-241.713
-199.221
-162.765
-131.818
-105.825
-84.2176
-66.4388
-51.9577
-40.2804
-30.9569
-23.5857
-17.8144
-13.3393
-9.90244
-7.28793
-5.31774
-3.84698
-2.75924
-1.9622
-1.38354
-0.967251
-0.670498
-0.460863
-0.314102
-0.212276
-0.142255
-0.0945311
-0.0622913
-0.0407032
-0.0263742
-0.0169464
-0.0107975
-0.00682197
-0.00427397
-0.00265508
-0.00163546
-0.00099885
-0.000604845
-0.000363121
-0.000216123
-0.000127517
-7.45808e-05
-4.32363e-05
-2.48429e-05
-1.41468e-05
-7.98333e-06
-4.46425e-06
-2.47356e-06
-1.35802e-06
-7.38902e-07
-3.98746e-07
-2.14229e-07
-1.16183e-07
-6.66506e-08
-4.60725e-08
-1741.68
-1724.89
-1691.83
-1643.51
-1581.37
-1507.17
-1422.97
-1330.95
-1233.37
-1132.46
-1030.33
-928.923
-829.949
-734.873
-644.877
-560.866
-483.47
-413.065
-349.794
-293.602
-244.267
-201.436
-164.656
-133.412
-107.15
-85.3055
-67.3214
-52.6656
-40.8418
-31.3974
-23.9276
-18.0771
-13.5391
-10.0528
-7.40008
-5.40056
-3.90755
-2.80312
-1.9937
-1.40594
-0.983044
-0.681527
-0.468497
-0.319339
-0.215836
-0.144654
-0.0961337
-0.0633525
-0.0413998
-0.0268275
-0.0172389
-0.0109845
-0.00694058
-0.00434854
-0.00270156
-0.00166418
-0.00101645
-0.000615537
-0.000369561
-0.000219969
-0.000129794
-7.59168e-05
-4.40136e-05
-2.52912e-05
-1.44031e-05
-8.12855e-06
-4.5458e-06
-2.51898e-06
-1.38307e-06
-7.5257e-07
-4.06181e-07
-2.18259e-07
-1.18387e-07
-6.79392e-08
-4.69374e-08
-1734.01
-1717.56
-1685.15
-1637.74
-1576.68
-1503.68
-1420.7
-1329.86
-1233.37
-1133.39
-1032.03
-931.212
-832.653
-737.828
-647.941
-563.918
-486.416
-415.835
-352.34
-295.896
-246.297
-203.202
-166.17
-134.692
-108.218
-86.1844
-68.0363
-53.2403
-41.2986
-31.7564
-24.2068
-18.292
-13.7028
-10.1763
-7.49225
-5.46871
-3.95746
-2.83933
-2.01972
-1.42447
-0.99611
-0.69066
-0.474824
-0.323682
-0.218791
-0.146646
-0.0974654
-0.0642349
-0.0419793
-0.0272048
-0.0174824
-0.0111403
-0.00703941
-0.00441069
-0.00274032
-0.00168814
-0.00103113
-0.000624459
-0.000374936
-0.000223179
-0.000131695
-7.70327e-05
-4.46629e-05
-2.56658e-05
-1.46173e-05
-8.24995e-06
-4.614e-06
-2.55692e-06
-1.40401e-06
-7.64033e-07
-4.12419e-07
-2.21644e-07
-1.20207e-07
-6.89995e-08
-4.76673e-08
-1728.21
-1712
-1680.07
-1633.32
-1573.06
-1500.95
-1418.88
-1328.94
-1233.26
-1134.01
-1033.25
-932.898
-834.675
-740.063
-650.277
-566.263
-488.693
-417.987
-354.328
-297.695
-247.895
-204.599
-167.372
-135.71
-109.069
-86.8877
-68.6098
-53.7024
-41.6666
-32.0463
-24.4327
-18.4661
-13.8356
-10.2766
-7.56728
-5.52426
-3.99819
-2.86891
-2.041
-1.43963
-1.00682
-0.698151
-0.480017
-0.327249
-0.22122
-0.148285
-0.0985615
-0.0649615
-0.0424567
-0.0275158
-0.0176832
-0.0112689
-0.00712097
-0.004462
-0.00277232
-0.00170793
-0.00104326
-0.000631831
-0.000379378
-0.000225832
-0.000133266
-7.79554e-05
-4.52e-05
-2.59757e-05
-1.47945e-05
-8.3504e-06
-4.67042e-06
-2.58835e-06
-1.42136e-06
-7.73539e-07
-4.17586e-07
-2.24394e-07
-1.21727e-07
-6.98842e-08
-4.82886e-08
-1723.84
-1707.81
-1676.22
-1629.95
-1570.29
-1498.83
-1417.45
-1328.17
-1233.12
-1134.42
-1034.12
-934.134
-836.18
-741.743
-652.048
-568.051
-490.441
-419.647
-355.868
-299.094
-249.143
-205.693
-168.316
-136.514
-109.743
-87.4454
-69.0656
-54.0705
-41.9605
-32.2782
-24.6137
-18.6059
-13.9425
-10.3574
-7.62778
-5.56911
-4.03112
-2.89285
-2.05824
-1.45193
-1.01551
-0.704237
-0.484239
-0.330152
-0.223197
-0.149621
-0.099455
-0.0655541
-0.0428464
-0.0277696
-0.0178472
-0.0113739
-0.00718763
-0.00450395
-0.00279849
-0.00172411
-0.00105319
-0.000637864
-0.000383014
-0.000228004
-0.000134553
-7.87108e-05
-4.56397e-05
-2.62294e-05
-1.49396e-05
-8.43265e-06
-4.71663e-06
-2.61409e-06
-1.43558e-06
-7.81332e-07
-4.21806e-07
-2.26695e-07
-1.22991e-07
-7.05889e-08
-4.87946e-08
-1720.56
-1704.66
-1673.33
-1627.41
-1568.18
-1497.21
-1416.33
-1327.55
-1232.96
-1134.68
-1034.74
-935.035
-837.293
-742.998
-653.381
-569.406
-491.771
-420.918
-357.052
-300.175
-250.11
-206.544
-169.053
-137.142
-110.271
-87.8836
-69.4247
-54.3611
-42.1929
-32.462
-24.7574
-18.7171
-14.0275
-10.4219
-7.6761
-5.60498
-4.05748
-2.91204
-2.07207
-1.46181
-1.0225
-0.709133
-0.487639
-0.332491
-0.224792
-0.150698
-0.100177
-0.0660329
-0.0431613
-0.0279749
-0.0179798
-0.0114589
-0.00724159
-0.00453792
-0.00281968
-0.00173722
-0.00106123
-0.000642752
-0.00038596
-0.000229765
-0.000135595
-7.9323e-05
-4.59961e-05
-2.6435e-05
-1.50572e-05
-8.49931e-06
-4.75411e-06
-2.63498e-06
-1.4471e-06
-7.8761e-07
-4.25227e-07
-2.28582e-07
-1.24012e-07
-7.11882e-08
-4.91777e-08
-1718.11
-1702.31
-1671.16
-1625.5
-1566.59
-1495.97
-1415.46
-1327.05
-1232.82
-1134.85
-1035.17
-935.69
-838.113
-743.93
-654.378
-570.425
-492.777
-421.883
-357.955
-301.001
-250.853
-207.199
-169.622
-137.628
-110.682
-88.225
-69.705
-54.5884
-42.3751
-32.6063
-24.8705
-18.8047
-14.0947
-10.4728
-7.71433
-5.6334
-4.07839
-2.92727
-2.08307
-1.46967
-1.02806
-0.713036
-0.490351
-0.334359
-0.226066
-0.151559
-0.100754
-0.0664161
-0.0434134
-0.0281394
-0.0180861
-0.011527
-0.00728486
-0.00456515
-0.00283668
-0.00174774
-0.00106768
-0.000646674
-0.000388324
-0.000231177
-0.000136432
-7.98143e-05
-4.6282e-05
-2.66e-05
-1.51516e-05
-8.55285e-06
-4.78421e-06
-2.6517e-06
-1.45631e-06
-7.92673e-07
-4.27986e-07
-2.30056e-07
-1.24823e-07
-7.16536e-08
-4.95113e-08
-1716.29
-1700.56
-1669.54
-1624.07
-1565.39
-1495.03
-1414.8
-1326.66
-1232.69
-1134.95
-1035.48
-936.163
-838.713
-744.619
-655.119
-571.187
-493.533
-422.61
-358.638
-301.629
-251.419
-207.7
-170.058
-138.002
-110.998
-88.4884
-69.9218
-54.7646
-42.5165
-32.7186
-24.9586
-18.873
-14.1472
-10.5127
-7.7443
-5.6557
-4.09482
-2.93926
-2.09173
-1.47586
-1.03245
-0.716119
-0.492494
-0.335835
-0.227074
-0.152242
-0.101211
-0.0667198
-0.0436134
-0.0282699
-0.0181705
-0.0115811
-0.00731922
-0.00458679
-0.00285019
-0.0017561
-0.0010728
-0.00064979
-0.000390202
-0.000232299
-0.000137097
-8.02046e-05
-4.65092e-05
-2.67311e-05
-1.52266e-05
-8.59535e-06
-4.80807e-06
-2.665e-06
-1.46367e-06
-7.96682e-07
-4.30151e-07
-2.31212e-07
-1.25443e-07
-7.20344e-08
-4.98143e-08
-1714.95
-1699.27
-1668.34
-1623.01
-1564.5
-1494.33
-1414.3
-1326.36
-1232.58
-1135.02
-1035.7
-936.503
-839.15
-745.124
-655.666
-571.753
-494.096
-423.155
-359.151
-302.102
-251.846
-208.079
-170.389
-138.287
-111.239
-88.6901
-70.088
-54.9
-42.6254
-32.8052
-25.0266
-18.9259
-14.1878
-10.5436
-7.76758
-5.67304
-4.10761
-2.9486
-2.09848
-1.4807
-1.03588
-0.71853
-0.494173
-0.336993
-0.227865
-0.152777
-0.10157
-0.0669583
-0.0437705
-0.0283724
-0.0182369
-0.0116236
-0.00734624
-0.00460381
-0.00286082
-0.00176267
-0.00107684
-0.000652243
-0.00039168
-0.000233183
-0.00013762
-8.05116e-05
-4.66879e-05
-2.68341e-05
-1.52855e-05
-8.62872e-06
-4.82682e-06
-2.67544e-06
-1.46943e-06
-7.99829e-07
-4.31837e-07
-2.32142e-07
-1.25976e-07
-7.23462e-08
-5.00162e-08
-1713.96
-1698.32
-1667.46
-1622.23
-1563.83
-1493.8
-1413.92
-1326.13
-1232.48
-1135.05
-1035.85
-936.746
-839.466
-745.493
-656.068
-572.17
-494.513
-423.559
-359.534
-302.456
-252.167
-208.365
-170.639
-138.502
-111.422
-88.843
-70.2144
-55.0031
-42.7085
-32.8713
-25.0787
-18.9664
-14.219
-10.5674
-7.7855
-5.68641
-4.11748
-2.95582
-2.10371
-1.48444
-1.03854
-0.720399
-0.495474
-0.337891
-0.228479
-0.153192
-0.101849
-0.0671439
-0.0438928
-0.0284523
-0.0182885
-0.0116567
-0.0073673
-0.00461708
-0.0028691
-0.0017678
-0.00107998
-0.000654154
-0.000392832
-0.000233871
-0.000138027
-8.07507e-05
-4.6827e-05
-2.69144e-05
-1.53313e-05
-8.6547e-06
-4.8414e-06
-2.68354e-06
-1.47391e-06
-8.02298e-07
-4.33173e-07
-2.32857e-07
-1.26371e-07
-7.25591e-08
-5.01743e-08
-1713.24
-1697.62
-1666.81
-1621.65
-1563.35
-1493.42
-1413.64
-1325.95
-1232.41
-1135.07
-1035.95
-936.92
-839.694
-745.76
-656.361
-572.475
-494.82
-423.857
-359.817
-302.718
-252.405
-208.577
-170.826
-138.664
-111.559
-88.9581
-70.3097
-55.081
-42.7714
-32.9215
-25.1182
-18.9972
-14.2428
-10.5855
-7.79916
-5.69661
-4.12503
-2.96134
-2.10771
-1.48731
-1.04058
-0.721834
-0.496475
-0.338582
-0.228952
-0.153513
-0.102064
-0.067287
-0.0439871
-0.0285139
-0.0183284
-0.0116823
-0.00738356
-0.00462732
-0.00287549
-0.00177175
-0.00108241
-0.000655629
-0.000393721
-0.000234401
-0.000138341
-8.09351e-05
-4.69342e-05
-2.69762e-05
-1.53666e-05
-8.67471e-06
-4.85263e-06
-2.68978e-06
-1.47735e-06
-8.04182e-07
-4.34202e-07
-2.33406e-07
-1.26639e-07
-7.27128e-08
-5.03302e-08
-1712.72
-1697.12
-1666.35
-1621.24
-1562.99
-1493.13
-1413.43
-1325.82
-1232.35
-1135.08
-1036.02
-937.042
-839.857
-745.953
-656.573
-572.697
-495.043
-424.076
-360.025
-302.912
-252.581
-208.735
-170.964
-138.783
-111.661
-89.0439
-70.3808
-55.1392
-42.8185
-32.9591
-25.1479
-19.0204
-14.2607
-10.5991
-7.80949
-5.70434
-4.13074
-2.96553
-2.11074
-1.48949
-1.04213
-0.722926
-0.497237
-0.339108
-0.229312
-0.153757
-0.102228
-0.0673962
-0.0440591
-0.0285609
-0.0183589
-0.0117019
-0.00739599
-0.00463515
-0.00288038
-0.00177478
-0.00108426
-0.000656757
-0.0003944
-0.000234807
-0.000138581
-8.10758e-05
-4.7016e-05
-2.70233e-05
-1.53936e-05
-8.68996e-06
-4.86116e-06
-2.69452e-06
-1.47996e-06
-8.05623e-07
-4.35012e-07
-2.33829e-07
-1.2686e-07
-7.28577e-08
-5.03894e-08
-1712.34
-1696.75
-1666.01
-1620.93
-1562.73
-1492.92
-1413.27
-1325.72
-1232.31
-1135.09
-1036.07
-937.128
-839.973
-746.091
-656.725
-572.857
-495.205
-424.234
-360.176
-303.053
-252.71
-208.85
-171.066
-138.872
-111.736
-89.1074
-70.4336
-55.1824
-42.8535
-32.9871
-25.17
-19.0377
-14.2741
-10.6094
-7.81723
-5.71013
-4.13503
-2.96867
-2.11303
-1.49114
-1.0433
-0.72375
-0.497812
-0.339506
-0.229584
-0.153942
-0.102352
-0.0674789
-0.0441136
-0.0285966
-0.018382
-0.0117167
-0.00740541
-0.00464108
-0.00288409
-0.00177707
-0.00108567
-0.000657611
-0.000394914
-0.000235114
-0.000138763
-8.11822e-05
-4.70778e-05
-2.70589e-05
-1.54139e-05
-8.70146e-06
-4.8676e-06
-2.69811e-06
-1.48194e-06
-8.06703e-07
-4.35586e-07
-2.34127e-07
-1.27046e-07
-7.29652e-08
-5.04487e-08
-1712.07
-1696.49
-1665.76
-1620.72
-1562.55
-1492.77
-1413.16
-1325.65
-1232.27
-1135.09
-1036.1
-937.189
-840.055
-746.189
-656.834
-572.972
-495.322
-424.349
-360.285
-303.155
-252.804
-208.934
-171.14
-138.936
-111.791
-89.1539
-70.4723
-55.2142
-42.8793
-33.0078
-25.1864
-19.0505
-14.284
-10.617
-7.82298
-5.71443
-4.13823
-2.97101
-2.11473
-1.49236
-1.04417
-0.724365
-0.498242
-0.339803
-0.229788
-0.15408
-0.102445
-0.0675409
-0.0441545
-0.0286233
-0.0183993
-0.0117278
-0.00741247
-0.00464554
-0.00288687
-0.00177879
-0.00108672
-0.000658251
-0.0003953
-0.000235344
-0.000138899
-8.12619e-05
-4.71241e-05
-2.70855e-05
-1.54291e-05
-8.71004e-06
-4.87243e-06
-2.7008e-06
-1.48339e-06
-8.07468e-07
-4.36007e-07
-2.34376e-07
-1.27184e-07
-7.30355e-08
-5.05014e-08
-1711.88
-1696.31
-1665.59
-1620.56
-1562.41
-1492.67
-1413.08
-1325.6
-1232.25
-1135.09
-1036.13
-937.231
-840.112
-746.258
-656.912
-573.054
-495.405
-424.431
-360.364
-303.229
-252.871
-208.995
-171.194
-138.983
-111.832
-89.1878
-70.5005
-55.2375
-42.8981
-33.0229
-25.1984
-19.0599
-14.2912
-10.6225
-7.8272
-5.71761
-4.14058
-2.97274
-2.11599
-1.49327
-1.04482
-0.724821
-0.49856
-0.340024
-0.229939
-0.154183
-0.102514
-0.0675869
-0.0441849
-0.0286432
-0.0184121
-0.0117361
-0.00741773
-0.00464885
-0.00288893
-0.00178007
-0.00108751
-0.000658727
-0.000395586
-0.000235514
-0.000138999
-8.1321e-05
-4.71584e-05
-2.71053e-05
-1.54403e-05
-8.7164e-06
-4.87597e-06
-2.70276e-06
-1.48447e-06
-8.08066e-07
-4.36334e-07
-2.34575e-07
-1.27275e-07
-7.30453e-08
-5.05354e-08
-1711.74
-1696.17
-1665.47
-1620.45
-1562.32
-1492.59
-1413.02
-1325.56
-1232.23
-1135.09
-1036.14
-937.26
-840.152
-746.307
-656.966
-573.112
-495.464
-424.489
-360.42
-303.281
-252.919
-209.039
-171.232
-139.016
-111.86
-89.2122
-70.5209
-55.2542
-42.9118
-33.0338
-25.2071
-19.0668
-14.2965
-10.6266
-7.83029
-5.71992
-4.1423
-2.97401
-2.11691
-1.49393
-1.04529
-0.725155
-0.498794
-0.340186
-0.23005
-0.154258
-0.102565
-0.0676208
-0.0442073
-0.0286578
-0.0184216
-0.0117421
-0.0074216
-0.00465129
-0.00289046
-0.00178101
-0.00108808
-0.000659077
-0.000395796
-0.00023564
-0.000139074
-8.13644e-05
-4.71836e-05
-2.71197e-05
-1.54486e-05
-8.72103e-06
-4.87855e-06
-2.70418e-06
-1.48528e-06
-8.08514e-07
-4.36565e-07
-2.3469e-07
-1.27349e-07
-7.31035e-08
-5.05288e-08
-1711.64
-1696.08
-1665.38
-1620.37
-1562.25
-1492.54
-1412.98
-1325.53
-1232.22
-1135.09
-1036.15
-937.28
-840.18
-746.341
-657.004
-573.153
-495.506
-424.53
-360.46
-303.318
-252.954
-209.07
-171.26
-139.04
-111.881
-89.2296
-70.5355
-55.2663
-42.9216
-33.0417
-25.2134
-19.0717
-14.3004
-10.6295
-7.83252
-5.7216
-4.14355
-2.97493
-2.11758
-1.49441
-1.04563
-0.725399
-0.498964
-0.340304
-0.230131
-0.154313
-0.102602
-0.0676455
-0.0442236
-0.0286685
-0.0184286
-0.0117466
-0.00742443
-0.00465307
-0.00289157
-0.0017817
-0.0010885
-0.000659332
-0.00039595
-0.000235731
-0.000139128
-8.13959e-05
-4.72019e-05
-2.71302e-05
-1.54545e-05
-8.7244e-06
-4.88044e-06
-2.70523e-06
-1.48585e-06
-8.08821e-07
-4.36743e-07
-2.34778e-07
-1.27384e-07
-7.3143e-08
-5.05541e-08
-1711.58
-1696.02
-1665.32
-1620.32
-1562.21
-1492.5
-1412.95
-1325.51
-1232.21
-1135.09
-1036.16
-937.293
-840.2
-746.365
-657.031
-573.181
-495.535
-424.559
-360.487
-303.344
-252.978
-209.091
-171.279
-139.057
-111.896
-89.242
-70.5458
-55.2748
-42.9285
-33.0473
-25.2178
-19.0752
-14.3031
-10.6316
-7.83412
-5.7228
-4.14444
-2.97559
-2.11806
-1.49476
-1.04588
-0.725574
-0.499087
-0.340389
-0.23019
-0.154353
-0.102629
-0.0676634
-0.0442355
-0.0286762
-0.0184336
-0.0117498
-0.00742647
-0.00465436
-0.00289237
-0.00178219
-0.00108881
-0.000659516
-0.000396061
-0.000235797
-0.000139166
-8.14187e-05
-4.7215e-05
-2.71378e-05
-1.54588e-05
-8.72681e-06
-4.88179e-06
-2.70598e-06
-1.48625e-06
-8.09013e-07
-4.36835e-07
-2.34871e-07
-1.2745e-07
-7.31606e-08
-5.05639e-08
-1711.53
-1695.97
-1665.28
-1620.28
-1562.17
-1492.47
-1412.93
-1325.5
-1232.2
-1135.09
-1036.16
-937.303
-840.213
-746.381
-657.049
-573.201
-495.555
-424.579
-360.507
-303.363
-252.995
-209.107
-171.293
-139.069
-111.906
-89.2507
-70.5531
-55.2809
-42.9335
-33.0513
-25.221
-19.0777
-14.305
-10.6331
-7.83525
-5.72366
-4.14508
-2.97606
-2.1184
-1.49501
-1.04606
-0.725699
-0.499175
-0.34045
-0.230232
-0.154382
-0.102648
-0.0676762
-0.0442439
-0.0286818
-0.0184372
-0.0117521
-0.00742794
-0.00465528
-0.00289295
-0.00178255
-0.00108902
-0.000659648
-0.00039614
-0.000235844
-0.000139194
-8.14349e-05
-4.72244e-05
-2.71432e-05
-1.54619e-05
-8.7285e-06
-4.88276e-06
-2.70653e-06
-1.48655e-06
-8.09187e-07
-4.36922e-07
-2.34896e-07
-1.27477e-07
-7.31683e-08
-5.05705e-08
-1711.5
-1695.94
-1665.25
-1620.25
-1562.15
-1492.45
-1412.92
-1325.49
-1232.19
-1135.09
-1036.17
-937.309
-840.222
-746.392
-657.062
-573.214
-495.569
-424.593
-360.52
-303.375
-253.006
-209.117
-171.302
-139.077
-111.913
-89.2568
-70.5583
-55.2851
-42.9369
-33.0541
-25.2232
-19.0794
-14.3064
-10.6342
-7.83605
-5.72426
-4.14553
-2.97639
-2.11864
-1.49518
-1.04619
-0.725788
-0.499237
-0.340493
-0.230261
-0.154402
-0.102662
-0.0676853
-0.0442499
-0.0286857
-0.0184397
-0.0117537
-0.00742898
-0.00465593
-0.00289335
-0.0017828
-0.00108918
-0.000659742
-0.000396196
-0.000235878
-0.000139214
-8.14463e-05
-4.7231e-05
-2.7147e-05
-1.5464e-05
-8.72973e-06
-4.88341e-06
-2.70688e-06
-1.48675e-06
-8.09313e-07
-4.36994e-07
-2.34932e-07
-1.27499e-07
-7.31716e-08
-5.05683e-08
-1711.48
-1695.92
-1665.23
-1620.24
-1562.14
-1492.44
-1412.91
-1325.48
-1232.19
-1135.09
-1036.17
-937.313
-840.228
-746.399
-657.07
-573.223
-495.578
-424.602
-360.529
-303.384
-253.014
-209.125
-171.309
-139.083
-111.918
-89.261
-70.5618
-55.288
-42.9393
-33.056
-25.2248
-19.0807
-14.3074
-10.6349
-7.83661
-5.72468
-4.14585
-2.97662
-2.11881
-1.49531
-1.04627
-0.725851
-0.499281
-0.340523
-0.230282
-0.154416
-0.102671
-0.0676917
-0.0442542
-0.0286885
-0.0184415
-0.0117549
-0.00742971
-0.00465639
-0.00289364
-0.00178298
-0.00108929
-0.000659808
-0.000396235
-0.000235901
-0.000139228
-8.14544e-05
-4.72357e-05
-2.71496e-05
-1.54655e-05
-8.73057e-06
-4.88386e-06
-2.70711e-06
-1.48687e-06