/*--------------------------------*- C++ -*----------------------------------*\
  =========                 |
  \\      /  F ield         | OpenFOAM: The Open Source CFD Toolbox
   \\    /   O peration     | Website:  https://openfoam.org
    \\  /    A nd           | Version:  10
     \\/     M anipulation  |
\*---------------------------------------------------------------------------*/
FoamFile
{
    format      ascii;
    class       volScalarField;
    location    "80";
    object      gradTx;
}
// * * * * * * * * * * * * * * * * * * * * * * * * * * * * * * * * * * * * * //

dimensions      [0 -1 0 1 0 0 0];

internalField   nonuniform List<scalar> 
11250
(
14224.1
7880.58
4950.7
3349.73
2356.06
1685.38
1209.98
864.664
611.761
427.001
293.301
197.916
131.034
85.0421
54.0694
33.6618
20.5144
12.2356
7.14154
4.07886
2.27967
1.24686
0.667451
0.349726
0.179395
0.0901036
0.0443202
0.0213538
0.0100799
0.00466268
0.00211403
0.000939687
0.00040959
0.00017511
7.34463e-05
3.02292e-05
1.22118e-05
4.84318e-06
1.88617e-06
7.21468e-07
2.71112e-07
1.00125e-07
3.63114e-08
1.29288e-08
4.50023e-09
1.55532e-09
5.14783e-10
1.48178e-10
4.17095e-11
0
1.09762e-12
0
1.4269e-11
0
1.09762e-12
0
1.09762e-12
-2.19524e-12
0
2.19524e-12
0
1.09762e-12
0
-2.19524e-11
9.87856e-12
-1.09762e-12
-1.09762e-12
0
1.09762e-12
0
-5.48809e-12
0
-7.68332e-12
0
-9.87856e-12
4021.22
4483.25
3647.4
2775.34
2070.85
1530.17
1119.89
810.102
577.865
405.663
279.812
189.406
125.703
81.7376
52.0476
32.4433
19.792
11.8149
6.90096
3.94389
2.20541
1.2068
0.646269
0.338749
0.17382
0.087328
0.0429659
0.0207061
0.00977621
0.00452308
0.0020511
0.000911864
0.000397524
0.000169976
7.13023e-05
2.93504e-05
1.18582e-05
4.7035e-06
1.83195e-06
7.00817e-07
2.63367e-07
9.72621e-08
3.52939e-08
1.25765e-08
4.40803e-09
1.51032e-09
5.04904e-10
1.74521e-10
4.82952e-11
7.68332e-12
-1.75619e-11
0
-1.4269e-11
8.78094e-12
-1.31714e-11
-6.5857e-12
-1.4269e-11
0
-4.39047e-12
0
0
-1.09762e-12
0
2.41476e-11
5.48809e-12
0
-1.09762e-12
1.09762e-12
-1.09762e-12
0
-8.78094e-12
0
8.78094e-12
2.19523e-12
0
1404.22
2399.62
2405.18
2065.39
1658.58
1283.53
968.16
714.798
517.232
366.876
255.013
173.635
115.764
75.5476
48.2467
30.146
18.427
11.0183
6.44475
3.6876
2.06424
1.13057
0.605926
0.317824
0.163184
0.0820299
0.0403793
0.0194683
0.00919554
0.00425601
0.00193065
0.000858584
0.000374405
0.000160134
6.71909e-05
2.76646e-05
1.11796e-05
4.43527e-06
1.72782e-06
6.61098e-07
2.48494e-07
9.17751e-08
3.33215e-08
1.19015e-08
4.1907e-09
1.44556e-09
4.91733e-10
1.76716e-10
5.26856e-11
8.78094e-12
1.09762e-12
-1.09762e-12
4.39047e-12
8.78094e-12
0
-2.19523e-12
0
4.39047e-12
0
-2.19524e-12
0
0
0
-1.4269e-11
-1.09762e-11
2.19524e-12
3.29285e-12
2.19523e-12
0
0
3.29285e-12
8.78094e-12
0
-1.09762e-12
8.78094e-12
605.372
1320.77
1531.87
1452.72
1249.28
1014.07
791.174
598.5
440.876
316.924
222.551
152.74
102.474
67.213
43.1006
27.0219
16.5641
9.92802
5.81881
3.33524
1.86981
1.02543
0.550206
0.288892
0.148463
0.0746903
0.0367931
0.017751
0.00838937
0.003885
0.00176323
0.000784491
0.000342241
0.000146435
6.14655e-05
2.5316e-05
1.02338e-05
4.0613e-06
1.58262e-06
6.05721e-07
2.27745e-07
8.41104e-08
3.05467e-08
1.09191e-08
3.83727e-09
1.31385e-09
4.54414e-10
1.47081e-10
4.60999e-11
-1.09762e-12
1.53666e-11
0
1.09762e-12
-8.78094e-12
1.31714e-11
5.48809e-12
1.4269e-11
-4.39047e-12
5.48809e-12
6.58571e-12
0
-2.19523e-12
0
-1.09762e-12
-4.39047e-12
3.29285e-12
0
1.09762e-12
0
2.19524e-12
5.48809e-12
0
-1.09762e-12
-1.09762e-12
-5.48809e-12
306.59
759.954
970.461
992.157
903.693
766.17
617.761
479.154
359.798
262.519
186.515
129.204
87.3352
57.6339
37.1444
23.3854
14.3856
8.64807
5.08162
2.91913
1.63967
0.900728
0.484011
0.254468
0.130925
0.0659359
0.0325112
0.0156985
0.00742509
0.00344088
0.00156268
0.000695678
0.000303663
0.000129995
5.45911e-05
2.24947e-05
9.09718e-06
3.61163e-06
1.40792e-06
5.39053e-07
2.02746e-07
7.4897e-08
2.7211e-08
9.70952e-09
3.40042e-09
1.15579e-09
3.74288e-10
1.22933e-10
4.50023e-11
1.53666e-11
8.78094e-12
1.09762e-12
-5.48809e-12
-9.87856e-12
0
5.48809e-12
1.09762e-12
-8.78094e-12
-5.48809e-12
0
0
0
0
1.86595e-11
0
-1.09762e-12
-1.09762e-12
-3.29285e-12
0
-1.09762e-12
-9.87856e-12
-1.20738e-11
-7.68332e-12
-1.09762e-12
-1.09762e-12
171.84
454.288
617.216
666.639
635.726
559.456
464.763
369.173
282.534
209.312
150.553
105.342
71.7933
47.701
30.9179
19.5587
12.0805
7.28762
4.29505
2.4737
1.39263
0.766545
0.412633
0.217281
0.111949
0.05645
0.0278655
0.0134691
0.0063766
0.00295753
0.00134422
0.000598859
0.000261577
0.000112049
4.7082e-05
1.94111e-05
7.85416e-06
3.11967e-06
1.21668e-06
4.66007e-07
1.75322e-07
6.48143e-08
2.35329e-08
8.3836e-09
2.92844e-09
1.0131e-09
3.29285e-10
9.7688e-11
1.64643e-11
1.09762e-11
-6.58571e-12
-1.09762e-12
0
-3.29285e-12
-1.09762e-12
0
-1.09762e-12
2.19524e-12
1.09762e-12
-6.58571e-12
1.09762e-12
2.19523e-12
1.09762e-12
0
-1.09762e-12
-4.39047e-12
0
0
0
-2.19524e-12
4.39047e-12
1.09762e-12
-4.39047e-12
0
0
101.99
278.83
394.308
443.097
437.956
397.513
338.944
275.129
214.369
161.184
117.369
82.9657
57.0284
38.1641
24.8873
15.8255
9.81816
5.94559
3.51578
2.03078
1.14619
0.632323
0.341063
0.179915
0.0928451
0.0468846
0.0231739
0.0112146
0.00531503
0.00246761
0.00112257
0.000500536
0.000218801
9.37938e-05
3.94382e-05
1.62701e-05
6.58719e-06
2.61791e-06
1.02153e-06
3.91466e-07
1.47353e-07
5.45187e-08
1.97966e-08
7.04012e-09
2.44659e-09
8.48458e-10
2.86478e-10
7.68332e-11
5.48809e-12
-9.87856e-12
-8.78094e-12
0
0
-1.09762e-12
0
-9.87856e-12
-1.09762e-12
-7.68332e-12
4.39047e-12
-4.39047e-12
0
-2.19523e-12
1.09762e-12
-5.48809e-12
2.19523e-12
2.19524e-12
0
0
-1.20738e-11
1.09762e-12
1.31714e-11
2.19524e-12
0
-7.68332e-12
0
62.3797
173.776
252.329
291.792
296.501
275.989
240.606
199.085
157.682
120.224
88.5834
63.2496
43.8492
29.5594
19.3972
12.4012
7.72978
4.70003
2.78917
1.61613
0.914687
0.505849
0.273444
0.144529
0.0747159
0.0377901
0.0187059
0.00906438
0.00430114
0.00199912
0.000910377
0.000406306
0.000177767
7.62662e-05
3.2093e-05
1.32494e-05
5.36787e-06
2.13469e-06
8.33473e-07
3.19579e-07
1.20372e-07
4.45391e-08
1.61932e-08
5.76908e-09
1.99986e-09
6.68449e-10
2.18426e-10
9.11023e-11
2.63428e-11
-1.53666e-11
4.39047e-12
0
0
4.39047e-12
1.09762e-12
4.39047e-12
2.305e-11
3.29285e-12
-3.29285e-12
0
0
0
-3.29285e-12
0
0
0
7.68332e-12
-1.09762e-12
0
1.09762e-12
-1.09762e-12
0
6.5857e-12
0
4.39047e-12
38.6856
109.008
161.158
190.307
197.561
187.682
166.704
140.255
112.728
87.0554
64.8603
46.7582
32.6871
22.1945
14.6559
9.42138
5.90063
3.60295
2.14607
1.24759
0.708169
0.392662
0.212756
0.112689
0.058367
0.0295721
0.014661
0.00711458
0.0033804
0.00157308
0.000717168
0.000320409
0.000140322
6.02559e-05
2.53774e-05
1.04853e-05
4.25125e-06
1.69186e-06
6.61027e-07
2.53605e-07
9.55707e-08
3.53641e-08
1.28553e-08
4.61438e-09
1.62118e-09
5.56492e-10
1.8879e-10
8.12237e-11
3.07333e-11
-4.39047e-12
-2.19524e-12
0
-1.09762e-12
-3.29285e-12
0
8.78094e-12
1.4269e-11
1.4269e-11
-4.39047e-12
4.39047e-12
-1.09762e-12
2.19523e-12
8.78094e-12
0
-1.09762e-12
0
1.4269e-11
2.19523e-12
1.31714e-11
-1.09762e-12
2.19523e-12
5.48809e-12
6.58571e-12
8.78094e-12
2.19524e-12
24.0838
68.3731
102.371
122.783
129.602
125.168
112.926
96.3839
78.478
61.3105
46.1494
33.5713
23.6559
16.175
10.747
6.94617
4.37133
2.68053
1.60268
0.934847
0.532252
0.295921
0.160731
0.0853217
0.0442809
0.0224763
0.0111618
0.00542479
0.00258116
0.00120271
0.000548981
0.000245544
0.000107648
4.62706e-05
1.95053e-05
8.06611e-06
3.27309e-06
1.30359e-06
5.09705e-07
1.95704e-07
7.37939e-08
2.7334e-08
9.97515e-09
3.59689e-09
1.29848e-09
4.64292e-10
1.64643e-10
3.51238e-11
1.97571e-11
1.97571e-11
0
-1.09762e-12
0
0
0
-5.48809e-12
-1.97571e-11
-1.09762e-12
2.19523e-12
-1.09762e-12
-1.09762e-12
0
1.09762e-12
-1.09762e-12
-1.09762e-12
-1.09762e-12
-6.58571e-12
0
-1.09762e-12
0
1.09762e-12
0
-6.58571e-12
0
1.09762e-12
14.9534
42.6731
64.4826
78.2561
83.687
81.9116
74.8696
64.6932
53.277
42.0556
31.9531
23.4397
16.6408
11.4545
7.65595
4.97461
3.14544
1.93698
1.16251
0.680408
0.388578
0.216641
0.117965
0.0627631
0.0326411
0.0165997
0.00825782
0.00401988
0.00191553
0.000893786
0.000408492
0.000182925
8.02845e-05
3.45451e-05
1.45768e-05
6.03362e-06
2.4505e-06
9.76791e-07
3.82252e-07
1.46913e-07
5.54582e-08
2.05672e-08
7.52527e-09
2.71551e-09
9.85661e-10
3.33676e-10
1.09762e-10
1.09762e-11
-3.29285e-12
2.305e-11
2.19523e-12
0
2.19523e-12
4.39047e-12
2.19523e-12
1.09762e-12
-1.4269e-11
0
4.39047e-12
-1.09762e-12
3.29285e-12
1.4269e-11
-8.78094e-12
0
0
-9.87856e-12
-3.7319e-11
-1.09762e-12
0
0
-3.29285e-12
-5.48809e-12
0
-2.19523e-12
-3.29285e-12
9.2183
26.406
40.1771
49.2032
53.1657
52.608
48.6118
42.4487
35.3065
28.128
21.5525
15.9324
11.3901
7.88974
5.30333
3.46359
2.20013
1.36049
0.819586
0.481324
0.275728
0.154154
0.084154
0.0448781
0.0233894
0.011918
0.0059395
0.00289614
0.00138218
0.000645848
0.000295569
0.000132523
5.82314e-05
2.50836e-05
1.05953e-05
4.38993e-06
1.78461e-06
7.12044e-07
2.78912e-07
1.07277e-07
4.05394e-08
1.50494e-08
5.49138e-09
1.96583e-09
6.83816e-10
2.35988e-10
7.4638e-11
3.7319e-11
1.75619e-11
2.52452e-11
6.58571e-12
4.39047e-12
0
1.09762e-12
-1.09762e-12
-1.09762e-12
-3.29285e-12
0
-1.09762e-12
2.19524e-12
0
-1.09762e-12
5.48809e-12
0
-1.09762e-11
-5.48809e-12
-2.19524e-12
-1.09762e-12
0
1.09762e-12
0
0
4.39047e-12
0
1.09762e-12
5.62445
16.1571
24.7132
30.4812
33.2108
33.1578
30.9203
27.2442
22.857
18.359
14.1746
10.5522
7.59253
5.29027
3.57513
2.34632
1.49704
0.929458
0.561982
0.331143
0.190275
0.106676
0.0583838
0.0312081
0.0163
0.0083221
0.00415506
0.00202949
0.000970103
0.000453966
0.000208042
9.33993e-05
4.10901e-05
1.77201e-05
7.4931e-06
3.10779e-06
1.26466e-06
5.05079e-07
1.98027e-07
7.62208e-08
2.88168e-08
1.07051e-08
3.87679e-09
1.36105e-09
4.53316e-10
1.47081e-10
4.82952e-11
3.95142e-11
2.63428e-11
2.52452e-11
2.19524e-12
1.09762e-12
0
0
-1.09762e-12
0
1.09762e-12
-8.78094e-12
-7.68332e-12
-3.29285e-12
-1.09762e-12
-1.4269e-11
1.09762e-12
-1.20738e-11
-1.09762e-12
1.09762e-11
2.305e-11
-2.19523e-12
0
0
-1.09762e-12
-4.39047e-12
-8.78094e-12
1.09762e-12
6.58571e-12
3.38857
9.75553
14.9834
18.5855
20.387
20.5056
19.2697
17.1102
14.4635
11.7014
9.09625
6.81497
4.93266
3.45579
2.34719
1.54757
0.991596
0.61804
0.375019
0.221699
0.12777
0.0718302
0.0394124
0.0211165
0.011053
0.00565447
0.00282841
0.00138388
0.000662567
0.00031052
0.000142505
6.40616e-05
2.82185e-05
1.21836e-05
5.15772e-06
2.14146e-06
8.72307e-07
3.48699e-07
1.36829e-07
5.27197e-08
1.99536e-08
7.41441e-09
2.69136e-09
9.49439e-10
3.10626e-10
7.57356e-11
2.41476e-11
6.5857e-12
-3.29285e-12
2.19523e-12
1.09762e-12
-2.19523e-12
-1.09762e-12
1.09762e-12
0
0
4.39047e-12
0
1.09762e-12
0
-1.09762e-12
-1.09762e-12
-6.5857e-12
0
1.20738e-11
8.78094e-12
2.19523e-12
0
-1.09762e-12
-2.19523e-12
-6.5857e-12
4.39047e-12
0
0
0
2.01237
5.80356
8.94307
11.144
12.2921
12.4402
11.7668
10.5177
8.94944
7.28672
5.69913
4.29458
3.12532
2.20069
1.50176
0.99447
0.63977
0.400238
0.243693
0.144519
0.083533
0.0470877
0.025901
0.0139095
0.00729623
0.00374006
0.00187429
0.000918645
0.000440538
0.000206778
9.50314e-05
4.27781e-05
1.88674e-05
8.15605e-06
3.4567e-06
1.43677e-06
5.85829e-07
2.3441e-07
9.20583e-08
3.55013e-08
1.34601e-08
5.02928e-09
1.84619e-09
6.80523e-10
2.38183e-10
7.57356e-11
4.06118e-11
-2.19524e-12
-8.78094e-12
-5.48809e-12
5.48809e-12
-3.29285e-12
-8.78094e-12
0
-1.4269e-11
-1.09762e-12
0
7.68332e-12
8.78094e-12
6.58571e-12
1.09762e-12
-4.39047e-12
0
1.31714e-11
9.87856e-12
0
-1.09762e-12
2.19523e-12
-4.39047e-12
0
-7.68332e-12
3.29285e-12
8.78094e-12
9.87856e-12
-3.29285e-12
1.17648
3.39764
5.24967
6.56625
7.27608
7.40207
7.04043
6.32924
5.41652
4.43517
3.48788
2.64207
1.93228
1.36698
0.936921
0.622972
0.402302
0.252569
0.154288
0.0917776
0.0531984
0.030067
0.0165791
0.00892364
0.00469085
0.0024093
0.00120963
0.000593906
0.000285273
0.000134106
6.17219e-05
2.78219e-05
1.22868e-05
5.31792e-06
2.25649e-06
9.38962e-07
3.83267e-07
1.53502e-07
6.03613e-08
2.33123e-08
8.85558e-09
3.3192e-09
1.23811e-09
4.62097e-10
1.92083e-10
8.8907e-11
4.06118e-11
2.19524e-11
8.78094e-12
-4.39047e-12
-4.39047e-12
-1.09762e-12
0
-2.19524e-12
0
-4.39047e-12
-4.39047e-12
0
8.78094e-12
-1.09762e-12
0
1.09762e-12
0
-2.19524e-12
5.48809e-12
-4.39047e-12
-1.09762e-12
-1.09762e-12
0
1.09762e-12
-4.39047e-12
-7.68332e-12
-2.19524e-12
2.19523e-12
5.48809e-12
0.67642
1.95572
3.02842
3.79976
4.22678
4.31892
4.12753
3.72906
3.20743
2.6395
2.08592
1.58758
1.16634
0.828676
0.570281
0.380638
0.24669
0.155394
0.0952238
0.0568095
0.0330194
0.0187097
0.0103412
0.00557855
0.00293857
0.00151225
0.000760646
0.000374108
0.000179989
8.47423e-05
3.9059e-05
1.76305e-05
7.79627e-06
3.37855e-06
1.43529e-06
5.97928e-07
2.44327e-07
9.79591e-08
3.85659e-08
1.49177e-08
5.67249e-09
2.11182e-09
7.9687e-10
3.07333e-10
1.1525e-10
7.79308e-11
2.08547e-11
3.18309e-11
1.75619e-11
2.19523e-12
-7.68332e-12
4.39047e-12
8.78094e-12
0
1.4269e-11
2.19523e-12
1.09762e-12
3.29285e-12
0
-2.19523e-12
-2.19523e-12
5.48809e-12
1.09762e-12
0
-9.87856e-12
-1.09762e-12
0
-3.29285e-12
4.39047e-12
-1.09762e-12
-3.29285e-12
5.48809e-12
-3.29285e-12
-9.87856e-12
-1.09762e-12
0.382186
1.10605
1.71587
2.15853
2.40895
2.47073
2.37096
2.15136
1.85864
1.53635
1.21948
0.932116
0.687628
0.490488
0.338817
0.226953
0.147583
0.0932602
0.0573192
0.0342918
0.0199838
0.0113513
0.00628862
0.00339975
0.00179452
0.000925274
0.000466246
0.000229705
0.000110693
5.21961e-05
2.40928e-05
1.08901e-05
4.82194e-06
2.09224e-06
8.89899e-07
3.71142e-07
1.51828e-07
6.09463e-08
2.39983e-08
9.30121e-09
3.54201e-09
1.34678e-09
4.93928e-10
1.81107e-10
5.26856e-11
2.96357e-11
4.39047e-12
-4.39047e-12
1.64643e-11
2.19523e-12
0
0
0
-1.09762e-12
-2.19524e-12
5.48809e-12
-1.09762e-12
-2.19524e-12
-9.87856e-12
0
0
-4.39047e-12
0
2.19524e-12
-4.39047e-12
1.09762e-12
8.78094e-12
4.39047e-12
0
0
9.87856e-12
1.20738e-11
5.48809e-12
-5.48809e-12
-4.39047e-12
0.212086
0.614271
0.954417
1.20331
1.34665
1.38565
1.33444
1.21544
1.05418
0.874847
0.697154
0.53494
0.396118
0.283581
0.196574
0.132111
0.0861806
0.054622
0.0336665
0.0201952
0.0117985
0.00671778
0.00372997
0.00202076
0.00106876
0.000552101
0.000278698
0.000137538
6.63842e-05
3.13502e-05
1.44916e-05
6.55931e-06
2.90816e-06
1.26344e-06
5.38014e-07
2.24656e-07
9.2021e-08
3.6982e-08
1.45917e-08
5.67358e-09
2.1667e-09
8.50654e-10
3.06235e-10
1.05371e-10
6.47594e-11
2.08547e-11
1.75619e-11
-4.39047e-12
6.58571e-12
-1.86595e-11
0
0
0
0
1.09762e-12
-2.19523e-12
-1.09762e-12
-1.09762e-12
-1.09762e-12
2.19524e-12
-1.09762e-12
-8.78094e-12
-1.09762e-12
0
-8.78094e-12
-9.87856e-12
0
2.19523e-12
4.39047e-12
1.09762e-12
1.31714e-11
-4.39047e-12
3.29285e-12
-1.09762e-12
-1.09762e-12
0.115543
0.334876
0.520996
0.658106
0.738266
0.761778
0.73591
0.672518
0.58532
0.487468
0.389837
0.300182
0.223048
0.160214
0.111416
0.0751113
0.0491427
0.0312349
0.0193033
0.0116087
0.00679844
0.00387969
0.00215881
0.00117195
0.000621035
0.000321404
0.000162526
8.03396e-05
3.88379e-05
1.83688e-05
8.50312e-06
3.85402e-06
1.71098e-06
7.44271e-07
3.17327e-07
1.32664e-07
5.43968e-08
2.18777e-08
8.6624e-09
3.37188e-09
1.29629e-09
5.03806e-10
1.92083e-10
7.79308e-11
3.62214e-11
7.68332e-12
1.64643e-11
1.4269e-11
-1.64643e-11
-2.63428e-11
3.29285e-12
-1.09762e-12
0
1.09762e-12
3.29285e-12
3.29285e-12
1.86595e-11
0
2.19523e-12
0
0
-6.5857e-12
-1.09762e-12
3.29285e-12
0
-1.09762e-12
-7.68332e-12
0
0
1.09762e-12
-4.39047e-12
-8.78094e-12
0
0
-5.48809e-12
0.0617774
0.179153
0.27904
0.353051
0.396876
0.410517
0.39766
0.364476
0.318199
0.265844
0.213282
0.164756
0.122806
0.0884823
0.0617164
0.0417261
0.0273755
0.0174459
0.010809
0.00651607
0.0038248
0.00218749
0.00121973
0.000663466
0.000352241
0.000182622
9.25045e-05
4.58007e-05
2.21753e-05
1.05036e-05
4.86906e-06
2.20987e-06
9.82358e-07
4.27873e-07
1.82668e-07
7.64458e-08
3.13699e-08
1.26259e-08
5.00184e-09
1.94827e-09
7.77113e-10
2.96357e-10
1.36105e-10
5.48809e-11
-4.39047e-12
-5.48809e-12
-1.64643e-11
-2.19524e-11
-1.4269e-11
0
1.09762e-12
2.19524e-12
-1.09762e-12
2.19524e-12
-1.09762e-12
-1.09762e-12
9.87856e-12
0
0
-2.19524e-12
3.29285e-12
8.78094e-12
0
-1.86595e-11
8.78094e-12
1.09762e-11
0
1.09762e-12
-4.39047e-12
0
-1.20738e-11
0
0
-3.29285e-12
2.19524e-12
0.03241
0.0940357
0.146609
0.185759
0.209196
0.21685
0.210565
0.193498
0.169396
0.141928
0.114197
0.0884709
0.0661346
0.0477854
0.0334225
0.0226574
0.0149035
0.00952146
0.00591337
0.00357297
0.00210186
0.00120462
0.000673035
0.000366791
0.000195088
0.00010132
5.14076e-05
2.54932e-05
1.23618e-05
5.86378e-06
2.72202e-06
1.23708e-06
5.50641e-07
2.40143e-07
1.02658e-07
4.30233e-08
1.76991e-08
7.14769e-09
2.83515e-09
1.09762e-09
4.35754e-10
1.45983e-10
6.69547e-11
2.305e-11
2.19524e-12
2.19524e-12
-1.31714e-11
-2.41476e-11
1.09762e-12
1.64643e-11
-3.29285e-12
1.09762e-12
0
1.09762e-12
-1.09762e-12
-2.19523e-12
-1.86595e-11
-7.68332e-12
-1.09762e-12
0
-1.09762e-12
1.09762e-11
1.09762e-12
-2.19524e-12
-1.09762e-12
-4.39047e-12
9.87856e-12
-1.09762e-12
2.19524e-12
-2.19524e-12
3.29285e-12
0
-2.19524e-12
3.29285e-12
-8.78094e-12
0.0166813
0.048421
0.0755567
0.0958522
0.108118
0.112285
0.109264
0.100642
0.0883243
0.0741927
0.0598529
0.0464925
0.0348464
0.0252439
0.0177016
0.0120301
0.00793234
0.00507966
0.0031619
0.00191464
0.00112867
0.000648162
0.000362831
0.000198099
0.00010555
5.49106e-05
2.79054e-05
1.38598e-05
6.73068e-06
3.19725e-06
1.48624e-06
6.76333e-07
3.01438e-07
1.31613e-07
5.63407e-08
2.36624e-08
9.77209e-09
3.96898e-09
1.57837e-09
6.16861e-10
2.16231e-10
6.91499e-11
1.64643e-11
-7.68332e-12
4.39047e-12
2.19523e-12
9.87856e-12
6.5857e-12
1.09762e-12
2.08547e-11
5.48809e-12
-2.19523e-12
7.68332e-12
-3.29285e-12
-2.19523e-12
5.48809e-12
-7.68332e-12
1.20738e-11
1.09762e-12
0
1.09762e-12
-2.19523e-12
-1.09762e-12
1.31714e-11
0
1.31714e-11
0
-2.19523e-12
0
1.09762e-12
4.39047e-12
-2.19523e-12
0
2.19523e-12
-1.09762e-12
0.00842257
0.0244577
0.0381929
0.0485051
0.0547891
0.0569965
0.0555685
0.0512905
0.0451132
0.0379834
0.0307154
0.0239168
0.0179694
0.0130491
0.00917206
0.00624791
0.00412909
0.00265
0.00165305
0.00100305
0.000592472
0.00034089
0.000191177
0.000104564
5.5808e-05
2.90805e-05
1.48018e-05
7.36276e-06
3.58075e-06
1.70333e-06
7.92866e-07
3.61272e-07
1.61186e-07
7.04648e-08
3.02042e-08
1.27049e-08
5.25429e-09
2.14914e-09
8.57239e-10
3.51238e-10
1.16347e-10
4.82952e-11
0
-9.87856e-12
1.4269e-11
1.20738e-11
1.64643e-11
-1.09762e-12
1.09762e-12
7.68332e-12
-5.48809e-12
-7.68332e-12
-1.09762e-12
0
-1.31714e-11
6.5857e-12
1.09762e-12
1.09762e-11
0
-1.09762e-12
1.09762e-12
0
-1.09762e-12
4.39047e-12
3.29285e-12
4.39047e-12
-9.87856e-12
0
-1.09762e-12
1.09762e-12
1.09762e-12
1.09762e-12
0
1.09762e-12
1.31714e-11
0.00417167
0.012118
0.0189359
0.0240721
0.0272247
0.028364
0.0277006
0.025616
0.0225763
0.0190484
0.0154371
0.012047
0.00907146
0.00660225
0.00465093
0.00317506
0.00210279
0.00135235
0.000845297
0.00051392
0.000304134
0.00017531
9.84903e-05
5.39611e-05
2.88474e-05
1.50557e-05
7.67496e-06
3.82331e-06
1.86202e-06
8.86956e-07
4.13407e-07
1.88626e-07
8.42531e-08
3.68745e-08
1.58419e-08
6.68449e-09
2.77587e-09
1.13494e-09
4.77464e-10
2.15133e-10
1.02078e-10
4.28071e-11
4.39047e-12
0
7.68332e-12
1.53666e-11
-5.48809e-12
4.39047e-12
7.68332e-12
-1.09762e-12
-6.58571e-12
-3.29285e-12
-7.68332e-12
1.09762e-12
1.09762e-12
-4.39047e-12
0
-3.29285e-12
-2.19523e-12
2.19524e-12
-1.09762e-12
2.19523e-12
0
6.58571e-12
-2.19523e-12
-1.31714e-11
2.19524e-12
1.09762e-12
0
-1.09762e-12
7.68332e-12
3.29285e-12
0
3.29285e-12
-4.39047e-12
0.0020269
0.00588957
0.00920869
0.0117166
0.0132659
0.0138397
0.0135367
0.0125393
0.0110714
0.00935937
0.00760011
0.00594316
0.00448448
0.00327058
0.00230869
0.00157929
0.00104803
0.000675335
0.00042293
0.00025761
0.000152727
8.81897e-05
4.96296e-05
2.72358e-05
1.45833e-05
7.62274e-06
3.89163e-06
1.94142e-06
9.46813e-07
4.51618e-07
2.10785e-07
9.63061e-08
4.30958e-08
1.88999e-08
8.14213e-09
3.42566e-09
1.41483e-09
5.6198e-10
2.41476e-10
9.65903e-11
6.80523e-11
4.39047e-11
3.29285e-11
2.85381e-11
9.87856e-12
1.86595e-11
1.4269e-11
3.95142e-11
1.86595e-11
1.31714e-11
6.5857e-12
6.5857e-12
2.19523e-12
-2.19523e-12
1.4269e-11
-6.5857e-12
-1.09762e-12
-3.29285e-12
1.09762e-12
2.19523e-12
-1.09762e-12
-2.19523e-12
2.19523e-12
-1.20738e-11
-3.29285e-12
-1.09762e-12
0
1.09762e-12
1.09762e-12
0
-7.68332e-12
0
-4.39047e-12
-1.4269e-11
-1.09762e-12
0.000966115
0.00280802
0.00439283
0.00559355
0.00633958
0.00662175
0.00648579
0.00601715
0.00532162
0.00450661
0.00366621
0.00287231
0.00217148
0.00158673
0.00112222
0.000769129
0.000511363
0.000330124
0.000207115
0.000126379
7.50541e-05
4.34114e-05
2.44699e-05
1.34498e-05
7.21262e-06
3.77566e-06
1.93034e-06
9.64332e-07
4.7095e-07
2.24944e-07
1.0512e-07
4.80844e-08
2.1555e-08
9.48122e-09
4.07216e-09
1.7024e-09
6.84913e-10
2.55745e-10
7.79308e-11
1.4269e-11
-3.29285e-12
8.78094e-12
2.41476e-11
2.08547e-11
1.20738e-11
8.78094e-12
3.84166e-11
4.17095e-11
3.18309e-11
1.75619e-11
-2.19524e-12
3.29285e-12
-6.5857e-12
0
-2.19524e-12
0
0
-7.68332e-12
4.39047e-12
-3.29285e-12
0
-1.09762e-12
-5.48809e-12
-2.08547e-11
2.19523e-12
0
-2.19524e-12
-3.29285e-12
1.09762e-12
-1.09762e-12
1.09762e-12
-2.19524e-12
0
0
1.31714e-11
0.000451788
0.00131345
0.00205573
0.00261947
0.00297154
0.0031072
0.00304724
0.00283102
0.00250759
0.00212698
0.00173325
0.00136029
0.0010302
0.000754132
0.000534319
0.000366859
0.000244342
0.000158017
9.93079e-05
6.06982e-05
3.61069e-05
2.09178e-05
1.18092e-05
6.50075e-06
3.49123e-06
1.8302e-06
9.36987e-07
4.687e-07
2.29194e-07
1.09625e-07
5.12983e-08
2.34956e-08
1.05338e-08
4.61109e-09
1.96144e-09
8.27604e-10
3.06235e-10
1.1964e-10
9.87856e-12
-3.29285e-12
-3.40261e-11
-2.96357e-11
-2.63428e-11
-1.09762e-11
1.31714e-11
1.97571e-11
3.18309e-11
1.31714e-11
2.96357e-11
3.29285e-12
-1.09762e-12
1.09762e-12
0
3.29285e-12
0
-1.09762e-12
0
0
-1.09762e-12
0
0
3.29285e-12
-1.09762e-12
7.68332e-12
0
-1.09762e-12
0
0
6.58571e-12
4.39047e-12
6.5857e-12
-1.97571e-11
2.19524e-12
1.09762e-11
0
0.000207296
0.000602791
0.000943863
0.00120346
0.00136634
0.00143015
0.00140416
0.0013062
0.00115859
0.000984192
0.000803259
0.000631426
0.000478995
0.000351221
0.000249266
0.000171432
0.000114371
7.40864e-05
4.66365e-05
2.85505e-05
1.70102e-05
9.86965e-06
5.58031e-06
3.07634e-06
1.6545e-06
8.68513e-07
4.45244e-07
2.22999e-07
1.09178e-07
5.22806e-08
2.44857e-08
1.12242e-08
5.02709e-09
2.18097e-09
9.14315e-10
3.66604e-10
1.13055e-10
3.84166e-11
-3.29285e-12
-1.97571e-11
-2.19523e-11
-2.85381e-11
-3.51238e-11
-1.31714e-11
-8.78094e-12
1.09762e-12
2.19523e-12
-1.53666e-11
-4.39047e-12
-7.68332e-12
7.68332e-12
0
2.08547e-11
0
0
0
8.78094e-12
0
-1.09762e-12
-2.19523e-12
-1.09762e-12
1.09762e-12
4.39047e-12
1.86595e-11
1.09762e-12
0
-1.09762e-12
1.31714e-11
0
1.09762e-12
-7.68332e-12
0
0
0
-7.68332e-12
9.33367e-05
0.000271466
0.000425236
0.000542508
0.000616395
0.000645767
0.000634703
0.000591119
0.00052499
0.000446579
0.000365006
0.000287354
0.00021832
0.000160332
0.00011397
7.85062e-05
5.24581e-05
3.40342e-05
2.14574e-05
1.31561e-05
7.8501e-06
4.56147e-06
2.58278e-06
1.42586e-06
7.67906e-07
4.03649e-07
2.07186e-07
1.03892e-07
5.0924e-08
2.43825e-08
1.14185e-08
5.22466e-09
2.33353e-09
1.012e-09
4.09411e-10
1.54764e-10
3.95142e-11
-2.19524e-12
-5.48809e-12
-1.86595e-11
-2.41476e-11
-1.86595e-11
-2.08547e-11
-2.41476e-11
-4.06118e-11
-3.84166e-11
-3.29285e-11
-2.52452e-11
-2.63428e-11
-2.08547e-11
2.19524e-12
-1.31714e-11
-1.09762e-12
-2.19524e-12
1.09762e-12
3.29285e-12
7.68332e-12
-1.20738e-11
-1.09762e-12
2.19524e-12
-1.09762e-12
-5.48809e-12
-3.29285e-12
0
0
2.19524e-12
1.09762e-12
0
-8.78094e-12
4.39047e-12
1.09762e-12
2.41476e-11
2.19524e-12
4.39047e-12
0
4.12454e-05
0.000119983
0.000188015
0.000239993
0.000272867
0.000286109
0.00028148
0.000262436
0.000233354
0.000198753
0.000162667
0.000128239
9.75712e-05
7.17607e-05
5.10857e-05
3.52422e-05
2.35841e-05
1.53239e-05
9.67544e-06
5.94091e-06
3.54997e-06
2.06572e-06
1.17126e-06
6.47475e-07
3.49175e-07
1.83792e-07
9.44654e-08
4.74346e-08
2.32717e-08
1.11551e-08
5.23344e-09
2.37415e-09
1.06359e-09
4.54414e-10
1.56959e-10
6.14666e-11
2.41476e-11
-6.58571e-12
-3.29285e-12
-8.78094e-12
-3.51238e-11
-1.97571e-11
-1.31714e-11
-2.19523e-11
-2.52452e-11
-3.40261e-11
-4.39047e-11
-1.97571e-11
-2.63428e-11
-1.75619e-11
-9.87856e-12
-5.48809e-12
-1.4269e-11
2.19524e-12
2.19524e-12
0
-8.78094e-12
-1.64643e-11
-8.78094e-12
-1.20738e-11
-3.29285e-12
-1.09762e-12
1.09762e-12
-2.19524e-12
-1.09762e-12
-1.09762e-11
1.09762e-12
-6.5857e-12
-1.09762e-12
-1.09762e-12
-2.19523e-12
0
-9.87856e-12
0
5.48809e-12
1.78907e-05
5.20531e-05
8.15947e-05
0.000104203
0.000118552
0.000124401
0.000122498
0.000114325
0.000101768
8.67811e-05
7.11136e-05
5.61362e-05
4.2769e-05
3.14987e-05
2.24551e-05
1.55128e-05
1.03959e-05
6.76437e-06
4.27699e-06
2.62983e-06
1.57363e-06
9.16952e-07
5.2062e-07
2.88196e-07
1.55618e-07
8.20195e-08
4.22341e-08
2.12477e-08
1.04559e-08
5.0205e-09
2.34122e-09
1.04822e-09
4.50023e-10
2.03059e-10
6.47594e-11
6.5857e-12
0
-2.85381e-11
-3.18309e-11
-2.305e-11
-1.09762e-11
-7.68332e-12
9.87856e-12
9.87856e-12
-5.48809e-12
-3.29285e-12
-6.5857e-12
-8.78094e-12
5.48809e-12
-1.09762e-12
-3.29285e-12
1.31714e-11
1.09762e-12
0
-3.29285e-12
6.5857e-12
-7.68332e-12
7.68332e-12
-8.78094e-12
-2.19523e-12
-1.31714e-11
5.48809e-12
4.39047e-12
-7.68332e-12
1.09762e-12
-1.09762e-12
-1.09762e-12
1.09762e-12
2.19523e-12
-8.78094e-12
-1.31714e-11
-4.39047e-12
-6.5857e-12
-7.68332e-12
-1.09762e-12
7.61858e-06
2.21699e-05
3.47626e-05
4.44149e-05
5.05606e-05
5.30931e-05
5.23243e-05
4.8879e-05
4.3555e-05
3.71818e-05
3.05046e-05
2.41095e-05
1.83918e-05
1.3563e-05
9.6817e-06
6.69745e-06
4.49436e-06
2.9283e-06
1.854e-06
1.14153e-06
6.83964e-07
3.99061e-07
2.26884e-07
1.25768e-07
6.80062e-08
3.59031e-08
1.85058e-08
9.32316e-09
4.6067e-09
2.20841e-09
1.04164e-09
4.70878e-10
1.87693e-10
8.78094e-11
2.63428e-11
-1.53666e-11
-1.75619e-11
-3.40261e-11
-3.62214e-11
-2.63428e-11
-5.48809e-12
-2.19524e-12
9.87856e-12
-1.09762e-12
1.4269e-11
2.19524e-12
2.63428e-11
-2.19524e-12
-6.58571e-12
4.39047e-12
0
1.09762e-12
-1.09762e-12
-1.31714e-11
-1.09762e-12
4.39047e-12
0
4.39047e-12
1.86595e-11
1.31714e-11
4.39047e-12
2.19523e-12
0
2.19524e-12
0
1.09762e-11
-2.19524e-12
0
0
5.48809e-12
8.78094e-12
0
9.87856e-12
2.19523e-12
-6.58571e-12
3.18567e-06
9.27155e-06
1.45421e-05
1.85876e-05
2.11712e-05
2.22464e-05
2.19412e-05
2.05143e-05
1.82974e-05
1.56362e-05
1.28424e-05
1.01618e-05
7.76114e-06
5.73048e-06
4.09574e-06
2.83691e-06
1.90616e-06
1.24355e-06
7.8836e-07
4.85989e-07
2.91571e-07
1.7035e-07
9.69602e-08
5.38041e-08
2.91385e-08
1.54358e-08
7.97858e-09
4.03594e-09
2.00096e-09
9.73587e-10
4.85147e-10
2.40378e-10
1.26226e-10
3.7319e-11
2.96357e-11
3.29285e-12
1.53666e-11
1.4269e-11
1.97571e-11
-1.09762e-12
1.75619e-11
1.20738e-11
1.75619e-11
2.19523e-12
2.85381e-11
1.86595e-11
8.78094e-12
3.29285e-12
-2.52452e-11
-1.09762e-11
5.48809e-12
3.29285e-12
0
-2.19524e-12
2.19524e-12
-2.305e-11
-1.09762e-12
0
7.68332e-12
1.09762e-12
1.4269e-11
-2.19523e-12
-1.09762e-12
-1.09762e-12
-4.39047e-12
1.09762e-12
-1.09762e-12
1.20738e-11
0
0
2.08547e-11
9.87856e-12
6.58571e-12
4.39047e-12
0
1.30818e-06
3.80781e-06
5.97406e-06
7.63898e-06
8.70519e-06
9.15302e-06
9.03399e-06
8.4534e-06
7.54664e-06
6.45532e-06
5.3074e-06
4.20416e-06
3.21459e-06
2.37627e-06
1.70043e-06
1.17925e-06
7.93339e-07
5.18232e-07
3.28939e-07
2.03025e-07
1.21962e-07
7.1344e-08
4.06568e-08
2.25945e-08
1.22692e-08
6.51107e-09
3.39383e-09
1.75729e-09
8.86875e-10
4.57706e-10
2.31597e-10
1.35007e-10
8.01261e-11
3.29285e-11
5.59785e-11
2.19523e-11
2.305e-11
3.95142e-11
1.86595e-11
-2.19523e-12
3.7319e-11
1.20738e-11
3.7319e-11
5.59785e-11
4.50023e-11
4.50023e-11
1.86595e-11
3.51238e-11
3.29285e-12
-8.78094e-12
6.5857e-12
6.5857e-12
1.53666e-11
2.08547e-11
1.09762e-12
5.48809e-12
4.39047e-12
1.4269e-11
-1.09762e-11
0
0
-2.19523e-12
-1.09762e-12
0
-3.29285e-12
0
4.39047e-12
-4.39047e-12
-2.19523e-12
-1.31714e-11
-5.48809e-12
6.5857e-12
-1.09762e-12
-5.48809e-12
2.19523e-12
5.2762e-07
1.53606e-06
2.41045e-06
3.08339e-06
3.5155e-06
3.69856e-06
3.65298e-06
3.42085e-06
3.0565e-06
2.6169e-06
2.15365e-06
1.70774e-06
1.30719e-06
9.67367e-07
6.93039e-07
4.81178e-07
3.24106e-07
2.11973e-07
1.34683e-07
8.32422e-08
5.00601e-08
2.92987e-08
1.6731e-08
9.32975e-09
5.08526e-09
2.69794e-09
1.42581e-09
7.41989e-10
3.81971e-10
2.0745e-10
1.06469e-10
6.47594e-11
3.95142e-11
3.62214e-11
8.78094e-12
0
-9.87856e-12
1.4269e-11
-4.39047e-12
7.68332e-12
4.39047e-12
7.68332e-12
1.86595e-11
5.26856e-11
4.17095e-11
3.84166e-11
1.64643e-11
4.39047e-12
2.63428e-11
1.31714e-11
-3.29285e-12
4.39047e-12
1.4269e-11
1.09762e-12
-2.19524e-12
1.4269e-11
1.31714e-11
2.19524e-12
2.19523e-12
0
0
-2.19523e-12
2.19524e-12
8.78094e-12
3.29285e-12
-1.09762e-12
0
-1.20738e-11
1.09762e-12
0
-1.64643e-11
-9.87856e-12
1.09762e-12
-7.68332e-12
0
2.09079e-07
6.0884e-07
9.55687e-07
1.2229e-06
1.39493e-06
1.46838e-06
1.45123e-06
1.35996e-06
1.2161e-06
1.04209e-06
8.5843e-07
6.81349e-07
5.22077e-07
3.86778e-07
2.77396e-07
1.92813e-07
1.3002e-07
8.51115e-08
5.41389e-08
3.34686e-08
2.01512e-08
1.18093e-08
6.74705e-09
3.76812e-09
2.04925e-09
1.1053e-09
5.83933e-10
2.90869e-10
1.54764e-10
9.87856e-11
5.81737e-11
3.29285e-11
0
3.29285e-12
-1.75619e-11
-1.09762e-12
-1.4269e-11
5.48809e-12
1.64643e-11
3.84166e-11
8.78094e-12
1.20738e-11
-2.19524e-11
5.48809e-12
2.52452e-11
1.64643e-11
-6.5857e-12
-1.09762e-12
1.64643e-11
2.305e-11
1.09762e-12
-2.19524e-12
-1.4269e-11
-8.78094e-12
0
-2.08547e-11
-4.39047e-12
-4.39047e-12
1.09762e-12
0
0
-2.19523e-12
4.39047e-12
0
5.48809e-12
0
-1.09762e-12
0
6.58571e-12
1.53666e-11
5.48809e-12
-5.48809e-12
-8.78094e-12
1.09762e-12
-4.39047e-12
8.1452e-08
2.37178e-07
3.72316e-07
4.76577e-07
5.43819e-07
5.72721e-07
5.66331e-07
5.31093e-07
4.75268e-07
4.07561e-07
3.36039e-07
2.66967e-07
2.04756e-07
1.51855e-07
1.09015e-07
7.58607e-08
5.12039e-08
3.35443e-08
2.13706e-08
1.32098e-08
7.93907e-09
4.66158e-09
2.67599e-09
1.46971e-09
7.99066e-10
4.40145e-10
2.21719e-10
1.07567e-10
6.25642e-11
4.82952e-11
4.28071e-11