/*--------------------------------*- C++ -*----------------------------------*\
  =========                 |
  \\      /  F ield         | OpenFOAM: The Open Source CFD Toolbox
   \\    /   O peration     | Website:  https://openfoam.org
    \\  /    A nd           | Version:  10
     \\/     M anipulation  |
\*---------------------------------------------------------------------------*/
FoamFile
{
    format      ascii;
    class       volScalarField;
    location    "280";
    object      gradTz;
}
// * * * * * * * * * * * * * * * * * * * * * * * * * * * * * * * * * * * * * //

dimensions      [0 -1 0 1 0 0 0];

internalField   nonuniform List<scalar> 
11250
(
-14352.3
-4147.78
-1527.42
-723.746
-418.884
-277.071
-199.46
-151.677
-119.659
-96.8123
-79.7037
-66.3994
-55.7444
-47.0155
-39.7418
-33.6059
-28.3865
-23.924
-20.0993
-16.8201
-14.0125
-11.6152
-9.57615
-7.84984
-6.39614
-5.17922
-4.16695
-3.3305
-2.64413
-2.08492
-1.63264
-1.26955
-0.980265
-0.75153
-0.572057
-0.432322
-0.324367
-0.241612
-0.178667
-0.131162
-0.0955878
-0.0691557
-0.0496685
-0.0354128
-0.0250648
-0.0176115
-0.0122844
-0.00850631
-0.00584732
-0.00399028
-0.00270323
-0.001818
-0.00121378
-0.000804492
-0.000529343
-0.000345769
-0.000224217
-0.000144338
-9.22401e-05
-5.85169e-05
-3.6852e-05
-2.30383e-05
-1.4297e-05
-8.80712e-06
-5.38526e-06
-3.26857e-06
-1.96918e-06
-1.17761e-06
-6.9913e-07
-4.12281e-07
-2.41918e-07
-1.42056e-07
-8.4859e-08
-5.40368e-08
-4.06305e-08
-8261.13
-4858.72
-2765.16
-1672.04
-1093.25
-766.707
-568.301
-439.066
-349.661
-284.61
-235.271
-196.563
-165.366
-139.69
-118.219
-100.059
-84.5804
-71.3256
-59.9512
-50.1897
-41.8255
-34.6793
-28.5978
-23.4469
-19.108
-15.4748
-12.4518
-9.95337
-7.90287
-6.23201
-4.88046
-3.79533
-2.93068
-2.24696
-1.71044
-1.29269
-0.969936
-0.722504
-0.534294
-0.392244
-0.285867
-0.206824
-0.148547
-0.105914
-0.0749664
-0.0526752
-0.0367428
-0.0254429
-0.0174899
-0.0119355
-0.00808586
-0.00543806
-0.00363074
-0.00240648
-0.00158344
-0.00103432
-0.000670722
-0.000431777
-0.000275932
-0.000175053
-0.000110243
-6.89201e-05
-4.27704e-05
-2.63473e-05
-1.61108e-05
-9.77849e-06
-5.89116e-06
-3.52303e-06
-2.09163e-06
-1.23348e-06
-7.23772e-07
-4.24931e-07
-2.53868e-07
-1.61733e-07
-1.21574e-07
-5571
-4259.47
-3001.22
-2104.82
-1514.34
-1127.29
-867.211
-686.028
-554.878
-456.431
-380.1
-319.257
-269.644
-228.451
-193.778
-164.304
-139.082
-117.419
-98.7852
-82.7632
-69.014
-57.2526
-47.2335
-38.7408
-31.582
-25.5841
-20.5913
-16.4632
-13.0741
-10.3116
-8.07648
-6.28157
-4.85108
-3.71972
-2.83182
-2.14037
-1.60609
-1.19646
-0.884844
-0.649634
-0.473478
-0.342577
-0.246061
-0.175448
-0.124188
-0.0872643
-0.060872
-0.0421527
-0.0289775
-0.0197754
-0.0133975
-0.00901054
-0.00601607
-0.00398757
-0.00262385
-0.00171396
-0.00111147
-0.000715519
-0.00045727
-0.000290099
-0.000182699
-0.000114219
-7.08834e-05
-4.36661e-05
-2.67012e-05
-1.62067e-05
-9.76409e-06
-5.83921e-06
-3.46679e-06
-2.04448e-06
-1.19969e-06
-7.04354e-07
-4.20818e-07
-2.68084e-07
-2.01569e-07
-4190.15
-3604.76
-2873.35
-2229.77
-1730.25
-1359.41
-1085.96
-881.97
-726.678
-605.695
-509.263
-430.79
-365.793
-311.181
-264.791
-225.078
-190.908
-161.434
-135.994
-114.061
-95.1985
-79.0349
-65.2461
-53.5441
-43.6705
-35.3913
-28.4947
-22.7893
-18.1028
-14.2813
-11.1881
-8.70335
-6.72251
-5.15549
-3.92542
-2.96733
-2.22688
-1.65909
-1.2271
-0.900988
-0.656728
-0.4752
-0.341342
-0.243402
-0.172298
-0.121077
-0.0844624
-0.0584913
-0.0402111
-0.0274429
-0.0185927
-0.0125051
-0.00834958
-0.00553445
-0.00364182
-0.002379
-0.00154277
-0.000993204
-0.000634748
-0.000402704
-0.000253623
-0.000158563
-9.84051e-05
-6.06218e-05
-3.70703e-05
-2.25009e-05
-1.35565e-05
-8.10743e-06
-4.81357e-06
-2.83877e-06
-1.66583e-06
-9.78089e-07
-5.84394e-07
-3.72301e-07
-2.79917e-07
-3391.59
-3093.06
-2654.76
-2207.97
-1815.09
-1492.03
-1233.52
-1027.83
-863.178
-729.795
-620.22
-528.944
-451.962
-386.366
-330.034
-281.395
-239.265
-202.731
-171.065
-143.673
-120.051
-99.7639
-82.4262
-67.6906
-55.2417
-44.7923
-36.0803
-28.8676
-22.9393
-18.1024
-14.1856
-11.0379
-8.52759
-6.54112
-4.98134
-3.76614
-2.82678
-2.10632
-1.55807
-1.14414
-0.834045
-0.603562
-0.433584
-0.309203
-0.218894
-0.153831
-0.107319
-0.0743243
-0.0510988
-0.0348753
-0.0236294
-0.0158934
-0.0106124
-0.00703467
-0.00462919
-0.00302411
-0.0019612
-0.00126262
-0.00080696
-0.000511978
-0.000322454
-0.000201602
-0.00012512
-7.70816e-05
-4.71371e-05
-2.86122e-05
-1.72391e-05
-1.03101e-05
-6.12154e-06
-3.6103e-06
-2.11865e-06
-1.244e-06
-7.43296e-07
-4.73571e-07
-3.56072e-07
-2887.62
-2717.25
-2441.01
-2128.85
-1827.04
-1557.44
-1326.04
-1130.92
-967.143
-829.308
-712.564
-612.926
-527.26
-453.148
-388.734
-332.587
-283.586
-240.838
-203.607
-171.276
-143.307
-119.225
-98.6005
-81.0406
-66.184
-53.6983
-43.2777
-34.6428
-27.5401
-21.7412
-17.0428
-13.265
-10.251
-7.86495
-5.9908
-4.53024
-3.40091
-2.53454
-1.87511
-1.37714
-1.00402
-0.726652
-0.522066
-0.372339
-0.263614
-0.185275
-0.129266
-0.0895304
-0.0615575
-0.0420161
-0.0284694
-0.01915
-0.0127876
-0.00847697
-0.00557857
-0.00364449
-0.00236363
-0.00152178
-0.00097263
-0.000617114
-0.000388686
-0.000243021
-0.000150831
-9.29252e-05
-5.6828e-05
-3.4496e-05
-2.07849e-05
-1.24313e-05
-7.38129e-06
-4.35344e-06
-2.55488e-06
-1.50023e-06
-8.96434e-07
-5.71149e-07
-4.29477e-07
-2549.24
-2442.67
-2258.74
-2035.27
-1803.09
-1581.42
-1379.6
-1200.54
-1043.65
-906.792
-787.423
-683.083
-591.627
-511.271
-440.557
-378.302
-323.536
-275.45
-233.353
-196.641
-164.774
-137.257
-113.636
-93.4854
-76.4091
-62.038
-50.0298
-40.0695
-31.8695
-25.1698
-19.7379
-15.368
-11.8798
-9.11715
-6.94636
-5.25403
-3.94508
-2.94064
-2.17593
-1.59832
-1.16545
-0.843599
-0.606162
-0.432367
-0.306146
-0.215189
-0.15015
-0.104004
-0.071515
-0.0488164
-0.0330795
-0.0222525
-0.0148603
-0.00985153
-0.00648353
-0.00423593
-0.00274735
-0.00176892
-0.00113064
-0.000717404
-0.000451875
-0.000282542
-0.000175368
-0.000108047
-6.60784e-05
-4.01131e-05
-2.41706e-05
-1.44568e-05
-8.58441e-06
-5.06327e-06
-2.97164e-06
-1.74508e-06
-1.0428e-06
-6.64452e-07
-4.99659e-07
-2311.9
-2240.02
-2110.86
-1945.63
-1764.33
-1581.8
-1407.29
-1245.55
-1098.33
-965.697
-846.814
-740.526
-645.619
-560.96
-485.538
-418.473
-358.996
-306.429
-260.162
-219.636
-184.331
-153.755
-127.442
-104.949
-85.8533
-69.7593
-56.2944
-45.1137
-35.9003
-28.3665
-22.2541
-17.3336
-13.4038
-10.2899
-7.84206
-5.933
-4.45593
-3.32212
-2.45868
-1.80633
-1.31734
-0.953687
-0.68536
-0.488921
-0.346232
-0.243392
-0.169847
-0.117659
-0.0809115
-0.0552351
-0.037432
-0.0251823
-0.016818
-0.0111502
-0.00733866
-0.00479491
-0.00311009
-0.00200258
-0.00128006
-0.000812256
-0.000511646
-0.000319931
-0.000198585
-0.000122357
-7.48341e-05
-4.54306e-05
-2.73761e-05
-1.6375e-05
-9.72391e-06
-5.73569e-06
-3.3665e-06
-1.97711e-06
-1.18155e-06
-7.52915e-07
-5.66188e-07
-2140.15
-2088.52
-1993.2
-1866.65
-1721.9
-1569.93
-1418.68
-1273.24
-1136.44
-1009.61
-893.111
-786.781
-690.186
-602.782
-523.995
-453.258
-390.027
-333.778
-284.005
-240.216
-201.927
-168.666
-139.97
-115.386
-94.478
-76.829
-62.0436
-49.7523
-39.6138
-31.3164
-24.5793
-19.1524
-14.8156
-11.3775
-8.67351
-6.56383
-4.93093
-3.6771
-2.72197
-2.00014
-1.45895
-1.05637
-0.759268
-0.541722
-0.383673
-0.269745
-0.188258
-0.130427
-0.0897004
-0.0612407
-0.0415055
-0.027925
-0.0186512
-0.0123665
-0.00813974
-0.00531868
-0.00345003
-0.00222161
-0.00142015
-0.0009012
-0.000567705
-0.000355004
-0.000220367
-0.000135786
-8.30516e-05
-5.0422e-05
-3.03856e-05
-1.81762e-05
-1.07942e-05
-6.36737e-06
-3.73748e-06
-2.1951e-06
-1.31195e-06
-8.36102e-07
-6.28787e-07
-2013.04
-1973.91
-1900.28
-1799.84
-1681.29
-1552.62
-1420.34
-1289.18
-1162.35
-1041.81
-928.686
-823.516
-726.475
-637.51
-556.438
-482.986
-416.834
-357.618
-304.948
-258.409
-217.571
-181.987
-151.208
-124.783
-102.268
-83.2324
-67.2639
-53.9735
-42.9997
-34.0108
-26.7065
-20.8187
-16.1107
-12.3763
-9.43793
-7.14436
-5.36844
-4.00432
-2.96485
-2.17906
-1.58975
-1.15128
-0.827615
-0.590573
-0.41833
-0.294148
-0.205315
-0.14226
-0.0978486
-0.0668103
-0.0452844
-0.0304702
-0.0203528
-0.0134957
-0.00888372
-0.00580522
-0.00376589
-0.00242516
-0.00155037
-0.000983894
-0.000619834
-0.000387625
-0.00024063
-0.00014828
-9.0699e-05
-5.50681e-05
-3.31874e-05
-1.98534e-05
-1.17909e-05
-6.95579e-06
-4.08313e-06
-2.39831e-06
-1.43351e-06
-9.13641e-07
-6.87193e-07
-1917.41
-1886.34
-1827.06
-1744.58
-1644.85
-1533.78
-1416.57
-1297.43
-1179.51
-1065.09
-955.701
-852.36
-755.684
-666.013
-583.485
-508.093
-439.719
-378.156
-323.131
-274.311
-231.321
-193.754
-161.179
-133.152
-109.229
-88.9714
-71.9547
-57.7755
-46.0557
-36.4472
-28.6333
-22.3304
-17.2873
-13.2849
-10.134
-7.67356
-5.76765
-4.30316
-3.18684
-2.3427
-1.70947
-1.2382
-0.89025
-0.635367
-0.450124
-0.316547
-0.220976
-0.153129
-0.105337
-0.0719304
-0.0487597
-0.0328115
-0.0219186
-0.0145352
-0.0095687
-0.0062533
-0.00405685
-0.00261271
-0.00167038
-0.00106012
-0.000667898
-0.000417709
-0.000259321
-0.000159808
-9.77559e-05
-5.93564e-05
-3.5774e-05
-2.14021e-05
-1.27115e-05
-7.49936e-06
-4.40255e-06
-2.58613e-06
-1.54586e-06
-9.85339e-07
-7.41198e-07
-1844.63
-1818.92
-1769.4
-1699.46
-1613.35
-1515.5
-1410.11
-1300.81
-1190.56
-1081.7
-976.014
-874.792
-778.966
-689.169
-605.8
-529.071
-459.045
-395.659
-338.746
-288.058
-243.279
-204.039
-169.932
-140.527
-115.385
-94.0622
-76.1273
-61.1656
-48.7867
-38.6288
-30.3617
-23.6885
-18.3459
-14.1034
-10.7619
-8.15146
-6.12853
-4.57355
-3.38787
-2.49102
-1.81806
-1.3171
-0.947136
-0.676073
-0.479033
-0.336923
-0.235231
-0.163027
-0.112158
-0.0765964
-0.0519278
-0.0349467
-0.023347
-0.0154838
-0.010194
-0.00666242
-0.00432259
-0.00278405
-0.00178004
-0.00112979
-0.000711839
-0.000445217
-0.000276416
-0.000170353
-0.000104213
-6.3281e-05
-3.81418e-05
-2.282e-05
-1.35546e-05
-7.9973e-06
-4.69521e-06
-2.75823e-06
-1.64891e-06
-1.05112e-06
-7.90693e-07
-1788.76
-1766.72
-1723.97
-1662.94
-1586.75
-1498.84
-1402.62
-1301.23
-1197.4
-1093.42
-991.162
-892.099
-797.368
-707.815
-624.039
-546.431
-475.206
-410.424
-352.021
-299.823
-253.571
-212.936
-177.538
-146.962
-120.774
-98.5333
-79.8021
-64.1589
-51.2035
-40.5634
-31.8972
-24.8971
-19.2894
-14.834
-11.3231
-8.57904
-6.45176
-4.81598
-3.56828
-2.62424
-1.91566
-1.38806
-0.998339
-0.712736
-0.505086
-0.355297
-0.248091
-0.17196
-0.118317
-0.0808116
-0.054791
-0.0368771
-0.0246389
-0.0163419
-0.0107598
-0.00703279
-0.00456322
-0.00293924
-0.00187939
-0.00119293
-0.000751668
-0.000470158
-0.000291919
-0.000179919
-0.000110072
-6.68426e-05
-4.0291e-05
-2.41075e-05
-1.43202e-05
-8.44963e-06
-4.96113e-06
-2.91466e-06
-1.74256e-06
-1.11091e-06
-8.35745e-07
-1745.61
-1726.15
-1688.19
-1633.55
-1564.64
-1484.2
-1395.07
-1299.97
-1201.41
-1101.58
-1002.38
-905.362
-811.809
-722.713
-638.823
-560.671
-488.595
-422.764
-363.198
-309.793
-262.343
-220.557
-184.083
-152.521
-125.447
-102.422
-83.0073
-66.7764
-53.3218
-42.2626
-33.2484
-25.9625
-20.1224
-15.48
-11.8199
-8.95809
-6.73864
-5.03137
-3.72872
-2.74281
-2.00261
-1.45133
-1.04402
-0.745467
-0.528358
-0.371719
-0.259591
-0.179954
-0.123831
-0.0845866
-0.0573562
-0.0386074
-0.0257972
-0.0171116
-0.0112675
-0.0073652
-0.00477925
-0.00307861
-0.00196864
-0.00124966
-0.000787466
-0.00049258
-0.00030586
-0.000188522
-0.000115342
-7.00476e-05
-4.22255e-05
-2.52665e-05
-1.50097e-05
-8.85705e-06
-5.2007e-06
-3.05564e-06
-1.82697e-06
-1.16482e-06
-8.76425e-07
-1712.17
-1694.53
-1660.01
-1610.01
-1546.48
-1471.67
-1387.99
-1297.86
-1203.56
-1107.19
-1010.62
-915.467
-823.07
-734.533
-650.716
-572.258
-499.596
-432.987
-372.525
-318.166
-269.751
-227.026
-189.662
-157.279
-129.46
-105.772
-85.7767
-69.0439
-55.1611
-43.7412
-34.4266
-26.8931
-20.8513
-16.046
-12.2559
-9.29109
-6.99094
-5.221
-3.87012
-2.84741
-2.07938
-1.50723
-1.08442
-0.77443
-0.548966
-0.386269
-0.269787
-0.187044
-0.128724
-0.0879383
-0.0596348
-0.0401448
-0.0268269
-0.0177962
-0.0117192
-0.00766101
-0.00497156
-0.00320271
-0.00204814
-0.00130021
-0.000819369
-0.000512567
-0.00031829
-0.000196195
-0.000120044
-7.29074e-05
-4.39521e-05
-2.63013e-05
-1.56254e-05
-9.22094e-06
-5.4147e-06
-3.18158e-06
-1.90246e-06
-1.21308e-06
-9.12779e-07
-1686.19
-1669.87
-1637.83
-1591.24
-1531.7
-1461.14
-1381.65
-1295.4
-1204.52
-1110.99
-1016.65
-923.124
-831.802
-743.853
-660.217
-581.615
-508.563
-441.386
-380.241
-325.136
-275.951
-232.466
-194.374
-161.313
-132.875
-108.632
-88.1476
-70.9901
-56.7436
-45.016
-35.4444
-27.6985
-21.4831
-16.5374
-12.6349
-9.581
-7.21087
-5.38649
-3.99363
-2.93886
-2.14656
-1.5562
-1.11982
-0.799836
-0.567055
-0.399049
-0.278747
-0.193278
-0.133029
-0.0908885
-0.0616414
-0.0414994
-0.0277345
-0.0183997
-0.0121176
-0.00792202
-0.0051413
-0.00331228
-0.00211834
-0.00134486
-0.00084756
-0.000530234
-0.00032928
-0.000202981
-0.000124203
-7.54376e-05
-4.548e-05
-2.72172e-05
-1.61705e-05
-9.54321e-06
-5.60432e-06
-3.29324e-06
-1.96935e-06
-1.25583e-06
-9.45046e-07
-1665.99
-1650.62
-1620.41
-1576.32
-1519.76
-1452.41
-1376.13
-1292.92
-1204.75
-1113.53
-1021.04
-928.901
-838.537
-751.158
-667.759
-589.12
-515.818
-448.233
-386.574
-330.889
-281.096
-237.001
-198.32
-164.703
-135.755
-111.051
-90.159
-72.6455
-58.0929
-46.1054
-36.3158
-28.3894
-22.0259
-16.9603
-12.9615
-9.83115
-7.40087
-5.52962
-4.10058
-3.01813
-2.20484
-1.59871
-1.15059
-0.821929
-0.582795
-0.410177
-0.286554
-0.198713
-0.136784
-0.0934632
-0.0633934
-0.0426826
-0.0285276
-0.0189273
-0.012466
-0.00815037
-0.00528985
-0.0034082
-0.00217982
-0.00138398
-0.000872261
-0.000545718
-0.000338914
-0.000208931
-0.000127851
-7.76575e-05
-4.68209e-05
-2.80212e-05
-1.66491e-05
-9.82623e-06
-5.77088e-06
-3.39134e-06
-2.02816e-06
-1.29343e-06
-9.73403e-07
-1650.28
-1635.61
-1606.74
-1564.52
-1510.19
-1445.25
-1371.44
-1290.59
-1204.55
-1115.18
-1024.21
-933.24
-843.709
-756.854
-673.709
-595.1
-521.646
-453.774
-391.73
-335.6
-285.331
-240.751
-201.595
-167.528
-138.162
-113.08
-91.8506
-74.0413
-59.2332
-47.028
-37.0553
-28.9767
-22.4882
-17.321
-13.2405
-10.0451
-7.56359
-5.65233
-4.19237
-3.08623
-2.25496
-1.6353
-1.17709
-0.840974
-0.596375
-0.419784
-0.293298
-0.203411
-0.140032
-0.095691
-0.0649101
-0.0437074
-0.0292148
-0.0193847
-0.0127681
-0.00834846
-0.00541876
-0.00349147
-0.00223321
-0.00141795
-0.000893722
-0.000559174
-0.000347289
-0.000214105
-0.000131024
-7.95886e-05
-4.79876e-05
-2.87209e-05
-1.70657e-05
-1.00727e-05
-5.91592e-06
-3.47679e-06
-2.07944e-06
-1.32623e-06
-9.98095e-07
-1638.07
-1623.93
-1596.05
-1555.21
-1502.55
-1439.45
-1367.52
-1288.49
-1204.14
-1116.23
-1026.49
-936.485
-847.662
-761.273
-678.378
-599.834
-526.297
-458.225
-395.898
-339.429
-288.788
-243.825
-204.292
-169.862
-140.158
-114.767
-93.2609
-75.2079
-60.1884
-47.8026
-37.6774
-29.4717
-22.8785
-17.626
-13.4767
-10.2265
-7.70172
-5.75663
-4.27047
-3.14424
-2.2977
-1.66653
-1.19973
-0.857253
-0.60799
-0.428007
-0.299074
-0.207437
-0.142816
-0.0976023
-0.066212
-0.0445875
-0.0298052
-0.0197778
-0.0130279
-0.00851885
-0.00552969
-0.00356314
-0.00227917
-0.00144721
-0.000912211
-0.00057077
-0.000354508
-0.000218566
-0.00013376
-8.12543e-05
-4.89943e-05
-2.93248e-05
-1.74254e-05
-1.02854e-05
-6.04121e-06
-3.55062e-06
-2.12374e-06
-1.35458e-06
-1.01945e-06
-1628.61
-1614.85
-1587.7
-1547.9
-1496.49
-1434.79
-1364.29
-1286.67
-1203.62
-1116.88
-1028.12
-938.903
-850.67
-764.683
-682.02
-603.56
-529.984
-461.777
-399.242
-342.516
-291.589
-246.327
-206.494
-171.775
-141.799
-116.158
-94.4267
-76.1747
-60.982
-48.4473
-38.1962
-29.8853
-23.2051
-17.8816
-13.6751
-10.379
-7.81799
-5.84453
-4.33636
-3.19322
-2.33381
-1.69295
-1.2189
-0.871048
-0.61784
-0.434985
-0.303979
-0.210858
-0.145184
-0.0992283
-0.0673201
-0.0453369
-0.0303082
-0.0201129
-0.0132494
-0.00866418
-0.00562433
-0.00362432
-0.00231842
-0.00147221
-0.000928007
-0.00058068
-0.000360678
-0.00022238
-0.000136099
-8.26791e-05
-4.98555e-05
-2.98415e-05
-1.77332e-05
-1.04676e-05
-6.1485e-06
-3.61388e-06
-2.16166e-06
-1.37885e-06
-1.03776e-06
-1621.29
-1607.81
-1581.22
-1542.19
-1491.72
-1431.06
-1361.66
-1285.12
-1203.09
-1117.26
-1029.28
-940.698
-852.95
-767.304
-684.847
-606.476
-532.889
-464.592
-401.907
-344.988
-293.842
-248.347
-208.278
-173.33
-143.137
-117.296
-95.3826
-76.9693
-61.6355
-48.9795
-38.6253
-30.2279
-23.4762
-18.0941
-13.8401
-10.5061
-7.91502
-5.91796
-4.39147
-3.23424
-2.36409
-1.71511
-1.23499
-0.882639
-0.626123
-0.440858
-0.30811
-0.213741
-0.14718
-0.1006
-0.0682553
-0.0459697
-0.0307331
-0.020396
-0.0134367
-0.00878711
-0.00570441
-0.0036761
-0.00235165
-0.00149337
-0.000941388
-0.000589076
-0.000365908
-0.000225613
-0.000138083
-8.38876e-05
-5.0586e-05
-3.02799e-05
-1.79944e-05
-1.06222e-05
-6.23958e-06
-3.66753e-06
-2.19388e-06
-1.39949e-06
-1.05333e-06
-1615.64
-1602.38
-1576.19
-1537.74
-1487.98
-1428.11
-1359.54
-1283.83
-1202.58
-1117.46
-1030.1
-942.025
-854.671
-769.307
-687.029
-608.743
-535.163
-466.808
-404.016
-346.953
-295.64
-249.965
-209.713
-174.584
-144.219
-118.218
-96.1599
-77.617
-62.1695
-49.4151
-38.9772
-30.5094
-23.6992
-18.2692
-13.9764
-10.6112
-7.99531
-5.9788
-4.43718
-3.26829
-2.38924
-1.73354
-1.24839
-0.892298
-0.63303
-0.445758
-0.311559
-0.216149
-0.148849
-0.101747
-0.0690381
-0.0464996
-0.0310891
-0.0206334
-0.0135937
-0.00889022
-0.00577161
-0.00371956
-0.00237955
-0.00151115
-0.000952628
-0.000596132
-0.000370304
-0.000228331
-0.000139752
-8.49038e-05
-5.12006e-05
-3.06488e-05
-1.82143e-05
-1.07524e-05
-6.31625e-06
-3.71275e-06
-2.22103e-06
-1.41684e-06
-1.06645e-06
-1611.3
-1598.19
-1572.31
-1534.29
-1485.06
-1425.79
-1357.85
-1282.77
-1202.12
-1117.56
-1030.67
-943.002
-855.965
-770.832
-688.704
-610.498
-536.933
-468.542
-405.673
-348.504
-297.065
-251.252
-210.857
-175.588
-145.088
-118.961
-96.787
-78.1407
-62.6021
-49.7688
-39.2634
-30.7387
-23.8813
-18.4123
-14.0879
-10.6973
-8.06119
-6.02878
-4.47477
-3.29632
-2.40998
-1.74875
-1.25945
-0.900278
-0.638741
-0.449813
-0.314415
-0.218145
-0.150233
-0.102699
-0.0696877
-0.0469396
-0.0313849
-0.0208306
-0.0137243
-0.00897598
-0.00582752
-0.00375573
-0.00240278
-0.00152595
-0.000961993
-0.000602011
-0.000373967
-0.000230597
-0.000141143
-8.57513e-05
-5.17131e-05
-3.09565e-05
-1.83976e-05
-1.08609e-05
-6.38022e-06
-3.75051e-06
-2.24369e-06
-1.43137e-06
-1.07739e-06
-1607.97
-1594.98
-1569.32
-1531.62
-1482.79
-1423.97
-1356.52
-1281.91
-1201.73
-1117.59
-1031.08
-943.72
-856.933
-771.987
-689.985
-611.847
-538.302
-469.89
-406.967
-349.721
-298.186
-252.268
-211.764
-176.385
-145.779
-119.553
-97.2888
-78.5607
-62.9498
-50.0536
-39.4942
-30.924
-24.0286
-18.5283
-14.1784
-10.7673
-8.11481
-6.06951
-4.50543
-3.31921
-2.42692
-1.76119
-1.2685
-0.906817
-0.643425
-0.45314
-0.31676
-0.219785
-0.15137
-0.103482
-0.0702225
-0.047302
-0.0316285
-0.0209932
-0.0138319
-0.00904673
-0.00587366
-0.00378559
-0.00242196
-0.00153818
-0.000969729
-0.000606869
-0.000376995
-0.00023247
-0.000142293
-8.64522e-05
-5.21371e-05
-3.1211e-05
-1.85493e-05
-1.09508e-05
-6.43317e-06
-3.78172e-06
-2.26244e-06
-1.44337e-06
-1.08645e-06
-1605.43
-1592.53
-1567.04
-1529.58
-1481.05
-1422.56
-1355.47
-1281.22
-1201.39
-1117.57
-1031.35
-944.244
-857.655
-772.858
-690.958
-612.879
-539.355
-470.932
-407.972
-350.668
-299.062
-253.064
-212.476
-177.013
-146.326
-120.023
-97.6874
-78.8949
-63.227
-50.2811
-39.679
-31.0726
-24.1469
-18.6216
-14.2512
-10.8237
-8.15809
-6.10241
-4.53024
-3.33775
-2.44066
-1.77128
-1.27586
-0.912131
-0.647234
-0.455848
-0.31867
-0.221121
-0.152298
-0.104121
-0.070659
-0.0475979
-0.0318276
-0.0211261
-0.01392
-0.00910461
-0.00591141
-0.00381003
-0.00243766
-0.00154819
-0.000976067
-0.00061085
-0.000379477
-0.000234005
-0.000143236
-8.70269e-05
-5.24847e-05
-3.14198e-05
-1.86738e-05
-1.10245e-05
-6.47659e-06
-3.80733e-06
-2.2778e-06
-1.45323e-06
-1.09394e-06
-1603.5
-1590.66
-1565.3
-1528.02
-1479.71
-1421.48
-1354.65
-1280.68
-1201.11
-1117.55
-1031.55
-944.625
-858.19
-773.511
-691.694
-613.664
-540.16
-471.732
-408.745
-351.4
-299.742
-253.684
-213.033
-177.505
-146.755
-120.392
-98.0014
-79.1589
-63.4463
-50.4614
-39.8257
-31.1907
-24.2411
-18.696
-14.3094
-10.8688
-8.19273
-6.12879
-4.55014
-3.35264
-2.4517
-1.7794
-1.28178
-0.916414
-0.650306
-0.458034
-0.320213
-0.222201
-0.153048
-0.104638
-0.0710124
-0.0478377
-0.031989
-0.0212339
-0.0139914
-0.00915157
-0.00594206
-0.00382988
-0.00245042
-0.00155633
-0.000981216
-0.000614085
-0.000381494
-0.000235254
-0.000144002
-8.74941e-05
-5.27674e-05
-3.15896e-05
-1.8775e-05
-1.10844e-05
-6.5119e-06
-3.82817e-06
-2.29034e-06
-1.46127e-06
-1.09999e-06
-1602.04
-1589.25
-1563.98
-1526.83
-1478.68
-1420.64
-1354.02
-1280.25
-1200.89
-1117.51
-1031.68
-944.901
-858.586
-773.999
-692.247
-614.258
-540.772
-472.342
-409.338
-351.963
-300.265
-254.163
-213.464
-177.888
-147.089
-120.681
-98.247
-79.3657
-63.6185
-50.6032
-39.9413
-31.2839
-24.3155
-18.7549
-14.3555
-10.9045
-8.22025
-6.14976
-4.56598
-3.3645
-2.4605
-1.78588
-1.28651
-0.919838
-0.652764
-0.459784
-0.321449
-0.223067
-0.15365
-0.105053
-0.0712962
-0.0480303
-0.0321187
-0.0213205
-0.0140488
-0.00918935
-0.00596672
-0.00384586
-0.00246069
-0.00156288
-0.000985365
-0.000616692
-0.00038312
-0.00023626
-0.00014462
-8.78709e-05
-5.29954e-05
-3.17265e-05
-1.88566e-05
-1.11328e-05
-6.54041e-06
-3.84497e-06
-2.30044e-06
-1.46772e-06
-1.10488e-06
-1600.94
-1588.19
-1562.99
-1525.94
-1477.91
-1420.01
-1353.53
-1279.92
-1200.71
-1117.47
-1031.77
-945.101
-858.877
-774.362
-692.661
-614.704
-541.234
-472.804
-409.789
-352.392
-300.666
-254.531
-213.796
-178.182
-147.348
-120.904
-98.4376
-79.5265
-63.7526
-50.7138
-40.0316
-31.3569
-24.3738
-18.8011
-14.3918
-10.9327
-8.24192
-6.16629
-4.57848
-3.37387
-2.46747
-1.79101
-1.29026
-0.922553
-0.654715
-0.461174
-0.322431
-0.223756
-0.154129
-0.105383
-0.0715223
-0.0481837
-0.0322221
-0.0213896
-0.0140946
-0.00921951
-0.00598642
-0.00385862
-0.0024689
-0.00156812
-0.000988681
-0.000618776
-0.000384419
-0.000237064
-0.000145114
-8.81722e-05
-5.31777e-05
-3.18359e-05
-1.89219e-05
-1.11714e-05
-6.5632e-06
-3.85842e-06
-2.30848e-06
-1.47287e-06
-1.10881e-06
-1600.12
-1587.39
-1562.24
-1525.26
-1477.33
-1419.53
-1353.16
-1279.66
-1200.56
-1117.43
-1031.82
-945.244
-859.091
-774.63
-692.969
-615.038
-541.581
-473.153
-410.13
-352.718
-300.971
-254.811
-214.049
-178.408
-147.546
-121.075
-98.5844
-79.6506
-63.8563
-50.7995
-40.1016
-31.4135
-24.4192
-18.837
-14.42
-10.9547
-8.25886
-6.17923
-4.58828
-3.38122
-2.47293
-1.79504
-1.2932
-0.924689
-0.65625
-0.462269
-0.323205
-0.224299
-0.154507
-0.105644
-0.0717008
-0.0483051
-0.0323038
-0.0214443
-0.0141309
-0.00924339
-0.00600201
-0.00386873
-0.0024754
-0.00157227
-0.000991309
-0.000620427
-0.000385449
-0.000237702
-0.000145506
-8.8411e-05
-5.33222e-05
-3.19227e-05
-1.89737e-05
-1.12021e-05
-6.58129e-06
-3.86908e-06
-2.31487e-06
-1.47697e-06
-1.11187e-06
-1599.51
-1586.8
-1561.68
-1524.76
-1476.89
-1419.17
-1352.88
-1279.47
-1200.45
-1117.4
-1031.86
-945.347
-859.246
-774.827
-693.197
-615.287
-541.84
-473.414
-410.386
-352.963
-301.202
-255.024
-214.241
-178.58
-147.697
-121.206
-98.6967
-79.7456
-63.9359
-50.8653
-40.1555
-31.4572
-24.4542
-18.8648
-14.4419
-10.9717
-8.27199
-6.18927
-4.59589
-3.38693
-2.47719
-1.79818
-1.2955
-0.926356
-0.657449
-0.463125
-0.323811
-0.224724
-0.154802
-0.105848
-0.0718408
-0.0484002
-0.0323679
-0.0214872
-0.0141594
-0.00926213
-0.00601426
-0.00387667
-0.0024805
-0.00157553
-0.000993374
-0.000621726
-0.000386259
-0.000238203
-0.000145814
-8.85988e-05
-5.34358e-05
-3.19909e-05
-1.90143e-05
-1.12262e-05
-6.59548e-06
-3.87743e-06
-2.31991e-06
-1.4802e-06
-1.11429e-06
-1599.05
-1586.36
-1561.27
-1524.39
-1476.56
-1418.9
-1352.67
-1279.32
-1200.37
-1117.37
-1031.89
-945.42
-859.359
-774.971
-693.365
-615.47
-542.032
-473.608
-410.577
-353.147
-301.374
-255.183
-214.386
-178.709
-147.811
-121.306
-98.7819
-79.8179
-63.9965
-50.9155
-40.1966
-31.4906
-24.481
-18.8861
-14.4587
-10.9848
-8.2821
-6.197
-4.60175
-3.39134
-2.48047
-1.80061
-1.29728
-0.927646
-0.658378
-0.463788
-0.32428
-0.225054
-0.155032
-0.106007
-0.0719496
-0.0484741
-0.0324178
-0.0215206
-0.0141815
-0.00927673
-0.0060238
-0.00388286
-0.00248449
-0.00157807
-0.000994985
-0.000622738
-0.000386891
-0.000238594
-0.000146054
-8.87453e-05
-5.35244e-05
-3.20442e-05
-1.9046e-05
-1.12449e-05
-6.60653e-06
-3.88397e-06
-2.32384e-06
-1.4827e-06
-1.11618e-06
-1598.72
-1586.03
-1560.97
-1524.11
-1476.32
-1418.69
-1352.51
-1279.21
-1200.3
-1117.35
-1031.91
-945.472
-859.44
-775.077
-693.488
-615.605
-542.174
-473.752
-410.719
-353.284
-301.503
-255.302
-214.495
-178.806
-147.897
-121.38
-98.8461
-79.8724
-64.0422
-50.9535
-40.2278
-31.5159
-24.5014
-18.9023
-14.4714
-10.9948
-8.28981
-6.20291
-4.60624
-3.39472
-2.48299
-1.80247
-1.29864
-0.928636
-0.659092
-0.464298
-0.324642
-0.225307
-0.155209
-0.106129
-0.0720335
-0.0485312
-0.0324563
-0.0215464
-0.0141987
-0.00928801
-0.00603118
-0.00388764
-0.00248756
-0.00158003
-0.00099623
-0.000623521
-0.000387379
-0.000238897
-0.00014624
-8.88585e-05
-5.35929e-05
-3.20853e-05
-1.90706e-05
-1.12594e-05
-6.61509e-06
-3.88904e-06
-2.32686e-06
-1.48459e-06
-1.11763e-06
-1598.47
-1585.8
-1560.74
-1523.91
-1476.14
-1418.55
-1352.4
-1279.13
-1200.25
-1117.33
-1031.92
-945.508
-859.499
-775.153
-693.578
-615.704
-542.278
-473.858
-410.824
-353.384
-301.598
-255.39
-214.575
-178.878
-147.96
-121.436
-98.8942
-79.9133
-64.0766
-50.9821
-40.2513
-31.535
-24.5167
-18.9146
-14.4811
-11.0023
-8.29565
-6.20739
-4.60964
-3.39728
-2.4849
-1.80388
-1.29968
-0.929391
-0.659636
-0.464687
-0.324917
-0.225501
-0.155344
-0.106223
-0.0720976
-0.0485749
-0.0324858
-0.0215661
-0.0142118
-0.00929666
-0.00603683
-0.0038913
-0.00248992
-0.00158154
-0.000997185
-0.000624122
-0.000387754
-0.000239129
-0.000146382
-8.89454e-05
-5.36454e-05
-3.21168e-05
-1.90894e-05
-1.12706e-05
-6.62164e-06
-3.89289e-06
-2.32917e-06
-1.4861e-06
-1.11872e-06
-1598.3
-1585.62
-1560.58
-1523.76
-1476.01
-1418.44
-1352.31
-1279.06
-1200.21
-1117.32
-1031.92
-945.534
-859.54
-775.208
-693.642
-615.776
-542.353
-473.935
-410.9
-353.458
-301.668
-255.456
-214.635
-178.932
-148.008
-121.478
-98.9298
-79.9437
-64.1022
-51.0034
-40.2688
-31.5493
-24.5282
-18.9238
-14.4883
-11.008
-8.30004
-6.21076
-4.6122
-3.39921
-2.48634
-1.80495
-1.30046
-0.929962
-0.660048
-0.464981
-0.325126
-0.225648
-0.155447
-0.106294
-0.0721463
-0.048608
-0.0325082
-0.0215811
-0.0142217
-0.00930323
-0.00604113
-0.00389409
-0.00249172
-0.00158269
-0.000997912
-0.000624579
-0.000388039
-0.000239305
-0.000146491
-8.90115e-05
-5.36854e-05
-3.21408e-05
-1.91037e-05
-1.1279e-05
-6.62663e-06
-3.89582e-06
-2.33093e-06
-1.48723e-06
-1.11957e-06
-1598.17
-1585.5
-1560.46
-1523.65
-1475.92
-1418.36
-1352.25
-1279.02
-1200.18
-1117.3
-1031.93
-945.552
-859.57
-775.247
-693.689
-615.828
-542.408
-473.991
-410.956
-353.512
-301.72
-255.503
-214.678
-178.971
-148.043
-121.508
-98.9561
-79.9661
-64.1211
-51.0191
-40.2818
-31.5598
-24.5368
-18.9306
-14.4937
-11.0122
-8.30331
-6.21328
-4.61412
-3.40065
-2.48742
-1.80575
-1.30105
-0.93039
-0.660357
-0.465202
-0.325283
-0.225759
-0.155524
-0.106347
-0.072183
-0.048633
-0.0325251
-0.0215924
-0.0142293
-0.00930818
-0.00604437
-0.0038962
-0.00249307
-0.00158355
-0.00099846
-0.000624923
-0.000388254
-0.000239438
-0.000146573
-8.90613e-05
-5.37156e-05
-3.21589e-05
-1.91144e-05
-1.12854e-05
-6.63035e-06
-3.89806e-06
-2.33228e-06
-1.48808e-06
-1.12021e-06
-1598.07
-1585.41
-1560.38
-1523.57
-1475.85
-1418.3
-1352.2
-1278.99
-1200.16
-1117.3
-1031.93
-945.565
-859.591
-775.275
-693.722
-615.865
-542.448
-474.032
-410.996
-353.551
-301.757
-255.538
-214.71
-179
-148.068
-121.53
-98.9754
-79.9826
-64.1349
-51.0307
-40.2913
-31.5676
-24.5431
-18.9356
-14.4977
-11.0153
-8.30574
-6.21514
-4.61554
-3.40173
-2.48823
-1.80634
-1.30149
-0.930708
-0.660587
-0.465367
-0.3254
-0.225841
-0.155582
-0.106387
-0.0722104
-0.0486517
-0.0325377
-0.0216009
-0.0142349
-0.00931189
-0.00604679
-0.00389777
-0.00249409
-0.0015842
-0.000998871
-0.000625182
-0.000388415
-0.000239538
-0.000146634
-8.90986e-05
-5.37381e-05
-3.21725e-05
-1.91225e-05
-1.12902e-05
-6.63316e-06
-3.89968e-06
-2.33327e-06
-1.48871e-06
-1.12068e-06
-1598.01
-1585.34
-1560.32
-1523.52
-1475.8
-1418.26
-1352.17
-1278.96
-1200.15
-1117.29
-1031.93
-945.573
-859.606
-775.295
-693.746
-615.891
-542.476
-474.061
-411.025
-353.58
-301.783
-255.563
-214.733
-179.02
-148.086
-121.546
-98.9894
-79.9945
-64.1451
-51.0391
-40.2983
-31.5733
-24.5477
-18.9393
-14.5006
-11.0176
-8.30752
-6.21651
-4.61658
-3.40252
-2.48882
-1.80678
-1.30181
-0.930943
-0.660757
-0.465489
-0.325487
-0.225902
-0.155624
-0.106416
-0.0722307
-0.0486655
-0.032547
-0.0216071
-0.0142391
-0.00931464
-0.0060486
-0.00389894
-0.00249484
-0.00158468
-0.000999176
-0.000625373
-0.000388535
-0.000239612
-0.000146679
-8.91263e-05
-5.37548e-05
-3.21825e-05
-1.91285e-05
-1.12937e-05
-6.63524e-06
-3.90091e-06
-2.33401e-06
-1.48916e-06
-1.12103e-06
-1597.96
-1585.3
-1560.27
-1523.48
-1475.77
-1418.23
-1352.15
-1278.95
-1200.14
-1117.28
-1031.93
-945.579
-859.616
-775.309
-693.763
-615.91
-542.496
-474.081
-411.046
-353.6
-301.803
-255.581
-214.749
-179.035
-148.1
-121.558
-98.9995
-80.0032
-64.1524
-51.0453
-40.3034
-31.5775
-24.551
-18.942
-14.5028
-11.0193
-8.30881
-6.21751
-4.61734
-3.40309
-2.48925
-1.8071
-1.30204
-0.931116
-0.660881
-0.465578
-0.32555
-0.225947
-0.155655
-0.106438
-0.0722456
-0.0486757
-0.0325539
-0.0216117
-0.0142421
-0.00931667
-0.00604992
-0.0038998
-0.0024954
-0.00158504
-0.0009994
-0.000625514
-0.000388623
-0.000239666
-0.000146713
-8.91466e-05
-5.37671e-05
-3.21898e-05
-1.91328e-05
-1.12963e-05
-6.6368e-06
-3.90181e-06
-2.33452e-06
-1.48951e-06
-1.1213e-06
-1597.92
-1585.26
-1560.24
-1523.45
-1475.74
-1418.21
-1352.13
-1278.93
-1200.13
-1117.28
-1031.93
-945.583
-859.623
-775.318
-693.775
-615.923
-542.51
-474.096
-411.06
-353.614
-301.816
-255.593
-214.761
-179.046
-148.109
-121.566
-99.0067
-80.0094
-64.1576
-51.0496
-40.307
-31.5805
-24.5534
-18.9439
-14.5043
-11.0205
-8.30975
-6.21823
-4.6179