/*--------------------------------*- C++ -*----------------------------------*\
  =========                 |
  \\      /  F ield         | OpenFOAM: The Open Source CFD Toolbox
   \\    /   O peration     | Website:  https://openfoam.org
    \\  /    A nd           | Version:  10
     \\/     M anipulation  |
\*---------------------------------------------------------------------------*/
FoamFile
{
    format      ascii;
    class       volScalarField;
    location    "1350";
    object      gradTx;
}
// * * * * * * * * * * * * * * * * * * * * * * * * * * * * * * * * * * * * * //

dimensions      [0 -1 0 1 0 0 0];

internalField   nonuniform List<scalar> 
11250
(
14318
8158.38
5400.16
3951.87
3086.72
2517.25
2114.69
1814.65
1581.87
1395.55
1242.67
1114.68
1005.74
911.729
829.661
757.313
693.003
635.432
583.582
536.641
493.959
455.003
419.333
386.586
356.454
328.676
303.03
279.322
257.386
237.074
218.256
200.817
184.654
169.673
155.79
142.927
131.015
119.988
109.787
100.355
91.6407
83.5965
76.1768
69.3394
63.0446
57.255
51.9356
47.0535
42.5775
38.4784
34.7286
31.3022
28.1748
25.3233
22.7263
20.3633
18.2154
16.2645
14.4938
12.8876
11.431
10.1101
8.91195
7.82417
6.83528
5.93442
5.11136
4.35642
3.66041
3.01458
2.41058
1.84036
1.29615
0.770358
0.255567
4113.83
4756.99
4090.34
3368.85
2791.22
2350.56
2012.41
1747.67
1535.72
1362.45
1218.15
1096.03
991.235
900.239
820.414
749.769
686.777
630.24
579.213
532.937
490.796
452.286
416.987
384.55
354.68
327.125
301.668
278.124
256.329
236.139
217.428
200.082
184
169.091
155.272
142.465
130.603
119.62
109.458
100.061
91.3781
83.3618
75.967
69.1519
62.8771
57.1054
51.8021
46.9343
42.4712
38.3836
34.6442
31.227
28.1079
25.2639
22.6736
20.3166
18.1739
16.2278
14.4614
12.859
11.4059
10.0881
8.89264
7.80733
6.82066
5.9218
5.10055
4.34724
3.65273
3.00828
2.40556
1.83654
1.29346
0.768762
0.255038
1494.15
2665.46
2835.45
2642.12
2358.9
2081.56
1836.96
1628.17
1451.21
1300.73
1171.82
1060.45
963.36
878.03
802.458
735.067
674.605
620.065
570.635
525.651
484.566
446.927
412.354
380.526
351.17
324.052
298.971
275.749
254.232
234.284
215.783
198.622
182.702
167.935
154.241
141.546
129.783
118.888
108.803
99.4761
90.8555
82.8946
75.5495
68.7788
62.5436
56.8075
51.5361
46.6969
42.2594
38.1948
34.476
31.0773
27.9747
25.1455
22.5684
20.2233
18.0913
16.1547
14.3969
12.8021
11.3558
10.0441
8.85415
7.77376
6.79151
5.89663
5.07898
4.32895
3.63742
2.99572
2.39554
1.82891
1.2881
0.765579
0.253983
691.463
1575.3
1943.99
2005.41
1920.88
1780.03
1625.93
1477.13
1340.52
1217.77
1108.35
1010.97
924.156
846.512
776.792
713.929
657.02
605.306
558.15
515.015
475.45
439.07
405.548
374.605
346
319.521
294.988
272.238
251.13
231.537
213.347
196.458
180.777
166.221
152.712
140.182
128.564
117.799
107.831
98.6067
90.0782
82.1997
74.9282
68.2233
62.0472
56.364
51.14
46.3434
41.944
37.9135
34.2253
30.8541
27.7762
24.9691
22.4117
20.0843
17.9682
16.0458
14.3006
12.7172
11.2811
9.97853
8.79674
7.72368
6.74803
5.85909
5.04681
4.30165
3.61458
2.97697
2.3806
1.81753
1.2801
0.76083
0.252408
387.884
1000.36
1359.89
1514.78
1539.35
1491.98
1409.83
1314.17
1216.3
1121.81
1033.2
951.319
876.208
807.516
744.738
687.325
634.747
586.513
542.18
501.359
463.706
428.919
396.734
366.921
339.276
313.619
289.792
267.652
247.074
227.942
210.155
193.62
178.25
163.968
150.703
138.388
126.962
116.367
106.55
97.4616
89.054
81.2836
74.1089
67.4908
61.3924
55.7788
50.6173
45.8766
41.5275
37.5421
33.8943
30.5593
27.5139
24.7359
22.2046
19.9006
17.8054
15.9017
14.1734
12.605
11.1823
9.89179
8.72081
7.65745
6.6905
5.80942
5.00425
4.26554
3.58436
2.95217
2.36083
1.80247
1.26951
0.754545
0.250324
247.612
678.432
980.508
1154.62
1229.93
1238.9
1207.49
1153.69
1088.99
1020.31
951.684
885.296
822.26
763.051
707.783
656.373
608.635
564.336
523.232
485.08
449.649
416.726
386.115
357.639
331.135
306.458
283.476
262.069
242.128
223.553
206.254
190.147
175.155
161.208
148.238
136.186
124.993
114.607
104.975
96.0524
87.7931
80.1554
73.0995
66.5879
60.5849
55.057
49.9723
45.3006
41.0133
37.0835
33.4855
30.1952
27.1898
24.4477
21.9487
19.6735
17.6042
15.7236
14.016
12.4662
11.0601
9.78449
8.62686
7.57549
6.61933
5.74796
4.95157
4.22085
3.54695
2.92147
2.33635
1.78383
1.2564
0.746765
0.247745
171.764
485.303
729.191
893.38
987.008
1026.39
1027.78
1004.4
965.946
919.107
868.292
816.313
764.901
715.085
667.434
622.231
579.582
539.481
501.861
466.619
433.634
402.778
373.924
346.948
321.733
298.168
276.149
255.579
236.368
218.434
201.697
186.086
171.532
157.972
145.347
133.6
122.68
112.536
103.122
94.3933
86.3077
78.8256
71.9092
65.5227
59.632
54.2049
49.2106
44.6201
40.4057
36.5413
33.0021
29.7645
26.8064
24.1068
21.6458
19.4047
17.3659
15.5127
13.8296
12.3018
10.9153
9.65736
8.51554
7.47836
6.53496
5.67511
4.88913
4.16786
3.50261
2.88507
2.30733
1.76172
1.24086
0.737538
0.244686
125.921
361.882
557.665
702.836
798.497
852.092
873.086
870.445
851.592
822.208
786.425
747.147
706.361
665.389
625.093
586.013
548.474
512.655
478.636
446.437
416.034
387.379
360.411
335.057
311.242
288.891
267.929
248.282
229.881
212.657
196.547
181.489
167.425
154.3
142.062
130.66
120.047
110.178
101.01
92.5006
84.612
77.3066
70.5488
64.3047
58.5418
53.2295
48.3384
43.8406
39.7095
35.9199
32.4478
29.2705
26.3666
23.7155
21.2981
19.0961
17.0923
15.2705
13.6155
12.1128
10.749
9.51125
8.38758
7.3667
6.43797
5.59134
4.81732
4.10692
3.4516
2.84321
2.27394
1.73629
1.22298
0.726924
0.241166
95.9793
278.695
436.842
561.931
652.215
710.59
742.254
752.968
748.067
732.033
708.407
679.874
648.413
615.449
581.987
548.726
516.137
484.532
454.11
424.986
397.222
370.84
345.833
322.179
299.842
278.78
258.945
240.288
222.757
206.301
190.87
176.413
162.884
150.235
138.421
127.397
117.122
107.556
98.6583
90.3924
82.7219
75.6124
69.0305
62.9444
57.3237
52.1391
47.3629
42.9684
38.9301
35.224
31.8269
28.717
25.8735
23.2768
20.9081
18.7498
16.7853
14.9986
13.3751
11.9007
10.5622
9.34713
8.24383
7.24124
6.32897
5.49718
4.7366
4.03841
3.39425
2.79613
2.2364
1.70769
1.20287
0.714987
0.237209
75.2985
220.131
349.17
455.957
538.003
595.997
632.601
651.367
655.969
649.775
635.646
615.905
592.37
566.431
539.128
511.231
483.297
455.725
428.795
402.698
377.561
353.461
330.445
308.529
287.714
267.987
249.328
231.707
215.091
199.447
184.736
170.92
157.962
145.821
134.462
123.845
113.935
104.695
96.0909
88.0883
80.6546
73.7578
67.3673
61.4535
55.9877
50.9426
46.2919
42.0103
38.0736
34.4589
31.144
28.108
25.3309
22.7938
20.4786
18.3684
16.4469
14.699
13.1101
11.6668
10.3561
9.16608
8.08521
7.10278
6.20866
5.39325
4.64749
3.96277
3.33093
2.74414
2.19494
1.67611
1.18067
0.701802
0.232837
60.4008
177.413
283.839
374.85
448.004
502.986
541.014
564.187
574.957
575.768
568.845
556.103
539.129
519.195
497.304
474.232
450.571
426.767
403.15
379.964
357.383
335.531
314.49
294.315
275.036
256.666
239.207
222.651
206.982
192.179
178.218
165.072
152.711
141.106
130.226
120.04
110.516
101.623
93.3311
85.6093
78.4282
71.759
65.5734
59.8442
54.5447
49.6494
45.1337
40.9736
37.1465
33.6302
30.404
27.4478
24.7425
22.2698
20.0126
17.9544
16.0796
14.3735
12.8222
11.4126
10.1322
8.96925
7.91274
6.95221
6.0778
5.28018
4.55053
3.88046
3.26201
2.68756
2.14981
1.64173
1.15649
0.687448
0.228078
49.3101
145.335
234.01
311.724
376.333
427.12
464.504
489.664
504.189
509.807
508.201
500.9
489.236
474.328
457.093
438.274
418.457
398.103
377.57
357.131
336.992
317.31
298.197
279.734
261.978
244.963
228.712
213.232
198.524
184.58
171.388
158.931
147.188
136.138
125.757
116.018
106.898
98.3685
90.4036
82.9769
76.0619
69.6326
63.6634
58.1294
53.006
48.2696
43.8971
39.8662
36.1555
32.7441
29.6124
26.7412
24.1124
21.7085
19.5132
17.5105
15.6856
14.0244
12.5133
11.1398
9.89176
8.7579
7.7275
6.79046
5.93719
5.15867
4.44631
3.79198
3.18792
2.62672
2.10128
1.60475
1.13049
0.672011
0.222959
40.8322
120.659
195.231
261.822
318.637
364.845
400.437
426.025
442.607
451.379
453.586
450.421
442.971
432.191
418.892
403.756
387.338
370.093
352.382
334.492
316.651
299.032
281.77
264.967
248.698
233.017
217.962
203.555
189.81
176.731
164.317
152.559
141.447
130.964
121.094
111.817
103.113
94.9591
87.3335
80.2131
73.5749
67.3956
61.6524
56.3225
51.3835
46.8135
42.5913
38.6961
35.1077
31.8068
28.7745
25.993
23.4449
21.1137
18.9837
17.0398
15.2677
13.6538
12.1854
10.8501
9.63636
8.53333
7.53064
6.61851
5.7877
5.02946
4.33547
3.69786
3.10909
2.56199
2.04964
1.56541
1.10282
0.655581
0.217511
34.2088
101.289
164.518
221.813
271.702
313.367
346.59
371.635
389.108
399.818
404.669
404.577
400.413
392.969
382.947
370.952
357.498
343.012
327.848
312.294
296.581
280.898
265.39
250.175
235.341
220.956
207.07
193.72
180.928
168.71
157.074
146.018
135.54
125.631
116.28
107.473
99.193
91.4236
84.1458
77.3402
70.9869
65.0655
59.5557
54.4369
49.6889
45.2916
41.2256
37.4714
34.0105
30.8245
27.8961
25.2081
22.7443
20.4891
18.4275
16.5451
14.8283
13.2642
11.8404
10.5452
9.36755
8.2969
7.32332
6.43739
5.6302
4.89329
4.21865
3.59864
3.02599
2.49373
1.99519
1.52391
1.07363
0.638252
0.211765
28.9393
85.8222
139.82
189.326
233.139
270.511
301.13
325.058
342.639
354.41
361.017
363.152
361.501
356.713
349.381
340.034
329.131
317.065
304.172
290.729
276.968
263.079
249.215
235.5
222.035
208.895
196.141
183.818
171.96
160.59
149.722
139.365
129.52
120.185
111.355
103.021
95.17
87.7899
80.8653
74.3801
68.3174
62.6595
57.3885
52.4862
47.9343
43.7146
39.8093
36.2006
32.8711
29.804
26.9828
24.3917
22.0153
19.8388
17.8481
16.0296
14.3703
12.8579
11.4805
10.2271
9.08693
8.05001
7.10677
6.24816
5.46561
4.75097
4.09652
3.49489
2.93908
2.42234
1.93823
1.4805
1.0431
0.620121
0.205752
24.6817
73.289
119.696
162.646
201.161
234.582
262.567
285.062
302.242
314.453
322.15
325.849
326.084
323.38
318.23
311.087
302.355
292.391
281.5
269.948
257.957
245.714
233.374
221.064
208.89
196.935
185.265
173.934
162.982
152.438
142.323
132.652
123.433
114.669
106.358
98.4952
91.0744
84.0852
77.5162
71.3543
65.5854
60.1945
55.166
50.4837
46.1315
42.093
38.3518
34.8918
31.6969
28.7516
26.0405
23.5489
21.2623
19.1668
17.2491
15.4964
13.8963
12.4372
11.1078
9.89747
8.79611
7.79407
6.88222
6.05189
5.29485
4.60328
3.96976
3.3872
2.84884
2.34821
1.87907
1.43541
1.01139
0.601288
0.199507
21.196
63.0042
103.107
140.512
174.419
204.259
229.695
250.609
267.07
279.291
287.587
292.339
293.958
292.863
289.461
284.135
277.234
269.075
259.936
250.061
239.66
228.914
217.974
206.968
196.003
185.164
174.525
164.142
154.06
144.315
134.933
125.932
117.326
109.122
101.323
93.929
86.9351
80.3355
74.1217
68.2835
62.8095
57.6871
52.9028
48.4427
44.2924
40.4372
36.8624
33.5533
30.4953
27.6738
25.0749
22.6847
20.4897
18.477
16.6339
14.9485
13.4091
12.0046
10.7244
9.55828
8.49673
7.53051
6.65092
5.84966
5.11886
4.45103
3.83906
3.27613
2.75577
2.27173
1.81804
1.38889
0.978659
0.581853
0.193062
18.3097
54.4715
89.2929
121.982
151.883
178.507
201.539
220.832
236.387
248.328
256.866
262.281
264.887
265.014
262.995
259.151
253.78
247.16
239.54
231.142
222.16
212.764
203.101
193.295
183.451
173.659
163.99
154.506
145.255
136.276
127.6
119.249
111.24
103.583
96.2866
89.3523
82.7796
76.5654
70.7039
65.1876
60.0074
55.1531
50.6132
46.3757
42.4281
38.7573
35.3501
32.1932
29.2733
26.5771
24.0916
21.8041
19.702
17.7733
16.0061
14.3891
12.9114
11.5625
10.3323
9.21136
8.19041
7.26076
6.4141
5.64255
4.93857
4.29503
3.7051
3.16228
2.66034
2.19331
1.75544
1.34117
0.94509
0.561916
0.186451
15.8959
47.3246
77.6868
106.344
132.757
156.508
177.311
195.009
209.562
221.032
229.559
235.344
238.625
239.662
238.724
236.076
231.974
226.657
220.344
213.236
205.511
197.326
188.819
180.109
171.3
162.479
153.719
145.082
136.618
128.37
120.37
112.644
105.211
98.0858
91.2781
84.7932
78.6334
72.7979
67.2835
62.0852
57.196
52.6076
48.3106
44.2949
40.5495
37.063
33.8235
30.8191
28.0378
25.4674
23.0961
20.912
18.9036
17.0596
15.3689
13.8211
12.4058
11.1132
9.93378
8.85852
7.87875
6.98621
6.173
5.43162
4.75492
4.13607
3.56858
3.04622
2.56304
2.11334
1.6916
1.2925
0.910846
0.541578
0.179706
13.8598
41.288
67.8584
93.0522
116.423
137.615
156.372
172.539
186.054
196.936
205.276
211.214
214.929
216.626
216.519
214.829
211.769
207.546
202.353
196.366
189.746
182.639
175.173
167.46
159.599
151.675
143.76
135.916
128.195
120.638
113.281
106.152
99.2733
92.6604
86.3258
80.2774
74.5196
69.0541
63.8798
58.9937
54.3908
50.0647
46.0079
42.2118
38.667
35.3635
32.2909
29.4385
26.7955
24.3508
22.0937
20.0132
18.0986
16.3396
14.7258
13.2475
11.895
10.659
9.53072
8.50155
7.56332
6.70823
5.92881
5.21793
4.5688
3.97494
3.43015
2.92851
2.46435
2.03221
1.62683
1.24311
0.876094
0.520936
0.17286
12.1292
36.1516
59.4775
81.6817
102.393
121.309
138.203
152.926
165.405
175.635
183.666
189.598
193.564
195.722
196.245
195.311
193.103
189.793
185.551
180.532
174.881
168.73
162.195
155.383
148.386
141.286
134.153
127.047
120.02
113.115
106.367
99.8065
93.4561
87.3343
81.4549
75.8279
70.4595
65.3534
60.5103
55.9291
51.6064
47.5377
43.717
40.1371
36.7902
33.6675
30.7601
28.0584
25.5526
23.2329
21.0894
19.112
17.2911
15.6169
14.0799
12.6711
11.3814
10.2022
9.12513
8.14217
7.24565
6.42817
5.6827
5.00248
4.3811
3.81239
3.29047
2.80972
2.36473
1.9503
1.56142
1.19323
0.840995
0.500087
0.165946
10.6486
31.7528
52.2866
71.8993
90.2806
107.173
122.376
135.754
147.227
156.774
164.42
170.233
174.31
176.773
177.761
177.419
175.898
173.347
169.91
165.723
160.916
155.606
149.902
143.9
137.687
131.34
124.926
118.505
112.125
105.83
99.6558
93.6324
87.7843
82.1309
76.6873
71.465
66.4719
61.7131
57.191
52.9059
48.8562
45.0387
41.4488
38.0808
34.928
31.9833
29.2385
26.6854
24.3152
22.119
20.0879
18.2128
16.4847
14.8948
13.4343
12.0946
10.8675
9.74483
8.71886
7.78205
6.92717
6.1473
5.43579
4.78627
4.19267
3.64916
3.15018
2.69037
2.26462
1.86797
1.49567
1.14309
0.805707
0.479125
0.158993
9.37436
27.964
46.0831
63.4401
79.7748
94.867
108.542
120.675
131.187
140.047
147.262
152.876
156.961
159.609
160.93
161.044
160.075
158.148
155.388
151.913
147.838
143.268
138.3
133.023
127.518
121.857
116.103
110.312
104.532
98.8064
93.1698
87.6524
82.2792
77.0703
72.042
67.2066
62.5733
58.1485
53.936
49.9372
46.152
42.5785
39.2132
36.0518
33.0889
30.3182
27.7329
25.3256
23.0886
21.0141
19.0938
17.3196
15.6833
14.1766
12.7917
11.5205
10.3555
9.28893
8.3137
7.42275
6.6093
5.86685
5.18916
4.57023
4.00433
3.48597
3.00987
2.57099
2.16446
1.78559
1.42987
1.09289
0.770381
0.458139
0.152032
8.27203
24.6841
40.7052
56.092
70.6249
84.1157
96.4121
107.4
117.006
125.191
131.951
137.314
141.329
144.069
145.62
146.078
145.546
144.13
141.937
139.069
135.627
131.703
127.386
122.757
117.889
112.849
107.696
102.485
97.2598
92.0625
86.9275
81.8844
76.9583
72.1695
67.535
63.0678
58.7781
54.6731
50.7577
47.0346
43.5046
40.1669
37.0194
34.0586
31.2802
28.6791
26.2493
23.9846
21.8781
19.9227
18.1111
16.436
14.8899
13.4653
12.1549
10.9513
9.84745
8.83638
7.91134
7.06576
6.29334
5.58798
4.94382
4.35525
3.81686
3.32348
2.87013
2.45206
2.06465
1.70349
1.36428
1.04286
0.735161
0.437214
0.145092
7.31405
21.8319
36.0231
49.6831
62.6262
74.6909
85.7446
95.6853
104.442
111.976
118.274
123.352
127.244
130.005
131.702
132.414
132.226
131.226
129.505
127.152
124.254
120.894
117.15
113.096
108.799
104.321
99.7157
95.034
90.3196
85.6113
80.9425
76.3424
71.8354
67.4422
63.1796
59.0614
55.0983
51.2983
47.667
44.2081
40.9233
37.8127
34.8752
32.1084
29.5088
27.0721
24.7936
22.6675
20.6881
18.849
17.1437
15.5656
14.1078
12.7636
11.5263
10.3891
9.34545
8.38896
7.51333
6.71248
5.98052
5.31177
4.70074
4.14216
3.63097
3.16231
2.7315
2.33404
1.96559
1.62198
1.29915
0.993167
0.700183
0.416432
0.138199
6.47814
19.3419
31.9312
44.0734
55.6106
66.4044
76.339
85.3234
93.2922
100.205
106.046
110.82
114.551
117.28
119.059
119.953
120.03
119.365
118.035
116.117
113.686
110.816
107.576
104.033
100.246
96.2728
92.1638
87.9656
83.7193
79.4617
75.2249
71.0368
66.9214
62.899
58.9865
55.1978
51.544
48.0336
44.6729
41.4662
38.416
35.5233
32.7877
30.2076
27.7804
25.5028
23.3705
21.3789
19.5229
17.7968
16.195
14.7113
13.3397
12.0741
10.9082
9.83593
8.85127
7.94827
7.12112
6.36419
5.67198
5.03922
4.46078
3.93174
3.44735
3.00306
2.59447
2.21736
1.86763
1.54137
1.23473
0.944008
0.665574
0.395868
0.131377
5.74616
17.1604
28.3429
39.1473
49.4391
59.0991
68.0263
76.1399
83.3799
89.7071
95.1024
99.5648
103.11
105.768
107.58
108.596
108.875
108.478
107.471
105.919
103.888
101.442
98.6435
95.5509
92.2193
88.6997
85.0392
81.2806
77.4623
73.6189
69.7808
65.9748
62.2239
58.5481
54.9638
51.4851
48.1232
44.8868
41.7829
38.8161
35.9896
33.3051
30.7628
28.3618
26.1004
23.9758
21.9846
20.1229
18.3861
16.7695
15.2679
13.876
12.5881
11.3989
10.3026
9.29368
8.36656
7.5158
6.73604
6.02205
5.36877
4.77126
4.22478
3.72471
3.26663
2.84628
2.45953
2.10242
1.77112
1.46192
1.17123
0.895548
0.631454
0.375592
0.124652
5.10314
15.2433
25.1869
34.8094
43.9959
52.6435
60.6641
67.9862
74.555
80.3333
85.3006
89.4518
92.7962
95.3554
97.1616
98.2552
98.6836
98.4986
97.7551
96.5098
94.8197
92.7408
90.3278
87.6331
84.7059
81.5928
78.3365
74.9765
71.5484
68.0845
64.6135
61.1606
57.7481
54.395
51.1176
47.9295
44.8421
41.8642
39.003
36.2636
33.6497
31.1633
28.8054
26.5757
24.473
22.4952
20.6396
18.9028
17.281
15.77
14.3653
13.0621
11.8554
10.7402
9.71141
8.76398
7.89281
7.09288
6.35926
5.68715
5.07183
4.50874
3.99346
3.52172
3.08937
2.69245
2.32709
1.98959
1.67635
1.3839
1.10886
0.84794
0.597931
0.355671
0.118043
4.53671
13.5538
22.4037
30.9799
39.1838
46.9265
54.1314
60.7348
66.6875
71.9544
76.5146
80.3605
83.4965
85.938
87.7098
88.8444
89.3802
89.3607
88.8322
87.8431
86.4427
84.68
82.603
80.2583
77.69
74.94
72.0472
69.0478
65.9746
62.8575
59.7233
56.596
53.4966
50.4432
47.4517
44.5353
41.7051
38.9703
36.3378
33.8133
31.4006
29.1023
26.9198
24.8532
22.9019
21.0645
19.3387
17.7217
16.2103
14.8009
13.4894
12.2717
11.1433
10.0996
9.13619
8.24829
7.43132
6.68069
5.99187
5.36041
4.782
4.25239
3.7675
3.32335
2.9161
2.54202
2.19754
1.87919
1.5836
1.30752
1.04779
0.801327
0.565104
0.336161
0.111571
4.03653
12.0615
19.9436
27.5917
34.9209
41.8543
48.325
54.2767
59.6651
64.4577
68.6339
72.1843
75.11
77.4216
79.1381
80.2853
80.8947
81.0024
80.6476
79.8715
78.7167
77.2258
75.4411
73.4037
71.1531
68.7269
66.1604
63.4864
60.7351
57.9341
55.1084
52.2804
49.4698
46.694
43.9681
41.3049
38.7153
36.2081
33.7907
31.4685
29.2458
27.1254
25.109
23.1974
21.3902
19.6864
18.0845
16.5821
15.1764
13.8643
12.6423
11.5067
10.4536
9.47883
8.57833
7.74788
6.98325
6.28027
5.63477
5.04269
4.50003
4.0029
3.54749
3.13013
2.74725
2.3954
2.07124
1.77153
1.49313
1.23301
0.988206
0.755832
0.533062
0.317117
0.105253
3.5939
10.7405
17.7647
24.5882
31.1377
37.3467
43.1566
48.5179
53.3906
57.7449
61.5609
64.8284
67.546
69.7208
71.367
72.5052
73.1611
73.3647
73.1489
72.5491
71.6019
70.3442
68.8133
67.0453
65.0754
62.9374
60.663
58.282
55.8221
53.3087
50.7648
48.2112
45.6665
43.1471
40.6673
38.2394
35.874
33.5797
31.3636
29.2314
27.1875
25.2349
23.3756
21.6105
19.94
18.3633
16.8792
15.4858
14.181
12.9619
11.8255
10.7686
9.78765
8.87904
8.03903
7.26381
6.54958
5.8925
5.28879
4.73471
4.22658
3.76083
3.33394
2.94252
2.58325
2.25294
1.94848
1.66686
1.40515
1.16053
0.930239
0.711569
0.501884
0.298585
0.0991046
3.20147
9.56905
15.8314
21.9211
27.775
33.3351
38.5503
43.3768
47.779
51.7296
55.2097
58.2086
60.7235
62.7585
64.3243
65.4371
66.118
66.3918
66.2864
65.8317
65.0592
64.0013
62.6902
61.1579
59.4358
57.5537
55.5405
53.423
51.2264
48.9739
46.6867
44.3843
42.0837
39.8006
37.5483
35.3386
33.1815
31.0855
29.0576
27.1034
25.2272
23.4323
21.721
20.0944
18.553
17.0966
15.7243
14.4346
13.2256
12.0951
11.0404
10.0586
9.14665
8.30132
7.51924
6.79699
6.13111
5.51813
4.95459
4.43706
3.9622
3.52668
3.1273
2.7609
2.42444
2.11494
1.82952
1.5654
1.31986
1.09026
0.874019
0.668634
0.471638
0.280605
0.0931394
2.85299
8.52852
14.1134
19.5494
24.7819
29.7605
34.4404
38.783
42.7566
46.3362
49.5042
52.2499
54.5693
56.4647
57.9437
59.0192
59.7083
60.0316
60.0125
59.6766
59.051
58.1636
57.0426
55.7163
54.2123
52.5574
50.7773
48.8962
46.9369
44.9208
42.8672
40.794
38.7173
36.6513
34.6087
32.6007
30.6369
28.7252
26.8727
25.0846
23.3655
21.7186
20.1462
18.6499
17.2304
15.8876
14.621
13.4295
12.3114
11.265
10.2879
9.37764
8.53146
7.7465
7.01974
6.34813
5.72852
5.15776
4.63272
4.15027
3.70733
3.30087
2.92792
2.58561
2.27109
1.98165
1.7146
1.46736
1.23741
1.02231
0.819654
0.62711
0.442383
0.263214
0.087369
2.5431
7.60303
12.5847
17.4378
22.1148
26.5719
30.77
34.6749
38.2584
41.4979
44.3771
46.8854
49.0183
50.7763
52.1651
53.1947
53.879
54.2351
54.2827
54.0434
53.5407
52.7986
51.8419
50.6952
49.3831
47.9293
46.3569
44.6876
42.9421
41.1396
39.2981
37.4338
35.5616
33.6948
31.8452
30.0234
28.2382
26.4976
24.808
23.1747
21.6022
20.0937
18.6516
17.2776
15.9726
14.7368
13.5699
12.4711
11.4391
10.4723
9.56882
8.72642
7.94273
7.21519
6.54113
5.91777
5.3423
4.81188
4.32363
3.87472
3.46234
3.08371
2.73612
2.4169
2.12346
1.85328
1.60388
1.37288
1.15795
0.956804
0.767234
0.587065
0.414167
0.246439
0.0818031
2.26721
6.77891
11.2229
15.5556
19.7357
23.7251
27.4895
30.9988
34.2277
37.156
39.7686
42.0555
44.0115
45.6363
46.9338
47.9117
48.5813
48.9568
49.0547
48.8936
48.4933
47.8748
47.0596
46.0695
44.9259
43.65
42.2624
40.7826
39.2292
37.6197
35.9703
34.296
32.6105
30.926
29.2536
27.6031
25.9829
24.4005
22.8619
21.3726
19.9365
18.5571
17.2368
15.9773
14.7797
13.6443
12.5712
11.5598
10.6089
9.71738
8.88349
8.10536
7.38089
6.70783
6.0838
5.50631
4.97284
4.48081
4.02763
3.61072
3.22751
2.87547
2.55211
2.25499
1.98173
1.73
1.49752
1.2821
1.08157
0.89383
0.71683
0.548556
0.38703
0.230304
0.0764494
2.02135
6.04434
10.0087
13.8765
17.6119
21.1817
24.5557
27.7074
30.6144
33.2584
35.6257
37.7067
39.4962
40.9931
42.1998
43.1224
43.77
44.1544
44.2893
44.1907
43.8755
43.3619
42.6686
41.8145
40.8188
39.7001
38.4767
37.1662
35.7852
34.3495
32.874
31.3722
29.8567
28.3388
26.8288
25.3356
23.8674
22.431
21.0323
19.6763
18.367
17.1077
15.9009
14.7484
13.6513
12.6101
11.625
10.6956
9.82106
9.00037
8.23211
7.51465
6.84616
6.22464
5.64799
5.11399
4.62037
4.1648
3.74495
3.35847
3.00303
2.67632
2.37607
2.10003
1.84603
1.61192
1.39563
1.1951
1.00836
0.833455
0.668499
0.511624
0.361002
0.214828
0.0713139
1.80205
5.38907
8.92515
12.3774
15.7147
18.9079
21.9305
24.7592
27.3742
29.759
31.9011
33.7914
35.4249
36.7998
37.9177
38.7832
39.4035
39.7884
39.9497
39.9005
39.6557
39.2309
38.6423
37.9065
37.0404
36.0604
34.9827
33.8232
32.5967
31.3175
29.999
28.6536
27.2927
25.9267
24.5651
23.2163
21.8877
20.5858
19.3161
18.0835
16.8918
15.7441
14.6429
13.59
12.5866
11.6334
10.7307
9.87814
9.07527
8.32115
7.61462
6.95429
6.33857
5.76569
5.2338
4.74091
4.285
3.86397
3.47571
3.1181
2.78902
2.48638
2.20809
1.95212
1.71645
1.49914
1.29827
1.11195
0.938368
0.775727
0.622277
0.4763
0.336104
0.200022
0.0664008
1.60633
4.80415
7.95771
11.0384
14.019
16.8741
19.5806
22.1178
24.4681
26.6168
28.5524
30.2668
31.7548
33.0143
34.0462
34.854
35.4434
35.8226
36.0014
35.991
35.8041
35.4542
34.9554
34.3223
33.5696
32.7118
31.7634
30.7384
29.6503
28.5117
27.3348
26.1309
24.9103
23.6827
22.4566
21.2398
20.0393
18.861
17.7103
16.5915
15.5085
14.4641
13.4609
12.5006
11.5846
10.7134
9.88756
9.10692
8.37109
7.67936
7.03076
6.42409
5.85798
5.33088
4.84116
4.38704
3.96672
3.57831
3.21993
2.88964
2.58553
2.30569
2.04823
1.8113
1.59305
1.3917
1.20548
1.03269
0.871636
0.720674
0.57819
0.442602
0.31235
0.185895
0.0617129
1.43156
4.28177
7.09347
9.84176
12.5029
15.0546
17.4766
19.7507
21.8613
23.7952
25.5422
27.0945
28.4473
29.5983
30.5477
31.2983
31.8546
32.2232
32.4125
32.432
32.2925
32.0057
31.5839
31.0397
30.3861
29.636
28.8021
27.8969
26.9323
25.92
24.8706
23.7946
22.7012
21.5992
20.4966
19.4005
18.3172
17.2524
16.2109
15.1971
14.2143
13.2656
12.3531
11.4787
10.6437
9.84889
9.09465
8.38106
7.70784
7.07445
6.48006
5.92367
5.4041
4.91999
4.46989
4.05224
3.66543
3.30777
2.97755
2.67305
2.39252
2.13424
1.89649
1.67757
1.47582
1.2896
1.11729
0.957332
0.808173
0.668306
0.536246
0.410537
0.289745
0.172451
0.0572513
1.27544
3.81507
6.32116
8.772
11.1469
13.4263
15.5924
17.6292
19.5229
21.2618
22.8365
24.2399
25.4675
26.517
27.388
28.0826
28.6045
28.9591
29.1533
29.1954
29.0945
28.8607
28.5047
28.0375
27.4705
26.8151
26.0824
25.2837
24.4295
23.5303
22.5957
21.635
20.6567
19.6688
18.6785
17.6923
16.7162
15.7553
14.8142
13.8968
13.0064
12.1458
11.3172
10.5223
9.76244
9.03842
8.35074
7.69954
7.08466
6.50566
5.96191
5.45252
4.97649
4.53264
4.1197
3.73627
3.38093
3.05217
2.74845
2.46822
2.20991
1.97196
1.7528
1.5509
1.36474
1.19282
1.03367
0.88586
0.74797
0.618617
0.496441
0.380103
0.268287
0.159688
0.0530157
1.13593
3.398
5.63084
7.8155
9.93387
11.9689
13.905
15.728
17.4256
18.9874
20.405
21.6721
22.7842
23.7389
24.5359
25.1764
25.6634
26.0015
26.1964
26.255
26.1853
25.9959
25.6961
25.2955
24.8041
24.2318
23.5887
22.8845
22.1288
21.3308
20.4993
19.6425
18.7683
17.8837
16.9954
16.1093
15.2309
14.365
13.5158
12.6869
11.8814
11.1019
10.3507
9.6292
8.93882
8.28038
7.65442
7.06115
6.50049
5.97212
5.47553
5.00998
4.5746
4.16838
3.79018
3.4388
3.11294
2.81128
2.53243
2.275
2.03757
1.81874
1.61708
1.43121
1.25974
1.10131
0.954582
0.818242
0.691
0.571587
0.458759
0.351289
0.247969
0.147603
0.0490046
1.01126
3.02524
5.01373
6.96018
8.84876
10.6645
12.3938
14.0241
15.5446
16.946
18.2207
19.363
20.3687
21.2356
21.963
22.5517
23.0041
23.324
23.5161
23.5865
23.5417
23.3894
23.1374
22.7944
22.3688
21.8696
21.3055
20.6852
20.0173
19.3098
18.5708
17.8075
17.0271
16.236
15.4402
14.6451
13.8558
13.0765
12.3113
11.5634
10.8358
10.131
9.45085
8.79705
8.17081
7.57298
7.00413
6.46452
5.95415
5.4728
5.02005
4.59529
4.19777
3.82662
3.48085
3.15939
2.8611
2.58479
2.32922
2.09316
1.87531
1.67442
1.4892
1.31839
1.16073
1.01499
0.879958
0.754426
0.637219
0.527181
0.423173
0.324074
0.228776
0.136185
0.0452153
0.899844
2.69207
4.46205
6.19534
7.87807
9.49721
11.0407
12.4975
13.8581
15.1142
16.2591
17.2875
18.1956
18.9812
19.6434
20.1829
20.6015
20.9022
21.089
21.1671
21.1422
21.0206
20.8095
20.516
20.1479
19.7127
19.2183
18.6724
18.0826
17.456
16.7998
16.1206
15.4248
14.7181
14.006
13.2935
12.5851
11.8848
11.1962
10.5224
9.86618
9.22972
8.61495
8.02339
7.45622
6.91429
6.39817
5.90817
5.44435
5.00656
4.59447
4.20758
3.84525
3.50672
3.19114
2.89756
2.62498
2.37233
2.13852
1.92242
1.7229
1.5388
1.36898
1.21229
1.06759
0.933768
0.809714
0.694339
0.58657
0.485352
0.389647
0.29843
0.21069
0.125426
0.041644
0.800272
2.39431
3.96891
5.51147
7.00986
8.45265
9.82923
11.13
12.3464
13.4712
14.4982
15.4228
16.2415
16.9521
17.5537
18.0467
18.4325
18.7135
18.8933
18.976
18.9665
18.8706
18.694
18.4433
18.1251
17.7461
17.3131
16.8331
16.3127
15.7583
15.1762
14.5725
13.9527
13.3222
12.6859
12.0482
11.4133
10.7848
10.166
9.55983
8.96876
8.39491
7.84006
7.30563
6.79275
6.30227
5.83475
5.39051
4.96968
4.57216
4.19771
3.8459
3.51621
3.20796
2.92043
2.65278
2.40411
2.1735
1.95996
1.76249
1.58007
1.41166
1.25623
1.11274
0.980173
0.85751
0.743747
0.637896
0.538981
0.446043
0.358135
0.274323
0.193686
0.115309
0.0382861
0.7113
2.12821
3.52816
4.90011
6.23346
7.51818
8.74498
9.90539
10.9919
11.998
12.9182
13.7484
14.4853
15.1269
15.6724
16.1217
16.476
16.7374
16.9087
16.9935
16.9961
16.9212
16.774
16.5601
16.2852
15.9554
15.5766
15.1549
14.6961
14.206
13.6903
13.1542
12.6028
12.0409
11.4729
10.9029
10.3346
9.77127
9.21601
8.67144
8.13986
7.62322
7.12319
6.64111
6.17805
5.73482
5.31199
4.90989
4.52868
4.16833
3.82863
3.50926
3.20976
2.92957
2.66803
2.42443
2.19798
1.98784
1.79316
1.61302
1.44652
1.29273
1.15072
1.01956
0.898315
0.786079
0.681939
0.584997
0.494371
0.409186
0.328584
0.251714
0.177736
0.105819
0.0351361
0.631816
1.89048
3.13432
4.3537
5.53934
6.68246
7.77489
8.80918
9.77869
10.6777
11.5013
12.2457
12.9081
13.4864
13.9799
14.3884
14.7128
14.9549
15.1168
15.2018
15.2134
15.1558
15.0335
14.8512
14.614
14.3272
13.9961
13.6258
13.2218
12.789
12.3324
11.8569
11.367
10.8668
10.3604
9.85153
9.34346
8.83927
8.3417
7.85315
7.37574
6.91129
6.46134
6.02713
5.60969
5.20979
4.82797
4.4646
4.11984
3.7937
3.48604
3.19659
2.92497
2.6707
2.43322
2.21188
2.00601
1.81486
1.63767
1.47363
1.32193
1.18173
1.05221
0.932522
0.821835
0.71932
0.624157
0.535532
0.452646
0.374707
0.300934
0.230556
0.162809
0.0969372
0.0321877
0.560831
1.67815
2.78252
3.86552
4.91901
5.93532
6.90728
7.82832
8.6926
9.49503
10.2313
10.898
11.4924
12.0129
12.4585
12.829
13.1252
13.3484
13.5005
13.5842
13.6025
13.559
13.4576
13.3025
13.098
12.8489
12.5596
12.2348
11.8793
11.4974
11.0937
10.6724
10.2374
9.79276
9.34188
8.88811
8.4345
7.98381
7.53852
7.10084
6.67271
6.25578
5.85148
5.46098
5.08524
4.72498
4.38075
4.05288
3.74159
3.44689
3.1687
2.9068
2.66088
2.43052
2.21523
2.01447
1.82762
1.65404
1.49305
1.34392
1.20594
1.07836
0.960438
0.851412
0.750537
0.657066
0.570258
0.489379
0.413706
0.342523
0.275121
0.210801
0.14887
0.0886425
0.0294343
0.497457
1.48858
2.46839
3.42951
4.36485
5.26767
6.13168
6.95111
7.72081
8.43628
9.09369
9.68995
10.2227
10.6903
11.0919
11.4273
11.697
11.9019
12.044
12.1252
12.1483
12.1162
12.0325
11.9007
11.7246
11.5083
11.2558
10.9712
10.6586
10.3221
9.96541
9.59247
9.20683
8.81191
8.41092
8.00682
7.60235
7.20002
6.80206
6.4105
6.02708
5.65336
5.29062
4.93995
4.60225
4.27821
3.96834
3.67298
3.39235
3.12649
2.87536
2.63878
2.41648
2.20813
2.01329
1.8315
1.66221
1.50485
1.35882
1.22349
1.09821
0.982308
0.875126
0.775986
0.684213
0.599137
0.52009
0.446411
0.377445
0.312547
0.251074
0.192396
0.135883
0.0809133
0.0268684
0.440903
1.3194
2.18801
3.04029
3.87003
4.67134
5.43868
6.16702
6.85179
7.48902
8.07532
8.60792
9.0847
9.50418
9.86549
10.1684
10.4132
10.6009
10.7328
10.8107
10.837
10.8142
10.7453
10.6335
10.482
10.2943
10.0741
9.82495
9.55039
9.25401
8.93927
8.60952
8.26797
7.91766
7.56146
7.20204
6.84185
6.48316
6.12799
5.77816
5.43529
5.10076
4.77578
4.46136
4.15831
3.86729
3.58878
3.32313
3.07054
2.83109
2.60474
2.39138
2.19078
2.00264
1.82661
1.66226
1.50914
1.36673
1.2345
1.1119
0.998338
0.893234
0.795987
0.705992
0.622647
0.545348
0.473494
0.406492
0.343751
0.284687
0.228722
0.175285
0.123807
0.0737264
0.0244825
0.390458
1.16848
1.93787
2.69299
3.42842
4.13898
4.81985
5.46657
6.07514