/*--------------------------------*- C++ -*----------------------------------*\
  =========                 |
  \\      /  F ield         | OpenFOAM: The Open Source CFD Toolbox
   \\    /   O peration     | Website:  https://openfoam.org
    \\  /    A nd           | Version:  10
     \\/     M anipulation  |
\*---------------------------------------------------------------------------*/
FoamFile
{
    format      ascii;
    class       volScalarField;
    location    "1350";
    object      gradTz;
}
// * * * * * * * * * * * * * * * * * * * * * * * * * * * * * * * * * * * * * //

dimensions      [0 -1 0 1 0 0 0];

internalField   nonuniform List<scalar> 
11250
(
-14329.8
-4125.6
-1505.88
-703.137
-399.481
-259.114
-183.152
-137.18
-107.09
-86.2461
-71.1696
-59.8856
-51.2007
-44.3578
-38.8569
-34.3573
-30.6201
-27.4736
-24.7922
-22.482
-20.4722
-18.708
-17.1471
-15.7559
-14.508
-13.382
-12.3607
-11.4301
-10.5787
-9.79686
-9.07669
-8.41152
-7.79574
-7.22457
-6.69394
-6.20032
-5.74069
-5.31237
-4.91303
-4.5406
-4.19324
-3.86929
-3.56724
-3.28572
-3.02348
-2.77935
-2.55228
-2.34124
-2.14531
-1.9636
-1.79527
-1.63956
-1.4957
-1.363
-1.24079
-1.12844
-1.02535
-0.93096
-0.844728
-0.766155
-0.694769
-0.630127
-0.571818
-0.51946
-0.472701
-0.431218
-0.394717
-0.362936
-0.335639
-0.312622
-0.293709
-0.278755
-0.267641
-0.26028
-0.256614
-8193.73
-4792.28
-2700.63
-1610.31
-1035.13
-712.919
-519.451
-395.639
-312.01
-252.955
-209.702
-177.044
-151.748
-131.719
-115.559
-102.3
-91.2609
-81.9482
-73.9988
-67.1406
-61.1667
-55.9177
-51.2693
-47.1233
-43.4018
-40.042
-36.9932
-34.2138
-31.6698
-29.333
-27.1799
-25.1906
-23.3486
-21.6397
-20.0518
-18.5744
-17.1985
-15.9162
-14.7204
-13.6052
-12.5649
-11.5946
-10.6899
-9.84655
-9.06094
-8.32956
-7.64921
-7.0169
-6.42981
-5.88531
-5.38091
-4.91426
-4.48315
-4.08547
-3.71921
-3.38249
-3.07352
-2.79061
-2.53215
-2.29665
-2.08268
-1.88892
-1.71415
-1.55721
-1.41705
-1.2927
-1.18329
-1.08802
-1.0062
-0.937202
-0.880509
-0.83568
-0.802365
-0.7803
-0.769311
-5459.02
-4149.1
-2894.02
-2002.26
-1417.78
-1037.92
-786.042
-613.864
-492.306
-403.818
-337.594
-286.801
-246.988
-215.179
-189.327
-167.994
-150.15
-135.037
-122.095
-110.899
-101.124
-92.5174
-84.8826
-78.063
-71.9335
-66.3936
-61.3613
-56.7698
-52.5639
-48.6979
-45.1335
-41.8388
-38.7865
-35.9535
-33.3201
-30.8692
-28.5859
-26.4574
-24.4722
-22.6201
-20.8922
-19.2803
-17.7771
-16.3757
-15.07
-13.8544
-12.7234
-11.6721
-10.696
-9.79061
-8.95184
-8.1758
-7.4588
-6.79736
-6.18816
-5.62807
-5.11411
-4.64347
-4.2135
-3.8217
-3.46572
-3.14336
-2.85257
-2.59144
-2.35823
-2.15133
-1.96928
-1.81076
-1.6746
-1.55979
-1.46545
-1.39086
-1.33542
-1.2987
-1.28041
-4034.12
-3450.97
-2723.97
-2086.86
-1595.7
-1234.87
-972.841
-781.386
-639.453
-532.339
-449.984
-385.509
-334.163
-292.622
-258.521
-230.153
-206.263
-185.918
-168.413
-153.21
-139.89
-128.13
-117.67
-108.307
-99.8751
-92.2414
-85.2971
-78.9529
-73.1348
-67.7815
-62.8416
-58.2716
-54.035
-50.1003
-46.4408
-43.0332
-39.8573
-36.8954
-34.132
-31.5531
-29.1464
-26.9006
-24.8057
-22.8524
-21.0322
-19.3371
-17.7598
-16.2936
-14.9319
-13.6688
-12.4984
-11.4155
-10.4149
-9.49174
-8.64142
-7.85959
-7.14212
-6.48507
-5.88477
-5.33774
-4.84068
-4.39056
-3.98449
-3.61985
-3.29417
-3.00523
-2.75098
-2.52958
-2.33943
-2.17908
-2.04732
-1.94313
-1.8657
-1.81441
-1.78887
-3192.25
-2896.57
-2463.91
-2025.37
-1643.15
-1332.88
-1088.95
-899.268
-751.668
-635.993
-544.393
-470.992
-411.444
-362.543
-321.91
-287.766
-258.772
-233.907
-212.386
-193.599
-177.069
-162.419
-149.347
-137.612
-127.018
-117.406
-108.645
-100.628
-93.2644
-86.4805
-80.2131
-74.4091
-69.0235
-64.0177
-59.3585
-55.0172
-50.9687
-47.1911
-43.6648
-40.3728
-37.2993
-34.4304
-31.7534
-29.2566
-26.9293
-24.7615
-22.7441
-20.8682
-19.1258
-17.5092
-16.0113
-14.625
-13.3439
-12.1618
-11.0729
-10.0716
-9.15266
-8.31104
-7.54205
-6.84124
-6.20443
-5.6277
-5.10741
-4.64016
-4.22283
-3.85255
-3.52671
-3.24299
-2.99928
-2.79377
-2.6249
-2.49136
-2.39212
-2.32639
-2.29365
-2645.88
-2478.97
-2209.55
-1907.4
-1618.5
-1364.38
-1150.65
-974.922
-831.812
-715.435
-620.474
-542.499
-477.966
-424.092
-378.712
-340.144
-307.076
-278.485
-253.567
-231.684
-212.331
-195.101
-179.668
-165.765
-153.177
-141.726
-131.264
-121.671
-112.845
-104.7
-97.1642
-90.177
-83.6861
-77.6469
-72.0209
-66.7745
-61.8785
-57.3072
-53.0376
-49.0494
-45.3243
-41.8457
-38.5986
-35.569
-32.7441
-30.1122
-27.6621
-25.3834
-23.2664
-21.3019
-19.4812
-17.7959
-16.2384
-14.801
-13.4767
-12.2588
-11.141
-10.1171
-9.18152
-8.3288
-7.55389
-6.85205
-6.21884
-5.65015
-5.1422
-4.69149
-4.29486
-3.94947
-3.65279
-3.40261
-3.19702
-3.03444
-2.91362
-2.8336
-2.79374
-2266.2
-2163.67
-1987.73
-1775.95
-1558.87
-1355.31
-1174.15
-1017.77
-885.049
-773.295
-679.41
-600.416
-533.689
-477.02
-428.588
-386.915
-350.809
-319.31
-291.642
-267.182
-245.423
-225.953
-208.434
-192.592
-178.198
-165.064
-153.034
-141.976
-131.781
-122.354
-113.619
-105.508
-97.9627
-90.9344
-84.38
-78.2622
-72.5482
-67.2091
-62.219
-57.555
-53.1963
-49.124
-45.3209
-41.7712
-38.4601
-35.3742
-32.5005
-29.8272
-27.3429
-25.0371
-22.8995
-20.9206
-19.0913
-17.4029
-15.8471
-14.4162
-13.1025
-11.8992
-10.7995
-9.79712
-8.88612
-8.06094
-7.31641
-6.6477
-6.05035
-5.5203
-5.05383
-4.6476
-4.29865
-4.00437
-3.76254
-3.57131
-3.42918
-3.33505
-3.28816
-1988.81
-1921.54
-1801.48
-1649.58
-1485.49
-1323.61
-1172.64
-1036.76
-917.106
-813.09
-723.268
-645.89
-579.193
-521.56
-471.566
-427.996
-389.826
-356.206
-326.429
-299.912
-276.172
-254.811
-235.497
-217.956
-201.957
-187.31
-173.853
-161.452
-149.99
-139.371
-129.512
-120.342
-111.8
-103.832
-96.3925
-89.4412
-82.9426
-76.8651
-71.1806
-65.8639
-60.892
-56.2442
-51.9015
-47.8462
-44.0619
-40.5336
-37.2469
-34.1883
-31.3452
-28.7056
-26.258
-23.9916
-21.8961
-19.9616
-18.1788
-16.5387
-15.0329
-13.6534
-12.3925
-11.2431
-10.1983
-9.25186
-8.39784
-7.63073
-6.94545
-6.33732
-5.80211
-5.33599
-4.93558
-4.59789
-4.32037
-4.10091
-3.9378
-3.82977
-3.77597
-1778.4
-1731.93
-1646.77
-1535.12
-1409.62
-1280.72
-1155.8
-1039.27
-933.286
-838.463
-754.47
-680.479
-615.448
-558.288
-507.964
-463.533
-424.167
-389.148
-357.861
-329.785
-304.481
-281.575
-260.757
-241.76
-224.363
-208.378
-193.643
-180.025
-167.406
-155.689
-144.787
-134.629
-125.151
-116.297
-108.02
-100.277
-93.0303
-86.2468
-79.8966
-73.9525
-68.3902
-63.1872
-58.3229
-53.7782
-49.5353
-45.5776
-41.8894
-38.4561
-35.2637
-32.2988
-29.5488
-27.0019
-24.6464
-22.4714
-20.4666
-18.622
-16.9281
-15.376
-13.9572
-12.6636
-11.4877
-10.4224
-9.46096
-8.59731
-7.82572
-7.14095
-6.53825
-6.01332
-5.56236
-5.18203
-4.86946
-4.62227
-4.43855
-4.31686
-4.25625
-1614.14
-1580.68
-1518.24
-1434.21
-1336.83
-1233.57
-1130.27
-1030.95
-938.04
-852.75
-775.428
-705.884
-643.619
-587.985
-538.289
-493.846
-454.019
-418.233
-385.975
-356.799
-330.319
-306.201
-284.158
-263.947
-245.356
-228.207
-212.346
-197.64
-183.977
-171.258
-159.4
-148.327
-137.978
-128.295
-119.23
-110.74
-102.784
-95.3292
-88.344
-81.8002
-75.672
-69.9357
-64.5695
-59.553
-54.8672
-50.4944
-46.4176
-42.6211
-39.0896
-35.8088
-32.7649
-29.9449
-27.3363
-24.927
-22.7058
-20.6616
-18.7841
-17.0635
-15.4904
-14.056
-12.7519
-11.5702
-10.5037
-9.54559
-8.68951
-7.92969
-7.26088
-6.67834
-6.17786
-5.75574
-5.40881
-5.13444
-4.93051
-4.79544
-4.72816
-1482.97
-1458.06
-1410.94
-1346.29
-1269.58
-1186.12
-1100.43
-1015.9
-934.878
-858.786
-788.339
-723.756
-664.922
-611.53
-563.163
-519.364
-479.673
-443.65
-410.888
-381.02
-353.717
-328.691
-305.69
-284.491
-264.905
-246.764
-229.924
-214.261
-199.666
-186.044
-173.314
-161.404
-150.25
-139.797
-129.996
-120.804
-112.18
-104.091
-96.5033
-89.3888
-82.7207
-76.4745
-70.6273
-65.1578
-60.0461
-55.2734
-50.8218
-46.6744
-42.8151
-39.2284
-35.8997
-32.8149
-29.9605
-27.3237
-24.892
-22.6537
-20.5975
-18.7128
-16.9894
-15.4176
-13.9884
-12.6933
-11.5243
-10.4739
-9.53526
-8.70212
-7.96872
-7.32988
-6.78099
-6.31801
-5.93749
-5.63654
-5.41285
-5.26469
-5.19089
-1376.32
-1357.24
-1320.8
-1270.04
-1208.69
-1140.56
-1069.06
-997.003
-926.459
-858.863
-795.093
-735.599
-680.527
-629.81
-583.251
-540.579
-501.485
-465.654
-432.778
-402.566
-374.752
-349.094
-325.374
-303.401
-283.005
-264.035
-246.36
-229.865
-214.449
-200.022
-186.507
-173.834
-161.943
-150.78
-140.297
-130.45
-121.201
-112.514
-104.358
-96.7031
-89.5223
-82.7905
-76.4843
-70.5817
-65.0619
-59.9054
-55.0934
-50.6083
-46.433
-42.5512
-38.9474
-35.6065
-32.5143
-29.6569
-27.0212
-24.5946
-22.365
-20.3209
-18.4513
-16.746
-15.1952
-13.7897
-12.5208
-11.3805
-10.3615
-9.45696
-8.6606
-7.96686
-7.37076
-6.86794
-6.45464
-6.12776
-5.88479
-5.72385
-5.64369
-1288.33
-1273.36
-1244.56
-1203.97
-1154.18
-1097.95
-1037.88
-976.214
-914.734
-854.774
-797.246
-742.72
-691.495
-643.673
-599.217
-558.001
-519.844
-484.537
-451.861
-421.597
-393.537
-367.487
-343.265
-320.711
-299.676
-280.03
-261.655
-244.448
-228.317
-213.18
-198.964
-185.604
-173.043
-161.229
-150.116
-139.663
-129.83
-120.585
-111.895
-103.731
-96.0651
-88.8729
-82.1304
-75.8152
-69.9059
-64.3823
-59.2252
-54.4161
-49.9372
-45.7715
-41.9027
-38.3149
-34.9932
-31.9229
-29.09
-26.4812
-24.0836
-21.8851
-19.874
-18.0392
-16.3703
-14.8576
-13.4917
-12.2642
-11.167
-10.193
-9.33542
-8.58828
-7.94625
-7.40465
-6.95946
-6.60734
-6.34559
-6.17222
-6.08586
-1214.83
-1202.84
-1179.64
-1146.64
-1105.67
-1058.76
-1007.88
-954.833
-901.105
-847.884
-796.051
-746.214
-698.757
-653.889
-611.687
-572.133
-535.148
-500.611
-468.378
-438.297
-410.213
-383.974
-359.439
-336.473
-314.955
-294.772
-275.823
-258.017
-241.272
-225.515
-210.679
-196.705
-183.539
-171.133
-159.444
-148.431
-138.059
-128.293
-119.104
-110.462
-102.34
-94.713
-87.5575
-80.8506
-74.5708
-68.6975
-63.2109
-58.0919
-53.3223
-48.8844
-44.7612
-40.9362
-37.3936
-34.1181
-31.0952
-28.3106
-25.7509
-23.4032
-21.2551
-19.2951
-17.512
-15.8954
-14.4356
-13.1235
-11.9506
-10.9092
-9.9922
-9.19324
-8.50663
-7.92738
-7.45123
-7.07459
-6.79461
-6.60915
-6.51678
-1152.83
-1143.05
-1124.03
-1096.78
-1062.63
-1023.07
-979.616
-933.697
-886.552
-839.212
-792.487
-746.977
-703.104
-661.139
-621.233
-583.449
-547.784
-514.187
-482.58
-452.864
-424.933
-398.677
-373.988
-350.76
-328.895
-308.3
-288.892
-270.591
-253.327
-237.035
-221.656
-207.137
-193.429
-180.489
-168.275
-156.75
-145.88
-135.632
-125.978
-116.889
-108.34
-100.304
-92.7591
-85.682
-79.0511
-72.8456
-67.0454
-61.6312
-56.584
-51.8859
-47.5191
-43.4667
-39.7122
-36.2397
-33.034
-30.0803
-27.3645
-24.873
-22.5929
-20.512
-18.6186
-16.9018
-15.3512
-13.9573
-12.7111
-11.6046
-10.6301
-9.78094
-9.05116
-8.43545
-7.92928
-7.52889
-7.23125
-7.03409
-6.93588
-1100.07
-1091.96
-1076.14
-1053.32
-1024.48
-990.767
-953.337
-913.324
-871.753
-829.506
-787.309
-745.73
-705.196
-666.008
-628.365
-592.384
-558.117
-525.569
-494.714
-465.501
-437.863
-411.728
-387.017
-363.653
-341.56
-320.665
-300.899
-282.198
-264.501
-247.753
-231.904
-216.907
-202.718
-189.297
-176.608
-164.616
-153.29
-142.598
-132.514
-123.01
-114.06
-105.642
-97.7308
-90.3049
-83.3424
-76.8225
-70.725
-65.0301
-59.7189
-54.7727
-50.1734
-45.9037
-41.9464
-38.2853
-34.9044
-31.7884
-28.9226
-26.2929
-23.8859
-21.6886
-19.689
-17.8755
-16.2374
-14.7646
-13.4478
-12.2783
-11.2483
-10.3507
-9.57918
-8.92823
-8.39307
-7.96971
-7.65499
-7.4465
-7.34265
-1054.86
-1048.04
-1034.68
-1015.32
-990.691
-961.659
-929.135
-894.021
-857.161
-819.305
-781.091
-743.043
-705.573
-668.993
-633.526
-599.324
-566.481
-535.042
-505.022
-476.407
-449.168
-423.261
-398.637
-375.244
-353.024
-331.925
-311.892
-292.874
-274.823
-257.693
-241.441
-226.027
-211.413
-197.565
-184.448
-172.033
-160.29
-149.191
-138.709
-128.82
-119.5
-110.724
-102.47
-94.7164
-87.4418
-80.6253
-74.2467
-68.2861
-62.7242
-57.5423
-52.7218
-48.2449
-44.0943
-40.2529
-36.7045
-33.4331
-30.4237
-27.6615
-25.1326
-22.8237
-20.722
-18.8157
-17.0934
-15.5447
-14.1597
-12.9296
-11.8462
-10.9019
-10.0901
-9.40522
-8.84208
-8.39658
-8.06537
-7.84596
-7.73667
-1015.87
-1010.05
-998.629
-982.004
-960.737
-935.492
-906.987
-875.949
-843.071
-808.989
-774.261
-739.359
-704.672
-670.505
-637.094
-604.611
-573.177
-542.868
-513.728
-485.776
-459.01
-433.414
-408.963
-385.625
-363.364
-342.143
-321.922
-302.663
-284.328
-266.881
-250.287
-234.514
-219.528
-205.3
-191.802
-179.005
-166.883
-155.412
-144.566
-134.322
-124.657
-115.549
-106.975
-98.9153
-91.3479
-84.2524
-77.6089
-71.3973
-65.5984
-60.193
-55.1626
-50.4889
-46.1542
-42.1411
-38.4328
-35.0132
-31.8665
-28.9777
-26.3322
-23.9163
-21.7168
-19.7214
-17.9183
-16.2967
-14.8464
-13.5581
-12.4232
-11.434
-10.5836
-9.86596
-9.27591
-8.80909
-8.46202
-8.2321
-8.11757
-982.076
-977.052
-967.166
-952.726
-934.166
-912.003
-886.81
-859.173
-829.666
-798.826
-767.137
-735.023
-702.84
-670.884
-639.389
-608.539
-578.471
-549.282
-521.04
-493.787
-467.545
-442.32
-418.107
-394.893
-372.661
-351.386
-331.045
-311.609
-293.053
-275.348
-258.469
-242.387
-227.079
-212.517
-198.679
-185.54
-173.077
-161.266
-150.087
-139.517
-129.534
-120.118
-111.247
-102.901
-95.0602
-87.7033
-80.8108
-74.3629
-68.3404
-62.7239
-57.4948
-52.6345
-48.1251
-43.9489
-40.0886
-36.5278
-33.2503
-30.2406
-27.4838
-24.9656
-22.6726
-20.592
-18.7116
-17.0202
-15.5073
-14.1631
-12.9789
-11.9466
-11.0591
-10.3101
-9.69422
-9.20693
-8.84463
-8.6046
-8.48504
-952.65
-948.261
-939.609
-926.934
-910.573
-890.938
-868.487
-843.698
-817.048
-788.992
-759.949
-730.294
-700.354
-670.406
-640.68
-611.361
-582.596
-554.497
-527.148
-500.609
-474.92
-450.106
-426.179
-403.143
-380.995
-359.724
-339.319
-319.763
-301.039
-283.13
-266.014
-249.673
-234.086
-219.233
-205.094
-191.649
-178.878
-166.761
-155.278
-144.409
-134.134
-124.434
-115.288
-106.676
-98.5798
-90.9785
-83.8527
-77.183
-70.95
-65.1347
-59.718
-54.6814
-50.0066
-45.6757
-41.6713
-37.9764
-34.5745
-31.4497
-28.5868
-25.9713
-23.5891
-21.4271
-19.4729
-17.7148
-16.142
-14.7444
-13.513
-12.4395
-11.5165
-10.7374
-10.0968
-9.58985
-9.21294
-8.96324
-8.83885
-926.929
-923.053
-915.401
-904.162
-889.603
-872.054
-851.886
-829.491
-805.269
-779.604
-752.86
-725.369
-697.428
-669.294
-641.186
-613.289
-585.753
-558.699
-532.221
-506.394
-481.271
-456.893
-433.286
-410.467
-388.446
-367.225
-346.804
-327.175
-308.331
-290.262
-272.954
-256.395
-240.571
-225.465
-211.062
-197.346
-184.3
-171.906
-160.147
-149.006
-138.463
-128.501
-119.1
-110.242
-101.909
-94.0794
-86.7357
-79.8583
-73.428
-67.4257
-61.8325
-56.6296
-51.7987
-47.3216
-43.1807
-39.3587
-35.8388
-32.6048
-29.6412
-26.933
-24.466
-22.2265
-20.2019
-18.3802
-16.7503
-15.3018
-14.0253
-12.9124
-11.9554
-11.1476
-10.4833
-9.95766
-9.5668
-9.30784
-9.17884
-904.369
-900.913
-894.079
-884.018
-870.946
-855.128
-836.87
-816.495
-794.339
-770.731
-745.985
-720.396
-694.23
-667.726
-641.091
-614.503
-588.114
-562.049
-536.409
-511.279
-486.723
-462.792
-439.526
-416.952
-395.092
-373.957
-353.558
-333.896
-314.972
-296.782
-279.322
-262.584
-246.558
-231.234
-216.601
-202.645
-189.353
-176.711
-164.703
-153.313
-142.526
-132.323
-122.688
-113.603
-105.049
-97.0085
-89.4618
-82.3905
-75.7755
-69.5979
-63.8389
-58.4797
-53.5018
-48.8868
-44.6171
-40.6749
-37.0434
-33.706
-30.6469
-27.8508
-25.3031
-22.9901
-20.8986
-19.0164
-17.3321
-15.835
-14.5157
-13.3653
-12.3759
-11.5407
-10.8538
-10.3103
-9.90609
-9.63829
-9.50488
-884.527
-881.415
-875.255
-866.168
-854.33
-839.958
-823.305
-804.641
-784.248
-762.41
-739.401
-715.48
-690.887
-665.843
-640.541
-615.152
-589.825
-564.687
-539.845
-515.387
-491.388
-467.907
-444.992
-422.682
-401.006
-379.986
-359.639
-339.976
-321.006
-302.731
-285.152
-268.267
-252.072
-236.562
-221.728
-207.561
-194.052
-181.187
-168.955
-157.341
-146.33
-135.908
-126.058
-116.763
-108.006
-99.769
-92.0337
-84.7817
-77.9944
-71.653
-65.7387
-60.2328
-55.1167
-50.3721
-45.9809
-41.9255
-38.1886
-34.7535
-31.604
-28.7247
-26.1007
-23.7179
-21.5629
-19.6233
-17.8874
-16.3443
-14.9841
-13.798
-12.7778
-11.9166
-11.2082
-10.6476
-10.2308
-9.95455
-9.81695
-867.031
-864.205
-858.603
-850.326
-839.519
-826.361
-811.062
-793.85
-774.967
-754.656
-733.156
-710.697
-687.497
-663.756
-639.656
-615.359
-591.01
-566.736
-542.644
-518.828
-495.369
-472.331
-449.771
-427.734
-406.258
-385.373
-365.103
-345.466
-326.477
-308.145
-290.476
-273.474
-257.14
-241.471
-226.464
-212.113
-198.411
-185.348
-172.914
-161.097
-149.885
-139.262
-129.215
-119.728
-110.783
-102.365
-94.4545
-87.0347
-80.087
-73.5928
-67.5334
-61.8903
-56.6447
-51.7784
-47.2732
-43.1111
-39.275
-35.7477
-32.5131
-29.5552
-26.859
-24.4102
-22.1952
-20.2012
-18.4163
-16.8295
-15.4307
-14.2107
-13.1613
-12.2753
-11.5465
-10.9698
-10.5408
-10.2566
-10.1151
-851.571
-848.982
-843.847
-836.248
-826.306
-814.171
-800.02
-784.047
-766.458
-747.465
-727.278
-706.102
-684.132
-661.552
-638.532
-615.226
-591.773
-568.296
-544.906
-521.698
-498.755
-476.148
-453.939
-432.179
-410.914
-390.178
-370.003
-350.413
-331.428
-313.063
-295.33
-278.236
-261.787
-245.985
-230.83
-216.318
-202.446
-189.207
-176.593
-164.594
-153.198
-142.393
-132.166
-122.502
-113.386
-104.8
-96.7282
-89.153
-82.0563
-75.4199
-69.2253
-63.454
-58.0874
-53.1071
-48.4949
-44.2329
-40.3035
-36.6896
-33.3746
-30.3427
-27.5785
-25.0674
-22.7957
-20.7503
-18.9191
-17.291
-15.8555
-14.6035
-13.5264
-12.617
-11.8688
-11.2767
-10.8364
-10.5446
-10.3993
-837.885
-835.495
-830.752
-823.723
-814.511
-803.242
-790.067
-775.153
-758.677
-740.824
-721.78
-701.728
-680.844
-659.298
-637.246
-614.836
-592.199
-569.457
-546.718
-524.08
-501.626
-479.434
-457.568
-436.085
-415.034
-394.457
-374.39
-354.862
-335.9
-317.522
-299.745
-282.581
-266.04
-250.127
-234.845
-220.195
-206.174
-192.779
-180.004
-167.841
-156.28
-145.31
-134.919
-125.094
-115.819
-107.08
-98.8591
-91.1402
-83.9055
-77.1372
-70.8168
-64.9262
-59.4467
-54.3599
-49.6477
-45.292
-41.2751
-37.5799
-34.1895
-31.088
-28.2597
-25.69
-23.3648
-21.271
-19.3962
-17.729
-16.259
-14.9766
-13.8733
-12.9417
-12.1753
-11.5687
-11.1176
-10.8186
-10.6697
-825.751
-823.529
-819.115
-812.569
-803.975
-793.443
-781.101
-767.094
-751.576
-734.711
-716.663
-697.597
-677.672
-657.044
-635.859
-614.256
-592.36
-570.291
-548.154
-526.047
-504.055
-482.257
-460.722
-439.51
-418.674
-398.26
-378.31
-358.858
-339.932
-321.557
-303.755
-286.54
-269.925
-253.92
-238.531
-223.761
-209.611
-196.079
-183.16
-170.851
-159.141
-148.022
-137.482
-127.51
-118.09
-109.21
-100.852
-93.0006
-85.6384
-78.7478
-72.3108
-66.3092
-60.7246
-55.5387
-50.7331
-46.2898
-42.1911
-38.4197
-34.9587
-31.7918
-28.9034
-26.2786
-23.9031
-21.7637
-19.8478
-18.1439
-16.6412
-15.3303
-14.2024
-13.2499
-12.4662
-11.8459
-11.3845
-11.0788
-10.9265
-814.979
-812.899
-808.765
-802.627
-794.559
-784.655
-773.026
-759.799
-745.11
-729.101
-711.922
-693.72
-674.641
-654.828
-634.418
-613.54
-592.317
-570.861
-549.278
-527.663
-506.103
-484.678
-463.459
-442.509
-421.885
-401.637
-381.809
-362.439
-343.561
-325.203
-307.389
-290.138
-273.467
-257.387
-241.908
-227.035
-212.772
-199.12
-186.075
-173.634
-161.791
-150.537
-139.863
-129.756
-120.205
-111.196
-102.712
-94.7386
-87.2589
-80.2554
-73.7104
-67.6059
-61.9237
-56.6455
-51.7529
-47.228
-43.053
-39.2104
-35.6833
-32.4552
-29.5105
-26.834
-24.4114
-22.2291
-20.2746
-18.5361
-17.0028
-15.665
-14.5138
-13.5416
-12.7417
-12.1085
-11.6375
-11.3254
-11.1699
-805.405
-803.445
-799.549
-793.76
-786.141
-776.774
-765.758
-753.203
-739.229
-723.966
-707.545
-690.101
-671.768
-652.678
-632.959
-612.733
-592.117
-571.219
-550.143
-528.982
-507.824
-486.749
-465.83
-445.131
-424.714
-404.63
-384.927
-365.646
-346.824
-328.492
-310.678
-293.405
-276.691
-260.551
-244.996
-230.036
-215.676
-201.918
-188.761
-176.204
-164.241
-152.866
-142.07
-131.842
-122.171
-113.043
-104.444
-96.3591
-88.7711
-81.6635
-75.0188
-68.8192
-63.0465
-57.6826
-52.7093
-48.1084
-43.8622
-39.9533
-36.3644
-33.0793
-30.0819
-27.357
-24.8902
-22.6678
-20.6771
-18.9062
-17.3441
-15.981
-14.8081
-13.8174
-13.0022
-12.3568
-11.8768
-11.5587
-11.4002
-796.888
-795.032
-791.339
-785.847
-778.612
-769.707
-759.218
-747.243
-733.89
-719.274
-703.516
-686.738
-669.063
-650.615
-631.512
-611.87
-591.801
-571.409
-550.795
-530.052
-509.266
-488.518
-467.881
-447.422
-427.203
-407.28
-387.701
-368.512
-349.752
-331.455
-313.651
-296.365
-279.62
-263.432
-247.816
-232.782
-218.337
-204.487
-191.232
-178.571
-166.502
-155.018
-144.112
-133.774
-123.994
-114.759
-106.055
-97.867
-90.1797
-82.9763
-76.2396
-69.9521
-64.0958
-58.6525
-53.6043
-48.9329
-44.6206
-40.6498
-37.0036
-33.6651
-30.6185
-27.8485
-25.3404
-23.0805
-21.0559
-19.2546
-17.6656
-16.2789
-15.0855
-14.0774
-13.2479
-12.5912
-12.1027
-11.779
-11.6177
-789.307
-787.538
-784.019
-778.782
-771.878
-763.37
-753.336
-741.863
-729.048
-714.997
-699.818
-683.625
-666.531
-648.65
-630.096
-610.977
-591.4
-571.467
-551.274
-530.913
-510.47
-490.025
-469.652
-449.419
-429.391
-409.623
-390.167
-371.071
-352.376
-334.119
-316.332
-299.044
-282.277
-266.052
-250.385
-235.289
-220.773
-206.842
-193.501
-180.749
-168.584
-157.003
-145.998
-135.561
-125.682
-116.349
-107.549
-99.2672
-91.4889
-84.1976
-77.3764
-71.0079
-65.0744
-59.5578
-54.4402
-49.7035
-45.3299
-41.3017
-37.602
-34.214
-31.1217
-28.3095
-25.7629
-23.468
-21.4118
-19.5822
-17.968
-16.5591
-15.3466
-14.3223
-13.4793
-12.812
-12.3155
-11.9865
-11.8226
-782.554
-780.861
-777.491
-772.474
-765.854
-757.688
-748.047
-737.009
-724.663
-711.104
-696.433
-680.753
-664.171
-646.794
-628.727
-610.076
-590.941
-571.421
-551.611
-531.599
-511.471
-491.306
-471.179
-451.16
-431.311
-411.692
-392.356
-373.353
-354.725
-336.512
-318.748
-301.463
-284.684
-268.431
-252.724
-237.575
-222.997
-208.997
-195.58
-182.747
-170.498
-158.83
-147.736
-137.21
-127.241
-117.82
-108.932
-100.565
-92.7036
-85.3317
-78.4329
-71.99
-65.9853
-60.4012
-55.2195
-50.4223
-45.9919
-41.9106
-38.1613
-34.7273
-31.5924
-28.7411
-26.1587
-23.8312
-21.7455
-19.8894
-18.2517
-16.8223
-15.5918
-14.5523
-13.6969
-13.0195
-12.5157
-12.1817
-12.0154
-776.536
-774.908
-771.667
-766.839
-760.464
-752.595
-743.294
-732.634
-720.696
-707.566
-693.339
-678.111
-661.981
-645.05
-627.417
-609.183
-590.445
-571.298
-551.834
-532.14
-512.3
-492.394
-472.495
-452.674
-432.995
-413.518
-394.298
-375.385
-356.825
-338.659
-320.922
-303.646
-286.861
-270.588
-254.848
-239.656
-225.026
-210.966
-197.483
-184.579
-172.255
-160.509
-149.336
-138.729
-128.68
-119.178
-110.211
-101.766
-93.8284
-86.3829
-79.4129
-72.9017
-66.8317
-61.1853
-55.9445
-51.0916
-46.6087
-42.4783
-38.6831
-35.2064
-32.032
-29.1444
-26.5287
-24.1709
-22.0578
-20.1771
-18.5175
-17.0688
-15.8217
-14.7681
-13.901
-13.2143
-12.7036
-12.365
-12.1963
-771.172
-769.601
-766.47
-761.805
-755.643
-748.03
-739.024
-728.693
-717.11
-704.356
-690.519
-675.688
-659.956
-643.419
-626.173
-608.311
-589.929
-571.117
-551.966
-532.561
-512.984
-493.315
-473.627
-453.99
-434.47
-415.127
-396.018
-377.193
-358.7
-340.582
-322.875
-305.613
-288.827
-272.54
-256.774
-241.547
-226.873
-212.762
-199.221
-186.255
-173.864
-162.049
-150.805
-140.126
-130.004
-120.429
-111.39
-102.875
-94.8681
-87.3553
-80.3203
-73.7464
-67.6165
-61.9129
-56.6179
-51.7136
-47.1823
-43.0064
-39.1688
-35.6527
-32.4418
-29.5205
-26.874
-24.488
-22.3495
-20.4459
-18.766
-17.2994
-16.0369
-14.9701
-14.0921
-13.3968
-12.8796
-12.5368
-12.3659
-766.39
-764.867
-761.832
-757.309
-751.33
-743.94
-735.191
-725.146
-713.873
-701.448
-687.952
-673.47
-658.09
-641.903
-624.999
-607.469
-589.405
-570.895
-552.026
-532.882
-513.545
-494.093
-474.599
-455.133
-435.761
-416.544
-397.54
-378.8
-360.373
-342.303
-324.628
-307.383
-290.6
-274.304
-258.519
-243.263
-228.552
-214.396
-200.806
-187.785
-175.336
-163.46
-152.152
-141.408
-131.22
-121.58
-112.476
-103.897
-95.8272
-88.2531
-81.1588
-74.5277
-68.3429
-62.5869
-57.242
-52.2904
-47.7146
-43.4969
-39.6202
-36.0677
-32.823
-29.8706
-27.1955
-24.7836
-22.6214
-20.6967
-18.9979
-17.5147
-16.2378
-15.1588
-14.2707
-13.5674
-13.0442
-12.6974
-12.5246
-762.126
-760.645
-757.693
-753.292
-747.473
-740.276
-731.751
-721.955
-710.953
-698.815
-685.619
-671.445
-656.375
-640.497
-623.897
-606.664
-588.884
-570.644
-552.029
-533.122
-514.003
-494.748
-475.432
-456.124
-436.889
-417.791
-398.885
-380.226
-361.863
-343.841
-326.198
-308.973
-292.197
-275.897
-260.097
-244.818
-230.075
-215.883
-202.249
-189.18
-176.68
-164.749
-153.385
-142.583
-132.337
-122.637
-113.475
-104.837
-96.7105
-89.0807
-81.9323
-75.249
-69.014
-63.21
-57.8194
-52.8245
-48.2078
-43.9516
-40.0389
-36.4528
-33.1771
-30.1959
-27.4944
-25.0584
-22.8745
-20.9301
-19.2139
-17.7154
-16.4251
-15.3348
-14.4373
-13.7266
-13.1978
-12.8473
-12.6727
-758.324
-756.88
-754
-749.706
-744.025
-736.996
-728.665
-719.087
-708.322
-696.436
-683.503
-669.599
-654.804
-639.199
-622.869
-605.899
-588.373
-570.375
-551.989
-533.296
-514.374
-495.3
-476.146
-456.982
-437.875
-418.886
-400.074
-381.492
-363.19
-345.214
-327.605
-310.4
-293.633
-277.332
-261.522
-246.224
-231.456
-217.232
-203.56
-190.45
-177.905
-165.926
-154.511
-143.658
-133.359
-123.607
-114.391
-105.701
-97.5224
-89.8421
-82.6445
-75.9137
-69.6329
-63.785
-58.3526
-53.3181
-48.6638
-44.3724
-40.4266
-36.8096
-33.5052
-30.4976
-27.7718
-25.3136
-23.1095
-21.1471
-19.4147
-17.902
-16.5995
-15.4987
-14.5925
-13.8749
-13.341
-12.9871
-12.8107
-754.935
-753.522
-750.705
-746.503
-740.943
-734.06
-725.899
-716.511
-705.953
-694.289
-681.587
-667.921
-653.367
-638.004
-621.914
-605.178
-587.878
-570.098
-551.917
-533.416
-514.673
-495.762
-476.756
-457.726
-438.735
-419.848
-401.122
-382.612
-364.369
-346.438
-328.862
-311.679
-294.923
-278.624
-262.807
-247.495
-232.706
-218.454
-204.751
-191.604
-179.019
-166.998
-155.539
-144.639
-134.293
-124.493
-115.23
-106.492
-98.2674
-90.5413
-83.2992
-76.5251
-70.2026
-64.3148
-58.8442
-53.7733
-49.0847
-44.7609
-40.7848
-37.1395
-33.8088
-30.7769
-28.0287
-25.55
-23.3274
-21.3483
-19.6011
-18.0753
-16.7614
-15.6509
-14.7368
-14.0128
-13.4741
-13.117
-12.9391
-751.914
-750.528
-747.766
-743.644
-738.189
-731.434
-723.422
-714.199
-703.823
-692.352
-679.853
-666.397
-652.056
-636.908
-621.03
-604.502
-587.404
-569.817
-551.821
-533.493
-514.911
-496.148
-477.278
-458.368
-439.486
-420.692
-402.047
-383.605
-365.416
-347.529
-329.986
-312.825
-296.081
-279.786
-263.965
-248.642
-233.835
-219.561
-205.83
-192.652
-180.032
-167.973
-156.475
-145.534
-135.146
-125.304
-115.998
-107.217
-98.9499
-91.1824
-83.8998
-77.0865
-70.7261
-64.8018
-59.2965
-54.1925
-49.4725
-45.1192
-41.1152
-37.444
-34.0891
-31.0349
-28.2662
-25.7688
-23.5291
-21.5346
-19.7737
-18.2359
-16.9115
-15.7921
-14.8706
-14.1408
-13.5977
-13.2377
-13.0583
-749.222
-747.86
-745.145
-741.094
-735.73
-729.087
-721.203
-712.126
-701.908
-690.608
-678.288
-665.016
-650.863
-635.904
-620.214
-603.871
-586.953
-569.54
-551.708
-533.536
-515.099
-496.47
-477.722
-458.923
-440.139
-421.432
-402.861
-384.482
-366.346
-348.5
-330.988
-313.849
-297.119
-280.829
-265.006
-249.675
-234.854
-220.56
-206.806
-193.601
-180.951
-168.859
-157.326
-146.348
-135.923
-126.042
-116.698
-107.879
-99.5741
-91.7691
-84.4499
-77.601
-71.2063
-65.249
-59.7119
-54.5778
-49.8292
-45.4488
-41.4195
-37.7245
-34.3476
-31.2729
-28.4854
-25.9707
-23.7154
-21.7068
-19.9334
-18.3844
-17.0504
-15.9229
-14.9945
-14.2593
-13.7122
-13.3495
-13.1688
-746.823
-745.482
-742.809
-738.819
-733.535
-726.989
-719.219
-710.269
-700.19
-689.038
-676.875
-663.766
-649.779
-634.987
-619.464
-603.285
-586.528
-569.269
-551.585
-533.552
-515.245
-496.738
-478.101
-459.402
-440.708
-422.08
-403.578
-385.258
-367.17
-349.363
-331.881
-314.764
-298.047
-281.764
-265.941
-250.604
-235.772
-221.463
-207.688
-194.46
-181.783
-169.662
-158.098
-147.089
-136.63
-126.715
-117.336
-108.483
-100.144
-92.3052
-84.9529
-78.0719
-71.646
-65.6586
-60.0928
-54.9313
-50.1566
-45.7516
-41.6992
-37.9825
-34.5854
-31.492
-28.6873
-26.1568
-23.8872
-21.8657
-20.0807
-18.5216
-17.1787
-16.0437
-15.1091
-14.3689
-13.8181
-13.453
-13.271
-744.688
-743.365
-740.728
-736.791
-731.577
-725.116
-717.444
-708.606
-698.649
-687.628
-675.603
-662.637
-648.796
-634.152
-618.776
-602.743
-586.128
-569.007
-551.455
-533.547
-515.358
-496.96
-478.423
-459.815
-441.203
-422.648
-404.209
-385.942
-367.9
-350.129
-332.676
-315.58
-298.878
-282.602
-266.781
-251.439
-236.598
-222.275
-208.484
-195.235
-182.536
-170.39
-158.798
-147.76
-137.272
-127.327
-117.917
-109.033
-100.663
-92.7941
-85.4121
-78.502
-72.0479
-66.0334
-60.4415
-55.255
-50.4567
-46.0293
-41.9558
-38.2194
-34.8038
-31.6934
-28.8729
-26.3281
-24.0453
-22.012
-20.2164
-18.648
-17.297
-16.1551
-15.2148
-14.4701
-13.9159
-13.5485
-13.3654
-742.787
-741.48
-738.874
-734.984
-729.831
-723.444
-715.859
-707.118
-697.268
-686.362
-674.458
-661.618
-647.907
-633.393
-618.148
-602.244
-585.755
-568.757
-551.322
-533.526
-515.443
-497.142
-478.696
-460.171
-441.633
-423.144
-404.763
-386.546
-368.545
-350.809
-333.383
-316.307
-299.619
-283.351
-267.532
-252.188
-237.341
-223.007
-209.202
-195.935
-183.216
-171.047
-159.432
-148.369
-137.854
-127.882
-118.445
-109.533
-101.136
-93.2393
-85.8305
-78.8942
-72.4147
-66.3756
-60.7601
-55.551
-50.7312
-46.2835
-42.1908
-38.4365
-35.0041
-31.8781
-29.0433
-26.4853
-24.1906
-22.1465
-20.3413
-18.7643
-17.406
-16.2577
-15.3122
-14.5633
-14.006
-13.6365
-13.4524
-741.096
-739.803
-737.224
-733.374
-728.275
-721.953
-714.444
-705.788
-696.032
-685.227
-673.43
-660.7
-647.103
-632.704
-617.575
-601.785
-585.409
-568.519
-551.19
-533.494
-515.504
-497.292
-478.927
-460.477
-442.006
-423.577
-405.249
-387.078
-369.116
-351.412
-334.011
-316.955
-300.28
-284.02
-268.205
-252.86
-238.007
-223.664
-209.847
-196.565
-183.829
-171.641
-160.005
-148.919
-138.381
-128.385
-118.923
-109.987
-101.565
-93.644
-86.2111
-79.2512
-72.7488
-66.6875
-61.0506
-55.8212
-50.9819
-46.5158
-42.4057
-38.635
-35.1875
-32.0473
-29.1994
-26.6294
-24.3238
-22.2699
-20.4559
-18.8711
-17.506
-16.352
-15.4018
-14.649
-14.0889
-13.7175