/*--------------------------------*- C++ -*----------------------------------*\
  =========                 |
  \\      /  F ield         | OpenFOAM: The Open Source CFD Toolbox
   \\    /   O peration     | Website:  https://openfoam.org
    \\  /    A nd           | Version:  10
     \\/     M anipulation  |
\*---------------------------------------------------------------------------*/
FoamFile
{
    format      ascii;
    class       volScalarField;
    location    "230";
    object      gradTx;
}
// * * * * * * * * * * * * * * * * * * * * * * * * * * * * * * * * * * * * * //

dimensions      [0 -1 0 1 0 0 0];

internalField   nonuniform List<scalar> 
11250
(
14289.3
8072.61
5258.83
3757.33
2842.18
2226.65
1782.57
1446.04
1182.12
970.201
797.304
654.789
536.605
438.323
356.561
288.646
232.402
186.016
147.956
116.908
91.7415
71.4821
55.291
42.4486
32.3417
24.4512
18.3412
13.6492
10.0764
7.37893
5.35974
3.86133
2.75901
1.95515
1.37404
0.957641
0.661881
0.45365
0.308333
0.20781
0.138885
0.0920407
0.0604826
0.0394094
0.025461
0.0163098
0.0103587
0.00652273
0.00407195
0.00252002
0.001546
0.000940141
0.000566662
0.000338509
0.000200399
0.000117561
6.83327e-05
3.93505e-05
2.24484e-05
1.26848e-05
7.09908e-06
3.93452e-06
2.15928e-06
1.17328e-06
6.31165e-07
3.36096e-07
1.7717e-07
9.24205e-08
4.77068e-08
2.43408e-08
1.22681e-08
6.11044e-09
2.94161e-09
1.32812e-09
3.57823e-10
4085.24
4671.7
3949.8
3175.41
2548.05
2061.57
1682.12
1381.08
1138.15
939.404
775.171
638.573
524.556
429.278
349.722
283.451
228.446
183.002
145.66
115.162
90.4172
70.4812
54.5375
41.8842
31.9211
24.1395
18.1116
13.4811
9.95416
7.29061
5.29639
3.81621
2.72712
1.93276
1.35845
0.946868
0.654492
0.448623
0.304939
0.205537
0.137375
0.0910457
0.0598323
0.0389878
0.02519
0.016137
0.0102495
0.00645426
0.0040294
0.00249381
0.00152999
0.000930454
0.000560852
0.000335056
0.000198366
0.000116375
6.76476e-05
3.89586e-05
2.22263e-05
1.25603e-05
7.02996e-06
3.89653e-06
2.1386e-06
1.16218e-06
6.25241e-07
3.32964e-07
1.755e-07
9.15687e-08
4.72733e-08
2.41421e-08
1.21649e-08
6.05885e-09
2.95918e-09
1.31934e-09
3.80873e-10
1465.88
2581.13
2696.49
2450.84
2118.44
1795.78
1510.31
1265.6
1057.96
882.235
733.568
607.815
501.544
411.912
336.538
273.405
220.776
177.144
141.19
111.758
87.8321
68.5252
53.064
40.7794
31.0971
23.5285
17.6612
13.1513
9.71419
7.11721
5.17197
3.72757
2.66443
1.88876
1.3278
0.92568
0.639959
0.438732
0.29826
0.201064
0.134403
0.0890865
0.0585515
0.0381574
0.0246561
0.0157966
0.0100342
0.0063193
0.00394552
0.00244212
0.00149843
0.000911345
0.000549389
0.000328242
0.000194353
0.000114034
6.62946e-05
3.81843e-05
2.17875e-05
1.23141e-05
6.89322e-06
3.82136e-06
2.09769e-06
1.1401e-06
6.13447e-07
3.26764e-07
1.72274e-07
8.98916e-08
4.64095e-08
2.37107e-08
1.19838e-08
5.96994e-09
2.901e-09
1.27653e-09
3.74288e-10
663.669
1492.39
1807.35
1817.32
1684.42
1498.98
1304.66
1120.48
953.647
805.998
677.063
565.46
469.52
387.546
317.921
259.145
209.844
168.766
134.779
106.864
84.1083
65.703
50.9346
39.1809
29.9037
22.6427
17.0078
12.6724
9.36553
6.86512
4.99099
3.59859
2.57318
1.82469
1.28315
0.894801
0.618772
0.424309
0.288519
0.194537
0.130065
0.0862271
0.0566819
0.0369449
0.0238763
0.0152993
0.00971971
0.0061221
0.00382293
0.00236657
0.00145227
0.000883401
0.000532622
0.000318273
0.000188481
0.000110607
6.43137e-05
3.70503e-05
2.11447e-05
1.19533e-05
6.69274e-06
3.71109e-06
2.03769e-06
1.10778e-06
5.96227e-07
3.1767e-07
1.67518e-07
8.74197e-08
4.51406e-08
2.30664e-08
1.16424e-08
5.8042e-09
2.80771e-09
1.24689e-09
3.42457e-10
360.708
919.292
1226.28
1330.85
1308.1
1217.09
1095.57
965.241
837.73
718.807
611.006
515.101
430.938
357.883
295.067
241.521
196.258
158.307
126.745
100.712
79.4147
62.1376
48.2394
37.1542
28.3884
21.5165
16.1761
12.0622
8.92092
6.54341
4.75987
3.43375
2.45649
1.74271
1.22599
0.855263
0.591632
0.405827
0.276033
0.186169
0.124502
0.0825586
0.0542825
0.0353886
0.0228751
0.0146606
0.00931571
0.00586872
0.00366537
0.00226945
0.00139293
0.000847462
0.000511051
0.000305444
0.000180921
0.000106194
6.17619e-05
3.55889e-05
2.03159e-05
1.14879e-05
6.43406e-06
3.56877e-06
1.96018e-06
1.06602e-06
5.73958e-07
3.05904e-07
1.61379e-07
8.42531e-08
4.35348e-08
2.22399e-08
1.12264e-08
5.57919e-09
2.70233e-09
1.21616e-09
3.46847e-10
221.186
599.598
850.579
975.735
1004.99
971.485
901.728
814.141
720.513
627.96
540.537
460.367
388.376
324.765
269.301
221.495
180.718
146.278
117.464
93.5764
73.9532
57.9772
45.0868
34.7786
26.609
20.1919
15.1966
11.3427
8.39602
6.16322
4.48649
3.23863
2.31827
1.64554
1.15821
0.808343
0.559411
0.383873
0.261195
0.176221
0.117886
0.0781944
0.0514273
0.0335359
0.021683
0.0138999
0.00883438
0.00556675
0.00347755
0.00215364
0.00132214
0.000804577
0.000485304
0.000290126
0.000171891
0.00010092
5.87113e-05
3.38411e-05
1.93243e-05
1.09308e-05
6.12419e-06
3.39816e-06
1.8672e-06
1.01587e-06
5.47201e-07
2.91797e-07
1.54013e-07
8.04499e-08
4.15997e-08
2.1285e-08
1.07907e-08
5.35857e-09
2.58708e-09
1.16567e-09
3.34773e-10
146.206
409.056
603.518
720.343
769.396
767.644
731.866
675.706
609.164
539.094
469.949
404.471
344.222
289.965
241.938
200.038
163.947
133.216
107.332
85.7535
67.9427
53.3838
41.5961
32.1419
24.6297
18.7159
14.1032
10.5383
7.80849
5.73717
4.17982
3.01954
2.16294
1.53625
1.08192
0.755502
0.523101
0.359121
0.244457
0.164993
0.110416
0.0732648
0.0482008
0.0314416
0.0203349
0.0130393
0.0082897
0.00522492
0.00326486
0.00202244
0.00124193
0.000755962
0.000456104
0.000272746
0.000161641
9.49315e-05
5.52453e-05
3.18542e-05
1.81963e-05
1.02967e-05
5.77127e-06
3.2037e-06
1.76114e-06
9.58646e-07
5.16664e-07
2.75669e-07
1.45584e-07
7.61011e-08
3.93781e-08
2.0183e-08
1.02528e-08
5.1116e-09
2.47623e-09
1.10311e-09
3.02942e-10
101.335
288.529
436.753
536.334
589.073
603.029
588.183
553.904
507.898
456.011
402.422
349.971
300.482
255.032
214.166
178.059
146.631
119.641
96.7425
77.5373
61.6036
48.5217
37.8898
29.3345
22.5173
17.1372
12.9315
9.67496
7.17693
5.27859
3.84933
2.78318
1.9952
1.41813
0.999391
0.6983
0.483768
0.332292
0.226303
0.15281
0.102306
0.0679102
0.0446947
0.0291648
0.0188686
0.012103
0.00769681
0.00485268
0.00303316
0.00187946
0.00115447
0.000702935
0.00042424
0.000253772
0.000150446
8.83866e-05
5.14551e-05
2.96801e-05
1.69612e-05
9.60193e-06
5.38428e-06
2.99031e-06
1.64465e-06
8.95714e-07
4.82992e-07
2.57842e-07
1.36279e-07
7.12837e-08
3.69085e-08
1.89185e-08
9.58988e-09
4.81086e-09
2.35768e-09
1.03835e-09
2.85381e-10
72.4495
208.492
321.113
402.545
451.706
472.079
469.35
449.667
418.638
380.9
340.044
298.698
258.69
221.214
186.979
156.337
129.38
106.022
86.0557
69.2028
55.1445
43.5483
34.0857
26.4446
20.337
15.5039
11.7169
8.77831
6.51993
4.80082
3.50456
2.53631
1.8198
1.2945
0.912936
0.638325
0.442496
0.30412
0.207229
0.14
0.0937739
0.0622743
0.0410024
0.0267659
0.0173231
0.0111156
0.00707129
0.00445979
0.00278849
0.00172842
0.00106203
0.000646861
0.000390528
0.000233686
0.000138587
8.14504e-05
4.74356e-05
2.73729e-05
1.56496e-05
8.86352e-06
4.97265e-06
2.76315e-06
1.52058e-06
8.28587e-07
4.47051e-07
2.38801e-07
1.26301e-07
6.61161e-08
3.4249e-08
1.75498e-08
8.90278e-09
4.47828e-09
2.19304e-09
9.88953e-10
2.87576e-10
52.8941
153.282
238.959
304.15
346.992
368.728
372.486
362.182
341.751
314.712
283.976
251.814
219.906
189.428
161.145
135.5
112.696
92.7574
75.5834
60.9921
48.7517
38.6059
30.2918
23.5532
18.1495
13.8612
10.4925
7.87263
5.85513
4.31661
3.15463
2.28541
1.64133
1.16856
0.824782
0.577116
0.400339
0.275322
0.187717
0.126888
0.085035
0.0564981
0.0372161
0.0243047
0.0157365
0.0101015
0.00642853
0.00405587
0.00253683
0.00157297
0.00096685
0.000589096
0.00035578
0.000212971
0.00012635
7.42878e-05
4.32822e-05
2.49871e-05
1.42921e-05
8.09864e-06
4.54588e-06
2.52739e-06
1.39165e-06
7.5881e-07
4.09684e-07
2.18978e-07
1.15875e-07
6.07125e-08
3.14665e-08
1.6146e-08
8.20689e-09
4.09521e-09
1.98779e-09
9.17608e-10
2.70014e-10
39.1729
114.071
179.399
230.968
266.926
287.479
294.281
289.778
276.667
257.539
234.668
209.926
184.772
160.282
137.204
116.012
96.9662
80.1631
65.5785
53.1053
42.5819
33.8158
26.6011
20.7312
16.0083
12.249
9.28807
6.97983
5.19854
3.83755
2.80789
2.03645
1.46401
1.04329
0.736999
0.516103
0.35828
0.246566
0.168218
0.113776
0.0762897
0.050714
0.0334223
0.0218371
0.014145
0.00908361
0.00578307
0.00365004
0.00228384
0.00141663
0.000871068
0.000530932
0.000320771
0.000192088
0.000114006
6.70572e-05
3.90862e-05
2.25749e-05
1.29186e-05
7.32401e-06
4.11327e-06
2.28816e-06
1.26066e-06
6.87843e-07
3.71635e-07
1.9878e-07
1.0523e-07
5.51695e-08
2.8627e-08
1.47103e-08
7.4616e-09
3.71653e-09
1.80887e-09
8.06749e-10
2.22816e-10
29.2927
85.6018
135.508
175.998
205.48
223.722
231.554
230.478
222.317
208.938
192.073
173.215
153.583
134.113
115.491
98.1801
82.4601
68.4682
56.2314
45.6971
36.7587
29.2756
23.0896
18.0372
13.958
10.7011
8.12881
6.11863
4.56393
3.37371
2.47161
1.79463
1.29155
0.9213
0.651417
0.456558
0.317192
0.218449
0.149137
0.100933
0.0677186
0.0450412
0.0296991
0.019414
0.0125812
0.00808291
0.00514812
0.00325059
0.0020347
0.00126257
0.000776633
0.00047355
0.000286212
0.00017146
0.000101803
5.99048e-05
3.49324e-05
2.0185e-05
1.15565e-05
6.55517e-06
3.68347e-06
2.05023e-06
1.13027e-06
6.17093e-07
3.33604e-07
1.78572e-07
9.46223e-08
4.96354e-08
2.5783e-08
1.32493e-08
6.70205e-09
3.34993e-09
1.62667e-09
7.10159e-10
2.03059e-10
22.0427
64.5865
102.754
134.373
158.163
173.742
181.485
182.306
177.423
168.164
155.823
141.565
126.375
111.043
96.1681
82.176
69.3426
57.8218
47.6712
38.8765
31.3718
25.0576
19.815
15.5163
12.0335
9.24414
7.03495
5.30418
3.96254
2.93331
2.15179
1.5643
1.12704
0.804783
0.569576
0.399553
0.277817
0.191478
0.130817
0.0885938
0.0594766
0.0395822
0.0261138
0.017079
0.0110734
0.00711743
0.00453516
0.00286475
0.0017939
0.00111359
0.000685252
0.000417991
0.000252729
0.00015146
8.99647e-05
5.29604e-05
3.08962e-05
1.78609e-05
1.02308e-05
5.80606e-06
3.26427e-06
1.81792e-06
1.00279e-06
5.47831e-07
2.96359e-07
1.58762e-07
8.42136e-08
4.41846e-08
2.29644e-08
1.1795e-08
5.97104e-09
2.97454e-09
1.44666e-09
6.66254e-10
2.10743e-10
16.6495
48.8844
78.0772
102.66
121.632
134.593
141.68
143.439
140.68
134.338
125.369
114.662
102.999
91.0286
79.2566
68.0578
57.6878
48.3016
39.9723
32.7101
26.4788
21.2103
16.8168
13.2003
10.26
7.8977
6.0215
4.54785
3.40289
2.52271
1.85307
1.34882
0.972918
0.695472
0.492702
0.345946
0.24075
0.166063
0.113538
0.076945
0.0516898
0.0344208
0.0227215
0.0148682
0.00964478
0.00620211
0.00395369
0.0024985
0.0015652
0.000971996
0.000598354
0.000365122
0.000220847
0.000132404
7.86764e-05
4.63338e-05
2.70417e-05
1.56395e-05
8.96247e-06
5.08877e-06
2.86245e-06
1.59501e-06
8.80341e-07
4.81246e-07
2.60529e-07
1.39652e-07
7.41111e-08
3.89193e-08
2.02214e-08
1.03824e-08
5.27295e-09
2.66392e-09
1.31934e-09
6.12471e-10
1.78912e-10
12.5985
37.0504
59.3608
78.3935
93.3808
103.961
110.148
112.266
110.848
106.55
100.07
92.0794
83.188
73.9143
64.6773
55.796
47.4971
39.9262
33.1615
27.2277
22.1087
17.76
14.1179
11.1084
8.65312
6.6744
5.09838
3.85734
2.89085
2.14629
1.57875
1.15061
0.830931
0.594629
0.421692
0.296368
0.206431
0.142508
0.0975081
0.0661291
0.0444536
0.0296206
0.0195642
0.0128092
0.00831333
0.00534848
0.00341105
0.00215651
0.0013515
0.000839618
0.000517058
0.000315632
0.000190983
0.000114541
6.80875e-05
4.01132e-05
2.34204e-05
1.35507e-05
7.76886e-06
4.4131e-06
2.48359e-06
1.38462e-06
7.6463e-07
4.1822e-07
2.26555e-07
1.21512e-07
6.45212e-08
3.39241e-08
1.76365e-08
9.0773e-09
4.62646e-09
2.33683e-09
1.1536e-09
5.40028e-10
1.50374e-10
9.53558
28.0793
45.1013
59.7756
71.5203
80.0289
85.2608
87.4012
86.8029
83.9235
79.2672
73.3376
66.6022
59.4702
52.2803
45.2977
38.7167
32.6681
27.228
22.4284
18.2663
14.7141
11.7266
9.24875
7.22034
5.58057
4.27086
3.23689
2.42979
1.80669
1.3308
0.971162
0.702185
0.50306
0.357127
0.251237
0.175154
0.121018
0.0828696
0.0562427
0.0378336
0.0252256
0.0166712
0.0109211
0.00709162
0.00456467
0.00291249
0.00184209
0.00115492
0.000717764
0.000442179
0.000270018
0.000163439
9.80562e-05
5.83084e-05
3.4364e-05
2.0071e-05
1.16172e-05
6.66296e-06
3.78647e-06
2.1319e-06
1.18911e-06
6.5698e-07
3.59505e-07
1.94849e-07
1.04578e-07
5.55746e-08
2.92339e-08
1.52305e-08
7.85784e-09
4.01399e-09
2.00644e-09
9.82368e-10
4.55511e-10
1.44886e-10
7.21016
21.2544
34.2097
45.4748
54.6116
61.3709
65.691
67.6754
67.5557
65.6501
62.322
57.9447
52.8734
47.4261
41.872
36.4271
31.2538
26.4655
22.1321
18.2875
14.9371
12.0647
9.6393
7.6202
5.96185
4.61717
3.54017
2.68777
2.02086
1.50489
1.11005
0.811132
0.587193
0.421157
0.299301
0.210764
0.147074
0.101705
0.0697001
0.0473401
0.0318671
0.0212612
0.0140597
0.00921544
0.00598715
0.00385561
0.00246118
0.00155729
0.000976742
0.000607252
0.000374228
0.0002286
0.000138414
8.30679e-05
4.94111e-05
2.91296e-05
1.70193e-05
9.85409e-06
5.6537e-06
3.21409e-06
1.81031e-06
1.01015e-06
5.58366e-07
3.05689e-07
1.65748e-07
8.89959e-08
4.73271e-08
2.49181e-08
1.29914e-08
6.6823e-09
3.40591e-09
1.73424e-09
8.45165e-10
3.60019e-10
9.54927e-11
5.44093
16.0531
25.8826
34.4909
41.5503
46.8634
50.365
52.1102
52.2506
51.0071
48.6404
45.4252
41.6288
37.4956
33.2364
29.024
24.9914
21.2341
17.8137
14.7632
12.0921
9.79235
7.84283
6.21415
4.87212
3.78071
2.90419
2.20873
1.66336
1.24053
0.916343
0.670464
0.485957
0.348946
0.248249
0.174989
0.122224
0.0845939
0.0580209
0.0394374
0.026566
0.017736
0.0117356
0.00769643
0.00500285
0.00322328
0.00205844
0.00130299
0.000817547
0.000508455
0.000313444
0.000191527
0.000116
6.96358e-05
4.14325e-05
2.44325e-05
1.42788e-05
8.26967e-06
4.74603e-06
2.69891e-06
1.52063e-06
8.48793e-07
4.69335e-07
2.5707e-07
1.39446e-07
7.49113e-08
3.98677e-08
2.10205e-08
1.09531e-08
5.64724e-09
2.89551e-09
1.46532e-09
7.22232e-10
2.95259e-10
6.69547e-11
4.0942
12.0886
19.5188
26.0651
31.4833
35.6199
38.4149
39.8951
40.1596
39.3614
37.6868
35.3367
32.5107
29.3945
26.1514
22.9174
19.7995
16.8764
14.2006
11.8022
9.69277
7.86906
6.31732
5.01652
3.9413
3.06435
2.3582
1.79654
1.35511
1.01215
0.748692
0.548516
0.398057
0.286157
0.203798
0.143801
0.100534
0.0696431
0.0478055
0.0325186
0.0219208
0.0146443
0.00969575
0.00636219
0.00413768
0.0026671
0.00170398
0.00107904
0.000677267
0.000421346
0.00025982
0.000158803
9.62041e-05
5.77655e-05
3.43774e-05
2.02765e-05
1.18525e-05
6.86594e-06
3.94129e-06
2.24179e-06
1.2634e-06
7.05378e-07
3.90136e-07
2.1376e-07
1.15978e-07
6.23315e-08
3.317e-08
1.74785e-08
9.13328e-09
4.73073e-09
2.43452e-09
1.20518e-09
5.91616e-10
2.55745e-10
5.59785e-11
3.06995
9.07008
14.6629
19.6155
23.7469
26.9392
29.141
30.3631
30.6701
30.1677
28.9887
27.2792
25.1872
22.8525
20.4001
17.9358
15.5442
13.289
11.2139
9.34512
7.69443
6.26179
5.03845
4.00956
3.15653
2.45885
1.8956
1.44655
1.09283
0.817461
0.605517
0.4442
0.322749
0.232286
0.165609
0.116972
0.0818545
0.056753
0.0389892
0.0265417
0.0179044
0.0119689
0.00792914
0.00520582
0.00338732
0.00218441
0.00139616
0.000884437
0.000555306
0.000345571
0.000213148
0.000130307
7.89567e-05
4.74178e-05
2.82239e-05
1.66495e-05
9.7338e-06
5.63942e-06
3.23771e-06
1.84188e-06
1.03819e-06
5.79747e-07
3.20711e-07
1.75751e-07
9.53753e-08
5.12664e-08
2.72769e-08
1.43854e-08
7.5088e-09
3.88886e-09
1.97242e-09
9.80172e-10
4.93928e-10
2.19523e-10
6.36618e-11
2.29247
6.77666
10.9668
14.6934
17.823
20.2662
21.9804
22.9681
23.2713
22.9628
22.1369
20.8995
19.3593
17.621
15.7791
13.915
12.0948
10.3691
8.77341
7.33008
6.05002
4.93494
3.97951
3.17342
2.50316
1.95349
1.50863
1.15314
0.872515
0.65361
0.484812
0.356111
0.259059
0.18666
0.133222
0.0941911
0.0659745
0.0457828
0.0314783
0.0214449
0.0144764
0.00968352
0.00641891
0.00421656
0.00274495
0.00177094
0.00113233
0.000717547
0.000450655
0.000280517
0.00017306
0.000105818
6.41278e-05
3.8517e-05
2.29283e-05
1.35267e-05
7.90863e-06
4.58227e-06
2.63095e-06
1.4968e-06
8.43744e-07
4.71225e-07
2.60697e-07
1.42854e-07
7.75445e-08
4.16908e-08
2.22114e-08
1.17423e-08
6.1258e-09
3.16992e-09
1.60142e-09
8.1553e-10
4.02826e-10
1.73424e-10
6.80523e-11
1.704
5.03943
8.16283
10.9511
13.3062
15.161
16.4814
17.2658
17.5411
17.3577
16.7821
15.8907
14.7631
13.4768
12.1028
10.703
9.32827
8.01829
6.80152
5.69635
4.71248
3.85239
3.11307
2.48743
1.96577
1.53685
1.18889
0.910191
0.689733
0.517425
0.384315
0.282652
0.205866
0.1485
0.106099
0.075089
0.0526438
0.0365637
0.02516
0.0171533
0.0115873
0.0077559
0.00514412
0.00338092
0.00220199
0.00142122
0.000909051
0.000576237
0.000362
0.00022538
0.000139068
8.50447e-05
5.15435e-05
3.09603e-05
1.84305e-05
1.08733e-05
6.3572e-06
3.68329e-06
2.1147e-06
1.20306e-06
6.78137e-07
3.78716e-07
2.09517e-07
1.14807e-07
6.23139e-08
3.35125e-08
1.78692e-08
9.42414e-09
4.9305e-09
2.55306e-09
1.32812e-09
6.73937e-10
3.01845e-10
1.4269e-10
2.85381e-11
1.26022
3.72847
6.0441
8.118
9.87851
11.2756
12.2826
12.896
13.1333
13.0289
12.6299
11.991
11.1701
10.2241
9.20607
8.16244
7.13208
6.14558
5.22538
4.38633
3.63669
2.97919
2.41228
1.93117
1.52895
1.19741
0.927819
0.71143
0.539911
0.405597
0.301654
0.222135
0.16198
0.116973
0.0836615
0.0592674
0.0415897
0.0289109
0.0199099
0.013584
0.0091824
0.00615
0.0040813
0.00268374
0.0017487
0.0011291
0.000722441
0.000458074
0.000287832
0.000179235
0.000110608
6.76455e-05
4.09996e-05
2.46268e-05
1.46596e-05
8.64799e-06
5.05567e-06
2.92887e-06
1.68135e-06
9.56408e-07
5.39051e-07
3.0099e-07
1.66491e-07
9.12296e-08
4.95212e-08
2.66348e-08
1.41593e-08
7.44294e-09
3.88776e-09
2.02949e-09
1.04713e-09
5.31247e-10
2.55745e-10
1.14152e-10
2.305e-11
0.926983
2.74352
4.45049
5.98361
7.29077
8.33494
9.09569
9.56907
9.76617
9.71061
9.43548
8.97987
8.38559
7.6943
6.94503
6.17252
5.40607
4.66902
3.97876
3.34709
2.78082
2.28262
1.85179
1.48519
1.17791
0.924033
0.71713
0.550711
0.41854
0.314849
0.234465
0.172869
0.126201
0.0912351
0.0653205
0.046319
0.0325329
0.0226342
0.0155996
0.0106509
0.00720452
0.00482821
0.00320587
0.00210911
0.00137485
0.000888037
0.000568372
0.000360472
0.000226546
0.000141089
8.70739e-05
5.32534e-05
3.22756e-05
1.93852e-05
1.1538e-05
6.80549e-06
3.97779e-06
2.30394e-06
1.3223e-06
7.51981e-07
4.23721e-07
2.3655e-07
1.30821e-07
7.167e-08
3.8916e-08
2.09052e-08
1.11002e-08
5.84591e-09
3.05357e-09
1.57618e-09
8.02358e-10
4.03923e-10
2.20621e-10
1.1525e-10
4.71976e-11
0.677971
2.00716
3.25794
4.38414
5.34804
6.1225
6.69203
7.05287
7.21204
7.18572
6.99707
6.67385
6.24613
5.74411
5.1964
4.62868
4.06281
3.51643
3.00284
2.53124
2.10714
1.73291
1.4084
1.13155
0.89895
0.706331
0.549015
0.422227
0.32134
0.24205
0.18048
0.133225
0.0973701
0.0704675
0.0505027
0.0358457
0.0251992
0.0175465
0.0121024
0.00826899
0.00559697
0.0037531
0.00249332
0.00164108
0.00107019
0.000691483
0.000442691
0.00028082
0.000176512
0.000109937
6.78497e-05
4.14944e-05
2.51463e-05
1.5101e-05
8.98632e-06
5.29911e-06
3.09647e-06
1.79292e-06
1.02867e-06
5.84794e-07
3.29374e-07
1.83804e-07
1.01621e-07
5.56613e-08
3.01878e-08
1.62085e-08
8.63496e-09
4.55731e-09
2.37963e-09
1.21726e-09
6.39911e-10
3.5014e-10
1.93181e-10
1.04274e-10
2.41476e-11
0.492884
1.45959
2.37042
3.19234
3.8982
4.46823
4.89086
5.16281
5.2885
5.27895
5.15032
4.92225
4.61621
4.25397
3.85633
3.44209
3.02745
2.62556
2.24649
1.89729
1.58234
1.30365
1.06137
0.854165
0.679673
0.534863
0.416352
0.320653
0.244366
0.184307
0.137593
0.101686
0.0744012
0.0539011
0.0386681
0.0274712
0.0193288
0.0134698
0.00929757
0.00635699
0.00430552
0.00288874
0.00192006
0.00126433
0.000824805
0.000533094
0.00034137
0.000216583
0.000136149
8.48002e-05
5.23341e-05
3.20024e-05
1.93908e-05
1.1642e-05
6.92606e-06
4.08286e-06
2.38488e-06
1.38034e-06
7.91617e-07
4.49821e-07
2.5324e-07
1.41236e-07
7.80472e-08
4.26907e-08
2.31389e-08
1.24305e-08
6.61095e-09
3.49372e-09
1.83851e-09
9.49439e-10
4.85147e-10
2.70014e-10
1.31714e-10
4.71976e-11
1.75619e-11
0.356096
1.05477
1.7138
2.30965
2.82291
3.23928
3.55022
3.75301
3.85039
3.84988
3.76268
3.60263
3.38496
3.12527
2.83855
2.53848
2.23692
1.94361
1.66605
1.40961
1.17767
0.971911
0.792588
0.638872
0.509142
0.401258
0.312795
0.241227
0.184076
0.139008
0.103899
0.076872
0.0563061
0.0408335
0.0293217
0.0208502
0.0146827
0.0102401
0.00707347
0.00483957
0.00327979
0.00220174
0.00146414
0.000964508
0.00062943
0.000406929
0.000260632
0.00016538
0.000103967
6.47546e-05
3.99593e-05
2.44312e-05
1.47999e-05
8.88306e-06
5.28278e-06
3.11287e-06
1.81742e-06
1.05135e-06
6.02616e-07
3.42205e-07
1.92543e-07
1.07322e-07
5.92483e-08
3.23896e-08
1.75597e-08
9.41866e-09
4.99635e-09
2.62989e-09
1.37531e-09
7.0028e-10
3.5014e-10
1.58057e-10
8.12237e-11
4.50023e-11
3.84166e-11
0.255616
0.757309
1.231
1.66003
2.03059
2.33241
2.55924
2.70892
2.78315
2.787
2.72825
2.61655
2.46268
2.27772
2.07241
1.85661
1.63894
1.42652
1.22492
1.03813
0.868749
0.718118
0.586538
0.473502
0.377906
0.298253
0.232815
0.179783
0.137362
0.103856
0.077715
0.0575623
0.0422066
0.0306388
0.0220218
0.0156732
0.0110462
0.0077099
0.00532948
0.00364873
0.00247421
0.00166183
0.00110561
0.000728605
0.000475632
0.000307572
0.000197028
0.000125033
7.86033e-05
4.89539e-05
3.02045e-05
1.8463e-05
1.11811e-05
6.70857e-06
3.98785e-06
2.34865e-06
1.37046e-06
7.9229e-07
4.53811e-07
2.57521e-07
1.44776e-07
8.06496e-08
4.44897e-08
2.4343e-08
1.31692e-08
7.0467e-09
3.73849e-09
1.96803e-09
1.02847e-09
5.32344e-10
2.62331e-10
9.98832e-11
5.70761e-11
3.62214e-11
9.87856e-12
0.182276
0.540128
0.878306
1.18508
1.45068
1.66779
1.83189
1.9413
1.99705
2.00258
1.96323
1.88573
1.77763
1.64677
1.50077
1.34671
1.19077
1.03813
0.89285
0.757901
0.635232
0.52589
0.43017
0.34777
0.277947
0.219659
0.17169
0.132748
0.101548
0.0768677
0.0575839
0.0426969
0.0313385
0.0227714
0.016382
0.0116693
0.00823097
0.00574925
0.00397693
0.00272445
0.00184851
0.00124219
0.000826781
0.000545054
0.000355913
0.000230204
0.000147486
9.35985e-05
5.88399e-05
3.66412e-05
2.26031e-05
1.38126e-05
8.36186e-06
5.01482e-06
2.97948e-06
1.75374e-06
1.02266e-06
5.90786e-07
3.38128e-07
1.91705e-07
1.07671e-07
5.99266e-08
3.30427e-08
1.80591e-08
9.75453e-09
5.2071e-09
2.75392e-09
1.46751e-09
7.65039e-10
4.02826e-10
1.83302e-10
8.67118e-11
4.17095e-11
3.29285e-12
-1.75619e-11
0.129097
0.382613
0.622382
0.840193
1.02917
1.18416
1.30189
1.38111
1.42243
1.42816
1.40197
1.34851
1.27304
1.18108
1.078
0.968805
0.857933
0.749096
0.645237
0.548531
0.460423
0.38172
0.31268
0.253132
0.202579
0.160304
0.125453
0.097116
0.0743774
0.0563636
0.0422691
0.0313737
0.0230502
0.0167645
0.0120713
0.00860584
0.0060749
0.00424634
0.00293928
0.00201482
0.00136778
0.000919584
0.000612312
0.000403802
0.000263746
0.000170621
0.000109324
6.9381e-05
4.36127e-05
2.71545e-05
1.67468e-05
1.02304e-05
6.19065e-06
3.71079e-06
2.20343e-06
1.29608e-06
7.55228e-07
4.35926e-07
2.49278e-07
1.41198e-07
7.92151e-08
4.40243e-08
2.42508e-08
1.32285e-08
7.13781e-09
3.80764e-09
2.00974e-09
1.04383e-09
5.21368e-10
2.85381e-10
1.43788e-10
9.21999e-11
3.29285e-11
7.68332e-12
-3.29285e-12
0.090801
0.269154
0.437958
0.591496
0.724972
0.834753
0.918529
0.975358
1.00561
1.01082
0.993491
0.956833
0.904493
0.840301
0.768032
0.691213
0.612979
0.535977
0.462319
0.393578
0.330816
0.274639
0.225266
0.182602
0.14632
0.115928
0.0908335
0.0703974
0.053975
0.0409466
0.0307392
0.0228384
0.0167953
0.0122264
0.00881112
0.00628669
0.00444116
0.00310654
0.00215172
0.00147583
0.0010024
0.000674243
0.000449123
0.000296277
0.000193561
0.000125237
8.02498e-05
5.09285e-05
3.201e-05
1.99263e-05
1.22854e-05
7.5021e-06
4.53749e-06
2.71833e-06
1.61304e-06
9.48104e-07
5.52007e-07
3.18333e-07
1.81842e-07
1.02909e-07
5.76809e-08
3.20175e-08
1.76025e-08
9.58001e-09
5.16758e-09
2.74295e-09
1.45434e-09
7.37599e-10
3.70995e-10
1.98669e-10
1.11957e-10
4.93928e-11
-7.68332e-12
-3.29285e-12
1.31714e-11
0.0634155
0.188004
0.305998
0.413445
0.507016
0.584179
0.643305
0.683705
0.705592
0.709993
0.698604
0.673619
0.637553
0.593054
0.54275
0.489104
0.434319
0.380263
0.328438
0.279971
0.235631
0.195868
0.160858
0.130553
0.104739
0.0830808
0.0651708
0.0505643
0.0388101
0.0294727
0.0221475
0.0164708
0.0121237
0.00883329
0.00637113
0.00454932
0.00321617
0.00225121
0.00156025
0.00107076
0.000727639
0.000489642
0.000326277
0.0002153
0.000140688
9.10387e-05
5.83386e-05
3.70212e-05
2.32656e-05
1.44794e-05
8.92416e-06
5.44722e-06
3.29288e-06
1.97146e-06
1.16899e-06
6.86555e-07
3.99364e-07
2.30102e-07
1.3131e-07
7.42352e-08
4.15723e-08
2.30555e-08
1.26435e-08
6.84584e-09
3.67921e-09
1.95705e-09
1.02957e-09
5.43321e-10
2.91966e-10
1.25128e-10
6.14666e-11
1.31714e-11
-1.20738e-11
-1.64643e-11
-5.48809e-12
0.0439726
0.130379
0.212261
0.286901
0.352005
0.405821
0.44721
0.475675
0.491337
0.494876
0.487438
0.470514
0.445825
0.415193
0.38043
0.343245
0.305173
0.267521
0.231347
0.197449
0.166381
0.138471
0.113855
0.0925129
0.074305
0.0590057
0.0463359
0.0359887
0.0276511
0.0210192
0.0158102
0.0117686
0.00867018
0.0063224
0.00456376
0.00326123
0.00230717
0.001616
0.00112068
0.000769511
0.000523178
0.000352203
0.000234774
0.000154962
0.000101279
6.5544e-05
4.2002e-05
2.6652e-05
1.67462e-05
1.04192e-05
6.41936e-06
3.91644e-06
2.36615e-06
1.41563e-06
8.38766e-07
4.92165e-07
2.86003e-07
1.64633e-07
9.38759e-08
5.30138e-08
2.96576e-08
1.64313e-08
9.01144e-09
4.87452e-09
2.6244e-09
1.41044e-09
7.38697e-10
3.94045e-10
2.08547e-10
1.03176e-10
4.28071e-11
2.08547e-11
1.20738e-11
7.68332e-12
-2.63428e-11
0.0302696
0.0897602
0.146165
0.197631
0.242586
0.279826
0.308563
0.328442
0.339531
0.342278
0.337451
0.326059
0.309272
0.288333
0.264483
0.238901
0.212645
0.186624
0.161575
0.138059
0.116469
0.0970409
0.0798791
0.0649772
0.052245
0.0415317
0.0326476
0.0253826
0.0195211
0.0148532
0.0111825
0.00833126
0.00614299
0.00448318
0.00323863
0.00231598
0.00163957
0.00114912
0.000797369
0.000547797
0.00037261
0.00025094
0.000167328
0.000110472
7.22134e-05
4.67378e-05
2.99503e-05
1.90028e-05
1.19376e-05
7.42515e-06
4.57283e-06
2.78843e-06
1.68362e-06
1.00655e-06
5.95889e-07
3.49297e-07
2.02782e-07
1.16599e-07
6.64048e-08
3.74441e-08
2.09272e-08
1.15711e-08
6.34203e-09
3.43774e-09
1.85827e-09
1.00432e-09
5.32344e-10
2.83185e-10
1.31714e-10
8.45165e-11
5.59785e-11
4.39047e-11
8.78094e-12
9.87856e-12
-6.58571e-12
0.0206838
0.0613413
0.0999089
0.135129
0.165934
0.191503
0.211293
0.225056
0.232826
0.234899
0.231786
0.224167
0.212829
0.198617
0.182375
0.164907
0.146939
0.129096
0.111888
0.0957069
0.0808263
0.0674154
0.0555511
0.0452345
0.0364079
0.028971
0.022796
0.0177402
0.0136562
0.0104001
0.00783676
0.00584352
0.00431218
0.00314949
0.00227686
0.00162935
0.00115424
0.000809464
0.000561995
0.000386288
0.000262868
0.0001771
0.000118127
7.80069e-05
5.09994e-05
3.30099e-05
2.11527e-05
1.34193e-05
8.42815e-06
5.24056e-06
3.22604e-06
1.96614e-06
1.18637e-06
7.08754e-07
4.19213e-07
2.45519e-07
1.4239e-07
8.17769e-08
4.64863e-08
2.61771e-08
1.46005e-08
8.07407e-09
4.42779e-09
2.40598e-09
1.26446e-09
6.84913e-10
3.83069e-10
1.85497e-10
9.21999e-11
4.39047e-11
3.07333e-11
3.29285e-11
1.31714e-11
-9.87856e-12
9.87856e-12
0.0140287
0.0416084
0.0677821
0.0917024
0.112649
0.130067
0.143585
0.15303
0.158421
0.159949
0.157955
0.152891
0.145287
0.135709
0.124729
0.112891
0.10069
0.0885507
0.0768243
0.0657796
0.0556076
0.0464271
0.0382942
0.0312128
0.0251463
0.0200286
0.0157742
0.0122868
0.00946658
0.00721562
0.00544168
0.00406089
0.00299903
0.00219204
0.00158582
0.0011356
0.000804969
0.000564853
0.000392378
0.000269832
0.000183698
0.000123806
8.26037e-05
5.45603e-05
3.56754e-05
2.30924e-05
1.47969e-05
9.38587e-06
5.89354e-06
3.6633e-06
2.25408e-06
1.373e-06
8.279e-07
4.942e-07
2.9203e-07
1.70876e-07
9.89941e-08
5.67819e-08
3.22502e-08
1.81326e-08
1.00937e-08
5.5759e-09
3.06016e-09
1.66289e-09
8.79192e-10
4.55511e-10
2.52452e-10
1.33909e-10
8.23213e-11
3.40261e-11
0
0
2.19524e-12
-1.31714e-11
1.20738e-11
0.00944353
0.0280115
0.04564
0.0617622
0.0758957
0.0876666
0.0968251
0.103252
0.106955
0.10806
0.10679
0.103446
0.0983804
0.0919723
0.0846046
0.0766433
0.0684216
0.0602283
0.0523009
0.0448235
0.0379274
0.0316951
0.0261669
0.0213475
0.0172139
0.0137227
0.0108172
0.00843285
0.00650267
0.0049605
0.00374394
0.00279608
0.00206648
0.0015115
0.00109423
0.000784078
0.000556132
0.000390463
0.000271377
0.000186709
0.000127161
8.57314e-05
5.72162e-05
3.77994e-05
2.4719e-05
1.6001e-05
1.02524e-05
6.50227e-06
4.08184e-06
2.53629e-06
1.55987e-06
9.49584e-07
5.72168e-07
3.41254e-07
2.01463e-07
1.17728e-07
6.8128e-08
3.90346e-08
2.21488e-08
1.24393e-08
6.90731e-09
3.78349e-09
2.06791e-09
1.10859e-09
6.05885e-10
2.94161e-10
1.44886e-10
9.87856e-11
7.68332e-11
5.26856e-11
2.305e-11
-6.58571e-12
1.09762e-12
6.5857e-12
-1.09762e-12
0.0063089
0.018715
0.0304977
0.0412805
0.0507426
0.0586345
0.0647887
0.0691239
0.0716435
0.0724281
0.0716244
0.0694306
0.0660796
0.0618233
0.0569162
0.0516027
0.0461057
0.0406191
0.035303
0.0302818
0.025645
0.0214494
0.0177234
0.0144714
0.011679
0.00931807
0.00735112
0.00573539
0.0044261
0.003379
0.00255221
0.00190746
0.00141072
0.00103255
0.000747991
0.000536309
0.000380616
0.000267377
0.000185923
0.000127973
8.71926e-05
5.88045e-05
3.92559e-05
2.59391e-05
1.69648e-05
1.09819e-05
7.03612e-06
4.46175e-06
2.80015e-06
1.73927e-06
1.06915e-06
6.50457e-07
3.91663e-07
2.33402e-07
1.37676e-07
8.03785e-08
4.64567e-08
2.65931e-08
1.5067e-08
8.45385e-09
4.68134e-09
2.56074e-09
1.38849e-09
7.29916e-10
3.74288e-10
1.72326e-10
8.23213e-11
4.82952e-11
3.51238e-11
2.74404e-11
2.63428e-11
-6.5857e-12
1.4269e-11
2.74404e-11
6.5857e-12
0.0041826
0.0124084
0.0202233
0.0273793
0.0336643
0.0389134
0.0430149
0.0459143
0.0476122
0.0481606
0.0476549
0.046225
0.0440238
0.0412171
0.0379734
0.0344542
0.0308075
0.0271626
0.0236262
0.0202819
0.01719
0.0143891
0.0118989
0.00972326
0.0078532
0.0062705
0.00495063
0.00386541
0.0029852
0.00228062
0.00172381
0.00128922
0.000954119
0.000698801
0.000506531
0.000363397
0.000258045
0.000181367
0.000126176
8.68858e-05
5.92207e-05
3.99524e-05
2.66778e-05
1.76311e-05
1.15324e-05
7.46553e-06
4.78286e-06
3.03241e-06
1.90263e-06
1.18132e-06
7.25833e-07
4.4131e-07
2.65537e-07
1.58109e-07
9.31724e-08
5.43584e-08
3.13864e-08
1.79449e-08
1.01365e-08
5.66151e-09
3.13699e-09
1.71009e-09
9.1212e-10
4.77464e-10
2.22816e-10
1.03176e-10
3.84166e-11
1.20738e-11
-1.20738e-11
-2.52452e-11
-1.4269e-11
9.87856e-12
2.08547e-11
1.09762e-11
1.4269e-11