/*--------------------------------*- C++ -*----------------------------------*\
  =========                 |
  \\      /  F ield         | OpenFOAM: The Open Source CFD Toolbox
   \\    /   O peration     | Website:  https://openfoam.org
    \\  /    A nd           | Version:  10
     \\/     M anipulation  |
\*---------------------------------------------------------------------------*/
FoamFile
{
    format      ascii;
    class       volScalarField;
    location    "469";
    object      gradTx;
}
// * * * * * * * * * * * * * * * * * * * * * * * * * * * * * * * * * * * * * //

dimensions      [0 -1 0 1 0 0 0];

internalField   nonuniform List<scalar> 
11250
(
14307
8125.24
5345.28
3875.76
2990.11
2401.04
1979.95
1662.6
1413.87
1213.07
1047.25
907.943
789.342
687.347
598.962
521.942
454.56
395.453
343.526
297.877
257.752
222.509
191.594
164.522
140.866
120.244
102.316
86.7751
73.3467
61.7816
51.8558
43.3675
36.1353
29.9968
24.8069
20.4363
16.7705
13.7085
11.1613
9.05119
7.31061
5.88092
4.71161
3.75938
2.9873
2.36399
1.863
1.46208
1.14265
0.889278
0.689184
0.531867
0.40873
0.312775
0.238333
0.180839
0.136632
0.102793
0.0770048
0.0574404
0.0426635
0.0315523
0.0232345
0.0170351
0.0124348
0.00903545
0.00653358
0.00469872
0.00335651
0.00237538
0.00165607
0.00112342
0.000719909
0.000400497
0.000128409
4102.79
4723.95
4035.63
3292.99
2694.91
2234.71
1878.09
1596.1
1368.26
1180.54
1023.35
889.941
775.516
676.557
590.432
515.127
449.068
390.997
339.89
294.898
255.303
220.491
189.929
163.146
139.728
119.304
101.539
86.1342
72.8183
61.3467
51.4985
43.0744
35.8956
29.8011
24.6476
20.307
16.6659
13.624
11.0933
8.99669
7.26705
5.84621
4.68406
3.73759
2.97012
2.35051
1.85245
1.45385
1.13627
0.884339
0.685379
0.528947
0.406498
0.311075
0.237044
0.179866
0.1359
0.102244
0.0765953
0.057136
0.0424383
0.0313863
0.0231126
0.0169461
0.01237
0.00898848
0.00649971
0.00467442
0.0033392
0.00236316
0.00164757
0.00111766
0.000716226
0.000398451
0.000127754
1483.17
2632.63
2781.09
2566.74
2263.21
1966.45
1703.49
1477.57
1284.8
1119.97
978.246
855.65
748.988
655.739
573.902
501.874
438.359
382.288
332.771
289.056
250.494
216.524
186.651
160.436
137.486
117.449
100.006
84.8683
71.7743
60.487
50.7918
42.4948
35.4212
29.4139
24.3322
20.0509
16.4585
13.4566
10.9586
8.88868
7.1807
5.77743
4.62945
3.69439
2.93607
2.32376
1.83152
1.43754
1.1236
0.874541
0.677829
0.523152
0.402067
0.307701
0.234486
0.177933
0.134445
0.101154
0.0757821
0.0565317
0.041991
0.0310566
0.0228706
0.0167692
0.0122412
0.0088952
0.00643243
0.00462617
0.00330481
0.00233888
0.00163067
0.00110622
0.000708905
0.000394382
0.000126451
680.59
1542.79
1890.14
1930.74
1826.1
1666.02
1493.73
1327.95
1175.69
1038.71
916.588
808.092
711.788
626.292
550.357
482.892
422.949
369.709
322.457
280.569
243.492
210.737
181.862
156.47
134.202
114.73
97.7562
83.0088
70.2395
59.2223
49.7517
41.6412
34.7223
28.8431
23.8673
19.6733
16.1527
13.2097
10.7599
8.72921
7.05319
5.67582
4.54877
3.63056
2.88574
2.28423
1.80059
1.41343
1.10487
0.860051
0.666663
0.51458
0.395514
0.30271
0.2307
0.175073
0.132294
0.0995416
0.0745787
0.0556372
0.0413289
0.0305686
0.0225124
0.0165073
0.0120506
0.00875707
0.00633282
0.0045547
0.00325388
0.00230291
0.00160565
0.00108927
0.00069806
0.000388356
0.00012452
377.149
968.26
1306.72
1441.06
1445.77
1379.4
1279.3
1166.87
1053.53
944.995
843.837
750.973
666.479
590.024
521.098
459.129
403.543
353.788
309.348
269.744
234.536
203.315
175.706
151.363
129.965
111.217
94.846
80.6008
68.2501
57.5816
48.4013
40.5322
33.8136
28.1005
23.2621
19.1815
15.7542
12.8878
10.5007
8.52123
6.88684
5.54323
4.44346
3.54721
2.82002
2.2326
1.76017
1.38191
1.08039
0.841111
0.652065
0.503373
0.386944
0.296183
0.225748
0.171332
0.129478
0.0974319
0.073004
0.0544667
0.0404624
0.0299298
0.0220434
0.0161645
0.0118011
0.00857625
0.0062024
0.00446114
0.00318719
0.00225582
0.00157288
0.00106708
0.000683859
0.000380463
0.00012199
237.047
646.837
928.183
1082.06
1137.82
1128.09
1079.01
1008.7
928.769
846.262
765.274
688.063
615.78
548.918
487.585
431.675
380.96
335.149
293.922
256.952
223.912
194.483
168.361
145.255
124.887
106.999
91.3465
77.7012
65.8515
55.6013
46.7697
39.191
32.7139
27.2011
22.5287
18.585
15.2707
12.4971
10.1859
8.26853
6.68465
5.38201
4.31537
3.44581
2.74004
2.16974
1.71097
1.34354
1.05058
0.818036
0.634276
0.489714
0.376497
0.288225
0.219711
0.166769
0.126045
0.0948583
0.0710829
0.0530386
0.0394052
0.0291503
0.0214711
0.0157461
0.0114965
0.0083555
0.00604317
0.00434689
0.00310577
0.00219831
0.00153286
0.00103998
0.000666513
0.000370822
0.000118901
161.398
454.305
677.854
822.192
896.636
917.679
901.723
862.131
808.731
748.309
685.358
622.747
562.249
504.908
451.289
401.654
356.065
314.462
276.703
242.601
211.943
184.497
160.03
138.307
119.098
102.18
87.34
74.3759
63.0967
53.3238
44.891
37.6451
31.4451
26.1626
21.6811
17.8953
14.7112
12.0446
9.82129
7.97561
6.45018
5.19498
4.1667
3.32807
2.64714
2.09672
1.65378
1.29892
1.01591
0.791198
0.613583
0.473821
0.36434
0.278962
0.212682
0.161457
0.122046
0.0918609
0.0688451
0.0513748
0.0381733
0.028242
0.0208042
0.0152584
0.0111415
0.00809816
0.00585752
0.00421369
0.00301081
0.00213125
0.00148619
0.00100837
0.000646282
0.000359577
0.000115297
115.783
331.565
507.456
633.21
710.107
745.758
749.781
731.282
697.802
655.123
607.457
557.767
508.077
459.728
413.576
370.141
329.706
292.395
258.218
227.112
198.963
173.624
150.926
130.691
112.734
96.8695
82.9161
70.6973
60.044
50.7962
42.8032
35.9249
30.0317
25.0046
20.7351
17.1249
14.0857
11.5385
9.41313
7.64756
6.18743
4.98528
3.99996
3.19596
2.54286
2.01472
1.58954
1.24879
0.976938
0.761024
0.590311
0.455943
0.350661
0.268538
0.20477
0.155476
0.117544
0.088485
0.0663244
0.0495004
0.0367852
0.0272183
0.0200524
0.0147087
0.0107412
0.00780801
0.00564819
0.00406347
0.00290373
0.0020556
0.00143354
0.000972708
0.000623459
0.000346891
0.000111231
86.0952
249.137
387.89
494.046
566.032
606.909
622.02
617.265
598.093
569.085
533.858
495.158
454.998
414.82
375.628
338.097
302.661
269.577
238.976
210.895
185.305
162.131
141.266
122.583
105.938
91.184
78.1685
66.7411
56.7548
48.0681
40.5464
34.0631
28.5
23.7482
19.7077
16.2874
13.4052
10.9874
8.96837
7.28987
5.90077
4.75638
3.81784
3.0516
2.42886
1.92503
1.51926
1.19393
0.934273
0.727977
0.564815
0.436352
0.335667
0.257109
0.196093
0.148916
0.112604
0.0847806
0.0635579
0.0474429
0.0352613
0.0260943
0.0192269
0.0141049
0.0103015
0.00748924
0.00541819
0.0038984
0.00278603
0.00197246
0.00137567
0.000933507
0.000598366
0.000332943
0.000106761
65.6918
191.402
301.59
389.975
454.233
495.214
515.724
519.445
510.166
491.348
465.929
436.288
404.278
371.305
338.409
306.337
275.61
246.574
219.443
194.332
171.282
150.276
131.262
114.155
98.8518
85.2382
73.1908
62.5838
53.2914
45.1903
38.1618
32.0928
26.8769
22.4152
18.6164
15.3969
12.681
10.4005
8.49426
6.90828
5.59476
4.51187
3.62319
2.89723
2.30689
1.82904
1.44399
1.13515
0.88855
0.69255
0.537474
0.415337
0.319578
0.244842
0.186778
0.141871
0.107298
0.0808008
0.0605851
0.0452315
0.0336231
0.0248859
0.0183391
0.0134555
0.00982853
0.00714629
0.0051707
0.00372076
0.00265937
0.00188297
0.00131338
0.000891304
0.000571351
0.000317925
0.000101948
51.0925
149.576
237.736
310.914
366.829
405.322
427.748
436.334
433.642
422.206
404.326
381.972
356.764
329.992
302.656
275.512
249.117
223.865
200.025
177.766
157.179
138.297
121.109
105.569
91.609
79.1429
68.0742
58.3002
49.7149
42.2128
35.6901
30.0473
25.1894
21.0275
17.4789
14.4677
11.9245
9.78675
7.99815
6.50867
5.27406
4.25544
3.41893
2.73514
2.17876
1.72814
1.36485
1.07331
0.840426
0.655248
0.508677
0.393194
0.302621
0.231909
0.176954
0.13444
0.101699
0.0766006
0.057447
0.0428965
0.031893
0.0236094
0.0174012
0.0127693
0.00932868
0.0067838
0.00490907
0.00353294
0.00252542
0.00178833
0.00124749
0.000846662
0.000542772
0.000302038
9.68556e-05
40.3185
118.445
189.475
249.959
297.913
332.766
355.071
366.13
367.638
361.411
349.203
332.596
312.955
291.416
268.894
246.112
223.624
201.842
181.062
161.488
143.246
126.404
110.985
96.9752
84.3337
73.0011
62.9042
53.9608
46.0837
39.1834
33.1708
27.9588
23.4637
19.6063
16.3126
13.5138
11.1471
9.1554
7.4873
6.09684
4.94329
3.99078
3.20797
2.56762
2.04626
1.62374
1.28292
1.00927
0.790564
0.616582
0.478814
0.370223
0.285024
0.218483
0.166753
0.126721
0.0958828
0.0722355
0.0541848
0.0404688
0.0300938
0.0222815
0.0164254
0.0120553
0.00880844
0.00640645
0.00463668
0.00333736
0.00238593
0.00168975
0.00117885
0.000800152
0.000512994
0.000285483
9.15495e-05
32.1728
94.7622
152.339
202.336
243.108
273.963
295.026
307.023
311.055
308.404
300.381
288.232
273.077
255.884
237.465
218.482
199.461
180.807
162.827
145.738
129.691
114.778
101.045
88.5038
77.1367
66.9061
57.7588
49.6309
42.4518
36.1469
30.6406
25.8575
21.7247
18.1721
15.1339
12.5485
10.3595
8.51516
6.96875
5.67842
4.60695
3.72145
2.99313
2.39691
1.91115
1.51723
1.19928
0.943855
0.739612
0.577053
0.448272
0.346721
0.267012
0.204737
0.156305
0.118812
0.0899215
0.0677606
0.0508397
0.0379787
0.0282479
0.020919
0.0154239
0.0113223
0.00827425
0.00601892
0.00435688
0.00313643
0.00224259
0.00158844
0.0011083
0.000752343
0.000482383
0.000268463
8.60941e-05
25.8944
76.4239
123.333
164.693
199.174
226.092
245.356
257.341
262.75
262.474
257.484
248.743
237.154
223.526
208.558
192.839
176.852
160.981
145.525
130.706
116.684
103.567
91.4182
80.2667
70.1138
60.9392
52.7067
45.3682
38.8676
33.1438
28.1332
23.7714
19.9953
16.7436
13.9582
11.5845
9.57201
7.87424
6.44912
5.25874
4.26929
3.45084
2.7771
2.22514
1.77511
1.40991
1.11497
0.877878
0.688193
0.537144
0.417422
0.322971
0.248805
0.190835
0.145735
0.110809
0.0838867
0.0632292
0.0474514
0.0354557
0.0263772
0.0195377
0.0144084
0.0105788
0.00773238
0.00562573
0.00407294
0.00293249
0.00209709
0.00148559
0.00103666
0.000703792
0.000451292
0.000251176
8.05528e-05
20.9797
62.0179
100.393
134.641
163.699
186.948
204.196
215.609
221.627
222.863
220.029
213.861
205.076
194.339
182.242
169.297
155.936
142.51
129.302
116.529
104.353
92.8878
82.2082
72.3555
63.3447
55.1694
47.8071
41.223
35.3737
30.2097
25.6783
21.7252
18.296
15.3377
12.7995
10.6332
8.79385
7.24021
5.93452
4.8427
3.93426
3.18211
2.56241
2.0543
1.6397
1.30303
1.03094
0.812091
0.636895
0.497307
0.386613
0.299244
0.230606
0.176935
0.135162
0.102801
0.077846
0.0586919
0.0440576
0.032928
0.0245025
0.0181532
0.0133902
0.00983326
0.00718881
0.00523123
0.003788
0.0027278
0.00195101
0.00138231
0.000964725
0.000655028
0.000420063
0.00023381
7.4986e-05
17.0843
50.5675
82.0609
110.445
134.873
154.807
170.02
180.558
186.687
188.825
187.489
183.239
176.639
168.227
158.497
147.887
136.775
125.476
114.251
103.303
92.7896
82.8272
73.4948
64.842
56.8931
49.6525
43.1084
37.2371
32.0057
27.375
23.3017
19.7403
16.6448
13.9695
11.6701
9.70453
8.03331
6.6198
5.43042
4.43474
3.60542
2.91811
2.35131
1.88619
1.50637
1.19772
0.948094
0.747186
0.586256
0.457962
0.35617
0.275786
0.212606
0.163181
0.124696
0.0948702
0.0718622
0.0541958
0.0406936
0.0304217
0.022643
0.0167795
0.0123797
0.00909319
0.00664914
0.00483947
0.00350498
0.00252444
0.00180586
0.00127967
0.000893217
0.000606549
0.000389013
0.000216542
6.94506e-05
13.9653
41.3792
67.2872
90.8267
111.322
128.32
141.591
151.114
157.042
159.658
159.336
156.498
151.585
145.029
137.236
128.577
119.376
109.912
100.417
91.0819
82.0533
73.444
65.3347
57.7789
50.8072
44.4317
38.6489
33.444
28.7927
24.6645
21.0245
17.8349
15.0568
12.6514
10.5804
8.80733
7.29756
6.01888
4.9416
4.03873
3.28589
2.66135
2.14583
1.72243
1.37639
1.09497
0.867215
0.683784
0.536761
0.419485
0.326382
0.252822
0.194977
0.149704
0.114437
0.0870937
0.0659922
0.0497837
0.0373914
0.0279605
0.0208166
0.0154299
0.0113867
0.00836565
0.00611847
0.00445415
0.00322655
0.00232433
0.00166301
0.00117864
0.000822815
0.000558814
0.000358435
0.000199536
6.39987e-05
11.4477
33.949
55.2985
74.8266
91.9954
106.426
117.904
126.375
131.919
134.727
135.065
133.254
129.633
124.547
118.33
111.289
103.7
95.8061
87.8125
79.8897
72.1745
64.773
57.7638
51.2016
45.1208
39.5382
34.457
29.8689
25.757
22.0978
18.8635
16.0232
13.5443
11.3938
9.53919
7.9488
6.59258
5.44237
4.47211
3.65796
2.97836
2.41399
1.9477
1.56439
1.25086
0.99567
0.788995
0.622427
0.488833
0.382204
0.297506
0.23055
0.177871
0.136621
0.104474
0.0795378
0.0602866
0.0454935
0.0341792
0.0255658
0.0190389
0.0141158
0.0104195
0.0076569
0.00560137
0.00407859
0.00295511
0.00212921
0.00152369
0.00108007
0.000754126
0.000512233
0.000328592
0.000182937
5.86771e-05
9.40221
27.9032
45.5155
61.716
76.0758
88.2811
98.1413
105.586
110.65
113.459
114.206
113.127
110.489
106.563
101.62
95.9136
89.6772
83.1182
76.4162
69.7222
63.1601
56.8278
50.8
45.1303
39.8544
34.9925
30.552
26.5298
22.9147
19.6893
16.8316
14.3163
12.1167
10.2049
8.5533
7.1347
5.92319
4.89428
4.02523
3.29513
2.68502
2.17783
1.75837
1.41324
1.1307
0.90055
0.714015
0.563572
0.442832
0.346401
0.269759
0.209137
0.161416
0.124031
0.0948808
0.0722601
0.0547888
0.0413581
0.0310818
0.0232558
0.0173235
0.0128474
0.00948569
0.00697239
0.00510182
0.00371569
0.00269274
0.00194057
0.00138896
0.000984747
0.000687678
0.000467164
0.000299715
0.000166874
5.35271e-05
7.73172
22.9598
37.4972
50.933
62.925
73.215
81.6368
88.1157
92.6607
95.3523
96.3276
95.7646
93.8671
90.8509
86.9331
82.3227
77.2143
71.784
66.1866
60.5544
54.9976
49.6051
44.4461
39.5717
35.0174
30.805
26.9447
23.4374
20.2763
17.4485
14.9372
12.722
10.7808
9.09058
7.62778
6.36936
5.29303
4.37767
3.60351
2.95236
2.4076
1.95426
1.57897
1.2699
1.01665
0.810205
0.642748
0.507594
0.399051
0.312306
0.243319
0.188722
0.145721
0.112015
0.085722
0.0653087
0.0495353
0.0374049
0.0281198
0.0210459
0.0156819
0.0116332
0.00859149
0.00631672
0.00462319
0.00336788
0.00244123
0.00175968
0.00125974
0.0008933
0.000623922
0.000423915
0.000272
0.000151455
4.85835e-05
6.36204
18.9024
30.9027
42.039
52.0375
60.6868
67.8447
73.4388
77.4621
79.9651
81.0454
80.8356
79.4925
77.186
74.0902
70.3758
66.2041
61.7233
57.0654
52.3452
47.6594
43.0875
38.6923
34.5215
30.6093
26.9778
23.6391
20.5965
17.8467
15.3807
13.1854
11.2449
9.54102
8.05463
6.76605
5.65573
4.70466
3.8947
3.20879
2.63117
2.14738
1.74435
1.41038
1.13507
0.909295
0.725088
0.575556
0.454781
0.357718
0.280097
0.218329
0.169415
0.13087
0.10064
0.0770473
0.0587217
0.0445552
0.0336557
0.0253096
0.0189486
0.0141233
0.01048
0.00774196
0.00569362
0.00416819
0.00303716
0.00220201
0.0015876
0.00113678
0.000806262
0.000563229
0.000382735
0.000245607
0.000136771
4.38752e-05
5.23562
15.5627
25.4654
34.6876
43.0098
50.2595
56.3165
61.1138
64.636
66.9135
68.015
68.0397
67.1077
65.3525
62.9133
59.9287
56.5317
52.8459
48.9833
45.0421
41.1066
37.2466
33.5187
29.9664
26.6216
23.5061
20.6326
18.0064
15.6265
13.487
11.5781
9.88704
8.39931
7.09909
5.96999
4.99553
4.15961
3.44672
2.84224
2.33256
1.9052
1.5488
1.25316
1.00924
0.809016
0.645522
0.512699
0.40534
0.318999
0.249906
0.19489
0.151297
0.116925
0.0899546
0.0688943
0.0525279
0.0398702
0.0301274
0.0226638
0.0169732
0.0126549
0.00939318
0.00694102
0.00510598
0.00373896
0.00272507
0.00197621
0.00142512
0.00102066
0.000724046
0.000505886
0.000343822
0.000220664
0.000122892
3.94247e-05
4.30723
12.8081
20.9743
28.6025
35.5169
41.5768
46.6814
50.7711
53.8263
55.864
56.9325
57.1056
56.4754
55.1467
53.2301
50.8379
48.0792
45.0565
41.8639
38.585
35.2922
32.0466
28.8981
25.8859
23.0393
20.3789
17.9178
15.6621
13.6127
11.7658
10.1142
8.6481
7.3558
6.22433
5.24011
4.38936
3.65849
3.03432
2.5044
2.05704
1.68151
1.36799
1.10768
0.89268
0.716053
0.571702
0.454339
0.359404
0.283
0.221818
0.173071
0.134421
0.10393
0.079991
0.0612884
0.0467471
0.0354957
0.0268315
0.0201913
0.0151265
0.0112816
0.00837636
0.00619144
0.00455583
0.00333699
0.00243273
0.00176464
0.00127284
0.000911797
0.000646951
0.000452103
0.000307318
0.000197262
0.000109869
3.52484e-05
3.54095
10.5331
17.2605
23.5614
29.2949
34.3465
38.6323
42.1002
44.7293
46.5281
47.5302
47.7903
47.3792
46.3787
44.8769
42.9642
40.7296
38.2578
35.6274
32.9089
30.1642
27.4459
24.7977
22.2544
19.8426
17.5813
15.4832
13.555
11.7987
10.2122
8.79041
7.52575
6.40888
5.42928
4.57575
3.83683
3.2011
2.65745
2.19529
1.80468
1.4764
1.20204
0.974013
0.785505
0.630499
0.503712
0.400546
0.317033
0.249773
0.195876
0.152906
0.118816
0.091906
0.0707676
0.054244
0.0413906
0.0314404
0.0237747
0.0178973
0.0134125
0.0100064
0.00743186
0.00549494
0.00404448
0.00296325
0.00216083
0.0015678
0.00113113
0.000810463
0.000575171
0.000402018
0.000273318
0.000175461
9.77355e-05
3.13574e-05
2.90797
8.65281
14.1877
19.3839
24.1282
28.3278
31.9132
34.8395
37.0863
38.6565
39.5734
39.8777
39.6234
38.8745
37.7009
36.1751
34.3696
32.3541
30.1935
27.9472
25.6675
23.3996
21.1812
19.0428
17.0082
15.0947
13.3143
11.6737
10.1757
8.8195
7.60153
6.51601
5.55556
4.7117
3.97525
3.33671
2.78656
2.31546
1.91447
1.57514
1.28965
1.0508
0.852082
0.68765
0.55232
0.441533
0.351314
0.278226
0.219319
0.172085
0.134401
0.104487
0.0808596
0.0622892
0.0477655
0.0364619
0.0277073
0.0209596
0.0157837
0.0118325
0.0088306
0.00656065
0.00485225
0.00357247
0.00261816
0.00190969
0.00138594
0.00100016
0.000716791
0.000508802
0.000355698
0.000241867
0.000155291
8.65092e-05
2.77569e-05
2.38496
7.09844
11.6452
15.9225
19.8397
23.3214
26.3103
28.7683
30.6764
32.0342
32.8575
33.1765
33.0326
32.4756
31.5608
30.3466
28.8915
27.2524
25.4831
23.6331
21.7464
19.8612
18.0102
16.2196
14.5104
12.8983
11.3942
10.0048
8.73307
7.57923
6.54086
5.61362
4.79175
4.06841
3.43614
2.88711
2.41341
2.00724
1.66108
1.36781
1.12079
0.91391
0.741617
0.598917
0.481369
0.385058
0.306564
0.242926
0.1916
0.150415
0.117536
0.0914202
0.0707803
0.0545491
0.0418479
0.0319578
0.0242942
0.0183846
0.0138496
0.0103862
0.00775379
0.00576248
0.00426324
0.00313974
0.00230167
0.0016793
0.00121905
0.000879949
0.000630783
0.000447848
0.000313148
0.00021297
0.000136757
7.61917e-05
2.44477e-05
1.9529
5.81385
9.54225
13.0562
16.2828
19.1612
21.6443
23.7001
25.3114
26.4758
27.204
27.5182
27.4503
27.0389
26.328
25.3638
24.1939
22.8646
21.4201
19.9014
18.3453
16.7841
15.2454
13.7521
12.3224
10.97
9.70491
8.53342
7.4588
6.4817
5.60062
4.81238
4.11248
3.49547
2.95531
2.48558
2.07973
1.73129
1.43396
1.18177
0.969114
0.790831
0.642206
0.518994
0.417409
0.334106
0.266161
0.211032
0.166537
0.130809
0.102268
0.0795834
0.0616448
0.0475298
0.0364787
0.0278691
0.0211944
0.0160449
0.0120915
0.00907095
0.00677417
0.00503608
0.00372699
0.00274563
0.00201334
0.00146934
0.00106692
0.000770329
0.000552334
0.000392237
0.000274318
0.000186595
0.000119838
6.6772e-05
2.14264e-05
1.5962
4.75294
7.80424
10.6847
13.336
15.7088
17.7648
19.4771
20.8305
21.8217
22.4578
22.7551
22.738
22.4366
21.8855
21.1217
20.1834
19.1082
17.9323
16.6895
15.4105
14.1222
12.8481
11.6077
10.4165
9.28685
8.22742
7.24408
6.34009
5.51644
4.77232
4.1054
3.51221
2.98844
2.5292
2.12927
1.78327
1.48582
1.23171
1.01592
0.833764
0.680893
0.553327
0.447476
0.360127
0.288439
0.229919
0.182403
0.144024
0.113187
0.0885358
0.0689312
0.0534188
0.041206
0.031639
0.0241817
0.0183974
0.0139329
0.0105038
0.00788265
0.00588876
0.00437929
0.00324195
0.00238903
0.00175236
0.00127924
0.000929131
0.000671016
0.000481242
0.000341828
0.000239113
0.000162677
0.000104491
5.82272e-05
1.86854e-05
1.30201
3.87768
6.36945
8.72517
10.8981
12.8485
14.5451
15.9654
17.0967
17.9348
18.4845
18.7578
18.7733
18.5544
18.1284
17.5248
16.7741
15.9068
14.9524
13.9386
12.8908
11.8316
10.7806
9.75415
8.76581
7.82605
6.94262
6.12082
5.36374
4.6726
4.04703
3.48538
2.985
2.54249
2.15393
1.81508
1.52153
1.26886
1.05274
0.869007
0.713748
0.583315
0.47437
0.383886
0.309153
0.247768
0.197619
0.156869
0.123932
0.0974483
0.0762642
0.0594061
0.046059
0.035545
0.0273042
0.0208774
0.0158899
0.0120386
0.00907907
0.0068159
0.0050936
0.00378921
0.00280602
0.00206843
0.00151765
0.00110821
0.000805127
0.000581611
0.000417225
0.000296424
0.000207395
0.000141123
9.06605e-05
5.05252e-05
1.62147e-05
1.0597
3.15656
5.18669
7.1085
8.88458
10.483
11.8782
13.0519
13.9929
14.6973
15.1679
15.4138
15.4489
15.2916
14.9632
14.4872
13.8881
13.1904
12.418
11.5937
10.7383
9.87045
9.00659
8.16056
7.34376
6.56521
5.83165
5.14782
4.51657
3.93921
3.41569
2.94487
2.52474
2.15264
1.82544
1.53971
1.29185
1.07826
0.895343
0.739673
0.607987
0.497248
0.404664
0.327698
0.264076
0.211774
0.169012
0.134239
0.106112
0.0834807
0.0653665
0.0509425
0.0395156
0.0305092
0.0234462
0.017935
0.013656
0.0103501
0.00780862
0.00586426
0.00438396
0.00326238
0.00241667
0.00178197
0.00130786
0.000955294
0.000694224
0.000501628
0.000359937
0.000255783
0.000178997
0.000121822
7.82726e-05
4.3626e-05
1.40013e-05
0.860441
2.56342
4.21334
5.7771
7.22479
8.53074
9.67431
10.6404
11.4196
12.0081
12.4078
12.6251
12.6708
12.5591
12.3068
11.9323
11.4553
10.8955
10.2723
9.60418
8.90813
8.19963
7.49224
6.79756
6.1252
5.48282
4.87626
4.30965
3.78561
3.30543
2.86928
2.4764
2.12528
1.81384
1.5396
1.29979
1.09152
0.911823
0.757763
0.626506
0.515357
0.421796
0.3435
0.278355
0.224457
0.180114
0.143831
0.114304
0.0904041
0.0711609
0.0557484
0.0434681
0.0337338
0.026057
0.0200335
0.015331
0.011678
0.00885444
0.00668272
0.00502053
0.00375453
0.00279493
0.00207106
0.00152761
0.00112151
0.000819418
0.000595647
0.000430513
0.000308987
0.000219627
0.000153728
0.000104644
6.72451e-05
3.74837e-05
1.20307e-05
0.696894
2.07646
3.41391
4.68287
5.85948
6.92318
7.85728
8.64944
9.29178
9.78094
10.1178
10.3072
10.3573
10.2791
10.0857
9.79186
9.41307
8.96519
8.46384
7.92395
7.35948
6.78308
6.20595
5.63771
5.08642
4.55854
4.05906
3.59156
3.15839
2.76079
2.39904
2.07267
1.78056
1.52109
1.29231
1.092
0.917817
0.767352
0.638213
0.528072
0.434709
0.356045
0.290154
0.235282
0.189846
0.152434
0.1218
0.0968508
0.0766422
0.0603603
0.0473112
0.0369075
0.028656
0.0221448
0.0170331
0.0130404
0.00993725
0.00753753
0.00569096
0.00427701
0.00319962
0.00238265
0.00176614
0.00130312
0.000956986
0.000699412
0.000508555
0.000367664
0.000263945
0.000187656
0.000131378
8.94465e-05
5.7488e-05
3.20483e-05
1.02867e-05
0.562938
1.67754
2.75873
3.78556
4.73902
5.60266
6.36306
7.01015
7.53742
7.94186
8.22386
8.38694
8.43731
8.38349
8.23577
8.00573
7.7057
7.34835
6.94621
6.51137
6.05514
5.58786
5.11872
4.65567
4.20541
3.77336
3.36374
2.97963
2.6231
2.2953
1.99659
1.72668
1.48476
1.26958
1.0796
0.913057
0.768063
0.642671
0.534935
0.442953
0.364906
0.299084
0.2439
0.197905
0.159788
0.128378
0.102638
0.0816605
0.0646567
0.0509478
0.0399538
0.0311832
0.0242229
0.0187275
0.014411
0.0110375
0.00841443
0.00638496
0.00482258
0.00362571
0.00271334
0.00202122
0.00149872
0.00110615
0.000812588
0.000594053
0.000432068
0.000312451
0.000224365
0.000159553
0.000111728
7.60822e-05
4.8906e-05
2.7267e-05
8.75251e-06
0.453473
1.35149
2.22304
3.05152
3.8218
4.52076
5.13761
5.66421
6.09519
6.42793
6.6625
6.80146
6.84954
6.81331
6.70082
6.52117
6.28415
5.99983
5.67825
5.32913
4.96162
4.58413
4.20416
3.82825
3.46193
3.10972
2.77517
2.46089
2.16869
1.8996
1.65402
1.4318
1.23234
1.0547
0.897656
0.759825
0.639689
0.535681
0.446223
0.36977
0.304837
0.250023
0.204028
0.165659
0.133837
0.107592
0.08607
0.068517
0.0542794
0.0427931
0.0335757
0.026218
0.0203754
0.0157601
0.0121328
0.00929655
0.00709008
0.00538215
0.00406669
0.00305853
0.00228969
0.00170622
0.00126557
0.000934368
0.000686603
0.000502098
0.00036529
0.000264232
0.000189788
0.000134997
9.45522e-05
6.43986e-05
4.14021e-05
2.30858e-05
7.4108e-06
0.364243
1.08567
1.78618
2.4526
3.07295
3.63677
4.13543
4.56237
4.91318
5.18562
5.37958
5.49689
5.54117
5.51748
5.43209
5.29215
5.1054
4.87982
4.62345
4.34405
4.04902
3.74513
3.43851
3.13449
2.83762
2.55163
2.2795
2.02342
1.78495
1.565
1.36397
1.18182
1.0181
0.872103
0.742883
0.629336
0.530257
0.444387
0.370453
0.307205
0.253437
0.208007
0.169853
0.137999
0.111558
0.089736
0.0718267
0.0572102
0.0453464
0.0357689
0.0280785
0.021936
0.0170556
0.0131982
0.0101649
0.00779201
0.00594504
0.0045147
0.00341255
0.0025675
0.00192277
0.00143329
0.00106347
0.00078541
0.000577321
0.000422307
0.000307327
0.000222365
0.000159758
0.000113663
7.96274e-05
5.42437e-05
3.48788e-05
1.94505e-05
6.24422e-06
0.291701
0.869536
1.43085
1.96526
2.46327
2.91656
3.31827
3.66311
3.94749
4.16952
4.32898
4.42721
4.46692
4.45204
4.38743
4.27872
4.13196
3.95352
3.74975
3.52688
3.29083
3.04706
2.80053
2.55557
2.31591
2.08462
1.86415
1.65636
1.46255
1.28353
1.11969
0.971023
0.837238
0.717787
0.611938
0.518822
0.437483
0.366914
0.306094
0.254015
0.209701
0.172226
0.140726
0.114406
0.0925417
0.0744829
0.0596515
0.0475387
0.0377004
0.029753
0.0233676
0.0182644
0.0142075
0.0109991
0.00847493
0.00649923
0.00496069
0.00376865
0.0028497
0.00214481
0.00160679
0.00119816
0.000889303
0.000656989
0.000483072
0.000353469
0.000257305
0.000186222
0.000133825
9.52357e-05
6.67324e-05
4.5468e-05
2.92406e-05
1.63081e-05
5.23569e-06
0.23289
0.694287
1.14268
1.56986
1.96835
2.33155
2.65401
2.93149
3.16107
3.3412
3.47159
3.55321
3.58811
3.57932
3.5306
3.44636
3.33136
3.19061
3.02916
2.85196
2.66374
2.4689
2.2714
2.07478
1.88205
1.69573
1.51783
1.34991
1.19306
1.04797
0.915007
0.794204
0.685359
0.588061
0.501744
0.425728
0.359256
0.301528
0.251727
0.209043
0.172691
0.141923
0.116039
0.094394
0.0763997
0.0615263
0.0493024
0.0393123
0.0311928
0.0246297
0.0193533
0.015134
0.0117778
0.00912212
0.00703171
0.00539469
0.00411928
0.00313065
0.00236816
0.00178303
0.00133623
0.000996742
0.000740051
0.0005469
0.000402249
0.000294417
0.000214379
0.000155197
0.000111558
7.94088e-05
5.56546e-05
3.79274e-05
2.43949e-05
1.36071e-05
4.36877e-06
0.185351
0.55261
0.909647
1.25002
1.56781
1.85783
2.11574
2.33818
2.52278
2.66826
2.77433
2.84167
2.87184
2.86716
2.83056
2.76545
2.67559
2.5649
2.43738
2.29696
2.1474
1.99221
1.83458
1.67734
1.52295
1.37345
1.23049
1.09534
0.96892
0.851832
0.744386
0.646649
0.558481
0.479577
0.409502
0.347724
0.293648
0.246639
0.206048
0.171225
0.141543
0.116399
0.0952293
0.0775128
0.0627731
0.0505812
0.0405542
0.0323539
0.0256849
0.0202908
0.0159516
0.0124798
0.00971658
0.007529
0.00580614
0.00445628
0.00340409
0.0025881
0.00195848
0.00147511
0.00110586
0.000825179
0.000612871
0.000453057
0.000333329
0.000244045
0.000177751
0.000128715
9.25468e-05
6.58919e-05
4.61912e-05
3.14843e-05
2.02539e-05
1.12985e-05
3.62778e-06
0.147041
0.438424
0.721793
0.992091
1.24468
1.47545
1.681
1.85864
2.00648
2.12345
2.20929
2.26449
2.29021
2.28824
2.26083
2.21066
2.14063
2.05385
1.95346
1.84255
1.72412
1.60095
1.4756
1.35034
1.22714
1.10765
0.993221
0.884892
0.783428
0.68933
0.602875
0.524139
0.453032
0.389326
0.332688
0.282706
0.238913
0.200806
0.167872
0.139594
0.115469
0.0950165
0.0777831
0.0633497
0.0513327
0.0413858
0.0331996
0.0265003
0.0210486
0.0166364
0.013085
0.0102418
0.00797769
0.00618429
0.00477115
0.00366341
0.00279953
0.00212928
0.00161188
0.00121449
0.000910793
0.000679853
0.000505101
0.000373507
0.000274885
0.000201315
0.00014667
0.000106237
7.64047e-05
5.4412e-05
3.8152e-05
2.60097e-05
1.67346e-05
9.33631e-06
2.99793e-06
0.116265
0.346685
0.570838
0.784768
0.984834
1.16783
1.33104
1.47236
1.59028
1.68393
1.75307
1.79803
1.8197
1.81944
1.79899
1.76043
1.70602
1.63819
1.55941
1.47211
1.37865
1.28125
1.18194
1.08253
0.984594
0.889471
0.798246
0.71177
0.630669
0.555364
0.486094
0.422938
0.365838
0.314627
0.269052
0.228794
0.193486
0.162736
0.136136
0.113277
0.0937591
0.077199
0.0632348
0.0515308
0.0417793
0.033702
0.02705
0.0216028
0.0171672
0.0135752
0.0106823
0.008365
0.0065187
0.00505546
0.00390189
0.00299718
0.00229131
0.0017434
0.00132025
0.000995113
0.000746534
0.00055743
0.00041428
0.000306445
0.000225599
0.000165268
0.000120442
8.72629e-05
6.27746e-05
4.4716e-05
3.13602e-05
2.13836e-05
1.37603e-05
7.67777e-06
2.46548e-06
0.091622
0.273221
0.449932
0.618668
0.776585
0.921168
1.0503
1.1623
1.25598
1.33063
1.38604
1.42245
1.44051
1.44128
1.42608
1.39653
1.35438
1.30153
1.2399
1.17142
1.09793
1.02119
0.942796
0.864197
0.786649
0.71122
0.638785
0.570034
0.505477
0.445464
0.390198
0.339754
0.2941
0.253114
0.216602
0.184319
0.15598
0.131277
0.10989
0.0914954
0.0757771
0.0624304
0.0511674
0.0417206
0.0338442
0.0273157
0.0219356
0.0175272
0.0139353
0.0110248
0.00867942
0.00679967
0.00530119
0.00411299
0.00317579
0.00244042
0.00186639
0.00142062
0.00107621
0.000811462
0.000608968
0.000454863
0.000338162
0.000250218
0.000184261
0.000135024
9.8429e-05
7.13334e-05
5.13285e-05
3.65714e-05
2.56538e-05
1.74958e-05
1.12603e-05
6.28354e-06
2.01787e-06
0.0719557
0.214588
0.353419
0.486046
0.610253
0.724077
0.82586
0.914286
0.988411
1.04767
1.09187
1.12118
1.1361
1.13742
1.12617
1.10359
1.07104
1.02999
0.981942
0.928401
0.870818
0.810569
0.74892
0.687013
0.625846
0.56627
0.508985
0.454548
0.403371
0.355744
0.311837
0.271719
0.235373
0.202712
0.173589
0.147816
0.125171
0.105415
0.0882964
0.0735615
0.0609605
0.0502528
0.0412102
0.0336203
0.0272879
0.0220357
0.0177046
0.0141536
0.0112585
0.00891124
0.00701871
0.00550108
0.00429063
0.00333034
0.00257252
0.00197762
0.00151304
0.00115209
0.000873101
0.000658547
0.000494381
0.000369395
0.00027471
0.000203331
0.000149779
0.000109788
8.00545e-05
5.80327e-05
4.17684e-05
2.9767e-05
2.08853e-05
1.42463e-05
9.17032e-06
5.11784e-06
1.64363e-06
0.0563147
0.167952
0.276642
0.38052
0.477864
0.567147
0.647076
0.716622
0.775039
0.821877
0.856973
0.880444
0.892662
0.894228
0.885933
0.868724
0.843661
0.81188
0.774548
0.732835
0.687876
0.640749
0.592449
0.543874
0.495815
0.448945
0.403824
0.360894
0.320492
0.282852
0.248115
0.216345
0.187534
0.16162
0.138492
0.118006
0.0999913
0.0842619
0.0706214
0.0588711
0.048815
0.0402635
0.0330368
0.0269668
0.0218992
0.0176933
0.0142228
0.0113757
0.00905309
0.00716898
0.00564901
0.00442948
0.0034563
0.00268385
0.00207398
0.00159499
0.00122076
0.000929883
0.000704954
0.000531906
0.000399444
0.000298558
0.000222101
0.000164442
0.000121168
8.8842e-05
6.47994e-05
4.69865e-05
3.38267e-05
2.41128e-05
1.69218e-05
1.1545e-05
7.43256e-06
4.14846e-06
1.33238e-06
0.0439185
0.130989
0.21578
0.29685
0.372865
0.442641
0.505174
0.559659
0.605514
0.642378
0.670118
0.688812
0.69874
0.700355
0.694262
0.681189
0.661952
0.637426
0.608517
0.576132
0.541155
0.504428
0.466728
0.42876
0.391146
0.354418
0.31902
0.285303
0.253538
0.223914
0.196548
0.171495
0.148755