/*--------------------------------*- C++ -*----------------------------------*\
  =========                 |
  \\      /  F ield         | OpenFOAM: The Open Source CFD Toolbox
   \\    /   O peration     | Website:  https://openfoam.org
    \\  /    A nd           | Version:  10
     \\/     M anipulation  |
\*---------------------------------------------------------------------------*/
FoamFile
{
    format      ascii;
    class       volScalarField;
    location    "187";
    object      gradTz;
}
// * * * * * * * * * * * * * * * * * * * * * * * * * * * * * * * * * * * * * //

dimensions      [0 -1 0 1 0 0 0];

internalField   nonuniform List<scalar> 
11250
(
-14366.4
-4161.47
-1540.29
-735.444
-429.109
-285.592
-206.126
-156.415
-122.477
-97.7911
-78.9852
-64.176
-52.2439
-42.4867
-34.44
-27.7807
-22.2707
-17.726
-13.997
-10.9584
-8.50238
-6.53512
-4.97457
-3.74926
-2.79732
-2.06576
-1.50978
-1.09194
-0.781465
-0.553381
-0.387728
-0.268786
-0.184357
-0.125106
-0.0839965
-0.0557967
-0.0366705
-0.0238441
-0.0153389
-0.00976207
-0.00614613
-0.00382776
-0.00235792
-0.00143649
-0.000865369
-0.0005154
-0.000303418
-0.000176517
-0.000101453
-5.75911e-05
-3.22792e-05
-1.78579e-05
-9.74868e-06
-5.24963e-06
-2.78769e-06
-1.45938e-06
-7.52968e-07
-3.82795e-07
-1.91707e-07
-9.45543e-08
-4.59177e-08
-2.1948e-08
-1.03483e-08
-4.79659e-09
-2.16011e-09
-9.62611e-10
-4.43437e-10
-2.12938e-10
-9.7688e-11
-3.84166e-11
-1.09762e-12
-5.48809e-12
-1.09762e-12
6.5857e-12
0
-8303.31
-4899.64
-2803.65
-1707.01
-1123.83
-792.187
-588.232
-453.235
-358.09
-287.538
-233.124
-189.916
-154.9
-126.149
-102.367
-82.6418
-66.2942
-52.7931
-41.7048
-32.6625
-25.3494
-19.4888
-14.8381
-11.1852
-8.34649
-6.16451
-4.50588
-3.25918
-2.3327
-1.65199
-1.15755
-0.802503
-0.550455
-0.373562
-0.250822
-0.166622
-0.109511
-0.0712094
-0.0458105
-0.0291559
-0.0183569
-0.0114329
-0.00704296
-0.00429085
-0.00258498
-0.00153963
-0.000906424
-0.000527348
-0.000303109
-0.000172073
-9.64511e-05
-5.33638e-05
-2.91336e-05
-1.56896e-05
-8.33236e-06
-4.36247e-06
-2.25107e-06
-1.14453e-06
-5.7323e-07
-2.82776e-07
-1.3736e-07
-6.56694e-08
-3.08968e-08
-1.43052e-08
-6.54839e-09
-2.9482e-09
-1.29629e-09
-5.79542e-10
-2.79892e-10
-1.28421e-10
-2.52452e-11
3.29285e-12
0
-8.78094e-12
8.78094e-12
-5640.83
-4327.23
-3064.94
-2162.73
-1564.96
-1169.48
-900.214
-709.491
-568.837
-461.282
-376.548
-308.255
-252.319
-206.035
-167.535
-135.467
-108.807
-86.7355
-68.5743
-53.7424
-41.733
-32.0997
-24.4493
-18.4365
-13.7615
-10.1665
-7.43275
-5.37728
-3.84934
-2.72647
-1.9107
-1.3248
-0.908813
-0.616819
-0.41419
-0.27517
-0.180866
-0.117617
-0.0756702
-0.0481629
-0.0303259
-0.0188884
-0.0116365
-0.00708984
-0.00427149
-0.00254431
-0.00149803
-0.000871614
-0.000501036
-0.000284466
-0.000159469
-8.82418e-05
-4.8182e-05
-2.59521e-05
-1.37849e-05
-7.21856e-06
-3.72556e-06
-1.8946e-06
-9.49112e-07
-4.68288e-07
-2.27527e-07
-1.08834e-07
-5.12357e-08
-2.37294e-08
-1.08456e-08
-4.87891e-09
-2.15243e-09
-9.47244e-10
-4.40145e-10
-2.20621e-10
-6.25642e-11
7.68332e-12
1.09762e-12
-1.09762e-12
-1.09762e-12
-4286.96
-3698.7
-2961.68
-2310.05
-1800.43
-1417.9
-1131.72
-914.502
-746.037
-612.428
-504.347
-415.546
-341.782
-280.111
-228.415
-185.106
-148.94
-118.897
-94.1114
-73.8272
-57.3757
-44.1615
-33.6556
-25.3912
-18.9608
-14.0127
-10.248
-7.41605
-5.31012
-3.76196
-2.63688
-1.82864
-1.25464
-0.851655
-0.571956
-0.380027
-0.249816
-0.16247
-0.104537
-0.0665425
-0.0419022
-0.026101
-0.0160813
-0.00979889
-0.00590421
-0.00351722
-0.00207109
-0.0012052
-0.000692891
-0.000393455
-0.000220606
-0.000122095
-6.66811e-05
-3.59245e-05
-1.90867e-05
-9.99757e-06
-5.16131e-06
-2.62553e-06
-1.31572e-06
-6.49397e-07
-3.15641e-07
-1.51041e-07
-7.1152e-08
-3.29944e-08
-1.50494e-08
-6.75693e-09
-2.98991e-09
-1.31714e-09
-5.86128e-10
-2.70014e-10
-9.54927e-11
-1.20738e-11
-9.87856e-12
0
0
-3514.45
-3212.27
-2766.87
-2309.86
-1904.16
-1566.27
-1291.6
-1069.13
-887.758
-738.353
-613.994
-509.609
-421.501
-346.944
-283.875
-230.671
-186.005
-148.748
-117.91
-92.6077
-72.0436
-55.4984
-42.3262
-31.9525
-23.8732
-17.6514
-12.9143
-9.34898
-6.69628
-4.74533
-3.32699
-2.30774
-1.58367
-1.0752
-0.722207
-0.479932
-0.315534
-0.205237
-0.132071
-0.0840784
-0.0529507
-0.0329868
-0.020326
-0.0123868
-0.00746446
-0.00444728
-0.00261914
-0.00152436
-0.000876545
-0.000497842
-0.000279198
-0.000154561
-8.44348e-05
-4.55028e-05
-2.41834e-05
-1.26716e-05
-6.5442e-06
-3.3303e-06
-1.66956e-06
-8.244e-07
-4.00884e-07
-1.91917e-07
-9.04459e-08
-4.19597e-08
-1.91644e-08
-8.63276e-09
-3.8241e-09
-1.66509e-09
-7.31013e-10
-3.5014e-10
-1.22933e-10
2.19523e-12
0
-5.48809e-12
5.48809e-12
-3035.38
-2860.63
-2575.85
-2251.41
-1934.18
-1646.74
-1395.91
-1180.6
-996.725
-839.62
-705.095
-589.689
-490.64
-405.747
-333.227
-271.586
-219.531
-175.909
-139.671
-109.85
-85.5568
-65.9733
-50.3574
-38.0431
-28.4416
-21.0407
-15.4015
-11.1542
-7.99231
-5.66565
-3.97343
-2.75687
-1.89235
-1.28505
-0.863332
-0.573819
-0.377323
-0.245466
-0.157981
-0.100587
-0.0633559
-0.0394742
-0.0243267
-0.0148269
-0.00893622
-0.00532499
-0.00313659
-0.00182588
-0.00105015
-0.000596584
-0.000334662
-0.00018532
-0.00010127
-5.45948e-05
-2.90265e-05
-1.52154e-05
-7.86138e-06
-4.00245e-06
-2.0075e-06
-9.91769e-07
-4.82509e-07
-2.31128e-07
-1.09007e-07
-5.06243e-08
-2.31312e-08
-1.03922e-08
-4.60121e-09
-2.01413e-09
-8.93461e-10
-4.05021e-10
-1.40495e-10
-2.19524e-11
1.09762e-12
4.39047e-12
3.29285e-12
-2720.59
-2608.94
-2415.11
-2177.4
-1927.34
-1684.99
-1460.64
-1258.18
-1077.97
-918.775
-778.788
-656.161
-549.184
-456.323
-376.205
-307.574
-249.261
-200.158
-159.207
-125.403
-97.7941
-75.4913
-57.676
-43.6071
-32.6242
-24.1497
-17.6868
-12.8154
-9.18643
-6.5146
-4.57036
-3.17199
-2.17789
-1.47932
-0.99407
-0.66085
-0.434634
-0.282799
-0.182038
-0.115922
-0.0730261
-0.045506
-0.0280482
-0.0170978
-0.0103066
-0.00614266
-0.00361893
-0.00210712
-0.00121219
-0.000688822
-0.000386519
-0.000214106
-0.000117043
-6.31224e-05
-3.35746e-05
-1.76075e-05
-9.10174e-06
-4.63634e-06
-2.32674e-06
-1.15014e-06
-5.59882e-07
-2.68358e-07
-1.26646e-07
-5.88345e-08
-2.6885e-08
-1.21177e-08
-5.38711e-09
-2.33793e-09
-1.00761e-09
-4.44535e-10
-1.8879e-10
-5.59785e-11
-1.09762e-12
0
5.48809e-12
-2505.36
-2427.75
-2287.41
-2106.11
-1904.62
-1698.75
-1498.81
-1310.65
-1137.12
-979.259
-837.097
-710.161
-597.727
-498.945
-412.9
-338.631
-275.143
-221.421
-176.443
-139.195
-108.693
-84.0002
-64.24
-48.6113
-36.3952
-26.9588
-19.7554
-14.3216
-10.2708
-7.28656
-5.11379
-3.55032
-2.43837
-1.6567
-1.11353
-0.740436
-0.487076
-0.316981
-0.204078
-0.129979
-0.0818948
-0.0510407
-0.0314647
-0.0191837
-0.011566
-0.00689458
-0.00406278
-0.00236609
-0.00136152
-0.000773902
-0.000434398
-0.000240712
-0.000131638
-7.10237e-05
-3.77946e-05
-1.98303e-05
-1.02561e-05
-5.2273e-06
-2.62483e-06
-1.29827e-06
-6.32396e-07
-3.03327e-07
-1.43235e-07
-6.65683e-08
-3.04512e-08
-1.3729e-08
-6.10275e-09
-2.66172e-09
-1.13713e-09
-4.8844e-10
-2.19523e-10
-9.11023e-11
-2.19523e-11
4.39047e-12
1.09762e-11
-2354.13
-2296.17
-2188.49
-2044.16
-1877.1
-1699.31
-1519.94
-1345.28
-1179.38
-1024.65
-882.402
-753.232
-637.246
-534.216
-443.672
-364.96
-297.285
-239.751
-191.396
-151.226
-118.246
-91.4877
-70.0362
-53.0437
-39.7442
-29.4593
-21.6008
-15.6677
-11.2415
-7.9786
-5.60161
-3.89034
-2.67273
-1.81644
-1.22122
-0.812232
-0.534422
-0.347863
-0.224002
-0.142695
-0.0899217
-0.056053
-0.0345604
-0.0210747
-0.0127085
-0.00757713
-0.00446595
-0.00260151
-0.00149739
-0.000851383
-0.000478046
-0.000264995
-0.000144976
-7.82541e-05
-4.16619e-05
-2.18706e-05
-1.13175e-05
-5.7716e-06
-2.89991e-06
-1.43524e-06
-6.99591e-07
-3.35804e-07
-1.58686e-07
-7.3806e-08
-3.37792e-08
-1.52152e-08
-6.7734e-09
-2.96466e-09
-1.27214e-09
-5.5759e-10
-2.305e-10
-7.68332e-11
-1.97571e-11
-1.09762e-12
0
-2245.89
-2199.87
-2112.79
-1993.02
-1850.18
-1693.44
-1530.56
-1367.62
-1209.12
-1058.22
-917.078
-787.053
-668.906
-562.932
-469.058
-386.92
-315.923
-255.3
-204.165
-161.558
-126.489
-97.9764
-75.0778
-56.9115
-42.6749
-31.6531
-23.2233
-16.8536
-12.0982
-8.59037
-6.03347
-4.19174
-2.88071
-1.95836
-1.31699
-0.876137
-0.576598
-0.375394
-0.241777
-0.154046
-0.0970916
-0.0605327
-0.0373289
-0.022767
-0.0137315
-0.00818869
-0.00482745
-0.00281277
-0.00161942
-0.000921038
-0.000517327
-0.000286875
-0.000157009
-8.47867e-05
-4.51614e-05
-2.37199e-05
-1.22812e-05
-6.2667e-06
-3.1506e-06
-1.56031e-06
-7.61044e-07
-3.6553e-07
-1.72882e-07
-8.04927e-08
-3.68657e-08
-1.65982e-08
-7.37599e-09
-3.24565e-09
-1.40715e-09
-5.96006e-10
-2.20621e-10
-1.03176e-10
-4.82952e-11
0
0
-2167.45
-2128.97
-2055.26
-1952.02
-1826.22
-1685.01
-1534.96
-1381.7
-1229.78
-1082.76
-943.288
-813.256
-693.913
-585.971
-489.69
-404.96
-331.374
-268.291
-214.904
-170.297
-133.496
-103.517
-79.3989
-60.2378
-45.2028
-33.5503
-24.6299
-17.8839
-12.8439
-9.12372
-6.41056
-4.45528
-3.06281
-2.08276
-1.40101
-0.932262
-0.613671
-0.399613
-0.257425
-0.164046
-0.103412
-0.0644845
-0.0397725
-0.0242616
-0.0146356
-0.00872953
-0.00514738
-0.00299988
-0.00172759
-0.000982845
-0.000552221
-0.000306334
-0.000167725
-9.06124e-05
-4.82869e-05
-2.53743e-05
-1.31449e-05
-6.7112e-06
-3.3761e-06
-1.67303e-06
-8.16556e-07
-3.92454e-07
-1.85729e-07
-8.65241e-08
-3.96668e-08
-1.79021e-08
-7.95882e-09
-3.48603e-09
-1.50264e-09
-6.28935e-10
-2.65623e-10
-1.26226e-10
-3.07333e-11
4.39047e-12
0
-2110.15
-2076.58
-2011.73
-1919.76
-1805.98
-1676.13
-1535.87
-1390.34
-1243.99
-1100.53
-962.889
-833.32
-713.418
-604.211
-506.227
-419.572
-344.001
-278.989
-223.807
-177.584
-139.368
-108.18
-83.05
-63.058
-47.3526
-35.1683
-25.8323
-18.7665
-13.484
-9.5824
-6.73537
-4.68263
-3.2201
-2.19034
-1.47376
-0.980905
-0.645832
-0.420641
-0.271022
-0.172741
-0.108912
-0.0679251
-0.0419015
-0.0255644
-0.0154242
-0.0092016
-0.00542682
-0.00316343
-0.00182223
-0.00103697
-0.000582807
-0.00032341
-0.000177141
-9.57383e-05
-5.10412e-05
-2.68345e-05
-1.39085e-05
-7.10491e-06
-3.5762e-06
-1.77324e-06
-8.65989e-07
-4.16487e-07
-1.97231e-07
-9.19331e-08
-4.22001e-08
-1.90876e-08
-8.4791e-09
-3.69678e-09
-1.59264e-09
-6.7723e-10
-2.94161e-10
-1.21836e-10
-3.51238e-11
-6.5857e-12
5.48809e-12
-2068.1
-2037.8
-1978.93
-1894.73
-1789.43
-1667.87
-1534.97
-1395.48
-1253.67
-1113.28
-977.414
-848.525
-728.459
-618.477
-519.316
-431.254
-354.182
-287.679
-231.085
-183.575
-144.221
-112.05
-86.0924
-65.4162
-49.1559
-36.5292
-26.8462
-19.5125
-14.0261
-9.97157
-7.01142
-4.87614
-3.35417
-2.28215
-1.53592
-1.02251
-0.673368
-0.43866
-0.282683
-0.180204
-0.113636
-0.0708819
-0.0437321
-0.0266855
-0.0161031
-0.00960827
-0.0056677
-0.00330452
-0.00190392
-0.00108373
-0.00060926
-0.000338194
-0.000185302
-0.000100187
-5.3435e-05
-2.81055e-05
-1.45742e-05
-7.44874e-06
-3.75125e-06
-1.86107e-06
-9.09421e-07
-4.3762e-07
-2.07352e-07
-9.67528e-08
-4.44338e-08
-2.00831e-08
-8.94119e-09
-3.90642e-09
-1.67387e-09
-7.34306e-10
-3.30383e-10
-1.18543e-10
-2.19524e-11
1.09762e-12
-1.09762e-12
-2037.18
-2009.09
-1954.32
-1875.5
-1776.22
-1660.67
-1533.26
-1398.4
-1260.2
-1122.37
-988.089
-859.942
-739.939
-629.511
-529.552
-440.476
-362.287
-294.646
-236.958
-188.436
-148.177
-115.22
-88.5934
-67.3615
-50.6481
-37.6585
-27.6898
-20.1345
-14.479
-10.2974
-7.24295
-5.03869
-3.46695
-2.35949
-1.58834
-1.05764
-0.696637
-0.453902
-0.292554
-0.186526
-0.11764
-0.0733901
-0.0452859
-0.0276375
-0.01668
-0.00995399
-0.0058726
-0.0034246
-0.00197351
-0.00112359
-0.000631826
-0.000350819
-0.000192279
-0.000103994
-5.54862e-05
-2.91961e-05
-1.51462e-05
-7.74465e-06
-3.90217e-06
-1.93692e-06
-9.46956e-07
-4.55932e-07
-2.16157e-07
-1.00896e-07
-4.63535e-08
-2.097e-08
-9.36926e-09
-4.0996e-09
-1.75838e-09
-7.82601e-10
-3.52335e-10
-1.22933e-10
-5.48809e-12
1.31714e-11
-3.29285e-12
-2014.45
-1987.87
-1935.92
-1860.87
-1765.86
-1654.65
-1531.31
-1399.95
-1264.57
-1128.81
-995.877
-868.439
-748.615
-637.955
-537.468
-447.673
-368.661
-300.163
-241.636
-192.329
-151.361
-117.781
-90.6225
-68.9453
-51.8668
-38.5834
-28.3824
-20.6465
-14.8526
-10.5666
-7.43459
-5.17346
-3.56059
-2.4238
-1.63198
-1.08691
-0.71605
-0.466629
-0.300804
-0.191813
-0.120991
-0.0754904
-0.0465877
-0.0284355
-0.0171638
-0.0102441
-0.00604459
-0.00352545
-0.00203198
-0.0011571
-0.000650812
-0.000361448
-0.000198158
-0.000107206
-5.72184e-05
-3.01181e-05
-1.56304e-05
-7.99546e-06
-4.03025e-06
-2.00142e-06
-9.78963e-07
-4.71543e-07
-2.23643e-07
-1.04453e-07
-4.80449e-08
-2.17647e-08
-9.7194e-09
-4.26315e-09
-1.84619e-09
-8.06749e-10
-3.20504e-10
-9.98832e-11
-2.96357e-11
-2.19523e-12
-1.09762e-12
-1997.76
-1972.23
-1922.23
-1849.82
-1757.86
-1649.78
-1529.42
-1400.69
-1267.47
-1133.35
-1001.52
-874.713
-755.114
-644.353
-543.525
-453.226
-373.615
-304.48
-245.317
-195.408
-153.891
-119.825
-92.2477
-70.2181
-52.8492
-39.3311
-28.9437
-21.0623
-15.1568
-10.7862
-7.59119
-5.28377
-3.63735
-2.47658
-1.66785
-1.111
-0.732038
-0.47712
-0.30761
-0.196179
-0.123759
-0.0772264
-0.0476643
-0.0290957
-0.0175642
-0.0104842
-0.00618704
-0.003609
-0.00208044
-0.00118489
-0.000666562
-0.000370271
-0.000203041
-0.000109876
-5.86594e-05
-3.0886e-05
-1.60341e-05
-8.20476e-06
-4.13726e-06
-2.05535e-06
-1.00576e-06
-4.84673e-07
-2.29979e-07
-1.07437e-07
-4.94268e-08
-2.24133e-08
-1.00147e-08
-4.40145e-09
-1.89888e-09
-8.26506e-10
-3.5453e-10
-1.21836e-10
-9.87856e-12
0
-8.78094e-12
-1985.54
-1960.74
-1912.11
-1841.56
-1751.74
-1645.93
-1527.74
-1400.97
-1269.38
-1136.52
-1005.58
-879.31
-759.939
-649.155
-548.112
-457.465
-377.423
-307.818
-248.18
-197.815
-155.877
-121.436
-93.5332
-71.2282
-53.6312
-39.9279
-29.3929
-21.3959
-15.4012
-10.9631
-7.71753
-5.3729
-3.69948
-2.51935
-1.69695
-1.13056
-0.74504
-0.485659
-0.313154
-0.199737
-0.126017
-0.0786431
-0.0485432
-0.0296348
-0.0178913
-0.0106804
-0.00630345
-0.00367729
-0.00212005
-0.00120761
-0.000679444
-0.000377489
-0.000207038
-0.000112062
-5.98401e-05
-3.15155e-05
-1.63653e-05
-8.37668e-06
-4.22527e-06
-2.09975e-06
-1.02782e-06
-4.95479e-07
-2.35204e-07
-1.09924e-07
-5.05826e-08
-2.29424e-08
-1.02693e-08
-4.50682e-09
-1.93949e-09
-8.46263e-10
-3.56726e-10
-1.32812e-10
-3.07333e-11
8.78094e-12
-7.68332e-12
-1976.64
-1952.33
-1904.66
-1835.41
-1747.13
-1642.93
-1526.32
-1400.98
-1270.62
-1138.72
-1008.48
-882.653
-763.492
-652.725
-551.551
-460.666
-380.318
-310.37
-250.38
-199.673
-157.417
-122.69
-94.5374
-72.0199
-54.2459
-40.3983
-29.7479
-21.6601
-15.5952
-11.1037
-7.81818
-5.44403
-3.74912
-2.55358
-1.72027
-1.14626
-0.755479
-0.492522
-0.317613
-0.202601
-0.127836
-0.0797844
-0.0492515
-0.0300694
-0.0181549
-0.0108386
-0.0063973
-0.00373235
-0.00215199
-0.00122593
-0.00068983
-0.000383309
-0.000210261
-0.000113825
-6.07927e-05
-3.20236e-05
-1.66328e-05
-8.51561e-06
-4.29641e-06
-2.13567e-06
-1.04569e-06
-5.0422e-07
-2.39431e-07
-1.11945e-07
-5.15298e-08
-2.33661e-08
-1.04493e-08
-4.59902e-09
-2.00096e-09
-8.80289e-10
-3.39164e-10
-1.25128e-10
-4.50023e-11
3.29285e-12
-1.09762e-12
-1970.17
-1946.22
-1899.21
-1830.88
-1743.68
-1640.64
-1525.16
-1400.88
-1271.42
-1140.25
-1010.55
-885.066
-766.085
-655.357
-554.106
-463.06
-382.495
-312.3
-252.052
-201.091
-158.597
-123.654
-95.3126
-72.6329
-54.7233
-40.7646
-30.0249
-21.8667
-15.7473
-11.2142
-7.89736
-5.50008
-3.7883
-2.58063
-1.73872
-1.15869
-0.763758
-0.497969
-0.321155
-0.204877
-0.129282
-0.0806923
-0.049815
-0.0304152
-0.0183648
-0.0109645
-0.00647196
-0.00377614
-0.00217738
-0.00124049
-0.000698083
-0.000387933
-0.000212821
-0.000115225
-6.15492e-05
-3.24271e-05
-1.68453e-05
-8.62596e-06
-4.35295e-06
-2.16422e-06
-1.05992e-06
-5.11218e-07
-2.42786e-07
-1.13538e-07
-5.22806e-08
-2.36965e-08
-1.05931e-08
-4.68244e-09
-2.03937e-09
-8.71508e-10
-3.57823e-10
-1.39397e-10
-5.26856e-11
-8.78094e-12
3.29285e-12
-1965.51
-1941.8
-1895.26
-1827.57
-1741.13
-1638.91
-1524.25
-1400.73
-1271.93
-1141.3
-1012
-886.794
-767.964
-657.278
-555.985
-464.832
-384.116
-313.744
-253.309
-202.162
-159.491
-124.388
-95.904
-73.1019
-55.0896
-41.0463
-30.2385
-22.0264
-15.8651
-11.2999
-7.9589
-5.54371
-3.81885
-2.60175
-1.75314
-1.16842
-0.770242
-0.502239
-0.323933
-0.206664
-0.130417
-0.0814053
-0.0502576
-0.0306869
-0.0185295
-0.0110633
-0.00653056
-0.0038105
-0.00219729
-0.0012519
-0.000704546
-0.000391553
-0.000214824
-0.00011632
-6.21406e-05
-3.27425e-05
-1.70113e-05
-8.71219e-06
-4.39715e-06
-2.18656e-06
-1.07104e-06
-5.16668e-07
-2.45409e-07
-1.14792e-07
-5.28689e-08
-2.39665e-08
-1.07226e-08
-4.70439e-09
-2.03937e-09
-8.8907e-10
-3.86361e-10
-1.59155e-10
-3.29285e-11
-1.09762e-12
1.09762e-12
-1962.16
-1938.62
-1892.41
-1825.17
-1739.27
-1637.62
-1523.54
-1400.57
-1272.25
-1142.02
-1013.02
-888.024
-769.313
-658.669
-557.354
-466.131
-385.31
-314.813
-254.243
-202.961
-160.161
-124.939
-96.3499
-73.4566
-55.3672
-41.2605
-30.4012
-22.1483
-15.9552
-11.3655
-8.00615
-5.57726
-3.84237
-2.61803
-1.76427
-1.17594
-0.775258
-0.505544
-0.326085
-0.208048
-0.131297
-0.0819583
-0.0506009
-0.0308975
-0.0186573
-0.0111399
-0.00657594
-0.00383708
-0.00221269
-0.00126071
-0.000709536
-0.000394344
-0.000216367
-0.000117163
-6.25955e-05
-3.29849e-05
-1.71388e-05
-8.77841e-06
-4.43106e-06
-2.20369e-06
-1.07957e-06
-5.2087e-07
-2.4743e-07
-1.15744e-07
-5.33223e-08
-2.4175e-08
-1.07896e-08
-4.75159e-09
-2.0723e-09
-9.09925e-10
-4.03923e-10
-1.37202e-10
-3.18309e-11
-7.68332e-12
8.78094e-12
-1959.77
-1936.35
-1890.36
-1823.44
-1737.91
-1636.67
-1523.01
-1400.42
-1272.45
-1142.5
-1013.73
-888.892
-770.274
-659.668
-558.343
-467.074
-386.182
-315.597
-254.93
-203.551
-160.657
-125.349
-96.6822
-73.7217
-55.5753
-41.4213
-30.5238
-22.2403
-16.0233
-11.4153
-8.04198
-5.60275
-3.86027
-2.63044
-1.77276
-1.18168
-0.779091
-0.508073
-0.327733
-0.209109
-0.131971
-0.0823818
-0.0508638
-0.0310588
-0.018755
-0.0111985
-0.00661062
-0.00385738
-0.00222444
-0.00126743
-0.000713333
-0.000396465
-0.000217539
-0.000117802
-6.294e-05
-3.31683e-05
-1.72351e-05
-8.82838e-06
-4.45663e-06
-2.2166e-06
-1.08598e-06
-5.24009e-07
-2.48987e-07
-1.16478e-07
-5.36362e-08
-2.43067e-08
-1.08368e-08
-4.77134e-09
-2.09755e-09
-9.32975e-10
-3.95142e-10
-1.49276e-10
-4.82952e-11
1.09762e-12
2.19524e-12
-1958.08
-1934.75
-1888.91
-1822.2
-1736.94
-1635.98
-1522.61
-1400.3
-1272.57
-1142.83
-1014.23
-889.5
-770.954
-660.378
-559.05
-467.752
-386.811
-316.164
-255.43
-203.982
-161.021
-125.65
-96.9271
-73.9175
-55.7295
-41.5408
-30.6149
-22.3089
-16.0741
-11.4525
-8.06884
-5.62188
-3.87372
-2.63978
-1.77916
-1.18601
-0.781985
-0.509983
-0.328978
-0.20991
-0.132481
-0.0827022
-0.0510627
-0.0311807
-0.0188289
-0.0112427
-0.00663677
-0.00387267
-0.00223327
-0.00127247
-0.000716181
-0.000398054
-0.000218414
-0.000118279
-6.31967e-05
-3.33047e-05
-1.73067e-05
-8.86547e-06
-4.47558e-06
-2.22615e-06
-1.09075e-06
-5.26347e-07
-2.50094e-07
-1.17012e-07
-5.38875e-08
-2.44011e-08
-1.0896e-08
-4.80866e-09
-2.09645e-09
-9.02242e-10
-3.88557e-10
-1.76716e-10
-5.48809e-11
-1.20738e-11
1.20738e-11
-1956.9
-1933.61
-1887.89
-1821.33
-1736.24
-1635.49
-1522.32
-1400.2
-1272.64
-1143.06
-1014.56
-889.923
-771.43
-660.879
-559.552
-468.234
-387.26
-316.572
-255.791
-204.293
-161.285
-125.869
-97.1057
-74.0607
-55.8424
-41.6284
-30.682
-22.3594
-16.1117
-11.48
-8.08874
-5.63607
-3.88371
-2.64672
-1.78393
-1.18924
-0.784144
-0.511409
-0.329908
-0.210509
-0.132862
-0.0829415
-0.0512112
-0.0312717
-0.018884
-0.0112756
-0.00665624
-0.00388403
-0.00223983
-0.00127621
-0.000718286
-0.000399226
-0.000219059
-0.00011863
-6.3385e-05
-3.34046e-05
-1.73591e-05
-8.89252e-06
-4.4894e-06
-2.23309e-06
-1.09419e-06
-5.28055e-07
-2.50932e-07
-1.17386e-07
-5.40423e-08
-2.45142e-08
-1.09685e-08
-4.80866e-09
-2.07011e-09
-9.1212e-10
-4.09411e-10
-1.63545e-10
-4.50023e-11
-1.09762e-12
2.19524e-12
-1956.07
-1932.83
-1887.17
-1820.72
-1735.76
-1635.14
-1522.1
-1400.12
-1272.69
-1143.2
-1014.79
-890.214
-771.76
-661.229
-559.904
-468.575
-387.579
-316.862
-256.047
-204.516
-161.474
-126.026
-97.2343
-74.1641
-55.9241
-41.692
-30.7307
-22.3962
-16.1391
-11.5001
-8.1033
-5.64648
-3.89105
-2.65183
-1.78743
-1.19162
-0.785735
-0.512461
-0.330594
-0.210952
-0.133143
-0.0831182
-0.0513207
-0.0313388
-0.0189246
-0.0112999
-0.00667054
-0.00389237
-0.00224463
-0.00127894
-0.000719822
-0.000400079
-0.000219527
-0.000118884
-6.35211e-05
-3.34766e-05
-1.73967e-05
-8.91195e-06
-4.49928e-06
-2.23805e-06
-1.09664e-06
-5.29246e-07
-2.51491e-07
-1.17638e-07
-5.41949e-08
-2.45943e-08
-1.09817e-08
-4.82732e-09
-2.10304e-09
-9.13218e-10
-3.95142e-10
-1.55862e-10
-3.7319e-11
1.09762e-12
-2.19524e-12
-1955.5
-1932.28
-1886.68
-1820.29
-1735.41
-1634.89
-1521.95
-1400.06
-1272.71
-1143.3
-1014.95
-890.414
-771.988
-661.471
-560.149
-468.813
-387.802
-317.065
-256.229
-204.673
-161.608
-126.138
-97.326
-74.2379
-55.9826
-41.7376
-30.7657
-22.4227
-16.1588
-11.5146
-8.11384
-5.65402
-3.89637
-2.65553
-1.78998
-1.19335
-0.786895
-0.513227
-0.331095
-0.211274
-0.133349
-0.083247
-0.0514006
-0.0313877
-0.0189541
-0.0113175
-0.00668092
-0.00389841
-0.0022481
-0.00128091
-0.000720926
-0.000400691
-0.000219862
-0.000119065
-6.36179e-05
-3.35277e-05
-1.74233e-05
-8.92565e-06
-4.50624e-06
-2.24155e-06
-1.09839e-06
-5.30076e-07
-2.51892e-07
-1.17859e-07
-5.42838e-08
-2.46064e-08
-1.09904e-08
-4.83391e-09
-2.10633e-09
-9.1212e-10
-3.7758e-10
-1.56959e-10
-6.0369e-11
-1.75619e-11
5.48809e-12
-1955.1
-1931.9
-1886.33
-1820
-1735.18
-1634.72
-1521.84
-1400.01
-1272.73
-1143.37
-1015.06
-890.55
-772.144
-661.638
-560.318
-468.977
-387.957
-317.207
-256.355
-204.783
-161.702
-126.217
-97.3907
-74.2901
-56.0241
-41.77
-30.7906
-22.4416
-16.1729
-11.525
-8.12138
-5.65942
-3.90019
-2.6582
-1.79182
-1.19459
-0.787729
-0.513779
-0.331455
-0.211506
-0.133496
-0.0833398
-0.0514581
-0.0314228
-0.0189753
-0.0113301
-0.00668835
-0.00390272
-0.00225057
-0.00128231
-0.00072171
-0.000401124
-0.000220099
-0.000119193
-6.36857e-05
-3.35634e-05
-1.74419e-05
-8.93515e-06
-4.51106e-06
-2.24396e-06
-1.09957e-06
-5.3066e-07
-2.5219e-07
-1.17991e-07
-5.43255e-08
-2.46415e-08
-1.09959e-08
-4.81525e-09
-2.10523e-09
-9.42853e-10
-3.87459e-10
-1.59155e-10
-6.69547e-11
3.29285e-12
1.31714e-11
-1954.84
-1931.65
-1886.1
-1819.79
-1735.01
-1634.6
-1521.77
-1399.98
-1272.73
-1143.41
-1015.13
-890.641
-772.25
-661.751
-560.434
-469.09
-388.064
-317.305
-256.443
-204.86
-161.767
-126.272
-97.4358
-74.3266
-56.0531
-41.7927
-30.8081
-22.4549
-16.1829
-11.5323
-8.12671
-5.66324
-3.90289
-2.66009
-1.79312
-1.19548
-0.788323
-0.514172
-0.331712
-0.211672
-0.133602
-0.0834058
-0.051499
-0.0314478
-0.0189904
-0.0113391
-0.00669361
-0.00390577
-0.00225231
-0.0012833
-0.000722258
-0.000401426
-0.000220263
-0.000119281
-6.37326e-05
-3.35879e-05
-1.74546e-05
-8.94165e-06
-4.51434e-06
-2.24559e-06
-1.10037e-06
-5.3106e-07
-2.52378e-07
-1.18062e-07
-5.43584e-08
-2.46624e-08
-1.10102e-08
-4.81854e-09
-2.11182e-09
-9.37365e-10
-3.9624e-10
-1.45983e-10
-3.7319e-11
4.39047e-12
-8.78094e-12
-1954.66
-1931.48
-1885.94
-1819.66
-1734.9
-1634.51
-1521.72
-1399.96
-1272.74
-1143.43
-1015.17
-890.702
-772.321
-661.828
-560.512
-469.167
-388.136
-317.372
-256.502
-204.912
-161.812
-126.309
-97.467
-74.3518
-56.0732
-41.8085
-30.8203
-22.4641
-16.1898
-11.5375
-8.13044
-5.66592
-3.90479
-2.66141
-1.79403
-1.1961
-0.78874
-0.514449
-0.331893
-0.211788
-0.133676
-0.0834523
-0.0515277
-0.0314654
-0.0190009
-0.0113454
-0.00669729
-0.0039079
-0.00225353
-0.00128398
-0.000722638
-0.000401634
-0.000220376
-0.000119341
-6.37645e-05
-3.36046e-05
-1.74632e-05
-8.94604e-06
-4.51655e-06
-2.24669e-06
-1.10089e-06
-5.31294e-07
-2.52477e-07
-1.18117e-07
-5.44199e-08
-2.46799e-08
-1.0997e-08
-4.81086e-09
-2.10084e-09
-9.46146e-10
-4.28071e-10
-1.48178e-10
-2.41476e-11
-3.29285e-12
2.19523e-12
-1954.53
-1931.36
-1885.84
-1819.57
-1734.83
-1634.46
-1521.68
-1399.94
-1272.74
-1143.45
-1015.2
-890.742
-772.368
-661.879
-560.564
-469.218
-388.185
-317.417
-256.543
-204.948
-161.843
-126.335
-97.4882
-74.3691
-56.0869
-41.8193
-30.8287
-22.4705
-16.1946
-11.541
-8.13301
-5.66777
-3.9061
-2.66233
-1.79467
-1.19653
-0.789031
-0.514641
-0.332018
-0.211869
-0.133727
-0.0834846
-0.0515477
-0.0314775
-0.0190083
-0.0113497
-0.00669982
-0.00390936
-0.00225436
-0.00128445
-0.000722897
-0.000401776
-0.000220452
-0.000119382
-6.3786e-05
-3.36158e-05
-1.74689e-05
-8.94896e-06
-4.51801e-06
-2.24741e-06
-1.10123e-06
-5.3145e-07
-2.52546e-07
-1.18154e-07
-5.4433e-08
-2.46942e-08
-1.09893e-08
-4.80866e-09
-2.10962e-09
-9.51634e-10
-4.12704e-10
-1.31714e-10
-3.29285e-11
-8.78094e-12
0
-1954.45
-1931.28
-1885.77
-1819.51
-1734.78
-1634.42
-1521.66
-1399.93
-1272.74
-1143.46
-1015.22
-890.769
-772.399
-661.913
-560.599
-469.253
-388.218
-317.447
-256.57
-204.972
-161.863
-126.352
-97.5026
-74.3808
-56.0963
-41.8266
-30.8343
-22.4748
-16.1978
-11.5434
-8.13477
-5.66904
-3.907
-2.66296
-1.7951
-1.19683
-0.78923
-0.514773
-0.332105
-0.211925
-0.133763
-0.0835068
-0.0515614
-0.0314859
-0.0190133
-0.0113527
-0.00670156
-0.00391036
-0.00225492
-0.00128476
-0.000723071
-0.000401871
-0.000220504
-0.000119409
-6.38002e-05
-3.36232e-05
-1.74727e-05
-8.95088e-06
-4.51895e-06
-2.24789e-06
-1.10147e-06
-5.31545e-07
-2.52577e-07
-1.18176e-07
-5.44561e-08
-2.46964e-08
-1.10036e-08
-4.82403e-09
-2.07999e-09
-9.1212e-10
-4.10509e-10
-1.4269e-10
-4.17095e-11
-1.31714e-11
-2.19524e-12
-1954.4
-1931.23
-1885.72
-1819.47
-1734.75
-1634.4
-1521.64
-1399.92
-1272.74
-1143.47
-1015.24
-890.786
-772.42
-661.935
-560.622
-469.275
-388.24
-317.467
-256.588
-204.988
-161.877
-126.364
-97.5121
-74.3886
-56.1025
-41.8315
-30.8381
-22.4778
-16.2
-11.545
-8.13596
-5.66989
-3.90761
-2.66339
-1.7954
-1.19703
-0.789365
-0.514863
-0.332163
-0.211963
-0.133787
-0.0835219
-0.0515707
-0.0314916
-0.0190167
-0.0113547
-0.00670272
-0.00391103
-0.0022553
-0.00128498
-0.000723188
-0.000401934
-0.000220537
-0.000119427
-6.38095e-05
-3.3628e-05
-1.74752e-05
-8.95211e-06
-4.51956e-06
-2.24817e-06
-1.10161e-06
-5.3163e-07
-2.5263e-07
-1.1818e-07
-5.44583e-08
-2.4703e-08
-1.09959e-08
-4.81525e-09
-2.08328e-09
-9.14315e-10
-4.09411e-10
-1.66838e-10
-3.40261e-11
1.53666e-11
-6.5857e-12
-1954.37
-1931.2
-1885.69
-1819.44
-1734.73
-1634.38
-1521.63
-1399.92
-1272.74
-1143.47
-1015.24
-890.797
-772.433
-661.95
-560.637
-469.29
-388.254
-317.48
-256.6
-204.998
-161.886
-126.372
-97.5185
-74.3937
-56.1067
-41.8348
-30.8407
-22.4797
-16.2015
-11.5461
-8.13675
-5.67046
-3.90801
-2.66367
-1.79559
-1.19716
-0.789456
-0.514923
-0.332203
-0.211988
-0.133803
-0.083532
-0.051577
-0.0314953
-0.0190189
-0.011356
-0.0067035
-0.00391147
-0.00225555
-0.00128512
-0.000723265
-0.000401976
-0.000220559
-0.000119439
-6.38156e-05
-3.36311e-05
-1.74767e-05
-8.95289e-06
-4.51994e-06
-2.24837e-06
-1.10171e-06
-5.31682e-07
-2.52674e-07
-1.18215e-07
-5.44506e-08
-2.46854e-08
-1.09882e-08
-4.80208e-09
-2.09206e-09
-9.26389e-10
-3.97338e-10
-1.56959e-10
-4.28071e-11
5.48809e-12
4.39047e-12
-1954.35
-1931.18
-1885.67
-1819.42
-1734.71
-1634.37
-1521.62
-1399.91
-1272.74
-1143.48
-1015.25
-890.805
-772.441
-661.959
-560.646
-469.3
-388.263
-317.489
-256.608
-205.005
-161.892
-126.377
-97.5226
-74.3971
-56.1094
-41.837
-30.8423
-22.481
-16.2024
-11.5468
-8.13727
-5.67084
-3.90828
-2.66386
-1.79573
-1.19725
-0.789516
-0.514963
-0.332229
-0.212005
-0.133814
-0.0835387
-0.0515811
-0.0314979
-0.0190204
-0.0113569
-0.00670402
-0.00391176
-0.00225572
-0.00128521
-0.000723315
-0.000402003
-0.000220574
-0.000119446
-6.38195e-05
-3.36331e-05
-1.74777e-05
-8.95335e-06
-4.52017e-06
-2.24848e-06
-1.10176e-06
-5.3172e-07
-2.52702e-07
-1.18216e-07
-5.44418e-08
-2.46964e-08
-1.09959e-08
-4.80976e-09
-2.08877e-09
-9.23096e-10
-4.03923e-10
-1.53666e-10
-4.28071e-11
-2.19523e-12
0
-1954.33
-1931.17
-1885.66
-1819.41
-1734.7
-1634.36
-1521.62
-1399.91
-1272.74
-1143.48
-1015.25
-890.809
-772.447
-661.965
-560.653
-469.306
-388.269
-317.494
-256.613
-205.009
-161.896
-126.38
-97.5253
-74.3993
-56.1111
-41.8383
-30.8434
-22.4818
-16.2031
-11.5473
-8.13761
-5.67109
-3.90846
-2.66398
-1.79581
-1.19731
-0.789556
-0.51499
-0.332246
-0.212016
-0.133821
-0.0835431
-0.0515838
-0.0314995
-0.0190214
-0.0113575
-0.00670435
-0.00391196
-0.00225583
-0.00128527
-0.000723347
-0.00040202
-0.000220583
-0.000119451
-6.38219e-05
-3.36343e-05
-1.74783e-05
-8.95366e-06
-4.52034e-06
-2.24856e-06
-1.1018e-06
-5.31739e-07
-2.52701e-07
-1.18217e-07
-5.44396e-08
-2.46876e-08
-1.09959e-08
-4.82074e-09
-2.09206e-09
-8.94558e-10
-3.78678e-10
-1.77814e-10
-6.69547e-11
-2.19523e-12
1.09762e-12
-1954.32
-1931.16
-1885.65
-1819.41
-1734.7
-1634.36
-1521.62
-1399.91
-1272.74
-1143.48
-1015.25
-890.812
-772.45
-661.969
-560.657
-469.31
-388.273
-317.498
-256.616
-205.012
-161.898
-126.382
-97.527
-74.4007
-56.1123
-41.8392
-30.8441
-22.4823
-16.2035
-11.5476
-8.13783
-5.67125
-3.90857
-2.66406
-1.79587
-1.19735
-0.789581
-0.515007
-0.332257
-0.212024
-0.133825
-0.083546
-0.0515856
-0.0315006
-0.0190221
-0.0113578
-0.00670457
-0.00391208
-0.00225589
-0.0012853
-0.000723367
-0.000402031
-0.000220589
-0.000119454
-6.38235e-05
-3.36351e-05
-1.74787e-05
-8.95386e-06
-4.52044e-06
-2.2486e-06
-1.10181e-06
-5.31729e-07
-2.52702e-07
-1.18252e-07
-5.44627e-08
-2.46668e-08
-1.09992e-08
-4.83391e-09
-2.09425e-09
-9.15413e-10
-3.79776e-10
-1.58057e-10
-6.80523e-11
0
3.29285e-12
-1954.32
-1931.15
-1885.65
-1819.4
-1734.69
-1634.36
-1521.61
-1399.91
-1272.74
-1143.48
-1015.26
-890.814
-772.452
-661.971
-560.659
-469.312
-388.275
-317.5
-256.618
-205.014
-161.9
-126.383
-97.5281
-74.4016
-56.113
-41.8398
-30.8446
-22.4827
-16.2037
-11.5478
-8.13797
-5.67135
-3.90864
-2.66412
-1.7959
-1.19737
-0.789598
-0.515017
-0.332264
-0.212028
-0.133828
-0.0835478
-0.0515867
-0.0315013
-0.0190225
-0.0113581
-0.0067047
-0.00391216
-0.00225594
-0.00128533
-0.00072338
-0.000402038
-0.000220592
-0.000119456
-6.38244e-05
-3.36355e-05
-1.74789e-05
-8.95397e-06
-4.5205e-06
-2.24864e-06
-1.10183e-06
-5.31738e-07
-2.52702e-07
-1.18242e-07
-5.4466e-08
-2.46799e-08
-1.09795e-08
-4.81196e-09
-2.09864e-09
-9.32975e-10
-3.90752e-10
-1.58057e-10
-7.24428e-11
0
7.68332e-12
-1954.31
-1931.15
-1885.64
-1819.4
-1734.69
-1634.36