/*--------------------------------*- C++ -*----------------------------------*\
  =========                 |
  \\      /  F ield         | OpenFOAM: The Open Source CFD Toolbox
   \\    /   O peration     | Website:  https://openfoam.org
    \\  /    A nd           | Version:  10
     \\/     M anipulation  |
\*---------------------------------------------------------------------------*/
FoamFile
{
    format      ascii;
    class       volScalarField;
    location    "187";
    object      T;
}
// * * * * * * * * * * * * * * * * * * * * * * * * * * * * * * * * * * * * * //

dimensions      [0 0 0 1 0 0 0];

internalField   nonuniform List<scalar> 
11250
(
249.715
167.179
138.743
126.105
119.131
114.662
111.515
109.165
107.344
105.899
104.736
103.793
103.025
102.4
101.892
101.481
101.151
100.887
100.678
100.514
100.386
100.287
100.212
100.155
100.112
100.08
100.057
100.04
100.028
100.019
100.013
100.009
100.006
100.004
100.003
100.002
100.001
100.001
100
100
100
100
100
100
100
100
100
100
100
100
100
100
100
100
100
100
100
100
100
100
100
100
100
100
100
100
100
100
100
100
100
100
100
100
100
331.12
247.459
200.463
172.695
154.942
142.726
133.817
127.04
121.731
117.491
114.063
111.274
108.999
107.144
105.635
104.414
103.431
102.646
102.023
101.534
101.152
100.858
100.633
100.462
100.334
100.24
100.17
100.119
100.083
100.057
100.039
100.026
100.018
100.012
100.008
100.005
100.003
100.002
100.001
100.001
100
100
100
100
100
100
100
100
100
100
100
100
100
100
100
100
100
100
100
100
100
100
100
100
100
100
100
100
100
100
100
100
100
100
100
358.445
291.133
243.052
209.402
185.379
167.669
154.193
143.664
135.273
128.495
122.972
118.453
114.752
111.725
109.258
107.257
105.645
104.356
103.332
102.527
101.899
101.414
101.043
100.762
100.552
100.395
100.28
100.197
100.137
100.094
100.064
100.043
100.029
100.019
100.013
100.008
100.005
100.003
100.002
100.001
100.001
100
100
100
100
100
100
100
100
100
100
100
100
100
100
100
100
100
100
100
100
100
100
100
100
100
100
100
100
100
100
100
100
100
100
370.004
315.677
271.372
236.699
209.77
188.688
171.96
158.508
147.573
138.614
131.242
125.165
120.16
116.051
112.691
109.96
107.755
105.988
104.584
103.478
102.615
101.948
101.438
101.051
100.761
100.545
100.387
100.272
100.189
100.13
100.089
100.06
100.04
100.026
100.017
100.011
100.007
100.005
100.003
100.002
100.001
100.001
100
100
100
100
100
100
100
100
100
100
100
100
100
100
100
100
100
100
100
100
100
100
100
100
100
100
100
100
100
100
100
100
100
375.943
330.338
290.283
256.555
228.686
205.778
186.919
171.335
158.409
147.661
138.719
131.288
125.13
120.048
115.878
112.478
109.727
107.518
105.76
104.374
103.291
102.453
101.811
101.324
100.959
100.687
100.488
100.343
100.239
100.164
100.112
100.076
100.051
100.033
100.022
100.014
100.009
100.006
100.004
100.002
100.001
100.001
100.001
100
100
100
100
100
100
100
100
100
100
100
100
100
100
100
100
100
100
100
100
100
100
100
100
100
100
100
100
100
100
100
100
379.432
339.625
303.148
270.936
243.11
219.358
199.197
182.133
167.715
155.554
145.325
136.752
129.6
123.668
118.78
114.782
111.538
108.928
106.847
105.203
103.917
102.922
102.158
101.579
101.144
100.82
100.583
100.41
100.285
100.196
100.134
100.09
100.06
100.04
100.026
100.017
100.011
100.007
100.004
100.003
100.002
100.001
100.001
100
100
100
100
100
100
100
100
100
100
100
100
100
100
100
100
100
100
100
100
100
100
100
100
100
100
100
100
100
100
100
100
381.66
345.791
312.089
281.388
254.025
229.992
209.092
191.042
175.54
162.296
151.039
141.528
133.542
126.883
121.373
116.851
113.171
110.204
107.834
105.958
104.49
103.351
102.477
101.813
101.314
100.943
100.67
100.471
100.328
100.226
100.154
100.104
100.07
100.046
100.03
100.02
100.013
100.008
100.005
100.003
100.002
100.001
100.001
100
100
100
100
100
100
100
100
100
100
100
100
100
100
100
100
100
100
100
100
100
100
100
100
100
100
100
100
100
100
100
100
383.161
350.03
318.421
289.032
262.258
238.242
216.958
198.274
182.007
167.951
155.893
145.628
136.956
129.689
123.651
118.678
114.621
111.341
108.716
106.636
105.004
103.737
102.764
102.024
101.468
101.054
100.749
100.527
100.367
100.253
100.173
100.117
100.078
100.052
100.034
100.022
100.014
100.009
100.006
100.003
100.002
100.001
100.001
100
100
100
100
100
100
100
100
100
100
100
100
100
100
100
100
100
100
100
100
100
100
100
100
100
100
100
100
100
100
100
100
384.205
353.018
322.974
294.658
268.463
244.602
223.148
204.071
187.274
172.62
159.95
149.09
139.864
132.097
125.618
120.265
115.886
112.338
109.492
107.234
105.46
104.081
103.02
102.213
101.605
101.153
100.82
100.577
100.402
100.277
100.189
100.128
100.086
100.057
100.037
100.024
100.015
100.01
100.006
100.004
100.002
100.001
100.001
100.001
100
100
100
100
100
100
100
100
100
100
100
100
100
100
100
100
100
100
100
100
100
100
100
100
100
100
100
100
100
100
100
384.948
355.161
326.285
298.82
273.138
249.482
227.98
208.667
191.51
176.424
163.291
151.969
142.303
134.131
127.291
121.623
116.973
113.198
110.165
107.754
105.857
104.381
103.244
102.379
101.727
101.241
100.883
100.621
100.433
100.299
100.204
100.138
100.092
100.061
100.04
100.026
100.017
100.011
100.007
100.004
100.003
100.002
100.001
100.001
100
100
100
100
100
100
100
100
100
100
100
100
100
100
100
100
100
100
100
100
100
100
100
100
100
100
100
100
100
100
100
385.485
356.717
328.712
301.91
276.658
253.211
231.725
212.278
194.88
179.484
166.006
154.33
144.319
135.825
128.693
122.767
117.894
113.93
110.74
108.2
106.199
104.64
103.438
102.522
101.832
101.317
100.937
100.66
100.46
100.318
100.217
100.147
100.098
100.065
100.043
100.028
100.018
100.011
100.007
100.004
100.003
100.002
100.001
100.001
100
100
100
100
100
100
100
100
100
100
100
100
100
100
100
100
100
100
100
100
100
100
100
100
100
100
100
100
100
100
100
385.875
357.854
330.5
304.208
279.306
256.048
234.609
215.092
197.534
181.919
168.186
156.242
145.964
137.217
129.852
123.718
118.664
114.544
111.224
108.576
106.488
104.86
103.603
102.645
101.922
101.382
100.984
100.693
100.484
100.334
100.228
100.154
100.103
100.068
100.045
100.029
100.019
100.012
100.007
100.005
100.003
100.002
100.001
100.001
100
100
100
100
100
100
100
100
100
100
100
100
100
100
100
100
100
100
100
100
100
100
100
100
100
100
100
100
100
100
100
386.161
358.689
331.82
305.918
281.294
258.199
236.818
217.267
199.605
183.836
169.917
157.771
147.29
138.346
130.797
124.497
119.297
115.052
111.626
108.89
106.73
105.044
103.742
102.748
101.998
101.438
101.024
100.722
100.504
100.348
100.238
100.161
100.108
100.071
100.047
100.03
100.019
100.012
100.008
100.005
100.003
100.002
100.001
100.001
100
100
100
100
100
100
100
100
100
100
100
100
100
100
100
100
100
100
100
100
100
100
100
100
100
100
100
100
100
100
100
386.371
359.304
332.796
307.189
282.782
259.823
238.498
218.936
201.207
185.33
171.277
158.981
148.345
139.25
131.558
125.128
119.812
115.467
111.955
109.148
106.93
105.197
103.858
102.834
102.061
101.484
101.057
100.745
100.52
100.359
100.246
100.166
100.111
100.074
100.048
100.031
100.02
100.013
100.008
100.005
100.003
100.002
100.001
100.001
100
100
100
100
100
100
100
100
100
100
100
100
100
100
100
100
100
100
100
100
100
100
100
100
100
100
100
100
100
100
100
386.526
359.756
333.516
308.131
283.892
261.042
239.768
220.207
202.436
186.485
172.335
159.928
149.176
139.965
132.164
125.633
120.226
115.802
112.222
109.358
107.093
105.322
103.952
102.905
102.114
101.522
101.085
100.765
100.534
100.369
100.252
100.171
100.114
100.076
100.05
100.032
100.021
100.013
100.008
100.005
100.003
100.002
100.001
100.001
100
100
100
100
100
100
100
100
100
100
100
100
100
100
100
100
100
100
100
100
100
100
100
100
100
100
100
100
100
100
100
386.639
360.088
334.046
308.828
284.717
261.952
240.723
221.168
203.371
187.368
173.149
160.661
149.823
140.525
132.64
126.031
120.554
116.068
112.435
109.526
107.224
105.422
104.028
102.962
102.156
101.553
101.107
100.781
100.545
100.377
100.258
100.174
100.117
100.077
100.051
100.033
100.021
100.013
100.008
100.005
100.003
100.002
100.001
100.001
100
100
100
100
100
100
100
100
100
100
100
100
100
100
100
100
100
100
100
100
100
100
100
100
100
100
100
100
100
100
100
386.721
360.331
334.435
309.341
285.327
262.628
241.435
221.889
204.076
188.038
173.769
161.223
150.321
140.958
133.01
126.342
120.811
116.277
112.603
109.659
107.328
105.502
104.089
103.008
102.19
101.578
101.125
100.794
100.555
100.383
100.262
100.178
100.119
100.079
100.052
100.034
100.022
100.014
100.009
100.005
100.003
100.002
100.001
100.001
100
100
100
100
100
100
100
100
100
100
100
100
100
100
100
100
100
100
100
100
100
100
100
100
100
100
100
100
100
100
100
386.782
360.508
334.719
309.717
285.775
263.127
241.964
222.425
204.604
188.542
174.238
161.649
150.701
141.29
133.295
126.581
121.01
116.44
112.734
109.763
107.409
105.565
104.137
103.044
102.217
101.598
101.139
100.804
100.562
100.388
100.266
100.18
100.121
100.08
100.052
100.034
100.022
100.014
100.009
100.005
100.003
100.002
100.001
100.001
100
100
100
100
100
100
100
100
100
100
100
100
100
100
100
100
100
100
100
100
100
100
100
100
100
100
100
100
100
100
100
386.825
360.637
334.926
309.991
286.102
263.493
242.352
222.822
204.995
188.917
174.589
161.97
150.987
141.541
133.511
126.764
121.163
116.565
112.834
109.843
107.472
105.614
104.175
103.072
102.238
101.613
101.151
100.812
100.568
100.392
100.269
100.182
100.122
100.081
100.053
100.034
100.022
100.014
100.009
100.006
100.003
100.002
100.001
100.001
100
100
100
100
100
100
100
100
100
100
100
100
100
100
100
100
100
100
100
100
100
100
100
100
100
100
100
100
100
100
100
386.857
360.73
335.075
310.19
286.34
263.759
242.636
223.113
205.283
189.195
174.849
162.208
151.201
141.729
133.673
126.903
121.278
116.659
112.911
109.905
107.52
105.651
104.203
103.094
102.254
101.625
101.159
100.819
100.572
100.396
100.271
100.183
100.123
100.082
100.053
100.035
100.022
100.014
100.009
100.006
100.003
100.002
100.001
100.001
100
100
100
100
100
100
100
100
100
100
100
100
100
100
100
100
100
100
100
100
100
100
100
100
100
100
100
100
100
100
100
386.879
360.796
335.183
310.332
286.512
263.952
242.842
223.324
205.493
189.397
175.04
162.383
151.359
141.868
133.794
127.006
121.364
116.731
112.969
109.951
107.557
105.68
104.225
103.111
102.266
101.634
101.166
100.823
100.575
100.398
100.272
100.184
100.124
100.082
100.054
100.035
100.022
100.014
100.009
100.006
100.003
100.002
100.001
100.001
100
100
100
100
100
100
100
100
100
100
100
100
100
100
100
100
100
100
100
100
100
100
100
100
100
100
100
100
100
100
100
386.895
360.844
335.259
310.434
286.634
264.09
242.99
223.476
205.645
189.544
175.178
162.512
151.475
141.971
133.883
127.082
121.428
116.784
113.012
109.985
107.584
105.701
104.242
103.123
102.276
101.641
101.171
100.827
100.578
100.4
100.274
100.185
100.124
100.082
100.054
100.035
100.023
100.014
100.009
100.006
100.003
100.002
100.001
100.001
100
100
100
100
100
100
100
100
100
100
100
100
100
100
100
100
100
100
100
100
100
100
100
100
100
100
100
100
100
100
100
386.907
360.878
335.314
310.507
286.722
264.188
243.095
223.585
205.754
189.65
175.279
162.604
151.559
142.045
133.948
127.137
121.475
116.822
113.044
110.011
107.604
105.717
104.254
103.132
102.283
101.646
101.175
100.83
100.58
100.401
100.275
100.186
100.125
100.083
100.054
100.035
100.023
100.014
100.009
100.006
100.003
100.002
100.001
100.001
100
100
100
100
100
100
100
100
100
100
100
100
100
100
100
100
100
100
100
100
100
100
100
100
100
100
100
100
100
100
100
386.915
360.901
335.352
310.558
286.783
264.258
243.17
223.663
205.831
189.725
175.35
162.67
151.619
142.099
133.995
127.178
121.509
116.851
113.067
110.03
107.619
105.729
104.263
103.139
102.288
101.65
101.178
100.832
100.581
100.402
100.275
100.187
100.125
100.083
100.054
100.035
100.023
100.014
100.009
100.006
100.003
100.002
100.001
100.001
100
100
100
100
100
100
100
100
100
100
100
100
100
100
100
100
100
100
100
100
100
100
100
100
100
100
100
100
100
100
100
386.92
360.918
335.378
310.593
286.826
264.306
243.222
223.717
205.886
189.779
175.401
162.717
151.661
142.137
134.029
127.206
121.533
116.871
113.084
110.043
107.63
105.737
104.269
103.144
102.292
101.653
101.18
100.833
100.583
100.403
100.276
100.187
100.125
100.083
100.055
100.035
100.023
100.015
100.009
100.006
100.004
100.002
100.001
100.001
100
100
100
100
100
100
100
100
100
100
100
100
100
100
100
100
100
100
100
100
100
100
100
100
100
100
100
100
100
100
100
386.924
360.929
335.397
310.618
286.856
264.34
243.259
223.755
205.924
189.816
175.436
162.75
151.692
142.164
134.052
127.227
121.551
116.885
113.096
110.053
107.638
105.743
104.274
103.148
102.294
101.655
101.181
100.834
100.583
100.404
100.276
100.187
100.125
100.083
100.055
100.036
100.023
100.015
100.009
100.006
100.004
100.002
100.001
100.001
100
100
100
100
100
100
100
100
100
100
100
100
100
100
100
100
100
100
100
100
100
100
100
100
100
100
100
100
100
100
100
386.927
360.937
335.41
310.635
286.876
264.363
243.284
223.781
205.95
189.842
175.46
162.773
151.713
142.183
134.069
127.241
121.563
116.896
113.104
110.059
107.643
105.747
104.277
103.15
102.296
101.656
101.182
100.835
100.584
100.404
100.277
100.187
100.126
100.083
100.055
100.036
100.023
100.015
100.009
100.006
100.004
100.002
100.001
100.001
100
100
100
100
100
100
100
100
100
100
100
100
100
100
100
100
100
100
100
100
100
100
100
100
100
100
100
100
100
100
100
386.929
360.942
335.418
310.646
286.89
264.379
243.301
223.799
205.968
189.859
175.477
162.789
151.727
142.196
134.08
127.251
121.571
116.903
113.11
110.064
107.647
105.75
104.28
103.152
102.298
101.657
101.183
100.836
100.584
100.404
100.277
100.187
100.126
100.083
100.055
100.036
100.023
100.015
100.009
100.006
100.004
100.002
100.001
100.001
100
100
100
100
100
100
100
100
100
100
100
100
100
100
100
100
100
100
100
100
100
100
100
100
100
100
100
100
100
100
100
386.93
360.946
335.424
310.654
286.9
264.39
243.313
223.811
205.98
189.871
175.489
162.8
151.737
142.205
134.088
127.258
121.577
116.907
113.114
110.067
107.649
105.752
104.281
103.153
102.298
101.658
101.184
100.836
100.585
100.404
100.277
100.188
100.126
100.083
100.055
100.036
100.023
100.015
100.009
100.006
100.004
100.002
100.001
100.001
100
100
100
100
100
100
100
100
100
100
100
100
100
100
100
100
100
100
100
100
100
100
100
100
100
100
100
100
100
100
100
386.931
360.948
335.428
310.659
286.906
264.397
243.32
223.819
205.989
189.879
175.497
162.807
151.744
142.211
134.093
127.262
121.581
116.911
113.116
110.07
107.651
105.754
104.282
103.154
102.299
101.658
101.184
100.836
100.585
100.405
100.277
100.188
100.126
100.083
100.055
100.036
100.023
100.015
100.009
100.006
100.004
100.002
100.001
100.001
100
100
100
100
100
100
100
100
100
100
100
100
100
100
100
100
100
100
100
100
100
100
100
100
100
100
100
100
100
100
100
386.931
360.95
335.43
310.663
286.91
264.402
243.326
223.824
205.994
189.885
175.502
162.812
151.748
142.215
134.097
127.265
121.584
116.913
113.118
110.071
107.652
105.755
104.283
103.155
102.3
101.659
101.184
100.837
100.585
100.405
100.277
100.188
100.126
100.083
100.055
100.036
100.023
100.015
100.009
100.006
100.004
100.002
100.001
100.001
100
100
100
100
100
100
100
100
100
100
100
100
100
100
100
100
100
100
100
100
100
100
100
100
100
100
100
100
100
100
100
386.932
360.951
335.432
310.665
286.913
264.405
243.329
223.828
205.998
189.888
175.505
162.815
151.751
142.217
134.099
127.268
121.585
116.914
113.12
110.072
107.653
105.755
104.284
103.155
102.3
101.659
101.184
100.837
100.585
100.405
100.277
100.188
100.126
100.084
100.055
100.036
100.023
100.015
100.009
100.006
100.004
100.002
100.001
100.001
100
100
100
100
100
100
100
100
100
100
100
100
100
100
100
100
100
100
100
100
100
100
100
100
100
100
100
100
100
100
100
386.932
360.952
335.433
310.666
286.915
264.407
243.331
223.83
206
189.891
175.508
162.817
151.753
142.219
134.101
127.269
121.587
116.915
113.12
110.073
107.654
105.756
104.284
103.155
102.3
101.659
101.184
100.837
100.585
100.405
100.277
100.188
100.126
100.084
100.055
100.036
100.023
100.015
100.009
100.006
100.004
100.002
100.001
100.001
100
100
100
100
100
100
100
100
100
100
100
100
100
100
100
100
100
100
100
100
100
100
100
100
100
100
100
100
100
100
100
386.932
360.952
335.434
310.667
286.916
264.408
243.333
223.832
206.002
189.892
175.509
162.819
151.754
142.22
134.102
127.27
121.587
116.916
113.121
110.073
107.654
105.756
104.284
103.156
102.3
101.659
101.185
100.837
100.585
100.405
100.277
100.188
100.126
100.084
100.055
100.036
100.023
100.015
100.009
100.006
100.004
100.002
100.001
100.001
100
100
100
100
100
100
100
100
100
100
100
100
100
100
100
100
100
100
100
100
100
100
100
100
100
100
100
100
100
100
100
386.932
360.952
335.434
310.668
286.917
264.409
243.334
223.833
206.003
189.893
175.51
162.82
151.755
142.221
134.103
127.27
121.588
116.917
113.121
110.074
107.654
105.756
104.284
103.156
102.3
101.659
101.185
100.837
100.585
100.405
100.277
100.188
100.126
100.084
100.055
100.036
100.023
100.015
100.009
100.006
100.004
100.002
100.001
100.001
100
100
100
100
100
100
100
100
100
100
100
100
100
100
100
100
100
100
100
100
100
100
100
100
100
100
100
100
100
100
100
386.932
360.953
335.435
310.668
286.917
264.41
243.334
223.833
206.003
189.894
175.51
162.82
151.756
142.222
134.103
127.271
121.588
116.917
113.121
110.074
107.654
105.756
104.284
103.156
102.3
101.659
101.185
100.837
100.585
100.405
100.277
100.188
100.126
100.084
100.055
100.036
100.023
100.015
100.009
100.006
100.004
100.002
100.001
100.001
100
100
100
100
100
100
100
100
100
100
100
100
100
100
100
100
100
100
100
100
100
100
100
100
100
100
100
100
100
100
100
386.932
360.953
335.435
310.669
286.917
264.41
243.335
223.834
206.004
189.894
175.511
162.821
151.756
142.222
134.103
127.271
121.588
116.917
113.122
110.074
107.655
105.756
104.284
103.156
102.3
101.659
101.185
100.837
100.585
100.405
100.277
100.188
100.126
100.084
100.055
100.036
100.023
100.015
100.009
100.006
100.004
100.002
100.001
100.001
100
100
100
100
100
100
100
100
100
100
100
100
100
100
100
100
100
100
100
100
100
100
100
100
100
100
100
100
100
100
100
386.932
360.953
335.435
310.669
286.918
264.41
243.335
223.834
206.004
189.894
175.511
162.821
151.756
142.222
134.103
127.271
121.588
116.917
113.122
110.074
107.655
105.757
104.284
103.156
102.3
101.659
101.185
100.837
100.585
100.405
100.277
100.188
100.126
100.084
100.055
100.036
100.023
100.015
100.009
100.006
100.004
100.002
100.001
100.001
100
100
100
100
100
100
100
100
100
100
100
100
100
100
100
100
100
100
100
100
100
100
100
100
100
100
100
100
100
100
100
386.932
360.953
335.435
310.669
286.918
264.411
243.335
223.834
206.004
189.894
175.511
162.821
151.756
142.222
134.104
127.271
121.588
116.917
113.122
110.074
107.655
105.757
104.284
103.156
102.3
101.659
101.185
100.837
100.585
100.405
100.277
100.188
100.126
100.084
100.055
100.036
100.023
100.015
100.009
100.006
100.004
100.002
100.001
100.001
100
100
100
100
100
100
100
100
100
100
100
100
100
100
100
100
100
100
100
100
100
100
100
100
100
100
100
100
100
100
100
386.932
360.953
335.435
310.669
286.918
264.411
243.335
223.834
206.004
189.895
175.511
162.821
151.756
142.222
134.104
127.271
121.589
116.917
113.122
110.074
107.655
105.757
104.284
103.156
102.3
101.659
101.185
100.837
100.585
100.405
100.277
100.188
100.126
100.084
100.055
100.036
100.023
100.015
100.009
100.006
100.004
100.002
100.001
100.001
100
100
100
100
100
100
100
100
100
100
100
100
100
100
100
100
100
100
100
100
100
100
100
100
100
100
100
100
100
100
100
386.932
360.953
335.435
310.669
286.918
264.411
243.335
223.834
206.004
189.895
175.511
162.821
151.756
142.222
134.104
127.271
121.589
116.917
113.122
110.074
107.655
105.757
104.284
103.156
102.3
101.659
101.185
100.837
100.585
100.405
100.277
100.188
100.126
100.084
100.055
100.036
100.023
100.015
100.009
100.006
100.004
100.002
100.001
100.001
100
100
100
100
100
100
100
100
100
100
100
100
100
100
100
100
100
100
100
100
100
100
100
100
100
100
100
100
100
100
100
386.932
360.953
335.435
310.669
286.918
264.411
243.335
223.834
206.004
189.895
175.511
162.821
151.756
142.222
134.104
127.271
121.589
116.917
113.122
110.074
107.655
105.757
104.284
103.156
102.3
101.659
101.185
100.837
100.585
100.405
100.277
100.188
100.126
100.084
100.055
100.036
100.023
100.015
100.009
100.006
100.004
100.002
100.001
100.001
100
100
100
100
100
100
100
100
100
100
100
100
100
100
100
100
100
100
100
100
100
100
100
100
100
100
100
100
100
100
100
386.932
360.953
335.435
310.669
286.918
264.411
243.335
223.834
206.004
189.895
175.511
162.821
151.756
142.222
134.104
127.271
121.589
116.917
113.122
110.074
107.655
105.757
104.284
103.156
102.3
101.659
101.185
100.837
100.585
100.405
100.277
100.188
100.126
100.084
100.055
100.036
100.023
100.015
100.009
100.006
100.004
100.002
100.001
100.001
100
100
100
100
100
100
100
100
100
100
100
100
100
100
100
100
100
100
100
100
100
100
100
100
100
100
100
100
100
100
100
386.932
360.953
335.435
310.669
286.918
264.411
243.335
223.834
206.004
189.895
175.511
162.821
151.756
142.222
134.104
127.271
121.589
116.917
113.122
110.074
107.655
105.757
104.284
103.156
102.3
101.659
101.185
100.837
100.585
100.405
100.277
100.188
100.126
100.084
100.055
100.036
100.023
100.015
100.009
100.006
100.004
100.002
100.001
100.001
100
100
100
100
100
100
100
100
100
100
100
100
100
100
100
100
100
100
100
100
100
100
100
100
100
100
100
100
100
100
100
386.932
360.953
335.435
310.669
286.918
264.411
243.335
223.834
206.004
189.895
175.511
162.821
151.756
142.222
134.104
127.271
121.589
116.917
113.122
110.074
107.655
105.757
104.284
103.156
102.3
101.659
101.185
100.837
100.585
100.405
100.277
100.188
100.126
100.084
100.055
100.036
100.023
100.015
100.009
100.006
100.004
100.002
100.001
100.001
100
100
100
100
100
100
100
100
100
100
100
100
100
100
100
100
100
100
100
100
100
100
100
100
100
100
100
100
100
100
100
386.932
360.953
335.435
310.669
286.918
264.411
243.335
223.834
206.004
189.895
175.511
162.821
151.756
142.222
134.104
127.271
121.589
116.917
113.122
110.074
107.655
105.757
104.284
103.156
102.3
101.659
101.185
100.837
100.585
100.405
100.277
100.188
100.126
100.084
100.055
100.036
100.023
100.015
100.009
100.006
100.004
100.002
100.001
100.001
100
100
100
100
100
100
100
100
100
100
100
100
100
100
100
100
100
100
100
100
100
100
100
100
100
100
100
100
100
100
100
386.932
360.953
335.435
310.669
286.918
264.411
243.335
223.834
206.004
189.895
175.511
162.821
151.756
142.222
134.104
127.271
121.589
116.917
113.122
110.074
107.655
105.757
104.284
103.156
102.3
101.659
101.185
100.837
100.585
100.405
100.277
100.188
100.126
100.084
100.055
100.036
100.023
100.015
100.009
100.006
100.004
100.002
100.001
100.001
100
100
100
100
100
100
100
100
100
100
100
100
100
100
100
100
100
100
100
100
100
100
100
100
100
100
100
100
100
100
100
386.932
360.953
335.435
310.669
286.918
264.411
243.335
223.834
206.004
189.895
175.511
162.821
151.756
142.222
134.104
127.271
121.589
116.917
113.122
110.074
107.655
105.757
104.284
103.156
102.3
101.659
101.185
100.837
100.585
100.405
100.277
100.188
100.126
100.084
100.055
100.036
100.023
100.015
100.009
100.006
100.004
100.002
100.001
100.001
100
100
100
100
100
100
100
100
100
100
100
100
100
100
100
100
100
100
100
100
100
100
100
100
100
100
100
100
100
100
100
386.932
360.953
335.435
310.669
286.918
264.411
243.335
223.834
206.004
189.895
175.511
162.821
151.756
142.222
134.104
127.271
121.589
116.917
113.122
110.074
107.655
105.757
104.284
103.156
102.3
101.659
101.185
100.837
100.585
100.405
100.277
100.188
100.126
100.084
100.055
100.036
100.023
100.015
100.009
100.006
100.004
100.002
100.001
100.001
100
100
100
100
100
100
100
100
100
100
100
100
100
100
100
100
100
100
100
100
100
100
100
100
100
100
100
100
100
100
100
386.932
360.953
335.435
310.669
286.918
264.411
243.335
223.834
206.004
189.895
175.511
162.821
151.756
142.222
134.104
127.271
121.589
116.917
113.122
110.074
107.655
105.757
104.284
103.156
102.3
101.659
101.185
100.837
100.585
100.405
100.277
100.188
100.126
100.084
100.055
100.036
100.023
100.015
100.009
100.006
100.004
100.002
100.001
100.001
100
100
100
100
100
100
100
100
100
100
100
100
100
100
100
100
100
100
100
100
100
100
100
100
100
100
100
100
100
100
100
386.932
360.953
335.435
310.669
286.918
264.411
243.335
223.834
206.004
189.895
175.511
162.821
151.756
142.222
134.104
127.271
121.589
116.917
113.122
110.074
107.655
105.757
104.284
103.156
102.3
101.659
101.185
100.837
100.585
100.405
100.277
100.188
100.126
100.084
100.055
100.036
100.023
100.015
100.009
100.006
100.004
100.002
100.001
100.001
100
100
100
100
100
100
100
100
100
100
100
100
100
100
100
100
100
100
100
100
100
100
100
100
100
100
100
100
100
100
100
386.932
360.953
335.435
310.669
286.918
264.411
243.335
223.834
206.004
189.895
175.511
162.821
151.756
142.222
134.104
127.271
121.589
116.917
113.122
110.074
107.655
105.757
104.284
103.156
102.3
101.659
101.185
100.837
100.585
100.405
100.277
100.188
100.126
100.084
100.055
100.036
100.023
100.015
100.009
100.006
100.004
100.002
100.001
100.001
100
100
100
100
100
100
100
100
100
100
100
100
100
100
100
100
100
100
100
100
100
100
100
100
100
100
100
100
100
100
100
386.932
360.953
335.435
310.669
286.918
264.411
243.335
223.834
206.004
189.895
175.511
162.821
151.756
142.222
134.104
127.271
121.589
116.917
113.122
110.074
107.655
105.757
104.284
103.156
102.3
101.659
101.185
100.837
100.585
100.405
100.277
100.188
100.126
100.084
100.055
100.036
100.023
100.015
100.009
100.006
100.004
100.002
100.001
100.001
100
100
100
100
100
100
100
100
100
100
100
100
100
100
100
100
100
100
100
100
100
100
100
100
100
100
100
100
100
100
100
386.932
360.953
335.435
310.669
286.918
264.411
243.335
223.834
206.004
189.895
175.511
162.821
151.756
142.222
134.104
127.271
121.589
116.917
113.122
110.074
107.655
105.757
104.284
103.156
102.3
101.659
101.185
100.837
100.585
100.405
100.277
100.188
100.126
100.084
100.055
100.036
100.023
100.015
100.009
100.006
100.004
100.002
100.001
100.001
100
100
100
100
100
100
100
100
100
100
100
100
100
100
100
100
100
100
100
100
100
100
100
100
100
100
100
100
100
100
100
386.932
360.953
335.435
310.669
286.918
264.411
243.335
223.834
206.004
189.895
175.511
162.821
151.756
142.222
134.104
127.271
121.589
116.917
113.122
110.074
107.655
105.757
104.284
103.156
102.3
101.659
101.185
100.837
100.585
100.405
100.277
100.188
100.126
100.084
100.055
100.036
100.023
100.015
100.009
100.006
100.004
100.002
100.001
100.001
100
100
100
100
100
100
100
100
100
100
100
100
100
100
100
100
100
100
100
100
100
100
100
100
100
100
100
100
100
100
100
386.932
360.953
335.435
310.669
286.918
264.411
243.335
223.834
206.004
189.895
175.511
162.821
151.756
142.222
134.104
127.271
121.589
116.917
113.122
110.074
107.655
105.757
104.284
103.156
102.3
101.659
101.185
100.837
100.585
100.405
100.277
100.188
100.126
100.084
100.055
100.036
100.023
100.015
100.009
100.006
100.004
100.002
100.001
100.001
100
100
100
100
100
100
100
100
100
100
100
100
100
100
100
100
100
100
100
100
100
100
100
100
100
100
100
100
100
100
100
386.932
360.953
335.435
310.669
286.918
264.411
243.335
223.834
206.004
189.895
175.511
162.821
151.756
142.222
134.104
127.271
121.589
116.917
113.122
110.074
107.655
105.757
104.284
103.156
102.3
101.659
101.185
100.837
100.585
100.405
100.277
100.188
100.126
100.084
100.055
100.036
100.023
100.015
100.009
100.006
100.004
100.002
100.001
100.001
100
100
100
100
100
100
100
100
100
100
100
100
100
100
100
100
100
100
100
100
100
100
100
100
100
100
100
100
100
100
100
386.932
360.953
335.435
310.669
286.918
264.411
243.335
223.834
206.004
189.895
175.511
162.821
151.756
142.222
134.104
127.271
121.589
116.917
113.122
110.074
107.655
105.757
104.284
103.156
102.3
101.659
101.185
100.837
100.585
100.405
100.277
100.188
100.126
100.084
100.055
100.036
100.023
100.015
100.009
100.006
100.004
100.002
100.001
100.001
100
100
100
100
100
100
100
100
100
100
100
100
100
100
100
100
100
100
100
100
100
100
100
100
100
100
100
100
100
100
100
386.932
360.953
335.435
310.669
286.918
264.411
243.335
223.834
206.004
189.895
175.511
162.821
151.756
142.222
134.104
127.271
121.589
116.917
113.122
110.074
107.655
105.757
104.284
103.156
102.3
101.659
101.185
100.837
100.585
100.405
100.277
100.188
100.126
100.084
100.055
100.036
100.023
100.015
100.009
100.006
100.004
100.002
100.001
100.001
100
100
100
100
100
100
100
100
100
100
100
100
100
100
100
100
100
100
100
100
100
100
100
100
100
100
100
100
100
100
100
386.932
360.953
335.435
310.669
286.918
264.411
243.335
223.834
206.004
189.895
175.511
162.821
151.756
142.222
134.104
127.271
121.589
116.917
113.122
110.074
107.655
105.757
104.284
103.156
102.3
101.659
101.185
100.837
100.585
100.405
100.277
100.188
100.126
100.084
100.055
100.036
100.023
100.015
100.009
100.006
100.004
100.002
100.001
100.001
100
100
100
100
100
100
100
100
100
100
100
100
100
100
100
100
100
100
100
100
100
100
100
100
100
100
100
100
100
100
100
386.932
360.953
335.435
310.669
286.918
264.411
243.335
223.834
206.004
189.895
175.511
162.821
151.756
142.222
134.104
127.271
121.589
116.917
113.122
110.074
107.655
105.757
104.284
103.156
102.3
101.659
101.185
100.837
100.585
100.405
100.277
100.188
100.126
100.084
100.055
100.036
100.023
100.015
100.009
100.006
100.004
100.002
100.001
100.001
100
100
100
100
100
100
100
100
100
100
100
100
100
100
100
100
100
100
100
100
100
100
100
100
100
100
100
100
100
100
100
386.932
360.953
335.435
310.669
286.918
264.411
243.335
223.834
206.004
189.895
175.511
162.821
151.756
142.222
134.104
127.271
121.589
116.917
113.122
110.074
107.655
105.757
104.284
103.156
102.3
101.659
101.185
100.837
100.585
100.405
100.277
100.188
100.126
100.084
100.055
100.036
100.023
100.015
100.009
100.006
100.004
100.002
100.001
100.001
100
100
100
100
100
100
100
100
100
100
100
100
100
100
100
100
100
100
100
100
100
100
100
100
100
100
100
100
100
100
100
386.932
360.953
335.435
310.669
286.918
264.411
243.335
223.834
206.004
189.895
175.511
162.821