/*--------------------------------*- C++ -*----------------------------------*\
  =========                 |
  \\      /  F ield         | OpenFOAM: The Open Source CFD Toolbox
   \\    /   O peration     | Website:  https://openfoam.org
    \\  /    A nd           | Version:  10
     \\/     M anipulation  |
\*---------------------------------------------------------------------------*/
FoamFile
{
    format      ascii;
    class       volScalarField;
    location    "408";
    object      T;
}
// * * * * * * * * * * * * * * * * * * * * * * * * * * * * * * * * * * * * * //

dimensions      [0 0 0 1 0 0 0];

internalField   nonuniform List<scalar> 
11250
(
249.87
167.639
139.495
127.131
120.405
116.153
113.188
110.982
109.266
107.887
106.754
105.805
105.001
104.313
103.72
103.206
102.76
102.372
102.034
101.74
101.484
101.262
101.07
100.904
100.761
100.638
100.533
100.444
100.368
100.303
100.249
100.204
100.166
100.135
100.109
100.088
100.07
100.056
100.044
100.035
100.027
100.021
100.017
100.013
100.01
100.008
100.006
100.004
100.003
100.003
100.002
100.001
100.001
100.001
100.001
100
100
100
100
100
100
100
100
100
100
100
100
100
100
100
100
100
100
100
100
331.582
248.832
202.712
175.763
158.752
147.185
138.82
132.474
127.479
123.438
120.099
117.294
114.911
112.867
111.103
109.574
108.245
107.088
106.079
105.202
104.438
103.775
103.2
102.704
102.276
101.909
101.595
101.328
101.1
100.908
100.746
100.611
100.498
100.404
100.326
100.262
100.21
100.167
100.132
100.105
100.082
100.064
100.05
100.039
100.03
100.023
100.017
100.013
100.01
100.008
100.006
100.004
100.003
100.002
100.002
100.001
100.001
100.001
100
100
100
100
100
100
100
100
100
100
100
100
100
100
100
100
100
359.21
293.409
246.78
214.486
191.693
175.058
162.483
152.668
144.799
138.351
132.974
128.431
124.55
121.211
118.322
115.811
113.625
111.719
110.056
108.607
107.346
106.251
105.301
104.48
103.772
103.164
102.644
102.201
101.824
101.506
101.238
101.013
100.825
100.67
100.541
100.435
100.348
100.277
100.22
100.173
100.136
100.107
100.083
100.064
100.05
100.038
100.029
100.022
100.017
100.013
100.009
100.007
100.005
100.004
100.003
100.002
100.001
100.001
100.001
100.001
100
100
100
100
100
100
100
100
100
100
100
100
100
100
100
371.066
318.837
276.546
243.756
218.534
198.944
183.467
171.008
160.797
152.297
145.127
139.016
133.764
129.222
125.276
121.837
118.835
116.213
113.922
111.923
110.181
108.666
107.352
106.215
105.235
104.392
103.671
103.056
102.534
102.092
101.72
101.407
101.147
100.931
100.752
100.604
100.484
100.385
100.306
100.241
100.19
100.148
100.115
100.089
100.069
100.053
100.04
100.031
100.023
100.017
100.013
100.01
100.007
100.005
100.004
100.003
100.002
100.002
100.001
100.001
100.001
100
100
100
100
100
100
100
100
100
100
100
100
100
100
377.293
334.354
296.86
265.526
239.827
218.816
201.549
187.226
175.222
165.058
156.375
148.901
142.429
136.798
131.883
127.585
123.821
120.525
117.64
115.118
112.917
111.001
109.337
107.896
106.653
105.585
104.669
103.888
103.224
102.662
102.189
101.792
101.461
101.185
100.957
100.77
100.616
100.491
100.389
100.307
100.242
100.189
100.147
100.114
100.088
100.067
100.051
100.039
100.03
100.022
100.017
100.012
100.009
100.007
100.005
100.004
100.003
100.002
100.001
100.001
100.001
100.001
100
100
100
100
100
100
100
100
100
100
100
100
100
381.059
344.465
311.075
281.748
256.537
235.072
216.83
201.288
187.981
176.525
166.609
157.985
150.457
143.864
138.08
132.999
128.536
124.616
121.177
118.164
115.532
113.236
111.241
109.511
108.017
106.732
105.63
104.69
103.89
103.213
102.642
102.164
101.764
101.432
101.157
100.93
100.745
100.593
100.471
100.372
100.292
100.228
100.178
100.138
100.106
100.081
100.062
100.047
100.036
100.027
100.02
100.015
100.011
100.008
100.006
100.004
100.003
100.002
100.002
100.001
100.001
100.001
100
100
100
100
100
100
100
100
100
100
100
100
100
383.552
351.416
321.303
293.955
269.632
248.259
229.589
213.309
199.101
186.677
175.787
166.219
157.796
150.371
143.821
138.042
132.946
128.456
124.508
121.042
118.007
115.357
113.05
111.048
109.318
107.827
106.549
105.457
104.528
103.741
103.077
102.52
102.055
101.668
101.348
101.084
100.868
100.692
100.549
100.433
100.341
100.266
100.207
100.161
100.124
100.095
100.073
100.055
100.042
100.031
100.024
100.018
100.013
100.01
100.007
100.005
100.004
100.003
100.002
100.001
100.001
100.001
100.001
100
100
100
100
100
100
100
100
100
100
100
100
385.302
356.398
328.851
303.26
279.927
258.923
240.165
223.486
208.686
195.561
183.92
173.593
164.428
156.296
149.082
142.688
137.028
132.026
127.615
123.734
120.329
117.351
114.754
112.499
110.547
108.865
107.42
106.185
105.134
104.243
103.492
102.86
102.333
101.894
101.531
101.232
100.986
100.786
100.624
100.493
100.387
100.303
100.236
100.183
100.141
100.108
100.083
100.063
100.047
100.036
100.027
100.02
100.015
100.011
100.008
100.006
100.004
100.003
100.002
100.002
100.001
100.001
100.001
100
100
100
100
100
100
100
100
100
100
100
100
386.581
360.082
334.546
310.442
288.066
267.548
248.898
232.046
216.879
203.261
191.055
180.129
170.359
161.634
153.853
146.926
140.77
135.312
130.486
126.229
122.488
119.209
116.347
113.858
111.701
109.839
108.24
106.871
105.706
104.717
103.883
103.182
102.596
102.108
101.704
101.372
101.099
100.876
100.695
100.549
100.432
100.338
100.263
100.204
100.157
100.121
100.092
100.07
100.053
100.04
100.03
100.022
100.017
100.012
100.009
100.007
100.005
100.003
100.002
100.002
100.001
100.001
100.001
100
100
100
100
100
100
100
100
100
100
100
100
387.541
362.873
338.918
316.051
294.539
274.533
256.094
239.214
223.838
209.885
197.262
185.871
175.615
166.401
158.142
150.756
144.169
138.311
133.116
128.524
124.478
120.928
117.823
115.119
112.774
110.748
109.005
107.513
106.241
105.162
104.25
103.484
102.843
102.31
101.868
101.503
101.204
100.96
100.762
100.602
100.473
100.37
100.288
100.224
100.172
100.132
100.101
100.077
100.058
100.044
100.033
100.024
100.018
100.013
100.01
100.007
100.005
100.004
100.003
100.002
100.001
100.001
100.001
100
100
100
100
100
100
100
100
100
100
100
100
388.279
365.026
342.323
320.476
299.718
280.205
262.021
245.198
229.721
215.55
202.626
190.879
180.236
170.622
161.964
154.19
147.232
141.024
135.505
130.615
126.299
122.504
119.181
116.282
113.765
111.588
109.714
108.108
106.739
105.575
104.593
103.766
103.074
102.498
102.021
101.627
101.304
101.04
100.825
100.652
100.513
100.401
100.313
100.242
100.187
100.143
100.11
100.083
100.063
100.047
100.036
100.027
100.02
100.015
100.011
100.008
100.006
100.004
100.003
100.002
100.002
100.001
100.001
100.001
100
100
100
100
100
100
100
100
100
100
100
388.853
366.709
345.005
323.995
303.883
284.82
266.903
250.184
234.677
220.371
207.233
195.217
184.27
174.332
165.344
157.244
149.969
143.46
137.658
132.507
127.951
123.938
120.419
117.345
114.673
112.36
110.367
108.657
107.198
105.958
104.909
104.027
103.288
102.673
102.162
101.741
101.396
101.113
100.884
100.699
100.549
100.43
100.335
100.26
100.2
100.154
100.118
100.089
100.068
100.051
100.038
100.028
100.021
100.016
100.011
100.008
100.006
100.004
100.003
100.002
100.002
100.001
100.001
100.001
100
100
100
100
100
100
100
100
100
100
100
389.305
368.04
347.137
326.813
307.248
288.585
270.925
254.332
238.84
224.457
211.17
198.953
187.769
177.572
168.313
159.94
152.397
145.631
139.585
134.205
129.439
125.234
121.541
118.311
115.5
113.064
110.963
109.159
107.618
106.309
105.2
104.267
103.486
102.834
102.293
101.847
101.481
101.182
100.938
100.742
100.583
100.457
100.356
100.276
100.213
100.163
100.125
100.095
100.072
100.054
100.041
100.03
100.022
100.017
100.012
100.009
100.006
100.005
100.003
100.002
100.002
100.001
100.001
100.001
100
100
100
100
100
100
100
100
100
100
100
389.665
369.1
348.843
329.081
309.977
291.662
274.239
257.779
242.328
227.908
214.521
202.156
190.787
180.384
170.904
162.305
154.537
147.552
141.296
135.72
130.77
126.396
122.55
119.182
116.247
113.701
111.503
109.615
108.001
106.628
105.466
104.487
103.666
102.981
102.413
101.944
101.559
101.244
100.988
100.781
100.615
100.481
100.375
100.291
100.224
100.172
100.132
100.1
100.076
100.057
100.043
100.032
100.024
100.017
100.013
100.009
100.007
100.005
100.004
100.003
100.002
100.001
100.001
100.001
100
100
100
100
100
100
100
100
100
100
100
389.953
369.951
350.216
330.915
312.195
294.18
276.97
260.641
245.244
230.813
217.361
204.887
193.378
182.81
173.152
164.366
156.411
149.24
142.807
137.06
131.952
127.432
123.451
119.961
116.917
114.274
111.99
110.027
108.348
106.918
105.707
104.686
103.83
103.116
102.523
102.033
101.631
101.302
101.034
100.818
100.643
100.504
100.393
100.305
100.235
100.181
100.138
100.105
100.079
100.06
100.045
100.033
100.025
100.018
100.013
100.01
100.007
100.005
100.004
100.003
100.002
100.001
100.001
100.001
100
100
100
100
100
100
100
100
100
100
100
390.185
370.636
351.325
332.403
314.003
296.243
279.221
263.013
247.677
233.252
219.759
207.207
195.59
184.893
175.091
166.153
158.042
150.716
144.131
138.24
132.995
128.348
124.25
120.654
117.514
114.786
112.426
110.396
108.658
107.178
105.923
104.865
103.978
103.237
102.622
102.113
101.695
101.354
101.076
100.851
100.669
100.524
100.409
100.317
100.245
100.188
100.144
100.109
100.083
100.062
100.047
100.035
100.026
100.019
100.014
100.01
100.007
100.005
100.004
100.003
100.002
100.001
100.001
100.001
100
100
100
100
100
100
100
100
100
100
100
390.372
371.189
352.223
333.611
315.478
297.934
281.075
264.978
249.703
235.293
221.778
209.17
197.471
186.672
176.755
167.692
159.452
151.997
145.285
139.271
133.91
129.154
124.955
121.267
118.043
115.24
112.814
110.725
108.936
107.411
106.117
105.026
104.111
103.346
102.711
102.185
101.754
101.401
101.113
100.88
100.693
100.543
100.423
100.328
100.253
100.195
100.149
100.113
100.086
100.065
100.048
100.036
100.027
100.02
100.015
100.011
100.008
100.006
100.004
100.003
100.002
100.001
100.001
100.001
100.001
100
100
100
100
100
100
100
100
100
100
390.523
371.638
352.953
334.595
316.682
299.32
282.601
266.602
251.386
236.998
223.471
210.824
199.063
188.185
178.175
169.012
160.666
153.103
146.284
140.167
134.707
129.858
125.572
121.805
118.509
115.64
113.156
111.016
109.182
107.617
106.29
105.17
104.229
103.443
102.79
102.25
101.806
101.443
101.147
100.907
100.714
100.56
100.436
100.338
100.261
100.201
100.154
100.117
100.088
100.067
100.05
100.037
100.028
100.02
100.015
100.011
100.008
100.006
100.004
100.003
100.002
100.002
100.001
100.001
100.001
100
100
100
100
100
100
100
100
100
100
390.646
372.002
353.545
335.395
317.665
300.455
283.856
267.944
252.781
238.417
224.887
212.213
200.406
189.466
179.383
170.138
161.705
154.053
147.146
140.941
135.398
130.469
126.11
122.274
118.916
115.991
113.457
111.272
109.398
107.799
106.442
105.296
104.334
103.529
102.861
102.307
101.852
101.48
101.177
100.931
100.733
100.574
100.448
100.348
100.268
100.206
100.158
100.12
100.091
100.068
100.051
100.038
100.028
100.021
100.015
100.011
100.008
100.006
100.004
100.003
100.002
100.002
100.001
100.001
100.001
100
100
100
100
100
100
100
100
100
100
390.746
372.297
354.027
336.048
318.468
301.385
284.887
269.049
253.935
239.595
226.067
213.375
201.534
190.546
180.404
171.093
162.59
154.865
147.883
141.606
135.992
130.997
126.575
122.681
119.27
116.297
113.719
111.496
109.588
107.959
106.576
105.408
104.426
103.605
102.923
102.358
101.893
101.513
101.203
100.952
100.75
100.588
100.458
100.356
100.275
100.211
100.161
100.123
100.093
100.07
100.053
100.039
100.029
100.022
100.016
100.012
100.008
100.006
100.004
100.003
100.002
100.002
100.001
100.001
100.001
100
100
100
100
100
100
100
100
100
100
390.827
372.537
354.418
336.579
319.123
302.145
285.732
269.958
254.888
240.571
227.047
214.344
202.477
191.452
181.264
171.9
163.339
155.554
148.512
142.175
136.502
131.451
126.976
123.033
119.576
116.562
113.947
111.69
109.753
108.098
106.693
105.505
104.507
103.672
102.977
102.403
101.93
101.542
101.227
100.971
100.765
100.599
100.467
100.363
100.28
100.215
100.165
100.125
100.095
100.072
100.054
100.04
100.03
100.022
100.016
100.012
100.009
100.006
100.004
100.003
100.002
100.002
100.001
100.001
100.001
100
100
100
100
100
100
100
100
100
100
390.892
372.732
354.736
337.011
319.657
302.766
286.424
270.705
255.672
241.376
227.859
215.148
203.263
192.209
181.985
172.579
163.971
156.137
149.045
142.658
136.936
131.838
127.319
123.334
119.839
116.789
114.143
111.858
109.896
108.219
106.794
105.59
104.577
103.73
103.025
102.442
101.961
101.568
101.247
100.987
100.778
100.61
100.475
100.369
100.285
100.219
100.168
100.128
100.097
100.073
100.055
100.041
100.03
100.022
100.016
100.012
100.009
100.006
100.005
100.003
100.002
100.002
100.001
100.001
100.001
100
100
100
100
100
100
100
100
100
100
390.945
372.89
354.994
337.362
320.091
303.272
286.99
271.316
256.315
242.039
228.529
215.815
203.915
192.839
182.587
173.147
164.502
156.628
149.495
143.066
137.304
132.167
127.61
123.591
120.063
116.984
114.311
112.002
110.018
108.323
106.882
105.663
104.638
103.78
103.066
102.475
101.988
101.59
101.265
101.001
100.789
100.618
100.483
100.375
100.289
100.222
100.17
100.13
100.098
100.074
100.055
100.041
100.031
100.023
100.017
100.012
100.009
100.006
100.005
100.003
100.002
100.002
100.001
100.001
100.001
100
100
100
100
100
100
100
100
100
100
390.988
373.018
355.203
337.647
320.444
303.684
287.451
271.816
256.842
242.583
229.08
216.364
204.455
193.362
183.087
173.62
164.945
157.039
149.872
143.41
137.614
132.444
127.857
123.808
120.254
117.15
114.454
112.125
110.123
108.412
106.957
105.726
104.69
103.823
103.102
102.504
102.012
101.609
101.28
101.014
100.799
100.626
100.489
100.379
100.293
100.225
100.172
100.131
100.099
100.075
100.056
100.042
100.031
100.023
100.017
100.012
100.009
100.007
100.005
100.003
100.002
100.002
100.001
100.001
100.001
100
100
100
100
100
100
100
100
100
100
391.023
373.121
355.373
337.877
320.73
304.019
287.826
272.223
257.273
243.029
229.533
216.816
204.899
193.794
183.501
174.013
165.314
157.381
150.187
143.697
137.874
132.678
128.065
123.992
120.415
117.291
114.576
112.23
110.212
108.488
107.021
105.779
104.735
103.86
103.132
102.529
102.032
101.625
101.293
101.024
100.807
100.633
100.494
100.383
100.296
100.228
100.174
100.133
100.101
100.076
100.057
100.042
100.032
100.023
100.017
100.013
100.009
100.007
100.005
100.003
100.002
100.002
100.001
100.001
100.001
100
100
100
100
100
100
100
100
100
100
391.051
373.204
355.509
338.064
320.961
304.29
288.13
272.553
257.623
243.392
229.902
217.186
205.264
194.149
183.842
174.337
165.619
157.665
150.449
143.937
138.091
132.873
128.239
124.146
120.551
117.409
114.678
112.318
110.288
108.552
107.075
105.825
104.773
103.892
103.158
102.55
102.05
101.639
101.305
101.033
100.814
100.639
100.498
100.387
100.299
100.23
100.176
100.134
100.101
100.077
100.057
100.043
100.032
100.024
100.017
100.013
100.009
100.007
100.005
100.003
100.002
100.002
100.001
100.001
100.001
100
100
100
100
100
100
100
100
100
100
391.074
373.272
355.619
338.214
321.148
304.509
288.376
272.821
257.907
243.687
230.203
217.487
205.562
194.439
184.122
174.604
165.87
157.9
150.666
144.135
138.272
133.035
128.384
124.275
120.664
117.508
114.764
112.392
110.351
108.606
107.12
105.863
104.805
103.918
103.18
102.568
102.064
101.651
101.314
101.041
100.82
100.643
100.502
100.39
100.301
100.232
100.177
100.135
100.102
100.077
100.058
100.043
100.032
100.024
100.017
100.013
100.009
100.007
100.005
100.003
100.002
100.002
100.001
100.001
100.001
100
100
100
100
100
100
100
100
100
100
391.092
373.326
355.708
338.335
321.298
304.685
288.574
273.037
258.137
243.926
230.447
217.733
205.805
194.677
184.351
174.822
166.076
158.092
150.844
144.299
138.42
133.17
128.504
124.382
120.758
117.59
114.836
112.454
110.404
108.651
107.159
105.895
104.832
103.941
103.199
102.584
102.077
101.661
101.322
101.047
100.826
100.648
100.505
100.393
100.303
100.233
100.179
100.136
100.103
100.078
100.058
100.044
100.032
100.024
100.018
100.013
100.009
100.007
100.005
100.004
100.003
100.002
100.001
100.001
100.001
100
100
100
100
100
100
100
100
100
100
391.106
373.369
355.779
338.431
321.419
304.826
288.734
273.212
258.322
244.119
230.644
217.931
206.002
194.869
184.537
175
166.244
158.25
150.99
144.433
138.543
133.28
128.603
124.47
120.836
117.659
114.895
112.505
110.449
108.689
107.191
105.922
104.854
103.959
103.214
102.596
102.087
101.67
101.329
101.053
100.83
100.651
100.508
100.395
100.305
100.235
100.18
100.137
100.104
100.078
100.059
100.044
100.033
100.024
100.018
100.013
100.009
100.007
100.005
100.004
100.003
100.002
100.001
100.001
100.001
100
100
100
100
100
100
100
100
100
100
391.118
373.403
355.835
338.509
321.515
304.94
288.861
273.351
258.471
244.274
230.803
218.091
206.161
195.025
184.688
175.144
166.381
158.378
151.109
144.543
138.643
133.371
128.685
124.542
120.9
117.715
114.944
112.548
110.485
108.72
107.217
105.945
104.873
103.975
103.227
102.607
102.096
101.677
101.335
101.057
100.834
100.654
100.51
100.397
100.306
100.236
100.18
100.137
100.104
100.079
100.059
100.044
100.033
100.024
100.018
100.013
100.009
100.007
100.005
100.004
100.003
100.002
100.001
100.001
100.001
100
100
100
100
100
100
100
100
100
100
391.127
373.431
355.88
338.571
321.592
305.03
288.964
273.463
258.59
244.399
230.931
218.22
206.289
195.151
184.81
175.261
166.492
158.482
151.206
144.632
138.724
133.445
128.751
124.602
120.953
117.761
114.985
112.582
110.515
108.745
107.239
105.963
104.888
103.988
103.238
102.616
102.103
101.683
101.34
101.061
100.837
100.656
100.512
100.398
100.308
100.237
100.181
100.138
100.105
100.079
100.059
100.044
100.033
100.024
100.018
100.013
100.01
100.007
100.005
100.004
100.003
100.002
100.001
100.001
100.001
100
100
100
100
100
100
100
100
100
100
391.135
373.453
355.916
338.62
321.653
305.102
289.045
273.552
258.685
244.498
231.033
218.323
206.391
195.252
184.908
175.355
166.581
158.566
151.284
144.704
138.791
133.505
128.805
124.65
120.995
117.799
115.018
112.611
110.54
108.766
107.257
105.978
104.901
103.998
103.246
102.623
102.109
101.687
101.343
101.064
100.839
100.658
100.514
100.399
100.309
100.237
100.182
100.138
100.105
100.079
100.059
100.044
100.033
100.024
100.018
100.013
100.01
100.007
100.005
100.004
100.003
100.002
100.001
100.001
100.001
100
100
100
100
100
100
100
100
100
100
391.14
373.47
355.945
338.658
321.702
305.159
289.109
273.623
258.761
244.577
231.114
218.405
206.473
195.332
184.986
175.43
166.653
158.634
151.347
144.762
138.844
133.553
128.849
124.689
121.03
117.829
115.044
112.634
110.56
108.784
107.271
105.99
104.911
104.007
103.254
102.629
102.114
101.691
101.347
101.067
100.841
100.66
100.515
100.4
100.309
100.238
100.182
100.139
100.105
100.079
100.06
100.044
100.033
100.024
100.018
100.013
100.01
100.007
100.005
100.004
100.003
100.002
100.001
100.001
100.001
100
100
100
100
100
100
100
100
100
100
391.145
373.483
355.967
338.689
321.74
305.204
289.16
273.678
258.821
244.64
231.179
218.47
206.538
195.396
185.048
175.49
166.71
158.687
151.397
144.809
138.887
133.592
128.884
124.72
121.058
117.854
115.066
112.653
110.576
108.797
107.283
106
104.92
104.014
103.259
102.634
102.118
101.695
101.349
101.069
100.843
100.661
100.516
100.401
100.31
100.239
100.183
100.139
100.105
100.079
100.06
100.045
100.033
100.024
100.018
100.013
100.01
100.007
100.005
100.004
100.003
100.002
100.001
100.001
100.001
100
100
100
100
100
100
100
100
100
100
391.149
373.494
355.984
338.713
321.77
305.24
289.2
273.723
258.868
244.689
231.229
218.522
206.59
195.447
185.098
175.538
166.755
158.73
151.438
144.846
138.921
133.623
128.912
124.745
121.08
117.874
115.083
112.668
110.589
108.809
107.293
106.008
104.927
104.02
103.264
102.638
102.121
101.697
101.351
101.071
100.844
100.662
100.517
100.402
100.311
100.239
100.183
100.139
100.106
100.08
100.06
100.045
100.033
100.025
100.018
100.013
100.01
100.007
100.005
100.004
100.003
100.002
100.001
100.001
100.001
100
100
100
100
100
100
100
100
100
100
391.151
373.503
355.998
338.732
321.794
305.268
289.232
273.757
258.905
244.728
231.269
218.563
206.631
195.487
185.137
175.576
166.791
158.764
151.469
144.876
138.948
133.648
128.934
124.765
121.098
117.889
115.097
112.68
110.599
108.818
107.3
106.015
104.932
104.024
103.268
102.641
102.124
101.699
101.353
101.072
100.845
100.663
100.518
100.402
100.311
100.239
100.183
100.14
100.106
100.08
100.06
100.045
100.033
100.025
100.018
100.013
100.01
100.007
100.005
100.004
100.003
100.002
100.001
100.001
100.001
100
100
100
100
100
100
100
100
100
100
391.154
373.509
356.009
338.747
321.812
305.289
289.257
273.784
258.934
244.758
231.301
218.594
206.662
195.519
185.168
175.605
166.82
158.791
151.494
144.899
138.969
133.667
128.952
124.781
121.112
117.902
115.108
112.69
110.608
108.825
107.306
106.02
104.936
104.028
103.271
102.643
102.126
101.701
101.355
101.073
100.846
100.664
100.518
100.403
100.311
100.24
100.183
100.14
100.106
100.08
100.06
100.045
100.033
100.025
100.018
100.013
100.01
100.007
100.005
100.004
100.003
100.002
100.001
100.001
100.001
100
100
100
100
100
100
100
100
100
100
391.155
373.514
356.017
338.758
321.826
305.306
289.276
273.805
258.956
244.782
231.325
218.619
206.687
195.543
185.192
175.629
166.842
158.812
151.514
144.917
138.986
133.683
128.966
124.794
121.124
117.912
115.117
112.697
110.614
108.831
107.311
106.024
104.94
104.031
103.274
102.645
102.127
101.702
101.356
101.074
100.847
100.665
100.519
100.403
100.312
100.24
100.184
100.14
100.106
100.08
100.06
100.045
100.033
100.025
100.018
100.013
100.01
100.007
100.005
100.004
100.003
100.002
100.001
100.001
100.001
100
100
100
100
100
100
100
100
100
100
391.157
373.518
356.024
338.767
321.837
305.319
289.291
273.822
258.974
244.801
231.344
218.639
206.707
195.562
185.211
175.647
166.859
158.829
151.53
144.932
138.999
133.695
128.977
124.804
121.132
117.92
115.124
112.703
110.62
108.835
107.315
106.028
104.943
104.033
103.275
102.647
102.129
101.703
101.357
101.075
100.848
100.665
100.519
100.403
100.312
100.24
100.184
100.14
100.106
100.08
100.06
100.045
100.033
100.025
100.018
100.013
100.01
100.007
100.005
100.004
100.003
100.002
100.001
100.001
100.001
100
100
100
100
100
100
100
100
100
100
391.158
373.521
356.029
338.774
321.846
305.329
289.302
273.834
258.987
244.815
231.359
218.654
206.722
195.577
185.225
175.661
166.873
158.841
151.542
144.943
139.01
133.704
128.986
124.812
121.139
117.926
115.129
112.708
110.624
108.839
107.318
106.03
104.945
104.035
103.277
102.648
102.13
101.704
101.357
101.076
100.848
100.665
100.52
100.404
100.312
100.24
100.184
100.14
100.106
100.08
100.06
100.045
100.033
100.025
100.018
100.013
100.01
100.007
100.005
100.004
100.003
100.002
100.001
100.001
100.001
100
100
100
100
100
100
100
100
100
100
391.158
373.523
356.033
338.779
321.852
305.337
289.311
273.844
258.998
244.826
231.37
218.665
206.733
195.589
185.236
175.672
166.883
158.851
151.551
144.951
139.018
133.712
128.992
124.818
121.145
117.931
115.133
112.712
110.627
108.841
107.321
106.032
104.947
104.037
103.278
102.649
102.131
101.705
101.358
101.076
100.848
100.666
100.52
100.404
100.312
100.24
100.184
100.14
100.106
100.08
100.06
100.045
100.033
100.025
100.018
100.013
100.01
100.007
100.005
100.004
100.003
100.002
100.001
100.001
100.001
100
100
100
100
100
100
100
100
100
100
391.159
373.525
356.035
338.783
321.857
305.343
289.318
273.851
259.006
244.834
231.379
218.674
206.742
195.598
185.245
175.68
166.891
158.859
151.558
144.958
139.024
133.717
128.997
124.822
121.149
117.934
115.137
112.715
110.629
108.844
107.322
106.034
104.948
104.038
103.279
102.65
102.131
101.706
101.358
101.076
100.849
100.666
100.52
100.404
100.312
100.24
100.184
100.14
100.106
100.08
100.06
100.045
100.033
100.025
100.018
100.013
100.01
100.007
100.005
100.004
100.003
100.002
100.001
100.001
100.001
100
100
100
100
100
100
100
100
100
100
391.159
373.527
356.038
338.786
321.861
305.348
289.323
273.857
259.012
244.841
231.386
218.681
206.749
195.604
185.252
175.687
166.897
158.865
151.564
144.963
139.029
133.722
129.001
124.826
121.152
117.937
115.139
112.717
110.631
108.845
107.324
106.035
104.949
104.039
103.28
102.651
102.132
101.706
101.359
101.077
100.849
100.666
100.52
100.404
100.312
100.24
100.184
100.14
100.106
100.08
100.06
100.045
100.033
100.025
100.018
100.013
100.01
100.007
100.005
100.004
100.003
100.002
100.001
100.001
100.001
100
100
100
100
100
100
100
100
100
100
391.16
373.528
356.039
338.788
321.864
305.351
289.327
273.861
259.017
244.845
231.391
218.686
206.754
195.61
185.257
175.691
166.902
158.869
151.568
144.967
139.032
133.725
129.004
124.829
121.155
117.939
115.141
112.719
110.633
108.846
107.325
106.036
104.95
104.039
103.28
102.651
102.132
101.706
101.359
101.077
100.849
100.666
100.52
100.404
100.313
100.24
100.184
100.14
100.106
100.08
100.06
100.045
100.033
100.025
100.018
100.013
100.01
100.007
100.005
100.004
100.003
100.002
100.001
100.001
100.001
100
100
100
100
100
100
100
100
100
100
391.16
373.528
356.041
338.79
321.866
305.354
289.33
273.864
259.02
244.849
231.395
218.69
206.758
195.613
185.261
175.695
166.906
158.873
151.571
144.97
139.035
133.727
129.007
124.831
121.156
117.941
115.142
112.72
110.634
108.847
107.326
106.037
104.95
104.04
103.281
102.651
102.132
101.706
101.359
101.077
100.849
100.666
100.52
100.404
100.313
100.24
100.184
100.14
100.106
100.08
100.06
100.045
100.033
100.025
100.018
100.013
100.01
100.007
100.005
100.004
100.003
100.002
100.001
100.001
100.001
100
100
100
100
100
100
100
100
100
100
391.16
373.529
356.042
338.791
321.868
305.356
289.332
273.867
259.023
244.852
231.397
218.693
206.761
195.616
185.263
175.698
166.908
158.875
151.574
144.972
139.037
133.729
129.009
124.832
121.158
117.942
115.144
112.721
110.635
108.848
107.326
106.037
104.951
104.04
103.281
102.652
102.133
101.707
101.359
101.077
100.849
100.666
100.52
100.404
100.313
100.241
100.184
100.14
100.106
100.08
100.06
100.045
100.033
100.025
100.018
100.013
100.01
100.007
100.005
100.004
100.003
100.002
100.001
100.001
100.001
100
100
100
100
100
100
100
100
100
100
391.16
373.529
356.042
338.792
321.869
305.357
289.333
273.869
259.025
244.854
231.4
218.695
206.763
195.619
185.266
175.7
166.91
158.877
151.575
144.974
139.039
133.731
129.01
124.833
121.159
117.943
115.144
112.722
110.635
108.849
107.327
106.038
104.951
104.041
103.281
102.652
102.133
101.707
101.359
101.077
100.849
100.667
100.52
100.404
100.313
100.241
100.184
100.14
100.106
100.08
100.06
100.045
100.033
100.025
100.018
100.013
100.01
100.007
100.005
100.004
100.003
100.002
100.001
100.001
100.001
100
100
100
100
100
100
100
100
100
100
391.161
373.53
356.043
338.793
321.87
305.358
289.335
273.87
259.026
244.856
231.401
218.697
206.765
195.62
185.267
175.702
166.912
158.879
151.577
144.975
139.04
133.732
129.011
124.834
121.16
117.944
115.145
112.722
110.636
108.849
107.327
106.038
104.951
104.041
103.282
102.652
102.133
101.707
101.359
101.077
100.849
100.667
100.52
100.404
100.313
100.241
100.184
100.14
100.106
100.08
100.06
100.045
100.033
100.025
100.018
100.013
100.01
100.007
100.005
100.004
100.003
100.002
100.001
100.001
100.001
100
100
100
100
100
100
100
100
100
100
391.161
373.53
356.043
338.794
321.871
305.359
289.336
273.871
259.027
244.857
231.402
218.698
206.766
195.622
185.268
175.703
166.913
158.88
151.578
144.976
139.041
133.733
129.012
124.835
121.16
117.945
115.146
112.723
110.636
108.85
107.328
106.038
104.952
104.041
103.282
102.652
102.133
101.707
101.359
101.077
100.85
100.667
100.521
100.404
100.313
100.241
100.184
100.14
100.106
100.08
100.06
100.045
100.033
100.025
100.018
100.013
100.01
100.007
100.005
100.004
100.003
100.002
100.001
100.001
100.001
100
100
100
100
100
100
100
100
100
100
391.161
373.53
356.044
338.794
321.871
305.36
289.336
273.872
259.028
244.858
231.403
218.699
206.767
195.622
185.269
175.704
166.914
158.881
151.579
144.977
139.042
133.733
129.012
124.836
121.161
117.945
115.146
112.723
110.637
108.85
107.328
106.038
104.952
104.041
103.282
102.652
102.133
101.707
101.359
101.077
100.85
100.667
100.521
100.404
100.313
100.241
100.184
100.14
100.106
100.08
100.06
100.045
100.033
100.025
100.018
100.013
100.01
100.007
100.005
100.004
100.003
100.002
100.001
100.001
100.001
100
100
100
100
100
100
100
100
100
100
391.161
373.53
356.044
338.794
321.872
305.36
289.337
273.872
259.029
244.858
231.404
218.699
206.768
195.623
185.27
175.704
166.915
158.881
151.579
144.978
139.042
133.734
129.013
124.836
121.161
117.945
115.146
112.723
110.637
108.85
107.328
106.039
104.952
104.041
103.282
102.652
102.133
101.707
101.36
101.077
100.85
100.667
100.521
100.404
100.313
100.241
100.184
100.14
100.106
100.08
100.06
100.045
100.033
100.025
100.018
100.013
100.01
100.007
100.005
100.004
100.003
100.002
100.001
100.001
100.001
100
100
100
100
100
100
100
100
100
100
391.161
373.53
356.044
338.795
321.872
305.36
289.337
273.873
259.029
244.859
231.405
218.7
206.768
195.624
185.27
175.705
166.915
158.882
151.579
144.978
139.042
133.734
129.013
124.836
121.161
117.945
115.146
112.723
110.637
108.85
107.328
106.039
104.952
104.041
103.282
102.652
102.133
101.707
101.36
101.077
100.85
100.667
100.521
100.404
100.313
100.241
100.184
100.14
100.106
100.08
100.06
100.045
100.033
100.025
100.018
100.013
100.01
100.007
100.005
100.004
100.003
100.002
100.001
100.001
100.001
100
100
100
100
100
100
100
100
100
100
391.161
373.53
356.044
338.795
321.872
305.361
289.337
273.873
259.03
244.859
231.405
218.7
206.769
195.624
185.271
175.705
166.915
158.882
151.58
144.978
139.043
133.734
129.013
124.836
121.162
117.946
115.147
112.723
110.637
108.85
107.328
106.039
104.952
104.041
103.282
102.652
102.133
101.707
101.36
101.077
100.85
100.667
100.521
100.404
100.313
100.241
100.184
100.14
100.106
100.08
100.06
100.045
100.033
100.025
100.018
100.013
100.01
100.007
100.005
100.004
100.003
100.002
100.001
100.001
100.001
100
100
100
100
100
100
100
100
100
100
391.161
373.531
356.044
338.795
321.872
305.361
289.338
273.873
259.03
244.859
231.405
218.701
206.769
195.624
185.271
175.706
166.916
158.882
151.58
144.979
139.043
133.735
129.013
124.837
121.162
117.946
115.147
112.723
110.637