/*--------------------------------*- C++ -*----------------------------------*\
  =========                 |
  \\      /  F ield         | OpenFOAM: The Open Source CFD Toolbox
   \\    /   O peration     | Website:  https://openfoam.org
    \\  /    A nd           | Version:  10
     \\/     M anipulation  |
\*---------------------------------------------------------------------------*/
FoamFile
{
    format      ascii;
    class       volScalarField;
    location    "165";
    object      T;
}
// * * * * * * * * * * * * * * * * * * * * * * * * * * * * * * * * * * * * * //

dimensions      [0 0 0 1 0 0 0];

internalField   nonuniform List<scalar> 
11250
(
249.677
167.067
138.56
125.858
118.829
114.316
111.137
108.766
106.935
105.492
104.34
103.416
102.673
102.078
101.603
101.226
100.929
100.697
100.519
100.382
100.278
100.2
100.143
100.101
100.07
100.048
100.033
100.022
100.015
100.01
100.006
100.004
100.003
100.002
100.001
100.001
100
100
100
100
100
100
100
100
100
100
100
100
100
100
100
100
100
100
100
100
100
100
100
100
100
100
100
100
100
100
100
100
100
100
100
100
100
100
100
331.006
247.122
199.915
171.957
154.041
141.693
132.687
125.847
120.51
116.275
112.88
110.148
107.948
106.182
104.77
103.65
102.767
102.078
101.545
101.138
100.829
100.597
100.426
100.3
100.21
100.145
100.099
100.067
100.044
100.029
100.019
100.012
100.008
100.005
100.003
100.002
100.001
100.001
100
100
100
100
100
100
100
100
100
100
100
100
100
100
100
100
100
100
100
100
100
100
100
100
100
100
100
100
100
100
100
100
100
100
100
100
100
358.257
290.576
242.147
208.183
183.89
165.962
152.324
141.692
133.256
126.485
121.017
116.592
113.016
110.135
107.829
105.995
104.548
103.418
102.543
101.872
101.364
100.984
100.702
100.495
100.345
100.238
100.163
100.11
100.073
100.048
100.031
100.02
100.013
100.008
100.005
100.003
100.002
100.001
100.001
100
100
100
100
100
100
100
100
100
100
100
100
100
100
100
100
100
100
100
100
100
100
100
100
100
100
100
100
100
100
100
100
100
100
100
100
369.744
314.907
270.121
235.014
207.712
186.327
169.376
155.783
144.784
135.836
128.538
122.592
117.76
113.853
110.715
108.214
106.238
104.691
103.492
102.573
101.876
101.353
100.965
100.681
100.475
100.328
100.224
100.151
100.101
100.066
100.043
100.028
100.018
100.011
100.007
100.004
100.003
100.002
100.001
100.001
100
100
100
100
100
100
100
100
100
100
100
100
100
100
100
100
100
100
100
100
100
100
100
100
100
100
100
100
100
100
100
100
100
100
100
375.614
329.365
288.701
254.424
226.083
202.793
183.652
167.888
154.882
144.148
135.301
128.034
122.094
117.269
113.38
110.271
107.809
105.878
104.38
103.229
102.356
101.7
101.213
100.857
100.598
100.413
100.282
100.19
100.127
100.084
100.055
100.035
100.022
100.014
100.009
100.005
100.003
100.002
100.001
100.001
100
100
100
100
100
100
100
100
100
100
100
100
100
100
100
100
100
100
100
100
100
100
100
100
100
100
100
100
100
100
100
100
100
100
100
379.038
338.459
301.254
268.383
239.993
215.783
195.285
178.006
163.491
151.346
141.231
132.854
125.964
120.34
115.788
112.138
109.241
106.963
105.193
103.832
102.798
102.02
101.443
101.019
100.712
100.492
100.336
100.227
100.151
100.1
100.065
100.042
100.027
100.017
100.011
100.006
100.004
100.002
100.001
100.001
100
100
100
100
100
100
100
100
100
100
100
100
100
100
100
100
100
100
100
100
100
100
100
100
100
100
100
100
100
100
100
100
100
100
100
381.206
344.445
309.903
278.443
250.427
225.868
204.578
186.279
170.667
157.44
146.316
137.031
129.347
123.043
117.921
113.801
110.521
107.938
105.926
104.377
103.197
102.31
101.651
101.167
100.815
100.563
100.385
100.26
100.174
100.115
100.075
100.048
100.031
100.019
100.012
100.007
100.005
100.003
100.002
100.001
100.001
100
100
100
100
100
100
100
100
100
100
100
100
100
100
100
100
100
100
100
100
100
100
100
100
100
100
100
100
100
100
100
100
100
100
382.651
348.519
315.967
285.726
258.219
233.612
211.89
192.927
176.536
162.499
150.59
140.58
132.246
125.378
119.775
115.254
111.645
108.796
106.574
104.86
103.553
102.569
101.837
101.299
100.908
100.628
100.429
100.29
100.194
100.128
100.083
100.054
100.034
100.022
100.013
100.008
100.005
100.003
100.002
100.001
100.001
100
100
100
100
100
100
100
100
100
100
100
100
100
100
100
100
100
100
100
100
100
100
100
100
100
100
100
100
100
100
100
100
100
100
383.645
351.357
320.276
291.024
264.023
239.512
217.577
198.192
181.259
166.628
154.12
143.54
134.686
127.357
121.357
116.5
112.614
109.54
107.137
105.281
103.864
102.796
102.001
101.416
100.99
100.685
100.468
100.316
100.211
100.14
100.091
100.059
100.038
100.024
100.015
100.009
100.006
100.003
100.002
100.001
100.001
100
100
100
100
100
100
100
100
100
100
100
100
100
100
100
100
100
100
100
100
100
100
100
100
100
100
100
100
100
100
100
100
100
100
384.342
353.366
323.369
294.891
268.338
243.979
221.957
202.312
185.007
169.945
156.987
145.968
136.705
129.007
122.684
117.552
113.436
110.173
107.619
105.642
104.132
102.992
102.142
101.517
101.061
100.734
100.502
100.34
100.227
100.15
100.098
100.063
100.04
100.025
100.016
100.01
100.006
100.004
100.002
100.001
100.001
100
100
100
100
100
100
100
100
100
100
100
100
100
100
100
100
100
100
100
100
100
100
100
100
100
100
100
100
100
100
100
100
100
100
384.838
354.802
325.602
297.719
271.54
247.342
225.301
205.501
187.945
172.574
159.283
147.93
138.349
130.36
123.78
118.426
114.122
110.704
108.024
105.948
104.359
103.159
102.263
101.603
101.122
100.777
100.531
100.359
100.24
100.159
100.104
100.067
100.043
100.027
100.017
100.01
100.006
100.004
100.002
100.001
100.001
100
100
100
100
100
100
100
100
100
100
100
100
100
100
100
100
100
100
100
100
100
100
100
100
100
100
100
100
100
100
100
100
100
100
385.194
355.835
327.22
299.789
273.908
249.86
227.836
207.945
190.22
174.632
161.097
149.493
139.668
131.454
124.671
119.139
114.685
111.142
108.359
106.201
104.548
103.298
102.364
101.675
101.173
100.813
100.556
100.376
100.252
100.166
100.109
100.07
100.045
100.028
100.018
100.011
100.007
100.004
100.002
100.001
100.001
100
100
100
100
100
100
100
100
100
100
100
100
100
100
100
100
100
100
100
100
100
100
100
100
100
100
100
100
100
100
100
100
100
100
385.449
356.58
328.394
301.301
275.655
251.734
229.741
209.8
191.965
176.223
162.511
150.721
140.712
132.324
125.384
119.714
115.14
111.498
108.633
106.409
104.703
103.412
102.447
101.735
101.216
100.842
100.577
100.39
100.261
100.173
100.113
100.073
100.047
100.029
100.018
100.011
100.007
100.004
100.002
100.001
100.001
100
100
100
100
100
100
100
100
100
100
100
100
100
100
100
100
100
100
100
100
100
100
100
100
100
100
100
100
100
100
100
100
100
100
385.633
357.118
329.244
302.404
276.937
253.121
231.163
211.196
193.288
177.44
163.6
151.673
141.527
133.008
125.947
120.17
115.503
111.782
108.853
106.576
104.829
103.505
102.515
101.784
101.251
100.867
100.594
100.402
100.269
100.178
100.116
100.075
100.048
100.03
100.019
100.012
100.007
100.004
100.003
100.001
100.001
100
100
100
100
100
100
100
100
100
100
100
100
100
100
100
100
100
100
100
100
100
100
100
100
100
100
100
100
100
100
100
100
100
100
385.766
357.505
329.859
303.204
277.874
254.141
232.216
212.238
194.282
178.36
164.43
152.403
142.155
133.538
126.386
120.527
115.789
112.007
109.027
106.709
104.929
103.579
102.57
101.823
101.279
100.886
100.607
100.411
100.275
100.182
100.119
100.077
100.049
100.031
100.019
100.012
100.007
100.004
100.003
100.002
100.001
100.001
100
100
100
100
100
100
100
100
100
100
100
100
100
100
100
100
100
100
100
100
100
100
100
100
100
100
100
100
100
100
100
100
100
385.86
357.783
330.301
303.783
278.554
254.886
232.989
213.007
195.021
179.048
165.054
152.955
142.633
133.943
126.723
120.802
116.01
112.182
109.163
106.813
105.008
103.638
102.612
101.854
101.301
100.902
100.618
100.419
100.28
100.185
100.121
100.078
100.05
100.032
100.02
100.012
100.007
100.004
100.003
100.002
100.001
100.001
100
100
100
100
100
100
100
100
100
100
100
100
100
100
100
100
100
100
100
100
100
100
100
100
100
100
100
100
100
100
100
100
100
385.928
357.981
330.618
304.199
279.045
255.426
233.552
213.571
195.565
179.558
165.518
153.368
142.993
134.25
126.979
121.012
116.179
112.316
109.268
106.894
105.069
103.683
102.646
101.878
101.318
100.914
100.627
100.425
100.284
100.188
100.123
100.08
100.051
100.032
100.02
100.012
100.008
100.005
100.003
100.002
100.001
100.001
100
100
100
100
100
100
100
100
100
100
100
100
100
100
100
100
100
100
100
100
100
100
100
100
100
100
100
100
100
100
100
100
100
385.976
358.123
330.844
304.496
279.397
255.815
233.96
213.98
195.962
179.932
165.86
153.674
143.26
134.478
127.171
121.17
116.307
112.418
109.347
106.955
105.115
103.718
102.672
101.897
101.332
100.924
100.633
100.429
100.287
100.19
100.124
100.08
100.051
100.032
100.02
100.013
100.008
100.005
100.003
100.002
100.001
100.001
100
100
100
100
100
100
100
100
100
100
100
100
100
100
100
100
100
100
100
100
100
100
100
100
100
100
100
100
100
100
100
100
100
386.01
358.223
331.004
304.707
279.647
256.092
234.251
214.274
196.249
180.202
166.109
153.897
143.456
134.646
127.312
121.287
116.402
112.494
109.407
107.001
105.15
103.745
102.691
101.911
101.342
100.931
100.638
100.433
100.29
100.192
100.126
100.081
100.052
100.033
100.02
100.013
100.008
100.005
100.003
100.002
100.001
100.001
100
100
100
100
100
100
100
100
100
100
100
100
100
100
100
100
100
100
100
100
100
100
100
100
100
100
100
100
100
100
100
100
100
386.034
358.293
331.116
304.855
279.824
256.288
234.458
214.484
196.454
180.397
166.289
154.059
143.598
134.769
127.416
121.373
116.472
112.55
109.451
107.035
105.176
103.764
102.706
101.922
101.349
100.936
100.642
100.435
100.292
100.193
100.126
100.082
100.052
100.033
100.021
100.013
100.008
100.005
100.003
100.002
100.001
100.001
100
100
100
100
100
100
100
100
100
100
100
100
100
100
100
100
100
100
100
100
100
100
100
100
100
100
100
100
100
100
100
100
100
386.05
358.341
331.194
304.959
279.947
256.426
234.604
214.632
196.599
180.535
166.417
154.174
143.7
134.857
127.491
121.436
116.523
112.591
109.483
107.06
105.196
103.779
102.716
101.93
101.355
100.94
100.645
100.437
100.293
100.194
100.127
100.082
100.052
100.033
100.021
100.013
100.008
100.005
100.003
100.002
100.001
100.001
100
100
100
100
100
100
100
100
100
100
100
100
100
100
100
100
100
100
100
100
100
100
100
100
100
100
100
100
100
100
100
100
100
386.062
358.375
331.248
305.03
280.033
256.521
234.705
214.735
196.701
180.632
166.507
154.256
143.772
134.92
127.544
121.48
116.56
112.62
109.507
107.079
105.209
103.789
102.724
101.936
101.359
100.943
100.647
100.439
100.294
100.195
100.127
100.082
100.053
100.033
100.021
100.013
100.008
100.005
100.003
100.002
100.001
100.001
100
100
100
100
100
100
100
100
100
100
100
100
100
100
100
100
100
100
100
100
100
100
100
100
100
100
100
100
100
100
100
100
100
386.07
358.398
331.286
305.08
280.092
256.587
234.776
214.807
196.771
180.7
166.57
154.313
143.823
134.964
127.582
121.512
116.586
112.641
109.523
107.091
105.219
103.797
102.73
101.94
101.362
100.945
100.649
100.44
100.295
100.195
100.128
100.083
100.053
100.033
100.021
100.013
100.008
100.005
100.003
100.002
100.001
100.001
100
100
100
100
100
100
100
100
100
100
100
100
100
100
100
100
100
100
100
100
100
100
100
100
100
100
100
100
100
100
100
100
100
386.075
358.414
331.311
305.113
280.132
256.632
234.823
214.856
196.819
180.746
166.613
154.353
143.859
134.995
127.608
121.534
116.604
112.656
109.535
107.101
105.226
103.802
102.734
101.943
101.364
100.947
100.65
100.44
100.295
100.195
100.128
100.083
100.053
100.033
100.021
100.013
100.008
100.005
100.003
100.002
100.001
100.001
100
100
100
100
100
100
100
100
100
100
100
100
100
100
100
100
100
100
100
100
100
100
100
100
100
100
100
100
100
100
100
100
100
386.079
358.424
331.328
305.136
280.159
256.663
234.856
214.889
196.852
180.778
166.643
154.38
143.883
135.016
127.626
121.549
116.616
112.666
109.543
107.107
105.231
103.806
102.737
101.945
101.366
100.948
100.65
100.441
100.295
100.196
100.128
100.083
100.053
100.033
100.021
100.013
100.008
100.005
100.003
100.002
100.001
100.001
100
100
100
100
100
100
100
100
100
100
100
100
100
100
100
100
100
100
100
100
100
100
100
100
100
100
100
100
100
100
100
100
100
386.081
358.431
331.339
305.151
280.177
256.683
234.878
214.911
196.875
180.799
166.663
154.398
143.899
135.031
127.639
121.559
116.625
112.673
109.549
107.111
105.235
103.808
102.738
101.946
101.367
100.949
100.651
100.441
100.296
100.196
100.128
100.083
100.053
100.033
100.021
100.013
100.008
100.005
100.003
100.002
100.001
100.001
100
100
100
100
100
100
100
100
100
100
100
100
100
100
100
100
100
100
100
100
100
100
100
100
100
100
100
100
100
100
100
100
100
386.083
358.436
331.347
305.161
280.189
256.697
234.892
214.926
196.889
180.813
166.676
154.411
143.91
135.04
127.647
121.566
116.631
112.677
109.552
107.114
105.237
103.81
102.74
101.947
101.368
100.949
100.651
100.442
100.296
100.196
100.128
100.083
100.053
100.034
100.021
100.013
100.008
100.005
100.003
100.002
100.001
100.001
100
100
100
100
100
100
100
100
100
100
100
100
100
100
100
100
100
100
100
100
100
100
100
100
100
100
100
100
100
100
100
100
100
386.084
358.439
331.351
305.167
280.197
256.705
234.902
214.936
196.899
180.823
166.685
154.419
143.917
135.047
127.652
121.571
116.635
112.681
109.555
107.116
105.239
103.811
102.741
101.948
101.368
100.95
100.651
100.442
100.296
100.196
100.128
100.083
100.053
100.034
100.021
100.013
100.008
100.005
100.003
100.002
100.001
100.001
100
100
100
100
100
100
100
100
100
100
100
100
100
100
100
100
100
100
100
100
100
100
100
100
100
100
100
100
100
100
100
100
100
386.084
358.441
331.355
305.172
280.202
256.711
234.908
214.942
196.905
180.829
166.691
154.424
143.922
135.051
127.656
121.574
116.637
112.683
109.557
107.118
105.24
103.812
102.741
101.948
101.368
100.95
100.652
100.442
100.296
100.196
100.128
100.083
100.053
100.034
100.021
100.013
100.008
100.005
100.003
100.002
100.001
100.001
100
100
100
100
100
100
100
100
100
100
100
100
100
100
100
100
100
100
100
100
100
100
100
100
100
100
100
100
100
100
100
100
100
386.085
358.442
331.357
305.174
280.206
256.715
234.912
214.946
196.909
180.833
166.695
154.427
143.925
135.053
127.658
121.576
116.639
112.684
109.558
107.118
105.24
103.813
102.742
101.948
101.369
100.95
100.652
100.442
100.296
100.196
100.128
100.083
100.053
100.034
100.021
100.013
100.008
100.005
100.003
100.002
100.001
100.001
100
100
100
100
100
100
100
100
100
100
100
100
100
100
100
100
100
100
100
100
100
100
100
100
100
100
100
100
100
100
100
100
100
386.085
358.443
331.358
305.176
280.208
256.717
234.914
214.949
196.912
180.835
166.697
154.43
143.927
135.055
127.66
121.577
116.64
112.685
109.558
107.119
105.241
103.813
102.742
101.949
101.369
100.95
100.652
100.442
100.296
100.196
100.128
100.083
100.053
100.034
100.021
100.013
100.008
100.005
100.003
100.002
100.001
100.001
100
100
100
100
100
100
100
100
100
100
100
100
100
100
100
100
100
100
100
100
100
100
100
100
100
100
100
100
100
100
100
100
100
386.085
358.444
331.359
305.177
280.209
256.719
234.916
214.951
196.914
180.837
166.698
154.431
143.928
135.056
127.661
121.578
116.64
112.685
109.559
107.119
105.241
103.813
102.742
101.949
101.369
100.95
100.652
100.442
100.296
100.196
100.128
100.083
100.053
100.034
100.021
100.013
100.008
100.005
100.003
100.002
100.001
100.001
100
100
100
100
100
100
100
100
100
100
100
100
100
100
100
100
100
100
100
100
100
100
100
100
100
100
100
100
100
100
100
100
100
386.085
358.444
331.359
305.178
280.21
256.72
234.917
214.952
196.915
180.838
166.699
154.432
143.929
135.057
127.662
121.578
116.641
112.686
109.559
107.12
105.241
103.813
102.742
101.949
101.369
100.95
100.652
100.442
100.296
100.196
100.128
100.083
100.053
100.034
100.021
100.013
100.008
100.005
100.003
100.002
100.001
100.001
100
100
100
100
100
100
100
100
100
100
100
100
100
100
100
100
100
100
100
100
100
100
100
100
100
100
100
100
100
100
100
100
100
386.085
358.444
331.36
305.178
280.21
256.72
234.917
214.952
196.915
180.838
166.7
154.432
143.93
135.057
127.662
121.579
116.641
112.686
109.559
107.12
105.241
103.813
102.742
101.949
101.369
100.95
100.652
100.442
100.296
100.196
100.128
100.083
100.053
100.034
100.021
100.013
100.008
100.005
100.003
100.002
100.001
100.001
100
100
100
100
100
100
100
100
100
100
100
100
100
100
100
100
100
100
100
100
100
100
100
100
100
100
100
100
100
100
100
100
100
386.085
358.444
331.36
305.178
280.211
256.721
234.918
214.953
196.916
180.839
166.7
154.433
143.93
135.058
127.662
121.579
116.641
112.686
109.559
107.12
105.241
103.813
102.742
101.949
101.369
100.95
100.652
100.442
100.296
100.196
100.128
100.083
100.053
100.034
100.021
100.013
100.008
100.005
100.003
100.002
100.001
100.001
100
100
100
100
100
100
100
100
100
100
100
100
100
100
100
100
100
100
100
100
100
100
100
100
100
100
100
100
100
100
100
100
100
386.085
358.444
331.36
305.179
280.211
256.721
234.918
214.953
196.916
180.839
166.701
154.433
143.93
135.058
127.662
121.579
116.641
112.686
109.559
107.12
105.241
103.814
102.742
101.949
101.369
100.95
100.652
100.442
100.296
100.196
100.128
100.083
100.053
100.034
100.021
100.013
100.008
100.005
100.003
100.002
100.001
100.001
100
100
100
100
100
100
100
100
100
100
100
100
100
100
100
100
100
100
100
100
100
100
100
100
100
100
100
100
100
100
100
100
100
386.085
358.444
331.36
305.179
280.211
256.721
234.918
214.953
196.916
180.839
166.701
154.433
143.93
135.058
127.662
121.579
116.641
112.686
109.559
107.12
105.241
103.814
102.742
101.949
101.369
100.95
100.652
100.442
100.296
100.196
100.128
100.083
100.053
100.034
100.021
100.013
100.008
100.005
100.003
100.002
100.001
100.001
100
100
100
100
100
100
100
100
100
100
100
100
100
100
100
100
100
100
100
100
100
100
100
100
100
100
100
100
100
100
100
100
100
386.085
358.444
331.36
305.179
280.211
256.721
234.918
214.953
196.916
180.839
166.701
154.433
143.93
135.058
127.662
121.579
116.642
112.686
109.559
107.12
105.241
103.814
102.742
101.949
101.369
100.95
100.652
100.442
100.296
100.196
100.128
100.083
100.053
100.034
100.021
100.013
100.008
100.005
100.003
100.002
100.001
100.001
100
100
100
100
100
100
100
100
100
100
100
100
100
100
100
100
100
100
100
100
100
100
100
100
100
100
100
100
100
100
100
100
100
386.085
358.444
331.36
305.179
280.211
256.721
234.918
214.953
196.916
180.839
166.701
154.433
143.93
135.058
127.662
121.579
116.642
112.686
109.56
107.12
105.241
103.814
102.742
101.949
101.369
100.95
100.652
100.442
100.296
100.196
100.128
100.083
100.053
100.034
100.021
100.013
100.008
100.005
100.003
100.002
100.001
100.001
100
100
100
100
100
100
100
100
100
100
100
100
100
100
100
100
100
100
100
100
100
100
100
100
100
100
100
100
100
100
100
100
100
386.085
358.444
331.36
305.179
280.211
256.721
234.918
214.953
196.916
180.839
166.701
154.433
143.93
135.058
127.662
121.579
116.642
112.686
109.56
107.12
105.241
103.814
102.742
101.949
101.369
100.95
100.652
100.442
100.296
100.196
100.128
100.083
100.053
100.034
100.021
100.013
100.008
100.005
100.003
100.002
100.001
100.001
100
100
100
100
100
100
100
100
100
100
100
100
100
100
100
100
100
100
100
100
100
100
100
100
100
100
100
100
100
100
100
100
100
386.085
358.444
331.36
305.179
280.211
256.721
234.918
214.953
196.916
180.839
166.701
154.433
143.93
135.058
127.662
121.579
116.642
112.686
109.56
107.12
105.241
103.814
102.742
101.949
101.369
100.95
100.652
100.442
100.296
100.196
100.128
100.083
100.053
100.034
100.021
100.013
100.008
100.005
100.003
100.002
100.001
100.001
100
100
100
100
100
100
100
100
100
100
100
100
100
100
100
100
100
100
100
100
100
100
100
100
100
100
100
100
100
100
100
100
100
386.085
358.444
331.36
305.179
280.211
256.721
234.918
214.953
196.916
180.839
166.701
154.433
143.93
135.058
127.662
121.579
116.642
112.686
109.56
107.12
105.241
103.814
102.742
101.949
101.369
100.95
100.652
100.442
100.296
100.196
100.128
100.083
100.053
100.034
100.021
100.013
100.008
100.005
100.003
100.002
100.001
100.001
100
100
100
100
100
100
100
100
100
100
100
100
100
100
100
100
100
100
100
100
100
100
100
100
100
100
100
100
100
100
100
100
100
386.085
358.444
331.36
305.179
280.211
256.721
234.918
214.953
196.916
180.839
166.701
154.433
143.93
135.058
127.662
121.579
116.642
112.686
109.56
107.12
105.241
103.814
102.742
101.949
101.369
100.95
100.652
100.442
100.296
100.196
100.128
100.083
100.053
100.034
100.021
100.013
100.008
100.005
100.003
100.002
100.001
100.001
100
100
100
100
100
100
100
100
100
100
100
100
100
100
100
100
100
100
100
100
100
100
100
100
100
100
100
100
100
100
100
100
100
386.085
358.444
331.36
305.179
280.211
256.721
234.918
214.953
196.916
180.839
166.701
154.433
143.93
135.058
127.662
121.579
116.642
112.686
109.56
107.12
105.241
103.814
102.742
101.949
101.369
100.95
100.652
100.442
100.296
100.196
100.128
100.083
100.053
100.034
100.021
100.013
100.008
100.005
100.003
100.002
100.001
100.001
100
100
100
100
100
100
100
100
100
100
100
100
100
100
100
100
100
100
100
100
100
100
100
100
100
100
100
100
100
100
100
100
100
386.085
358.444
331.36
305.179
280.211
256.721
234.918
214.953
196.916
180.839
166.701
154.433
143.93
135.058
127.662
121.579
116.642
112.686
109.56
107.12
105.241
103.814
102.742
101.949
101.369
100.95
100.652
100.442
100.296
100.196
100.128
100.083
100.053
100.034
100.021
100.013
100.008
100.005
100.003
100.002
100.001
100.001
100
100
100
100
100
100
100
100
100
100
100
100
100
100
100
100
100
100
100
100
100
100
100
100
100
100
100
100
100
100
100
100
100
386.085
358.444
331.36
305.179
280.211
256.721
234.918
214.953
196.916
180.839
166.701
154.433
143.93
135.058
127.662
121.579
116.642
112.686
109.56
107.12
105.241
103.814
102.742
101.949
101.369
100.95
100.652
100.442
100.296
100.196
100.128
100.083
100.053
100.034
100.021
100.013
100.008
100.005
100.003
100.002
100.001
100.001
100
100
100
100
100
100
100
100
100
100
100
100
100
100
100
100
100
100
100
100
100
100
100
100
100
100
100
100
100
100
100
100
100
386.085
358.444
331.36
305.179
280.211
256.721
234.918
214.953
196.916
180.839
166.701
154.433
143.93
135.058
127.662
121.579
116.642
112.686
109.56
107.12
105.241
103.814
102.742
101.949
101.369
100.95
100.652
100.442
100.296
100.196
100.128
100.083
100.053
100.034
100.021
100.013
100.008
100.005
100.003
100.002
100.001
100.001
100
100
100
100
100
100
100
100
100
100
100
100
100
100
100
100
100
100
100
100
100
100
100
100
100
100
100
100
100
100
100
100
100
386.085
358.444
331.36
305.179
280.211
256.721
234.918
214.953
196.916
180.839
166.701
154.433
143.93
135.058
127.662
121.579
116.642
112.686
109.56
107.12
105.241
103.814
102.742
101.949
101.369
100.95
100.652
100.442
100.296
100.196
100.128
100.083
100.053
100.034
100.021
100.013
100.008
100.005
100.003
100.002
100.001
100.001
100
100
100
100
100
100
100
100
100
100
100
100
100
100
100
100
100
100
100
100
100
100
100
100
100
100
100
100
100
100
100
100
100
386.085
358.444
331.36
305.179
280.211
256.721
234.918
214.953
196.916
180.839
166.701
154.433
143.93
135.058
127.662
121.579
116.642
112.686
109.56
107.12
105.241
103.814
102.742
101.949
101.369
100.95
100.652
100.442
100.296
100.196
100.128
100.083
100.053
100.034
100.021
100.013
100.008
100.005
100.003
100.002
100.001
100.001
100
100
100
100
100
100
100
100
100
100
100
100
100
100
100
100
100
100
100
100
100
100
100
100
100
100
100
100
100
100
100
100
100
386.085
358.444
331.36
305.179
280.211
256.721
234.918
214.953
196.916
180.839
166.701
154.433
143.93
135.058
127.662
121.579
116.642
112.686
109.56
107.12
105.241
103.814
102.742
101.949
101.369
100.95
100.652
100.442
100.296
100.196
100.128
100.083
100.053
100.034
100.021
100.013
100.008
100.005
100.003
100.002
100.001
100.001
100
100
100
100
100
100
100
100
100
100
100
100
100
100
100
100
100
100
100
100
100
100
100
100
100
100
100
100
100
100
100
100
100
386.085
358.444
331.36
305.179
280.211
256.721
234.918
214.953
196.916
180.839
166.701
154.433
143.93
135.058
127.662
121.579
116.642
112.686
109.56
107.12
105.241
103.814
102.742
101.949
101.369
100.95
100.652
100.442
100.296
100.196
100.128
100.083
100.053
100.034
100.021
100.013
100.008
100.005
100.003
100.002
100.001
100.001
100
100
100
100
100
100
100
100
100
100
100
100
100
100
100
100
100
100
100
100
100
100
100
100
100
100
100
100
100
100
100
100
100
386.085
358.444
331.36
305.179
280.211
256.721
234.918
214.953
196.916
180.839
166.701
154.433
143.93
135.058
127.662
121.579
116.642
112.686
109.56
107.12
105.241
103.814
102.742
101.949
101.369
100.95
100.652
100.442
100.296
100.196
100.128
100.083
100.053
100.034
100.021
100.013
100.008
100.005
100.003
100.002
100.001
100.001
100
100
100
100
100
100
100
100
100
100
100
100
100
100
100
100
100
100
100
100
100
100
100
100
100
100
100
100
100
100
100
100
100
386.085
358.444
331.36
305.179
280.211
256.721
234.918
214.953
196.916
180.839
166.701
154.433
143.93
135.058
127.662
121.579
116.642
112.686
109.56
107.12
105.241
103.814
102.742
101.949
101.369
100.95
100.652
100.442
100.296
100.196
100.128
100.083
100.053
100.034
100.021
100.013
100.008
100.005
100.003
100.002
100.001
100.001
100
100
100
100
100
100
100
100
100
100
100
100
100
100
100
100
100
100
100
100
100
100
100
100
100
100
100
100
100
100
100
100
100
386.085
358.444
331.36
305.179
280.211
256.721
234.918
214.953
196.916
180.839
166.701
154.433
143.93
135.058
127.662
121.579
116.642
112.686
109.56
107.12
105.241
103.814
102.742
101.949
101.369
100.95
100.652
100.442
100.296
100.196
100.128
100.083
100.053
100.034
100.021
100.013
100.008
100.005
100.003
100.002
100.001
100.001
100
100
100
100
100
100
100
100
100
100
100
100
100
100
100
100
100
100
100
100
100
100
100
100
100
100
100
100
100
100
100
100
100
386.085
358.444
331.36
305.179
280.211
256.721
234.918
214.953
196.916
180.839
166.701
154.433
143.93
135.058
127.662
121.579
116.642
112.686
109.56
107.12
105.241
103.814
102.742
101.949
101.369
100.95
100.652
100.442
100.296
100.196
100.128
100.083
100.053
100.034
100.021
100.013
100.008
100.005
100.003
100.002
100.001
100.001
100
100
100
100
100
100
100
100
100
100
100
100
100
100
100
100
100
100
100
100
100
100
100
100
100
100
100
100
100
100
100
100
100
386.085
358.444
331.36
305.179
280.211
256.721
234.918
214.953
196.916
180.839
166.701
154.433
143.93
135.058
127.662
121.579
116.642
112.686
109.56
107.12
105.241
103.814
102.742
101.949
101.369
100.95
100.652
100.442
100.296
100.196
100.128
100.083
100.053
100.034
100.021
100.013
100.008
100.005
100.003
100.002
100.001
100.001
100
100
100
100
100
100
100
100
100
100
100
100
100
100
100
100
100
100
100
100
100
100
100
100
100
100
100
100
100
100
100
100
100
386.085
358.444
331.36
305.179
280.211
256.721
234.918
214.953
196.916
180.839
166.701
154.433
143.93
135.058
127.662
121.579
116.642
112.686
109.56
107.12
105.241
103.814
102.742
101.949
101.369
100.95
100.652
100.442
100.296
100.196
100.128
100.083
100.053
100.034
100.021
100.013
100.008
100.005
100.003
100.002
100.001
100.001
100
100
100
100
100
100
100
100
100
100
100
100
100
100
100
100
100
100
100
100
100
100
100
100
100
100
100
100
100
100
100
100
100
386.085
358.444
331.36
305.179
280.211
256.721
234.918
214.953
196.916
180.839
166.701
154.433
143.93
135.058
127.662
121.579
116.642
112.686
109.56
107.12
105.241
103.814
102.742
101.949
101.369
100.95
100.652
100.442
100.296
100.196
100.128
100.083
100.053
100.034
100.021
100.013
100.008
100.005
100.003
100.002
100.001
100.001
100
100
100
100
100
100
100
100
100
100
100
100
100
100
100
100
100
100
100
100
100
100
100
100
100
100
100
100
100
100
100
100
100
386.085
358.444
331.36
305.179
280.211
256.721
234.918
214.953
196.916
180.839
166.701
154.433
143.93
135.058
127.662
121.579
116.642
112.686
109.56
107.12
105.241
103.814
102.742
101.949
101.369
100.95
100.652
100.442
100.296
100.196
100.128
100.083
100.053
100.034
100.021
100.013
100.008
100.005
100.003
100.002
100.001
100.001
100
100
100
100
100
100
100
100
100
100
100
100
100
100
100
100
100
100
100
100
100
100
100
100
100
100
100
100
100
100
100
100
100
386.085
358.444
331.36
305.179
280.211
256.721
234.918
214.953
196.916
180.839
166.701
154.433
143.93
135.058
127.662
121.579
116.642
112.686
109.56
107.12
105.241
103.814
102.742
101.949
101.369
100.95
100.652
100.442
100.296
100.196
100.128
100.083
100.053
100.034
100.021
100.013
100.008
100.005
100.003
100.002
100.001
100.001
100
100
100
100
100
100
100
100
100
100
100
100
100
100
100
100
100
100
100
100
100
100
100
100
100
100
100
100
100
100
100
100
100
386.085
358.444
331.36
305.179
280.211
256.721
234.918
214.953
196.916
180.839
166.701
154.433
143.93
135.058
127.662
121.579
116.642
112.686
109.56
107.12
105.241
103.814
102.742
101.949
101.369
100.95
100.652
100.442
100.296
100.196
100.128
100.083
100.053
100.034
100.021
100.013
100.008
100.005
100.003
100.002
100.001
100.001
100
100
100
100
100
100
100
100
100
100
100
100
100
100
100
100
100
100
100
100
100
100
100
100
100
100
100
100
100
100
100
100
100
386.085
358.444
331.36
305.179
280.211
256.721
234.918
214.953
196.916
180.839
166.701
154.433
143.93
135.058
127.662
121.579
116.642
112.686
109.56
107.12
105.241
103.814
102.742
101.949
101.369
100.95
100.652
100.442
100.296
100.196
100.128
100.083
100.053
100.034
100.021
100.013
100.008
100.005
100.003
100.002
100.001
100.001
100
100
100
100
100
100
100
100
100
100
100
100
100
100
100
100
100
100
100
100
100
100
100
100
100
100
100
100
100
100
100
100
100
386.085
358.444
331.36
305.179
280.211
256.721
234.918
214.953
196.916
180.839
166.701
154.433
143.93
135.058
127.662
121.579
116.642
112.686
109.56
107.12
105.241
103.814
102.742
101.949
101.369
100.95
100.652
100.442
100.296
100.196
100.128
100.083
100.053
100.034
100.021
100.013
100.008
100.005
100.003
100.002
100.001
100.001
100
100
100
100
100
100
100
100
100
100
100
100
100
100
100
100
100
100
100
100
100
100
100
100
100
100
100
100
100
100
100
100
100
386.085
358.444
331.36
305.179
280.211
256.721
234.918
214.953
196.916
180.839
166.701
154.433
143.93
135.058
127.662
121.579
116.642
112.686
109.56
107.12
105.241
103.814
102.742
101.949
101.369
100.95
100.652
100.442
100.296
100.196