/*--------------------------------*- C++ -*----------------------------------*\
  =========                 |
  \\      /  F ield         | OpenFOAM: The Open Source CFD Toolbox
   \\    /   O peration     | Website:  https://openfoam.org
    \\  /    A nd           | Version:  10
     \\/     M anipulation  |
\*---------------------------------------------------------------------------*/
FoamFile
{
    format      ascii;
    class       volScalarField;
    location    "361";
    object      gradTx;
}
// * * * * * * * * * * * * * * * * * * * * * * * * * * * * * * * * * * * * * //

dimensions      [0 -1 0 1 0 0 0];

internalField   nonuniform List<scalar> 
11250
(
14301.9
8110.07
5320.27
3841.32
2946.79
2349.52
1921.02
1597.16
1342.88
1137.53
968.198
826.405
706.33
603.828
515.845
440.062
374.665
318.199
269.467
227.467
191.344
160.356
133.856
111.275
92.1076
75.9047
62.2681
50.844
41.319
33.4164
26.8928
21.5352
17.1583
13.6016
10.7268
8.41595
6.56852
5.09975
3.93853
3.0256
2.3119
1.75711
1.32829
0.99871
0.746852
0.555485
0.410909
0.302309
0.2212
0.160969
0.116498
0.0838522
0.0600241
0.0427316
0.0302542
0.0213025
0.0149172
0.0103884
0.0071948
0.00495558
0.0033945
0.00231239
0.00156657
0.00105545
0.000707165
0.000471174
0.000312164
0.000205602
0.00013455
8.73661e-05
5.60895e-05
3.52797e-05
2.12027e-05
1.12501e-05
3.51691e-06
4097.73
4708.86
4010.76
3258.73
2651.82
2183.47
1819.49
1531.02
1297.65
1105.42
944.724
808.846
692.954
593.491
507.765
433.691
369.606
314.162
266.233
224.87
189.254
158.674
132.503
110.187
91.2332
75.2036
61.7071
50.3963
40.9627
33.1337
26.6693
21.3592
17.0202
13.4936
10.6427
8.35076
6.5182
5.06109
3.90896
3.00309
2.29485
1.74425
1.31864
0.991507
0.741501
0.551529
0.408001
0.300181
0.219651
0.159847
0.11569
0.0832732
0.0596113
0.042439
0.0300478
0.0211577
0.0148161
0.0103183
0.00714638
0.00492233
0.00337179
0.00229696
0.00155615
0.00104845
0.000702483
0.000468062
0.000310106
0.000204251
0.000133667
8.6794e-05
5.57229e-05
3.50495e-05
2.10647e-05
1.1177e-05
3.49412e-06
1478.17
2617.71
2756.49
2532.86
2220.59
1915.77
1645.52
1413.19
1214.96
1045.65
900.474
775.434
667.321
573.573
492.13
421.318
359.756
306.282
259.909
219.783
185.157
155.372
129.843
108.046
89.5123
73.8228
60.6017
49.5136
40.26
32.576
26.2282
21.0115
16.7472
13.2802
10.4766
8.22193
6.41874
4.98466
3.85049
2.95857
2.26112
1.71882
1.29955
0.977252
0.730911
0.5437
0.402242
0.295968
0.216584
0.157626
0.11409
0.0821265
0.0587938
0.0418593
0.0296389
0.0208708
0.0146159
0.0101793
0.00705041
0.00485642
0.00332677
0.00226638
0.00153548
0.00103456
0.000693199
0.00046189
0.000306026
0.000201569
0.000131915
8.56591e-05
5.49957e-05
3.45929e-05
2.07906e-05
1.10317e-05
3.44875e-06
675.67
1528.11
1865.94
1897.41
1784.17
1616.16
1436.7
1264.62
1106.98
965.6
840.077
729.175
631.442
545.455
469.908
403.639
345.617
294.931
250.771
212.414
179.209
150.571
125.969
104.923
86.9992
71.8044
58.9845
48.2213
39.2303
31.7583
25.5811
20.5013
16.3465
12.9667
10.2324
8.03255
6.27251
4.87225
3.76448
2.89307
2.21147
1.68137
1.27144
0.956262
0.715313
0.532168
0.393759
0.28976
0.212064
0.154352
0.111731
0.080436
0.0575886
0.0410046
0.0290359
0.0204478
0.0143206
0.00997428
0.00690886
0.0047592
0.00326036
0.00222126
0.00150499
0.00101406
0.000679499
0.000452783
0.000300005
0.000197612
0.000129331
8.39839e-05
5.39221e-05
3.39187e-05
2.0386e-05
1.08172e-05
3.38171e-06
372.334
953.895
1283.04
1408.45
1404.74
1330.61
1223.5
1104.9
986.302
873.462
768.973
673.755
587.863
510.927
442.379
381.58
327.872
280.616
239.201
203.051
171.63
144.438
121.01
100.919
83.7716
69.2084
56.9019
46.5553
37.9017
30.7023
24.7448
19.8415
15.828
12.5609
9.91612
7.78711
6.08291
4.72644
3.65288
2.80806
2.14702
1.63274
1.23494
0.92899
0.695043
0.517178
0.382731
0.281688
0.206186
0.150095
0.108663
0.0782367
0.0560204
0.0398923
0.0282512
0.0198971
0.0139362
0.0097074
0.00672455
0.00463261
0.00317388
0.00216249
0.00146527
0.000987368
0.000661654
0.000440918
0.000292161
0.000192455
0.000125963
8.1801e-05
5.2523e-05
3.304e-05
1.98586e-05
1.05377e-05
3.29438e-06
232.362
632.858
905.14
1050.32
1097.9
1080.62
1024.72
948.401
863.348
776.65
692.421
612.919
539.274
471.942
410.977
356.204
307.316
263.936
225.652
192.043
162.688
137.179
115.125
96.1561
79.9251
66.1095
54.4119
44.5607
36.3092
29.4353
23.7404
19.0484
15.2042
12.0723
9.53512
7.4913
5.85427
4.55054
3.51818
2.7054
2.06916
1.57398
1.19081
0.896017
0.670528
0.499045
0.369387
0.271918
0.199071
0.14494
0.104948
0.075573
0.0541208
0.0385447
0.0273003
0.0192297
0.0134703
0.00938389
0.00650112
0.00447913
0.00306901
0.00209123
0.00141711
0.00095499
0.000640006
0.000426524
0.000282644
0.000186199
0.000121876
7.9152e-05
5.08252e-05
3.19737e-05
1.92185e-05
1.01984e-05
3.18836e-06
156.864
440.776
655.552
791.477
857.999
871.73
849.17
803.768
745.413
680.935
614.845
550.016
488.2
430.402
377.139
328.603
284.782
245.53
210.618
179.769
152.676
129.024
108.493
90.7749
75.5689
62.5927
51.5812
42.2896
34.4933
27.9886
22.5923
18.1409
14.4898
11.5124
9.09809
7.15175
5.59166
4.34839
3.36331
2.58731
1.97956
1.50633
1.13999
0.858027
0.642274
0.47814
0.353999
0.260649
0.190862
0.13899
0.100659
0.0724977
0.0519272
0.0369883
0.0262019
0.0184586
0.0129319
0.00901001
0.00624287
0.0043017
0.00294777
0.00200883
0.00136141
0.000917542
0.000614967
0.000409874
0.000271633
0.00017896
0.000117147
7.60866e-05
4.88602e-05
3.07395e-05
1.84777e-05
9.8056e-06
3.06562e-06
111.419
318.543
485.989
603.645
672.916
701.527
699.194
675.102
636.852
590.267
539.579
487.753
436.793
388.004
342.192
299.814
261.08
226.031
194.594
166.618
141.901
120.212
101.304
84.9232
70.8195
58.7496
48.4816
39.7982
32.4981
26.3968
21.3274
17.1398
13.701
10.8934
8.61463
6.77583
5.30072
4.12427
3.1915
2.45624
1.88006
1.43117
1.08349
0.815782
0.610845
0.454877
0.336869
0.248101
0.181718
0.132362
0.0958799
0.0690697
0.0494815
0.0352527
0.0249768
0.0175985
0.0123313
0.00859278
0.00595462
0.00410363
0.0028124
0.00191682
0.0012992
0.000875717
0.000586998
0.000391273
0.000259332
0.000170872
0.000111862
7.26605e-05
4.66638e-05
2.93598e-05
1.76494e-05
9.3665e-06
2.92841e-06
81.9169
236.67
367.338
465.741
530.427
564.564
573.59
563.479
539.74
506.992
468.871
428.124
386.747
346.147
307.279
270.759
236.95
206.031
178.052
152.966
130.661
110.981
93.7441
78.7506
65.7954
54.6738
45.1869
37.1447
30.3692
24.6957
19.9736
16.0671
12.8546
10.2287
8.09488
6.37134
4.98741
3.88275
3.00621
2.3148
1.77262
1.34997
1.02243
0.7701
0.576844
0.429701
0.318323
0.234512
0.171812
0.125179
0.0906991
0.0653527
0.0468289
0.0333698
0.0236474
0.0166649
0.0116792
0.00813977
0.0056416
0.00388851
0.00266536
0.00181685
0.00123161
0.000830261
0.000556596
0.000371051
0.000245957
0.000162076
0.000106115
6.89342e-05
4.42748e-05
2.7859e-05
1.67484e-05
8.88878e-06
2.77915e-06
61.7134
179.531
282.022
363.024
420.331
454.894
469.609
468.23
454.602
432.221
404.046
372.454
339.284
305.908
273.32
242.209
213.029
186.053
161.418
139.158
119.235
101.556
85.9953
72.4016
60.6118
50.4573
41.7702
34.387
28.1524
22.9212
18.5593
14.9448
11.968
9.53144
7.54916
5.94622
4.65782
3.62847
2.811
2.16567
1.65927
1.26425
0.957942
0.721827
0.540897
0.403071
0.298699
0.220126
0.161322
0.11757
0.0852093
0.0614129
0.0440165
0.031373
0.0222372
0.0156744
0.0109872
0.00765889
0.00530925
0.00366006
0.00250917
0.00171065
0.00115979
0.000781957
0.000524284
0.000349556
0.000231737
0.000152724
0.000100004
6.49711e-05
4.17336e-05
2.62623e-05
1.57897e-05
8.38049e-06
2.62031e-06
47.3249
138.335
219.204
285.391
334.723
367.137
384.075
387.831
381.018
366.208
345.717
321.515
295.206
268.051
241.004
214.769
189.838
166.536
145.059
125.498
107.872
92.1406
78.2227
66.0101
55.3768
46.1868
38.3008
31.5803
25.8916
21.1081
17.1117
13.7943
11.0579
8.81487
6.98765
5.50833
4.31801
3.36607
2.60939
2.01154
1.54204
1.17554
0.891155
0.671807
0.50363
0.375451
0.278336
0.205192
0.150427
0.109665
0.0795037
0.0573169
0.0410917
0.0292957
0.0207698
0.0146434
0.0102667
0.00715814
0.0049631
0.00342207
0.00234643
0.00159997
0.00108493
0.000731596
0.000490591
0.000327139
0.000216905
0.000142968
9.36272e-05
6.08354e-05
3.90814e-05
2.45958e-05
1.4789e-05
7.8498e-06
2.45444e-06
36.7699
107.857
172.02
225.919
267.672
296.799
313.935
320.443
318.069
308.663
293.993
275.644
254.966
233.064
210.814
188.886
167.776
147.829
129.273
112.24
96.7858
82.9109
70.5719
59.6956
50.1877
41.9412
34.8424
28.7759
23.6278
19.289
15.6568
12.6361
10.1403
8.09144
6.42006
5.06521
3.97378
3.1
2.40477
1.85499
1.42287
1.0853
0.823176
0.620865
0.465654
0.34729
0.257564
0.189951
0.139305
0.101591
0.073674
0.0531302
0.0381012
0.0271711
0.0192685
0.0135883
0.00952916
0.0066454
0.00460856
0.00317826
0.00217968
0.00148654
0.00100819
0.000679962
0.00045604
0.000304146
0.00020169
0.000132958
8.70837e-05
5.6591e-05
3.6359e-05
2.28849e-05
1.37615e-05
7.30492e-06
2.28417e-06
28.8484
84.8434
135.987
179.815
214.777
240.269
256.488
264.221
264.616
258.984
248.655
234.872
218.743
201.209
183.043
164.859
147.127
130.192
114.293
99.5846
86.1486
74.0137
63.166
53.5602
45.1288
37.7896
31.4514
26.0192
21.3974
17.4932
14.2178
11.4887
9.22992
7.37263
5.85537
4.62382
3.63052
2.83442
2.20034
1.69844
1.30362
0.994925
0.755048
0.569777
0.427547
0.319016
0.236697
0.174634
0.128121
0.0934691
0.0678072
0.0489153
0.0350894
0.0250307
0.0177556
0.0125246
0.00878545
0.00612823
0.00425087
0.00293221
0.00201135
0.00137201
0.000930689
0.000627809
0.000421135
0.000280913
0.000186313
0.00012284
8.04683e-05
5.22992e-05
3.36059e-05
2.11545e-05
1.27222e-05
6.75374e-06
2.11192e-06
22.7969
67.1819
108.097
143.709
172.776
194.696
209.446
217.457
219.476
216.422
209.282
199.018
186.52
172.572
157.838
142.862
128.075
113.804
100.286
87.6835
76.0939
65.565
56.104
47.6878
40.2703
33.7901
28.1756
23.3494
19.2325
15.7464
12.8154
10.3685
8.33967
6.66872
5.30164
4.19047
3.29313
2.57309
1.99899
1.54411
1.18595
0.905687
0.687727
0.51926
0.389841
0.291023
0.216027
0.159453
0.117031
0.0854116
0.0619845
0.0447304
0.0320979
0.0229038
0.0162517
0.011467
0.00804575
0.00561368
0.0038949
0.00268729
0.00184375
0.00125795
0.000853489
0.000575843
0.000386347
0.000257754
0.000170982
0.00011275
7.38702e-05
4.80179e-05
3.08591e-05
1.94279e-05
1.1685e-05
6.20362e-06
1.93996e-06
18.1091
53.4529
86.2726
115.194
139.234
157.85
170.914
178.644
181.519
180.18
175.351
167.77
158.142
147.107
135.226
122.968
110.717
98.7726
87.3602
76.6402
66.7172
57.6502
49.4612
42.1432
35.6676
29.9896
25.054
20.7989
17.1594
14.0701
11.4671
9.28956
7.48077
5.98856
4.76585
3.77061
2.96585
2.31933
1.80327
1.39396
1.07137
0.818713
0.622064
0.469952
0.353014
0.263666
0.195814
0.144599
0.106174
0.0775198
0.0562791
0.040628
0.0291642
0.0208173
0.0147758
0.0104287
0.0073193
0.0051082
0.00354509
0.00244653
0.00167896
0.00114577
0.000777545
0.000524711
0.00035211
0.000234956
0.000155887
0.000102814
6.73712e-05
4.38001e-05
2.81526e-05
1.77262e-05
1.06627e-05
5.66134e-06
1.77044e-06
14.4383
42.6726
69.0453
92.519
112.322
127.985
139.34
146.483
149.713
149.476
146.301
140.747
133.367
124.68
115.147
105.169
95.0791
85.1447
75.5729
66.5163
58.0795
50.327
43.2901
36.9736
31.3616
26.4232
22.1165
18.3926
15.199
12.4815
10.1867
8.26319
6.66237
5.33948
4.25381
3.36884
2.65229
2.07593
1.61534
1.24964
0.961135
0.734972
0.558792
0.422404
0.317476
0.237249
0.176284
0.130239
0.0956732
0.0698825
0.0507549
0.0366541
0.0263211
0.0187944
0.0133443
0.00942136
0.00661425
0.00461744
0.00320537
0.00221266
0.00151883
0.00103674
0.00070371
0.000474986
0.000318807
0.000212776
0.000141197
9.31421e-05
6.10441e-05
3.96931e-05
2.55167e-05
1.60687e-05
9.66679e-06
5.13297e-06
1.60531e-06
11.5394
34.1409
55.354
74.391
90.6463
103.728
113.461
119.87
123.14
123.578
121.568
117.534
111.904
105.094
97.4805
89.3989
81.1336
72.9189
64.9401
57.3377
50.2118
43.6281
37.623
32.2091
27.3802
23.1156
19.3846
16.1491
13.3669
10.9937
8.98524
7.29823
5.89164
4.72725
3.77014
2.98882
2.35534
1.84514
1.43696
1.11252
0.856304
0.655264
0.498517
0.377074
0.283572
0.212029
0.157627
0.116512
0.0856299
0.0625743
0.0454661
0.0328477
0.0235967
0.0168551
0.0119715
0.00845487
0.00593757
0.00414627
0.0028791
0.00198796
0.00136495
0.000931928
0.000632714
0.000427162
0.000286769
0.000191432
0.000127059
8.38313e-05
5.49518e-05
3.57377e-05
2.29776e-05
1.44718e-05
8.70714e-06
4.62378e-06
1.44611e-06
9.23542
27.3481
44.4163
59.8383
73.1397
83.9984
92.2504
97.8804
101
101.82
100.618
97.7137
93.4385
88.12
82.0647
75.5489
68.8124
62.0564
55.4438
49.1006
43.1199
37.565
32.4744
27.8654
23.7386
20.0815
16.8717
14.0802
11.6734
9.61558
7.87009
6.40098
5.17377
4.15611
3.31827
2.6333
2.07717
1.62871
1.26949
0.98365
0.757687
0.580214
0.441717
0.334324
0.251574
0.188211
0.139995
0.103532
0.0761269
0.0556554
0.0404565
0.0292405
0.0210137
0.0150156
0.0106688
0.00753737
0.00529495
0.00369865
0.00256903
0.00177437
0.00121862
0.000832229
0.000565163
0.000381645
0.00025627
0.000171109
0.000113593
7.49613e-05
4.91465e-05
3.19679e-05
2.05572e-05
1.29493e-05
7.79205e-06
4.1382e-06
1.29429e-06
7.39554
21.9159
35.6447
48.1205
58.9722
67.9375
74.8706
79.7373
82.6014
83.6068
82.9549
80.8843
77.6511
73.5125
68.7147
63.4836
58.0189
52.4911
47.0406
41.7786
36.789
32.1313
27.8434
23.9452
20.4418
17.3267
14.5841
12.1921
10.1245
8.35232
6.84587
5.57538
4.5121
3.62886
2.90051
2.30417
1.81933
1.42784
1.11389
0.863791
0.665876
0.510279
0.388743
0.29442
0.221683
0.165945
0.123502
0.0913824
0.0672267
0.0491718
0.0357595
0.0258567
0.0185894
0.0132885
0.00944508
0.00667517
0.00469082
0.00327769
0.00227733
0.00157335
0.00108086
0.000738345
0.000501533
0.000338758
0.000227524
0.000151949
0.000100895
6.65951e-05
4.36699e-05
2.84107e-05
1.82728e-05
1.1512e-05
6.92809e-06
3.67974e-06
1.15095e-06
5.92126
17.5579
28.5913
38.6666
47.4932
54.8596
60.64
64.7927
67.3519
68.4149
68.1275
66.6679
64.2325
61.0228
57.235
53.0522
48.6389
44.1378
39.6686
35.3275
31.1888
27.3067
23.7172
20.441
17.4861
14.8498
12.5219
10.486
8.72158
7.20581
5.9145
4.82327
3.9083
3.14695
2.51811
2.00248
1.58268
1.24327
0.970753
0.753415
0.581244
0.445753
0.339823
0.257541
0.194037
0.145336
0.108225
0.0801217
0.0589726
0.0431553
0.0313985
0.0227133
0.0163363
0.0116825
0.00830674
0.00587277
0.00412837
0.00288563
0.00200555
0.00138599
0.00095242
0.000650785
0.000442171
0.000298737
0.000200692
0.00013406
8.90355e-05
5.87797e-05
3.85525e-05
2.50862e-05
1.61373e-05
1.01683e-05
6.1202e-06
3.25096e-06
1.01691e-06
4.73728
14.0545
22.9103
31.0306
38.1881
44.2133
49.0002
52.506
54.7464
55.787
55.733
54.7174
52.8904
50.409
47.4287
44.0969
40.5478
36.8999
33.2536
29.6912
26.2775
23.0605
20.0736
17.3371
14.8602
12.6435
10.6803
8.95871
7.46302
6.17513
5.07561
4.14461
3.36256
2.7107
2.17144
1.7286
1.36757
1.07529
0.840335
0.652741
0.503974
0.386784
0.295077
0.22378
0.168708
0.126441
0.0942089
0.0697834
0.0513899
0.037625
0.0273876
0.0198208
0.014262
0.0102032
0.00725771
0.00513301
0.00360961
0.00252388
0.00175469
0.001213
0.000833787
0.000569882
0.000387306
0.000261736
0.000175877
0.000117512
7.80624e-05
5.15464e-05
3.38152e-05
2.20078e-05
1.41596e-05
8.92349e-06
5.37169e-06
2.85363e-06
8.92686e-07
3.78524
11.2351
18.3308
24.8604
30.6464
35.5533
39.4932
42.4258
44.3558
45.3269
45.415
44.7192
43.3542
41.4417
39.1045
36.4602
33.6179
30.6747
27.7142
24.8059
22.0053
19.3545
16.8835
14.6113
12.5479
10.6955
9.05033
7.60384
6.34411
5.25696
4.32689
3.53783
2.87381
2.3194
1.86003
1.48225
1.17382
0.923822
0.7226
0.56176
0.434074
0.33339
0.254525
0.193157
0.145715
0.109276
0.0814669
0.0603785
0.0444874
0.0325877
0.0237323
0.0171832
0.0123695
0.00885298
0.00629975
0.00445718
0.00313548
0.00219311
0.00152523
0.00105471
0.000725197
0.000495804
0.000337053
0.000227835
0.000153135
0.000102341
6.8e-05
4.49117e-05
2.94689e-05
1.91828e-05
1.23443e-05
7.78072e-06
4.68438e-06
2.48877e-06
7.78559e-07
3.01936
8.96543
14.639
19.8763
24.5383
28.5177
31.7421
34.1754
35.816
36.6929
36.8606
36.3931
35.3773
33.9078
32.0807
29.9897
27.7225
25.3582
22.9659
20.6034
18.3179
16.1457
14.1129
12.2373
10.5286
8.99012
7.61999
6.41227
5.35801
4.44619
3.66451
3.00009
2.43997
1.97153
1.58279
1.26263
1.00088
0.78845
0.61726
0.480271
0.371403
0.285472
0.218099
0.165627
0.125029
0.0938208
0.069986
0.0518987
0.0382598
0.0280402
0.0204305
0.0147994
0.0106582
0.00763139
0.00543266
0.00384517
0.00270594
0.00189334
0.00131719
0.000911135
0.00062667
0.000428568
0.000291426
0.000197045
0.000132474
8.85545e-05
5.88533e-05
3.88792e-05
2.5516e-05
1.6613e-05
1.06925e-05
6.7407e-06
4.05881e-06
2.15662e-06
6.7469e-07
2.40342
7.13898
11.6647
15.8536
19.5975
22.8111
25.4357
27.4401
28.8191
29.5919
29.7974
29.4908
28.7382
27.6124
26.1886
24.541
22.7397
20.8486
18.9243
17.0147
15.1591
13.3885
11.7257
10.1862
8.7795
7.50933
6.37519
5.37303
4.49623
3.73627
3.0835
2.52761
2.05817
1.66492
1.33809
1.06852
0.847841
0.668511
0.523825
0.407914
0.3157
0.242841
0.185664
0.141092
0.106578
0.0800252
0.0597306
0.0443188
0.0326896
0.0239702
0.0174736
0.0126634
0.009124
0.00653569
0.00465455
0.00329572
0.00232014
0.00162397
0.00113017
0.000782026
0.000538036
0.000368062
0.000250353
0.00016932
0.000113863
7.61327e-05
5.06097e-05
3.34409e-05
2.19515e-05
1.42951e-05
9.20234e-06
5.80224e-06
3.49425e-06
1.85684e-06
5.8096e-07
1.90851
5.67063
9.27101
12.6115
15.6075
18.1919
20.3174
21.9573
23.1052
23.7732
23.9895
23.795
23.2398
22.3799
21.2739
19.9802
18.5545
17.0484
15.5076
13.9714
12.4726
11.0369
9.68405
8.42764
7.27618
6.23369
5.30049
4.47395
3.74921
3.11976
2.57803
2.11588
1.72494
1.39693
1.1239
0.898394
0.713543
0.563137
0.441645
0.344206
0.266607
0.205233
0.157024
0.119411
0.090259
0.0678146
0.050647
0.0376004
0.0277492
0.0203581
0.0148479
0.0107656
0.00776014
0.00556114
0.00396213
0.00280655
0.00197652
0.00138395
0.000963467
0.000666893
0.000458969
0.000314067
0.000213687
0.000144561
9.72394e-05
6.50336e-05
4.32418e-05
2.85789e-05
1.8764e-05
1.22218e-05
7.86918e-06
4.96251e-06
2.98894e-06
1.58849e-06
4.97012e-07
1.51141
4.49195
7.34785
10.0032
12.3921
14.4618
16.1744
17.5077
18.4548
19.0235
19.2337
19.116
18.7082
18.0534
17.197
16.1847
15.0608
13.8663
12.6381
11.4083
10.2035
9.04555
7.95078
6.93102
5.99384
5.14315
4.37981
3.70219
3.10676
2.58859
2.14181
1.75999
1.43646
1.16458
0.937952
0.750508
0.596656
0.471318
0.369957
0.288574
0.223694
0.172329
0.131945
0.100408
0.0759451
0.057096
0.0426674
0.0316945
0.0234034
0.0171788
0.0125354
0.00909325
0.00655764
0.00470144
0.00335102
0.00237462
0.00167297
0.00117183
0.00081608
0.000565062
0.00038901
0.000266276
0.000181223
0.000122633
8.2511e-05
5.51972e-05
3.67102e-05
2.42677e-05
1.59368e-05
1.03824e-05
6.68611e-06
4.21714e-06
2.54034e-06
1.35019e-06
4.22487e-07
1.19339
3.54763
5.80587
7.90943
9.80719
11.4577
12.8309
13.9083
14.6836
15.1613
15.3559
15.2898
14.9917
14.4946
13.8336
13.0443
12.1617
11.2183
10.2437
9.26368
8.30016
7.37092
6.4897
5.66652
4.908
4.21778
3.597
3.04474
2.55848
2.1345
1.76827
1.45475
1.18867
0.964736
0.777798
0.622974
0.495733
0.391949
0.307922
0.240383
0.186484
0.143772
0.110159
0.0838864
0.0634907
0.0477626
0.035714
0.0265445
0.0196114
0.014403
0.0105151
0.00763138
0.00550593
0.00394916
0.002816
0.00199629
0.00140697
0.000985873
0.000686816
0.000475718
0.000327607
0.000224314
0.000152709
0.000103367
6.95665e-05
4.65495e-05
3.09663e-05
2.04753e-05
1.34492e-05
8.76361e-06
5.64466e-06
3.56082e-06
2.1453e-06
1.14036e-06
3.56868e-07
0.939285
2.79283
4.57252
6.23308
7.73486
9.04553
10.1412
11.0069
11.6368
12.0336
12.2076
12.1753
11.9585
11.5822
11.0737
10.4605
9.7701
9.02814
8.25815
7.4809
6.71406
5.97215
5.26654
4.60563
3.9951
3.43824
2.9363
2.48882
2.09406
1.74921
1.45082
1.19496
0.977473
0.794165
0.640926
0.513845
0.409273
0.323878
0.25466
0.198966
0.154474
0.119182
0.0913827
0.069636
0.0527395
0.0396995
0.0297027
0.0220893
0.0163288
0.0119984
0.00876403
0.0063636
0.00459336
0.00329606
0.00235129
0.00166753
0.00117571
0.000824133
0.000574342
0.000397947
0.000274138
0.000187761
0.000127862
8.65721e-05
5.82793e-05
3.90067e-05
2.59548e-05
1.71656e-05
1.12777e-05
7.35012e-06
4.7351e-06
2.98752e-06
1.80015e-06
9.5699e-07
2.99474e-07
0.736783
2.19114
3.58875
4.89475
6.07849
7.11479
7.9848
8.67651
9.1848
9.51108
9.66265
9.65185
9.49495
9.21108
8.82108
8.34646
7.80849
7.2274
6.6218
6.00823
5.40089
4.81154
4.24948
3.72168
3.23295
2.78618
2.38263
2.02215
1.70353
1.42472
1.18305
0.975503
0.798815
0.64968
0.52484
0.421176
0.335769
0.265942
0.209282
0.163643
0.127148
0.0981712
0.0753261
0.0574393
0.0435305
0.0327879
0.0245461
0.0182649
0.0135091
0.00993172
0.00725809
0.00527266
0.00380765
0.00273347
0.00195078
0.00138405
0.000976218
0.000684548
0.000477233
0.000330775
0.000227938
0.000156166
0.000106378
7.20458e-05
4.85133e-05
3.24785e-05
2.16162e-05
1.42995e-05
9.39669e-06
6.12543e-06
3.94685e-06
2.49063e-06
1.50094e-06
7.97982e-07
2.49716e-07
0.57588
1.71291
2.80644
3.82966
4.75894
5.57472
6.26225
6.81192
7.21936
7.4852
7.61464
7.61678
7.50386
7.29038
6.99232
6.62627
6.20874
5.75557
5.28138
4.79927
4.32059
3.85477
3.40936
2.9901
2.60099
2.24453
1.9219
1.63317
1.3775
1.15339
0.958827
0.79147
0.648792
0.528197
0.427113
0.34307
0.273746
0.217004
0.170911
0.133746
0.103997
0.080355
0.061699
0.0470797
0.0357024
0.0269083
0.0201564
0.015007
0.0111055
0.00816892
0.00597283
0.00434107
0.00313635
0.00225254
0.00160824
0.00114148
0.000805437
0.000565002
0.000394031
0.000273199
0.000188323
0.000129065
8.79425e-05
5.9577e-05
4.01279e-05
2.68715e-05
1.78888e-05
1.18364e-05
7.77975e-06
5.07242e-06
3.26898e-06
2.06322e-06
1.24352e-06
6.61197e-07
2.06926e-07
0.44844
1.33406
2.18639
2.98489
3.71138
4.35074
4.89145
5.3259
5.65044
5.86523
5.97396
5.98333
5.90252
5.74251
5.51549
5.23422
4.91147
4.55954
4.18991
3.81287
3.43741
3.07106
2.71992
2.38862
2.08049
1.79764
1.54115
1.31119
1.10721
0.92812
0.772398
0.638252
0.523725
0.426794
0.345442
0.277722
0.221796
0.175971
0.138706
0.108628
0.0845292
0.06536
0.05022
0.0383461
0.0290979
0.021944
0.0164475
0.0122525
0.00907207
0.00667663
0.00488415
0.00355151
0.00256709
0.00184451
0.00131747
0.000935479
0.000660337
0.000463388
0.00032328
0.00022422
0.00015461
0.000105993
7.22429e-05
4.89549e-05
3.29822e-05
2.2092e-05
1.47105e-05
9.7356e-06
6.40034e-06
4.17386e-06
2.69039e-06
1.69828e-06
1.02369e-06
5.44368e-07
1.70393e-07
0.347853
1.03497
1.69668
2.31728
2.88282
3.38167
3.80488
4.14645
4.40338
4.57557
4.66562
4.67848
4.62099
4.50146
4.32915
4.11384
3.86536
3.59324
3.30639
3.01289
2.71982
2.43314
2.15772
1.89731
1.65461
1.4314
1.22862
1.04649
0.884683
0.74239
0.61848
0.511586
0.420202
0.342757
0.277678
0.22344
0.178598
0.141815
0.111871
0.0876797
0.0682785
0.0528319
0.0406217
0.0310375
0.0235668
0.0177836
0.0133369
0.00994084
0.00736442
0.00542268
0.00396882
0.0028873
0.00208794
0.00150089
0.00107249
0.000761831
0.00053797
0.000377657
0.000263563
0.000182863
0.000126133
8.64972e-05
5.89722e-05
3.99732e-05
2.69381e-05
1.80481e-05
1.20206e-05
7.95721e-06
5.23231e-06
3.41279e-06
2.2002e-06
1.38907e-06
8.37413e-07
4.45346e-07
1.39394e-07
0.268751
0.799715
1.31134
1.79167
2.23002
2.61748
2.94713
3.21427
3.41646
3.55348
3.62716
3.64113
3.60049
3.51151
3.3812
3.21701
3.02649
2.81698
2.59538
2.36798
2.14032
1.91711
1.70218
1.49855
1.30841
1.13322
0.973778
0.830346
0.702713
0.590306
0.492279
0.407598
0.335109
0.2736
0.22185
0.178671
0.142933
0.113586
0.0896731
0.0703343
0.0548108
0.0424406
0.0326538
0.0249657
0.0189683
0.0143221
0.0107471
0.00801496
0.00594085
0.00437669
0.00320485
0.00233262
0.00168759
0.00121363
0.000867582
0.000616527
0.00043553
0.000305856
0.000213529
0.000148198
0.000102256
7.01441e-05
4.78369e-05
3.24343e-05
2.18633e-05
1.46517e-05
9.76082e-06
6.46275e-06
4.2505e-06
2.77295e-06
1.788e-06
1.12902e-06
6.80748e-07
3.62071e-07
1.13304e-07
0.206783
0.615391
1.00933
1.37949
1.71777
2.01734
2.27286
2.4807
2.63889
2.74717
2.8068
2.82045
2.79192
2.72591
2.62772
2.503
2.35753
2.19692
2.02651
1.85115
1.67516
1.50222
1.33536
1.17696
1.02878
0.892016
0.767345
0.655013
0.554904
0.46661
0.389506
0.322811
0.265647
0.217082
0.176175
0.142005
0.113694
0.0904214
0.0714393
0.056074
0.0437289
0.0338829
0.0260867
0.0199575
0.0151725
0.0114628
0.00860645
0.00642201
0.00476263
0.00351047
0.00257181
0.00187275
0.00135549
0.000975222
0.000697444
0.000495819
0.000350392
0.000246157
0.000171911
0.000119353
8.23789e-05
5.65265e-05
3.85611e-05
2.61523e-05
1.76334e-05
1.18199e-05
7.87612e-06
5.216e-06
3.43121e-06
2.2389e-06
1.44391e-06
9.11896e-07
5.4989e-07
2.92498e-07
9.1549e-08
0.158433
0.471551
0.773571
1.0576
1.31749
1.54802
1.74514
1.906
2.02906
2.11404
2.16183
2.17437
2.15449
2.10569
2.03197
1.93762
1.82701
1.70443
1.57398
1.43939
1.304
1.17068
1.04179
0.919216
0.80435
0.698157
0.601203
0.513715
0.435633
0.366672
0.306372
0.254146
0.209328
0.171208
0.139063
0.112183
0.089888
0.0715435
0.0565665
0.0444319
0.034674
0.0268848
0.0207123
0.0158557
0.0120614
0.0091177
0.00684955
0.00511381
0.00379443
0.00279823
0.002051
0.0014942
0.00108198
0.000778775
0.000557181
0.000396261
0.000280141
0.000196875
0.000137541
9.55231e-05
6.59518e-05
4.52682e-05
3.08897e-05
2.09552e-05
1.41328e-05
9.47573e-06
6.31556e-06
4.18339e-06
2.75248e-06
1.79634e-06
1.1587e-06
7.31883e-07
4.41392e-07
2.34783e-07
7.35118e-08
0.120866
0.359772
0.590313
0.807289
1.00604
1.18262
1.33393
1.4578
1.55299
1.61926
1.65721
1.66826
1.65451
1.61857
1.56344
1.49234
1.40859
1.31546
1.21605
1.11324
1.0096
0.907328
0.808279
0.713916
0.625345
0.543332
0.468343
0.400578
0.340016
0.286459
0.239567
0.198906
0.163971
0.134224
0.109112
0.0880912
0.0706389
0.0562648
0.0445185
0.034993
0.0273266
0.0212019
0.0163445
0.0125197
0.00952941
0.00720778
0.00541775
0.00404699
0.0030044
0.00221671
0.00162555
0.00118479
0.000858309
0.000618046
0.000442366
0.000314729
0.000222584
0.000156482
0.000109359
7.59754e-05
5.24718e-05
3.60265e-05
2.45904e-05
1.66863e-05
1.12566e-05
7.54906e-06
5.03256e-06
3.33426e-06
2.19424e-06
1.43227e-06
9.23977e-07
5.83697e-07
3.52067e-07
1.87285e-07
5.86512e-08
0.0918011
0.273281
0.448478
0.613482
0.764783
0.899402
1.01498
1.10986
1.18309
1.23444
1.26432
1.27378
1.26435
1.23798
1.1969
1.14355
1.08041
1.00996
0.934561
0.856402
0.777444
0.699388
0.623657
0.55139
0.483453
0.420454
0.362767
0.310568
0.263856
0.222494
0.186236
0.154759
0.127685
0.104606
0.0851025
0.0687603
0.0551791
0.0439829
0.0348253
0.0273926
0.0214055
0.0166186
0.0128192
0.00982532
0.00748292
0.00566306
0.00425896
0.00318307
0.00236424
0.00174524
0.00128041
0.000933655
0.000676674
0.00048746
0.00034904
0.000248426
0.000175758
0.000123606
8.64126e-05
6.00531e-05
4.1488e-05
2.84935e-05
1.9454e-05
1.32044e-05
8.90991e-06
5.9767e-06
3.98521e-06
2.64091e-06
1.7383e-06
1.13488e-06
7.32246e-07
4.62623e-07
2.79079e-07
1.4849e-07
4.64885e-08
0.0694137
0.206653
0.339191
0.464098
0.578741
0.680879
0.768734
0.84104
0.897063
0.936599
0.959945
0.967847
0.961438
0.942159
0.911679
0.871807
0.824415
0.771365
0.714443
0.655307
0.59545
0.536172
0.478564
0.423506
0.371671
0.323534
0.279399
0.239408
0.203578
0.171813
0.143936
0.119707
0.0988447
0.0810422
0.0659831
0.0533523
0.0428456
0.0341762
0.027079
0.0213139
0.0166662
0.0129472
0.00999331
0.00766393
0.00584015
0.00442226
0.00332758
0.00248826
0.00184909
0.00136562
0.00100236
0.000731235
0.000530196
0.000382098
0.000273706
0.000194882
0.000137927
9.70344e-05
6.78591e-05
4.71743e-05
3.26005e-05
2.23961e-05
1.52952e-05
1.03843e-05
7.00868e-06
4.70245e-06
3.13623e-06
2.07872e-06
1.3685e-06
8.93599e-07
5.76682e-07
3.6438e-07
2.19847e-07
1.17001e-07
3.66264e-08
0.0522474
0.155559
0.255365
0.349481
0.435939
0.513061
0.57951
0.634328
0.676952
0.707213
0.725312
0.731791
0.727479
0.71344
0.690912
0.66124
0.625824
0.586059
0.543287
0.498759
0.453606
0.408814
0.365216
0.323486
0.284143
0.24756
0.213973
0.183504
0.156172
0.131913
0.1106
0.0920555
0.0760714
0.062418
0.0508574
0.0411519
0.0330713
0.0263977
0.0209299
0.0164846
0.0128982
0.0100262
0.00774332
0.00594183
0.00453039
0.00343235
0.00258407
0.00193326
0.00143736
0.00106205
0.000779896
0.000569193
0.00041288
0.000297673
0.000213313
0.000151939
0.000107573
7.57059e-05
5.29609e-05
3.68289e-05
2.54588e-05
1.74948e-05
1.19511e-05
8.11599e-06
5.47904e-06
3.67697e-06
2.45281e-06
1.62606e-06
1.07067e-06
6.99211e-07
4.51291e-07
2.85224e-07
1.72108e-07
9.15852e-08
2.86851e-08
0.0391451
0.116557
0.191366
0.261949
0.326841
0.384792
0.4348
0.476146
0.5084
0.531423
0.545353
0.550581
0.547712
0.537529
0.520945
0.498959
0.472611
0.442941
0.410953
0.377587
0.343693
0.310017
0.27719
0.245725
0.216022
0.188366
0.162945
0.139857
0.119122
0.100698
0.084494
0.070381
0.0582041
0.0477927
0.0389689
0.0315544
0.0253757
0.0202686
0.0160808
0.0126735
0.00992229
0.00771758
0.00596382
0.00457892
0.00349314
0.00264791
0.00199452
0.00149294
0.00111052
0.000820928
0.000603106
0.000440357
0.000319558
0.000230483
0.000165229
0.000117733
8.33847e-05
5.87029e-05
4.10796e-05
2.85755e-05
1.97593e-05
1.3582e-05
9.28065e-06
6.30405e-06
4.25683e-06
2.85741e-06
1.9065e-06
1.2641e-06
8.32474e-07
5.4376e-07
3.50993e-07
2.21863e-07
1.33892e-07
7.12496e-08
2.22959e-08
0.0291916
0.0869254
0.142735
0.195418
0.24389
0.287222
0.32467
0.355693
0.379967
0.397381
0.408028
0.412189
0.410304
0.402947
0.390789
0.374569
0.355054
0.333019
0.30921
0.284329
0.259013
0.233822
0.209231
0.18563
0.163322
0.142527
0.12339
0.105989
0.0903448
0.0764301
0.0641794
0.053499
0.044275
0.0363811
0.0296848
0.0240531
0.0193561
0.0154706
0.0122819
0.00968548
0.00758749
0.00590502
0.00456574
0.00350744
0.00267717
0.00203043
0.00153018
0.00114593
0.000852798
0.000630702
0.000463558
0.00033861
0.000245823
0.000177372
0.000127202
9.06705e-05
6.42401e-05
4.52402e-05
3.16686e-05
2.20358e-05
1.52417e-05
1.04796e-05
7.16263e-06
4.86653e-06
3.2869e-06
2.20682e-06
1.47272e-06
9.76644e-07
6.43277e-07
4.20271e-07
2.71346e-07
1.71494e-07
1.03509e-07
5.50949e-08
1.72282e-08
0.0216662
0.0645205
0.105958
0.145092
0.181124
0.213366
0.241267
0.264425
0.282595
0.29569
0.303772
0.307043
0.305823
0.300529
0.291653
0.279738
0.265351
0.249062
0.231426
0.212963
0.194148
0.175399
0.157072
0.139461
0.122795
0.107242
0.0929126
0.0798696
0.0681313
0.0576801
0.0484697
0.0404324
0.0334846
0.0275334
0.0224808
0.0182278
0.0146778
0.0117388
0.009325
0.00735808
0.00576761
0.00449124
0.00347454
0.0026706
0.0020395