/*--------------------------------*- C++ -*----------------------------------*\
  =========                 |
  \\      /  F ield         | OpenFOAM: The Open Source CFD Toolbox
   \\    /   O peration     | Website:  https://openfoam.org
    \\  /    A nd           | Version:  10
     \\/     M anipulation  |
\*---------------------------------------------------------------------------*/
FoamFile
{
    format      ascii;
    class       volScalarField;
    location    "423";
    object      T;
}
// * * * * * * * * * * * * * * * * * * * * * * * * * * * * * * * * * * * * * //

dimensions      [0 0 0 1 0 0 0];

internalField   nonuniform List<scalar> 
11250
(
249.874
167.652
139.518
127.162
120.444
116.199
113.241
111.041
109.331
107.956
106.826
105.88
105.077
104.39
103.796
103.282
102.834
102.443
102.103
101.805
101.546
101.32
101.124
100.954
100.806
100.68
100.571
100.477
100.398
100.33
100.273
100.225
100.184
100.15
100.122
100.099
100.08
100.064
100.051
100.041
100.032
100.025
100.02
100.015
100.012
100.009
100.007
100.005
100.004
100.003
100.002
100.002
100.001
100.001
100.001
100.001
100
100
100
100
100
100
100
100
100
100
100
100
100
100
100
100
100
100
100
331.595
248.874
202.78
175.857
158.87
147.326
138.981
132.652
127.673
123.645
120.315
117.518
115.139
113.097
111.332
109.8
108.465
107.301
106.284
105.396
104.622
103.947
103.361
102.852
102.412
102.033
101.707
101.428
101.19
100.987
100.816
100.672
100.551
100.45
100.365
100.296
100.238
100.191
100.153
100.121
100.096
100.076
100.059
100.046
100.036
100.028
100.021
100.016
100.013
100.01
100.007
100.005
100.004
100.003
100.002
100.002
100.001
100.001
100.001
100
100
100
100
100
100
100
100
100
100
100
100
100
100
100
100
359.233
293.478
246.893
214.642
191.889
175.292
162.75
152.965
145.121
138.694
133.334
128.802
124.929
121.592
118.701
116.185
113.99
112.073
110.396
108.931
107.652
106.537
105.567
104.725
103.997
103.369
102.83
102.367
101.973
101.637
101.354
101.114
100.914
100.746
100.606
100.491
100.395
100.317
100.253
100.201
100.159
100.126
100.099
100.077
100.06
100.046
100.036
100.027
100.021
100.016
100.012
100.009
100.007
100.005
100.004
100.003
100.002
100.001
100.001
100.001
100.001
100
100
100
100
100
100
100
100
100
100
100
100
100
100
371.098
318.932
276.704
243.974
218.807
199.269
183.839
171.421
161.246
152.775
145.628
139.533
134.291
129.752
125.804
122.358
119.345
116.706
114.395
112.374
110.607
109.065
107.723
106.558
105.549
104.678
103.93
103.288
102.741
102.275
101.881
101.549
101.27
101.037
100.843
100.682
100.55
100.441
100.352
100.28
100.222
100.175
100.137
100.107
100.083
100.064
100.05
100.038
100.029
100.022
100.017
100.013
100.009
100.007
100.005
100.004
100.003
100.002
100.001
100.001
100.001
100.001
100
100
100
100
100
100
100
100
100
100
100
100
100
377.334
334.476
297.061
265.804
240.175
219.231
202.023
187.754
175.794
165.668
157.014
149.561
143.101
137.475
132.558
128.25
124.471
121.154
118.244
115.693
113.46
111.51
109.81
108.334
107.054
105.949
104.999
104.184
103.488
102.896
102.395
101.972
101.618
101.321
101.074
100.869
100.701
100.562
100.449
100.357
100.283
100.223
100.175
100.137
100.106
100.082
100.063
100.048
100.037
100.028
100.021
100.016
100.012
100.009
100.007
100.005
100.004
100.003
100.002
100.001
100.001
100.001
100.001
100
100
100
100
100
100
100
100
100
100
100
100
381.108
344.613
311.319
282.083
256.96
235.575
217.406
201.927
188.675
177.264
167.383
158.785
151.271
144.684
138.897
133.805
129.323
125.378
121.908
118.861
116.19
113.853
111.814
110.041
108.503
107.174
106.03
105.049
104.21
103.497
102.892
102.382
101.954
101.596
101.298
101.051
100.847
100.68
100.543
100.432
100.342
100.269
100.211
100.165
100.128
100.099
100.077
100.059
100.045
100.034
100.026
100.019
100.014
100.011
100.008
100.006
100.004
100.003
100.002
100.002
100.001
100.001
100.001
100
100
100
100
100
100
100
100
100
100
100
100
383.61
351.589
321.588
294.348
270.126
248.847
230.262
214.057
199.913
187.542
176.693
167.154
158.749
151.331
144.777
138.985
133.867
129.348
125.364
121.857
118.776
116.078
113.72
111.667
109.886
108.344
107.016
105.877
104.902
104.073
103.37
102.776
102.278
101.861
101.513
101.225
100.988
100.793
100.634
100.504
100.399
100.315
100.247
100.193
100.15
100.116
100.089
100.068
100.052
100.04
100.03
100.023
100.017
100.013
100.009
100.007
100.005
100.004
100.003
100.002
100.001
100.001
100.001
100.001
100
100
100
100
100
100
100
100
100
100
100
385.368
356.595
329.176
303.707
280.49
259.594
240.932
224.339
209.611
196.546
184.952
174.658
165.514
157.389
150.171
143.763
138.078
133.042
128.59
124.663
121.206
118.173
115.519
113.205
111.195
109.454
107.953
106.664
105.561
104.621
103.825
103.152
102.587
102.113
101.719
101.392
101.123
100.901
100.72
100.573
100.454
100.358
100.281
100.219
100.171
100.132
100.102
100.078
100.059
100.045
100.034
100.026
100.019
100.014
100.011
100.008
100.006
100.004
100.003
100.002
100.002
100.001
100.001
100.001
100
100
100
100
100
100
100
100
100
100
100
386.654
360.303
334.909
310.943
288.695
268.297
249.755
232.999
217.913
204.362
192.209
181.32
171.573
162.857
155.072
148.127
141.944
136.449
131.576
127.268
123.469
120.129
117.202
114.647
112.424
110.498
108.835
107.406
106.183
105.14
104.256
103.508
102.88
102.353
101.915
101.551
101.251
101.004
100.803
100.639
100.506
100.399
100.313
100.245
100.19
100.147
100.113
100.087
100.066
100.05
100.038
100.029
100.021
100.016
100.012
100.009
100.006
100.005
100.003
100.002
100.002
100.001
100.001
100.001
100
100
100
100
100
100
100
100
100
100
100
387.623
363.116
339.317
316.602
295.232
275.358
257.038
240.263
224.976
211.098
198.533
187.183
176.952
167.747
159.483
152.079
145.462
139.562
134.316
129.667
125.558
121.94
118.764
115.988
113.57
111.473
109.661
108.102
106.766
105.628
104.66
103.843
103.155
102.58
102.099
101.701
101.372
101.102
100.881
100.701
100.555
100.438
100.344
100.269
100.209
100.162
100.125
100.096
100.073
100.055
100.042
100.032
100.024
100.018
100.013
100.01
100.007
100.005
100.004
100.003
100.002
100.001
100.001
100.001
100.001
100
100
100
100
100
100
100
100
100
100
388.367
365.289
342.757
321.075
300.471
281.101
263.047
246.338
230.959
216.868
204.006
192.304
181.689
172.085
163.422
155.628
148.636
142.384
136.81
131.858
127.472
123.604
120.203
117.227
114.631
112.376
110.427
108.749
107.31
106.082
105.038
104.156
103.414
102.791
102.272
101.842
101.486
101.194
100.954
100.76
100.602
100.475
100.373
100.291
100.226
100.175
100.135
100.104
100.079
100.06
100.045
100.034
100.026
100.019
100.014
100.01
100.008
100.006
100.004
100.003
100.002
100.002
100.001
100.001
100.001
100
100
100
100
100
100
100
100
100
100
388.948
366.993
345.473
324.639
304.694
285.785
268.007
251.41
236.009
221.789
208.718
196.75
185.832
175.906
166.913
158.79
151.48
144.923
139.062
133.843
129.213
125.121
121.519
118.361
115.605
113.208
111.133
109.346
107.812
106.502
105.389
104.447
103.653
102.988
102.433
101.973
101.592
101.279
101.023
100.814
100.645
100.509
100.4
100.312
100.243
100.188
100.145
100.111
100.085
100.065
100.049
100.037
100.028
100.021
100.015
100.011
100.008
100.006
100.004
100.003
100.002
100.002
100.001
100.001
100.001
100
100
100
100
100
100
100
100
100
100
389.407
368.342
347.636
327.5
308.113
289.613
272.102
255.64
240.26
225.969
212.754
200.588
189.435
179.25
169.985
161.589
154.008
147.19
141.082
135.63
130.785
126.495
122.714
119.394
116.493
113.968
111.78
109.893
108.274
106.889
105.712
104.715
103.875
103.17
102.582
102.094
101.69
101.358
101.086
100.865
100.686
100.541
100.425
100.332
100.258
100.2
100.154
100.118
100.09
100.069
100.052
100.039
100.029
100.022
100.016
100.012
100.009
100.006
100.005
100.003
100.002
100.002
100.001
100.001
100.001
100
100
100
100
100
100
100
100
100
100
389.772
369.42
349.371
329.808
310.891
292.75
275.484
259.163
243.83
229.507
216.196
203.885
192.55
182.159
172.673
164.05
156.242
149.202
142.88
137.227
132.194
127.731
123.791
120.328
117.297
114.657
112.368
110.392
108.694
107.243
106.007
104.96
104.078
103.337
102.719
102.205
101.781
101.431
101.145
100.912
100.723
100.57
100.448
100.35
100.272
100.211
100.163
100.125
100.095
100.072
100.055
100.041
100.031
100.023
100.017
100.013
100.009
100.007
100.005
100.004
100.003
100.002
100.001
100.001
100.001
100
100
100
100
100
100
100
100
100
100
390.066
370.287
350.77
331.679
313.156
295.324
278.279
262.095
246.823
232.494
219.122
206.705
195.23
184.676
175.011
166.2
158.202
150.975
144.471
138.645
133.449
128.834
124.755
121.166
118.021
115.279
112.899
110.844
109.076
107.563
106.275
105.183
104.263
103.49
102.844
102.307
101.863
101.498
101.199
100.955
100.757
100.597
100.469
100.367
100.286
100.221
100.171
100.131
100.1
100.076
100.057
100.043
100.032
100.024
100.018
100.013
100.01
100.007
100.005
100.004
100.003
100.002
100.001
100.001
100.001
100
100
100
100
100
100
100
100
100
100
390.303
370.987
351.904
333.2
315.007
297.438
280.588
264.532
249.327
235.008
221.599
209.107
197.526
186.843
177.033
168.069
159.913
152.528
145.87
139.896
134.559
129.813
125.613
121.913
118.668
115.836
113.376
111.249
109.42
107.853
106.518
105.385
104.43
103.628
102.957
102.4
101.938
101.559
101.248
100.994
100.788
100.622
100.489
100.382
100.297
100.23
100.178
100.136
100.104
100.079
100.06
100.045
100.034
100.025
100.019
100.014
100.01
100.007
100.005
100.004
100.003
100.002
100.001
100.001
100.001
100.001
100
100
100
100
100
100
100
100
100
390.494
371.554
352.826
334.441
316.521
299.176
282.496
266.557
251.417
237.119
223.69
211.144
199.483
188.699
178.774
169.684
161.398
153.881
147.093
140.992
135.535
130.677
126.372
122.575
119.243
116.332
113.801
111.612
109.727
108.112
106.735
105.567
104.581
103.752
103.059
102.483
102.006
101.614
101.292
101.029
100.816
100.645
100.506
100.396
100.308
100.239
100.184
100.141
100.108
100.082
100.062
100.047
100.035
100.026
100.019
100.014
100.011
100.008
100.006
100.004
100.003
100.002
100.002
100.001
100.001
100.001
100
100
100
100
100
100
100
100
100
390.65
372.016
353.576
335.453
317.762
300.605
284.072
268.237
253.16
238.887
225.45
212.867
201.146
190.283
180.265
171.073
162.68
155.053
148.156
141.948
136.389
131.434
127.039
123.159
119.75
116.77
114.178
111.934
110
108.343
106.929
105.729
104.715
103.863
103.151
102.558
102.067
101.663
101.332
101.061
100.842
100.665
100.522
100.409
100.318
100.247
100.19
100.146
100.111
100.085
100.064
100.048
100.036
100.027
100.02
100.015
100.011
100.008
100.006
100.004
100.003
100.002
100.002
100.001
100.001
100.001
100
100
100
100
100
100
100
100
100
390.777
372.391
354.187
336.28
318.778
301.78
285.372
269.628
254.61
240.364
226.926
214.319
202.552
191.628
181.537
172.262
163.78
156.063
149.074
142.777
137.131
132.094
127.621
123.67
120.195
117.156
114.51
112.218
110.242
108.547
107.101
105.873
104.835
103.963
103.233
102.625
102.122
101.707
101.367
101.09
100.865
100.683
100.537
100.42
100.327
100.253
100.195
100.15
100.115
100.087
100.066
100.05
100.037
100.028
100.021
100.015
100.011
100.008
100.006
100.004
100.003
100.002
100.002
100.001
100.001
100.001
100
100
100
100
100
100
100
100
100
390.88
372.697
354.686
336.956
319.611
302.745
286.443
270.779
255.813
241.595
228.161
215.538
203.738
192.766
182.616
173.275
164.721
156.928
149.864
143.492
137.773
132.666
128.127
124.114
120.584
117.493
114.801
112.467
110.454
108.727
107.253
106
104.941
104.05
103.305
102.684
102.17
101.746
101.399
101.115
100.885
100.699
100.549
100.43
100.335
100.259
100.2
100.154
100.117
100.089
100.068
100.051
100.038
100.028
100.021
100.016
100.011
100.008
100.006
100.004
100.003
100.002
100.002
100.001
100.001
100.001
100
100
100
100
100
100
100
100
100
390.964
372.947
355.093
337.509
320.293
303.538
287.326
271.729
256.81
242.618
229.191
216.557
204.733
193.724
183.528
174.133
165.521
157.667
150.539
144.105
138.325
133.159
128.564
124.5
120.921
117.786
115.054
112.684
110.64
108.885
107.385
106.111
105.034
104.127
103.369
102.737
102.213
101.781
101.427
101.138
100.903
100.713
100.561
100.439
100.342
100.265
100.204
100.157
100.12
100.091
100.069
100.052
100.039
100.029
100.022
100.016
100.012
100.009
100.006
100.005
100.003
100.002
100.002
100.001
100.001
100.001
100
100
100
100
100
100
100
100
100
391.032
373.15
355.425
337.96
320.851
304.187
288.051
272.512
257.634
243.466
230.047
217.408
205.566
194.528
184.296
174.858
166.198
158.293
151.114
144.628
138.796
133.581
128.94
124.831
121.211
118.039
115.273
112.873
110.801
109.022
107.501
106.208
105.115
104.195
103.424
102.782
102.25
101.811
101.451
101.157
100.919
100.726
100.571
100.447
100.348
100.27
100.208
100.16
100.122
100.093
100.07
100.053
100.04
100.03
100.022
100.016
100.012
100.009
100.006
100.005
100.003
100.002
100.002
100.001
100.001
100.001
100
100
100
100
100
100
100
100
100
391.088
373.315
355.696
338.328
321.307
304.719
288.645
273.156
258.313
244.166
230.757
218.115
206.26
195.201
184.939
175.467
166.769
158.823
151.601
145.072
139.198
133.941
129.261
125.115
121.461
118.257
115.461
113.035
110.94
109.14
107.601
106.293
105.185
104.253
103.473
102.822
102.283
101.838
101.473
101.175
100.933
100.737
100.579
100.454
100.353
100.274
100.211
100.162
100.124
100.094
100.071
100.054
100.04
100.03
100.022
100.017
100.012
100.009
100.006
100.005
100.003
100.002
100.002
100.001
100.001
100.001
100
100
100
100
100
100
100
100
100
391.133
373.45
355.916
338.628
321.679
305.154
289.132
273.685
258.871
244.744
231.344
218.701
206.836
195.761
185.476
175.977
167.248
159.268
152.012
145.447
139.538
134.247
129.534
125.357
121.674
118.443
115.623
113.175
111.06
109.242
107.688
106.365
105.246
104.304
103.515
102.857
102.311
101.861
101.491
101.19
100.945
100.746
100.587
100.46
100.358
100.278
100.214
100.165
100.126
100.096
100.072
100.055
100.041
100.031
100.023
100.017
100.012
100.009
100.007
100.005
100.003
100.002
100.002
100.001
100.001
100.001
100
100
100
100
100
100
100
100
100
391.17
373.559
356.095
338.872
321.982
305.509
289.53
274.117
259.329
245.219
231.827
219.184
207.313
196.225
185.923
176.402
167.648
159.641
152.356
145.762
139.824
134.505
129.765
125.562
121.854
118.601
115.76
113.293
111.162
109.329
107.761
106.428
105.299
104.348
103.551
102.886
102.335
101.881
101.508
101.203
100.955
100.755
100.594
100.465
100.362
100.281
100.217
100.166
100.127
100.097
100.073
100.055
100.041
100.031
100.023
100.017
100.012
100.009
100.007
100.005
100.003
100.003
100.002
100.001
100.001
100.001
100
100
100
100
100
100
100
100
100
391.2
373.648
356.24
339.07
322.228
305.797
289.855
274.47
259.704
245.608
232.223
219.582
207.706
196.609
186.293
176.754
167.98
159.952
152.644
146.026
140.064
134.722
129.959
125.734
122.007
118.734
115.877
113.394
111.248
109.403
107.824
106.481
105.343
104.385
103.582
102.912
102.356
101.898
101.521
101.214
100.964
100.762
100.599
100.469
100.366
100.284
100.219
100.168
100.129
100.098
100.074
100.056
100.042
100.031
100.023
100.017
100.013
100.009
100.007
100.005
100.004
100.003
100.002
100.001
100.001
100.001
100
100
100
100
100
100
100
100
100
391.224
373.719
356.358
339.231
322.428
306.031
290.118
274.757
260.009
245.926
232.548
219.908
208.029
196.924
186.598
177.045
168.255
160.209
152.883
146.246
140.265
134.903
130.121
125.879
122.135
118.847
115.975
113.479
111.321
109.466
107.878
106.526
105.381
104.416
103.608
102.934
102.374
101.912
101.533
101.223
100.972
100.768
100.604
100.473
100.369
100.286
100.221
100.17
100.13
100.099
100.075
100.056
100.042
100.032
100.023
100.017
100.013
100.009
100.007
100.005
100.004
100.003
100.002
100.001
100.001
100.001
100
100
100
100
100
100
100
100
100
391.243
373.777
356.452
339.36
322.589
306.221
290.332
274.991
260.258
246.184
232.812
220.175
208.294
197.183
186.848
177.285
168.482
160.422
153.08
146.428
140.431
135.054
130.257
126
122.242
118.941
116.057
113.551
111.383
109.518
107.923
106.564
105.413
104.443
103.63
102.952
102.389
101.925
101.543
101.232
100.978
100.773
100.608
100.476
100.371
100.288
100.222
100.171
100.131
100.099
100.075
100.057
100.043
100.032
100.024
100.017
100.013
100.009
100.007
100.005
100.004
100.003
100.002
100.001
100.001
100.001
100
100
100
100
100
100
100
100
100
391.259
373.824
356.529
339.465
322.719
306.374
290.504
275.179
260.459
246.394
233.028
220.391
208.509
197.395
187.053
177.482
168.669
160.597
153.243
146.578
140.568
135.178
130.369
126.1
122.331
119.019
116.126
113.61
111.434
109.562
107.96
106.596
105.44
104.466
103.649
102.967
102.402
101.935
101.552
101.238
100.984
100.778
100.612
100.479
100.373
100.29
100.224
100.172
100.131
100.1
100.076
100.057
100.043
100.032
100.024
100.018
100.013
100.009
100.007
100.005
100.004
100.003
100.002
100.001
100.001
100.001
100
100
100
100
100
100
100
100
100
391.272
373.861
356.59
339.549
322.824
306.497
290.644
275.332
260.621
246.564
233.202
220.567
208.684
197.567
187.22
177.642
168.821
160.741
153.377
146.701
140.682
135.281
130.462
126.183
122.404
119.084
116.183
113.66
111.477
109.599
107.991
106.622
105.462
104.484
103.664
102.98
102.413
101.944
101.559
101.244
100.988
100.781
100.615
100.481
100.375
100.291
100.225
100.173
100.132
100.1
100.076
100.057
100.043
100.032
100.024
100.018
100.013
100.01
100.007
100.005
100.004
100.003
100.002
100.001
100.001
100.001
100
100
100
100
100
100
100
100
100
391.282
373.891
356.639
339.616
322.908
306.596
290.755
275.454
260.752
246.701
233.342
220.71
208.826
197.706
187.356
177.772
168.945
160.857
153.486
146.802
140.774
135.365
130.538
126.251
122.465
119.138
116.23
113.701
111.513
109.63
108.018
106.644
105.481
104.5
103.677
102.991
102.422
101.951
101.565
101.249
100.992
100.785
100.617
100.483
100.377
100.292
100.226
100.173
100.133
100.101
100.076
100.058
100.043
100.032
100.024
100.018
100.013
100.01
100.007
100.005
100.004
100.003
100.002
100.001
100.001
100.001
100
100
100
100
100
100
100
100
100
391.29
373.915
356.679
339.67
322.975
306.675
290.845
275.552
260.857
246.811
233.455
220.824
208.94
197.819
187.465
177.878
169.046
160.952
153.574
146.884
140.85
135.434
130.6
126.307
122.515
119.182
116.268
113.734
111.542
109.655
108.039
106.663
105.496
104.513
103.688
103
102.429
101.957
101.57
101.253
100.995
100.787
100.619
100.485
100.378
100.293
100.226
100.174
100.133
100.101
100.077
100.058
100.043
100.032
100.024
100.018
100.013
100.01
100.007
100.005
100.004
100.003
100.002
100.001
100.001
100.001
100
100
100
100
100
100
100
100
100
391.296
373.934
356.71
339.713
323.029
306.738
290.916
275.631
260.941
246.899
233.546
220.916
209.032
197.909
187.554
177.963
169.127
161.029
153.646
146.951
140.911
135.49
130.65
126.352
122.555
119.218
116.3
113.762
111.566
109.675
108.057
106.678
105.509
104.524
103.697
103.008
102.435
101.962
101.574
101.256
100.998
100.789
100.621
100.486
100.379
100.294
100.227
100.175
100.133
100.102
100.077
100.058
100.044
100.032
100.024
100.018
100.013
100.01
100.007
100.005
100.004
100.003
100.002
100.001
100.001
100.001
100
100
100
100
100
100
100
100
100
391.301
373.949
356.735
339.747
323.071
306.788
290.973
275.693
261.008
246.969
233.618
220.989
209.105
197.982
187.624
178.031
169.192
161.09
153.704
147.005
140.96
135.535
130.691
126.389
122.588
119.247
116.325
113.784
111.585
109.692
108.071
106.69
105.519
104.532
103.704
103.014
102.44
101.966
101.577
101.259
101
100.791
100.623
100.488
100.38
100.295
100.228
100.175
100.134
100.102
100.077
100.058
100.044
100.033
100.024
100.018
100.013
100.01
100.007
100.005
100.004
100.003
100.002
100.001
100.001
100.001
100
100
100
100
100
100
100
100
100
391.305
373.961
356.754
339.774
323.105
306.828
291.018
275.742
261.061
247.024
233.676
221.047
209.164
198.039
187.681
178.085
169.244
161.14
153.75
147.048
141
135.571
130.724
126.419
122.614
119.27
116.346
113.802
111.601
109.706
108.083
106.7
105.528
104.539
103.71
103.019
102.444
101.97
101.58
101.261
101.002
100.792
100.624
100.489
100.381
100.295
100.228
100.175
100.134
100.102
100.077
100.058
100.044
100.033
100.024
100.018
100.013
100.01
100.007
100.005
100.004
100.003
100.002
100.001
100.001
100.001
100
100
100
100
100
100
100
100
100
391.308
373.971
356.77
339.795
323.131
306.859
291.054
275.781
261.103
247.068
233.721
221.094
209.21
198.085
187.726
178.129
169.286
161.179
153.787
147.082
141.032
135.6
130.751
126.443
122.636
119.289
116.363
113.817
111.614
109.717
108.092
106.708
105.535
104.545
103.715
103.023
102.447
101.972
101.582
101.263
101.004
100.794
100.625
100.489
100.381
100.296
100.228
100.176
100.134
100.102
100.077
100.058
100.044
100.033
100.024
100.018
100.013
100.01
100.007
100.005
100.004
100.003
100.002
100.001
100.001
100.001
100
100
100
100
100
100
100
100
100
391.311
373.978
356.782
339.812
323.152
306.884
291.082
275.812
261.136
247.103
233.757
221.13
209.247
198.122
187.761
178.163
169.318
161.21
153.817
147.109
141.057
135.624
130.772
126.462
122.653
119.304
116.376
113.829
111.624
109.726
108.1
106.714
105.54
104.55
103.719
103.026
102.45
101.975
101.584
101.265
101.005
100.795
100.625
100.49
100.382
100.296
100.229
100.176
100.134
100.102
100.078
100.058
100.044
100.033
100.024
100.018
100.013
100.01
100.007
100.005
100.004
100.003
100.002
100.001
100.001
100.001
100
100
100
100
100
100
100
100
100
391.313
373.984
356.792
339.825
323.169
306.903
291.103
275.836
261.162
247.13
233.785
221.159
209.275
198.15
187.789
178.19
169.344
161.235
153.84
147.131
141.077
135.642
130.789
126.477
122.666
119.316
116.387
113.838
111.632
109.733
108.106
106.72
105.544
104.554
103.722
103.028
102.452
101.976
101.585
101.266
101.006
100.795
100.626
100.49
100.382
100.297
100.229
100.176
100.135
100.102
100.078
100.059
100.044
100.033
100.024
100.018
100.013
100.01
100.007
100.005
100.004
100.003
100.002
100.001
100.001
100.001
100
100
100
100
100
100
100
100
100
391.314
373.988
356.799
339.835
323.181
306.918
291.121
275.855
261.182
247.152
233.807
221.181
209.298
198.173
187.811
178.212
169.365
161.255
153.858
147.148
141.093
135.657
130.802
126.489
122.677
119.326
116.395
113.845
111.638
109.738
108.111
106.724
105.548
104.557
103.725
103.03
102.454
101.978
101.587
101.267
101.007
100.796
100.627
100.491
100.383
100.297
100.229
100.176
100.135
100.103
100.078
100.059
100.044
100.033
100.024
100.018
100.013
100.01
100.007
100.005
100.004
100.003
100.002
100.001
100.001
100.001
100
100
100
100
100
100
100
100
100
391.315
373.992
356.805
339.843
323.191
306.93
291.134
275.87
261.198
247.168
233.824
221.199
209.316
198.19
187.828
178.228
169.381
161.27
153.873
147.162
141.105
135.668
130.812
126.498
122.686
119.334
116.402
113.851
111.644
109.743
108.114
106.727
105.551
104.559
103.727
103.032
102.455
101.979
101.588
101.267
101.007
100.796
100.627
100.491
100.383
100.297
100.229
100.176
100.135
100.103
100.078
100.059
100.044
100.033
100.024
100.018
100.013
100.01
100.007
100.005
100.004
100.003
100.002
100.001
100.001
100.001
100
100
100
100
100
100
100
100
100
391.316
373.995
356.809
339.849
323.199
306.939
291.144
275.881
261.21
247.181
233.838
221.212
209.329
198.204
187.842
178.241
169.393
161.282
153.884
147.172
141.115
135.677
130.82
126.506
122.692
119.34
116.407
113.856
111.648
109.746
108.117
106.73
105.553
104.561
103.728
103.033
102.457
101.98
101.588
101.268
101.008
100.797
100.627
100.491
100.383
100.297
100.23
100.176
100.135
100.103
100.078
100.059
100.044
100.033
100.024
100.018
100.013
100.01
100.007
100.005
100.004
100.003
100.002
100.001
100.001
100.001
100
100
100
100
100
100
100
100
100
391.317
373.997
356.813
339.854
323.205
306.946
291.152
275.89
261.219
247.191
233.848
221.223
209.34
198.214
187.852
178.251
169.403
161.291
153.893
147.18
141.123
135.684
130.827
126.511
122.697
119.344
116.411
113.859
111.651
109.749
108.12
106.732
105.555
104.562
103.729
103.034
102.457
101.981
101.589
101.269
101.008
100.797
100.627
100.492
100.383
100.297
100.23
100.176
100.135
100.103
100.078
100.059
100.044
100.033
100.024
100.018
100.013
100.01
100.007
100.005
100.004
100.003
100.002
100.001
100.001
100.001
100
100
100
100
100
100
100
100
100
391.318
373.998
356.815
339.857
323.209
306.952
291.158
275.897
261.227
247.199
233.856
221.231
209.348
198.222
187.86
178.259
169.411
161.298
153.899
147.187
141.128
135.689
130.832
126.516
122.701
119.348
116.414
113.862
111.653
109.751
108.122
106.733
105.556
104.563
103.73
103.035
102.458
101.981
101.589
101.269
101.008
100.797
100.628
100.492
100.383
100.297
100.23
100.177
100.135
100.103
100.078
100.059
100.044
100.033
100.024
100.018
100.013
100.01
100.007
100.005
100.004
100.003
100.002
100.001
100.001
100.001
100
100
100
100
100
100
100
100
100
391.318
373.999
356.817
339.86
323.213
306.956
291.163
275.902
261.232
247.205
233.862
221.237
209.354
198.229
187.866
178.265
169.416
161.304
153.904
147.192
141.133
135.694
130.835
126.519
122.705
119.351
116.417
113.864
111.655
109.753
108.123
106.734
105.557
104.564
103.731
103.036
102.459
101.982
101.59
101.269
101.009
100.798
100.628
100.492
100.383
100.298
100.23
100.177
100.135
100.103
100.078
100.059
100.044
100.033
100.024
100.018
100.013
100.01
100.007
100.005
100.004
100.003
100.002
100.001
100.001
100.001
100
100
100
100
100
100
100
100
100
391.318
374
356.819
339.862
323.216
306.959
291.167
275.906
261.236
247.209
233.867
221.242
209.359
198.233
187.871
178.27
169.421
161.308
153.908
147.195
141.136
135.697
130.838
126.522
122.707
119.353
116.419
113.866
111.657
109.754
108.124
106.735
105.558
104.565
103.732
103.036
102.459
101.982
101.59
101.269
101.009
100.798
100.628
100.492
100.384
100.298
100.23
100.177
100.135
100.103
100.078
100.059
100.044
100.033
100.024
100.018
100.013
100.01
100.007
100.005
100.004
100.003
100.002
100.001
100.001
100.001
100
100
100
100
100
100
100
100
100
391.318
374.001
356.82
339.864
323.218
306.961
291.169
275.909
261.24
247.213
233.87
221.246
209.363
198.237
187.874
178.273
169.424
161.311
153.912
147.198
141.139
135.699
130.841
126.524
122.709
119.354
116.42
113.867
111.658
109.755
108.125
106.736
105.559
104.565
103.732
103.037
102.459
101.982
101.59
101.27
101.009
100.798
100.628
100.492
100.384
100.298
100.23
100.177
100.135
100.103
100.078
100.059
100.044
100.033
100.024
100.018
100.013
100.01
100.007
100.005
100.004
100.003
100.002
100.001
100.001
100.001
100
100
100
100
100
100
100
100
100
391.319
374.002
356.821
339.865
323.219
306.963
291.171
275.911
261.242
247.215
233.873
221.248
209.366
198.24
187.877
178.276
169.427
161.313
153.914
147.2
141.141
135.701
130.842
126.526
122.71
119.356
116.421
113.868
111.659
109.756
108.126
106.737
105.559
104.566
103.733
103.037
102.46
101.982
101.59
101.27
101.009
100.798
100.628
100.492
100.384
100.298
100.23
100.177
100.135
100.103
100.078
100.059
100.044
100.033
100.024
100.018
100.013
100.01
100.007
100.005
100.004
100.003
100.002
100.001
100.001
100.001
100
100
100
100
100
100
100
100
100
391.319
374.002
356.822
339.866
323.22
306.964
291.173
275.913
261.244
247.217
233.875
221.251
209.368
198.242
187.879
178.278
169.429
161.315
153.916
147.202
141.143
135.702
130.844
126.527
122.711
119.357
116.422
113.869
111.659
109.756
108.126
106.737
105.559
104.566
103.733
103.037
102.46
101.983
101.59
101.27
101.009
100.798
100.628
100.492
100.384
100.298
100.23
100.177
100.135
100.103
100.078
100.059
100.044
100.033
100.024
100.018
100.013
100.01
100.007
100.005
100.004
100.003
100.002
100.001
100.001
100.001
100
100
100
100
100
100
100
100
100
391.319
374.002
356.822
339.867
323.221
306.965
291.174
275.914
261.245
247.219
233.877
221.252
209.369
198.243
187.881
178.279
169.43
161.317
153.917
147.203
141.144
135.704
130.845
126.528
122.712
119.357
116.423
113.87
111.66
109.757
108.127
106.737
105.56
104.566
103.733
103.037
102.46
101.983
101.591
101.27
101.009
100.798
100.628
100.492
100.384
100.298
100.23
100.177
100.135
100.103
100.078
100.059
100.044
100.033
100.024
100.018
100.013
100.01
100.007
100.005
100.004
100.003
100.002
100.001
100.001
100.001
100
100
100
100
100
100
100
100
100
391.319
374.003
356.822
339.867
323.222
306.966
291.175
275.915
261.246
247.22
233.878
221.253
209.371
198.245
187.882
178.28
169.431
161.318
153.918
147.204
141.145
135.704
130.845
126.528
122.713
119.358
116.423
113.87
111.66
109.757
108.127
106.738
105.56
104.567
103.733
103.038
102.46
101.983
101.591
101.27
101.009
100.798
100.628
100.492
100.384
100.298
100.23
100.177
100.135
100.103
100.078
100.059
100.044
100.033
100.024
100.018
100.013
100.01
100.007
100.005
100.004
100.003
100.002
100.001
100.001
100.001
100
100
100
100
100
100
100
100
100
391.319
374.003
356.823
339.868
323.222
306.967
291.175
275.916
261.247
247.221
233.878
221.254
209.371
198.245
187.883
178.281
169.432
161.319
153.919
147.205
141.145
135.705
130.846
126.529
122.713
119.358
116.424
113.871
111.66
109.757
108.127
106.738
105.56
104.567
103.733
103.038
102.46
101.983
101.591
101.27
101.009
100.798
100.628
100.492
100.384
100.298
100.23
100.177
100.135
100.103
100.078
100.059
100.044
100.033
100.024
100.018
100.013
100.01
100.007
100.005
100.004
100.003
100.002
100.001
100.001
100.001
100
100
100
100
100
100
100
100
100
391.319
374.003
356.823
339.868
323.223
306.967
291.176
275.916
261.248
247.221
233.879
221.255
209.372
198.246
187.883
178.282
169.433
161.319
153.919
147.205
141.146
135.705
130.846
126.529
122.713
119.359
116.424
113.871
111.661
109.758
108.127
106.738
105.56
104.567
103.733
103.038
102.46
101.983
101.591
101.27
101.009
100.798
100.628
100.492
100.384
100.298
100.23
100.177
100.135
100.103
100.078
100.059
100.044
100.033
100.024
100.018
100.013
100.01
100.007
100.005
100.004
100.003
100.002
100.001
100.001
100.001
100
100
100
100
100
100
100
100
100
391.319
374.003
356.823
339.868
323.223
306.967
291.176
275.917
261.248
247.222
233.88
221.255
209.373
198.247
187.884
178.282
169.433
161.32
153.92
147.206
141.146
135.706
130.847
126.529
122.714
119.359
116.424
113.871
111.661
109.758
108.127
106.738
105.56
104.567
103.733
103.038
102.46
101.983
101.591
101.27
101.009
100.798
100.628
100.492
100.384
100.298
100.23
100.177
100.135
100.103
100.078
100.059
100.044
100.033
100.024
100.018
100.013
100.01
100.007
100.005
100.004
100.003
100.002
100.001
100.001
100.001
100
100