/*--------------------------------*- C++ -*----------------------------------*\
  =========                 |
  \\      /  F ield         | OpenFOAM: The Open Source CFD Toolbox
   \\    /   O peration     | Website:  https://openfoam.org
    \\  /    A nd           | Version:  10
     \\/     M anipulation  |
\*---------------------------------------------------------------------------*/
FoamFile
{
    format      ascii;
    class       volScalarField;
    location    "186";
    object      gradTx;
}
// * * * * * * * * * * * * * * * * * * * * * * * * * * * * * * * * * * * * * //

dimensions      [0 -1 0 1 0 0 0];

internalField   nonuniform List<scalar> 
11250
(
14281.1
8048.25
5219.1
3703.49
2775.91
2149.94
1697.65
1355.23
1087.78
874.586
702.495
562.627
448.644
355.794
280.369
219.379
170.352
131.217
100.221
75.8788
56.9328
42.3245
31.1696
22.7359
16.4242
11.7489
8.32176
5.83588
4.05176
2.78487
1.89483
1.27622
0.850855
0.561494
0.366759
0.237107
0.151712
0.0960676
0.060199
0.0373265
0.0228988
0.013897
0.00834199
0.004952
0.00290644
0.0016862
0.000966744
0.000547578
0.000306326
0.000169197
9.22438e-05
4.96229e-05
2.63326e-05
1.37798e-05
7.10901e-06
3.61473e-06
1.81109e-06
8.93923e-07
4.34584e-07
2.08065e-07
9.80677e-08
4.55182e-08
2.08108e-08
9.36377e-09
4.17534e-09
1.82753e-09
8.11139e-10
3.40261e-10
1.29519e-10
1.31714e-11
-5.48809e-12
0
-7.68332e-12
0
-9.87856e-12
4077.12
4647.6
3910.5
3122.15
2482.49
1985.69
1598.12
1291.26
1044.83
844.818
681.381
547.403
437.54
347.635
274.348
214.927
167.062
128.789
98.4357
74.5715
55.9805
41.6349
30.6734
22.3815
16.1729
11.5722
8.19852
5.75065
3.99333
2.74517
1.86811
1.2584
0.839079
0.553789
0.361765
0.233903
0.149676
0.0947875
0.0594023
0.0368359
0.0226
0.013717
0.00823482
0.00488893
0.00286978
0.00166516
0.000954824
0.000540916
0.000302655
0.000167203
9.11769e-05
4.90607e-05
2.60411e-05
1.36311e-05
7.03437e-06
3.57791e-06
1.79323e-06
8.85417e-07
4.30604e-07
2.06247e-07
9.72643e-08
4.51615e-08
2.06407e-08
9.32207e-09
4.13912e-09
1.799e-09
7.70527e-10
3.43554e-10
1.41593e-10
5.37833e-11
-8.78094e-12
0
8.78094e-12
2.19523e-12
0
1457.93
2557.55
2658.03
2398.72
2054.29
1721.53
1428.11
1177.7
966.635
789.673
641.786
518.595
416.387
332.012
262.773
206.343
160.7
124.086
94.9711
72.0307
54.1273
40.2915
29.7061
21.6901
15.6824
11.227
7.95764
5.58399
3.87903
2.66749
1.81579
1.22349
0.816012
0.538689
0.351977
0.227621
0.145684
0.0922764
0.0578391
0.0358731
0.0220134
0.0133635
0.00802425
0.00476498
0.0027977
0.00162377
0.000931363
0.000527797
0.000295421
0.000163271
8.90713e-05
4.79503e-05
2.54646e-05
1.33366e-05
6.88644e-06
3.50484e-06
1.75775e-06
8.68516e-07
4.22698e-07
2.02606e-07
9.56332e-08
4.44392e-08
2.03224e-08
9.13328e-09
4.02826e-09
1.77595e-09
7.56258e-10
3.227e-10
1.35007e-10
6.58571e-11
1.09762e-11
8.78094e-12
0
-1.09762e-12
8.78094e-12
655.975
1469.56
1770.12
1766.87
1622.32
1427.1
1225.08
1035.39
865.24
716.392
588.209
479.085
387.078
310.193
246.505
194.217
151.679
117.394
90.0276
68.3972
51.472
38.3635
28.316
20.6951
14.9759
10.7294
7.61008
5.34334
3.71389
2.55519
1.74013
1.17299
0.782617
0.516821
0.337797
0.218516
0.139896
0.0886345
0.0555713
0.0344757
0.0211616
0.0128501
0.00771829
0.00458478
0.00269285
0.00156352
0.000897193
0.000508675
0.000284868
0.00015753
8.59937e-05
4.63254e-05
2.462e-05
1.29045e-05
6.66902e-06
3.39725e-06
1.70543e-06
8.43482e-07
4.10946e-07
1.97183e-07
9.31658e-08
4.33306e-08
1.98493e-08
8.93351e-09
3.94923e-09
1.72436e-09
7.20037e-10
2.91966e-10
1.14152e-10
4.82952e-11
6.5857e-12
0
-1.09762e-12
-1.09762e-12
-5.48809e-12
353.34
897.428
1190.63
1282.54
1248.63
1148.25
1019.36
883.753
753.066
632.994
525.911
432.379
351.981
283.798
226.666
179.333
140.545
109.1
83.8781
63.8634
48.1503
35.9464
26.5698
19.4434
14.0857
10.1016
7.17114
5.03914
3.50495
2.41299
1.64425
1.10895
0.740254
0.489066
0.319789
0.206948
0.132539
0.0840034
0.052686
0.0326971
0.020077
0.0121959
0.00732822
0.0043549
0.002559
0.00148655
0.0008535
0.0004842
0.000271345
0.000150164
8.20395e-05
4.42344e-05
2.35312e-05
1.23465e-05
6.3876e-06
3.25766e-06
1.63735e-06
8.10824e-07
3.95547e-07
1.90052e-07
8.99234e-08
4.18994e-08
1.92193e-08
8.67008e-09
3.84276e-09
1.6585e-09
7.03573e-10
2.84283e-10
1.13055e-10
2.96357e-11
-3.29285e-12
-1.20738e-11
-7.68332e-12
-1.09762e-12
-1.09762e-12
214.207
578.886
816.803
929.969
948.659
906.277
829.533
736.943
640.305
546.661
459.918
381.993
313.566
254.57
204.49
162.568
127.925
99.6481
76.8396
58.655
44.3223
33.1532
24.5473
17.9906
13.0508
9.37063
6.65935
4.68402
3.26078
2.24666
1.532
1.03392
0.690581
0.4565
0.298647
0.193358
0.123892
0.0785568
0.0492908
0.0306029
0.0187991
0.0114247
0.00686803
0.00408347
0.00240082
0.0013955
0.000801757
0.00045518
0.000255289
0.000141404
7.73293e-05
4.1739e-05
2.22291e-05
1.16776e-05
6.04942e-06
3.08944e-06
1.55504e-06
7.71262e-07
3.76845e-07
1.81345e-07
8.59522e-08
4.01179e-08
1.84312e-08
8.32433e-09
3.70336e-09
1.62557e-09
6.93694e-10
2.86478e-10
1.24031e-10
5.1588e-11
4.71976e-11
1.09762e-12
-4.39047e-12
0
0
139.665
389.647
571.866
677.454
716.603
706.534
664.207
603.357
533.993
462.897
394.387
331.012
274.102
224.167
181.184
144.798
114.455
89.4997
69.2445
53.0107
40.1588
30.1058
22.3347
16.3975
11.9136
8.56596
6.09507
4.29192
2.99084
2.06256
1.40764
0.950712
0.635448
0.420325
0.275146
0.178241
0.114266
0.0724897
0.0455063
0.0282669
0.0173726
0.0105632
0.0063535
0.00377972
0.00222362
0.00129339
0.000743649
0.000422543
0.000237203
0.000131519
7.20031e-05
3.89109e-05
2.07499e-05
1.09157e-05
5.66307e-06
2.89663e-06
1.46039e-06
7.25541e-07
3.55122e-07
1.71199e-07
8.12972e-08
3.80028e-08
1.7485e-08
7.92809e-09
3.56067e-09
1.57837e-09
6.7723e-10
2.87576e-10
1.32812e-10
8.34189e-11
6.80523e-11
6.58571e-12
0
-7.68332e-12
0
95.271
270.535
407.409
496.573
540.128
546.374
525.454
486.825
438.201
385.361
332.359
281.855
235.459
194.015
157.824
126.827
100.728
79.0923
61.4132
47.1638
35.8285
26.9253
20.0186
14.7255
10.7172
7.71771
5.49915
3.87716
2.70489
1.86729
1.27557
0.862257
0.576781
0.381796
0.250093
0.162114
0.103989
0.0660072
0.0414595
0.0257671
0.0158449
0.00963961
0.0058014
0.00345344
0.00203305
0.00118342
0.000680984
0.000387288
0.00021763
0.0001208
6.62145e-05
3.58296e-05
1.91337e-05
1.00807e-05
5.23829e-06
2.68392e-06
1.35554e-06
6.7469e-07
3.30856e-07
1.59834e-07
7.60517e-08
3.56232e-08
1.64116e-08
7.45392e-09
3.32249e-09
1.45983e-09
6.57473e-10
2.766e-10
1.16347e-10
4.93928e-11
1.53666e-11
9.87856e-12
6.5857e-12
0
4.39047e-12
66.8883
191.989
294.2
366.077
406.815
420.115
411.815
388.141
354.707
316.094
275.773
236.21
199.038
165.233
135.285
109.33
87.2595
68.812
53.6331
41.3264
31.4868
23.7245
17.6801
13.0324
9.50281
6.85471
4.89166
3.45359
2.4124
1.66727
1.14012
0.771423
0.516469
0.342148
0.224288
0.145487
0.0933841
0.0593124
0.0372766
0.0231809
0.0142629
0.00868235
0.00522854
0.00311449
0.00183483
0.00106888
0.000615603
0.000350439
0.000197131
0.000109549
6.01234e-05
3.25784e-05
1.74234e-05
9.19423e-06
4.78571e-06
2.45638e-06
1.24291e-06
6.19827e-07
3.04559e-07
1.47433e-07
7.0287e-08
3.30108e-08
1.52635e-08
6.92706e-09
3.07772e-09
1.34897e-09
6.09178e-10
2.5794e-10
1.00981e-10
2.08547e-11
4.39047e-12
2.63428e-11
6.58571e-12
8.78094e-12
2.19524e-12
47.8483
138.308
214.54
271.061
306.259
321.577
320.278
306.35
283.736
255.9
225.647
195.101
165.764
138.615
114.22
92.8272
74.457
58.974
46.1442
35.6787
27.2674
20.6017
15.3907
11.3699
8.30706
6.00294
4.29079
3.03385
2.12205
1.46839
1.00525
0.680866
0.45627
0.30253
0.198476
0.12884
0.0827562
0.0525967
0.0330767
0.0205818
0.0126714
0.00771831
0.00465098
0.00277234
0.00163445
0.000952908
0.000549294
0.000312996
0.000176257
9.80642e-05
5.38898e-05
2.92417e-05
1.56625e-05
8.27844e-06
4.31641e-06
2.21949e-06
1.12513e-06
5.62173e-07
2.7678e-07
1.34235e-07
6.41272e-08
3.01779e-08
1.39935e-08
6.37496e-09
2.86478e-09
1.25677e-09
5.40028e-10
2.35988e-10
9.32975e-11
3.84166e-11
3.29285e-11
9.87856e-12
-6.58571e-12
0
1.09762e-12
34.6434
100.63
157.478
201.264
230.36
245.15
247.411
239.653
224.58
204.734
182.295
159.001
136.152
114.65
95.0608
77.6845
62.6184
49.8154
39.1311
30.3624
23.2775
17.637
13.2094
9.78089
7.16094
5.18447
3.71211
2.62878
1.84134
1.2758
0.874441
0.592915
0.39773
0.263957
0.173317
0.112597
0.072376
0.0460311
0.0289667
0.0180357
0.0111107
0.00677191
0.0040833
0.00243559
0.00143695
0.000838423
0.000483717
0.000275891
0.000155526
8.66303e-05
4.7667e-05
2.59009e-05
1.38939e-05
7.35533e-06
3.84162e-06
1.97888e-06
1.00502e-06
5.03127e-07
2.4819e-07
1.20616e-07
5.77479e-08
2.72341e-08
1.26446e-08
5.79762e-09
2.63538e-09
1.1536e-09
4.71976e-10
2.06352e-10
9.43951e-11
5.26856e-11
1.97571e-11
-7.68332e-12
0
-2.19523e-12
-3.29285e-12
25.27
73.6642
116.04
149.617
173.003
186.126
189.923
185.955
176.049
162.03
145.546
127.973
110.385
93.5678
78.0435
64.12
51.9341
41.4949
32.7225
25.4793
19.5959
14.8901
11.181
8.29853
6.08866
4.41674
3.16803
2.24712
1.57634
1.09368
0.750547
0.50949
0.342127
0.227275
0.149364
0.0971147
0.0624715
0.03976
0.025037
0.0155988
0.00961539
0.00586407
0.00353808
0.00211174
0.00124674
0.000727976
0.000420337
0.000239958
0.000135404
7.55049e-05
4.15956e-05
2.26317e-05
1.21575e-05
6.44595e-06
3.37214e-06
1.74001e-06
8.85295e-07
4.44008e-07
2.19443e-07
1.06867e-07
5.12664e-08
2.42255e-08
1.12901e-08
5.18734e-09
2.33463e-09
1.03505e-09
4.4234e-10
1.89888e-10
8.78094e-11
4.93928e-11
-3.29285e-12
0
4.39047e-12
0
1.09762e-12
18.508
54.0969
85.6468
111.191
129.625
140.703
144.9
143.178
136.759
126.936
114.928
101.796
88.4011
75.3975
63.2435
52.2275
42.4992
34.1004
26.9945
21.0925
16.2734
12.4011
9.33644
6.94603
5.10744
3.71234
2.66763
1.89534
1.3316
0.925179
0.63573
0.432061
0.290447
0.193137
0.127045
0.0826724
0.0532222
0.0338973
0.0213594
0.0133158
0.00821297
0.00501167
0.00302552
0.00180688
0.00106741
0.000623685
0.000360382
0.000205898
0.000116288
6.49103e-05
3.57984e-05
1.9501e-05
1.04894e-05
5.56942e-06
2.91796e-06
1.50804e-06
7.68566e-07
3.86118e-07
1.91178e-07
9.32492e-08
4.48135e-08
2.1206e-08
9.89722e-09
4.54962e-09
2.05145e-09
9.3517e-10
4.2368e-10
1.6135e-10
7.68332e-11
2.74404e-11
-1.20738e-11
-2.52452e-11
-8.78094e-12
1.09762e-12
6.58571e-12
13.5764
39.7647
63.2042
82.5049
96.8186
105.867
109.869
109.415
105.319
98.4849
89.8022
80.0727
69.9696
60.0215
50.6137
42.0018
34.3311
27.6592
21.9775
17.2312
13.3358
10.1916
7.69303
5.7371
4.22777
3.07915
2.21673
1.57765
1.11014
0.772418
0.531463
0.361636
0.243376
0.162001
0.106663
0.0694684
0.0447565
0.0285257
0.0179862
0.0112195
0.00692386
0.00422726
0.00255328
0.00152563
0.000901744
0.000527183
0.000304808
0.000174265
9.84979e-05
5.50268e-05
3.03764e-05
1.65648e-05
8.92035e-06
4.74222e-06
2.48789e-06
1.28761e-06
6.57204e-07
3.30692e-07
1.6402e-07
8.01436e-08
3.8567e-08
1.82896e-08
8.55044e-09
3.95911e-09
1.81217e-09
8.18823e-10
3.5453e-10
1.40495e-10
4.50023e-11
-9.87856e-12
-1.86595e-11
-2.19523e-12
0
0
0
9.95493
29.2052
46.5662
61.0546
72.0343
79.2469
82.7796
82.9915
80.4218
75.6988
69.4633
62.3119
54.7602
47.2252
40.021
33.3644
27.3872
22.1515
17.6648
13.8959
10.7875
8.26728
6.25666
4.67704
3.45416
2.5208
1.81815
1.29621
0.913538
0.636552
0.438568
0.298793
0.201311
0.134139
0.0884013
0.0576238
0.0371538
0.0236964
0.0149504
0.00933103
0.00576129
0.00351907
0.00212644
0.00127111
0.000751616
0.000439604
0.000254292
0.00014546
8.2265e-05
4.59889e-05
2.54064e-05
1.38663e-05
7.47429e-06
3.97761e-06
2.08912e-06
1.08255e-06
5.53235e-07
2.7877e-07
1.38479e-07
6.77965e-08
3.26892e-08
1.55236e-08
7.26733e-09
3.362e-09
1.55203e-09
6.93694e-10
2.9965e-10
1.31714e-10
4.17095e-11
7.68332e-12
9.87856e-12
1.31714e-11
8.78094e-12
9.87856e-12
-3.29285e-12
7.28537
21.4015
34.2104
45.0162
53.349
58.9904
61.9612
62.4784
60.8982
57.6547
53.2052
47.988
42.3915
36.7383
31.2778
26.1881
21.5832
17.5224
14.0218
11.0657
8.61592
6.62121
5.02367
3.76419
2.78604
2.03731
1.47216
1.05135
0.742146
0.517885
0.357292
0.243722
0.164394
0.109653
0.0723323
0.047189
0.0304486
0.0194327
0.0122675
0.00766033
0.00473177
0.0028913
0.00174766
0.00104499
0.000618082
0.000361602
0.000209232
0.000119725
6.77364e-05
3.7884e-05
2.094e-05
1.14356e-05
6.16843e-06
3.28528e-06
1.72705e-06
8.9579e-07
4.58286e-07
2.31194e-07
1.14969e-07
5.6344e-08
2.72154e-08
1.2953e-08
6.06982e-09
2.78795e-09
1.27982e-09
5.82835e-10
2.65623e-10
1.13055e-10
5.81737e-11
3.51238e-11
2.63428e-11
4.39047e-12
-1.09762e-12
2.19523e-12
5.48809e-12
5.31484
15.6297
25.0362
33.0426
39.305
43.6485
46.0631
46.679
45.7308
43.5169
40.3615
36.5827
32.4694
28.2665
24.1682
20.3172
16.8082
13.6942
10.9948
8.70365
6.79631
5.23684
3.9832
2.99147
2.21887
1.62579
1.17697
0.841975
0.595293
0.416018
0.287401
0.19629
0.13255
0.0885044
0.0584355
0.0381542
0.0246367
0.0157332
0.00993726
0.00620794
0.00383596
0.00234455
0.00141746
0.00084768
0.000501434
0.000293386
0.000169776
9.71581e-05
5.4977e-05
3.07539e-05
1.70034e-05
9.28904e-06
5.01272e-06
2.67115e-06
1.40506e-06
7.29306e-07
3.73419e-07
1.88536e-07
9.38221e-08
4.60132e-08
2.22268e-08
1.05909e-08
4.97989e-09
2.29402e-09
1.04054e-09
4.60999e-10
2.12938e-10
9.65903e-11
4.82952e-11
8.78094e-12
-2.19523e-12
2.08547e-11
-4.39047e-12
-9.87856e-12
-1.09762e-12
3.86119
11.3649
18.2364
24.1282
28.7913
32.0901
34.0024
34.6058
34.0544
32.5526
30.3284
27.6108
24.6117
21.5147
18.4683
15.584
12.9383
10.5767
8.51859
6.76338
5.29586
4.09124
3.11936
2.34799
1.74524
1.28127
0.929245
0.665888
0.471537
0.330011
0.228291
0.156111
0.105537
0.0705388
0.0466158
0.030461
0.0196826
0.0125767
0.00794725
0.00496651
0.00306964
0.00187647
0.00113454
0.000678482
0.00040132
0.000234784
0.000135846
7.77302e-05
4.39785e-05
2.45993e-05
1.36002e-05
7.43014e-06
4.01006e-06
2.13729e-06
1.12457e-06
5.83971e-07
2.99137e-07
1.51113e-07
7.52472e-08
3.69315e-08
1.78582e-08
8.49775e-09
3.98106e-09
1.85388e-09
8.37482e-10
3.7758e-10
1.83302e-10
1.06469e-10
3.62214e-11
1.53666e-11
1.97571e-11
1.4269e-11
5.48809e-12
-5.48809e-12
-4.39047e-12
2.79117
8.2216
13.2117
17.517
20.9582
23.4327
24.916
25.4534
25.1462
24.1337
22.5754
20.6346
18.4652
16.203
13.9595
11.8205
9.84651
8.07468
6.52288
5.19348
4.07738
3.15777
2.41327
1.82049
1.35593
0.997361
0.724638
0.520136
0.368897
0.258549
0.179093
0.122618
0.0829857
0.0555211
0.0367236
0.0240152
0.0155275
0.00992687
0.0062753
0.00392271
0.00242486
0.00148236
0.000896188
0.000535844
0.000316867
0.000185315
0.000107183
6.13046e-05
3.4671e-05
1.93857e-05
1.0714e-05
5.85159e-06
3.15741e-06
1.68262e-06
8.85327e-07
4.59743e-07
2.35549e-07
1.19037e-07
5.92922e-08
2.91033e-08
1.40726e-08
6.6801e-09
3.11943e-09
1.44886e-09
6.43204e-10
2.91966e-10
1.28421e-10
6.0369e-11
4.28071e-11
3.29285e-11
3.84166e-11
-2.08547e-11
3.29285e-12
-1.09762e-12
-1.09762e-12
2.00627
5.91334
9.51422
12.6373
15.1544
16.9894
18.1196
18.5713
18.4106
17.7323
16.6472
15.2709
13.714
12.0756
10.4387
8.86794
7.40998
6.09464
4.93728
3.94155
3.10234
2.40839
1.84472
1.39454
1.04075
0.766959
0.558214
0.401335
0.285074
0.200083
0.138775
0.0951272
0.0644503
0.0431618
0.0285729
0.0186986
0.0120971
0.00773733
0.00489273
0.00305901
0.00189103
0.0011559
0.000698657
0.000417588
0.000246821
0.000144269
8.33899e-05
4.76633e-05
2.69369e-05
1.50506e-05
8.31236e-06
4.53697e-06
2.44663e-06
1.30318e-06
6.85398e-07
3.55807e-07
1.82281e-07
9.20945e-08
4.58804e-08
2.25154e-08
1.08873e-08
5.16758e-09
2.40927e-09
1.11408e-09
4.91733e-10
2.1184e-10
8.34189e-11
4.50023e-11
2.85381e-11
2.41476e-11
-1.09762e-12
-1.86595e-11
0
0
-5.48809e-12
1.43311
4.22629
6.80705
9.0554
10.8805
12.2266
13.0745
13.439
13.3635
12.9121
12.1612
11.192
10.0835
8.90707
7.72355
6.5811
5.51508
4.54873
3.69474
2.95709
2.3331
1.81536
1.39349
1.05559
0.789305
0.582721
0.424844
0.305936
0.217635
0.152961
0.106228
0.0729018
0.0494442
0.0331434
0.0219585
0.0143798
0.00930806
0.00595577
0.00376706
0.00235542
0.00145597
0.000889754
0.000537582
0.000321139
0.000189685
0.000110784
6.39776e-05
3.65321e-05
2.0625e-05
1.15118e-05
6.35126e-06
3.46307e-06
1.86568e-06
9.92836e-07
5.21729e-07
2.70632e-07
1.38546e-07
6.99501e-08
3.48439e-08
1.70932e-08
8.26286e-09
3.94264e-09
1.83412e-09
8.24311e-10
3.68799e-10
1.63545e-10
8.67118e-11
7.13451e-11
2.74404e-11
1.75619e-11
-7.68332e-12
1.64643e-11
1.09762e-12
-3.29285e-12
2.19524e-12
1.01684
3.00008
4.83648
6.44253
7.75427
8.7314
9.35858
9.64401
9.61588
9.31735
8.80104
8.12348
7.34039
6.50289
5.65494
4.83191
4.06016
3.35748
2.73397
2.19339
1.73451
1.35255
1.04039
0.789656
0.591557
0.437498
0.319495
0.23043
0.164161
0.115534
0.0803352
0.055195
0.0374732
0.0251416
0.0166699
0.0109234
0.00707413
0.00452786
0.00286436
0.00179096
0.00110684
0.00067615
0.000408298
0.000243732
0.000143836
8.39191e-05
4.84067e-05
2.76059e-05
1.55646e-05
8.67524e-06
4.77952e-06
2.60243e-06
1.40012e-06
7.44122e-07
3.90531e-07
2.02335e-07
1.03465e-07
5.21862e-08
2.59532e-08
1.27269e-08
6.13678e-09
2.92076e-09
1.35446e-09
5.99299e-10
2.59038e-10
1.20738e-10
7.68332e-11
3.51238e-11
2.52452e-11
1.09762e-11
2.52452e-11
2.85381e-11
-2.19524e-12
3.29285e-12
-8.78094e-12
0.716351
2.11437
3.41132
4.54939
5.48387
6.18597
6.64388
6.86195
6.85847
6.66242
6.3097
5.83946
5.29067
4.69953
4.09749
3.51016
2.95694
2.45115
2.00065
1.6087
1.27491
0.996219
0.767816
0.583872
0.438182
0.324616
0.23744
0.171508
0.122357
0.0862259
0.060029
0.0412889
0.0280597
0.0188421
0.0125022
0.00819713
0.00531085
0.00340014
0.00215112
0.00134486
0.00083089
0.000507319
0.000306132
0.000182579
0.000107629
6.27153e-05
3.61242e-05
2.05692e-05
1.15779e-05
6.44202e-06
3.54285e-06
1.92561e-06
1.03419e-06
5.48687e-07
2.87487e-07
1.48744e-07
7.59463e-08
3.82695e-08
1.90074e-08
9.31328e-09
4.51011e-09
2.12828e-09
9.82368e-10
4.4234e-10
2.00864e-10
1.02078e-10
2.19523e-11
-1.75619e-11
-6.5857e-12
1.20738e-11
8.78094e-12
-2.19523e-12
0
2.19523e-12
-1.09762e-12
0.500899
1.47897
2.38781
3.18766
3.84748
4.34694
4.67717
4.84037
4.84836
4.72049
4.48115
4.15719
3.7757
3.36202
2.93842
2.52324
2.13053
1.77012
1.44797
1.16678
0.926583
0.725466
0.560194
0.426759
0.320823
0.238063
0.1744
0.126157
0.0901258
0.0635935
0.0443247
0.0305198
0.0207608
0.0139523
0.00926406
0.00607729
0.00393888
0.00252225
0.00159573
0.000997432
0.000615986
0.000375867
0.000226616
0.00013501
7.94852e-05
4.62467e-05
2.65937e-05
1.51147e-05
8.49093e-06
4.71461e-06
2.5873e-06
1.40319e-06
7.51973e-07
3.98119e-07
2.0818e-07
1.07511e-07
5.47876e-08
2.75579e-08
1.3662e-08
6.6801e-09
3.22809e-09
1.53447e-09
7.07963e-10
3.32578e-10
1.76716e-10
6.91499e-11
4.39047e-12
-8.78094e-12
-1.09762e-11
-7.68332e-12
-1.53666e-11
-2.08547e-11
-1.09762e-12
1.09762e-12
1.31714e-11
0.347532
1.02645
1.65822
2.21567
2.67739
3.02919
3.26456
3.3845
3.39665
3.31385
3.15254
2.93105
2.668
2.381
2.08565
1.79491
1.51884
1.26459
1.03658
0.836957
0.665946
0.522375
0.404095
0.308372
0.232206
0.172576
0.126614
0.091719
0.0656102
0.0463522
0.0323442
0.0222936
0.0151789
0.010209
0.00678295
0.00445184
0.00288629
0.00184847
0.00116937
0.000730725
0.000451045
0.000275016
0.000165648
9.85657e-05
5.79438e-05
3.36561e-05
1.93165e-05
1.09556e-05
6.14056e-06
3.40139e-06
1.862e-06
1.00728e-06
5.38417e-07
2.84351e-07
1.48338e-07
7.63964e-08
3.88579e-08
1.95025e-08
9.64147e-09
4.71536e-09
2.25012e-09
1.06688e-09
5.02709e-10
2.43671e-10
1.02078e-10
3.40261e-11
2.305e-11
1.86595e-11
3.29285e-12
-1.31714e-11
4.39047e-12
1.86595e-11
2.19524e-12
3.29285e-12
-4.39047e-12
0.239193
0.706659
1.14222
1.52741
1.8476
2.09297
2.25883
2.34557
2.35807
2.30484
2.19688
2.04661
1.86672
1.66933
1.46526
1.26358
1.07138
0.893795
0.734061
0.59381
0.473343
0.371951
0.288222
0.220308
0.166154
0.123672
0.0908648
0.0659116
0.0472094
0.0333922
0.0233264
0.016094
0.0109674
0.00738201
0.00490763
0.00322245
0.0020898
0.00133848
0.000846629
0.000528857
0.000326245
0.000198753
0.00011958
7.10564e-05
4.17037e-05
2.41775e-05
1.38469e-05
7.83503e-06
4.38034e-06
2.41981e-06
1.32093e-06
7.12519e-07
3.79758e-07
1.99963e-07
1.04019e-07
5.34145e-08
2.70958e-08
1.35742e-08
6.71303e-09
3.2709e-09
1.57069e-09
7.34306e-10
3.52335e-10
1.31714e-10
4.60999e-11
2.305e-11
7.68332e-12
1.64643e-11
2.63428e-11
4.39047e-12
-4.39047e-12
1.64643e-11
-3.29285e-12
-1.4269e-11
-1.09762e-12
0.163274
0.482483
0.780242
1.04409
1.26413
1.4336
1.54919
1.61098
1.6221
1.58813
1.5164
1.41523
1.29323
1.15866
1.01893
0.880338
0.747829
0.625019
0.514245
0.416725
0.332754
0.261912
0.203281
0.155623
0.117546
0.0876174
0.0644633
0.0468214
0.0335774
0.0237773
0.0166275
0.0114831
0.00783187
0.00527531
0.00350908
0.00230508
0.00149522
0.000957687
0.000605652
0.000378168
0.00023313
0.000141893
8.52668e-05
5.05913e-05
2.96399e-05
1.71484e-05
9.79848e-06
5.53009e-06
3.08311e-06
1.69811e-06
9.2404e-07
4.96828e-07
2.63916e-07
1.38496e-07
7.1793e-08
3.67559e-08
1.85574e-08
9.25072e-09
4.56499e-09
2.19743e-09
1.05481e-09
4.90635e-10
2.12938e-10
7.4638e-11
4.28071e-11
1.31714e-11
-6.58571e-12
-2.19523e-12
1.09762e-11
-5.48809e-12
-1.4269e-11
-2.41476e-11
-2.19524e-12
0
1.31714e-11
0.110514
0.326644
0.528453
0.707601
0.857422
0.973331
1.05302
1.09644
1.10556
1.08403
1.03671
0.969144
0.8871
0.796156
0.701361
0.607012
0.516534
0.432444
0.356398
0.289287
0.231366
0.182394
0.141779
0.1087
0.0822205
0.0613704
0.0452118
0.0328797
0.0236072
0.0167356
0.0117152
0.00809812
0.00552772
0.00372587
0.00247976
0.00162955
0.00105723
0.000677151
0.000428139
0.000267203
0.000164603
0.000100083
6.00647e-05
3.55816e-05
2.08069e-05
1.20117e-05
6.84642e-06
3.85337e-06
2.14188e-06
1.17589e-06
6.37695e-07
3.41643e-07
1.80814e-07
9.45466e-08
4.88187e-08
2.48929e-08
1.25194e-08
6.20154e-09
3.02613e-09
1.44886e-09
6.68449e-10
3.20504e-10
1.31714e-10
8.34189e-11
3.07333e-11
-1.09762e-12
-2.19524e-12
-1.09762e-12
1.09762e-12
8.78094e-12
-5.48809e-12
-3.40261e-11
1.09762e-12
1.09762e-11
0
0.074161
0.219239
0.354824
0.475377
0.576449
0.654956
0.70931
0.73941
0.746508
0.732972
0.701984
0.657214
0.602505
0.541587
0.477861
0.414237
0.353054
0.296044
0.244364
0.198653
0.159117
0.125622
0.0977881
0.0750771
0.0568645
0.0424997
0.0313489
0.0228254
0.016407
0.0116437
0.00815888
0.00564487
0.00385619
0.00260092
0.00173195
0.00113854
0.000738796
0.00047318
0.000299097
0.000186573
0.000114844
6.9755e-05
4.18067e-05
2.47247e-05
1.44296e-05
8.31107e-06
4.72483e-06
2.65156e-06
1.46918e-06
8.03823e-07
4.34344e-07
2.3179e-07
1.22201e-07
6.36256e-08
3.272e-08
1.66168e-08
8.32762e-09
4.09741e-09
1.9823e-09
9.32975e-10
4.18192e-10
1.97571e-10
9.65903e-11
6.0369e-11
1.64643e-11
-1.09762e-11
-1.31714e-11
9.87856e-12
0
1.09762e-11
-1.31714e-11
-1.31714e-11
1.09762e-12
0
-7.68332e-12
0.0493326
0.145865
0.236153
0.316544
0.384096
0.436753
0.473436
0.49404
0.499353
0.4909
0.470758
0.441334
0.405162
0.364719
0.322271
0.279771
0.238796
0.200527
0.165759
0.134943
0.108237
0.0855692
0.0666988
0.051275
0.0388858
0.0290984
0.0214893
0.0156645
0.011272
0.00800777
0.00561649
0.00388925
0.0026589
0.00179454
0.00119558
0.000786212
0.000510253
0.000326788
0.000206506
0.000128748
7.91872e-05
4.80454e-05
2.87555e-05
1.69772e-05
9.88798e-06
5.68177e-06
3.22141e-06
1.80241e-06
9.95351e-07
5.42628e-07
2.92078e-07
1.5522e-07
8.14729e-08
4.22341e-08
2.16406e-08
1.09476e-08
5.45845e-09
2.66062e-09
1.28421e-09
5.96006e-10
2.56842e-10
1.02078e-10
4.93928e-11
2.08547e-11
-1.09762e-12
-1.09762e-11
-1.4269e-11
-1.97571e-11
-2.96357e-11
3.29285e-12
1.31714e-11
3.95142e-11
1.4269e-11
4.39047e-12
0
0.0325265
0.0961878
0.155773
0.208895
0.253622
0.288596
0.313094
0.327024
0.33088
0.325639
0.312643
0.293461
0.269751
0.24314
0.215125
0.187004
0.159828
0.134392
0.111237
0.090675
0.0728233
0.0576448
0.0449883
0.0346269
0.0262915
0.0196969
0.0145627
0.0106269
0.00765501
0.00544359
0.00382156
0.00264855
0.00181205
0.00122375
0.000815707
0.000536588
0.0003483
0.000223056
0.000140916
8.78089e-05
5.39643e-05
3.27063e-05
1.95476e-05
1.15211e-05
6.69646e-06
3.83868e-06
2.17046e-06
1.21067e-06
6.6629e-07
3.61882e-07
1.93996e-07
1.02663e-07
5.36406e-08
2.77017e-08
1.41263e-08
7.11256e-09
3.53213e-09
1.71119e-09
8.13335e-10
3.83069e-10
1.71228e-10
6.91499e-11
1.86595e-11
-4.39047e-12
-3.29285e-12
-1.86595e-11
-8.78094e-12
-2.305e-11
-1.86595e-11
0
2.19523e-11
1.20738e-11
-8.78094e-12
0
5.48809e-12
0.0212539
0.0628609
0.101829
0.136608
0.165943
0.188946
0.205135
0.21444
0.217167
0.213938
0.205616
0.193213
0.177804
0.160451
0.142132
0.123701
0.105852
0.0891129
0.0738475
0.0602683
0.0484597
0.0384037
0.030006
0.0231212
0.0175748
0.0131809
0.00975545
0.00712626
0.00513845
0.0036575
0.00256996
0.00178259
0.00122048
0.000824753
0.000550021
0.000361937
0.000234972
0.000150473
9.50364e-05
5.91899e-05
3.63477e-05
2.20058e-05
1.31342e-05
7.72793e-06
4.48259e-06
2.56348e-06
1.44548e-06
8.03784e-07
4.40857e-07
2.38528e-07
1.27343e-07
6.71325e-08
3.49262e-08
1.79482e-08
9.09047e-09
4.56389e-09
2.26219e-09
1.10969e-09
5.30149e-10
2.63428e-10
1.28421e-10
5.59785e-11
8.78094e-12
-3.18309e-11
-2.52452e-11
-2.19523e-11
-1.53666e-11
-3.29285e-12
1.09762e-11
-1.75619e-11
-1.31714e-11
-2.52452e-11
-2.08547e-11
-7.68332e-12
-1.09762e-12
0.0137625
0.040709
0.0659602
0.0885195
0.107577
0.122557
0.133145
0.139286
0.141172
0.139194
0.133904
0.125949
0.116022
0.104808
0.0929401
0.0809742
0.0693648
0.0584587
0.0484964
0.039621
0.0318916
0.0253002
0.0197883
0.0152636
0.0116139
0.00871902
0.00645952
0.0047232
0.00340892
0.00242864
0.00170797
0.00118564
0.000812349
0.000549294
0.000366501
0.000241257
0.000156654
0.000100317
6.33438e-05
3.94324e-05
2.41969e-05
1.46343e-05
8.72282e-06
5.12385e-06
2.96618e-06
1.6923e-06
9.51685e-07
5.2757e-07
2.88358e-07
1.5544e-07
8.26671e-08
4.33877e-08
2.2466e-08
1.14657e-08
5.79103e-09
2.88454e-09
1.41044e-09
7.01378e-10
3.64409e-10
1.89888e-10
1.03176e-10
5.26856e-11
2.305e-11
-8.78094e-12
-7.68332e-12
8.78094e-12
0
5.48809e-12
4.39047e-12
4.39047e-12
-7.68332e-12
4.39047e-12
9.87856e-12
2.19523e-12
-6.58571e-12
0.00883028
0.0261223
0.0423342
0.0568302
0.0690926
0.0787518
0.0856034
0.0896094
0.0908862
0.0896815
0.086343
0.0812829
0.0749427
0.0677602
0.0601433
0.0524491
0.0449718
0.0379368
0.0315015
0.0257606
0.0207546
0.0164803
0.0129019
0.00996103
0.00758624
0.00570052
0.00422711
0.00309366
0.0022348
0.00159354
0.0011216
0.000779196
0.00053425
0.000361472
0.000241303
0.000158901
0.000103199
6.60869e-05
4.17214e-05
2.59609e-05
1.59194e-05
9.61873e-06
5.72599e-06
3.35814e-06
1.94029e-06
1.10449e-06
6.19476e-07
3.42384e-07
1.86496e-07
1.00174e-07
5.30709e-08
2.77236e-08
1.42987e-08
7.26184e-09
3.65068e-09
1.78034e-09
8.70411e-10
4.43437e-10
2.25012e-10
1.02078e-10
6.58571e-11
2.85381e-11
1.86595e-11
7.68332e-12
1.31714e-11
1.75619e-11
1.20738e-11
9.87856e-12
-4.39047e-12
1.20738e-11
2.52452e-11
3.29285e-11
7.68332e-12
4.39047e-12
0
0.00561348
0.0166076
0.0269192
0.0361461
0.0439602
0.0501265
0.0545137
0.0570958
0.057944
0.0572131
0.0551214
0.0519287
0.0479143
0.0433559
0.0385127
0.0336127
0.0288441
0.0243517
0.0202373
0.0165626
0.0133548
0.0106131
0.00831539
0.00642521
0.0048974
0.00368309
0.0027334
0.00200214
0.00144751
0.001033
0.000727646
0.000505889
0.0003471
0.000234991
0.00015695
0.000103393
6.71649e-05
4.30138e-05
2.71511e-05
1.68883e-05
1.03496e-05
6.24775e-06
3.71487e-06
2.17545e-06
1.25465e-06
7.12671e-07
3.98704e-07
2.19753e-07
1.19315e-07
6.38462e-08
3.36958e-08
1.75476e-08
9.03339e-09
4.59572e-09
2.29512e-09
1.13933e-09
5.70761e-10
2.93064e-10
1.29519e-10
5.81737e-11
3.29285e-11
2.41476e-11
2.85381e-11
2.41476e-11
-8.78094e-12
6.5857e-12
2.52452e-11
1.09762e-12
-3.29285e-12
-6.5857e-12
3.29285e-12
2.305e-11
-1.09762e-12
-5.48809e-12
2.19523e-12
0.00353538
0.0104603
0.0169574
0.0227745
0.0277055
0.0316024
0.0343819
0.0360264
0.0365796
0.0361375
0.034836
0.0328379
0.0303181
0.0274513
0.0244007
0.0213102
0.0182991
0.0154594
0.012856
0.0105287
0.0084953
0.00675583
0.00529686
0.00409569
0.00312403
0.00235114
0.00174619
0.00128001
0.000926128
0.000661425
0.000466261
0.000324399
0.000222728
0.000150882
0.000100827
6.64481e-05
4.31766e-05
2.76539e-05
1.74541e-05
1.08533e-05
6.64755e-06
4.00972e-06
2.38156e-06
1.39275e-06
8.0188e-07
4.54562e-07
2.53696e-07
1.39431e-07
7.5504e-08
4.02617e-08
2.11807e-08
1.0997e-08
5.63407e-09
2.84832e-09
1.40605e-09
7.13451e-10
3.65507e-10
1.80009e-10
9.7688e-11
4.93928e-11
2.19524e-11
2.41476e-11
2.52452e-11
2.08547e-11
3.29285e-12
-3.29285e-12
1.31714e-11
1.64643e-11
1.86595e-11
5.48809e-12
-1.75619e-11
-3.29285e-12
1.09762e-12
-7.68332e-12
0
0.00220572
0.00652651
0.0105814
0.0142136
0.0172947
0.0197323
0.0214743
0.0225092
0.0228635
0.0225965
0.0217923
0.0205518
0.0189839
0.0171973
0.0152939
0.0133637
0.0114813
0.00970467
0.00807463
0.00661638
0.00534141
0.00425003
0.00333406
0.00257948
0.0019687
0.00148256
0.00110181
0.0008082
0.000585166
0.000418211
0.00029502
0.000205401
0.000141119
9.56561e-05
6.3956e-05
4.21673e-05
2.74077e-05
1.75568e-05
1.10809e-05
6.88876e-06
4.21735e-06
2.54207e-06
1.50835e-06
8.80973e-07
5.06446e-07
2.86541e-07
1.59557e-07
8.74702e-08
4.72272e-08
2.51157e-08
1.31528e-08
6.80413e-09
3.45091e-09
1.72106e-09
8.4297e-10
3.98435e-10
2.06352e-10
1.10859e-10
7.02475e-11
3.95142e-11
9.87856e-12
-8.78094e-12
2.19524e-12
-3.29285e-12
8.78094e-12
-1.53666e-11
-1.20738e-11
1.20738e-11
3.29285e-11
3.18309e-11
1.09762e-11
-1.53666e-11
-8.78094e-12
1.09762e-12
-4.39047e-12
0.00136312
0.0040335
0.00654
0.00878588
0.0106919
0.0122011
0.0132809
0.0139242
0.0141471
0.0139858
0.0134922
0.0127282
0.0117611
0.0106579
0.00948158
0.00828787
0.00712303
0.00602298
0.00501317
0.00410935
0.00331876
0.00264171
0.00207323
0.00160472
0.00122533
0.00092322
0.000686492
0.000503847
0.000365027
0.000261047
0.000184272
0.00012838
8.82584e-05
5.9861e-05
4.00448e-05
2.64141e-05
1.71743e-05
1.10037e-05
6.94514e-06
4.31698e-06
2.64193e-06
1.5915e-06
9.43534e-07
5.50457e-07
3.15992e-07
1.78467e-07
9.91884e-08
5.4264e-08
2.91988e-08
1.54896e-08
8.06529e-09
4.14131e-09
2.09645e-09
1.04164e-09
5.20271e-10
2.54647e-10
1.33909e-10
8.67118e-11
4.93928e-11
3.18309e-11
7.68332e-12
-2.19523e-12
-3.29285e-12
-2.08547e-11
-2.41476e-11
-3.95142e-11
-2.41476e-11
-3.29285e-12
9.87856e-12
1.4269e-11
1.86595e-11
-2.19523e-11
-4.39047e-12
8.78094e-12
0
0.000834353
0.00246891
0.00400328
0.00537832
0.00654558
0.00747014
0.00813214
0.00852706
0.00866471
0.00856719
0.0082661
0.00779938
0.00720802
0.00653308
0.00581311
0.00508222