/*--------------------------------*- C++ -*----------------------------------*\
  =========                 |
  \\      /  F ield         | OpenFOAM: The Open Source CFD Toolbox
   \\    /   O peration     | Website:  https://openfoam.org
    \\  /    A nd           | Version:  10
     \\/     M anipulation  |
\*---------------------------------------------------------------------------*/
FoamFile
{
    format      ascii;
    class       volScalarField;
    location    "77";
    object      gradTx;
}
// * * * * * * * * * * * * * * * * * * * * * * * * * * * * * * * * * * * * * //

dimensions      [0 -1 0 1 0 0 0];

internalField   nonuniform List<scalar> 
11250
(
14220.1
7869.19
4932.78
3326.73
2329.72
1657.52
1182.29
838.536
588.225
406.671
276.412
184.39
120.574
77.219
48.4041
29.6853
17.8065
10.4453
5.99145
3.3605
1.84313
0.988613
0.518642
0.266162
0.13364
0.0656638
0.0315794
0.0148685
0.00685513
0.00309565
0.00136957
0.000593764
0.000252321
0.000105125
4.29523e-05
1.72146e-05
6.76932e-06
2.61236e-06
9.89632e-07
3.68083e-07
1.34455e-07
4.82677e-08
1.69944e-08
5.86238e-09
1.96364e-09
6.57473e-10
1.90985e-10
2.41476e-11
2.19524e-12
0
1.09762e-12
0
1.4269e-11
0
1.09762e-12
0
1.09762e-12
-2.19524e-12
0
2.19524e-12
0
1.09762e-12
0
-2.19524e-11
9.87856e-12
-1.09762e-12
-1.09762e-12
0
1.09762e-12
0
-5.48809e-12
0
-7.68332e-12
0
-9.87856e-12
4017.42
4472.18
3629.98
2752.99
2045.26
1503.09
1092.97
784.709
554.991
385.905
263.398
176.261
115.537
74.1344
46.5415
28.5785
17.1602
10.0748
5.78313
3.24567
1.7811
0.955786
0.501625
0.257522
0.129343
0.0635709
0.0305808
0.0144017
0.00664133
0.00299969
0.00132735
0.000575559
0.000244622
0.000101933
4.16537e-05
1.66963e-05
6.5663e-06
2.53432e-06
9.60157e-07
3.57174e-07
1.30479e-07
4.68299e-08
1.6506e-08
5.70542e-09
1.93839e-09
6.43204e-10
2.03059e-10
6.69547e-11
7.68332e-12
0
-1.75619e-11
0
-1.4269e-11
8.78094e-12
-1.31714e-11
-6.5857e-12
-1.4269e-11
0
-4.39047e-12
0
0
-1.09762e-12
0
2.41476e-11
5.48809e-12
0
-1.09762e-12
1.09762e-12
-1.09762e-12
0
-8.78094e-12
0
8.78094e-12
2.19523e-12
0
1400.63
2389.16
2388.74
2044.28
1634.4
1257.96
942.735
690.813
495.627
348.214
239.509
161.218
106.161
68.3656
43.0455
26.4951
15.9409
9.37453
5.38874
3.02798
1.66338
0.893421
0.469267
0.241079
0.12116
0.0595823
0.0286765
0.013511
0.00623315
0.00281639
0.00124667
0.000540748
0.000229896
9.58229e-05
3.9167e-05
1.57034e-05
6.17721e-06
2.38467e-06
9.03643e-07
3.36216e-07
1.22848e-07
4.40825e-08
1.55554e-08
5.39918e-09
1.85168e-09
6.13568e-10
2.0745e-10
8.67118e-11
1.75619e-11
0
1.09762e-12
-1.09762e-12
4.39047e-12
8.78094e-12
0
-2.19523e-12
0
4.39047e-12
0
-2.19524e-12
0
0
0
-1.4269e-11
-1.09762e-11
2.19524e-12
3.29285e-12
2.19523e-12
0
0
3.29285e-12
8.78094e-12
0
-1.09762e-12
8.78094e-12
602.078
1311.17
1516.77
1433.34
1227.09
990.59
767.834
576.482
421.041
299.791
208.317
141.341
93.6581
60.619
38.3252
23.6698
14.2813
8.41866
4.84912
2.72952
1.50168
0.807637
0.4247
0.218407
0.109866
0.054072
0.0260435
0.0122786
0.00566802
0.00256245
0.00113484
0.000492471
0.000209461
8.73408e-05
3.57134e-05
1.43238e-05
5.63642e-06
2.17658e-06
8.25066e-07
3.07079e-07
1.12236e-07
4.0265e-08
1.42109e-08
4.94038e-09
1.68923e-09
5.55394e-10
1.98669e-10
5.92713e-11
1.31714e-11
0
1.53666e-11
0
1.09762e-12
-8.78094e-12
1.31714e-11
5.48809e-12
1.4269e-11
-4.39047e-12
5.48809e-12
6.58571e-12
0
-2.19523e-12
0
-1.09762e-12
-4.39047e-12
3.29285e-12
0
1.09762e-12
0
2.19524e-12
5.48809e-12
0
-1.09762e-12
-1.09762e-12
-5.48809e-12
303.651
751.389
956.99
974.867
883.891
745.221
596.934
459.506
342.099
247.231
173.813
119.031
79.4674
51.7491
32.8824
20.3936
12.3481
7.30084
4.21605
2.37842
1.31104
0.706295
0.37196
0.191536
0.0964621
0.0475251
0.0229119
0.0108114
0.00499465
0.00225965
0.00100139
0.000434824
0.000185046
7.72007e-05
3.15826e-05
1.26728e-05
4.98891e-06
1.92732e-06
7.30862e-07
2.72113e-07
9.94935e-08
3.57044e-08
1.26039e-08
4.36742e-09
1.48727e-09
4.81854e-10
1.50374e-10
4.60999e-11
3.18309e-11
9.87856e-12
8.78094e-12
1.09762e-12
-5.48809e-12
-9.87856e-12
0
5.48809e-12
1.09762e-12
-8.78094e-12
-5.48809e-12
0
0
0
0
1.86595e-11
0
-1.09762e-12
-1.09762e-12
-3.29285e-12
0
-1.09762e-12
-9.87856e-12
-1.20738e-11
-7.68332e-12
-1.09762e-12
-1.09762e-12
169.291
446.859
605.532
651.642
618.55
541.284
446.698
352.13
267.18
196.049
139.534
96.5165
64.9675
42.5953
27.22
16.9628
10.3125
6.11855
3.54391
2.00445
1.10741
0.597788
0.315373
0.162653
0.0820311
0.0404663
0.0195311
0.00922572
0.00426611
0.00193172
0.000856749
0.00037229
0.000158543
6.61855e-05
2.70924e-05
1.08771e-05
4.28426e-06
1.65592e-06
6.2823e-07
2.33981e-07
8.55659e-08
3.07388e-08
1.08357e-08
3.73629e-09
1.26226e-09
4.25876e-10
1.30616e-10
3.51238e-11
6.58571e-12
-2.19523e-12
-6.58571e-12
-1.09762e-12
0
-3.29285e-12
-1.09762e-12
0
-1.09762e-12
2.19524e-12
1.09762e-12
-6.58571e-12
1.09762e-12
2.19523e-12
1.09762e-12
0
-1.09762e-12
-4.39047e-12
0
0
0
-2.19524e-12
4.39047e-12
1.09762e-12
-4.39047e-12
0
0
99.8401
272.565
384.456
430.451
423.472
382.189
323.71
260.756
201.421
149.999
108.075
75.5221
51.2709
33.8573
21.7678
13.6355
8.3266
4.95923
2.882
1.63482
0.90551
0.489903
0.258976
0.133805
0.0675909
0.0333913
0.0161375
0.00763182
0.00353292
0.00160133
0.000710873
0.000309166
0.000131765
5.50478e-05
2.25489e-05
9.05894e-06
3.5703e-06
1.38077e-06
5.24116e-07
1.95313e-07
7.14648e-08
2.57051e-08
9.05754e-09
3.11065e-09
1.03505e-09
3.5014e-10
1.16347e-10
2.305e-11
-9.87856e-12
-9.87856e-12
-9.87856e-12
0
0
-1.09762e-12
0
-9.87856e-12
-1.09762e-12
-7.68332e-12
4.39047e-12
-4.39047e-12
0
-2.19523e-12
1.09762e-12
-5.48809e-12
2.19523e-12
2.19524e-12
0
0
-1.20738e-11
1.09762e-12
1.31714e-11
2.19524e-12
0
-7.68332e-12
0
60.6173
168.64
244.25
281.422
284.624
263.423
228.113
187.299
147.063
111.05
80.9614
57.1445
39.1268
26.0267
16.8383
10.6046
6.5061
3.89076
2.26913
1.29121
0.717171
0.388963
0.206068
0.10668
0.0539842
0.0267121
0.0129284
0.00612232
0.00283761
0.00128762
0.0005722
0.000249095
0.000106258
4.44289e-05
1.82135e-05
7.32259e-06
2.88798e-06
1.11763e-06
4.24484e-07
1.58269e-07
5.7952e-08
2.08372e-08
7.35843e-09
2.54098e-09
8.34189e-10
2.63428e-10
7.68332e-11
4.39047e-11
8.78094e-12
-3.29285e-12
5.48809e-12
0
0
4.39047e-12
1.09762e-12
4.39047e-12
2.305e-11
3.29285e-12
-3.29285e-12
0
0
0
-3.29285e-12
0
0
0
7.68332e-12
-1.09762e-12
0
1.09762e-12
-1.09762e-12
0
6.5857e-12
0
4.39047e-12
37.2801
104.913
154.716
182.038
188.089
177.662
156.741
130.856
104.259
79.7389
58.7807
41.8884
28.9201
19.3763
12.6145
7.98797
4.92422
2.95716
1.73105
0.988264
0.550515
0.299356
0.158967
0.0824699
0.0418128
0.0207255
0.0100468
0.00476461
0.00221126
0.00100463
0.000446954
0.000194777
8.31696e-05
3.48071e-05
1.42814e-05
5.74643e-06
2.26814e-06
8.78413e-07
3.33868e-07
1.24551e-07
4.56214e-08
1.63907e-08
5.78225e-09
2.0262e-09
6.84913e-10
2.33793e-10
7.68332e-11
4.50023e-11
1.75619e-11
-1.20738e-11
-2.19524e-12
0
-1.09762e-12
-3.29285e-12
0
8.78094e-12
1.4269e-11
1.4269e-11
-4.39047e-12
4.39047e-12
-1.09762e-12
2.19523e-12
8.78094e-12
0
-1.09762e-12
0
1.4269e-11
2.19523e-12
1.31714e-11
-1.09762e-12
2.19523e-12
5.48809e-12
6.58571e-12
8.78094e-12
2.19524e-12
22.9937
65.1961
97.3741
116.369
122.255
117.395
105.197
89.0917
71.9078
55.6341
41.4325
29.7927
20.7327
13.988
9.16262
5.83364
3.61343
2.17922
1.28049
0.733503
0.409834
0.223463
0.118956
0.0618495
0.0314213
0.0156033
0.0075765
0.00359863
0.00167251
0.000760861
0.000338915
0.000147863
6.32045e-05
2.64779e-05
1.08742e-05
4.37937e-06
1.73002e-06
6.7054e-07
2.55057e-07
9.52381e-08
3.49042e-08
1.25622e-08
4.46621e-09
1.57508e-09
5.70761e-10
2.06352e-10
7.79308e-11
9.87856e-12
6.58571e-12
4.39047e-12
-2.19524e-12
-1.09762e-12
0
0
0
-5.48809e-12
-1.97571e-11
-1.09762e-12
2.19523e-12
-1.09762e-12
-1.09762e-12
0
1.09762e-12
-1.09762e-12
-1.09762e-12
-1.09762e-12
-6.58571e-12
0
-1.09762e-12
0
1.09762e-12
0
-6.58571e-12
0
1.09762e-12
14.1307
40.2756
60.7116
73.4153
78.1424
76.0451
69.0366
59.1893
48.3178
37.7708
28.3923
20.5871
14.4338
9.80319
6.45958
4.13446
2.57305
1.55834
0.919134
0.528301
0.296086
0.161889
0.0863955
0.0450227
0.0229206
0.0114037
0.00554703
0.00263894
0.00122832
0.000559565
0.000249572
0.000109016
4.66518e-05
1.95644e-05
8.04296e-06
3.24223e-06
1.28196e-06
4.97305e-07
1.89339e-07
7.07854e-08
2.59872e-08
9.36926e-09
3.34554e-09
1.18433e-09
4.40145e-10
1.37202e-10
4.06118e-11
-1.31714e-11
-1.20738e-11
1.4269e-11
2.19523e-12
0
2.19523e-12
4.39047e-12
2.19523e-12
1.09762e-12
-1.4269e-11
0
4.39047e-12
-1.09762e-12
3.29285e-12
1.4269e-11
-8.78094e-12
0
0
-9.87856e-12
-3.7319e-11
-1.09762e-12
0
0
-3.29285e-12
-5.48809e-12
0
-2.19523e-12
-3.29285e-12
8.61419
24.6454
37.4078
45.6482
49.0937
48.2994
44.3277
38.4061
31.6638
24.9805
18.9367
13.8366
9.76855
6.67636
4.42416
2.84614
1.77942
1.08215
0.640664
0.369489
0.207717
0.11389
0.0609343
0.0318283
0.016238
0.00809475
0.0039446
0.00187975
0.0008763
0.000399779
0.000178546
7.80895e-05
3.3457e-05
1.40466e-05
5.78069e-06
2.33262e-06
9.23201e-07
3.58516e-07
1.36641e-07
5.11171e-08
1.87945e-08
6.78657e-09
2.40598e-09
8.44068e-10
2.82088e-10
9.32975e-11
2.305e-11
1.75619e-11
1.20738e-11
4.39047e-12
4.39047e-12
4.39047e-12
0
1.09762e-12
-1.09762e-12
-1.09762e-12
-3.29285e-12
0
-1.09762e-12
2.19524e-12
0
-1.09762e-12
5.48809e-12
0
-1.09762e-11
-5.48809e-12
-2.19524e-12
-1.09762e-12
0
1.09762e-12
0
0
4.39047e-12
0
1.09762e-12
5.19262
14.8986
22.7336
27.94
30.2999
30.0776
27.8574
24.3539
20.2525
16.1084
12.304
9.0534
6.4328
4.42239
2.94624
1.9046
1.19603
0.730295
0.433938
0.2511
0.141592
0.0778498
0.0417582
0.021863
0.011178
0.00558343
0.00272584
0.00130119
0.000607554
0.000277586
0.000124146
5.4368e-05
2.33224e-05
9.80307e-06
4.03876e-06
1.63144e-06
6.46373e-07
2.51271e-07
9.58714e-08
3.58888e-08
1.31912e-08
4.76695e-09
1.66509e-09
5.49906e-10
1.63545e-10
4.17095e-11
1.20738e-11
2.41476e-11
1.53666e-11
6.5857e-12
0
1.09762e-12
0
0
-1.09762e-12
0
1.09762e-12
-8.78094e-12
-7.68332e-12
-3.29285e-12
-1.09762e-12
-1.4269e-11
1.09762e-12
-1.20738e-11
-1.09762e-12
1.09762e-11
2.305e-11
-2.19523e-12
0
0
-1.09762e-12
-4.39047e-12
-8.78094e-12
1.09762e-12
6.58571e-12
3.08804
8.87966
13.6057
16.8169
18.3609
18.3617
17.1377
15.0983
12.6504
10.1345
7.79387
5.77137
4.12506
2.85137
1.90916
1.23987
0.781897
0.479275
0.285795
0.165915
0.0938368
0.0517352
0.0278208
0.0146
0.00748075
0.00374413
0.0018313
0.000875692
0.000409543
0.000187401
8.39317e-05
3.6806e-05
1.58088e-05
6.65288e-06
2.74405e-06
1.10966e-06
4.40097e-07
1.71228e-07
6.5384e-08
2.45131e-08
9.02571e-09
3.25773e-09
1.13823e-09
3.75385e-10
1.03176e-10
3.29285e-12
-2.19523e-12
-6.5857e-12
-1.20738e-11
-2.19523e-12
0
-2.19523e-12
-1.09762e-12
1.09762e-12
0
0
4.39047e-12
0
1.09762e-12
0
-1.09762e-12
-1.09762e-12
-6.5857e-12
0
1.20738e-11
8.78094e-12
2.19523e-12
0
-1.09762e-12
-2.19523e-12
-6.5857e-12
4.39047e-12
0
0
0
1.80867
5.2099
8.00923
9.94515
10.9187
10.9869
10.3216
9.15377
7.72017
6.22433
4.816
3.58687
2.5776
1.79072
1.20462
0.785719
0.497486
0.306072
0.183137
0.106654
0.0604963
0.0334435
0.0180293
0.0094834
0.00486957
0.00244211
0.0011967
0.000573236
0.00026853
0.000123064
5.51969e-05
2.42383e-05
1.04242e-05
4.39227e-06
1.81377e-06
7.34273e-07
2.91488e-07
1.13528e-07
4.33713e-08
1.62722e-08
6.00946e-09
2.19304e-09
7.82601e-10
2.88673e-10
9.21999e-11
2.85381e-11
2.41476e-11
-5.48809e-12
-1.09762e-11
-4.39047e-12
0
-3.29285e-12
-8.78094e-12
0
-1.4269e-11
-1.09762e-12
0
7.68332e-12
8.78094e-12
6.58571e-12
1.09762e-12
-4.39047e-12
0
1.31714e-11
9.87856e-12
0
-1.09762e-12
2.19523e-12
-4.39047e-12
0
-7.68332e-12
3.29285e-12
8.78094e-12
9.87856e-12
-3.29285e-12
1.04199
3.00566
4.63306
5.77465
6.36923
6.44239
6.08601
5.42842
4.60461
3.73343
2.90449
2.17452
1.57039
1.09608
0.740554
0.484999
0.308248
0.190315
0.114247
0.0667369
0.0379617
0.0210411
0.0113709
0.00599473
0.00308474
0.00155008
0.000760993
0.000365164
0.00017134
7.86446e-05
3.53254e-05
1.55337e-05
6.68941e-06
2.82212e-06
1.16679e-06
4.72905e-07
1.87946e-07
7.32638e-08
2.80364e-08
1.05382e-08
3.90203e-09
1.43129e-09
5.3454e-10
2.00864e-10
1.02078e-10
5.70761e-11
2.96357e-11
1.53666e-11
6.58571e-12
0
1.09762e-12
-1.09762e-12
0
-2.19524e-12
0
-4.39047e-12
-4.39047e-12
0
8.78094e-12
-1.09762e-12
0
1.09762e-12
0
-2.19524e-12
5.48809e-12
-4.39047e-12
-1.09762e-12
-1.09762e-12
0
1.09762e-12
-4.39047e-12
-7.68332e-12
-2.19524e-12
2.19523e-12
5.48809e-12
0.589887
1.70351
2.63168
3.29041
3.64325
3.70137
3.51332
3.14931
2.68487
2.1878
1.71038
1.28657
0.933338
0.654233
0.443817
0.291771
0.186102
0.115285
0.0694229
0.0406715
0.0231981
0.0128908
0.00698299
0.00368964
0.00190256
0.000957913
0.000471142
0.000226471
0.000106437
4.89301e-05
2.20105e-05
9.6922e-06
4.17939e-06
1.76544e-06
7.30808e-07
2.96547e-07
1.17986e-07
4.60385e-08
1.76464e-08
6.64168e-09
2.46196e-09
8.8907e-10
3.43554e-10
1.39397e-10
5.37833e-11
5.48809e-11
1.53666e-11
2.52452e-11
1.09762e-11
-5.48809e-12
-1.09762e-12
4.39047e-12
8.78094e-12
0
1.4269e-11
2.19523e-12
1.09762e-12
3.29285e-12
0
-2.19523e-12
-2.19523e-12
5.48809e-12
1.09762e-12
0
-9.87856e-12
-1.09762e-12
0
-3.29285e-12
4.39047e-12
-1.09762e-12
-3.29285e-12
5.48809e-12
-3.29285e-12
-9.87856e-12
-1.09762e-12
0.327916
0.947882
1.46704
1.83907
2.04295
2.08337
1.98568
1.78767
1.5308
1.25295
0.983831
0.743217
0.541387
0.380989
0.259426
0.171156
0.109536
0.0680696
0.0411124
0.024153
0.0138125
0.00769428
0.00417766
0.00221217
0.00114304
0.000576613
0.000284118
0.000136806
6.44008e-05
2.96513e-05
1.33578e-05
5.89022e-06
2.54331e-06
1.07572e-06
4.45836e-07
1.81115e-07
7.21376e-08
2.81868e-08
1.07962e-08
4.07655e-09
1.51032e-09
5.74054e-10
2.05254e-10
7.90285e-11
1.53666e-11
1.64643e-11
-1.09762e-12
-8.78094e-12
1.4269e-11
1.09762e-12
0
0
0
-1.09762e-12
-2.19524e-12
5.48809e-12
-1.09762e-12
-2.19524e-12
-9.87856e-12
0
0
-4.39047e-12
0
2.19524e-12
-4.39047e-12
1.09762e-12
8.78094e-12
4.39047e-12
0
0
9.87856e-12
1.20738e-11
5.48809e-12
-5.48809e-12
-4.39047e-12
0.178899
0.517545
0.802253
1.00794
1.12281
1.14874
1.09879
0.992974
0.853629
0.701461
0.55297
0.419349
0.30662
0.21656
0.147974
0.09795
0.0628834
0.0391945
0.0237394
0.0139838
0.00801707
0.00447653
0.002436
0.00129264
0.000669248
0.000338243
0.000166962
8.05303e-05
3.79704e-05
1.7509e-05
7.89925e-06
3.48811e-06
1.50812e-06
6.387e-07
2.65023e-07
1.078e-07
4.29959e-08
1.68265e-08
6.45619e-09
2.45866e-09
9.20901e-10
3.75385e-10
1.21836e-10
3.84166e-11
3.95142e-11
8.78094e-12
7.68332e-12
-3.29285e-12
1.53666e-11
1.09762e-12
0
0
0
0
1.09762e-12
-2.19523e-12
-1.09762e-12
-1.09762e-12
-1.09762e-12
2.19524e-12
-1.09762e-12
-8.78094e-12
-1.09762e-12
0
-8.78094e-12
-9.87856e-12
0
2.19523e-12
4.39047e-12
1.09762e-12
1.31714e-11
-4.39047e-12
3.29285e-12
-1.09762e-12
-1.09762e-12
0.0957487
0.277184
0.430235
0.541572
0.604744
0.620448
0.595321
0.539789
0.465654
0.384002
0.303788
0.23119
0.169623
0.120202
0.0823976
0.0547107
0.0352277
0.0220188
0.013372
0.00789684
0.00453825
0.00253982
0.00138508
0.000736488
0.000382047
0.000193445
9.56549e-05
4.62136e-05
2.18245e-05
1.0079e-05
4.55373e-06
2.01361e-06
8.71772e-07
3.69678e-07
1.53591e-07
6.25499e-08
2.49807e-08
9.78087e-09
3.78459e-09
1.44446e-09
5.47711e-10
2.16231e-10
8.34189e-11
3.40261e-11
2.08547e-11
2.19523e-12
1.09762e-11
1.64643e-11
-6.5857e-12
-9.87856e-12
0
-1.09762e-12
0
1.09762e-12
3.29285e-12
3.29285e-12
1.86595e-11
0
2.19523e-12
0
0
-6.5857e-12
-1.09762e-12
3.29285e-12
0
-1.09762e-12
-7.68332e-12
0
0
1.09762e-12
-4.39047e-12
-8.78094e-12
0
0
-5.48809e-12
0.0502586
0.145579
0.226221
0.28523
0.319166
0.328257
0.315826
0.287211
0.248532
0.205603
0.163176
0.124577
0.0916893
0.0651744
0.04481
0.0298387
0.019266
0.012074
0.00735108
0.00435165
0.00250661
0.00140588
0.00076829
0.000409331
0.000212737
0.00010791
5.34509e-05
2.58658e-05
1.22342e-05
5.65842e-06
2.56013e-06
1.13361e-06
4.91447e-07
2.0868e-07
8.68215e-08
3.53916e-08
1.41461e-08
5.53638e-09
2.14584e-09
8.1553e-10
3.32578e-10
1.26226e-10
7.24428e-11
3.18309e-11
-1.09762e-11
-8.78094e-12
-1.53666e-11
-2.305e-11
-1.4269e-11
0
0
2.19524e-12
-1.09762e-12
2.19524e-12
-1.09762e-12
-1.09762e-12
9.87856e-12
0
0
-2.19524e-12
3.29285e-12
8.78094e-12
0
-1.86595e-11
8.78094e-12
1.09762e-11
0
1.09762e-12
-4.39047e-12
0
-1.20738e-11
0
0
-3.29285e-12
2.19524e-12
0.0258677
0.0749666
0.116608
0.147236
0.165053
0.17012
0.164074
0.149599
0.12981
0.107695
0.0857199
0.0656332
0.0484455
0.0345334
0.0238087
0.0158966
0.0102906
0.00646516
0.00394565
0.00234108
0.00135145
0.000759578
0.000415926
0.000222022
0.0001156
5.874e-05
2.9144e-05
1.41258e-05
6.69155e-06
3.09943e-06
1.40431e-06
6.22665e-07
2.70304e-07
1.14938e-07
4.78923e-08
1.95563e-08
7.84797e-09
3.09309e-09
1.1964e-09
4.47828e-10
1.83302e-10
5.04904e-11
2.96357e-11
9.87856e-12
-5.48809e-12
-5.48809e-12
-1.20738e-11
-2.52452e-11
-5.48809e-12
8.78094e-12
0
1.09762e-12
0
1.09762e-12
-1.09762e-12
-2.19523e-12
-1.86595e-11
-7.68332e-12
-1.09762e-12
0
-1.09762e-12
1.09762e-11
1.09762e-12
-2.19524e-12
-1.09762e-12
-4.39047e-12
9.87856e-12
-1.09762e-12
2.19524e-12
-2.19524e-12
3.29285e-12
0
-2.19524e-12
3.29285e-12
-8.78094e-12
0.0130535
0.0378466
0.05892
0.0744889
0.0836368
0.0863681
0.0834773
0.0762909
0.0663636
0.0551994
0.0440516
0.0338185
0.0250283
0.0178875
0.012364
0.00827584
0.00537031
0.00338187
0.00206861
0.00123004
0.00071156
0.000400733
0.000219854
0.000117574
6.13255e-05
3.12143e-05
1.55122e-05
7.53033e-06
3.57256e-06
1.65715e-06
7.51883e-07
3.33823e-07
1.45111e-07
6.17728e-08
2.5783e-08
1.05613e-08
4.26534e-09
1.70021e-09
6.60766e-10
2.54647e-10
7.57356e-11
1.64643e-11
0
-1.31714e-11
-2.19523e-12
0
1.09762e-11
2.19523e-12
-3.29285e-12
1.4269e-11
1.09762e-12
-2.19523e-12
7.68332e-12
-3.29285e-12
-2.19523e-12
5.48809e-12
-7.68332e-12
1.20738e-11
1.09762e-12
0
1.09762e-12
-2.19523e-12
-1.09762e-12
1.31714e-11
0
1.31714e-11
0
-2.19523e-12
0
1.09762e-12
4.39047e-12
-2.19523e-12
0
2.19523e-12
-1.09762e-12
0.00645786
0.0187309
0.0291826
0.0369345
0.0415292
0.0429578
0.0415994
0.038098
0.0332146
0.0276914
0.022152
0.0170474
0.0126471
0.00906061
0.00627767
0.00421176
0.00273929
0.00172884
0.00105976
0.000631458
0.000366017
0.000206528
0.000113516
6.08147e-05
3.17744e-05
1.61995e-05
8.06322e-06
3.92021e-06
1.86258e-06
8.65193e-07
3.93099e-07
1.74756e-07
7.60407e-08
3.24072e-08
1.35468e-08
5.56602e-09
2.24902e-09
9.09925e-10
3.56726e-10
1.51471e-10
3.7319e-11
1.75619e-11
-1.09762e-11
-1.4269e-11
8.78094e-12
1.53666e-11
1.09762e-11
-2.19524e-12
-3.29285e-12
1.09762e-12
-7.68332e-12
-7.68332e-12
-1.09762e-12
0
-1.31714e-11
6.5857e-12
1.09762e-12
1.09762e-11
0
-1.09762e-12
1.09762e-12
0
-1.09762e-12
4.39047e-12
3.29285e-12
4.39047e-12
-9.87856e-12
0
-1.09762e-12
1.09762e-12
1.09762e-12
1.09762e-12
0
1.09762e-12
1.31714e-11
0.00313216
0.00908791
0.0141684
0.0179496
0.020208
0.0209347
0.0203075
0.0186333
0.0162778
0.0135998
0.010903
0.00840929
0.00625264
0.00448954
0.00311748
0.00209612
0.00136621
0.000864048
0.000530722
0.000316854
0.000184009
0.000104019
5.72749e-05
3.07367e-05
1.60858e-05
8.2141e-06
4.0948e-06
1.99378e-06
9.48627e-07
4.41255e-07
2.00754e-07
8.93746e-08
3.89292e-08
1.6607e-08
6.97097e-09
2.88015e-09
1.17665e-09
4.77464e-10
2.10743e-10
1.10859e-10
6.25642e-11
3.18309e-11
-2.19524e-12
-1.09762e-12
6.58571e-12
1.64643e-11
-4.39047e-12
2.19524e-12
5.48809e-12
-1.20738e-11
-1.09762e-12
-3.29285e-12
-7.68332e-12
1.09762e-12
1.09762e-12
-4.39047e-12
0
-3.29285e-12
-2.19523e-12
2.19524e-12
-1.09762e-12
2.19523e-12
0
6.58571e-12
-2.19523e-12
-1.31714e-11
2.19524e-12
1.09762e-12
0
-1.09762e-12
7.68332e-12
3.29285e-12
0
3.29285e-12
-4.39047e-12
0.00148938
0.00432276
0.00674339
0.00855052
0.00963719
0.00999726
0.00971276
0.00892724
0.00781301
0.00654025
0.00525388
0.00406051
0.00302541
0.00217682
0.00151468
0.00102051
0.000666486
0.000422343
0.000259912
0.000155463
9.04476e-05
5.12194e-05
2.82503e-05
1.51856e-05
7.95994e-06
4.07093e-06
2.03244e-06
9.91059e-07
4.72193e-07
2.19948e-07
1.00212e-07
4.46807e-08
1.9508e-08
8.34958e-09
3.52225e-09
1.44556e-09
5.87225e-10
2.19523e-10
9.87856e-11
4.28071e-11
4.60999e-11
3.51238e-11
2.85381e-11
2.41476e-11
1.31714e-11
1.53666e-11
9.87856e-12
3.40261e-11
1.64643e-11
4.39047e-12
7.68332e-12
6.5857e-12
2.19523e-12
-2.19523e-12
1.4269e-11
-6.5857e-12
-1.09762e-12
-3.29285e-12
1.09762e-12
2.19523e-12
-1.09762e-12
-2.19523e-12
2.19523e-12
-1.20738e-11
-3.29285e-12
-1.09762e-12
0
1.09762e-12
1.09762e-12
0
-7.68332e-12
0
-4.39047e-12
-1.4269e-11
-1.09762e-12
0.000694397
0.00201596
0.00314654
0.0039929
0.00450493
0.00467895
0.00455216
0.0041905
0.00367361
0.00308061
0.00247926
0.00191974
0.00143311
0.00103313
0.000720264
0.000486205
0.000318135
0.000201972
0.000124521
7.46132e-05
4.34846e-05
2.46662e-05
1.36271e-05
7.33669e-06
3.85161e-06
1.97276e-06
9.8633e-07
4.8163e-07
2.29817e-07
1.07201e-07
4.89043e-08
2.18327e-08
9.55586e-09
4.11168e-09
1.72106e-09
6.98085e-10
2.61233e-10
8.01261e-11
8.78094e-12
-1.4269e-11
-1.4269e-11
1.09762e-12
1.86595e-11
1.4269e-11
8.78094e-12
5.48809e-12
3.51238e-11
3.95142e-11
2.41476e-11
1.53666e-11
-1.09762e-12
3.29285e-12
-6.5857e-12
0
-2.19524e-12
0
0
-7.68332e-12
4.39047e-12
-3.29285e-12
0
-1.09762e-12
-5.48809e-12
-2.08547e-11
2.19523e-12
0
-2.19524e-12
-3.29285e-12
1.09762e-12
-1.09762e-12
1.09762e-12
-2.19524e-12
0
0
1.31714e-11
0.000317461
0.000921877
0.00143958
0.0018281
0.00206442
0.00214654
0.00209103
0.00192762
0.00169244
0.00142156
0.001146
0.000888929
0.000664779
0.000480105
0.000335316
0.000226758
0.000148637
9.453e-05
5.83808e-05
3.50411e-05
2.04557e-05
1.16221e-05
6.43079e-06
3.46754e-06
1.82308e-06
9.35106e-07
4.68169e-07
2.28903e-07
1.0936e-07
5.10952e-08
2.33441e-08
1.04318e-08
4.55731e-09
1.93839e-09
7.89187e-10
3.227e-10
9.65903e-11
3.07333e-11
-1.97571e-11
-1.64643e-11
-3.51238e-11
-3.07333e-11
-2.41476e-11
-7.68332e-12
1.09762e-11
2.19524e-11
3.07333e-11
1.75619e-11
3.07333e-11
7.68332e-12
-1.09762e-12
1.09762e-12
0
3.29285e-12
0
-1.09762e-12
0
0
-1.09762e-12
0
0
3.29285e-12
-1.09762e-12
7.68332e-12
0
-1.09762e-12
0
0
6.58571e-12
4.39047e-12
6.5857e-12
-1.97571e-11
2.19524e-12
1.09762e-11
0
0.000142333
0.000413417
0.000645864
0.000820702
0.000927569
0.00096544
0.000941569
0.000869113
0.000764152
0.000642807
0.00051902
0.000403246
0.000302066
0.00021852
0.000152878
0.000103559
6.79958e-05
4.33159e-05
2.67954e-05
1.6109e-05
9.41873e-06
5.35959e-06
2.97008e-06
1.60386e-06
8.44449e-07
4.33726e-07
2.17438e-07
1.06444e-07
5.09097e-08
2.38106e-08
1.08851e-08
4.86574e-09
2.1206e-09
8.82484e-10
3.43554e-10
1.17445e-10
8.78094e-12
0
-2.19523e-11
-2.52452e-11
-2.63428e-11
-2.96357e-11
-2.74404e-11
-8.78094e-12
-6.5857e-12
4.39047e-12
3.29285e-12
-1.4269e-11
-2.19523e-12
-7.68332e-12
2.19523e-12
0
2.08547e-11
0
0
0
8.78094e-12
0
-1.09762e-12
-2.19523e-12
-1.09762e-12
1.09762e-12
4.39047e-12
1.86595e-11
1.09762e-12
0
-1.09762e-12
1.31714e-11
0
1.09762e-12
-7.68332e-12
0
0
0
-7.68332e-12
6.25921e-05
0.00018184
0.000284196
0.000361341
0.000408705
0.000425784
0.0004157
0.000384168
0.000338212
0.0002849
0.000230372
0.000179255
0.000134486
9.7443e-05
6.82803e-05
4.63266e-05
3.04661e-05
1.94387e-05
1.20437e-05
7.25165e-06
4.24638e-06
2.41993e-06
1.34299e-06
7.2625e-07
3.8292e-07
1.96938e-07
9.88503e-08
4.8439e-08
2.3196e-08
1.08313e-08
4.94147e-09
2.19853e-09
9.5383e-10
3.92947e-10
1.383e-10
3.62214e-11
-1.4269e-11
-1.97571e-11
-1.53666e-11
-2.52452e-11
-2.96357e-11
-1.97571e-11
-2.305e-11
-2.74404e-11
-3.7319e-11
-4.28071e-11
-2.85381e-11
-2.41476e-11
-2.305e-11
-1.09762e-11
-2.19524e-12
-1.31714e-11
-1.09762e-12
-2.19524e-12
1.09762e-12
3.29285e-12
7.68332e-12
-1.20738e-11
-1.09762e-12
2.19524e-12
-1.09762e-12
-5.48809e-12
-3.29285e-12
0
0
2.19524e-12
1.09762e-12
0
-8.78094e-12
4.39047e-12
1.09762e-12
2.41476e-11
2.19524e-12
4.39047e-12
0
2.70019e-05
7.84603e-05
0.00012267
0.000156052
0.000176631
0.000184169
0.000179984
0.000166515
0.000146772
0.000123796
0.000100238
7.81066e-05
5.86846e-05
4.25836e-05
2.98841e-05
2.03063e-05
1.33743e-05
8.54622e-06
5.30292e-06
3.19764e-06
1.87518e-06
1.07017e-06
5.94739e-07
3.22045e-07
1.70034e-07
8.75723e-08
4.4021e-08
2.16033e-08
1.03505e-08
4.8394e-09
2.2117e-09
9.64806e-10
4.20388e-10
1.64643e-10
2.74404e-11
7.68332e-12
4.39047e-12
-2.41476e-11
-5.48809e-12
-1.09762e-11
-3.51238e-11
-1.75619e-11
-1.64643e-11
-2.52452e-11
-2.305e-11
-3.29285e-11
-4.28071e-11
-1.75619e-11
-2.19524e-11
-8.78094e-12
-4.39047e-12
-5.48809e-12
-1.4269e-11
2.19524e-12
2.19524e-12
0
-8.78094e-12
-1.64643e-11
-8.78094e-12
-1.20738e-11
-3.29285e-12
-1.09762e-12
1.09762e-12
-2.19524e-12
-1.09762e-12
-1.09762e-11
1.09762e-12
-6.5857e-12
-1.09762e-12
-1.09762e-12
-2.19523e-12
0
-9.87856e-12
0
5.48809e-12
1.1429e-05
3.32154e-05
5.19485e-05
6.61185e-05
7.48861e-05
7.81431e-05
7.64369e-05
7.07892e-05
6.24658e-05
5.27505e-05
4.27665e-05
3.33683e-05
2.51052e-05
1.82428e-05
1.28205e-05
8.724e-06
5.75415e-06
3.68221e-06
2.28803e-06
1.38164e-06
8.11376e-07
4.63707e-07
2.58064e-07
1.39943e-07
7.39783e-08
3.81554e-08
1.92292e-08
9.46366e-09
4.55731e-09
2.13816e-09
9.63708e-10
4.05021e-10
1.54764e-10
7.02475e-11
9.87856e-12
-1.53666e-11
-8.78094e-12
-3.51238e-11
-3.40261e-11
-2.19523e-11
-6.5857e-12
-5.48809e-12
1.09762e-11
1.53666e-11
-3.29285e-12
-3.29285e-12
-7.68332e-12
-3.29285e-12
7.68332e-12
-5.48809e-12
1.09762e-12
1.31714e-11
1.09762e-12
0
-3.29285e-12
6.5857e-12
-7.68332e-12
7.68332e-12
-8.78094e-12
-2.19523e-12
-1.31714e-11
5.48809e-12
4.39047e-12
-7.68332e-12
1.09762e-12
-1.09762e-12
-1.09762e-12
1.09762e-12
2.19523e-12
-8.78094e-12
-1.31714e-11
-4.39047e-12
-6.5857e-12
-7.68332e-12
-1.09762e-12
4.74716e-06
1.37987e-05
2.15878e-05
2.7489e-05
3.11528e-05
3.25314e-05
3.1848e-05
2.9523e-05
2.60789e-05
2.20476e-05
1.7896e-05
1.39806e-05
1.05322e-05
7.66336e-06
5.39283e-06
3.67468e-06
2.42705e-06
1.55524e-06
9.67707e-07
5.85163e-07
3.44097e-07
1.9691e-07
1.09745e-07
5.9605e-08
3.15576e-08
1.63128e-08
8.22774e-09
4.0546e-09
1.96803e-09
9.17608e-10
4.28071e-10
1.78912e-10
5.59785e-11
3.29285e-11
2.19523e-12
-2.41476e-11
-2.19524e-11
-2.85381e-11
-3.40261e-11
-2.52452e-11
-3.29285e-12
-1.09762e-12
5.48809e-12
-3.29285e-12
1.31714e-11
2.19524e-12
2.305e-11
1.09762e-12
-1.09762e-12
3.29285e-12
0
1.09762e-12
-1.09762e-12
-1.31714e-11
-1.09762e-12
4.39047e-12
0
4.39047e-12
1.86595e-11
1.31714e-11
4.39047e-12
2.19523e-12
0
2.19524e-12
0
1.09762e-11
-2.19524e-12
0
0
5.48809e-12
8.78094e-12
0
9.87856e-12
2.19523e-12
-6.58571e-12
1.93542e-06
5.62647e-06
8.80514e-06
1.12169e-05
1.2719e-05
1.32908e-05
1.30219e-05
1.2082e-05
1.0683e-05
9.04117e-06
7.34693e-06
5.74632e-06
4.3342e-06
3.1576e-06
2.2249e-06
1.51802e-06
1.00393e-06
6.44146e-07
4.01342e-07
2.42975e-07
1.43074e-07
8.19975e-08
4.57421e-08
2.48709e-08
1.31956e-08
6.86121e-09
3.47615e-09
1.73204e-09
8.44068e-10
4.05021e-10
2.0745e-10
1.13055e-10
6.47594e-11
1.4269e-11
2.08547e-11
0
1.53666e-11
1.86595e-11
2.08547e-11
0
1.97571e-11
1.20738e-11
1.64643e-11
2.19523e-12
2.52452e-11
1.97571e-11
1.20738e-11
1.09762e-12
-2.08547e-11
-5.48809e-12
1.09762e-12
3.29285e-12
0
-2.19524e-12
2.19524e-12
-2.305e-11
-1.09762e-12
0
7.68332e-12
1.09762e-12
1.4269e-11
-2.19523e-12
-1.09762e-12
-1.09762e-12
-4.39047e-12
1.09762e-12
-1.09762e-12
1.20738e-11
0
0
2.08547e-11
9.87856e-12
6.58571e-12
4.39047e-12
0
7.74606e-07
2.25214e-06
3.52549e-06
4.49293e-06
5.09726e-06
5.32988e-06
5.22591e-06
4.85276e-06
4.29481e-06
3.63835e-06
2.95969e-06
2.31748e-06
1.74998e-06
1.27642e-06
9.00491e-07
6.15174e-07
4.07364e-07
2.61735e-07
1.63278e-07
9.89711e-08
5.83636e-08
3.34905e-08
1.87034e-08
1.01881e-08
5.43211e-09
2.83624e-09
1.46312e-09
7.68332e-10
3.91849e-10
2.14035e-10
1.1525e-10
8.34189e-11
5.37833e-11
1.97571e-11
4.50023e-11
1.75619e-11
1.97571e-11
3.62214e-11
1.86595e-11
1.09762e-12
3.62214e-11
1.09762e-11
3.84166e-11
5.37833e-11
4.17095e-11
4.17095e-11
1.86595e-11
3.07333e-11
7.68332e-12
-1.20738e-11
4.39047e-12
6.5857e-12
1.53666e-11
2.08547e-11
1.09762e-12
5.48809e-12
4.39047e-12
1.4269e-11
-1.09762e-11
0
0
-2.19523e-12
-1.09762e-12
0
-3.29285e-12
0
4.39047e-12
-4.39047e-12
-2.19523e-12
-1.31714e-11
-5.48809e-12
6.5857e-12
-1.09762e-12
-5.48809e-12
2.19523e-12
3.04352e-07
8.85084e-07
1.38584e-06
1.76681e-06
2.00551e-06
2.09835e-06
2.05889e-06
1.91339e-06
1.69486e-06
1.43715e-06
1.17026e-06
9.17303e-07
6.93453e-07
5.06376e-07
3.57664e-07
2.44627e-07
1.622e-07
1.04349e-07
6.51502e-08
3.95515e-08
2.33496e-08
1.33931e-08
7.50551e-09
4.10948e-09
2.20402e-09
1.1514e-09
6.13568e-10
3.29285e-10
1.75619e-10
1.05371e-10
5.92713e-11
3.95142e-11
3.07333e-11
2.96357e-11
3.29285e-12
1.09762e-12
-5.48809e-12
8.78094e-12
-2.19524e-12
9.87856e-12
5.48809e-12
8.78094e-12
1.86595e-11
4.82952e-11
3.84166e-11
3.84166e-11
1.31714e-11
3.29285e-12
2.19524e-11
9.87856e-12
1.09762e-12
4.39047e-12
1.4269e-11
1.09762e-12
-2.19524e-12
1.4269e-11
1.31714e-11
2.19524e-12
2.19523e-12
0
0
-2.19523e-12
2.19524e-12
8.78094e-12
3.29285e-12
-1.09762e-12
0
-1.20738e-11
1.09762e-12
0
-1.64643e-11
-9.87856e-12
1.09762e-12
-7.68332e-12
0
1.17449e-07
3.41723e-07
5.35185e-07
6.82547e-07
7.75151e-07
8.11488e-07
7.96772e-07
7.40988e-07
6.56922e-07
5.57521e-07
4.54431e-07
3.56548e-07
2.69831e-07
1.97262e-07
1.39491e-07
9.5518e-08
6.34094e-08
4.08215e-08
2.55119e-08
1.54753e-08
9.14315e-09
5.25649e-09
2.9493e-09
1.6135e-09
8.59435e-10
4.67585e-10
2.45866e-10
1.1525e-10
6.5857e-11
5.37833e-11
3.40261e-11
1.97571e-11
-3.29285e-12
-1.09762e-12
-1.53666e-11
-1.09762e-12
-1.09762e-11
5.48809e-12
1.20738e-11
3.7319e-11
7.68332e-12
1.09762e-11
-1.64643e-11
9.87856e-12
2.52452e-11
1.86595e-11
-7.68332e-12
-3.29285e-12
2.19524e-12
2.08547e-11
0
-2.19524e-12
-1.4269e-11
-8.78094e-12
0
-2.08547e-11
-4.39047e-12
-4.39047e-12
1.09762e-12
0
0
-2.19523e-12
4.39047e-12
0
5.48809e-12
0
-1.09762e-12
0
6.58571e-12
1.53666e-11
5.48809e-12
-5.48809e-12
-8.78094e-12
1.09762e-12
-4.39047e-12
4.45633e-08
1.29633e-07
2.03002e-07
2.58994e-07
2.94236e-07
3.08182e-07
3.02734e-07
2.81741e-07
2.49967e-07
2.12306e-07
1.73204e-07
1.36026e-07
1.03045e-07
7.54173e-08
5.3376e-08
3.66001e-08
2.43067e-08
1.56597e-08
9.8127e-09
5.94031e-09
3.48603e-09
2.01632e-09
1.13274e-09
6.00397e-10
3.24895e-10
1.844e-10
8.8907e-11
3.84166e-11
2.52452e-11
2.96357e-11
3.62214e-11
3.51238e-11
-3.29285e-12
-1.97571e-11