/*--------------------------------*- C++ -*----------------------------------*\
  =========                 |
  \\      /  F ield         | OpenFOAM: The Open Source CFD Toolbox
   \\    /   O peration     | Website:  https://openfoam.org
    \\  /    A nd           | Version:  10
     \\/     M anipulation  |
\*---------------------------------------------------------------------------*/
FoamFile
{
    format      ascii;
    class       volScalarField;
    location    "463";
    object      gradTx;
}
// * * * * * * * * * * * * * * * * * * * * * * * * * * * * * * * * * * * * * //

dimensions      [0 -1 0 1 0 0 0];

internalField   nonuniform List<scalar> 
11250
(
14306.7
8124.58
5344.19
3874.26
2988.22
2398.79
1977.36
1659.71
1410.72
1209.69
1043.7
904.25
785.552
683.5
595.098
518.098
450.769
391.747
339.93
294.416
254.445
219.372
188.639
161.757
138.295
117.869
100.136
84.7869
71.5439
60.1566
50.3997
42.0703
34.9863
28.9848
23.9206
19.6644
16.1019
13.1324
10.6677
8.63058
6.95406
5.58027
4.45944
3.54898
2.81265
2.21977
1.74452
1.36524
1.06391
0.82557
0.637902
0.490794
0.375999
0.28682
0.217855
0.164762
0.124072
0.0930282
0.0694511
0.0516254
0.0382089
0.0281564
0.0206583
0.0150905
0.0109742
0.00794405
0.00572261
0.0040999
0.00291778
0.00205739
0.00142945
0.000966699
0.000617891
0.000343104
0.0001099
4102.57
4723.3
4034.55
3291.5
2693.03
2232.47
1875.52
1593.23
1365.12
1177.19
1019.81
886.266
771.744
672.729
586.586
511.301
445.295
387.308
336.312
291.454
252.013
217.37
186.988
160.394
137.17
116.941
99.3699
84.1554
71.0241
59.7295
50.0493
41.7834
34.752
28.794
23.7655
19.5387
16.0004
13.0507
10.6021
8.57808
6.91219
5.547
4.43309
3.52819
2.79631
2.20697
1.73453
1.35748
1.0579
0.820935
0.634341
0.488069
0.373922
0.285244
0.216663
0.163865
0.123399
0.0925258
0.0690775
0.0513487
0.0380048
0.0280066
0.0205487
0.0150106
0.0109163
0.00790228
0.00569259
0.00407846
0.00290256
0.00204668
0.00142203
0.000961686
0.000614692
0.000341331
0.000109333
1482.95
2631.98
2780.02
2565.26
2261.35
1964.23
1700.94
1474.72
1281.69
1116.64
974.743
852.01
745.253
651.948
570.093
498.085
434.622
378.634
329.227
285.644
247.235
213.432
183.738
157.71
134.952
115.108
97.8576
82.9083
69.997
58.8851
49.3564
41.2161
34.2885
28.4163
23.4585
19.2899
15.7994
12.8888
10.4721
8.47405
6.82922
5.48106
4.38087
3.48698
2.7639
2.18159
1.71473
1.34208
1.04598
0.811739
0.627276
0.482663
0.369801
0.282116
0.214298
0.162084
0.122064
0.0915285
0.0683357
0.0507993
0.0375996
0.027709
0.0203311
0.0148521
0.0108013
0.0078193
0.00563298
0.00403585
0.00287231
0.0020254
0.00140727
0.000951725
0.000608334
0.000337804
0.000108204
680.376
1542.15
1889.09
1929.29
1824.26
1663.83
1491.22
1325.14
1172.62
1035.43
913.135
804.504
708.105
622.554
546.603
479.156
419.265
366.107
318.963
277.206
240.28
207.689
178.99
153.783
131.704
112.422
95.6382
81.0767
68.4876
57.6432
48.3368
40.3807
33.6057
27.8597
23.006
18.9231
15.5029
12.6499
10.2802
8.32047
6.70671
5.38367
4.30372
3.42609
2.71602
2.14408
1.68545
1.31932
1.02835
0.798141
0.616828
0.474666
0.363706
0.277488
0.210799
0.159449
0.120088
0.0900527
0.067238
0.0499863
0.0369999
0.0272685
0.0200089
0.0146175
0.0106312
0.00769646
0.00554472
0.00397277
0.00282752
0.00199388
0.00138542
0.000936973
0.000598918
0.000332581
0.000106532
376.939
967.633
1305.69
1439.63
1443.96
1377.25
1276.83
1164.11
1050.53
941.78
840.449
747.452
662.866
586.357
517.415
455.464
399.929
350.254
305.92
266.445
231.383
200.324
172.889
148.726
127.514
108.953
92.7681
78.7052
66.5313
56.0324
47.0131
39.2955
32.7182
27.1357
22.4171
18.4455
15.1167
12.3386
10.0302
8.12022
6.54691
5.2566
4.20304
3.34661
2.65351
2.0951
1.64721
1.28959
1.00532
0.780373
0.603172
0.464214
0.355737
0.271438
0.206224
0.156003
0.117503
0.0881223
0.0658021
0.0489226
0.0362153
0.0266921
0.0195873
0.0143104
0.0104085
0.00753568
0.00542919
0.0038902
0.00276889
0.00195263
0.00135681
0.000917658
0.00058659
0.000325742
0.000104342
236.842
646.225
927.173
1080.66
1136.06
1126
1076.6
1006.01
925.836
843.122
761.966
684.626
612.253
545.337
483.989
428.097
377.431
331.699
290.576
253.731
220.834
191.564
165.611
142.681
122.494
104.789
89.3176
75.8504
64.1733
54.0886
45.4142
37.9834
31.6443
26.2591
21.7036
17.8664
14.6482
11.9608
9.7265
7.87697
6.35274
5.10214
4.08062
3.24993
2.57745
2.03549
1.60067
1.25339
0.977273
0.758729
0.586536
0.451478
0.346026
0.264063
0.200647
0.151802
0.114352
0.0857681
0.0640508
0.0476252
0.0352581
0.0259889
0.0190729
0.0139357
0.0101367
0.00733945
0.00528818
0.00378941
0.00269732
0.00190227
0.00132188
0.000894075
0.000571536
0.00031739
0.000101669
161.199
453.71
676.873
820.837
894.927
915.64
899.381
859.518
805.881
745.258
682.143
619.407
558.821
501.428
447.794
398.177
352.636
311.109
273.451
239.471
208.952
181.66
157.357
135.806
116.772
100.032
85.3684
72.5773
61.4659
51.8538
43.5738
36.4716
30.4057
25.2472
20.8793
17.197
14.1063
11.5235
9.37481
7.59512
6.12763
4.92301
3.93858
3.13773
2.48915
1.96625
1.5466
1.21132
0.944672
0.733566
0.56719
0.436664
0.334729
0.255482
0.194156
0.146912
0.110683
0.0830272
0.0620114
0.0461141
0.0341432
0.0251698
0.0184735
0.0134991
0.00982002
0.00711077
0.00512383
0.00367193
0.00261389
0.00184355
0.00128116
0.00086658
0.000553984
0.000307652
9.85509e-05
115.591
330.99
506.507
631.9
708.454
743.786
747.516
728.755
695.046
652.172
604.348
554.537
504.762
456.363
410.196
366.778
326.39
289.152
255.073
224.085
196.07
170.88
148.341
128.272
110.485
94.7921
81.0093
68.9578
58.4668
49.3745
41.5293
34.7901
29.0265
24.1193
19.9597
16.4495
13.5007
11.0346
8.98132
7.27957
5.87549
4.72225
3.77933
3.01187
2.39006
1.88854
1.48588
1.16407
0.908043
0.705284
0.545442
0.420007
0.322022
0.245829
0.186852
0.141409
0.106554
0.0799414
0.0597152
0.0444125
0.0328875
0.024247
0.0177984
0.0130071
0.00946315
0.00685304
0.00493859
0.0035395
0.00251983
0.00177735
0.00123525
0.000835575
0.00053419
0.000296671
9.50349e-05
85.9098
248.583
386.976
492.785
564.442
605.01
619.841
614.832
595.44
566.245
530.866
492.048
451.806
411.582
372.375
334.86
299.469
266.456
235.949
207.981
182.52
159.49
138.778
120.254
103.774
89.1845
76.3331
65.0668
55.2367
46.6997
39.3203
32.9707
27.5324
22.896
18.9613
15.6373
12.8421
10.5024
8.55274
6.93565
5.60051
4.5032
3.60548
2.87441
2.28178
1.80358
1.41948
1.11237
0.867958
0.674325
0.521627
0.401762
0.308101
0.235251
0.178846
0.135375
0.102025
0.0765569
0.0571961
0.0425454
0.0315095
0.0232342
0.0170572
0.012467
0.0090713
0.00657002
0.00473515
0.00339404
0.00241651
0.00170463
0.0011848
0.000801506
0.000512439
0.000284602
9.11709e-05
65.5142
190.871
300.715
388.766
452.71
493.395
513.636
517.115
507.625
488.627
463.063
433.309
401.221
368.203
335.293
303.236
272.552
243.584
216.543
191.541
168.614
147.746
128.878
111.924
96.7782
83.3228
71.4327
60.9799
51.8371
43.8795
36.9872
31.0463
25.95
21.5988
17.9014
14.7742
12.1416
9.93576
8.09611
6.56896
5.30712
4.26933
3.41976
2.72748
2.166
1.71269
1.34841
1.05702
0.825022
0.641152
0.496101
0.3822
0.29317
0.223902
0.170256
0.1289
0.0971641
0.0729227
0.0544906
0.0405398
0.030029
0.0221459
0.0162606
0.0118865
0.00865001
0.00626569
0.00451636
0.00323759
0.00230536
0.00162639
0.00113052
0.000764848
0.000489033
0.000271615
8.70126e-05
50.9231
149.071
236.901
309.762
365.376
403.588
425.757
434.113
431.219
419.612
401.593
379.133
353.85
327.034
299.685
272.556
246.201
221.014
197.26
175.104
154.636
135.885
118.836
103.443
89.632
77.3167
66.398
56.771
48.3284
40.963
34.5703
29.0496
24.3057
20.2491
16.7972
13.874
11.4102
9.34371
7.61854
6.18516
4.99982
4.02421
3.22498
2.5733
2.04443
1.61721
1.27372
0.998826
0.779858
0.606245
0.469231
0.3616
0.277443
0.211944
0.161202
0.122073
0.0920376
0.0690894
0.0516363
0.0384234
0.0284663
0.020997
0.0154195
0.0112734
0.00820504
0.0059442
0.00428519
0.00307227
0.0021879
0.00154369
0.00107314
0.000726093
0.000464286
0.000257883
8.26157e-05
40.1578
117.965
188.683
248.866
296.534
331.121
353.182
364.022
365.339
358.95
346.61
329.901
310.19
288.609
266.075
243.307
220.858
199.137
178.439
158.962
140.833
124.115
108.829
94.9574
82.4578
71.2684
61.3137
52.5099
44.7681
37.9975
32.1082
27.0121
22.6252
18.8678
15.6658
12.9504
10.6591
8.73502
7.1271
5.78987
4.68308
3.77137
3.02393
2.41406
1.91879
1.51848
1.19645
0.938591
0.733092
0.570084
0.441384
0.340245
0.261133
0.199539
0.151806
0.114986
0.0867148
0.0651082
0.0486711
0.0362242
0.0268422
0.0198027
0.014545
0.0106358
0.00774221
0.00560975
0.00404468
0.00290022
0.00206565
0.00145761
0.00101341
0.000685743
0.000438518
0.000243584
7.8037e-05
32.021
94.3092
151.592
201.304
241.806
272.41
293.243
305.033
308.884
306.08
297.932
285.687
270.465
253.233
234.802
215.833
196.849
178.253
160.349
143.354
127.413
112.617
99.0089
86.5983
75.3653
65.2698
56.2568
48.2607
41.2093
35.0271
29.6371
24.9636
20.9329
17.4747
14.5231
12.0165
9.8987
8.11817
6.6286
5.38854
4.36121
3.51424
2.81933
2.2519
1.79077
1.41782
1.11762
0.877111
0.685337
0.533142
0.412924
0.31841
0.244451
0.186847
0.142189
0.10773
0.0812633
0.0610297
0.0456326
0.0339702
0.0251771
0.018578
0.013648
0.00998166
0.00726731
0.00526652
0.00379779
0.0027236
0.00194012
0.00136921
0.000952063
0.000644295
0.000412047
0.000228894
7.33329e-05
25.7518
75.9982
122.631
163.723
197.95
224.633
243.68
255.471
260.709
260.29
255.183
246.352
234.7
221.035
206.056
190.35
174.397
158.581
143.196
128.465
114.543
101.536
89.5044
78.4758
68.4489
59.4014
51.2951
44.0805
37.6999
32.0913
27.1901
22.9312
19.2511
16.0881
13.3841
11.0845
9.1389
7.50113
6.12942
4.98629
4.03833
3.2561
2.61375
2.08885
1.66197
1.31649
1.03821
0.815146
0.637181
0.495872
0.384199
0.296363
0.227599
0.17402
0.132468
0.100393
0.075749
0.0569028
0.0425573
0.0316881
0.023491
0.0173374
0.0127392
0.0093188
0.00678595
0.00491855
0.00354746
0.00254447
0.00181279
0.00127953
0.000889815
0.000602236
0.000385183
0.000213984
6.85583e-05
20.8464
61.6197
99.7353
133.734
162.555
185.582
202.627
213.859
219.718
220.82
217.876
211.624
202.78
192.009
179.902
166.969
153.639
140.265
127.124
114.433
102.35
90.9876
80.4181
70.6804
61.7874
53.7309
46.4867
40.0185
34.2815
29.2252
24.7962
20.9393
17.5999
14.7246
12.2625
10.1654
8.38872
6.8912
5.63548
4.58785
3.71822
2.99995
2.40961
1.92681
1.53388
1.21564
0.959147
0.75341
0.589177
0.458701
0.355536
0.274353
0.21077
0.161206
0.122751
0.0930568
0.0702337
0.052774
0.0394795
0.0294037
0.0218026
0.0160949
0.0118287
0.00865456
0.00630349
0.0045697
0.00329644
0.00236482
0.00168507
0.00118955
0.000827354
0.000560027
0.00035822
0.000199019
6.37658e-05
16.9601
50.1968
81.4489
109.601
133.807
153.535
168.56
178.929
184.91
186.923
185.485
181.156
174.501
166.058
156.318
145.719
134.637
123.386
112.223
101.351
90.9249
81.0582
71.8283
63.2825
55.4434
48.3133
41.8792
36.1157
30.9889
26.4585
22.4804
19.0087
15.9967
13.3987
11.1701
9.26911
7.65615
6.29488
5.15202
4.19748
3.40429
2.74852
2.20906
1.7675
1.40785
1.11636
0.881255
0.692556
0.541832
0.422021
0.327238
0.252613
0.194139
0.148537
0.113142
0.085799
0.0647753
0.0486863
0.0364315
0.0271405
0.0201294
0.0148633
0.0109261
0.00799583
0.0058249
0.00422358
0.00304733
0.00218651
0.00155827
0.00110021
0.000765324
0.000518102
0.000331436
0.000184151
5.90044e-05
13.8503
41.0357
66.7202
90.0442
110.335
127.142
140.238
149.605
155.396
157.896
157.479
154.569
149.605
143.019
135.218
126.568
117.395
107.975
98.5389
89.2737
80.3256
71.8051
63.7907
56.334
49.464
43.1909
37.51
32.405
27.8506
23.8153
20.2636
17.157
14.4564
12.1225
10.1172
8.4039
6.94811
5.71783
4.68366
3.8189
3.09954
2.50422
2.01403
1.61245
1.2851
1.01959
0.805286
0.633167
0.4956
0.386183
0.299575
0.231351
0.177866
0.136136
0.103732
0.0786885
0.0594257
0.0446788
0.0334422
0.0249203
0.0184876
0.0136543
0.0100397
0.00734885
0.00535474
0.00388348
0.0028025
0.00201121
0.0014336
0.00101235
0.00070431
0.00047686
0.000305085
0.000169522
5.43192e-05
11.3416
33.6322
54.7757
74.105
91.0852
105.339
116.657
124.983
130.401
133.102
133.353
131.474
127.807
122.694
116.469
109.437
101.874
94.0202
86.0803
78.2224
70.5814
63.2617
56.34
49.8693
43.8822
38.3941
33.4068
28.9108
24.8883
21.3148
18.1619
15.3981
12.9906
10.9061
9.11207
7.57678
6.27034
5.16477
4.23425
3.45524
2.80652
2.26909
1.82617
1.46298
1.16668
0.926156
0.731887
0.57575
0.450877
0.351495
0.272786
0.21075
0.162092
0.124109
0.0946013
0.0717868
0.0542311
0.0407859
0.0305374
0.0227622
0.0168911
0.0124784
0.00917737
0.00671922
0.00489707
0.00355232
0.00256405
0.00184045
0.00131212
0.000926725
0.00064484
0.000436654
0.000279393
0.000155258
4.97507e-05
9.30485
27.6125
45.0357
61.0538
75.2406
87.2844
96.9967
104.308
109.257
111.968
112.634
111.495
108.813
104.863
99.9117
94.2139
88.0011
81.4793
74.8264
68.192
61.6981
55.4409
49.4933
43.9076
38.7177
33.9425
29.5882
25.6505
22.1175
18.9707
16.1876
13.7426
11.6085
9.75736
8.1613
6.79328
5.62745
4.63951
3.80693
3.10909
2.52731
2.04484
1.64682
1.32016
1.05344
0.836752
0.661603
0.520733
0.407996
0.318217
0.247071
0.190965
0.146934
0.112547
0.0858201
0.0651463
0.0492311
0.0370375
0.0277393
0.0206826
0.0153522
0.0113446
0.00834564
0.00611178
0.0044554
0.00323267
0.00233382
0.00167554
0.00119478
0.000844
0.000587373
0.000397796
0.000254559
0.00014147
4.53342e-05
7.6428
22.6943
37.0589
50.3282
62.1621
72.3045
80.5913
86.9492
91.3883
93.9901
94.8924
94.2733
92.3365
89.2976
85.3727
80.7701
75.6833
70.2871
64.7345
59.1567
53.6622
48.3383
43.2526
38.4549
33.9792
29.8459
26.0644
22.6343
19.548
16.7921
14.349
12.198
10.3167
8.68177
7.26973
6.0575
5.0229
4.14495
3.40412
2.78243
2.26355
1.83279
1.47709
1.18488
0.946085
0.75193
0.594873
0.468464
0.36723
0.286561
0.222595
0.172123
0.132493
0.101526
0.0774456
0.0588106
0.0444587
0.0334581
0.0250665
0.0186954
0.0138812
0.0102605
0.00755009
0.00553058
0.0040327
0.00292665
0.00211337
0.00151759
0.00108236
0.000764731
0.000532297
0.000360549
0.000230751
0.000128249
4.10995e-05
6.28121
18.661
30.5043
41.4892
51.344
59.8592
66.8944
72.3783
76.3054
78.7268
79.7407
79.4799
78.1011
75.7739
72.6718
68.9645
64.8124
60.3625
55.7455
51.0746
46.4454
41.9358
37.6073
33.5063
29.6655
26.106
22.8388
19.8664
17.1847
14.7839
12.6507
10.7685
9.11908
7.68299
6.44056
5.37223
4.45909
3.68314
3.02753
2.47669
2.01642
1.63392
1.31775
1.05778
0.845141
0.672111
0.532033
0.419208
0.32879
0.256692
0.199488
0.154325
0.118844
0.0911043
0.0695231
0.0528142
0.0399398
0.0300677
0.0225338
0.0168117
0.0124863
0.00923204
0.0067952
0.00497892
0.00363136
0.00263602
0.00190394
0.0013675
0.000975518
0.000689374
0.000479927
0.000325126
0.000208106
0.000115673
3.70711e-05
5.16248
15.3443
25.105
34.1901
42.3824
49.5108
55.4566
60.1543
63.5895
65.7931
66.8346
66.8131
65.8489
64.075
61.63
58.6518
55.2725
51.6147
47.789
43.8926
40.0082
36.2047
32.5371
29.0478
25.7676
22.7172
19.9085
17.3459
15.0276
12.9471
11.0943
9.45606
8.01756
6.76285
5.67549
4.73903
3.93742
3.25531
2.67823
2.19279
1.78671
1.44889
1.16936
0.939308
0.75097
0.597589
0.47332
0.373154
0.292825
0.22873
0.177843
0.137644
0.106044
0.0813263
0.0620862
0.0471827
0.0356942
0.0268809
0.0201523
0.0150397
0.0111737
0.00826396
0.00608436
0.00445929
0.00325322
0.00236211
0.0017065
0.00122597
0.000874742
0.000618281
0.000430511
0.000291695
0.000186731
0.000103802
3.3268e-05
4.24137
12.6115
20.6498
28.1546
34.9519
40.9026
45.9072
49.9072
52.8839
54.8551
55.8696
56.0011
55.3419
53.9963
52.0745
49.6882
46.9453
43.9478
40.7885
37.5498
34.3032
31.1084
28.0142
25.0587
22.2703
19.6686
17.2658
15.0673
13.0733
11.2796
9.67856
8.26002
7.01203
5.92155
4.97492
4.15839
3.45841
2.86196
2.35671
1.93118
1.57481
1.27802
1.03221
0.82971
0.663783
0.528538
0.418877
0.33042
0.25943
0.202749
0.15772
0.122126
0.094131
0.072221
0.0551576
0.0419336
0.0317351
0.0239079
0.0179296
0.0133853
0.00994767
0.00735945
0.00541998
0.00397346
0.00289956
0.00210586
0.00152175
0.00109349
0.000780389
0.000551703
0.000384224
0.000260374
0.000166703
9.26769e-05
2.97039e-05
3.48194
10.3569
16.9696
23.16
28.7885
33.7423
37.9384
41.3259
43.8848
45.624
46.5776
46.8005
46.3634
45.3477
43.8413
41.9338
39.7135
37.2643
34.6637
31.9813
29.2778
26.6051
24.0056
21.5131
19.1534
16.9448
14.8989
13.0219
11.3153
9.77649
8.4
7.17794
6.10079
5.15792
4.33808
3.62983
3.02179
2.50298
2.06293
1.69187
1.38077
1.12141
0.906378
0.729069
0.583653
0.465027
0.368764
0.291056
0.228648
0.178785
0.139147
0.107796
0.0831239
0.0638036
0.0487492
0.0370764
0.0280699
0.0211544
0.0158702
0.0118519
0.00881085
0.00652042
0.00480349
0.0035225
0.00257118
0.00186786
0.0013501
0.000970378
0.000692683
0.000489801
0.000341178
0.000231242
0.000148071
8.23264e-05
2.63878e-05
2.85533
8.49564
13.9283
19.0258
23.6766
27.7889
31.2943
34.1489
36.333
37.8501
38.7238
38.9948
38.7173
37.9549
36.7771
35.2561
33.4633
31.4679
29.3339
27.1198
24.877
22.6496
20.4746
18.3816
16.3935
14.5269
12.7931
11.1982
9.74454
8.43088
7.2533
6.20577
5.28076
4.46966
3.76326
3.15207
2.62662
2.17767
1.7964
1.47452
1.20435
0.978878
0.791752
0.637309
0.510533
0.407026
0.322964
0.255054
0.200476
0.156839
0.122128
0.0946574
0.0730257
0.0560772
0.0428639
0.0326135
0.0247007
0.0186222
0.0139754
0.0104404
0.00776412
0.0057476
0.00423545
0.00310685
0.00226841
0.00164835
0.00119174
0.000856765
0.000611724
0.000432646
0.000301424
0.000204333
0.000130858
7.27632e-05
2.33237e-05
2.33823
6.95892
11.4149
15.6047
19.4387
22.8429
25.7609
28.1552
30.0077
31.3183
32.1033
32.3928
32.2282
31.6592
30.7408
29.5307
28.0869
26.4656
24.72
22.8986
21.0445
19.1955
17.3829
15.6326
13.9648
12.3943
10.9315
9.58265
8.35032
7.23423
6.23171
5.33821
4.54779
3.85353
3.24794
2.72319
2.27142
1.88491
1.55626
1.27848
1.04506
0.850057
0.688057
0.554226
0.444271
0.354423
0.281395
0.222354
0.174871
0.13688
0.10664
0.0826933
0.0638254
0.049034
0.0374962
0.0285411
0.0216248
0.0163094
0.0122442
0.00915026
0.00680694
0.00504064
0.00371562
0.00272634
0.00199116
0.00144727
0.00104664
0.000752634
0.0005375
0.000380234
0.000264961
0.000179646
0.000115064
6.39874e-05
2.05118e-05
1.91161
5.69058
9.33876
12.7753
15.9285
18.7385
21.1589
23.1584
24.7206
25.8433
26.5376
26.8258
26.7396
26.3177
25.6034
24.643
23.483
22.1695
20.7459
19.2524
17.7252
16.1958
14.6912
13.2335
11.8402
10.5246
9.2961
8.16047
7.12062
6.17687
5.32747
4.56904
3.89692
3.30562
2.78903
2.34074
1.95427
1.6232
1.34135
1.10284
0.902206
0.734412
0.594881
0.479505
0.38463
0.307037
0.243922
0.192855
0.151755
0.118849
0.0926404
0.0718723
0.0554993
0.0426566
0.0326336
0.0248501
0.0188357
0.0142112
0.0106729
0.00797882
0.0059375
0.00439823
0.0032431
0.00238034
0.00173896
0.00126431
0.000914564
0.000657827
0.000469905
0.00033249
0.000231738
0.000157148
0.000100668
5.59875e-05
1.79483e-05
1.55989
4.64454
7.62529
10.4377
13.0245
15.3371
17.338
19.0008
20.311
21.2655
21.8717
22.1462
22.113
21.8023
21.2483
20.4878
19.5583
18.4969
17.3394
16.1188
14.8652
13.6049
12.3608
11.1516
9.99256
8.89521
7.86792
6.91612
6.0427
5.24838
4.53212
3.8914
3.32265
2.82148
2.38297
2.00191
1.67294
1.39078
1.15027
0.94651
0.774925
0.631277
0.511709
0.412749
0.3313
0.264633
0.210362
0.166418
0.131025
0.102669
0.0800691
0.0621497
0.0480142
0.0369203
0.0282573
0.0215266
0.0163231
0.0123203
0.00925617
0.00692217
0.00515295
0.00381832
0.00281638
0.00206777
0.00151105
0.00109892
0.000795138
0.000572072
0.000408747
0.000289282
0.000201664
0.000136778
8.76322e-05
4.87425e-05
1.56265e-05
1.27023
3.78281
6.21284
8.50903
10.6255
12.5232
14.1715
15.5486
16.642
17.448
17.9716
18.2249
18.2263
17.9993
17.5708
16.97
16.227
15.3718
14.4335
13.4391
12.4136
11.3789
10.354
9.355
8.39473
7.48327
6.62798
5.83377
5.10346
4.43799
3.8368
3.29809
2.8191
2.39636
2.02595
1.7036
1.42496
1.18567
0.981454
0.808256
0.662248
0.539889
0.437943
0.35349
0.283922
0.226932
0.180501
0.142878
0.112554
0.0882424
0.0688534
0.0534704
0.0413285
0.0317937
0.0243443
0.0185534
0.0140743
0.010627
0.00798702
0.00597518
0.00444953
0.00329819
0.00243351
0.00178722
0.00130642
0.00095037
0.000687839
0.000495003
0.000353768
0.000250429
0.000174615
0.000118454
7.5903e-05
4.22229e-05
1.35371e-05
1.03202
3.07392
5.05026
6.92023
8.64711
10.1996
11.5528
12.6888
13.5968
14.2733
14.7212
14.9495
14.9724
14.808
14.4775
14.004
13.4115
12.7244
11.966
11.1586
10.3225
9.47607
8.63503
7.81286
7.02051
6.26661
5.55757
4.89777
4.28983
3.73483
3.23255
2.78171
2.38022
2.02535
1.71395
1.44259
1.20773
1.00579
0.833247
0.686751
0.563124
0.459418
0.372931
0.30122
0.242096
0.193623
0.1541
0.12205
0.0961997
0.075461
0.0589105
0.0457714
0.0353945
0.0272412
0.0208676
0.0159104
0.0120742
0.0091204
0.00685725
0.00513184
0.00382285
0.00283461
0.00209214
0.00153699
0.00112384
0.000817787
0.000592043
0.000426175
0.000304653
0.000215711
0.000150439
0.000102072
6.54158e-05
3.6393e-05
1.16686e-05
0.836444
2.49177
4.09507
5.61388
7.01891
8.28506
9.39218
10.3256
11.0762
11.6405
12.0205
12.2227
12.2578
12.1399
11.8856
11.5133
11.0421
10.4915
9.88045
9.22695
8.5477
7.8577
7.1701
6.4961
5.84495
5.22395
4.63863
4.09286
3.58903
3.12824
2.7105
2.33494
1.99997
1.70347
1.44293
1.2156
1.01859
0.84899
0.703924
0.580621
0.476459
0.388996
0.315987
0.255397
0.2054
0.164376
0.130901
0.103736
0.0818099
0.0642074
0.0501508
0.0389846
0.0301606
0.0232235
0.0177977
0.0135755
0.0103065
0.00778817
0.00585781
0.00438547
0.003268
0.00242401
0.00178967
0.00131519
0.000961952
0.000700187
0.000507046
0.000365088
0.00026105
0.000184881
0.000128965
8.75184e-05
5.6097e-05
3.1212e-05
1.0008e-05
0.676187
2.01464
3.31185
4.54202
5.68183
6.71118
7.61383
8.37779
8.99547
9.46373
9.7836
9.95992
10.0009
9.91733
9.72233
9.43031
9.05654
8.61657
8.12567
7.59845
7.04847
6.48804
5.92798
5.37759
4.84459
4.33516
3.85401
3.40449
2.98876
2.60788
2.26203
1.95061
1.67243
1.42586
1.2089
1.01935
0.85488
0.713132
0.591753
0.488476
0.401143
0.32774
0.266412
0.215471
0.173401
0.138853
0.110642
0.0877308
0.0692257
0.0543596
0.0424805
0.0330383
0.0255723
0.0196995
0.0151037
0.0115254
0.00875365
0.00661735
0.00497907
0.00372896
0.00277975
0.00206255
0.0015233
0.00111979
0.000819282
0.000596514
0.000432091
0.000311201
0.000222576
0.000157669
0.000110007
7.4667e-05
4.78669e-05
2.66356e-05
8.5411e-06
0.545155
1.62445
2.67108
3.6646
4.58645
5.4206
6.15398
6.77685
7.28294
7.66943
7.93683
8.08868
8.1312
8.07282
7.9237
7.69522
7.3995
7.04894
6.65578
6.23182
5.78804
5.33446
4.87998
4.43226
3.99771
3.5815
3.18763
2.81897
2.47741
2.16398
1.87891
1.62185
1.3919
1.18779
1.00796
0.850655
0.714009
0.596103
0.495032
0.408945
0.336076
0.274773
0.223508
0.180889
0.145663
0.116713
0.0930546
0.0738272
0.0582866
0.0457937
0.0358047
0.0278599
0.0215743
0.0166272
0.0127537
0.00973631
0.0073978
0.00559458
0.00421111
0.00315496
0.00235269
0.00174627
0.00129013
0.000948686
0.000694308
0.000505669
0.00036639
0.000263952
0.00018883
0.000133796
9.33712e-05
6.33872e-05
4.06419e-05
2.26178e-05
7.25309e-06
0.438272
1.30611
2.14812
2.94812
3.69139
4.36513
4.95889
5.46479
5.87767
6.19506
6.41715
6.54651
6.58788
6.54775
6.43406
6.25575
6.02241
5.74389
5.42999
5.09016
4.7333
4.36752
4.00009
3.63728
3.28439
2.94572
2.62463
2.32356
2.04415
1.78735
1.55343
1.34218
1.15295
0.984774
0.836414
0.706482
0.593482
0.495873
0.412113
0.340699
0.280192
0.229241
0.186596
0.151113
0.121762
0.0976208
0.0778775
0.0618207
0.0488338
0.038387
0.0300287
0.023377
0.0181112
0.0139645
0.010716
0.00818416
0.00622098
0.00470646
0.00354394
0.00265609
0.00198138
0.00147117
0.00108724
0.000799748
0.000585484
0.000426537
0.000309141
0.00022277
0.000159409
0.000112977
7.88591e-05
5.35455e-05
3.4337e-05
1.91111e-05
6.12893e-06
0.351311
1.04706
1.72244
2.36463
2.96199
3.50436
3.98338
4.39271
4.72812
4.9875
5.17083
5.27999
5.31855
5.29154
5.20513
5.06634
4.88272
4.66208
4.41223
4.14075
3.85476
3.56085
3.26489
2.97201
2.68657
2.4121
2.15142
1.90657
1.67899
1.46949
1.27839
1.10557
0.950559
0.812613
0.690778
0.583952
0.490943
0.410517
0.341431
0.28247
0.232468
0.190325
0.155022
0.125623
0.101285
0.0812517
0.0648562
0.0515126
0.040713
0.03202
0.0250605
0.0195187
0.0151291
0.0116704
0.00895946
0.0068455
0.00520554
0.00393977
0.00296775
0.00222506
0.00166043
0.00123328
0.000911739
0.000670863
0.00049128
0.000358013
0.00025955
0.000187085
0.000133908
9.49263e-05
6.6274e-05
4.50088e-05
2.88671e-05
1.60684e-05
5.15346e-06
0.28075
0.83684
1.37688
1.89078
2.36931
2.80445
3.18952
3.51945
3.79078
4.00176
4.15222
4.24354
4.27842
4.26072
4.19526
4.0875
3.9434
3.76913
3.5709
3.35472
3.12634
2.89101
2.65351
2.41799
2.188
1.96647
1.75569
1.55741
1.37282
1.20266
1.04721
0.906456
0.780044
0.667411
0.567814
0.48039
0.404191
0.338232
0.281518
0.233069
0.191944
0.157252
0.128166
0.103925
0.0838414
0.067298
0.0537485
0.0427136
0.0337766
0.0265782
0.0208118
0.0162173
0.012576
0.00970531
0.00745403
0.00569765
0.00433443
0.00328175
0.00247301
0.00185481
0.00138462
0.00102877
0.0007608
0.000559979
0.000410204
0.000299018
0.000216842
0.000156343
0.000111933
7.93673e-05
5.54234e-05
3.76469e-05
2.41492e-05
1.34437e-05
4.31193e-06
0.223661
0.666732
1.09719
1.50709
1.88916
2.23706
2.5455
2.81041
3.029
3.19981
3.32262
3.39841
3.42924
3.41808
3.36863
3.2852
3.17244
3.03521
2.87842
2.70687
2.52511
2.33738
2.14749
1.95882
1.77425
1.59615
1.42642
1.26652
1.11743
0.979808
0.853924
0.739785
0.637154
0.545601
0.464555
0.393335
0.331196
0.277353
0.231012
0.191388
0.157724
0.129302
0.105452
0.0855601
0.0690664
0.0554703
0.0443269
0.0352454
0.0278855
0.0219537
0.0171991
0.0134084
0.0104026
0.00803158
0.00617119
0.00471904
0.0035914
0.00272024
0.00205064
0.00153858
0.00114896
0.000853967
0.000631733
0.000465128
0.000340826
0.000248519
0.000180272
0.000130011
9.31048e-05
6.60329e-05
4.61219e-05
3.13347e-05
2.01033e-05
1.11926e-05
3.5901e-06
0.177609
0.529495
0.871489
1.19736
1.50139
1.77857
2.02472
2.23661
2.412
2.54966
2.64936
2.71182
2.73857
2.7319
2.69469
2.63026
2.54227
2.43454
2.31093
2.17525
2.0311
1.88188
1.73063
1.58007
1.43252
1.28991
1.1538
1.02538
0.905482
0.79465
0.693145
0.600997
0.518042
0.443958
0.378304
0.32055
0.270108
0.226359
0.18867
0.156415
0.128987
0.105811
0.086348
0.0701017
0.0566211
0.0455007
0.0363801
0.028942
0.0229102
0.0180458
0.0141443
0.0110321
0.00856286
0.00661409
0.0050842
0.00388943
0.00296121
0.00224378
0.0016921
0.00127003
0.00094874
0.000705394
0.000521995
0.000384453
0.000281797
0.000205537
0.000149136
0.000107585
7.70646e-05
5.46698e-05
3.81935e-05
2.59532e-05
1.66533e-05
9.27285e-06
2.97449e-06
0.140577
0.419125
0.689934
0.948124
1.18922
1.40928
1.605
1.77384
1.91398
2.02443
2.10496
2.15607
2.17894
2.17531
2.14739
2.09778
2.02932
1.94501
1.84788
1.74093
1.62702
1.50883
1.38881
1.26912
1.15163
1.0379
0.929195
0.826481
0.730461
0.641586
0.560092
0.486022
0.419267
0.359585
0.306639
0.260017
0.219258
0.183873
0.153362
0.127228
0.104986
0.0861759
0.0703673
0.0571615
0.0461958
0.0371436
0.0297142
0.0236514
0.0187317
0.0147618
0.0115758
0.00903298
0.00701431
0.00542032
0.00416831
0.00319008
0.00242972
0.00184176
0.00138944
0.00104324
0.000779594
0.000579828
0.000429216
0.000316219
0.000231854
0.000169159
0.000122775
8.85925e-05
6.34763e-05
4.5041e-05
3.14735e-05
2.13909e-05
1.37279e-05
7.64481e-06
2.45241e-06
0.110893
0.330647
0.544363
0.748231
0.938749
1.11283
1.26789
1.40189
1.51342
1.60164
1.66636
1.70793
1.72723
1.72559
1.70472
1.66663
1.61352
1.54775
1.47167
1.38766
1.29796
1.2047
1.10982
1.01503
0.921846
0.831507
0.745038
0.663227
0.586651
0.515687
0.450539
0.391261
0.337777
0.289911
0.247404
0.209937
0.177152
0.148663
0.124077
0.102999
0.0850463
0.0698518
0.0570717
0.046388
0.0375101
0.0301764
0.0241533
0.0192351
0.0152417
0.0120172
0.00942807
0.00736037
0.00571803
0.00442052
0.00340087
0.00260379
0.00198395
0.00150443
0.00113538
0.000852781
0.00063749
0.000474296
0.00035121
0.000258831
0.000189834
0.000138542
0.000100582
7.25977e-05
5.20293e-05
3.69274e-05
2.58095e-05
1.75448e-05
1.12613e-05
6.2719e-06
2.01208e-06
0.0871791
0.259955
0.428034
0.588448
0.738467
0.87568
0.99806
1.10401
1.1924
1.26257
1.31433
1.34793
1.36403
1.36365
1.34811
1.31894
1.27787
1.22672
1.16733
1.10157
1.03119
0.957867
0.883139
0.808369
0.734746
0.663275
0.594774
0.529882
0.469067
0.412644
0.360788
0.313552
0.270889
0.232669
0.198695
0.168721
0.142468
0.119636
0.0999151
0.082994
0.06857
0.0563528
0.0460693
0.0374664
0.0303127
0.0243992
0.0195395
0.0155686
0.0123424
0.00973601
0.00764189
0.00596862
0.00463885
0.00358775
0.00276133
0.00211499
0.00161213
0.00122294
0.000923276
0.000693719
0.000518762
0.000386091
0.000285987
0.000210829
0.000154675
0.000112916
8.19998e-05
5.92016e-05
4.24394e-05
3.01283e-05
2.1062e-05
1.43202e-05
9.19301e-06
5.12053e-06
1.64279e-06
0.068298
0.203667
0.335391
0.461167
0.578872
0.686629
0.782855
0.8663
0.936069
0.991634
1.03283
1.05983
1.07314
1.07352
1.06198
1.03971
1.00805
0.968395
0.922197
0.870891
0.815868
0.758439
0.699806
0.641051
0.583115
0.526797
0.472751
0.421491
0.373395
0.328724
0.287623
0.250146
0.216264
0.18588
0.158846
0.134974
0.114047
0.095831
0.0800839
0.0665621
0.0550267
0.0452489
0.0370127
0.0301177
0.0243803
0.0196344
0.0157318
0.0125409
0.009947
0.00785012
0.00616446
0.00481682
0.00374529
0.00289787
0.00223127
0.00170967
0.00130369
0.000989329
0.000747176
0.0005616
0.000420107
0.000312769
0.00023175
0.000170899
0.000125417
9.15837e-05
6.6527e-05
4.80435e-05
3.44494e-05
2.44618e-05
1.71044e-05
1.16316e-05
7.46817e-06
4.16024e-06
1.33479e-06
0.0533176
0.159003
0.26187
0.360133
0.452149
0.536461
0.611837
0.677301
0.732149
0.77596
0.808593
0.830172
0.841066
0.841862
0.83333
0.816384
0.792047
0.761409
0.725591
0.685709
0.642848
0.598032
0.552203
0.506211
0.460799
0.4166
0.374132
0.333806
0.295928
0.26071
0.228273
0.198667
0.171874
0.147826
0.12641
0.107482
0.0908752
0.076408
0.0638914
0.0531352
0.0439524
0.036163
0.029597
0.0240965
0.0195164
0.0157254
0.0126061
0.0100541
0.00797834
0.00629938
0.00494894
0.00386872
0.00300938
0.00232943
0.00179431
0.0013754
0.00104919
0.000796492
0.000601754
0.000452454
0.000338574
0.00025215
0.000186893
0.000137863
0.000101203
7.3923e-05
5.3713e-05
3.88e-05
2.78284e-05
1.9765e-05
1.38232e-05
9.40207e-06
6.03759e-06
3.36368e-06
1.07928e-06
0.0414741
0.12369
0.203732
0.280223
0.351892
0.417614
0.476433
0.527589
0.570532
0.604928
0.630659
0.64781
0.656658
0.657645
0.651359
0.638501
0.619855
0.596261
0.568586
0.537696
0.50443
0.469587
0.433902
0.398041
0.362587
0.328037
0.294802
0.263209
0.233503