/*--------------------------------*- C++ -*----------------------------------*\
  =========                 |
  \\      /  F ield         | OpenFOAM: The Open Source CFD Toolbox
   \\    /   O peration     | Website:  https://openfoam.org
    \\  /    A nd           | Version:  10
     \\/     M anipulation  |
\*---------------------------------------------------------------------------*/
FoamFile
{
    format      ascii;
    class       volScalarField;
    location    "172";
    object      gradTz;
}
// * * * * * * * * * * * * * * * * * * * * * * * * * * * * * * * * * * * * * //

dimensions      [0 -1 0 1 0 0 0];

internalField   nonuniform List<scalar> 
11250
(
-14370.1
-4165.04
-1543.59
-738.363
-431.559
-287.511
-207.48
-157.2
-122.716
-97.5311
-78.2914
-63.1262
-50.9221
-40.9775
-32.8241
-26.1304
-20.6475
-16.1789
-12.5625
-9.66046
-7.35401
-5.53993
-4.12878
-3.04356
-2.21879
-1.59945
-1.13999
-0.803298
-0.559602
-0.385383
-0.262366
-0.176571
-0.11747
-0.0772556
-0.0502253
-0.0322774
-0.0205043
-0.0128747
-0.00798978
-0.00489988
-0.00296901
-0.00177712
-0.00105045
-0.00061298
-0.000352987
-0.000200505
-0.000112291
-6.19733e-05
-3.36888e-05
-1.8029e-05
-9.49404e-06
-4.91727e-06
-2.50384e-06
-1.25295e-06
-6.15943e-07
-2.97378e-07
-1.40971e-07
-6.56035e-08
-2.9965e-08
-1.3425e-08
-5.90189e-09
-2.54098e-09
-1.09432e-09
-4.6539e-10
-1.844e-10
-7.35404e-11
-1.97571e-11
-2.19523e-12
1.09762e-12
-1.09762e-12
0
-5.48809e-12
-1.09762e-12
6.5857e-12
0
-8314.37
-4910.29
-2813.5
-1715.74
-1131.15
-797.919
-592.276
-455.579
-358.803
-286.761
-231.051
-186.779
-150.951
-121.64
-97.5394
-77.7114
-61.4447
-48.1713
-37.4192
-28.7848
-21.9186
-16.5157
-12.3112
-9.07685
-6.6181
-4.77135
-3.40111
-2.39684
-1.66986
-1.15007
-0.783016
-0.526999
-0.350624
-0.230603
-0.149926
-0.0963548
-0.0612121
-0.0384367
-0.023854
-0.0146295
-0.00886492
-0.00530639
-0.00313677
-0.00183054
-0.00105419
-0.000598855
-0.000335413
-0.000185133
-0.00010065
-5.38706e-05
-2.83721e-05
-1.4697e-05
-7.4848e-06
-3.74607e-06
-1.84191e-06
-8.89435e-07
-4.21718e-07
-1.96298e-07
-8.96644e-08
-4.02101e-08
-1.7698e-08
-7.61747e-09
-3.19955e-09
-1.32812e-09
-5.76249e-10
-2.51354e-10
-9.21999e-11
-2.19523e-11
-4.39047e-12
-4.39047e-12
1.09762e-12
4.39047e-12
0
-8.78094e-12
8.78094e-12
-5659.11
-4344.83
-3081.23
-2177.15
-1577.06
-1178.96
-906.899
-713.366
-570.017
-459.998
-373.122
-303.071
-245.792
-198.583
-159.555
-127.318
-100.791
-79.0959
-61.4904
-47.3329
-36.062
-27.1852
-20.2725
-14.9516
-10.9046
-7.86368
-5.60659
-3.95185
-2.75368
-1.89681
-1.2916
-0.869398
-0.578492
-0.380508
-0.247409
-0.159018
-0.101029
-0.0634433
-0.0393763
-0.0241511
-0.0146358
-0.00876156
-0.00517974
-0.00302311
-0.00174122
-0.000989282
-0.000554182
-0.000305942
-0.000166365
-8.90649e-05
-4.69203e-05
-2.43121e-05
-1.23853e-05
-6.20079e-06
-3.04992e-06
-1.47333e-06
-6.98826e-07
-3.25395e-07
-1.48692e-07
-6.66847e-08
-2.93591e-08
-1.26709e-08
-5.35747e-09
-2.21499e-09
-9.28584e-10
-3.95142e-10
-1.45983e-10
-5.37833e-11
-1.64643e-11
-1.09762e-11
0
1.20738e-11
1.09762e-12
-1.09762e-12
-1.09762e-12
-4312.23
-3723.04
-2984.21
-2329.99
-1817.16
-1431
-1140.97
-919.86
-747.668
-610.652
-499.61
-408.377
-332.756
-269.806
-217.38
-173.836
-137.855
-108.332
-84.3152
-64.9636
-49.5333
-37.3652
-27.8795
-20.5719
-15.0099
-10.828
-7.72252
-5.44479
-3.79489
-2.6146
-1.7807
-1.19883
-0.79782
-0.524847
-0.341303
-0.219394
-0.139403
-0.087551
-0.0543447
-0.0333356
-0.0202042
-0.0120966
-0.00715241
-0.00417513
-0.0024052
-0.00136682
-0.000765865
-0.000422922
-0.000230049
-0.000123201
-6.49285e-05
-3.36572e-05
-1.71537e-05
-8.59217e-06
-4.22827e-06
-2.04364e-06
-9.69863e-07
-4.51845e-07
-2.06614e-07
-9.27333e-08
-4.08522e-08
-1.76497e-08
-7.48904e-09
-3.12162e-09
-1.26994e-09
-5.03806e-10
-2.05254e-10
-8.34189e-11
-2.305e-11
0
8.78094e-12
1.09762e-12
-9.87856e-12
0
0
-3546.42
-3243.06
-2795.36
-2335.08
-1925.33
-1582.84
-1303.3
-1075.91
-889.822
-736.107
-608.002
-500.54
-410.082
-333.907
-269.916
-216.414
-171.982
-135.383
-105.517
-81.3947
-62.1226
-46.9007
-35.019
-25.8557
-18.875
-13.6225
-9.71944
-6.85514
-4.77937
-3.29379
-2.24383
-1.51096
-1.00574
-0.661748
-0.430401
-0.276709
-0.175847
-0.110455
-0.0685711
-0.0420682
-0.0255008
-0.0152702
-0.0090306
-0.00527262
-0.00303817
-0.001727
-0.000967984
-0.000534725
-0.000290981
-0.000155902
-8.22022e-05
-4.2634e-05
-2.17411e-05
-1.08966e-05
-5.36573e-06
-2.59515e-06
-1.23248e-06
-5.74612e-07
-2.62939e-07
-1.18107e-07
-5.20699e-08
-2.2511e-08
-9.55147e-09
-3.97447e-09
-1.62886e-09
-6.68449e-10
-2.75502e-10
-9.98832e-11
-1.53666e-11
-5.48809e-12
-2.19523e-12
4.39047e-12
0
-5.48809e-12
5.48809e-12
-3073.69
-2897.52
-2609.98
-2281.62
-1959.54
-1666.6
-1409.92
-1188.73
-999.198
-836.929
-697.916
-578.824
-476.959
-390.128
-316.503
-254.505
-202.73
-159.897
-124.823
-96.4161
-73.6705
-55.6725
-41.6026
-30.7384
-22.4532
-16.2137
-11.5736
-8.16627
-5.69557
-3.92649
-2.67563
-1.8022
-1.19988
-0.789658
-0.513695
-0.33032
-0.209952
-0.1319
-0.0818977
-0.0502525
-0.0304673
-0.0182478
-0.0107939
-0.00630366
-0.0036333
-0.00206596
-0.0011584
-0.000640181
-0.00034853
-0.000186833
-9.85678e-05
-5.11539e-05
-2.61034e-05
-1.30923e-05
-6.45179e-06
-3.12288e-06
-1.48434e-06
-6.92639e-07
-3.17228e-07
-1.42608e-07
-6.29165e-08
-2.7233e-08
-1.15821e-08
-4.84488e-09
-1.98559e-09
-7.86992e-10
-3.18309e-10
-1.25128e-10
-2.74404e-11
-1.09762e-11
-2.19523e-12
4.39047e-12
1.09762e-12
4.39047e-12
3.29285e-12
-2764.82
-2651.52
-2454.51
-2212.28
-1956.61
-1707.91
-1476.82
-1267.56
-1080.83
-915.67
-770.501
-643.62
-533.392
-438.293
-356.899
-287.858
-229.868
-181.674
-142.068
-109.895
-84.0727
-63.6
-47.5696
-35.1745
-25.7111
-18.5773
-13.2677
-9.36596
-6.53498
-4.50683
-3.07209
-2.06985
-1.37845
-0.907396
-0.590418
-0.379733
-0.241406
-0.151688
-0.0942019
-0.0578132
-0.0350582
-0.021002
-0.012426
-0.00725882
-0.00418514
-0.0023806
-0.00133537
-0.000738325
-0.000402172
-0.000215715
-0.000113877
-5.91403e-05
-3.02014e-05
-1.51598e-05
-7.47695e-06
-3.62228e-06
-1.72327e-06
-8.04897e-07
-3.69031e-07
-1.66065e-07
-7.33351e-08
-3.17771e-08
-1.35248e-08
-5.64614e-09
-2.29951e-09
-9.49439e-10
-4.08314e-10
-1.41593e-10
-2.41476e-11
-1.09762e-12
0
-4.39047e-12
-1.09762e-12
0
5.48809e-12
-2555.04
-2475.58
-2331.67
-2145.29
-1937.5
-1724.51
-1516.98
-1321.18
-1140.33
-975.771
-827.789
-696.074
-579.988
-478.693
-391.214
-316.483
-253.358
-200.658
-157.19
-121.774
-93.2795
-70.6422
-52.8869
-39.1385
-28.6292
-20.6988
-14.7912
-10.4466
-7.29217
-5.031
-3.43061
-2.31214
-1.54025
-1.01417
-0.660052
-0.424614
-0.269994
-0.169685
-0.105399
-0.0646983
-0.0392416
-0.0235135
-0.0139155
-0.00813129
-0.00468973
-0.00266864
-0.00149759
-0.00082843
-0.000451505
-0.000242326
-0.000128013
-6.6531e-05
-3.40028e-05
-1.70825e-05
-8.43282e-06
-4.08921e-06
-1.94733e-06
-9.10489e-07
-4.17873e-07
-1.88234e-07
-8.32137e-08
-3.6116e-08
-1.53721e-08
-6.4057e-09
-2.6244e-09
-1.07896e-09
-4.62097e-10
-1.83302e-10
-3.62214e-11
5.48809e-12
1.09762e-12
-8.78094e-12
-8.78094e-12
4.39047e-12
1.09762e-11
-2408.78
-2348.79
-2237.17
-2087.26
-1913.27
-1727.64
-1539.93
-1356.87
-1182.91
-1020.81
-872.164
-737.737
-617.735
-511.94
-419.819
-340.598
-273.322
-216.912
-170.218
-132.063
-101.29
-76.7938
-57.5476
-42.6234
-31.2013
-22.5732
-16.1398
-11.4049
-7.96479
-5.49731
-3.74997
-2.52822
-1.6847
-1.10959
-0.722333
-0.464787
-0.295603
-0.185818
-0.115444
-0.0708786
-0.0429995
-0.0257713
-0.0152556
-0.00891702
-0.00514465
-0.00292865
-0.00164424
-0.000910012
-0.000496252
-0.000266512
-0.000140889
-7.32789e-05
-3.74825e-05
-1.88472e-05
-9.31259e-06
-4.52022e-06
-2.15475e-06
-1.00853e-06
-4.63371e-07
-2.08955e-07
-9.24984e-08
-4.02068e-08
-1.71371e-08
-7.15866e-09
-2.92186e-09
-1.17116e-09
-4.98318e-10
-2.00864e-10
-5.26856e-11
-8.78094e-12
0
1.09762e-12
0
-1.09762e-12
0
-2305
-2256.79
-2165.46
-2039.64
-1889.31
-1724.08
-1552.18
-1380.15
-1212.93
-1054.07
-906.004
-770.292
-647.8
-538.835
-443.255
-360.566
-290
-230.594
-181.255
-140.828
-108.147
-82.0806
-61.5676
-45.6387
-33.4331
-24.2034
-17.3155
-12.242
-8.5533
-5.90594
-4.03022
-2.71808
-1.81177
-1.19361
-0.77723
-0.500228
-0.318213
-0.200074
-0.124326
-0.0763474
-0.0463272
-0.0277721
-0.0164443
-0.0096146
-0.00554897
-0.00316003
-0.00177493
-0.000982836
-0.00053627
-0.000288186
-0.000152453
-7.93542e-05
-4.06234e-05
-2.04444e-05
-1.01112e-05
-4.91262e-06
-2.34416e-06
-1.09831e-06
-5.05154e-07
-2.28054e-07
-1.01051e-07
-4.39431e-08
-1.87813e-08
-7.88638e-09
-3.21821e-09
-1.26994e-09
-5.21368e-10
-2.27207e-10
-7.13451e-11
-5.48809e-12
5.48809e-12
-2.19524e-12
-5.48809e-12
0
0
-2230.53
-2189.71
-2111.46
-2001.77
-1867.98
-1717.71
-1558.03
-1395.07
-1233.86
-1078.34
-931.471
-795.37
-671.391
-560.256
-462.154
-376.837
-303.711
-241.925
-190.455
-148.175
-113.922
-86.553
-64.9809
-48.2074
-35.3398
-25.5999
-18.3248
-12.9621
-9.06055
-6.25875
-4.27255
-2.88248
-1.92194
-1.26654
-0.824924
-0.531048
-0.337892
-0.21249
-0.132067
-0.0811178
-0.049232
-0.02952
-0.0174835
-0.0102251
-0.00590318
-0.00336297
-0.00188972
-0.0010469
-0.000571539
-0.000307327
-0.000162689
-8.47442e-05
-4.34171e-05
-2.1869e-05
-1.08254e-05
-5.26458e-06
-2.51455e-06
-1.17931e-06
-5.42974e-07
-2.45379e-07
-1.08835e-07
-4.73841e-08
-2.02631e-08
-8.49885e-09
-3.48274e-09
-1.40385e-09
-5.68566e-10
-2.32695e-10
-7.35404e-11
-7.68332e-12
1.09762e-12
-6.5857e-12
0
5.48809e-12
0
-2176.71
-2140.67
-2071.04
-1972.26
-1850.04
-1710.64
-1560.22
-1404.46
-1248.3
-1095.86
-950.421
-814.448
-689.653
-577.076
-477.172
-389.897
-314.81
-251.167
-198.007
-154.239
-118.713
-90.2787
-67.8352
-50.3627
-36.9445
-26.7783
-19.1786
-13.5726
-9.49137
-6.55892
-4.47905
-3.02277
-2.01607
-1.32892
-0.865769
-0.557467
-0.354776
-0.223151
-0.13872
-0.0852199
-0.0517316
-0.0310252
-0.0183791
-0.0107516
-0.00620898
-0.00353839
-0.00198906
-0.00110243
-0.000602159
-0.000323976
-0.00017161
-8.94531e-05
-4.58638e-05
-2.31197e-05
-1.14542e-05
-5.57528e-06
-2.66539e-06
-1.25123e-06
-5.76634e-07
-2.60828e-07
-1.15787e-07
-5.0463e-08
-2.15967e-08
-9.06193e-09
-3.73958e-09
-1.53886e-09
-6.09178e-10
-2.35988e-10
-7.90285e-11
-6.58571e-12
0
0
-2.19524e-12
-3.29285e-12
5.48809e-12
-2137.68
-2104.8
-2040.93
-1949.6
-1835.5
-1703.94
-1560.43
-1410.23
-1258.17
-1108.4
-964.381
-828.798
-703.617
-590.113
-488.943
-400.232
-323.668
-258.595
-204.115
-159.171
-122.628
-93.3365
-70.1868
-52.1444
-38.275
-27.7581
-19.8902
-14.0825
-9.85198
-6.81063
-4.6525
-3.14078
-2.09536
-1.38154
-0.900254
-0.579794
-0.369057
-0.232177
-0.144356
-0.0886973
-0.0538519
-0.0323028
-0.0191398
-0.0111992
-0.00646913
-0.00368775
-0.00207375
-0.00114983
-0.000628337
-0.000338234
-0.000179265
-9.35014e-05
-4.79719e-05
-2.41999e-05
-1.19985e-05
-5.84494e-06
-2.79664e-06
-1.31396e-06
-6.06067e-07
-2.74382e-07
-1.21924e-07
-5.31741e-08
-2.2769e-08
-9.59318e-09
-3.95801e-09
-1.60362e-09
-6.46497e-10
-2.43671e-10
-8.34189e-11
-2.52452e-11
-1.09762e-12
0
0
1.09762e-12
-1.09762e-12
-2109.35
-2078.58
-2018.62
-1932.42
-1824
-1698.08
-1559.66
-1413.7
-1264.87
-1117.31
-974.573
-839.483
-714.175
-600.093
-498.051
-408.303
-330.639
-264.482
-208.986
-163.125
-125.781
-95.81
-72.0963
-53.5961
-39.3625
-28.561
-20.4749
-14.5024
-10.1495
-7.0187
-4.79612
-3.23865
-2.16121
-1.42529
-0.928961
-0.598399
-0.380968
-0.23971
-0.149063
-0.0916034
-0.0556249
-0.0333716
-0.0197766
-0.011574
-0.00668716
-0.00381303
-0.00214484
-0.00118967
-0.000650362
-0.000350247
-0.000185725
-9.69241e-05
-4.97576e-05
-2.51168e-05
-1.24616e-05
-6.07482e-06
-2.90878e-06
-1.3677e-06
-6.31344e-07
-2.86046e-07
-1.27192e-07
-5.55142e-08
-2.37854e-08
-1.00136e-08
-4.12814e-09
-1.67606e-09
-7.09061e-10
-2.77697e-10
-8.12237e-11
-2.52452e-11
-5.48809e-12
-8.78094e-12
3.29285e-12
1.31714e-11
-3.29285e-12
-2088.8
-2059.47
-2002.17
-1919.51
-1815.09
-1693.2
-1558.51
-1415.72
-1269.38
-1123.6
-981.952
-847.361
-722.072
-607.647
-505.013
-414.525
-336.054
-269.086
-212.816
-166.251
-128.286
-97.783
-73.6251
-54.7622
-40.2387
-29.2098
-20.9484
-14.8433
-10.3916
-7.1883
-4.91339
-3.31868
-2.21513
-1.46116
-0.952525
-0.613687
-0.390763
-0.245909
-0.152939
-0.0939979
-0.0570863
-0.034253
-0.0203019
-0.0118833
-0.00686715
-0.0039165
-0.0022036
-0.00122261
-0.000668594
-0.000360201
-0.000191084
-9.97677e-05
-5.12435e-05
-2.58811e-05
-1.28483e-05
-6.26714e-06
-3.00277e-06
-1.4128e-06
-6.52597e-07
-2.95911e-07
-1.31673e-07
-5.74866e-08
-2.46272e-08
-1.03736e-08
-4.30815e-09
-1.77595e-09
-7.4638e-10
-3.02942e-10
-8.12237e-11
-5.48809e-12
4.39047e-12
5.48809e-12
-4.39047e-12
1.09762e-12
-1.09762e-12
-2073.94
-2045.58
-1990.11
-1909.9
-1808.29
-1689.28
-1557.28
-1416.85
-1272.4
-1128.01
-987.253
-853.119
-727.919
-613.302
-510.273
-419.264
-340.208
-272.638
-215.79
-168.69
-130.249
-99.3351
-74.8321
-55.686
-40.9349
-29.7267
-21.3267
-15.1162
-10.5858
-7.32462
-5.00781
-3.38323
-2.25868
-1.49017
-0.971602
-0.626075
-0.398707
-0.250941
-0.156087
-0.0959431
-0.0582739
-0.0349694
-0.0207289
-0.0121348
-0.00701349
-0.00400065
-0.00225139
-0.00124941
-0.000683436
-0.000368311
-0.000195454
-0.000102088
-5.24575e-05
-2.65062e-05
-1.3165e-05
-6.42491e-06
-3.07999e-06
-1.4499e-06
-6.70102e-07
-3.0401e-07
-1.35372e-07
-5.91572e-08
-2.53725e-08
-1.06776e-08
-4.4212e-09
-1.83192e-09
-7.72723e-10
-3.29285e-10
-8.78094e-11
-7.68332e-12
-1.09762e-12
9.87856e-12
9.87856e-12
1.09762e-12
-8.78094e-12
-2063.23
-2035.54
-1981.33
-1902.82
-1803.17
-1686.2
-1556.15
-1417.44
-1274.4
-1131.07
-991.033
-857.29
-732.207
-617.49
-514.203
-422.831
-343.354
-275.346
-218.068
-170.567
-131.766
-100.54
-75.7724
-56.408
-41.4806
-30.133
-21.6247
-15.3317
-10.7395
-7.4327
-5.0828
-3.43457
-2.29337
-1.5133
-0.986834
-0.635976
-0.405062
-0.254968
-0.158607
-0.0975012
-0.0592253
-0.0355433
-0.0210709
-0.0123362
-0.00713067
-0.00406801
-0.00228964
-0.00127087
-0.000695315
-0.000374802
-0.000198953
-0.000103947
-5.34307e-05
-2.70078e-05
-1.34193e-05
-6.55174e-06
-3.14212e-06
-1.47981e-06
-6.84254e-07
-3.10588e-07
-1.3836e-07
-6.04886e-08
-2.5963e-08
-1.09411e-08
-4.52767e-09
-1.87034e-09
-7.95773e-10
-3.19407e-10
-8.8907e-11
-2.19523e-11
-4.39047e-12
6.5857e-12
4.39047e-12
8.78094e-12
-7.68332e-12
-2055.55
-2028.32
-1974.97
-1897.65
-1799.37
-1683.84
-1555.19
-1417.72
-1275.72
-1133.19
-993.707
-860.285
-735.322
-620.56
-517.107
-425.485
-345.711
-277.385
-219.791
-171.993
-132.925
-101.463
-76.4952
-56.9648
-41.9026
-30.448
-21.8564
-15.4996
-10.8594
-7.51723
-5.14155
-3.47486
-2.32063
-1.53151
-0.998832
-0.643781
-0.410075
-0.258147
-0.160598
-0.0987318
-0.0599767
-0.0359965
-0.0213409
-0.0124951
-0.00722307
-0.00412109
-0.00231976
-0.00128775
-0.00070466
-0.000379907
-0.000201704
-0.000105409
-5.41959e-05
-2.74022e-05
-1.36194e-05
-6.65157e-06
-3.19111e-06
-1.50344e-06
-6.95424e-07
-3.15767e-07
-1.40719e-07
-6.15248e-08
-2.64251e-08
-1.11474e-08
-4.61987e-09
-1.89668e-09
-7.9248e-10
-3.32578e-10
-1.04274e-10
-2.96357e-11
4.39047e-12
9.87856e-12
-3.29285e-12
4.39047e-12
-1.09762e-12
-2050.07
-2023.16
-1970.41
-1893.9
-1796.58
-1682.06
-1554.39
-1417.83
-1276.59
-1134.65
-995.585
-862.418
-737.563
-622.789
-519.23
-427.438
-347.454
-278.901
-221.079
-173.064
-133.797
-102.161
-77.0437
-57.3885
-42.2247
-30.689
-22.0341
-15.6287
-10.9518
-7.58246
-5.18697
-3.50605
-2.34177
-1.54564
-1.00816
-0.649853
-0.413977
-0.260622
-0.162148
-0.0996902
-0.0605618
-0.0363492
-0.0215509
-0.0126186
-0.00729482
-0.00416226
-0.0023431
-0.00130082
-0.000711886
-0.000383851
-0.000203827
-0.000106536
-5.47858e-05
-2.77063e-05
-1.37736e-05
-6.72851e-06
-3.22885e-06
-1.52162e-06
-7.0404e-07
-3.19771e-07
-1.42554e-07
-6.23644e-08
-2.67709e-08
-1.12934e-08
-4.68573e-09
-1.91095e-09
-7.88089e-10
-3.41359e-10
-1.27324e-10
-2.52452e-11
9.87856e-12
3.29285e-12
-1.4269e-11
-2.19523e-12
3.29285e-12
-2046.2
-2019.5
-1967.15
-1891.21
-1794.56
-1680.74
-1553.77
-1417.84
-1277.15
-1135.65
-996.895
-863.924
-739.161
-624.39
-520.765
-428.859
-348.73
-280.016
-222.03
-173.858
-134.447
-102.682
-77.4545
-57.7068
-42.4674
-30.8711
-22.1686
-15.7266
-11.0221
-7.63214
-5.22162
-3.52988
-2.35794
-1.55646
-1.01531
-0.654512
-0.416973
-0.262524
-0.163339
-0.100426
-0.061011
-0.0366198
-0.0217119
-0.0127132
-0.00734968
-0.0041937
-0.0023609
-0.00131077
-0.000717378
-0.000386843
-0.000205436
-0.000107389
-5.52317e-05
-2.79358e-05
-1.389e-05
-6.78654e-06
-3.2573e-06
-1.53535e-06
-7.10559e-07
-3.22803e-07
-1.43951e-07
-6.29857e-08
-2.70321e-08
-1.14097e-08
-4.73622e-09
-1.93181e-09
-8.04554e-10
-3.19407e-10
-1.09762e-10
-3.07333e-11
-2.19523e-12
-1.09762e-12
0
0
1.09762e-12
-2043.47
-2016.91
-1964.85
-1889.29
-1793.1
-1679.78
-1553.29
-1417.82
-1277.51
-1136.32
-997.8
-864.979
-740.29
-625.529
-521.865
-429.882
-349.653
-280.826
-222.725
-174.44
-134.924
-103.066
-77.7585
-57.943
-42.6479
-31.0068
-22.2691
-15.7999
-11.0748
-7.66948
-5.2477
-3.54785
-2.37014
-1.56465
-1.02071
-0.65804
-0.419243
-0.263965
-0.164241
-0.100984
-0.0613512
-0.0368245
-0.0218335
-0.0127845
-0.007391
-0.00421734
-0.00237425
-0.00131822
-0.000721479
-0.000389073
-0.000206632
-0.000108023
-5.55621e-05
-2.81057e-05
-1.3976e-05
-6.82936e-06
-3.27828e-06
-1.54547e-06
-7.15339e-07
-3.25035e-07
-1.44966e-07
-6.34544e-08
-2.72374e-08
-1.14899e-08
-4.76915e-09
-1.94717e-09
-7.91382e-10
-3.30383e-10
-1.26226e-10
-2.52452e-11
-2.19523e-12
6.58571e-12
-3.29285e-12
-7.68332e-12
8.78094e-12
-2041.56
-2015.11
-1963.24
-1887.94
-1792.06
-1679.08
-1552.93
-1417.77
-1277.74
-1136.78
-998.422
-865.711
-741.08
-626.332
-522.644
-430.611
-350.313
-281.408
-223.225
-174.861
-135.271
-103.346
-77.9805
-58.116
-42.7804
-31.1068
-22.3433
-15.8541
-11.1138
-7.69719
-5.26709
-3.56123
-2.37924
-1.57075
-1.02475
-0.660676
-0.42094
-0.265042
-0.164916
-0.101401
-0.0616052
-0.0369773
-0.0219241
-0.0128376
-0.00742166
-0.00423483
-0.00238411
-0.0013237
-0.00072449
-0.000390706
-0.000207506
-0.000108484
-5.58022e-05
-2.82288e-05
-1.40382e-05
-6.8603e-06
-3.29341e-06
-1.55273e-06
-7.18775e-07
-3.26641e-07
-1.45683e-07
-6.37705e-08
-2.74097e-08
-1.1559e-08
-4.77464e-09
-1.934e-09
-7.71625e-10
-3.18309e-10
-1.44886e-10
-6.36618e-11
-1.09762e-12
1.20738e-11
-3.29285e-12
1.09762e-12
2.19524e-12
-2040.24
-2013.86
-1962.11
-1887
-1791.33
-1678.58
-1552.67
-1417.73
-1277.89
-1137.08
-998.846
-866.215
-741.628
-626.892
-523.191
-431.124
-350.78
-281.822
-223.582
-175.162
-135.52
-103.548
-78.1408
-58.2412
-42.8765
-31.1794
-22.3973
-15.8937
-11.1424
-7.71749
-5.28131
-3.57105
-2.38594
-1.57525
-1.02773
-0.662621
-0.422193
-0.265837
-0.165414
-0.101708
-0.0617923
-0.0370896
-0.0219906
-0.0128764
-0.00744408
-0.00424758
-0.00239127
-0.00132767
-0.000726665
-0.000391881
-0.000208133
-0.000108814
-5.59733e-05
-2.83164e-05
-1.40823e-05
-6.88217e-06
-3.30408e-06
-1.55786e-06
-7.21188e-07
-3.27752e-07
-1.46203e-07
-6.40098e-08
-2.74942e-08
-1.16007e-08
-4.78781e-09
-1.92083e-09
-7.85894e-10
-3.36969e-10
-1.40495e-10
-3.95142e-11
1.09762e-12
0
0
-1.09762e-11
1.20738e-11
-2039.33
-2012.99
-1961.34
-1886.35
-1790.82
-1678.23
-1552.48
-1417.69
-1277.98
-1137.28
-999.132
-866.559
-742.004
-627.279
-523.57
-431.482
-351.107
-282.112
-223.834
-175.375
-135.696
-103.691
-78.255
-58.3306
-42.9454
-31.2315
-22.4361
-15.9222
-11.163
-7.73216
-5.29161
-3.57818
-2.3908
-1.57851
-1.0299
-0.664037
-0.423105
-0.266416
-0.165776
-0.101932
-0.0619282
-0.0371711
-0.0220388
-0.0129045
-0.00746022
-0.00425674
-0.0023964
-0.0013305
-0.000728209
-0.000392712
-0.000208574
-0.000109045
-5.6093e-05
-2.83774e-05
-1.41129e-05
-6.8973e-06
-3.31145e-06
-1.56137e-06
-7.2285e-07
-3.28504e-07
-1.46551e-07
-6.41876e-08
-2.75853e-08
-1.16205e-08
-4.77903e-09
-1.95705e-09
-8.1553e-10
-3.17211e-10
-1.16347e-10
-4.17095e-11
-2.19523e-12
6.58571e-12
-1.09762e-12
-1.09762e-12
2.19524e-12
-2038.72
-2012.41
-1960.81
-1885.9
-1790.47
-1677.99
-1552.34
-1417.65
-1278.04
-1137.42
-999.324
-866.791
-742.261
-627.544
-523.831
-431.729
-351.334
-282.314
-224.009
-175.524
-135.82
-103.792
-78.3355
-58.3938
-42.9941
-31.2685
-22.4637
-15.9425
-11.1777
-7.74265
-5.29898
-3.58329
-2.39428
-1.58086
-1.03145
-0.665054
-0.42376
-0.266833
-0.166037
-0.102092
-0.0620257
-0.0372295
-0.0220732
-0.0129245
-0.00747169
-0.00426323
-0.00240001
-0.00133249
-0.000729289
-0.000393291
-0.00020888
-0.000109205
-5.61751e-05
-2.8419e-05
-1.41338e-05
-6.90757e-06
-3.31645e-06
-1.56377e-06
-7.23969e-07
-3.2901e-07
-1.46769e-07
-6.42809e-08
-2.76128e-08
-1.16172e-08
-4.81305e-09
-1.979e-09
-8.04554e-10
-3.23797e-10
-1.22933e-10
-2.74404e-11
0
0
1.09762e-12
1.09762e-12
-2.19524e-12
-2038.3
-2012.01
-1960.45
-1885.6
-1790.24
-1677.82
-1552.25
-1417.63
-1278.07
-1137.5
-999.451
-866.947
-742.433
-627.723
-524.008
-431.898
-351.489
-282.453
-224.13
-175.627
-135.906
-103.862
-78.3915
-58.4379
-43.0282
-31.2944
-22.4831
-15.9568
-11.188
-7.75004
-5.30419
-3.5869
-2.39675
-1.58252
-1.03256
-0.665776
-0.424225
-0.267128
-0.166221
-0.102206
-0.0620947
-0.0372707
-0.0220975
-0.0129386
-0.00747973
-0.00426775
-0.00240252
-0.00133387
-0.000730033
-0.000393687
-0.000209089
-0.000109313
-5.62305e-05
-2.8447e-05
-1.41477e-05
-6.91442e-06
-3.31972e-06
-1.56534e-06
-7.24701e-07
-3.29357e-07
-1.46941e-07
-6.4339e-08
-2.7638e-08
-1.16556e-08
-4.81635e-09
-1.95705e-09
-8.00163e-10
-3.21602e-10
-1.25128e-10
-3.51238e-11
2.19523e-12
0
-2.19523e-12
-5.48809e-12
5.48809e-12
-2038.02
-2011.74
-1960.21
-1885.39
-1790.07
-1677.71
-1552.18
-1417.61
-1278.1
-1137.56
-999.535
-867.051
-742.549
-627.844
-524.128
-432.012
-351.594
-282.547
-224.212
-175.697
-135.964
-103.91
-78.4301
-58.4682
-43.0517
-31.3123
-22.4965
-15.9667
-11.1952
-7.75519
-5.30782
-3.58942
-2.39848
-1.58369
-1.03333
-0.666282
-0.424552
-0.267335
-0.166351
-0.102286
-0.0621429
-0.0372994
-0.0221143
-0.0129484
-0.00748528
-0.00427087
-0.00240425
-0.00133481
-0.000730538
-0.000393955
-0.000209229
-0.000109385
-5.62673e-05
-2.84655e-05
-1.41568e-05
-6.91888e-06
-3.32187e-06
-1.56634e-06
-7.25178e-07
-3.29579e-07
-1.47034e-07
-6.43819e-08
-2.76753e-08
-1.16677e-08
-4.80098e-09
-1.96364e-09
-7.9687e-10
-3.05138e-10
-1.1964e-10
-4.93928e-11
-5.48809e-12
2.19524e-12
-1.4269e-11
4.39047e-12
1.31714e-11
-2037.83
-2011.57
-1960.05
-1885.25
-1789.97
-1677.63
-1552.14
-1417.59
-1278.11
-1137.6
-999.59
-867.119
-742.625
-627.924
-524.207
-432.088
-351.665
-282.611
-224.268
-175.745
-136.004
-103.943
-78.4562
-58.4889
-43.0678
-31.3246
-22.5057
-15.9735
-11.2002
-7.75873
-5.31032
-3.59116
-2.39967
-1.58449
-1.03387
-0.666632
-0.424777
-0.267478
-0.16644
-0.102341
-0.0621762
-0.0373192
-0.0221259
-0.012955
-0.00748907
-0.00427298
-0.00240541
-0.00133544
-0.000730875
-0.000394133
-0.000209321
-0.000109433
-5.62913e-05
-2.84775e-05
-1.41627e-05
-6.92175e-06
-3.32324e-06
-1.56698e-06
-7.25469e-07
-3.2971e-07
-1.47091e-07
-6.44192e-08
-2.76896e-08
-1.16545e-08
-4.79769e-09
-1.97352e-09
-8.03456e-10
-2.96357e-10
-1.16347e-10
-4.28071e-11
0
0
0
8.78094e-12
-8.78094e-12
-2037.71
-2011.45
-1959.95
-1885.17
-1789.89
-1677.58
-1552.1
-1417.58
-1278.12
-1137.62
-999.626
-867.164
-742.675
-627.976
-524.26
-432.138
-351.711
-282.653
-224.305
-175.776
-136.031
-103.964
-78.4738
-58.5028
-43.0786
-31.3328
-22.512
-15.9781
-11.2035
-7.76114
-5.31202
-3.59234
-2.40048
-1.58504
-1.03423
-0.666871
-0.424931
-0.267576
-0.166501
-0.102378
-0.0621988
-0.0373326
-0.0221338
-0.0129595
-0.00749162
-0.0042744
-0.00240619
-0.00133586
-0.000731098
-0.000394249
-0.000209382
-0.000109463
-5.63067e-05
-2.84851e-05
-1.41665e-05
-6.92356e-06
-3.32411e-06
-1.56739e-06
-7.25654e-07
-3.29793e-07
-1.4711e-07
-6.44115e-08
-2.76687e-08
-1.16556e-08
-4.8372e-09
-1.98339e-09
-7.84797e-10
-2.83185e-10
-1.06469e-10
-5.04904e-11
-3.51238e-11
-1.09762e-12
1.64643e-11
2.19523e-12
2.19523e-12
-2037.63
-2011.38
-1959.88
-1885.11
-1789.85
-1677.55
-1552.08
-1417.57
-1278.12
-1137.64
-999.649
-867.192
-742.708
-628.01
-524.294
-432.171
-351.742
-282.68
-224.329
-175.797
-136.048
-103.979
-78.4855
-58.5121
-43.0858
-31.3383
-22.5161
-15.9811
-11.2058
-7.76275
-5.31316
-3.59314
-2.40103
-1.58541
-1.03448
-0.667033
-0.425035
-0.267642
-0.166542
-0.102403
-0.062214
-0.0373417
-0.022139
-0.0129626
-0.00749332
-0.00427534
-0.0024067
-0.00133613
-0.000731243
-0.000394325
-0.00020942
-0.000109483
-5.63165e-05
-2.84899e-05
-1.41688e-05
-6.92467e-06
-3.32465e-06
-1.56764e-06
-7.25773e-07
-3.29856e-07
-1.47122e-07
-6.44038e-08
-2.76633e-08
-1.166e-08
-4.8372e-09
-1.979e-09
-7.71625e-10
-2.79892e-10
-1.20738e-10
-5.48809e-11
-9.87856e-12
5.48809e-12
0
0
0
-2037.58
-2011.33
-1959.84
-1885.07
-1789.82
-1677.52
-1552.07
-1417.57
-1278.12
-1137.64
-999.663
-867.211
-742.729
-628.033
-524.316
-432.193
-351.762
-282.698
-224.345
-175.811
-136.06
-103.988
-78.4932
-58.5182
-43.0905
-31.342
-22.5188
-15.9832
-11.2072
-7.76382
-5.31392
-3.59367
-2.40139
-1.58566
-1.03464
-0.66714
-0.425105
-0.267686
-0.16657
-0.10242
-0.0622241
-0.0373476
-0.0221425
-0.0129645
-0.00749443
-0.00427596
-0.00240703
-0.00133631
-0.000731337
-0.000394373
-0.000209445
-0.000109495
-5.63226e-05
-2.84929e-05
-1.41703e-05
-6.92537e-06
-3.325e-06
-1.56781e-06
-7.25829e-07
-3.29885e-07
-1.47152e-07
-6.43994e-08
-2.76446e-08
-1.16578e-08
-4.8372e-09
-1.97461e-09
-7.89187e-10
-3.06235e-10
-9.98832e-11
-2.41476e-11
-4.39047e-12
0
-2.19524e-12
0
-2.19524e-12
-2037.55
-2011.3
-1959.81
-1885.04
-1789.8
-1677.51
-1552.06
-1417.57
-1278.13
-1137.65
-999.673
-867.222
-742.742
-628.047
-524.33
-432.206
-351.775
-282.71
-224.355
-175.82
-136.067
-103.994
-78.4981
-58.5221
-43.0936
-31.3443
-22.5206
-15.9845
-11.2082
-7.76452
-5.31441
-3.59401
-2.40163
-1.58582
-1.03475
-0.667211
-0.42515
-0.267715
-0.166588
-0.102431
-0.0622308
-0.0373516
-0.0221448
-0.0129658
-0.00749515
-0.00427635
-0.00240725
-0.00133643
-0.000731396
-0.000394404
-0.00020946
-0.000109503
-5.63264e-05
-2.84947e-05
-1.41711e-05
-6.92578e-06
-3.32519e-06
-1.56791e-06
-7.25873e-07
-3.29888e-07
-1.47144e-07
-6.44148e-08
-2.76644e-08
-1.16479e-08
-4.83171e-09
-1.9812e-09
-7.84797e-10
-3.07333e-10
-1.03176e-10
-2.52452e-11
-1.09762e-12
-1.09762e-12
0
1.64643e-11
-6.5857e-12
-2037.53
-2011.28
-1959.79
-1885.03
-1789.79
-1677.5
-1552.06
-1417.56
-1278.13
-1137.65
-999.678
-867.23
-742.75
-628.056
-524.339
-432.215
-351.783
-282.717
-224.362
-175.825
-136.072
-103.998
-78.5013
-58.5246
-43.0956
-31.3458
-22.5218
-15.9853
-11.2088
-7.76497
-5.31473
-3.59424
-2.40179
-1.58592
-1.03482
-0.667257
-0.42518
-0.267734
-0.166599
-0.102438
-0.0622351
-0.0373541
-0.0221463
-0.0129667
-0.00749562
-0.00427661
-0.00240739
-0.0013365
-0.000731434
-0.000394423
-0.00020947
-0.000109508
-5.63287e-05
-2.84959e-05
-1.41717e-05
-6.92602e-06
-3.3253e-06
-1.56795e-06
-7.25896e-07
-3.29907e-07
-1.47162e-07
-6.44236e-08
-2.76907e-08
-1.16655e-08
-4.82403e-09
-1.97022e-09
-7.66137e-10
-2.86478e-10
-1.09762e-10
-4.06118e-11
-1.09762e-12
6.58571e-12
-4.39047e-12
6.5857e-12
4.39047e-12
-2037.52
-2011.26
-1959.78
-1885.02
-1789.78
-1677.49
-1552.05
-1417.56
-1278.13
-1137.66
-999.682
-867.234
-742.756
-628.061
-524.345
-432.221
-351.788
-282.722
-224.366
-175.829
-136.075
-104.001
-78.5033
-58.5262
-43.0968
-31.3468
-22.5225
-15.9859
-11.2092
-7.76525
-5.31494
-3.59438
-2.40188
-1.58599
-1.03486
-0.667286
-0.425199
-0.267746
-0.166607
-0.102443
-0.0622378
-0.0373557
-0.0221472
-0.0129672
-0.00749591
-0.00427677
-0.00240747
-0.00133654
-0.000731457
-0.000394435
-0.000209476
-0.000109511
-5.63302e-05
-2.84965e-05
-1.4172e-05
-6.92619e-06
-3.32536e-06
-1.56794e-06
-7.25893e-07
-3.29909e-07
-1.47156e-07
-6.44367e-08
-2.77072e-08
-1.16655e-08
-4.81415e-09
-1.97352e-09
-7.79308e-10
-2.96357e-10
-1.11957e-10
-2.96357e-11
-5.48809e-12
1.09762e-12
1.09762e-12
-1.09762e-12
0
-2037.51
-2011.26
-1959.77
-1885.01
-1789.77
-1677.49
-1552.05
-1417.56
-1278.13
-1137.66
-999.684
-867.237
-742.759
-628.065
-524.349
-432.224
-351.791
-282.725
-224.369
-175.831
-136.077
-104.002
-78.5046
-58.5272
-43.0976
-31.3474
-22.5229
-15.9862
-11.2095
-7.76543
-5.31507
-3.59447
-2.40195
-1.58603
-1.03489
-0.667304
-0.425211
-0.267753
-0.166612
-0.102446
-0.0622395
-0.0373567
-0.0221478
-0.0129675
-0.0074961
-0.00427687
-0.00240753
-0.00133657
-0.000731471
-0.000394442
-0.00020948
-0.000109513
-5.6331e-05
-2.84969e-05
-1.41722e-05
-6.92627e-06
-3.32537e-06
-1.56796e-06
-7.25914e-07
-3.29914e-07
-1.47169e-07
-6.444e-08
-2.76962e-08
-1.16655e-08
-4.80756e-09
-1.96693e-09
-7.78211e-10
-3.20504e-10
-1.1964e-10
-1.09762e-12
1.31714e-11
-1.09762e-11
-1.09762e-11
-1.09762e-12
1.09762e-12
-2037.5
-2011.25
-1959.77
-1885.01
-1789.77
-1677.49
-1552.05
-1417.56
-1278.13
-1137.66
-999.686
-867.239
-742.761
-628.067
-524.351
-432.226
-351.793
-282.727
-224.37
-175.833
-136.078
-104.003
-78.5053
-58.5278
-43.0981
-31.3478
-22.5232
-15.9864
-11.2096
-7.76555
-5.31515
-3.59452
-2.40198
-1.58606
-1.03491
-0.667316
-0.425218
-0.267758
-0.166615
-0.102448
-0.0622406
-0.0373574
-0.0221481
-0.0129677
-0.00749621
-0.00427693
-0.00240756
-0.00133659
-0.00073148
-0.000394446
-0.000209482
-0.000109514
-5.63315e-05
-2.84972e-05
-1.41723e-05
-6.92632e-06
-3.32541e-06
-1.56799e-06
-7.2592e-07
-3.29912e-07
-1.47156e-07
-6.4417e-08
-2.76929e-08
-1.16995e-08
-4.83171e-09
-1.94278e-09
-7.84797e-10
-3.40261e-10
-1.24031e-10
-1.64643e-11
1.53666e-11
5.48809e-12
-8.78094e-12
0
3.29285e-12
-2037.5
-2011.25
-1959.76
-1885.01
-1789.77
-1677.49
-1552.05
-1417.56
-1278.13
-1137.66
-999.686
-867.24
-742.762
-628.068
-524.352
-432.227
-351.794
-282.728
-224.371
-175.833
-136.078
-104.004
-78.5058
-58.5282
-43.0984
-31.348
-22.5234
-15.9866
-11.2097
-7.76561
-5.31519
-3.59456
-2.40201
-1.58607
-1.03492
-0.667323
-0.425223
-0.267761
-0.166616
-0.102449
-0.0622413
-0.0373577
-0.0221484
-0.0129679
-0.00749628
-0.00427697
-0.00240758
-0.0013366
-0.000731485
-0.000394449
-0.000209483
-0.000109514
-5.63318e-05
-2.84974e-05
-1.41724e-05
-6.92633e-06
-3.32541e-06
-1.56799e-06
-7.25931e-07
-3.29924e-07
-1.47167e-07
-6.44258e-08
-2.76863e-08
-1.16852e-08
-4.8383e-09
-1.96254e-09
-7.68332e-10
-3.06235e-10
-1.20738e-10
-3.95142e-11
-2.19523e-12
7.68332e-12
-8.78094e-12
0
7.68332e-12
-2037.5
-2011.25
-1959.76
-1885.01
-1789.77
-1677.49
-1552.05
-1417.56
-1278.13
-1137.66
-999.687
-867.241
-742.763
-628.069