/*--------------------------------*- C++ -*----------------------------------*\
  =========                 |
  \\      /  F ield         | OpenFOAM: The Open Source CFD Toolbox
   \\    /   O peration     | Website:  https://openfoam.org
    \\  /    A nd           | Version:  10
     \\/     M anipulation  |
\*---------------------------------------------------------------------------*/
FoamFile
{
    format      ascii;
    class       volScalarField;
    location    "354";
    object      T;
}
// * * * * * * * * * * * * * * * * * * * * * * * * * * * * * * * * * * * * * //

dimensions      [0 0 0 1 0 0 0];

internalField   nonuniform List<scalar> 
11250
(
249.85
167.579
139.397
126.996
120.236
115.952
112.959
110.729
108.992
107.597
106.452
105.495
104.687
103.998
103.409
102.902
102.465
102.089
101.765
101.486
101.247
101.042
100.868
100.719
100.594
100.488
100.399
100.325
100.263
100.212
100.17
100.135
100.108
100.085
100.067
100.052
100.04
100.031
100.024
100.018
100.014
100.011
100.008
100.006
100.004
100.003
100.002
100.002
100.001
100.001
100.001
100
100
100
100
100
100
100
100
100
100
100
100
100
100
100
100
100
100
100
100
100
100
100
100
331.522
248.655
202.42
175.36
158.247
146.585
138.136
131.716
126.66
122.57
119.194
116.365
113.97
111.925
110.172
108.663
107.362
106.24
105.273
104.441
103.727
103.115
102.594
102.15
101.775
101.458
101.193
100.971
100.786
100.634
100.508
100.405
100.322
100.254
100.2
100.156
100.121
100.094
100.072
100.055
100.042
100.032
100.024
100.018
100.013
100.01
100.007
100.005
100.004
100.003
100.002
100.001
100.001
100.001
100.001
100
100
100
100
100
100
100
100
100
100
100
100
100
100
100
100
100
100
100
100
359.111
293.114
246.294
213.818
190.853
174.062
161.347
151.41
143.439
136.909
131.472
126.888
122.988
119.648
116.775
114.297
112.158
110.311
108.717
107.345
106.166
105.156
104.293
103.56
102.939
102.415
101.975
101.608
101.303
101.05
100.842
100.672
100.533
100.421
100.331
100.258
100.201
100.155
100.119
100.091
100.069
100.053
100.04
100.03
100.022
100.016
100.012
100.009
100.006
100.005
100.003
100.002
100.002
100.001
100.001
100.001
100
100
100
100
100
100
100
100
100
100
100
100
100
100
100
100
100
100
100
370.928
318.426
275.87
242.826
217.366
197.558
181.886
169.257
158.904
150.29
143.036
136.869
131.589
127.046
123.123
119.73
116.794
114.253
112.058
110.166
108.538
107.142
105.95
104.935
104.076
103.35
102.741
102.231
101.808
101.457
101.169
100.933
100.741
100.585
100.459
100.359
100.279
100.216
100.166
100.127
100.096
100.073
100.055
100.041
100.031
100.023
100.017
100.012
100.009
100.006
100.005
100.003
100.002
100.002
100.001
100.001
100.001
100
100
100
100
100
100
100
100
100
100
100
100
100
100
100
100
100
100
377.118
333.83
295.997
264.34
238.336
217.047
199.531
184.992
172.806
162.497
153.707
146.162
139.654
134.022
129.137
124.897
121.216
118.024
115.261
112.875
110.82
109.057
107.548
106.264
105.174
104.255
103.482
102.835
102.298
101.853
101.486
101.186
100.942
100.744
100.585
100.457
100.355
100.275
100.211
100.161
100.123
100.093
100.07
100.052
100.039
100.029
100.021
100.016
100.011
100.008
100.006
100.004
100.003
100.002
100.001
100.001
100.001
100.001
100
100
100
100
100
100
100
100
100
100
100
100
100
100
100
100
100
380.846
343.831
310.031
280.311
254.733
232.931
214.388
198.583
185.057
173.425
163.379
154.669
147.098
140.503
134.755
129.745
125.382
121.589
118.298
115.45
112.994
110.883
109.075
107.535
106.227
105.122
104.193
103.416
102.769
102.233
101.792
101.431
101.136
100.897
100.705
100.551
100.429
100.331
100.255
100.195
100.148
100.112
100.084
100.063
100.047
100.035
100.026
100.019
100.014
100.01
100.007
100.005
100.004
100.003
100.002
100.001
100.001
100.001
100
100
100
100
100
100
100
100
100
100
100
100
100
100
100
100
100
383.303
350.675
320.082
292.277
267.524
245.758
226.736
210.149
195.685
183.056
172.013
162.345
153.872
146.445
139.937
134.24
129.261
124.92
121.144
117.87
115.041
112.607
110.52
108.739
107.226
105.946
104.87
103.968
103.218
102.596
102.084
101.664
101.322
101.044
100.821
100.642
100.499
100.386
100.297
100.227
100.173
100.131
100.098
100.074
100.055
100.041
100.03
100.022
100.016
100.011
100.008
100.006
100.004
100.003
100.002
100.001
100.001
100.001
100
100
100
100
100
100
100
100
100
100
100
100
100
100
100
100
100
385.019
355.554
327.462
301.348
277.527
256.075
236.916
219.888
204.796
191.437
179.623
169.181
159.959
151.824
144.658
138.358
132.832
127.999
123.784
120.122
116.952
114.219
111.874
109.869
108.165
106.722
105.508
104.49
103.642
102.939
102.36
101.885
101.498
101.184
100.93
100.728
100.566
100.438
100.337
100.258
100.196
100.148
100.112
100.084
100.062
100.046
100.034
100.025
100.018
100.013
100.009
100.007
100.005
100.003
100.002
100.002
100.001
100.001
100.001
100
100
100
100
100
100
100
100
100
100
100
100
100
100
100
100
386.265
359.14
332.994
308.308
285.386
264.367
245.269
228.029
212.535
198.656
186.256
175.202
165.369
156.642
148.914
142.092
136.085
130.815
126.209
122.197
118.717
115.713
113.131
110.921
109.04
107.447
106.104
104.979
104.04
103.262
102.619
102.093
101.663
101.315
101.034
100.809
100.629
100.487
100.374
100.286
100.218
100.165
100.124
100.093
100.069
100.051
100.038
100.028
100.02
100.015
100.01
100.007
100.005
100.004
100.003
100.002
100.001
100.001
100.001
100
100
100
100
100
100
100
100
100
100
100
100
100
100
100
100
387.194
361.838
337.212
313.705
291.593
271.037
252.105
234.797
219.062
204.823
191.987
180.456
170.13
160.913
152.712
145.442
139.019
133.367
128.414
124.09
120.333
117.084
114.287
111.891
109.849
108.118
106.657
105.432
104.41
103.561
102.861
102.287
101.818
101.437
101.13
100.884
100.688
100.532
100.41
100.314
100.239
100.181
100.136
100.102
100.076
100.056
100.041
100.03
100.022
100.016
100.011
100.008
100.006
100.004
100.003
100.002
100.001
100.001
100.001
100
100
100
100
100
100
100
100
100
100
100
100
100
100
100
100
387.902
363.902
340.471
317.929
296.52
276.409
257.692
240.404
224.538
210.056
196.9
185.001
174.282
164.665
156.071
148.421
141.642
135.658
130.401
125.803
121.8
118.332
115.342
112.778
110.59
108.733
107.166
105.85
104.751
103.838
103.085
102.466
101.961
101.551
101.22
100.955
100.743
100.575
100.443
100.339
100.258
100.195
100.147
100.11
100.082
100.061
100.045
100.033
100.024
100.017
100.012
100.009
100.006
100.004
100.003
100.002
100.002
100.001
100.001
100.001
100
100
100
100
100
100
100
100
100
100
100
100
100
100
100
388.448
365.502
343.017
321.26
300.449
280.744
262.253
245.035
229.11
214.47
201.083
188.904
177.875
167.934
159.015
151.048
143.965
137.697
132.177
127.338
123.118
119.457
116.296
113.582
111.263
109.294
107.63
106.231
105.063
104.092
103.29
102.631
102.093
101.656
101.303
101.02
100.794
100.614
100.473
100.362
100.276
100.209
100.157
100.118
100.088
100.065
100.048
100.035
100.025
100.018
100.013
100.01
100.007
100.005
100.003
100.002
100.002
100.001
100.001
100.001
100
100
100
100
100
100
100
100
100
100
100
100
100
100
100
388.874
366.755
345.021
323.902
303.593
284.247
265.975
248.852
232.915
218.176
204.625
192.233
180.962
170.762
161.576
153.345
146.007
139.496
133.75
128.704
124.295
120.464
117.152
114.305
111.87
109.8
108.049
106.577
105.346
104.322
103.476
102.781
102.213
101.751
101.378
101.079
100.84
100.65
100.501
100.383
100.292
100.221
100.167
100.125
100.093
100.069
100.051
100.037
100.027
100.02
100.014
100.01
100.007
100.005
100.004
100.003
100.002
100.001
100.001
100.001
100
100
100
100
100
100
100
100
100
100
100
100
100
100
100
389.21
367.743
346.608
326.007
306.116
287.08
269.011
251.991
236.07
221.274
207.607
195.058
183.598
173.19
163.788
155.339
147.787
141.072
135.133
129.908
125.336
121.358
117.914
114.95
112.413
110.253
108.426
106.888
105.601
104.53
103.645
102.917
102.321
101.838
101.447
101.133
100.882
100.683
100.526
100.403
100.307
100.232
100.175
100.131
100.098
100.072
100.053
100.039
100.028
100.021
100.015
100.011
100.008
100.005
100.004
100.003
100.002
100.001
100.001
100.001
100
100
100
100
100
100
100
100
100
100
100
100
100
100
100
389.476
368.527
347.871
327.689
308.144
289.372
271.485
254.567
238.678
223.852
210.107
197.44
185.835
175.262
165.685
157.058
149.329
142.442
136.34
130.963
126.251
122.145
118.587
115.521
112.894
110.656
108.761
107.165
105.829
104.716
103.796
103.038
102.419
101.915
101.508
101.181
100.92
100.713
100.549
100.421
100.32
100.243
100.183
100.137
100.102
100.076
100.056
100.041
100.03
100.022
100.015
100.011
100.008
100.006
100.004
100.003
100.002
100.001
100.001
100.001
100
100
100
100
100
100
100
100
100
100
100
100
100
100
100
389.687
369.15
348.879
329.038
309.777
291.228
273.5
256.678
240.828
225.991
212.193
199.439
187.722
177.02
167.303
158.53
150.654
143.625
137.386
131.88
127.049
122.833
119.177
116.023
113.318
111.012
109.058
107.411
106.031
104.881
103.93
103.147
102.506
101.985
101.563
101.225
100.954
100.739
100.57
100.436
100.332
100.252
100.19
100.142
100.106
100.078
100.058
100.042
100.031
100.022
100.016
100.012
100.008
100.006
100.004
100.003
100.002
100.001
100.001
100.001
100
100
100
100
100
100
100
100
100
100
100
100
100
100
100
389.855
369.648
349.685
330.119
311.093
292.73
275.138
258.404
242.595
227.759
213.926
201.109
189.306
178.503
168.673
159.782
151.786
144.638
138.285
132.671
127.739
123.431
119.69
116.461
113.689
111.324
109.318
107.627
106.209
105.027
104.049
103.243
102.583
102.046
101.612
101.263
100.984
100.763
100.588
100.45
100.343
100.26
100.196
100.147
100.109
100.081
100.06
100.044
100.032
100.023
100.017
100.012
100.008
100.006
100.004
100.003
100.002
100.001
100.001
100.001
100
100
100
100
100
100
100
100
100
100
100
100
100
100
100
389.99
370.046
350.33
330.988
312.152
293.944
276.468
259.812
244.044
229.215
215.36
202.497
190.629
179.746
169.827
160.84
152.747
145.502
139.054
133.349
128.332
123.946
120.134
116.84
114.011
111.595
109.545
107.815
106.364
105.155
104.153
103.327
102.651
102.101
101.655
101.297
101.011
100.784
100.604
100.463
100.353
100.267
100.201
100.151
100.113
100.083
100.061
100.045
100.033
100.024
100.017
100.012
100.009
100.006
100.004
100.003
100.002
100.001
100.001
100.001
100
100
100
100
100
100
100
100
100
100
100
100
100
100
100
390.097
370.364
350.847
331.685
313.005
294.925
277.547
260.958
245.228
230.41
216.542
203.646
191.729
180.784
170.794
161.73
153.558
146.233
139.706
133.927
128.839
124.387
120.514
117.166
114.288
111.829
109.741
107.979
106.5
105.266
104.243
103.401
102.71
102.148
101.693
101.327
101.035
100.802
100.618
100.474
100.361
100.274
100.206
100.155
100.115
100.085
100.063
100.046
100.034
100.024
100.018
100.013
100.009
100.006
100.004
100.003
100.002
100.002
100.001
100.001
100
100
100
100
100
100
100
100
100
100
100
100
100
100
100
390.183
370.618
351.261
332.244
313.691
295.716
278.419
261.888
246.192
231.387
217.513
204.593
192.638
181.645
171.599
162.474
154.238
146.847
140.257
134.416
129.269
124.762
120.839
117.444
114.525
112.03
109.91
108.119
106.616
105.362
104.322
103.464
102.762
102.189
101.726
101.353
101.055
100.818
100.631
100.483
100.369
100.279
100.211
100.158
100.118
100.087
100.064
100.047
100.034
100.025
100.018
100.013
100.009
100.006
100.005
100.003
100.002
100.002
100.001
100.001
100
100
100
100
100
100
100
100
100
100
100
100
100
100
100
390.251
370.822
351.592
332.692
314.241
296.352
279.123
262.64
246.975
232.183
218.306
205.37
193.387
182.356
172.266
163.093
154.804
147.362
140.719
134.826
129.631
125.079
121.114
117.681
114.727
112.201
110.054
108.24
106.716
105.444
104.389
103.519
102.806
102.225
101.754
101.376
101.073
100.832
100.641
100.492
100.375
100.284
100.214
100.161
100.12
100.089
100.065
100.048
100.035
100.025
100.018
100.013
100.009
100.007
100.005
100.003
100.002
100.002
100.001
100.001
100.001
100
100
100
100
100
100
100
100
100
100
100
100
100
100
390.306
370.984
351.857
333.05
314.682
296.863
279.69
263.248
247.609
232.829
218.952
206.004
194
182.941
172.816
163.604
155.274
147.789
141.104
135.17
129.935
125.345
121.345
117.88
114.898
112.346
110.176
108.342
106.801
105.514
104.446
103.566
102.844
102.255
101.779
101.395
101.088
100.844
100.651
100.499
100.38
100.288
100.217
100.163
100.122
100.09
100.066
100.049
100.035
100.026
100.019
100.013
100.009
100.007
100.005
100.003
100.002
100.002
100.001
100.001
100.001
100
100
100
100
100
100
100
100
100
100
100
100
100
100
390.35
371.113
352.067
333.336
315.035
297.272
280.145
263.737
248.12
233.352
219.476
206.52
194.5
183.419
173.267
164.024
155.662
148.142
141.423
135.455
130.187
125.567
121.538
118.047
115.041
112.468
110.279
108.428
106.873
105.574
104.495
103.605
102.876
102.281
101.799
101.411
101.101
100.854
100.658
100.505
100.385
100.292
100.22
100.165
100.123
100.091
100.067
100.049
100.036
100.026
100.019
100.013
100.01
100.007
100.005
100.003
100.002
100.002
100.001
100.001
100.001
100
100
100
100
100
100
100
100
100
100
100
100
100
100
390.384
371.216
352.235
333.564
315.316
297.599
280.509
264.129
248.531
233.773
219.899
206.938
194.906
183.808
173.635
164.368
155.979
148.433
141.685
135.69
130.396
125.751
121.699
118.186
115.16
112.569
110.365
108.5
106.933
105.623
104.536
103.639
102.903
102.303
101.817
101.425
101.112
100.862
100.665
100.51
100.389
100.295
100.223
100.167
100.124
100.092
100.068
100.05
100.036
100.026
100.019
100.014
100.01
100.007
100.005
100.003
100.002
100.002
100.001
100.001
100.001
100
100
100
100
100
100
100
100
100
100
100
100
100
100
390.412
371.297
352.368
333.745
315.54
297.86
280.799
264.442
248.86
234.111
220.239
207.275
195.235
184.124
173.934
164.648
156.239
148.67
141.901
135.884
130.568
125.902
121.831
118.301
115.259
112.654
110.436
108.56
106.983
105.665
104.57
103.667
102.925
102.321
101.831
101.437
101.121
100.87
100.671
100.515
100.392
100.298
100.225
100.168
100.126
100.093
100.069
100.05
100.037
100.027
100.019
100.014
100.01
100.007
100.005
100.003
100.002
100.002
100.001
100.001
100.001
100
100
100
100
100
100
100
100
100
100
100
100
100
100
390.433
371.361
352.474
333.888
315.717
298.066
281.03
264.692
249.123
234.381
220.512
207.545
195.498
184.378
174.175
164.875
156.449
148.863
142.076
136.041
130.709
126.027
121.94
118.396
115.341
112.724
110.495
108.61
107.025
105.699
104.599
103.69
102.944
102.336
101.844
101.446
101.129
100.876
100.676
100.518
100.395
100.3
100.226
100.17
100.126
100.094
100.069
100.051
100.037
100.027
100.019
100.014
100.01
100.007
100.005
100.003
100.002
100.002
100.001
100.001
100.001
100
100
100
100
100
100
100
100
100
100
100
100
100
100
390.45
371.412
352.557
334.001
315.857
298.23
281.213
264.89
249.332
234.596
220.729
207.761
195.71
184.581
174.369
165.057
156.618
149.019
142.218
136.169
130.823
126.128
122.029
118.473
115.407
112.781
110.544
108.651
107.059
105.728
104.622
103.709
102.96
102.349
101.854
101.455
101.135
100.881
100.679
100.521
100.398
100.302
100.228
100.171
100.127
100.094
100.07
100.051
100.037
100.027
100.019
100.014
100.01
100.007
100.005
100.003
100.002
100.002
100.001
100.001
100.001
100
100
100
100
100
100
100
100
100
100
100
100
100
100
390.464
371.452
352.622
334.09
315.968
298.359
281.357
265.046
249.497
234.767
220.902
207.933
195.878
184.744
174.524
165.203
156.755
149.144
142.332
136.273
130.916
126.21
122.101
118.536
115.462
112.827
110.583
108.684
107.087
105.751
104.641
103.725
102.973
102.359
101.862
101.461
101.14
100.885
100.683
100.524
100.4
100.303
100.229
100.172
100.128
100.095
100.07
100.051
100.037
100.027
100.02
100.014
100.01
100.007
100.005
100.003
100.002
100.002
100.001
100.001
100.001
100
100
100
100
100
100
100
100
100
100
100
100
100
100
390.474
371.483
352.673
334.16
316.054
298.46
281.471
265.169
249.627
234.901
221.038
208.069
196.012
184.873
174.648
165.32
156.863
149.245
142.424
136.356
130.99
126.276
122.159
118.587
115.506
112.865
110.616
108.711
107.11
105.77
104.657
103.738
102.983
102.368
101.869
101.467
101.145
100.888
100.685
100.526
100.401
100.304
100.23
100.172
100.128
100.095
100.07
100.052
100.038
100.027
100.02
100.014
100.01
100.007
100.005
100.004
100.002
100.002
100.001
100.001
100.001
100
100
100
100
100
100
100
100
100
100
100
100
100
100
390.482
371.508
352.713
334.214
316.122
298.539
281.559
265.266
249.729
235.007
221.145
208.176
196.117
184.975
174.746
165.412
156.95
149.325
142.497
136.422
131.05
126.329
122.206
118.627
115.541
112.895
110.641
108.733
107.128
105.785
104.67
103.748
102.992
102.375
101.874
101.471
101.148
100.891
100.688
100.528
100.403
100.305
100.23
100.173
100.129
100.096
100.071
100.052
100.038
100.027
100.02
100.014
100.01
100.007
100.005
100.004
100.002
100.002
100.001
100.001
100.001
100
100
100
100
100
100
100
100
100
100
100
100
100
100
390.489
371.527
352.744
334.257
316.175
298.601
281.629
265.341
249.809
235.09
221.229
208.26
196.2
185.056
174.823
165.485
157.018
149.388
142.555
136.474
131.097
126.371
122.243
118.66
115.569
112.919
110.662
108.751
107.143
105.798
104.68
103.757
102.999
102.38
101.879
101.475
101.151
100.893
100.689
100.529
100.404
100.306
100.231
100.173
100.129
100.096
100.071
100.052
100.038
100.027
100.02
100.014
100.01
100.007
100.005
100.004
100.002
100.002
100.001
100.001
100.001
100
100
100
100
100
100
100
100
100
100
100
100
100
100
390.494
371.541
352.768
334.289
316.215
298.649
281.682
265.4
249.871
235.154
221.295
208.325
196.264
185.118
174.883
165.542
157.071
149.437
142.6
136.516
131.134
126.404
122.272
118.685
115.591
112.939
110.679
108.765
107.155
105.808
104.688
103.763
103.004
102.385
101.883
101.478
101.153
100.895
100.691
100.53
100.405
100.307
100.232
100.174
100.13
100.096
100.071
100.052
100.038
100.027
100.02
100.014
100.01
100.007
100.005
100.004
100.002
100.002
100.001
100.001
100.001
100
100
100
100
100
100
100
100
100
100
100
100
100
100
390.498
371.553
352.787
334.315
316.247
298.686
281.724
265.445
249.919
235.204
221.346
208.376
196.315
185.167
174.93
165.587
157.113
149.476
142.636
136.548
131.163
126.43
122.295
118.706
115.609
112.954
110.692
108.776
107.164
105.816
104.695
103.769
103.009
102.388
101.885
101.48
101.155
100.897
100.692
100.531
100.405
100.307
100.232
100.174
100.13
100.096
100.071
100.052
100.038
100.028
100.02
100.014
100.01
100.007
100.005
100.004
100.002
100.002
100.001
100.001
100.001
100
100
100
100
100
100
100
100
100
100
100
100
100
100
390.501
371.561
352.801
334.334
316.271
298.714
281.756
265.48
249.956
235.243
221.385
208.416
196.354
185.205
174.966
165.622
157.146
149.507
142.664
136.574
131.186
126.45
122.313
118.722
115.623
112.966
110.702
108.785
107.171
105.822
104.7
103.773
103.012
102.391
101.888
101.482
101.157
100.898
100.693
100.532
100.406
100.308
100.232
100.174
100.13
100.096
100.071
100.052
100.038
100.028
100.02
100.014
100.01
100.007
100.005
100.004
100.002
100.002
100.001
100.001
100.001
100
100
100
100
100
100
100
100
100
100
100
100
100
100
390.503
371.568
352.812
334.349
316.29
298.736
281.781
265.506
249.984
235.272
221.415
208.446
196.384
185.235
174.995
165.648
157.171
149.53
142.686
136.593
131.204
126.466
122.327
118.734
115.634
112.975
110.71
108.792
107.177
105.827
104.704
103.776
103.015
102.393
101.889
101.483
101.158
100.899
100.694
100.532
100.406
100.308
100.233
100.174
100.13
100.097
100.071
100.052
100.038
100.028
100.02
100.014
100.01
100.007
100.005
100.004
100.002
100.002
100.001
100.001
100.001
100
100
100
100
100
100
100
100
100
100
100
100
100
100
390.504
371.573
352.82
334.36
316.304
298.752
281.799
265.527
250.006
235.295
221.439
208.469
196.407
185.257
175.016
165.669
157.19
149.548
142.702
136.609
131.218
126.479
122.338
118.744
115.642
112.983
110.716
108.797
107.182
105.83
104.707
103.779
103.017
102.395
101.891
101.484
101.159
100.899
100.694
100.533
100.407
100.308
100.233
100.175
100.13
100.097
100.071
100.052
100.038
100.028
100.02
100.014
100.01
100.007
100.005
100.004
100.002
100.002
100.001
100.001
100.001
100
100
100
100
100
100
100
100
100
100
100
100
100
100
390.506
371.577
352.826
334.369
316.315
298.765
281.813
265.542
250.023
235.312
221.456
208.487
196.424
185.274
175.033
165.685
157.205
149.562
142.715
136.62
131.228
126.488
122.347
118.751
115.649
112.988
110.721
108.801
107.185
105.833
104.709
103.781
103.019
102.397
101.892
101.485
101.159
100.9
100.695
100.533
100.407
100.309
100.233
100.175
100.13
100.097
100.071
100.052
100.038
100.028
100.02
100.014
100.01
100.007
100.005
100.004
100.002
100.002
100.001
100.001
100.001
100
100
100
100
100
100
100
100
100
100
100
100
100
100
390.507
371.58
352.831
334.376
316.323
298.775
281.824
265.554
250.035
235.325
221.469
208.5
196.437
185.287
175.045
165.697
157.217
149.572
142.725
136.629
131.236
126.495
122.353
118.757
115.654
112.993
110.725
108.804
107.188
105.836
104.711
103.783
103.02
102.398
101.893
101.486
101.16
100.9
100.695
100.533
100.407
100.309
100.233
100.175
100.13
100.097
100.071
100.052
100.038
100.028
100.02
100.014
100.01
100.007
100.005
100.004
100.002
100.002
100.001
100.001
100.001
100
100
100
100
100
100
100
100
100
100
100
100
100
100
390.507
371.582
352.835
334.38
316.329
298.782
281.832
265.563
250.044
235.335
221.479
208.511
196.447
185.297
175.055
165.706
157.225
149.58
142.732
136.636
131.243
126.501
122.358
118.761
115.657
112.996
110.728
108.807
107.19
105.837
104.713
103.784
103.021
102.398
101.893
101.486
101.16
100.901
100.695
100.534
100.407
100.309
100.233
100.175
100.13
100.097
100.071
100.052
100.038
100.028
100.02
100.014
100.01
100.007
100.005
100.004
100.002
100.002
100.001
100.001
100.001
100
100
100
100
100
100
100
100
100
100
100
100
100
100
390.508
371.584
352.837
334.384
316.333
298.787
281.838
265.57
250.051
235.342
221.487
208.518
196.455
185.304
175.062
165.713
157.232
149.587
142.738
136.641
131.247
126.505
122.362
118.765
115.66
112.998
110.73
108.809
107.191
105.839
104.714
103.785
103.022
102.399
101.894
101.487
101.161
100.901
100.695
100.534
100.407
100.309
100.233
100.175
100.131
100.097
100.071
100.052
100.038
100.028
100.02
100.014
100.01
100.007
100.005
100.004
100.002
100.002
100.001
100.001
100.001
100
100
100
100
100
100
100
100
100
100
100
100
100
100
390.508
371.585
352.839
334.387
316.337
298.791
281.843
265.574
250.057
235.348
221.493
208.524
196.461
185.31
175.067
165.718
157.236
149.591
142.742
136.645
131.251
126.508
122.365
118.767
115.663
113
110.732
108.81
107.193
105.84
104.715
103.785
103.022
102.4
101.894
101.487
101.161
100.901
100.696
100.534
100.407
100.309
100.233
100.175
100.131
100.097
100.071
100.052
100.038
100.028
100.02
100.014
100.01
100.007
100.005
100.004
100.002
100.002
100.001
100.001
100.001
100
100
100
100
100
100
100
100
100
100
100
100
100
100
390.509
371.586
352.841
334.389
316.339
298.794
281.846
265.578
250.061
235.352
221.497
208.528
196.465
185.314
175.071
165.722
157.24
149.594
142.745
136.648
131.253
126.511
122.367
118.769
115.664
113.002
110.733
108.811
107.193
105.84
104.715
103.786
103.023
102.4
101.895
101.487
101.161
100.901
100.696
100.534
100.407
100.309
100.233
100.175
100.131
100.097
100.071
100.052
100.038
100.028
100.02
100.014
100.01
100.007
100.005
100.004
100.002
100.002
100.001
100.001
100.001
100
100
100
100
100
100
100
100
100
100
100
100
100
100
390.509
371.586
352.842
334.39
316.341
298.796
281.849
265.581
250.063
235.355
221.5
208.531
196.468
185.317
175.074
165.724
157.243
149.597
142.748
136.65
131.255
126.512
122.368
118.77
115.665
113.003
110.734
108.812
107.194
105.841
104.716
103.786
103.023
102.4
101.895
101.488
101.161
100.901
100.696
100.534
100.408
100.309
100.233
100.175
100.131
100.097
100.071
100.052
100.038
100.028
100.02
100.014
100.01
100.007
100.005
100.004
100.002
100.002
100.001
100.001
100.001
100
100
100
100
100
100
100
100
100
100
100
100
100
100
390.509
371.587
352.843
334.391
316.342
298.798
281.85
265.583
250.066
235.357
221.502
208.533
196.47
185.319
175.076
165.726
157.245
149.599
142.749
136.651
131.257
126.514
122.37
118.771
115.666
113.004
110.734
108.812
107.195
105.841
104.716
103.787
103.023
102.4
101.895
101.488
101.161
100.901
100.696
100.534
100.408
100.309
100.233
100.175
100.131
100.097
100.071
100.052
100.038
100.028
100.02
100.014
100.01
100.007
100.005
100.004
100.002
100.002
100.001
100.001
100.001
100
100
100
100
100
100
100
100
100
100
100
100
100
100
390.509
371.587
352.843
334.392
316.343
298.799
281.852
265.584
250.067
235.359
221.504
208.535
196.472
185.321
175.078
165.728
157.246
149.6
142.751
136.653
131.258
126.515
122.37
118.772
115.667
113.004
110.735
108.813
107.195
105.842
104.716
103.787
103.023
102.4
101.895
101.488
101.161
100.902
100.696
100.534
100.408
100.309
100.233
100.175
100.131
100.097
100.071
100.052
100.038
100.028
100.02
100.014
100.01
100.007
100.005
100.004
100.002
100.002
100.001
100.001
100.001
100
100
100
100
100
100
100
100
100
100
100
100
100
100
390.509
371.588
352.844
334.393
316.344
298.8
281.853
265.585
250.068
235.36
221.505
208.536
196.473
185.322
175.079
165.729
157.247
149.601
142.751
136.653
131.259
126.515
122.371
118.773
115.667
113.005
110.735
108.813
107.195
105.842
104.717
103.787
103.024
102.401
101.895
101.488
101.161
100.902
100.696
100.534
100.408
100.309
100.233
100.175
100.131
100.097
100.071
100.052
100.038
100.028
100.02
100.014
100.01
100.007
100.005
100.004
100.002
100.002
100.001
100.001
100.001
100
100
100
100
100
100
100
100
100
100
100
100
100
100
390.509
371.588
352.844
334.393
316.345
298.8
281.853
265.586
250.069
235.361
221.506
208.537
196.474
185.323
175.08
165.73
157.248
149.602
142.752
136.654
131.259
126.516
122.372
118.773
115.668
113.005
110.735
108.813
107.195
105.842
104.717
103.787
103.024
102.401
101.895
101.488
101.162
100.902
100.696
100.534
100.408
100.309
100.233
100.175
100.131
100.097
100.071
100.052
100.038
100.028
100.02
100.014
100.01
100.007
100.005
100.004
100.002
100.002
100.001
100.001
100.001
100
100
100
100
100
100
100
100
100
100
100
100
100
100
390.509
371.588
352.844
334.393
316.345
298.801
281.854
265.587
250.07
235.361
221.507
208.538
196.475
185.324
175.081
165.73
157.249
149.602
142.753
136.655
131.26
126.516
122.372
118.773
115.668
113.005
110.736
108.814
107.196
105.842
104.717
103.787
103.024
102.401
101.895
101.488
101.162
100.902
100.696
100.534
100.408
100.309
100.233
100.175
100.131
100.097
100.071
100.052
100.038
100.028
100.02
100.014
100.01
100.007
100.005
100.004
100.002
100.002
100.001
100.001
100.001
100
100
100
100
100
100
100
100
100
100
100
100
100
100
390.509
371.588
352.844
334.394
316.345
298.801
281.854
265.587
250.07
235.362
221.507
208.538
196.475
185.324
175.081
165.731
157.249
149.603
142.753
136.655
131.26
126.516
122.372
118.773
115.668
113.005
110.736
108.814
107.196
105.842
104.717
103.787
103.024
102.401
101.895
101.488
101.162
100.902
100.696
100.534
100.408
100.309
100.233
100.175
100.131
100.097
100.071
100.052
100.038
100.028
100.02
100.014
100.01
100.007
100.005
100.004
100.002
100.002
100.001
100.001
100.001
100
100
100
100
100
100
100
100
100
100
100
100
100
100
390.509
371.588
352.845
334.394
316.345
298.801
281.854
265.587
250.07
235.362
221.507
208.539
196.475
185.324
175.081
165.731
157.249
149.603
142.753
136.655
131.26
126.517
122.372
118.774
115.668
113.005
110.736
108.814
107.196
105.842
104.717
103.787
103.024
102.401
101.895
101.488
101.162
100.902
100.696
100.534
100.408
100.309
100.233
100.175
100.131
100.097
100.071
100.052
100.038
100.028
100.02
100.014
100.01
100.007
100.005
100.004
100.002
100.002
100.001
100.001
100.001
100
100
100
100
100
100
100
100
100
100
100
100
100
100
390.509
371.588
352.845
334.394
316.346
298.801
281.855
265.587
250.071
235.362
221.508
208.539
196.476
185.325
175.082
165.731
157.249
149.603
142.753
136.655
131.26
126.517
122.372
118.774
115.668
113.005
110.736
108.814
107.196
105.842
104.717
103.787
103.024
102.401
101.895
101.488
101.162
100.902
100.696
100.534
100.408
100.309
100.233
100.175
100.131
100.097
100.071
100.052
100.038
100.028
100.02
100.014
100.01
100.007
100.005
100.004
100.002
100.002
100.001
100.001
100.001
100
100
100
100
100
100
100
100
100
100
100
100
100
100
390.509
371.588
352.845
334.394
316.346
298.802
281.855
265.588
250.071
235.362
221.508
208.539
196.476
185.325
175.082
165.732
157.25
149.603
142.753
136.655
131.26
126.517
122.372
118.774
115.669
113.006
110.736
108.814
107.196
105.842
104.717
103.787
103.024
102.401
101.895
101.488
101.162
100.902
100.696
100.534
100.408
100.309
100.233
100.175
100.131
100.097
100.071
100.052
100.038
100.028
100.02
100.014
100.01
100.007
100.005
100.004
100.002
100.002
100.001
100.001
100.001
100
100
100
100
100
100
100
100
100
100
100
100
100
100
390.509
371.588
352.845
334.394
316.346
298.802
281.855
265.588
250.071
235.362
221.508
208.539
196.476
185.325
175.082
165.732
157.25
149.603
142.754
136.655
131.26
126.517
122.373
118.774
115.669
113.006
110.736
108.814
107.196
105.842
104.717
103.787
103.024
102.401
101.895
101.488
101.162
100.902
100.696
100.534
100.408
100.309
100.233
100.175
100.131
100.097
100.071
100.052
100.038
100.028
100.02
100.014
100.01
100.007
100.005
100.004
100.002
100.002
100.001
100.001
100.001
100
100
100
100
100
100
100
100
100
100
100
100
100
100
390.509
371.588
352.845
334.394
316.346
298.802
281.855
265.588
250.071
235.363
221.508
208.539
196.476
185.325
175.082
165.732
157.25
149.603
142.754
136.655
131.26
126.517
122.373
118.774
115.669
113.006
110.736
108.814
107.196
105.842
104.717
103.787
103.024
102.401
101.895
101.488
101.162
100.902
100.696
100.534
100.408
100.309
100.233
100.175
100.131
100.097
100.071
100.052
100.038
100.028
100.02
100.014
100.01
100.007
100.005
100.004
100.002
100.002
100.001
100.001
100.001
100
100
100
100
100
100
100
100
100
100
100
100
100
100
390.509
371.588
352.845
334.394
316.346
298.802
281.855
265.588
250.071
235.363
221.508
208.539
196.476
185.325
175.082
165.732
157.25
149.604
142.754
136.656
131.26
126.517
122.373
118.774
115.669
113.006
110.736
108.814
107.196
105.842
104.717
103.787
103.024
102.401
101.895
101.488
101.162
100.902
100.696
100.534
100.408
100.309
100.233
100.175
100.131
100.097
100.071
100.052
100.038
100.028
100.02
100.014
100.01
100.007
100.005
100.004
100.002
100.002
100.001
100.001
100.001
100
100