/*--------------------------------*- C++ -*----------------------------------*\
  =========                 |
  \\      /  F ield         | OpenFOAM: The Open Source CFD Toolbox
   \\    /   O peration     | Website:  https://openfoam.org
    \\  /    A nd           | Version:  10
     \\/     M anipulation  |
\*---------------------------------------------------------------------------*/
FoamFile
{
    format      ascii;
    class       volScalarField;
    location    "269";
    object      gradTz;
}
// * * * * * * * * * * * * * * * * * * * * * * * * * * * * * * * * * * * * * //

dimensions      [0 -1 0 1 0 0 0];

internalField   nonuniform List<scalar> 
11250
(
-14353.5
-4148.92
-1528.5
-724.743
-419.779
-277.847
-200.104
-152.18
-120.017
-97.0277
-79.7817
-66.3495
-55.5792
-46.7499
-39.3924
-33.1901
-27.9215
-23.4267
-19.5851
-16.303
-13.5044
-11.1261
-9.11385
-7.42005
-6.00267
-4.82413
-3.8508
-3.05263
-2.4029
-1.87796
-1.45711
-1.12232
-0.858105
-0.651234
-0.490559
-0.366765
-0.272154
-0.200431
-0.146498
-0.106269
-0.0765053
-0.0546613
-0.0387589
-0.0272751
-0.0190487
-0.0132029
-0.00908188
-0.00619997
-0.0042006
-0.0028245
-0.00188487
-0.00124833
-0.000820519
-0.000535247
-0.000346518
-0.000222638
-0.000141962
-8.98332e-05
-5.6414e-05
-3.51572e-05
-2.17425e-05
-1.33432e-05
-8.12561e-06
-4.90999e-06
-2.94385e-06
-1.75127e-06
-1.03368e-06
-6.05353e-07
-3.51761e-07
-2.02906e-07
-1.16353e-07
-6.66847e-08
-3.87788e-08
-2.39917e-08
-1.76486e-08
-8264.61
-4862.1
-2768.38
-1675.02
-1095.93
-769.029
-570.226
-440.57
-350.734
-285.255
-235.504
-196.414
-164.872
-138.895
-117.174
-98.8149
-83.1893
-69.8377
-58.4128
-48.6425
-40.3054
-33.216
-27.2146
-22.1611
-17.9308
-14.4124
-11.5059
-9.12202
-7.18112
-5.61281
-4.35529
-3.35484
-2.5652
-1.94689
-1.46661
-1.09655
-0.81372
-0.599295
-0.438047
-0.317768
-0.228774
-0.163458
-0.115907
-0.0815667
-0.0569666
-0.0394849
-0.027161
-0.0185425
-0.0125631
-0.0084476
-0.0056374
-0.00373365
-0.00245413
-0.00160092
-0.00103644
-0.000665923
-0.00042462
-0.000268701
-0.000168743
-0.000105162
-6.50364e-05
-3.99128e-05
-2.43059e-05
-1.46872e-05
-8.80613e-06
-5.23877e-06
-3.09215e-06
-1.81085e-06
-1.05229e-06
-6.07022e-07
-3.48084e-07
-1.99414e-07
-1.15995e-07
-7.18391e-08
-5.2802e-08
-5576.75
-4265.08
-3006.56
-2109.77
-1518.78
-1131.14
-870.403
-688.522
-556.656
-457.499
-380.486
-319.009
-268.824
-227.134
-192.046
-162.241
-136.777
-114.953
-96.2352
-80.1985
-66.4942
-54.8269
-44.9407
-36.6092
-29.6305
-23.823
-19.0233
-15.0851
-11.8776
-9.28515
-7.20591
-5.55137
-4.24521
-3.22229
-2.42761
-1.81523
-1.34713
-0.992218
-0.725296
-0.526176
-0.378835
-0.270689
-0.191952
-0.135088
-0.0943499
-0.0653986
-0.0449882
-0.0307138
-0.0208102
-0.0139935
-0.00933861
-0.00618512
-0.00406558
-0.00265218
-0.00171708
-0.00110326
-0.000703498
-0.000445186
-0.000279579
-0.000174239
-0.000107759
-6.61329e-05
-4.02741e-05
-2.43368e-05
-1.45921e-05
-8.68102e-06
-5.12402e-06
-3.00082e-06
-1.74382e-06
-1.00595e-06
-5.76873e-07
-3.30496e-07
-1.92252e-07
-1.19053e-07
-8.75482e-08
-4198.14
-3612.56
-2880.77
-2236.63
-1736.42
-1364.76
-1090.4
-885.433
-729.147
-607.178
-509.8
-430.446
-364.654
-309.352
-262.385
-222.213
-187.706
-158.008
-132.452
-110.499
-91.6991
-75.6662
-62.0619
-50.5839
-40.9604
-32.9455
-26.3172
-20.8754
-16.4413
-12.8558
-9.97909
-7.68927
-5.88109
-4.46467
-3.36407
-2.51578
-1.86724
-1.37544
-1.00552
-0.729532
-0.525289
-0.375363
-0.266197
-0.18735
-0.130859
-0.0907097
-0.0624031
-0.0426052
-0.0288684
-0.0194129
-0.0129558
-0.00858117
-0.00564074
-0.00367986
-0.00238249
-0.00153085
-0.000976186
-0.000617765
-0.000387971
-0.000241798
-0.000149545
-9.17803e-05
-5.58946e-05
-3.3777e-05
-2.02529e-05
-1.20491e-05
-7.11227e-06
-4.16536e-06
-2.42062e-06
-1.39639e-06
-8.00809e-07
-4.58841e-07
-2.66943e-07
-1.65304e-07
-1.21535e-07
-3401.76
-3102.97
-2664.2
-2216.7
-1822.93
-1498.83
-1239.16
-1032.24
-866.319
-731.682
-620.903
-528.506
-450.513
-384.039
-326.972
-277.751
-235.192
-198.374
-166.56
-139.142
-115.599
-95.4787
-78.3757
-63.9249
-51.7942
-41.6811
-33.3103
-26.433
-20.8256
-16.289
-12.6476
-9.74785
-7.45723
-5.66233
-4.26726
-3.19173
-2.36929
-1.74549
-1.27621
-0.926026
-0.666841
-0.476559
-0.337993
-0.237899
-0.166179
-0.115201
-0.0792571
-0.0541154
-0.0366696
-0.0246602
-0.0164586
-0.0109018
-0.00716648
-0.00467542
-0.00302719
-0.00194517
-0.00124044
-0.000785021
-0.00049303
-0.000307286
-0.000190055
-0.000116647
-7.1041e-05
-4.29315e-05
-2.5743e-05
-1.53159e-05
-9.041e-06
-5.29514e-06
-3.07729e-06
-1.77531e-06
-1.01816e-06
-5.83392e-07
-3.39415e-07
-2.10207e-07
-1.54564e-07
-2899.88
-2729.21
-2452.39
-2139.39
-1836.5
-1565.64
-1332.84
-1136.23
-970.932
-831.585
-713.388
-612.398
-525.513
-450.341
-385.042
-328.192
-278.673
-235.582
-198.173
-165.81
-137.937
-114.056
-93.7147
-76.4984
-62.0257
-49.9455
-39.9365
-31.7061
-24.9906
-19.5539
-15.1876
-11.709
-8.95989
-6.80494
-5.12946
-3.83737
-2.84907
-2.0993
-1.53512
-1.11405
-0.802337
-0.573458
-0.40676
-0.28633
-0.200028
-0.138678
-0.0954166
-0.0651537
-0.0441525
-0.0296944
-0.0198197
-0.0131288
-0.00863097
-0.00563115
-0.00364618
-0.00234303
-0.00149422
-0.000945675
-0.000593955
-0.000370205
-0.00022898
-0.000140543
-8.55986e-05
-5.17314e-05
-3.10211e-05
-1.8457e-05
-1.08957e-05
-6.38175e-06
-3.70898e-06
-2.13985e-06
-1.22731e-06
-7.03296e-07
-4.09191e-07
-2.53411e-07
-1.86366e-07
-2563.51
-2456.59
-2271.98
-2047.53
-1814.1
-1590.96
-1387.52
-1206.72
-1048.05
-909.441
-788.382
-682.469
-589.595
-508.005
-436.261
-373.189
-317.82
-269.335
-227.031
-190.283
-158.527
-131.243
-107.952
-88.2007
-71.5709
-57.6717
-46.1425
-36.6528
-28.9032
-22.6249
-17.5795
-13.5576
-10.3776
-7.88385
-5.94419
-4.44788
-3.30302
-2.43424
-1.78035
-1.29222
-0.93079
-0.665357
-0.472003
-0.332295
-0.232163
-0.160973
-0.110767
-0.0756418
-0.0512641
-0.0344798
-0.0230155
-0.0152468
-0.0100239
-0.00654038
-0.00423515
-0.00272166
-0.00173578
-0.00109861
-0.000690047
-0.00043012
-0.000266053
-0.000163306
-9.94676e-05
-6.01162e-05
-3.60511e-05
-2.1451e-05
-1.26639e-05
-7.41779e-06
-4.31136e-06
-2.48753e-06
-1.42684e-06
-8.17725e-07
-4.75799e-07
-2.94688e-07
-2.16733e-07
-2328.07
-2255.8
-2125.87
-1959.53
-1776.8
-1592.62
-1416.26
-1252.55
-1103.33
-968.699
-847.901
-739.83
-643.316
-557.259
-480.669
-412.678
-352.517
-299.499
-252.997
-212.431
-177.251
-146.94
-121
-98.9595
-80.3703
-64.8111
-51.8889
-41.2415
-32.5386
-25.4825
-19.808
-15.2819
-11.7014
-8.89221
-6.70631
-5.0194
-3.72829
-2.74822
-2.01037
-1.45943
-1.0514
-0.751685
-0.533317
-0.375509
-0.262386
-0.181949
-0.125213
-0.0855153
-0.0579608
-0.0389873
-0.0260263
-0.0172426
-0.0113369
-0.00739758
-0.00479053
-0.00307876
-0.00196364
-0.00124291
-0.000780726
-0.00048667
-0.000301049
-0.000184798
-0.000112564
-6.80356e-05
-4.08027e-05
-2.42798e-05
-1.43348e-05
-8.39707e-06
-4.88086e-06
-2.8163e-06
-1.61556e-06
-9.25976e-07
-5.38848e-07
-3.33776e-07
-2.45467e-07
-2158.1
-2106.04
-2009.87
-1882.08
-1735.76
-1581.94
-1428.64
-1281.02
-1141.99
-1012.94
-894.318
-786.008
-687.629
-598.672
-518.588
-446.823
-382.832
-326.082
-276.048
-232.212
-194.064
-161.097
-132.815
-108.734
-88.3884
-71.3333
-57.1506
-45.4517
-35.8801
-28.1132
-21.8625
-16.8737
-12.9249
-9.82513
-7.41208
-5.54913
-4.12276
-3.03968
-2.22404
-1.61484
-1.16357
-0.832012
-0.590397
-0.415756
-0.290546
-0.2015
-0.138684
-0.094725
-0.0642093
-0.0431943
-0.0288372
-0.0191064
-0.0125634
-0.00819846
-0.00530955
-0.00341255
-0.00217668
-0.00137784
-0.000865538
-0.000539572
-0.000333794
-0.000204911
-0.000124824
-7.545e-05
-4.52522e-05
-2.69292e-05
-1.59001e-05
-9.31468e-06
-5.41462e-06
-3.12454e-06
-1.79251e-06
-1.02746e-06
-5.97975e-07
-3.70465e-07
-2.72473e-07
-2032.66
-1993.06
-1918.5
-1816.71
-1696.43
-1565.75
-1431.23
-1297.69
-1168.41
-1045.45
-930.006
-822.672
-723.68
-633.018
-550.528
-475.953
-408.97
-349.206
-296.251
-249.662
-208.976
-173.714
-143.388
-117.513
-95.6121
-77.2257
-61.9159
-49.273
-38.9189
-30.5097
-23.7371
-18.3281
-14.0441
-10.6796
-8.05919
-6.03529
-4.48512
-3.30762
-2.42061
-1.75792
-1.2669
-0.906051
-0.643037
-0.452891
-0.316541
-0.219556
-0.151128
-0.103237
-0.0699862
-0.0470852
-0.0314377
-0.0208312
-0.0136986
-0.00894001
-0.00579023
-0.00372177
-0.00237408
-0.0015029
-0.00094416
-0.000588623
-0.000364163
-0.000223568
-0.000136198
-8.23307e-05
-4.93823e-05
-2.9389e-05
-1.73537e-05
-1.0167e-05
-5.91055e-06
-3.41096e-06
-1.95698e-06
-1.12187e-06
-6.52988e-07
-4.04571e-07
-2.97638e-07
-1938.59
-1907
-1846.72
-1762.77
-1661.19
-1547.94
-1428.32
-1306.61
-1186.06
-1069.02
-957.124
-851.449
-752.669
-661.167
-577.11
-500.506
-431.235
-369.082
-313.749
-264.875
-222.051
-184.83
-152.743
-125.309
-102.049
-82.4916
-66.1857
-52.7048
-41.6536
-32.6705
-25.4301
-19.6436
-15.0579
-11.4545
-8.64669
-6.47713
-4.81475
-3.55158
-2.59972
-1.88839
-1.36118
-0.973655
-0.69113
-0.486837
-0.340315
-0.236077
-0.162521
-0.111032
-0.0752787
-0.050651
-0.0338218
-0.022413
-0.0147401
-0.00962048
-0.00623145
-0.00400567
-0.00255536
-0.00161777
-0.0010164
-0.000633702
-0.000392078
-0.000240723
-0.000146658
-8.866e-05
-5.31824e-05
-3.16529e-05
-1.86919e-05
-1.09518e-05
-6.36729e-06
-3.67485e-06
-2.1086e-06
-1.20891e-06
-7.03685e-07
-4.36036e-07
-3.20836e-07
-1867.22
-1840.96
-1790.37
-1718.87
-1630.78
-1530.61
-1422.65
-1310.6
-1197.54
-1085.9
-977.534
-873.82
-775.749
-683.998
-598.997
-520.975
-449.993
-385.976
-328.735
-277.99
-233.387
-194.516
-160.93
-132.159
-107.724
-87.1481
-69.9714
-55.755
-44.0894
-34.5988
-26.9437
-20.8215
-15.967
-12.1503
-9.17487
-6.8748
-5.11173
-3.77157
-2.76139
-2.00624
-1.44641
-1.03481
-0.73466
-0.51758
-0.361858
-0.251056
-0.172854
-0.118105
-0.0800835
-0.0538895
-0.0359878
-0.0238506
-0.0156869
-0.0102393
-0.00663282
-0.00426401
-0.00272037
-0.00172236
-0.00108218
-0.000674765
-0.000417513
-0.000256356
-0.000156194
-9.44312e-05
-5.66483e-05
-3.37182e-05
-1.99129e-05
-1.16681e-05
-6.7843e-06
-3.91587e-06
-2.2471e-06
-1.28841e-06
-7.50069e-07
-4.6484e-07
-3.42022e-07
-1812.64
-1790.02
-1746.14
-1683.46
-1605.18
-1514.81
-1415.87
-1311.58
-1204.78
-1097.85
-992.768
-891.072
-793.967
-702.348
-616.848
-537.872
-465.636
-400.187
-341.437
-289.178
-243.113
-202.868
-168.021
-138.115
-112.675
-91.2235
-73.294
-58.4386
-46.2374
-36.3027
-28.2835
-21.866
-16.7744
-12.7691
-9.64517
-7.2293
-5.37675
-3.96809
-2.90593
-2.1117
-1.52274
-1.08961
-0.773697
-0.545168
-0.381201
-0.264512
-0.182142
-0.124466
-0.084406
-0.0568042
-0.0379381
-0.0251455
-0.0165401
-0.0107971
-0.00699469
-0.00449699
-0.00286923
-0.00181674
-0.00114156
-0.00071184
-0.000440484
-0.000270479
-0.00016481
-9.96472e-05
-5.97816e-05
-3.55857e-05
-2.10174e-05
-1.23163e-05
-7.16171e-06
-4.13408e-06
-2.37254e-06
-1.36045e-06
-7.92081e-07
-4.90921e-07
-3.61262e-07
-1770.66
-1750.59
-1711.44
-1655.07
-1583.97
-1500.96
-1408.97
-1310.83
-1209.15
-1106.23
-1004.06
-904.285
-808.242
-716.979
-631.28
-551.693
-478.558
-412.027
-352.097
-298.628
-251.374
-209.998
-174.101
-143.241
-116.951
-94.7547
-76.1809
-60.7764
-48.1128
-37.7936
-29.458
-22.7832
-17.4844
-13.3141
-10.0599
-7.54232
-5.61102
-4.14199
-3.03395
-2.20519
-1.59046
-1.13827
-0.808383
-0.569697
-0.398409
-0.27649
-0.190414
-0.130134
-0.0882597
-0.0594039
-0.0396782
-0.0263013
-0.0173019
-0.0112953
-0.00731807
-0.00470526
-0.00300233
-0.00190115
-0.00119469
-0.000745019
-0.000461046
-0.000283124
-0.000172526
-0.00010432
-6.25893e-05
-3.72597e-05
-2.20077e-05
-1.28975e-05
-7.5003e-06
-4.32988e-06
-2.48512e-06
-1.42513e-06
-8.29802e-07
-5.14352e-07
-3.78594e-07
-1738.27
-1719.99
-1684.23
-1632.44
-1566.62
-1489.13
-1402.47
-1309.17
-1211.62
-1112.04
-1012.38
-914.344
-819.354
-728.56
-642.858
-562.905
-489.139
-421.801
-360.96
-306.535
-258.323
-216.025
-179.263
-147.611
-120.609
-97.7845
-78.6651
-62.7931
-49.7344
-39.0854
-30.4777
-23.5809
-18.103
-13.7895
-10.4223
-7.81612
-5.81618
-4.29444
-3.1463
-2.2873
-1.64999
-1.18108
-0.838923
-0.591308
-0.413581
-0.287057
-0.197716
-0.13514
-0.0916646
-0.0617019
-0.0412172
-0.0273239
-0.0179761
-0.0117365
-0.00760447
-0.00488977
-0.00312029
-0.00197599
-0.0012418
-0.000774449
-0.00047929
-0.000294347
-0.000179377
-0.000108469
-6.50832e-05
-3.8747e-05
-2.28878e-05
-1.34143e-05
-7.8014e-06
-4.50404e-06
-2.58524e-06
-1.48267e-06
-8.63424e-07
-5.35277e-07
-3.94013e-07
-1713.22
-1696.24
-1662.92
-1614.46
-1552.56
-1479.22
-1396.64
-1307.12
-1212.87
-1116.01
-1018.47
-921.962
-827.953
-737.666
-652.079
-571.93
-497.733
-429.802
-368.264
-313.09
-264.116
-221.072
-183.605
-151.3
-123.708
-100.36
-80.7823
-64.5164
-51.1234
-40.1942
-31.3547
-24.2682
-18.6367
-14.2005
-10.7359
-8.0534
-5.99419
-4.42685
-3.24398
-2.35877
-1.70185
-1.2184
-0.865567
-0.610177
-0.426836
-0.296295
-0.204102
-0.139521
-0.0946462
-0.0637152
-0.042566
-0.0282206
-0.0185676
-0.0121236
-0.0078559
-0.00505181
-0.00322391
-0.00204175
-0.00128321
-0.000800326
-0.000495336
-0.00030422
-0.000185405
-0.000112122
-6.72789e-05
-4.00568e-05
-2.36631e-05
-1.38696e-05
-8.06677e-06
-4.65759e-06
-2.67361e-06
-1.53349e-06
-8.93073e-07
-5.53707e-07
-4.07651e-07
-1693.83
-1677.79
-1646.25
-1600.25
-1541.26
-1471.04
-1391.58
-1304.99
-1213.35
-1118.7
-1022.91
-927.704
-834.572
-744.784
-659.374
-579.141
-504.66
-436.298
-374.233
-318.477
-268.902
-225.262
-187.223
-154.387
-126.31
-102.528
-82.5701
-65.9753
-52.3019
-41.1371
-32.1019
-24.8548
-19.0931
-14.5524
-11.0048
-8.25714
-6.14722
-4.54082
-3.32815
-2.4204
-1.74661
-1.25065
-0.888604
-0.626503
-0.438313
-0.304298
-0.209639
-0.143321
-0.0972339
-0.0654634
-0.0437378
-0.0289999
-0.0190818
-0.0124603
-0.00807467
-0.00519285
-0.00331414
-0.00209902
-0.00131929
-0.000822877
-0.000509323
-0.000312829
-0.000190663
-0.000115308
-6.9195e-05
-4.12001e-05
-2.434e-05
-1.42673e-05
-8.29859e-06
-4.79178e-06
-2.75083e-06
-1.57791e-06
-9.19033e-07
-5.6985e-07
-4.19571e-07
-1678.84
-1663.49
-1633.25
-1589.07
-1532.23
-1464.36
-1387.29
-1302.97
-1213.38
-1120.49
-1026.13
-932.012
-839.641
-750.316
-665.109
-584.863
-510.2
-441.531
-379.072
-322.869
-272.822
-228.709
-190.213
-156.946
-128.474
-104.337
-84.066
-67.199
-53.2929
-41.9315
-32.7327
-25.351
-19.4798
-14.8509
-11.2333
-8.43049
-6.27758
-4.63802
-3.4
-2.47308
-1.78491
-1.27825
-0.908344
-0.640503
-0.448162
-0.311171
-0.214397
-0.146588
-0.0994598
-0.0669679
-0.0447468
-0.0296712
-0.019525
-0.0127506
-0.00826335
-0.00531454
-0.00339201
-0.00214847
-0.00135045
-0.000842358
-0.00052141
-0.000320271
-0.000195209
-0.000118064
-7.08525e-05
-4.21893e-05
-2.49258e-05
-1.46115e-05
-8.49936e-06
-4.90801e-06
-2.81772e-06
-1.61639e-06
-9.41554e-07
-5.83871e-07
-4.29878e-07
-1667.26
-1652.41
-1623.14
-1580.29
-1525.08
-1458.98
-1383.72
-1301.14
-1213.16
-1121.65
-1028.45
-935.231
-843.506
-754.592
-669.59
-589.375
-514.602
-445.715
-382.963
-326.42
-276.007
-231.521
-192.661
-159.049
-130.259
-105.833
-85.3064
-68.2164
-54.1185
-42.5949
-33.2605
-25.7668
-19.8044
-15.102
-11.4257
-8.57666
-6.38764
-4.72018
-3.4608
-2.51769
-1.81737
-1.30168
-0.925108
-0.652401
-0.456539
-0.31702
-0.218449
-0.149373
-0.101358
-0.0682514
-0.0456079
-0.0302445
-0.0199036
-0.0129987
-0.00842467
-0.00541861
-0.00345863
-0.00219079
-0.00137712
-0.00085904
-0.000531763
-0.000326646
-0.000199105
-0.000120426
-7.22736e-05
-4.30377e-05
-2.54283e-05
-1.49069e-05
-8.67164e-06
-5.00776e-06
-2.87518e-06
-1.64947e-06
-9.60899e-07
-5.95924e-07
-4.38755e-07
-1658.33
-1643.85
-1615.29
-1573.45
-1519.43
-1454.67
-1380.79
-1299.55
-1212.81
-1122.4
-1030.12
-937.626
-846.438
-757.88
-673.071
-592.908
-518.074
-449.037
-386.07
-329.268
-278.573
-233.797
-194.649
-160.763
-131.717
-107.06
-86.3261
-69.0547
-54.8005
-43.144
-33.6981
-26.1123
-20.0745
-15.3112
-11.5863
-8.69882
-6.47974
-4.789
-3.51179
-2.55515
-1.84465
-1.32138
-0.939219
-0.662425
-0.4636
-0.321955
-0.221869
-0.151724
-0.102962
-0.0693367
-0.0463365
-0.0307297
-0.0202242
-0.0132089
-0.00856137
-0.00550683
-0.00351513
-0.00222669
-0.00139975
-0.000873199
-0.000540552
-0.00033206
-0.000202414
-0.000122433
-7.34812e-05
-4.37588e-05
-2.58555e-05
-1.5158e-05
-8.81815e-06
-5.09264e-06
-2.92408e-06
-1.67764e-06
-9.77346e-07
-6.06172e-07
-4.46317e-07
-1651.47
-1637.26
-1609.23
-1568.12
-1515.01
-1451.25
-1378.41
-1298.2
-1212.41
-1122.87
-1031.31
-939.401
-848.653
-760.396
-675.76
-595.66
-520.796
-451.656
-388.532
-331.536
-280.625
-235.623
-196.251
-162.148
-132.9
-108.057
-87.1572
-69.7395
-55.3588
-43.5944
-34.0578
-26.3967
-20.2973
-15.4841
-11.7192
-8.8
-6.55612
-4.84615
-3.55418
-2.58631
-1.86737
-1.33781
-0.950993
-0.670795
-0.469501
-0.326081
-0.224731
-0.153693
-0.104305
-0.0702464
-0.0469474
-0.0311368
-0.0204933
-0.0133854
-0.00867621
-0.00558097
-0.00356262
-0.00225687
-0.00141879
-0.000885112
-0.000547949
-0.000336617
-0.0002052
-0.000124123
-7.44985e-05
-4.43663e-05
-2.62155e-05
-1.53697e-05
-8.94169e-06
-5.16422e-06
-2.96533e-06
-1.70134e-06
-9.9123e-07
-6.14832e-07
-4.52718e-07
-1646.21
-1632.2
-1604.56
-1564.01
-1511.57
-1448.56
-1376.51
-1297.07
-1212.03
-1123.14
-1032.15
-940.711
-850.319
-762.311
-677.825
-597.789
-522.915
-453.706
-390.469
-333.328
-282.253
-237.078
-197.531
-163.259
-133.851
-108.861
-87.8287
-70.2942
-55.812
-43.9607
-34.3509
-26.6289
-20.4794
-15.6256
-11.8281
-8.88308
-6.61891
-4.89319
-3.5891
-2.61202
-1.88613
-1.35138
-0.960731
-0.677723
-0.47439
-0.329502
-0.227105
-0.155328
-0.105421
-0.0710024
-0.0474554
-0.0314754
-0.0207173
-0.0135323
-0.00877185
-0.00564274
-0.0036022
-0.00228204
-0.00143466
-0.000895048
-0.00055412
-0.00034042
-0.000207525
-0.000125533
-7.53478e-05
-4.48736e-05
-2.65162e-05
-1.55465e-05
-9.04491e-06
-5.22404e-06
-2.99978e-06
-1.72121e-06
-1.00286e-06
-6.22047e-07
-4.58068e-07
-1642.19
-1628.34
-1600.98
-1560.84
-1508.9
-1446.46
-1375
-1296.16
-1211.67
-1123.3
-1032.75
-941.675
-851.566
-763.761
-679.403
-599.426
-524.554
-455.3
-391.982
-334.734
-283.535
-238.227
-198.546
-164.142
-134.609
-109.503
-88.3669
-70.7398
-56.1767
-44.2562
-34.5877
-26.8169
-20.6271
-15.7405
-11.9167
-8.95072
-6.67009
-4.93157
-3.61763
-2.63304
-1.90148
-1.3625
-0.968716
-0.683408
-0.478404
-0.332313
-0.229057
-0.156672
-0.10634
-0.0716251
-0.047874
-0.0317546
-0.020902
-0.0136536
-0.0088508
-0.00569375
-0.0036349
-0.00230283
-0.00144779
-0.000903262
-0.000559223
-0.000343565
-0.000209449
-0.000126701
-7.60506e-05
-4.52934e-05
-2.67651e-05
-1.5693e-05
-9.13035e-06
-5.27353e-06
-3.02832e-06
-1.73768e-06
-1.01248e-06
-6.28056e-07
-4.62476e-07
-1639.14
-1625.39
-1598.25
-1558.41
-1506.85
-1444.82
-1373.81
-1295.42
-1211.36
-1123.37
-1033.17
-942.38
-852.496
-764.854
-680.601
-600.678
-525.814
-456.532
-393.156
-335.829
-284.537
-239.129
-199.344
-164.838
-135.208
-110.013
-88.7946
-71.0946
-56.4679
-44.4924
-34.7775
-26.9676
-20.7457
-15.8329
-11.9881
-9.0053
-6.71145
-4.96262
-3.64074
-2.65008
-1.91394
-1.37153
-0.975207
-0.688033
-0.481672
-0.334603
-0.230649
-0.157769
-0.10709
-0.0721337
-0.0482161
-0.0319828
-0.0210531
-0.0137528
-0.00891542
-0.00573551
-0.00366167
-0.00231986
-0.00145854
-0.000909995
-0.000563406
-0.000346144
-0.000211026
-0.000127658
-7.66271e-05
-4.56379e-05
-2.69693e-05
-1.58131e-05
-9.20044e-06
-5.31418e-06
-3.05175e-06
-1.75115e-06
-1.02038e-06
-6.32973e-07
-4.66119e-07
-1636.82
-1623.16
-1596.18
-1556.56
-1505.27
-1443.57
-1372.88
-1294.83
-1211.09
-1123.41
-1033.47
-942.895
-853.185
-765.673
-681.507
-601.63
-526.777
-457.477
-394.06
-336.676
-285.315
-239.831
-199.967
-165.384
-135.679
-110.414
-89.1318
-71.375
-56.6983
-44.6798
-34.9282
-27.0876
-20.8403
-15.9067
-12.0451
-9.04897
-6.74458
-4.98752
-3.65929
-2.66378
-1.92397
-1.3788
-0.980438
-0.691764
-0.48431
-0.336453
-0.231936
-0.158657
-0.107697
-0.0725454
-0.0484932
-0.0321678
-0.0211755
-0.0138332
-0.00896785
-0.00576941
-0.00368342
-0.0023337
-0.00146727
-0.000915465
-0.000566805
-0.00034824
-0.000212308
-0.000128436
-7.70958e-05
-4.5918e-05
-2.71353e-05
-1.59107e-05
-9.25749e-06
-5.34722e-06
-3.07079e-06
-1.76211e-06
-1.02677e-06
-6.36984e-07
-4.69117e-07
-1635.08
-1621.47
-1594.61
-1555.16
-1504.08
-1442.6
-1372.17
-1294.36
-1210.87
-1123.41
-1033.67
-943.268
-853.695
-766.285
-682.187
-602.349
-527.508
-458.198
-394.752
-337.326
-285.914
-240.373
-200.45
-165.807
-136.045
-110.727
-89.3956
-71.5947
-56.8792
-44.8272
-35.0469
-27.1823
-20.915
-15.9652
-12.0903
-9.08363
-6.7709
-5.00733
-3.67406
-2.6747
-1.93196
-1.38461
-0.984618
-0.694747
-0.486422
-0.337935
-0.232967
-0.159368
-0.108184
-0.072876
-0.0487158
-0.0323164
-0.021274
-0.0138979
-0.00901003
-0.00579669
-0.00370091
-0.00234484
-0.0014743
-0.000919871
-0.000569544
-0.000349929
-0.000213341
-0.000129064
-7.74735e-05
-4.61437e-05
-2.72692e-05
-1.59895e-05
-9.30345e-06
-5.37386e-06
-3.08611e-06
-1.77096e-06
-1.03199e-06
-6.4023e-07
-4.71501e-07
-1633.77
-1620.21
-1593.43
-1554.1
-1503.17
-1441.87
-1371.62
-1294
-1210.69
-1123.4
-1033.81
-943.538
-854.069
-766.738
-682.695
-602.889
-528.06
-458.744
-395.279
-337.822
-286.372
-240.789
-200.821
-166.134
-136.328
-110.969
-89.6002
-71.7655
-57.0202
-44.9421
-35.1397
-27.2564
-20.9736
-16.011
-12.1258
-9.1109
-6.79164
-5.02295
-3.68572
-2.68332
-1.93829
-1.38921
-0.98793
-0.697113
-0.488097
-0.339111
-0.233786
-0.159934
-0.108572
-0.0731391
-0.048893
-0.0324349
-0.0213525
-0.0139495
-0.00904368
-0.00581845
-0.00371488
-0.00235373
-0.00147992
-0.000923389
-0.000571731
-0.000351278
-0.000214167
-0.000129565
-7.77753e-05
-4.6324e-05
-2.73761e-05
-1.60523e-05
-9.34016e-06
-5.39515e-06
-3.09838e-06
-1.77802e-06
-1.03612e-06
-6.42793e-07
-4.73409e-07
-1632.79
-1619.26
-1592.55
-1553.31
-1502.49
-1441.31
-1371.2
-1293.72
-1210.55
-1123.38
-1033.91
-943.733
-854.343
-767.073
-683.073
-603.292
-528.473
-459.154
-395.676
-338.198
-286.72
-241.105
-201.105
-166.383
-136.545
-111.155
-89.7577
-71.8973
-57.129
-45.0311
-35.2116
-27.3139
-21.0191
-16.0467
-12.1535
-9.13218
-6.80784
-5.03517
-3.69485
-2.69008
-1.94325
-1.39282
-0.990532
-0.698973
-0.489415
-0.340038
-0.234431
-0.16038
-0.108877
-0.0733468
-0.049033
-0.0325284
-0.0214145
-0.0139903
-0.00907028
-0.00583566
-0.00372593
-0.00236076
-0.00148436
-0.000926174
-0.000573462
-0.000352345
-0.00021482
-0.000129961
-7.80142e-05
-4.64668e-05
-2.74607e-05
-1.61021e-05
-9.36923e-06
-5.41199e-06
-3.10809e-06
-1.78361e-06
-1.03936e-06
-6.4481e-07
-4.7495e-07
-1632.07
-1618.56
-1591.89
-1552.72
-1501.98
-1440.9
-1370.88
-1293.51
-1210.44
-1123.36
-1033.98
-943.872
-854.543
-767.319
-683.352
-603.591
-528.781
-459.461
-395.974
-338.48
-286.982
-241.345
-201.319
-166.573
-136.711
-111.297
-89.8781
-71.9981
-57.2125
-45.0994
-35.2669
-27.3582
-21.0543
-16.0742
-12.1749
-9.14865
-6.82039
-5.04464
-3.70194
-2.69534
-1.94711
-1.39563
-0.992559
-0.700424
-0.490444
-0.340761
-0.234936
-0.160729
-0.109116
-0.0735093
-0.0491426
-0.0326017
-0.0214631
-0.0140223
-0.00909114
-0.00584917
-0.0037346
-0.00236628
-0.00148785
-0.00092836
-0.000574821
-0.000353184
-0.000215333
-0.000130273
-7.82017e-05
-4.65788e-05
-2.75271e-05
-1.61412e-05
-9.39201e-06
-5.42522e-06
-3.11574e-06
-1.78799e-06
-1.04192e-06
-6.4642e-07
-4.76095e-07
-1631.53
-1618.04
-1591.41
-1552.28
-1501.6
-1440.59
-1370.65
-1293.35
-1210.35
-1123.35
-1034.02
-943.971
-854.687
-767.499
-683.557
-603.812
-529.009
-459.689
-396.196
-338.691
-287.179
-241.524
-201.481
-166.716
-136.835
-111.404
-89.9693
-72.0746
-57.276
-45.1514
-35.3091
-27.3921
-21.0811
-16.0953
-12.1913
-9.16129
-6.83003
-5.05193
-3.70739
-2.69939
-1.95009
-1.39779
-0.994126
-0.701545
-0.49124
-0.341321
-0.235326
-0.160999
-0.109302
-0.0736354
-0.0492277
-0.0326586
-0.0215009
-0.0140471
-0.00910736
-0.00585967
-0.00374134
-0.00237058
-0.00149056
-0.000930061
-0.000575879
-0.000353836
-0.000215732
-0.000130515
-7.83476e-05
-4.6666e-05
-2.75788e-05
-1.61716e-05
-9.40975e-06
-5.4355e-06
-3.12165e-06
-1.79139e-06
-1.04392e-06
-6.47663e-07
-4.77004e-07
-1631.14
-1617.66
-1591.05
-1551.96
-1501.32
-1440.36
-1370.47
-1293.23
-1210.28
-1123.33
-1034.05
-944.042
-854.791
-767.629
-683.706
-603.974
-529.177
-459.858
-396.36
-338.848
-287.325
-241.658
-201.601
-166.823
-136.929
-111.485
-90.0379
-72.1323
-57.3239
-45.1908
-35.341
-27.4177
-21.1015
-16.1114
-12.2038
-9.17092
-6.83738
-5.05749
-3.71156
-2.70248
-1.95236
-1.39946
-0.995326
-0.702405
-0.491851
-0.341751
-0.235627
-0.161207
-0.109444
-0.0737325
-0.0492932
-0.0327025
-0.02153
-0.0140663
-0.00911987
-0.00586776
-0.00374654
-0.00237389
-0.00149266
-0.000931374
-0.000576695
-0.000354339
-0.00021604
-0.000130702
-7.84602e-05
-4.67332e-05
-2.76186e-05
-1.6195e-05
-9.42338e-06
-5.44337e-06
-3.12619e-06
-1.79402e-06
-1.04546e-06
-6.48617e-07
-4.77706e-07
-1630.85
-1617.39
-1590.79
-1551.72
-1501.12
-1440.19
-1370.34
-1293.14
-1210.23
-1123.32
-1034.07
-944.092
-854.866
-767.724
-683.815
-604.092
-529.3
-459.981
-396.481
-338.963
-287.433
-241.757
-201.691
-166.903
-136.998
-111.545
-90.0891
-72.1754
-57.3597
-45.2202
-35.365
-27.437
-21.1168
-16.1234
-12.2132
-9.17819
-6.84294
-5.0617
-3.71472
-2.70483
-1.95409
-1.40072
-0.996239
-0.70306
-0.492316
-0.342079
-0.235855
-0.161365
-0.109553
-0.0738066
-0.0493432
-0.0327359
-0.0215522
-0.0140809
-0.00912943
-0.00587396
-0.00375052
-0.00237643
-0.00149426
-0.000932377
-0.000577319
-0.000354724
-0.000216276
-0.000130845
-7.85462e-05
-4.67846e-05
-2.76491e-05
-1.62129e-05
-9.43383e-06
-5.44942e-06
-3.12968e-06
-1.79605e-06
-1.04663e-06
-6.493e-07
-4.78239e-07
-1630.64
-1617.18
-1590.6
-1551.55
-1500.97
-1440.07
-1370.25
-1293.07
-1210.19
-1123.3
-1034.08
-944.127
-854.919
-767.791
-683.893
-604.177
-529.389
-460.071
-396.569
-339.047
-287.512
-241.83
-201.757
-166.961
-137.05
-111.589
-90.127
-72.2074
-57.3863
-45.2422
-35.3828
-27.4514
-21.1283
-16.1325
-12.2203
-9.18364
-6.84711
-5.06486
-3.71709
-2.70659
-1.95539
-1.40167
-0.996927
-0.703553
-0.492667
-0.342326
-0.236028
-0.161485
-0.109635
-0.0738627
-0.0493811
-0.0327613
-0.0215691
-0.014092
-0.00913668
-0.00587865
-0.00375354
-0.00237835
-0.00149547
-0.000933139
-0.000577792
-0.000355016
-0.000216454
-0.000130953
-7.86114e-05
-4.68236e-05
-2.76721e-05
-1.62264e-05
-9.44174e-06
-5.454e-06
-3.13231e-06
-1.79755e-06
-1.04751e-06
-6.49871e-07
-4.78615e-07
-1630.49
-1617.04
-1590.46
-1551.42
-1500.86
-1439.98
-1370.18
-1293.02
-1210.16
-1123.3
-1034.09
-944.151
-854.957
-767.84
-683.95
-604.239
-529.453
-460.136
-396.633
-339.109
-287.569
-241.883
-201.805
-167.004
-137.087
-111.622
-90.1549
-72.2309
-57.406
-45.2584
-35.396
-27.462
-21.1368
-16.1392
-12.2255
-9.18768
-6.85021
-5.06721
-3.71886
-2.70791
-1.95636
-1.40238
-0.997441
-0.703922
-0.49293
-0.342512
-0.236158
-0.161575
-0.109697
-0.0739047
-0.0494095
-0.0327804
-0.0215817
-0.0141004
-0.00914213
-0.00588218
-0.0037558
-0.00237979
-0.00149639
-0.000933711
-0.000578148
-0.000355236
-0.000216589
-0.000131035
-7.86604e-05
-4.68528e-05
-2.76894e-05
-1.62366e-05
-9.44766e-06
-5.45743e-06
-3.13429e-06
-1.79869e-06
-1.04816e-06
-6.5029e-07
-4.78921e-07
-1630.38
-1616.93
-1590.37
-1551.34
-1500.78
-1439.91
-1370.13
-1292.98
-1210.14
-1123.29
-1034.1
-944.168
-854.984
-767.874
-683.99
-604.283
-529.5
-460.183
-396.679
-339.153
-287.611
-241.921
-201.84
-167.035
-137.115
-111.646
-90.1753
-72.2481
-57.4204
-45.2702
-35.4057
-27.4698
-21.143
-16.1441
-12.2294
-9.19067
-6.8525
-5.06895
-3.72017
-2.70888
-1.95708
-1.4029
-0.997822
-0.704196
-0.493125
-0.342649
-0.236254
-0.161642
-0.109743
-0.0739361
-0.0494307
-0.0327946
-0.0215912
-0.0141066
-0.00914619
-0.00588481
-0.0037575
-0.00238087
-0.00149707
-0.000934138
-0.000578414
-0.000355399
-0.000216689
-0.000131095
-7.8697e-05
-4.68746e-05
-2.77023e-05
-1.62442e-05
-9.45208e-06
-5.45996e-06
-3.13573e-06
-1.79955e-06
-1.04868e-06
-6.50596e-07
-4.79143e-07
-1630.31
-1616.86
-1590.3
-1551.27
-1500.73
-1439.87
-1370.09
-1292.96
-1210.13
-1123.28
-1034.1
-944.18
-855.002
-767.898
-684.018
-604.314
-529.532
-460.216
-396.712
-339.185
-287.641
-241.949
-201.865
-167.058
-137.135
-111.663
-90.19
-72.2606
-57.4308
-45.2788
-35.4128
-27.4755
-21.1475
-16.1477
-12.2322
-9.19285
-6.85417
-5.07022
-3.72113
-2.7096
-1.95761
-1.40329
-0.998103
-0.704398
-0.493268
-0.342751
-0.236325
-0.161691
-0.109777
-0.0739592
-0.0494463
-0.032805
-0.0215981
-0.0141112
-0.00914919
-0.00588676
-0.00375875
-0.00238167
-0.00149757
-0.000934454
-0.00057861
-0.00035552
-0.000216763
-0.00013114
-7.8724e-05
-4.68907e-05
-2.77119e-05
-1.62498e-05
-9.45533e-06
-5.46185e-06
-3.13681e-06
-1.80015e-06
-1.04905e-06
-6.50817e-07
-4.79305e-07
-1630.25
-1616.81
-1590.25
-1551.23
-1500.69
-1439.83
-1370.06
-1292.94
-1210.11
-1123.28
-1034.1
-944.188
-855.015
-767.915
-684.038
-604.336
-529.556
-460.24
-396.735
-339.207
-287.662
-241.969
-201.883
-167.074
-137.149
-111.675
-90.2006
-72.2696
-57.4383
-45.2851
-35.4178
-27.4796
-21.1508
-16.1503
-12.2342
-9.19444
-6.85539
-5.07115
-3.72182
-2.71012
-1.958
-1.40357
-0.998307
-0.704545
-0.493373
-0.342825
-0.236377
-0.161727
-0.109802
-0.0739762
-0.0494578
-0.0328127
-0.0216032
-0.0141145
-0.0091514
-0.00588819
-0.00375967
-0.00238225
-0.00149794
-0.000934686
-0.000578754
-0.000355609
-0.000216817
-0.000131173
-7.87437e-05
-4.69025e-05
-2.77188e-05
-1.62538e-05
-9.45771e-06
-5.46324e-06
-3.13761e-06
-1.8006e-06
-1.04932e-06
-6.50973e-07
-4.79416e-07
-1630.21
-1616.77
-1590.21
-1551.19
-1500.66
-1439.81
-1370.05
-1292.93
-1210.11
-1123.28
-1034.11
-944.194
-855.024
-767.927
-684.052
-604.351
-529.572
-460.257
-396.752
-339.223
-287.677
-241.983
-201.895
-167.085
-137.159
-111.684
-90.2082
-72.276
-57.4437
-45.2895
-35.4215
-27.4826
-21.1532
-16.1522
-12.2357
-9.19558
-6.85627
-5.07182
-3.72233
-2.71049
-1.95827
-1.40378
-0.998456
-0.704652
-0.493449
-0.342879
-0.236415
-0.161753
-0.10982
-0.0739885
-0.0494661
-0.0328183
-0.021607
-0.014117
-0.009153
-0.00588923
-0.00376033
-0.00238268
-0.00149821
-0.000934854
-0.000578859
-0.000355674
-0.000216856
-0.000131197
-7.87581e-05
-4.6911e-05
-2.77238e-05
-1.62568e-05
-9.45941e-06
-5.46424e-06
-3.13821e-06
-1.80094e-06
-1.04949e-06
-6.51098e-07
-4.79517e-07
-1630.19
-1616.74
-1590.19
-1551.17
-1500.64
-1439.79
-1370.03
-1292.92
-1210.1
-1123.27
-1034.11
-944.197
-855.031
-767.935
-684.062
-604.362
-529.584
-460.268
-396.763
-339.234
-287.688
-241.992
-201.904