/*--------------------------------*- C++ -*----------------------------------*\
  =========                 |
  \\      /  F ield         | OpenFOAM: The Open Source CFD Toolbox
   \\    /   O peration     | Website:  https://openfoam.org
    \\  /    A nd           | Version:  10
     \\/     M anipulation  |
\*---------------------------------------------------------------------------*/
FoamFile
{
    format      ascii;
    class       volScalarField;
    location    "334";
    object      T;
}
// * * * * * * * * * * * * * * * * * * * * * * * * * * * * * * * * * * * * * //

dimensions      [0 0 0 1 0 0 0];

internalField   nonuniform List<scalar> 
11250
(
249.841
167.552
139.353
126.936
120.16
115.862
112.857
110.616
108.871
107.47
106.319
105.36
104.551
103.864
103.277
102.774
102.342
101.972
101.655
101.384
101.152
100.956
100.789
100.648
100.53
100.432
100.35
100.282
100.226
100.18
100.143
100.113
100.088
100.069
100.053
100.041
100.032
100.024
100.018
100.014
100.01
100.008
100.006
100.004
100.003
100.002
100.002
100.001
100.001
100.001
100
100
100
100
100
100
100
100
100
100
100
100
100
100
100
100
100
100
100
100
100
100
100
100
100
331.495
248.574
202.287
175.179
158.019
146.316
137.83
131.379
126.297
122.187
118.798
115.961
113.564
111.522
109.776
108.279
106.994
105.89
104.944
104.135
103.444
102.856
102.359
101.939
101.586
101.291
101.046
100.843
100.675
100.538
100.427
100.337
100.264
100.206
100.16
100.123
100.095
100.072
100.055
100.041
100.031
100.023
100.017
100.013
100.009
100.007
100.005
100.003
100.002
100.002
100.001
100.001
100.001
100
100
100
100
100
100
100
100
100
100
100
100
100
100
100
100
100
100
100
100
100
100
359.066
292.981
246.074
213.516
190.476
173.616
160.839
150.851
142.837
136.275
130.815
126.218
122.314
118.979
116.119
113.661
111.547
109.731
108.171
106.836
105.696
104.726
103.903
103.209
102.626
102.138
101.732
101.395
101.119
100.892
100.708
100.558
100.438
100.342
100.265
100.204
100.157
100.12
100.091
100.068
100.051
100.038
100.028
100.021
100.015
100.011
100.008
100.006
100.004
100.003
100.002
100.001
100.001
100.001
100
100
100
100
100
100
100
100
100
100
100
100
100
100
100
100
100
100
100
100
100
370.866
318.241
275.565
242.407
216.841
196.937
181.18
168.479
158.066
149.407
142.122
135.937
130.652
126.115
122.211
118.845
115.944
113.446
111.299
109.458
107.885
106.544
105.407
104.447
103.639
102.964
102.401
101.936
101.552
101.238
100.982
100.775
100.608
100.474
100.368
100.284
100.218
100.166
100.126
100.095
100.071
100.053
100.039
100.029
100.021
100.015
100.011
100.008
100.006
100.004
100.003
100.002
100.001
100.001
100.001
100
100
100
100
100
100
100
100
100
100
100
100
100
100
100
100
100
100
100
100
377.038
333.594
295.608
263.806
237.667
216.256
198.631
184
171.739
161.372
152.541
144.973
138.459
132.836
127.974
123.768
120.133
116.996
114.294
111.974
109.988
108.294
106.857
105.641
104.618
103.762
103.049
102.458
101.972
101.573
101.248
100.985
100.773
100.603
100.468
100.361
100.277
100.211
100.16
100.121
100.091
100.067
100.05
100.037
100.027
100.02
100.014
100.01
100.007
100.005
100.004
100.003
100.002
100.001
100.001
100.001
100
100
100
100
100
100
100
100
100
100
100
100
100
100
100
100
100
100
100
380.75
343.545
309.56
279.665
253.924
231.974
213.3
197.383
183.766
172.064
161.97
153.232
145.652
139.069
133.348
128.381
124.073
120.345
117.128
114.359
111.987
109.961
108.239
106.781
105.555
104.527
103.67
102.96
102.375
101.895
101.504
101.187
100.931
100.727
100.564
100.435
100.334
100.255
100.193
100.146
100.109
100.081
100.06
100.044
100.033
100.024
100.017
100.012
100.009
100.006
100.004
100.003
100.002
100.002
100.001
100.001
100
100
100
100
100
100
100
100
100
100
100
100
100
100
100
100
100
100
100
383.191
350.341
319.533
291.523
266.58
244.64
225.466
208.749
194.178
181.468
170.368
160.667
152.185
144.77
138.295
132.647
127.733
123.468
119.778
116.597
113.866
111.531
109.543
107.86
106.441
105.251
104.259
103.436
102.758
102.201
101.747
101.379
101.083
100.845
100.656
100.506
100.389
100.296
100.225
100.17
100.127
100.095
100.07
100.052
100.038
100.028
100.02
100.014
100.01
100.007
100.005
100.004
100.003
100.002
100.001
100.001
100.001
100
100
100
100
100
100
100
100
100
100
100
100
100
100
100
100
100
100
384.892
355.175
326.837
300.491
276.453
254.804
235.472
218.296
203.082
189.631
177.752
167.273
158.041
149.92
142.791
136.547
131.094
126.348
122.231
118.675
115.615
112.996
110.763
108.87
107.273
105.932
104.814
103.885
103.119
102.49
101.977
101.561
101.226
100.957
100.743
100.574
100.44
100.336
100.255
100.192
100.144
100.107
100.08
100.059
100.043
100.031
100.023
100.016
100.012
100.008
100.006
100.004
100.003
100.002
100.001
100.001
100.001
100
100
100
100
100
100
100
100
100
100
100
100
100
100
100
100
100
100
386.123
358.717
332.298
307.352
284.188
262.95
243.659
226.253
210.624
196.643
184.171
173.076
163.231
154.519
146.832
140.072
134.148
128.975
124.477
120.583
117.227
114.349
111.892
109.807
108.045
106.566
105.33
104.304
103.457
102.761
102.193
101.732
101.36
101.062
100.825
100.637
100.489
100.373
100.283
100.214
100.16
100.119
100.089
100.065
100.048
100.035
100.025
100.018
100.013
100.009
100.007
100.005
100.003
100.002
100.002
100.001
100.001
100
100
100
100
100
100
100
100
100
100
100
100
100
100
100
100
100
100
387.038
361.373
336.448
312.656
290.279
269.482
250.338
232.849
216.966
202.613
189.698
178.121
167.783
158.583
150.427
143.226
136.893
131.347
126.513
122.319
118.698
115.587
112.928
110.668
108.757
107.151
105.808
104.692
103.769
103.012
102.393
101.891
101.485
101.16
100.901
100.696
100.534
100.408
100.31
100.234
100.175
100.131
100.097
100.071
100.052
100.038
100.028
100.02
100.014
100.01
100.007
100.005
100.004
100.002
100.002
100.001
100.001
100.001
100
100
100
100
100
100
100
100
100
100
100
100
100
100
100
100
100
387.733
363.398
339.643
316.793
295.096
274.725
255.777
238.293
222.266
207.661
194.419
182.471
171.738
162.14
153.594
146.02
139.337
133.469
128.342
123.883
120.027
116.709
113.869
111.452
109.407
107.686
106.245
105.047
104.057
103.243
102.577
102.037
101.601
101.251
100.972
100.751
100.576
100.44
100.334
100.252
100.189
100.141
100.105
100.077
100.056
100.041
100.03
100.021
100.015
100.011
100.008
100.005
100.004
100.003
100.002
100.001
100.001
100.001
100
100
100
100
100
100
100
100
100
100
100
100
100
100
100
100
100
388.267
364.962
342.129
320.041
298.922
278.938
260.2
242.772
226.675
211.903
198.424
186.192
175.148
165.228
156.36
148.474
141.495
135.35
129.969
125.281
121.218
117.717
114.717
112.161
109.995
108.171
106.643
105.371
104.319
103.453
102.746
102.171
101.706
101.334
101.036
100.801
100.615
100.47
100.357
100.269
100.202
100.151
100.112
100.082
100.06
100.044
100.032
100.023
100.016
100.012
100.008
100.006
100.004
100.003
100.002
100.001
100.001
100.001
100
100
100
100
100
100
100
100
100
100
100
100
100
100
100
100
100
388.682
366.182
344.078
322.607
301.971
282.328
263.794
246.447
230.328
215.449
201.8
189.353
178.065
167.886
158.756
150.61
143.382
137.003
131.405
126.518
122.276
118.616
115.475
112.795
110.523
108.607
107.001
105.663
104.555
103.644
102.898
102.292
101.802
101.409
101.095
100.846
100.65
100.497
100.377
100.285
100.214
100.159
100.118
100.087
100.064
100.047
100.034
100.024
100.017
100.012
100.009
100.006
100.004
100.003
100.002
100.001
100.001
100.001
100
100
100
100
100
100
100
100
100
100
100
100
100
100
100
100
100
389.007
367.139
345.614
324.642
304.406
285.057
266.712
249.456
233.342
218.398
204.629
192.021
180.544
170.159
160.815
152.456
145.02
138.444
132.661
127.604
123.208
119.41
116.146
113.358
110.992
108.995
107.321
105.924
104.767
103.815
103.035
102.401
101.889
101.477
101.148
100.888
100.682
100.521
100.396
100.299
100.224
100.167
100.124
100.092
100.067
100.049
100.035
100.026
100.018
100.013
100.009
100.006
100.005
100.003
100.002
100.001
100.001
100.001
100
100
100
100
100
100
100
100
100
100
100
100
100
100
100
100
100
389.264
367.894
346.83
326.26
306.354
287.254
269.078
251.913
235.822
220.842
206.989
194.26
182.637
172.089
162.573
154.039
146.432
139.69
133.751
128.55
124.023
120.105
116.735
113.855
111.407
109.339
107.604
106.156
104.956
103.967
103.158
102.499
101.966
101.538
101.196
100.925
100.711
100.543
100.413
100.312
100.234
100.175
100.13
100.096
100.07
100.051
100.037
100.027
100.019
100.014
100.01
100.007
100.005
100.003
100.002
100.002
100.001
100.001
100
100
100
100
100
100
100
100
100
100
100
100
100
100
100
100
100
389.466
368.492
347.795
327.55
307.914
289.024
270.994
253.915
237.855
222.858
208.947
196.129
184.394
173.717
164.063
155.387
147.639
140.76
134.691
129.368
124.729
120.71
117.249
114.288
111.77
109.641
107.853
106.361
105.123
104.102
103.266
102.585
102.034
101.592
101.238
100.958
100.736
100.563
100.428
100.323
100.242
100.181
100.134
100.099
100.073
100.053
100.038
100.028
100.02
100.014
100.01
100.007
100.005
100.003
100.002
100.002
100.001
100.001
100.001
100
100
100
100
100
100
100
100
100
100
100
100
100
100
100
100
389.627
368.966
348.563
328.579
309.163
290.447
272.543
255.543
239.517
224.514
210.565
197.681
185.86
175.082
165.317
156.527
148.663
141.672
135.494
130.07
125.337
121.232
117.694
114.664
112.085
109.904
108.071
106.539
105.268
104.22
103.361
102.661
102.095
101.639
101.276
100.987
100.759
100.58
100.441
100.333
100.25
100.187
100.139
100.102
100.075
100.055
100.04
100.029
100.02
100.015
100.01
100.007
100.005
100.004
100.002
100.002
100.001
100.001
100.001
100
100
100
100
100
100
100
100
100
100
100
100
100
100
100
100
389.754
369.343
349.174
329.4
310.163
291.591
273.793
256.863
240.87
225.87
211.895
198.964
187.076
176.22
166.368
157.486
149.528
142.444
136.177
130.668
125.856
121.679
118.076
114.988
112.358
110.131
108.259
106.694
105.395
104.323
103.444
102.727
102.148
101.681
101.308
101.012
100.778
100.595
100.452
100.342
100.257
100.192
100.142
100.105
100.077
100.056
100.041
100.029
100.021
100.015
100.011
100.007
100.005
100.004
100.002
100.002
100.001
100.001
100.001
100
100
100
100
100
100
100
100
100
100
100
100
100
100
100
100
389.855
369.642
349.66
330.054
310.963
292.509
274.8
257.929
241.969
226.975
212.985
200.018
188.081
177.163
167.242
158.286
150.252
143.093
136.753
131.174
126.297
122.059
118.402
115.265
112.591
110.326
108.421
106.828
105.504
104.412
103.515
102.785
102.193
101.717
101.337
101.034
100.796
100.608
100.463
100.35
100.263
100.196
100.146
100.107
100.079
100.057
100.042
100.03
100.021
100.015
100.011
100.008
100.005
100.004
100.003
100.002
100.001
100.001
100.001
100
100
100
100
100
100
100
100
100
100
100
100
100
100
100
100
389.935
369.88
350.046
330.576
311.601
293.243
275.609
258.789
242.858
227.873
213.873
200.881
188.906
177.94
167.965
158.95
150.856
143.635
137.235
131.599
126.668
122.381
118.677
115.499
112.789
110.492
108.559
106.942
105.598
104.488
103.577
102.834
102.233
101.749
101.361
101.054
100.811
100.62
100.471
100.356
100.268
100.2
100.148
100.109
100.08
100.059
100.042
100.031
100.022
100.016
100.011
100.008
100.005
100.004
100.003
100.002
100.001
100.001
100.001
100
100
100
100
100
100
100
100
100
100
100
100
100
100
100
100
389.999
370.068
350.353
330.991
312.11
293.831
276.257
259.481
243.575
228.599
214.594
201.584
189.58
178.578
168.56
159.499
151.355
144.085
137.637
131.954
126.978
122.65
118.909
115.697
112.956
110.633
108.676
107.039
105.677
104.552
103.629
102.876
102.266
101.775
101.382
101.07
100.823
100.63
100.479
100.362
100.272
100.203
100.151
100.111
100.082
100.06
100.043
100.031
100.022
100.016
100.011
100.008
100.006
100.004
100.003
100.002
100.001
100.001
100.001
100
100
100
100
100
100
100
100
100
100
100
100
100
100
100
100
390.049
370.218
350.596
331.32
312.515
294.299
276.775
260.034
244.151
229.184
215.176
202.154
190.129
179.098
169.047
159.948
151.766
144.457
137.969
132.248
127.236
122.874
119.103
115.862
113.096
110.751
108.775
107.12
105.744
104.607
103.674
102.912
102.295
101.798
101.4
101.084
100.834
100.638
100.485
100.367
100.276
100.206
100.153
100.113
100.083
100.06
100.044
100.032
100.023
100.016
100.011
100.008
100.006
100.004
100.003
100.002
100.001
100.001
100.001
100
100
100
100
100
100
100
100
100
100
100
100
100
100
100
100
390.089
370.336
350.789
331.581
312.836
294.67
277.187
260.476
244.612
229.654
215.645
202.613
190.572
179.52
169.443
160.315
152.102
144.761
138.242
132.49
127.45
123.06
119.263
116
113.213
110.849
108.857
107.189
105.801
104.653
103.711
102.942
102.319
101.817
101.415
101.096
100.843
100.645
100.491
100.371
100.279
100.208
100.155
100.114
100.084
100.061
100.044
100.032
100.023
100.016
100.012
100.008
100.006
100.004
100.003
100.002
100.001
100.001
100.001
100
100
100
100
100
100
100
100
100
100
100
100
100
100
100
100
390.12
370.429
350.941
331.786
313.09
294.965
277.514
260.828
244.979
230.029
216.02
202.983
190.929
179.861
169.763
160.613
152.376
145.009
138.465
132.689
127.625
123.213
119.395
116.113
113.31
110.931
108.925
107.245
105.847
104.692
103.742
102.967
102.339
101.833
101.428
101.106
100.851
100.651
100.495
100.375
100.282
100.21
100.156
100.115
100.085
100.062
100.045
100.032
100.023
100.016
100.012
100.008
100.006
100.004
100.003
100.002
100.001
100.001
100.001
100
100
100
100
100
100
100
100
100
100
100
100
100
100
100
100
390.145
370.502
351.06
331.948
313.29
295.197
277.773
261.106
245.271
230.327
216.319
203.277
191.215
180.134
170.021
160.853
152.597
145.21
138.646
132.85
127.767
123.338
119.504
116.206
113.389
110.998
108.981
107.292
105.886
104.723
103.768
102.988
102.356
101.846
101.438
101.114
100.858
100.656
100.499
100.378
100.284
100.212
100.157
100.116
100.085
100.062
100.045
100.033
100.023
100.017
100.012
100.008
100.006
100.004
100.003
100.002
100.001
100.001
100.001
100
100
100
100
100
100
100
100
100
100
100
100
100
100
100
100
390.164
370.559
351.154
332.076
313.447
295.38
277.977
261.326
245.501
230.563
216.557
203.512
191.443
180.352
170.227
161.046
152.774
145.373
138.792
132.981
127.883
123.439
119.592
116.282
113.454
111.053
109.028
107.331
105.918
104.749
103.789
103.005
102.37
101.857
101.447
101.121
100.863
100.66
100.502
100.38
100.286
100.213
100.159
100.117
100.086
100.063
100.045
100.033
100.023
100.017
100.012
100.008
100.006
100.004
100.003
100.002
100.001
100.001
100.001
100
100
100
100
100
100
100
100
100
100
100
100
100
100
100
100
390.179
370.604
351.227
332.175
313.57
295.524
278.137
261.498
245.682
230.75
216.745
203.698
191.624
180.526
170.392
161.199
152.916
145.502
138.91
133.086
127.976
123.521
119.663
116.343
113.506
111.097
109.065
107.362
105.944
104.771
103.807
103.02
102.381
101.866
101.454
101.127
100.867
100.664
100.505
100.382
100.287
100.215
100.159
100.118
100.086
100.063
100.046
100.033
100.024
100.017
100.012
100.008
100.006
100.004
100.003
100.002
100.001
100.001
100.001
100
100
100
100
100
100
100
100
100
100
100
100
100
100
100
100
390.191
370.639
351.284
332.253
313.666
295.636
278.262
261.633
245.825
230.896
216.892
203.844
191.767
180.663
170.522
161.321
153.029
145.606
139.003
133.17
128.05
123.586
119.72
116.393
113.549
111.133
109.095
107.387
105.965
104.788
103.821
103.031
102.39
101.874
101.46
101.131
100.871
100.667
100.507
100.384
100.288
100.216
100.16
100.118
100.087
100.063
100.046
100.033
100.024
100.017
100.012
100.008
100.006
100.004
100.003
100.002
100.001
100.001
100.001
100
100
100
100
100
100
100
100
100
100
100
100
100
100
100
100
390.2
370.666
351.328
332.313
313.741
295.723
278.359
261.739
245.936
231.01
217.008
203.958
191.879
180.771
170.624
161.417
153.118
145.687
139.077
133.237
128.11
123.639
119.766
116.432
113.583
111.162
109.12
107.407
105.982
104.802
103.832
103.04
102.398
101.88
101.465
101.135
100.874
100.669
100.509
100.385
100.289
100.216
100.161
100.119
100.087
100.064
100.046
100.033
100.024
100.017
100.012
100.008
100.006
100.004
100.003
100.002
100.001
100.001
100.001
100
100
100
100
100
100
100
100
100
100
100
100
100
100
100
100
390.207
370.687
351.362
332.359
313.798
295.79
278.434
261.82
246.022
231.099
217.097
204.048
191.966
180.855
170.705
161.493
153.189
145.752
139.136
133.289
128.157
123.68
119.802
116.464
113.609
111.185
109.139
107.424
105.995
104.813
103.841
103.048
102.404
101.884
101.469
101.138
100.876
100.671
100.51
100.386
100.29
100.217
100.161
100.119
100.087
100.064
100.046
100.033
100.024
100.017
100.012
100.008
100.006
100.004
100.003
100.002
100.001
100.001
100.001
100
100
100
100
100
100
100
100
100
100
100
100
100
100
100
100
390.212
370.703
351.388
332.395
313.843
295.842
278.493
261.883
246.088
231.168
217.167
204.117
192.034
180.921
170.767
161.552
153.243
145.802
139.182
133.331
128.193
123.713
119.83
116.488
113.631
111.203
109.154
107.437
106.006
104.822
103.849
103.054
102.408
101.888
101.472
101.14
100.878
100.672
100.512
100.387
100.291
100.217
100.162
100.119
100.088
100.064
100.046
100.033
100.024
100.017
100.012
100.008
100.006
100.004
100.003
100.002
100.001
100.001
100.001
100
100
100
100
100
100
100
100
100
100
100
100
100
100
100
100
390.216
370.715
351.408
332.422
313.877
295.881
278.537
261.932
246.139
231.221
217.221
204.171
192.087
180.972
170.816
161.597
153.286
145.841
139.218
133.363
128.222
123.738
119.853
116.508
113.647
111.217
109.166
107.447
106.014
104.829
103.854
103.058
102.412
101.891
101.474
101.142
100.88
100.673
100.512
100.388
100.291
100.218
100.162
100.12
100.088
100.064
100.046
100.033
100.024
100.017
100.012
100.009
100.006
100.004
100.003
100.002
100.001
100.001
100.001
100
100
100
100
100
100
100
100
100
100
100
100
100
100
100
100
390.22
370.724
351.424
332.443
313.903
295.912
278.571
261.969
246.179
231.261
217.262
204.212
192.127
181.011
170.853
161.633
153.319
145.872
139.245
133.388
128.245
123.758
119.87
116.523
113.661
111.229
109.176
107.455
106.021
104.834
103.859
103.062
102.415
101.894
101.476
101.144
100.881
100.674
100.513
100.388
100.292
100.218
100.162
100.12
100.088
100.064
100.047
100.034
100.024
100.017
100.012
100.009
100.006
100.004
100.003
100.002
100.001
100.001
100.001
100
100
100
100
100
100
100
100
100
100
100
100
100
100
100
100
390.222
370.731
351.435
332.459
313.922
295.935
278.597
261.997
246.209
231.292
217.293
204.243
192.158
181.041
170.882
161.66
153.344
145.895
139.267
133.407
128.262
123.773
119.883
116.535
113.671
111.237
109.183
107.461
106.026
104.839
103.862
103.065
102.417
101.896
101.478
101.145
100.882
100.675
100.514
100.389
100.292
100.218
100.162
100.12
100.088
100.064
100.047
100.034
100.024
100.017
100.012
100.009
100.006
100.004
100.003
100.002
100.001
100.001
100.001
100
100
100
100
100
100
100
100
100
100
100
100
100
100
100
100
390.224
370.737
351.444
332.471
313.937
295.952
278.617
262.018
246.231
231.316
217.317
204.267
192.181
181.063
170.903
161.68
153.363
145.913
139.283
133.422
128.275
123.785
119.894
116.544
113.678
111.244
109.189
107.466
106.03
104.842
103.865
103.067
102.419
101.897
101.479
101.146
100.882
100.676
100.514
100.389
100.293
100.219
100.162
100.12
100.088
100.064
100.047
100.034
100.024
100.017
100.012
100.009
100.006
100.004
100.003
100.002
100.001
100.001
100.001
100
100
100
100
100
100
100
100
100
100
100
100
100
100
100
100
390.225
370.741
351.451
332.48
313.948
295.966
278.632
262.034
246.248
231.333
217.335
204.285
192.199
181.081
170.92
161.696
153.378
145.927
139.295
133.433
128.285
123.794
119.902
116.551
113.684
111.249
109.193
107.469
106.033
104.845
103.867
103.069
102.421
101.898
101.48
101.146
100.883
100.676
100.515
100.389
100.293
100.219
100.163
100.12
100.088
100.064
100.047
100.034
100.024
100.017
100.012
100.009
100.006
100.004
100.003
100.002
100.001
100.001
100.001
100
100
100
100
100
100
100
100
100
100
100
100
100
100
100
100
390.226
370.744
351.456
332.487
313.957
295.975
278.643
262.046
246.261
231.347
217.349
204.299
192.213
181.094
170.933
161.708
153.389
145.937
139.305
133.442
128.293
123.801
119.908
116.556
113.689
111.253
109.197
107.472
106.036
104.847
103.869
103.07
102.422
101.899
101.48
101.147
100.883
100.676
100.515
100.389
100.293
100.219
100.163
100.12
100.088
100.064
100.047
100.034
100.024
100.017
100.012
100.009
100.006
100.004
100.003
100.002
100.001
100.001
100.001
100
100
100
100
100
100
100
100
100
100
100
100
100
100
100
100
390.227
370.746
351.459
332.492
313.963
295.983
278.651
262.055
246.271
231.357
217.359
204.309
192.223
181.103
170.942
161.717
153.397
145.945
139.312
133.448
128.299
123.806
119.912
116.56
113.692
111.256
109.199
107.474
106.037
104.848
103.87
103.071
102.423
101.9
101.481
101.147
100.884
100.677
100.515
100.39
100.293
100.219
100.163
100.12
100.088
100.064
100.047
100.034
100.024
100.017
100.012
100.009
100.006
100.004
100.003
100.002
100.001
100.001
100.001
100
100
100
100
100
100
100
100
100
100
100
100
100
100
100
100
390.227
370.748
351.462
332.496
313.968
295.988
278.657
262.062
246.278
231.364
217.367
204.316
192.23
181.111
170.949
161.723
153.404
145.95
139.317
133.453
128.303
123.81
119.916
116.563
113.695
111.258
109.201
107.476
106.039
104.849
103.871
103.072
102.423
101.9
101.481
101.148
100.884
100.677
100.515
100.39
100.293
100.219
100.163
100.12
100.088
100.064
100.047
100.034
100.024
100.017
100.012
100.009
100.006
100.004
100.003
100.002
100.001
100.001
100.001
100
100
100
100
100
100
100
100
100
100
100
100
100
100
100
100
390.228
370.749
351.464
332.498
313.971
295.992
278.662
262.067
246.283
231.369
217.372
204.322
192.236
181.116
170.954
161.728
153.408
145.955
139.321
133.457
128.306
123.813
119.918
116.565
113.697
111.26
109.203
107.477
106.04
104.85
103.872
103.072
102.424
101.901
101.482
101.148
100.884
100.677
100.515
100.39
100.293
100.219
100.163
100.12
100.088
100.064
100.047
100.034
100.024
100.017
100.012
100.009
100.006
100.004
100.003
100.002
100.001
100.001
100.001
100
100
100
100
100
100
100
100
100
100
100
100
100
100
100
100
390.228
370.75
351.466
332.501
313.974
295.995
278.665
262.071
246.287
231.373
217.376
204.326
192.24
181.12
170.958
161.732
153.412
145.958
139.324
133.459
128.309
123.815
119.92
116.567
113.698
111.261
109.204
107.478
106.04
104.851
103.872
103.073
102.424
101.901
101.482
101.148
100.884
100.677
100.515
100.39
100.293
100.219
100.163
100.12
100.088
100.064
100.047
100.034
100.024
100.017
100.012
100.009
100.006
100.004
100.003
100.002
100.001
100.001
100.001
100
100
100
100
100
100
100
100
100
100
100
100
100
100
100
100
390.228
370.75
351.467
332.502
313.975
295.997
278.667
262.073
246.29
231.376
217.379
204.329
192.243
181.123
170.961
161.735
153.414
145.96
139.326
133.461
128.31
123.817
119.922
116.568
113.699
111.262
109.204
107.479
106.041
104.851
103.873
103.073
102.424
101.901
101.482
101.148
100.885
100.677
100.515
100.39
100.293
100.219
100.163
100.12
100.088
100.064
100.047
100.034
100.024
100.017
100.012
100.009
100.006
100.004
100.003
100.002
100.001
100.001
100.001
100
100
100
100
100
100
100
100
100
100
100
100
100
100
100
100
390.229
370.751
351.467
332.503
313.977
295.999
278.669
262.075
246.292
231.378
217.381
204.331
192.245
181.125
170.963
161.737
153.416
145.962
139.328
133.463
128.312
123.818
119.923
116.569
113.7
111.263
109.205
107.479
106.041
104.851
103.873
103.073
102.424
101.901
101.482
101.148
100.885
100.677
100.515
100.39
100.293
100.219
100.163
100.12
100.088
100.064
100.047
100.034
100.024
100.017
100.012
100.009
100.006
100.004
100.003
100.002
100.001
100.001
100.001
100
100
100
100
100
100
100
100
100
100
100
100
100
100
100
100
390.229
370.751
351.468
332.504
313.978
296
278.67
262.077
246.293
231.38
217.383
204.333
192.246
181.127
170.964
161.738
153.417
145.963
139.329
133.464
128.313
123.819
119.923
116.57
113.701
111.263
109.205
107.48
106.042
104.852
103.873
103.074
102.425
101.901
101.482
101.149
100.885
100.677
100.516
100.39
100.293
100.219
100.163
100.12
100.088
100.064
100.047
100.034
100.024
100.017
100.012
100.009
100.006
100.004
100.003
100.002
100.001
100.001
100.001
100
100
100
100
100
100
100
100
100
100
100
100
100
100
100
100
390.229
370.751
351.468
332.504
313.978
296.001
278.671
262.078
246.294
231.381
217.384
204.334
192.248
181.128
170.965
161.739
153.418
145.964
139.33
133.465
128.313
123.819
119.924
116.57
113.701
111.264
109.206
107.48
106.042
104.852
103.873
103.074
102.425
101.901
101.482
101.149
100.885
100.677
100.516
100.39
100.293
100.219
100.163
100.12
100.088
100.064
100.047
100.034
100.024
100.017
100.012
100.009
100.006
100.004
100.003
100.002
100.001
100.001
100.001
100
100
100
100
100
100
100
100
100
100
100
100
100
100
100
100
390.229
370.752
351.469
332.505
313.979
296.001
278.672
262.078
246.295
231.382
217.385
204.335
192.248
181.129
170.966
161.74
153.419
145.965
139.33
133.465
128.314
123.82
119.924
116.57
113.702
111.264
109.206
107.48
106.042
104.852
103.873
103.074
102.425
101.901
101.482
101.149
100.885
100.677
100.516
100.39
100.293
100.219
100.163
100.12
100.088
100.064
100.047
100.034
100.024
100.017
100.012
100.009
100.006
100.004
100.003
100.002
100.001
100.001
100.001
100
100
100
100
100
100
100
100
100
100
100
100
100
100
100
100
390.229
370.752
351.469
332.505
313.979
296.002
278.672
262.079
246.296
231.383
217.385
204.335
192.249
181.129
170.967
161.74
153.42
145.965
139.331
133.465
128.314
123.82
119.925
116.571
113.702
111.264
109.206
107.48
106.042
104.852
103.873
103.074
102.425
101.902
101.482
101.149
100.885
100.677
100.516
100.39
100.293
100.219
100.163
100.12
100.088
100.064
100.047
100.034
100.024
100.017
100.012
100.009
100.006
100.004
100.003
100.002
100.001
100.001
100.001
100
100
100
100
100
100
100
100
100
100
100
100
100
100
100
100
390.229
370.752
351.469
332.505
313.98
296.002
278.673
262.079
246.296
231.383
217.386
204.336
192.249
181.13
170.967
161.741
153.42
145.965
139.331
133.466
128.314
123.82
119.925
116.571
113.702
111.264
109.206
107.48
106.042
104.852
103.873
103.074
102.425
101.902
101.482
101.149
100.885
100.677
100.516
100.39
100.293
100.219
100.163
100.12
100.088
100.064
100.047
100.034
100.024
100.017
100.012
100.009
100.006
100.004
100.003
100.002
100.001
100.001
100.001
100
100
100
100
100
100
100
100
100
100
100
100
100
100
100
100
390.229
370.752
351.469
332.505
313.98
296.002
278.673
262.08
246.296
231.383
217.386
204.336
192.25
181.13
170.967
161.741
153.42
145.966
139.331
133.466
128.315
123.82
119.925
116.571
113.702
111.264
109.206
107.48
106.042
104.852
103.873
103.074
102.425
101.902
101.482
101.149
100.885
100.677
100.516
100.39
100.293
100.219
100.163
100.12
100.088
100.064
100.047
100.034
100.024
100.017
100.012
100.009
100.006
100.004
100.003
100.002
100.001
100.001
100.001
100
100
100
100
100
100
100
100
100
100
100
100
100
100
100
100
390.229
370.752
351.469
332.505
313.98
296.002
278.673
262.08
246.296
231.383
217.386
204.336
192.25
181.13
170.967
161.741
153.42
145.966
139.331
133.466
128.315
123.82
119.925
116.571
113.702
111.264
109.206
107.48
106.042
104.852
103.873
103.074
102.425
101.902
101.482
101.149
100.885
100.677
100.516
100.39
100.293
100.219
100.163
100.12
100.088
100.064
100.047
100.034
100.024
100.017
100.012
100.009
100.006
100.004
100.003
100.002
100.001
100.001
100.001
100
100
100
100
100
100
100
100
100
100
100
100
100
100
100
100
390.229
370.752
351.469
332.506
313.98
296.003
278.673
262.08
246.296
231.384
217.387
204.336
192.25
181.13
170.968
161.741
153.42
145.966
139.332
133.466
128.315
123.82
119.925
116.571
113.702
111.264
109.206
107.48
106.042
104.852
103.874
103.074
102.425
101.902
101.482
101.149
100.885
100.677
100.516
100.39
100.293
100.219
100.163
100.12
100.088
100.064
100.047
100.034
100.024
100.017
100.012
100.009
100.006
100.004
100.003
100.002
100.001
100.001
100.001
100
100
100
100
100
100
100
100
100
100
100
100
100
100
100
100
390.229
370.752
351.469
332.506
313.98
296.003
278.673
262.08
246.297
231.384
217.387
204.337
192.25
181.13
170.968
161.741
153.421
145.966
139.332
133.466
128.315
123.821
119.925
116.571
113.702
111.264
109.206
107.48
106.042
104.852
103.874
103.074
102.425
101.902
101.482
101.149
100.885
100.677
100.516
100.39
100.293
100.219
100.163
100.12
100.088
100.064
100.047
100.034
100.024
100.017
100.012
100.009
100.006
100.004
100.003
100.002
100.001
100.001
100.001
100
100
100
100
100
100
100
100
100
100
100
100
100
100
100
100
390.229
370.752
351.469
332.506
313.98
296.003
278.673
262.08
246.297
231.384
217.387
204.337
192.25
181.13
170.968
161.741
153.421
145.966
139.332
133.466
128.315
123.821
119.925
116.571
113.702
111.264
109.206
107.48
106.043
104.852
103.874
103.074
102.425
101.902
101.482
101.149
100.885
100.677
100.516
100.39
100.293
100.219
100.163
100.12
100.088
100.064
100.047
100.034
100.024
100.017
100.012
100.009
100.006
100.004
100.003
100.002
100.001
100.001
100.001
100
100
100
100
100
100
100
100
100
100
100
100
100
100
100
100
390.229
370.752
351.469
332.506
313.98
296.003
278.673
262.08
246.297
231.384
217.387
204.337
192.25
181.13
170.968
161.741
153.421
145.966
139.332
133.466
128.315
123.821
119.925
116.571
113.702
111.264
109.206
107.48
106.043
104.852
103.874
103.074
102.425
101.902
101.482
101.149
100.885
100.677
100.516
100.39
100.293
100.219
100.163
100.12
100.088
100.064
100.047
100.034
100.024
100.017
100.012
100.009
100.006
100.004
100.003
100.002
100.001
100.001
100.001
100
100
100
100
100
100
100
100
100
100
100
100
100
100
100
100
390.229
370.752
351.469
332.506
313.98
296.003
278.673
262.08
246.297
231.384
217.387
204.337
192.25
181.13
170.968
161.741
153.421
145.966
139.332
133.466
128.315
123.821
119.925
116.571
113.702
111.264
109.206
107.48
106.043
104.852
103.874
103.074
102.425
101.902
101.482
101.149
100.885
100.677
100.516
100.39
100.293
100.219
100.163
100.12
100.088
100.064
100.047
100.034
100.024
100.017
100.012
100.009
100.006
100.004
100.003
100.002
100.001
100.001
100.001
100
100
100
100
100
100
100
100
100
100
100
100
100
100
100
100
390.229
370.752
351.469
332.506
313.98
296.003
278.673
262.08
246.297
231.384
217.387
204.337
192.25
181.13
170.968
161.742
153.421
145.966
139.332
133.466
128.315
123.821
119.925
116.571
113.702
111.264
109.206
107.481
106.043
104.852
103.874
103.074
102.425
101.902
101.482
101.149
100.885
100.677
100.516
100.39
100.293