/*--------------------------------*- C++ -*----------------------------------*\
  =========                 |
  \\      /  F ield         | OpenFOAM: The Open Source CFD Toolbox
   \\    /   O peration     | Website:  https://openfoam.org
    \\  /    A nd           | Version:  10
     \\/     M anipulation  |
\*---------------------------------------------------------------------------*/
FoamFile
{
    format      ascii;
    class       volScalarField;
    location    "240";
    object      T;
}
// * * * * * * * * * * * * * * * * * * * * * * * * * * * * * * * * * * * * * //

dimensions      [0 0 0 1 0 0 0];

internalField   nonuniform List<scalar> 
11250
(
249.778
167.366
139.048
126.519
119.641
115.253
112.17
109.867
108.074
106.641
105.474
104.512
103.713
103.047
102.492
102.029
101.643
101.324
101.061
100.844
100.668
100.525
100.409
100.317
100.244
100.186
100.141
100.106
100.079
100.059
100.043
100.031
100.023
100.016
100.012
100.008
100.006
100.004
100.003
100.002
100.001
100.001
100.001
100
100
100
100
100
100
100
100
100
100
100
100
100
100
100
100
100
100
100
100
100
100
100
100
100
100
100
100
100
100
100
100
331.308
248.018
201.375
173.932
156.466
144.492
135.775
129.137
123.914
119.708
116.267
113.422
111.055
109.079
107.428
106.05
104.903
103.951
103.166
102.52
101.994
101.566
101.222
100.947
100.728
100.556
100.421
100.317
100.237
100.175
100.129
100.094
100.068
100.049
100.035
100.025
100.017
100.012
100.008
100.006
100.004
100.003
100.002
100.001
100.001
100
100
100
100
100
100
100
100
100
100
100
100
100
100
100
100
100
100
100
100
100
100
100
100
100
100
100
100
100
100
358.756
292.059
244.562
211.449
187.901
170.592
157.433
147.134
138.886
132.164
126.62
122.009
118.155
114.928
112.225
109.965
108.081
106.516
105.223
104.16
103.292
102.587
102.019
101.565
101.204
100.919
100.697
100.524
100.391
100.29
100.213
100.155
100.112
100.081
100.057
100.041
100.028
100.02
100.014
100.009
100.006
100.004
100.003
100.002
100.001
100.001
100.001
100
100
100
100
100
100
100
100
100
100
100
100
100
100
100
100
100
100
100
100
100
100
100
100
100
100
100
100
370.436
316.959
273.463
239.535
213.265
192.737
176.449
163.317
152.578
143.698
136.295
130.091
124.876
120.489
116.802
113.712
111.129
108.981
107.204
105.741
104.545
103.573
102.79
102.163
101.664
101.271
100.964
100.725
100.541
100.401
100.295
100.215
100.156
100.112
100.08
100.056
100.039
100.027
100.019
100.013
100.009
100.006
100.004
100.003
100.002
100.001
100.001
100
100
100
100
100
100
100
100
100
100
100
100
100
100
100
100
100
100
100
100
100
100
100
100
100
100
100
100
376.491
331.964
292.935
260.151
233.117
210.912
192.612
177.432
164.756
154.108
145.128
137.534
131.109
125.676
121.092
117.236
114.007
111.314
109.082
107.243
105.738
104.514
103.526
102.734
102.105
101.608
101.22
100.918
100.685
100.508
100.373
100.272
100.197
100.141
100.101
100.071
100.05
100.035
100.024
100.016
100.011
100.007
100.005
100.003
100.002
100.001
100.001
100.001
100
100
100
100
100
100
100
100
100
100
100
100
100
100
100
100
100
100
100
100
100
100
100
100
100
100
100
380.09
341.578
306.335
275.256
248.434
225.527
206.037
189.459
175.341
163.3
153.025
144.257
136.784
130.431
125.045
120.499
116.68
113.489
110.839
108.651
106.858
105.399
104.219
103.274
102.521
101.927
101.462
101.1
100.822
100.609
100.448
100.327
100.237
100.17
100.121
100.086
100.06
100.042
100.029
100.02
100.013
100.009
100.006
100.004
100.003
100.002
100.001
100.001
100
100
100
100
100
100
100
100
100
100
100
100
100
100
100
100
100
100
100
100
100
100
100
100
100
100
100
382.422
348.053
315.779
286.392
260.19
237.137
217.014
199.527
184.373
171.268
159.958
150.221
141.864
134.716
128.631
123.474
119.128
115.488
112.458
109.953
107.896
106.22
104.864
103.776
102.91
102.225
101.688
101.271
100.95
100.704
100.518
100.378
100.274
100.197
100.14
100.099
100.069
100.048
100.033
100.023
100.015
100.01
100.007
100.005
100.003
100.002
100.001
100.001
100.001
100
100
100
100
100
100
100
100
100
100
100
100
100
100
100
100
100
100
100
100
100
100
100
100
100
100
384.02
352.58
322.582
294.674
269.21
246.298
225.89
207.841
191.966
178.067
165.95
155.43
146.339
138.522
131.834
126.146
121.338
117.3
113.931
111.141
108.846
106.974
105.457
104.239
103.268
102.5
101.898
101.43
101.069
100.793
100.583
100.426
100.308
100.221
100.158
100.112
100.078
100.054
100.038
100.026
100.017
100.012
100.008
100.005
100.003
100.002
100.001
100.001
100.001
100
100
100
100
100
100
100
100
100
100
100
100
100
100
100
100
100
100
100
100
100
100
100
100
100
100
385.154
355.835
327.57
300.89
276.141
253.5
233.013
214.637
198.273
183.794
171.057
159.916
150.228
141.853
134.657
128.515
123.306
118.92
115.253
112.21
109.704
107.656
105.995
104.66
103.594
102.751
102.09
101.575
101.178
100.874
100.643
100.469
100.34
100.244
100.174
100.123
100.086
100.06
100.041
100.028
100.019
100.013
100.009
100.006
100.004
100.002
100.002
100.001
100.001
100
100
100
100
100
100
100
100
100
100
100
100
100
100
100
100
100
100
100
100
100
100
100
100
100
100
385.979
358.221
331.278
305.59
281.479
259.149
238.698
220.147
203.46
188.564
175.358
163.732
153.564
144.732
137.113
130.587
125.036
120.351
116.425
113.162
110.47
108.266
106.478
105.038
103.888
102.978
102.263
101.706
101.276
100.947
100.697
100.509
100.369
100.265
100.189
100.134
100.094
100.065
100.045
100.031
100.021
100.014
100.009
100.006
100.004
100.003
100.002
100.001
100.001
100
100
100
100
100
100
100
100
100
100
100
100
100
100
100
100
100
100
100
100
100
100
100
100
100
100
386.59
359.997
334.064
309.167
285.6
263.573
243.214
224.584
207.69
192.498
178.942
166.94
156.392
147.19
139.223
132.377
126.539
121.599
117.452
113.998
111.144
108.806
106.906
105.374
104.15
103.18
102.417
101.823
101.364
101.013
100.746
100.545
100.395
100.284
100.202
100.143
100.1
100.07
100.048
100.033
100.022
100.015
100.01
100.007
100.004
100.003
100.002
100.001
100.001
100
100
100
100
100
100
100
100
100
100
100
100
100
100
100
100
100
100
100
100
100
100
100
100
100
100
387.047
361.331
336.173
311.901
288.785
267.033
246.789
228.137
211.114
195.715
181.901
169.61
158.763
149.266
141.016
133.907
127.829
122.676
118.341
114.725
111.733
109.278
107.281
105.669
104.38
103.358
102.554
101.927
101.443
101.071
100.789
100.577
100.418
100.301
100.214
100.152
100.106
100.074
100.051
100.035
100.024
100.016
100.011
100.007
100.005
100.003
100.002
100.001
100.001
100.001
100
100
100
100
100
100
100
100
100
100
100
100
100
100
100
100
100
100
100
100
100
100
100
100
100
387.392
362.341
337.778
313.996
291.248
269.735
249.608
230.967
213.868
198.325
184.321
171.812
160.733
151.001
142.523
135.199
128.925
123.594
119.102
115.349
112.24
109.686
107.606
105.926
104.581
103.513
102.673
102.018
101.511
101.123
100.827
100.605
100.438
100.315
100.225
100.159
100.112
100.078
100.054
100.037
100.025
100.017
100.011
100.007
100.005
100.003
100.002
100.001
100.001
100.001
100
100
100
100
100
100
100
100
100
100
100
100
100
100
100
100
100
100
100
100
100
100
100
100
100
387.653
363.108
339.003
315.606
293.153
271.842
251.824
233.21
216.068
200.427
186.285
173.611
162.352
152.436
143.777
136.28
129.845
124.368
119.746
115.879
112.672
110.034
107.884
106.146
104.754
103.648
102.777
102.097
101.571
101.167
100.86
100.629
100.456
100.328
100.234
100.166
100.116
100.081
100.056
100.038
100.026
100.018
100.012
100.008
100.005
100.003
100.002
100.001
100.001
100.001
100
100
100
100
100
100
100
100
100
100
100
100
100
100
100
100
100
100
100
100
100
100
100
100
100
387.852
363.693
339.939
316.842
294.625
273.48
253.56
234.979
217.815
202.108
187.867
175.07
163.673
153.613
144.811
137.176
130.611
125.015
120.286
116.326
113.037
110.329
108.12
106.334
104.901
103.762
102.865
102.164
101.622
101.206
100.889
100.65
100.472
100.339
100.242
100.171
100.12
100.084
100.058
100.04
100.027
100.018
100.012
100.008
100.005
100.003
100.002
100.001
100.001
100.001
100
100
100
100
100
100
100
100
100
100
100
100
100
100
100
100
100
100
100
100
100
100
100
100
100
388.003
364.139
340.655
317.79
295.76
274.75
254.913
236.368
219.196
203.445
189.131
176.242
164.74
154.569
145.654
137.91
131.241
125.549
120.734
116.697
113.341
110.576
108.319
106.491
105.025
103.859
102.94
102.222
101.665
101.238
100.913
100.668
100.485
100.349
100.249
100.176
100.124
100.086
100.06
100.041
100.028
100.019
100.013
100.008
100.005
100.004
100.002
100.001
100.001
100.001
100
100
100
100
100
100
100
100
100
100
100
100
100
100
100
100
100
100
100
100
100
100
100
100
100
388.119
364.478
341.202
318.517
296.633
275.732
255.965
237.452
220.28
204.5
190.134
177.177
165.596
155.339
146.337
138.506
131.755
125.987
121.103
117.003
113.593
110.781
108.484
106.623
105.129
103.94
103.002
102.27
101.702
101.266
100.934
100.683
100.496
100.357
100.255
100.18
100.127
100.088
100.061
100.042
100.028
100.019
100.013
100.008
100.006
100.004
100.002
100.002
100.001
100.001
100
100
100
100
100
100
100
100
100
100
100
100
100
100
100
100
100
100
100
100
100
100
100
100
100
388.206
364.737
341.619
319.073
297.303
276.488
256.778
238.295
221.126
205.327
190.925
177.918
166.277
155.955
146.885
138.986
132.171
126.342
121.402
117.253
113.799
110.949
108.619
106.731
105.214
104.007
103.054
102.31
101.732
101.289
100.951
100.696
100.505
100.364
100.26
100.184
100.129
100.09
100.062
100.043
100.029
100.02
100.013
100.009
100.006
100.004
100.002
100.002
100.001
100.001
100
100
100
100
100
100
100
100
100
100
100
100
100
100
100
100
100
100
100
100
100
100
100
100
100
388.273
364.933
341.936
319.497
297.815
277.068
257.404
238.946
221.782
205.972
191.544
178.5
166.814
156.442
147.32
139.37
132.504
126.627
121.644
117.455
113.966
111.086
108.73
106.819
105.284
104.062
103.097
102.342
101.757
101.308
100.965
100.706
100.513
100.369
100.264
100.187
100.131
100.091
100.063
100.043
100.029
100.02
100.013
100.009
100.006
100.004
100.002
100.002
100.001
100.001
100
100
100
100
100
100
100
100
100
100
100
100
100
100
100
100
100
100
100
100
100
100
100
100
100
388.323
365.082
342.177
319.819
298.205
277.511
257.884
239.446
222.289
206.471
192.025
178.954
167.235
156.826
147.664
139.673
132.768
126.855
121.837
117.617
114.1
111.196
108.819
106.891
105.341
104.107
103.132
102.369
101.778
101.323
100.977
100.715
100.519
100.374
100.267
100.189
100.133
100.093
100.064
100.044
100.03
100.02
100.013
100.009
100.006
100.004
100.002
100.002
100.001
100.001
100
100
100
100
100
100
100
100
100
100
100
100
100
100
100
100
100
100
100
100
100
100
100
100
100
388.361
365.194
342.358
320.062
298.501
277.847
258.249
239.829
222.677
206.856
192.397
179.306
167.562
157.124
147.932
139.911
132.976
127.034
121.989
117.745
114.207
111.284
108.89
106.948
105.387
104.143
103.16
102.391
101.794
101.335
100.986
100.722
100.524
100.378
100.27
100.191
100.134
100.094
100.065
100.044
100.03
100.02
100.014
100.009
100.006
100.004
100.003
100.002
100.001
100.001
100
100
100
100
100
100
100
100
100
100
100
100
100
100
100
100
100
100
100
100
100
100
100
100
100
388.389
365.279
342.495
320.246
298.724
278.101
258.526
240.12
222.973
207.149
192.681
179.576
167.814
157.356
148.141
140.097
133.138
127.174
122.109
117.846
114.291
111.353
108.947
106.994
105.423
104.171
103.182
102.408
101.807
101.345
100.993
100.728
100.528
100.381
100.272
100.193
100.135
100.094
100.065
100.045
100.03
100.021
100.014
100.009
100.006
100.004
100.003
100.002
100.001
100.001
100
100
100
100
100
100
100
100
100
100
100
100
100
100
100
100
100
100
100
100
100
100
100
100
100
388.411
365.342
342.597
320.383
298.891
278.293
258.735
240.339
223.197
207.372
192.898
179.783
168.007
157.533
148.301
140.24
133.264
127.283
122.202
117.925
114.357
111.407
108.991
107.03
105.452
104.194
103.2
102.422
101.818
101.353
100.999
100.732
100.532
100.383
100.274
100.194
100.136
100.095
100.066
100.045
100.031
100.021
100.014
100.009
100.006
100.004
100.003
100.002
100.001
100.001
100
100
100
100
100
100
100
100
100
100
100
100
100
100
100
100
100
100
100
100
100
100
100
100
100
388.427
365.388
342.673
320.486
299.016
278.436
258.892
240.504
223.366
207.54
193.062
179.939
168.154
157.668
148.424
140.349
133.361
127.367
122.274
117.986
114.408
111.449
109.025
107.057
105.474
104.211
103.214
102.432
101.826
101.36
101.004
100.736
100.534
100.385
100.275
100.195
100.137
100.096
100.066
100.045
100.031
100.021
100.014
100.009
100.006
100.004
100.003
100.002
100.001
100.001
100
100
100
100
100
100
100
100
100
100
100
100
100
100
100
100
100
100
100
100
100
100
100
100
100
388.438
365.423
342.729
320.561
299.109
278.542
259.008
240.627
223.492
207.666
193.185
180.057
168.265
157.771
148.517
140.433
133.434
127.431
122.329
118.032
114.447
111.482
109.052
107.079
105.491
104.225
103.224
102.441
101.833
101.365
101.008
100.738
100.536
100.386
100.276
100.196
100.138
100.096
100.066
100.045
100.031
100.021
100.014
100.009
100.006
100.004
100.003
100.002
100.001
100.001
100
100
100
100
100
100
100
100
100
100
100
100
100
100
100
100
100
100
100
100
100
100
100
100
100
388.447
365.449
342.771
320.617
299.177
278.621
259.094
240.718
223.586
207.76
193.277
180.145
168.348
157.847
148.587
140.495
133.49
127.48
122.371
118.068
114.477
111.506
109.072
107.095
105.504
104.236
103.233
102.447
101.837
101.368
101.011
100.74
100.538
100.388
100.277
100.196
100.138
100.096
100.067
100.046
100.031
100.021
100.014
100.009
100.006
100.004
100.003
100.002
100.001
100.001
100
100
100
100
100
100
100
100
100
100
100
100
100
100
100
100
100
100
100
100
100
100
100
100
100
388.453
365.467
342.801
320.658
299.228
278.678
259.158
240.786
223.655
207.829
193.345
180.21
168.409
157.904
148.639
140.542
133.531
127.516
122.402
118.095
114.499
111.525
109.088
107.108
105.514
104.244
103.239
102.452
101.841
101.371
101.013
100.742
100.539
100.389
100.278
100.197
100.138
100.096
100.067
100.046
100.031
100.021
100.014
100.009
100.006
100.004
100.003
100.002
100.001
100.001
100
100
100
100
100
100
100
100
100
100
100
100
100
100
100
100
100
100
100
100
100
100
100
100
100
388.458
365.481
342.824
320.688
299.264
278.721
259.204
240.835
223.705
207.88
193.395
180.258
168.455
157.947
148.678
140.577
133.562
127.543
122.426
118.115
114.516
111.539
109.099
107.117
105.522
104.25
103.244
102.456
101.844
101.373
101.015
100.743
100.54
100.389
100.278
100.197
100.139
100.097
100.067
100.046
100.031
100.021
100.014
100.009
100.006
100.004
100.003
100.002
100.001
100.001
100
100
100
100
100
100
100
100
100
100
100
100
100
100
100
100
100
100
100
100
100
100
100
100
100
388.461
365.491
342.84
320.71
299.291
278.751
259.237
240.87
223.742
207.917
193.431
180.293
168.488
157.978
148.706
140.602
133.585
127.563
122.443
118.129
114.528
111.549
109.108
107.124
105.528
104.254
103.247
102.459
101.846
101.375
101.016
100.744
100.541
100.39
100.279
100.197
100.139
100.097
100.067
100.046
100.031
100.021
100.014
100.009
100.006
100.004
100.003
100.002
100.001
100.001
100
100
100
100
100
100
100
100
100
100
100
100
100
100
100
100
100
100
100
100
100
100
100
100
100
388.464
365.498
342.851
320.726
299.31
278.773
259.262
240.896
223.769
207.944
193.458
180.319
168.512
158
148.727
140.621
133.601
127.577
122.455
118.14
114.537
111.557
109.114
107.129
105.532
104.257
103.25
102.461
101.848
101.376
101.017
100.745
100.541
100.39
100.279
100.198
100.139
100.097
100.067
100.046
100.031
100.021
100.014
100.009
100.006
100.004
100.003
100.002
100.001
100.001
100
100
100
100
100
100
100
100
100
100
100
100
100
100
100
100
100
100
100
100
100
100
100
100
100
388.465
365.503
342.859
320.737
299.323
278.789
259.279
240.914
223.788
207.963
193.477
180.337
168.53
158.016
148.742
140.635
133.613
127.588
122.465
118.148
114.544
111.563
109.119
107.133
105.535
104.26
103.252
102.462
101.849
101.377
101.017
100.745
100.542
100.39
100.279
100.198
100.139
100.097
100.067
100.046
100.031
100.021
100.014
100.009
100.006
100.004
100.003
100.002
100.001
100.001
100
100
100
100
100
100
100
100
100
100
100
100
100
100
100
100
100
100
100
100
100
100
100
100
100
388.466
365.507
342.865
320.744
299.333
278.8
259.291
240.928
223.801
207.977
193.49
180.35
168.542
158.028
148.752
140.644
133.622
127.596
122.471
118.154
114.549
111.567
109.122
107.136
105.537
104.262
103.253
102.463
101.85
101.378
101.018
100.746
100.542
100.391
100.279
100.198
100.139
100.097
100.067
100.046
100.031
100.021
100.014
100.009
100.006
100.004
100.003
100.002
100.001
100.001
100
100
100
100
100
100
100
100
100
100
100
100
100
100
100
100
100
100
100
100
100
100
100
100
100
388.467
365.509
342.869
320.75
299.34
278.808
259.3
240.937
223.811
207.987
193.5
180.36
168.551
158.036
148.76
140.651
133.628
127.601
122.476
118.158
114.552
111.57
109.124
107.138
105.539
104.263
103.254
102.464
101.85
101.378
101.018
100.746
100.542
100.391
100.279
100.198
100.139
100.097
100.067
100.046
100.031
100.021
100.014
100.009
100.006
100.004
100.003
100.002
100.001
100.001
100
100
100
100
100
100
100
100
100
100
100
100
100
100
100
100
100
100
100
100
100
100
100
100
100
388.468
365.511
342.872
320.754
299.345
278.813
259.306
240.943
223.818
207.993
193.507
180.366
168.557
158.042
148.765
140.656
133.633
127.605
122.479
118.161
114.555
111.572
109.126
107.139
105.54
104.264
103.255
102.465
101.851
101.379
101.018
100.746
100.542
100.391
100.279
100.198
100.139
100.097
100.067
100.046
100.031
100.021
100.014
100.009
100.006
100.004
100.003
100.002
100.001
100.001
100
100
100
100
100
100
100
100
100
100
100
100
100
100
100
100
100
100
100
100
100
100
100
100
100
388.468
365.512
342.874
320.757
299.348
278.817
259.31
240.948
223.822
207.998
193.511
180.371
168.562
158.046
148.769
140.66
133.636
127.608
122.482
118.163
114.557
111.573
109.127
107.14
105.541
104.265
103.256
102.465
101.851
101.379
101.019
100.746
100.542
100.391
100.279
100.198
100.139
100.097
100.067
100.046
100.031
100.021
100.014
100.009
100.006
100.004
100.003
100.002
100.001
100.001
100
100
100
100
100
100
100
100
100
100
100
100
100
100
100
100
100
100
100
100
100
100
100
100
100
388.469
365.513
342.875
320.758
299.35
278.82
259.313
240.951
223.826
208.002
193.515
180.374
168.565
158.049
148.772
140.662
133.638
127.61
122.484
118.164
114.558
111.574
109.128
107.141
105.541
104.265
103.256
102.465
101.851
101.379
101.019
100.746
100.542
100.391
100.279
100.198
100.139
100.097
100.067
100.046
100.031
100.021
100.014
100.009
100.006
100.004
100.003
100.002
100.001
100.001
100
100
100
100
100
100
100
100
100
100
100
100
100
100
100
100
100
100
100
100
100
100
100
100
100
388.469
365.513
342.876
320.76
299.352
278.822
259.315
240.953
223.828
208.004
193.517
180.376
168.567
158.051
148.774
140.664
133.639
127.611
122.485
118.165
114.559
111.575
109.129
107.142
105.542
104.265
103.256
102.466
101.852
101.379
101.019
100.747
100.542
100.391
100.279
100.198
100.139
100.097
100.067
100.046
100.031
100.021
100.014
100.009
100.006
100.004
100.003
100.002
100.001
100.001
100
100
100
100
100
100
100
100
100
100
100
100
100
100
100
100
100
100
100
100
100
100
100
100
100
388.469
365.514
342.877
320.761
299.353
278.823
259.317
240.955
223.829
208.005
193.518
180.378
168.568
158.052
148.775
140.665
133.64
127.612
122.485
118.166
114.559
111.575
109.129
107.142
105.542
104.266
103.256
102.466
101.852
101.379
101.019
100.747
100.543
100.391
100.279
100.198
100.139
100.097
100.067
100.046
100.031
100.021
100.014
100.009
100.006
100.004
100.003
100.002
100.001
100.001
100
100
100
100
100
100
100
100
100
100
100
100
100
100
100
100
100
100
100
100
100
100
100
100
100
388.469
365.514
342.877
320.761
299.354
278.824
259.318
240.956
223.831
208.006
193.519
180.379
168.569
158.053
148.776
140.666
133.641
127.613
122.486
118.166
114.56
111.576
109.129
107.142
105.542
104.266
103.256
102.466
101.852
101.379
101.019
100.747
100.543
100.391
100.28
100.198
100.139
100.097
100.067
100.046
100.031
100.021
100.014
100.009
100.006
100.004
100.003
100.002
100.001
100.001
100
100
100
100
100
100
100
100
100
100
100
100
100
100
100
100
100
100
100
100
100
100
100
100
100
388.469
365.514
342.878
320.762
299.354
278.824
259.318
240.956
223.831
208.007
193.52
180.379
168.57
158.054
148.776
140.666
133.642
127.613
122.486
118.167
114.56
111.576
109.13
107.142
105.542
104.266
103.257
102.466
101.852
101.379
101.019
100.747
100.543
100.391
100.28
100.198
100.139
100.097
100.067
100.046
100.031
100.021
100.014
100.009
100.006
100.004
100.003
100.002
100.001
100.001
100
100
100
100
100
100
100
100
100
100
100
100
100
100
100
100
100
100
100
100
100
100
100
100
100
388.469
365.514
342.878
320.762
299.354
278.825
259.319
240.957
223.832
208.008
193.52
180.38
168.57
158.054
148.777
140.666
133.642
127.613
122.487
118.167
114.56
111.576
109.13
107.142
105.542
104.266
103.257
102.466
101.852
101.379
101.019
100.747
100.543
100.391
100.28
100.198
100.139
100.097
100.067
100.046
100.031
100.021
100.014
100.009
100.006
100.004
100.003
100.002
100.001
100.001
100
100
100
100
100
100
100
100
100
100
100
100
100
100
100
100
100
100
100
100
100
100
100
100
100
388.469
365.514
342.878
320.762
299.355
278.825
259.319
240.957
223.832
208.008
193.521
180.38
168.57
158.055
148.777
140.667
133.642
127.613
122.487
118.167
114.56
111.576
109.13
107.142
105.542
104.266
103.257
102.466
101.852
101.379
101.019
100.747
100.543
100.391
100.28
100.198
100.139
100.097
100.067
100.046
100.031
100.021
100.014
100.009
100.006
100.004
100.003
100.002
100.001
100.001
100
100
100
100
100
100
100
100
100
100
100
100
100
100
100
100
100
100
100
100
100
100
100
100
100
388.469
365.515
342.878
320.762
299.355
278.825
259.319
240.957
223.832
208.008
193.521
180.38
168.571
158.055
148.777
140.667
133.642
127.613
122.487
118.167
114.56
111.576
109.13
107.142
105.542
104.266
103.257
102.466
101.852
101.379
101.019
100.747
100.543
100.391
100.28
100.198
100.139
100.097
100.067
100.046
100.031
100.021
100.014
100.009
100.006
100.004
100.003
100.002
100.001
100.001
100
100
100
100
100
100
100
100
100
100
100
100
100
100
100
100
100
100
100
100
100
100
100
100
100
388.469
365.515
342.878
320.762
299.355
278.825
259.319
240.957
223.832
208.008
193.521
180.38
168.571
158.055
148.777
140.667
133.642
127.614
122.487
118.167
114.56
111.576
109.13
107.142
105.542
104.266
103.257
102.466
101.852
101.379
101.019
100.747
100.543
100.391
100.28
100.198
100.139
100.097
100.067
100.046
100.031
100.021
100.014
100.009
100.006
100.004
100.003
100.002
100.001
100.001
100
100
100
100
100
100
100
100
100
100
100
100
100
100
100
100
100
100
100
100
100
100
100
100
100
388.469
365.515
342.878
320.762
299.355
278.825
259.319
240.957
223.832
208.008
193.521
180.38
168.571
158.055
148.777
140.667
133.642
127.614
122.487
118.167
114.56
111.576
109.13
107.143
105.542
104.266
103.257
102.466
101.852
101.379
101.019
100.747
100.543
100.391
100.28
100.198
100.139
100.097
100.067
100.046
100.031
100.021
100.014
100.009
100.006
100.004
100.003
100.002
100.001
100.001
100
100
100
100
100
100
100
100
100
100
100
100
100
100
100
100
100
100
100
100
100
100
100
100
100
388.469
365.515
342.878
320.762
299.355
278.825
259.319
240.957
223.832
208.008
193.521
180.381
168.571
158.055
148.777
140.667
133.642
127.614
122.487
118.167
114.56
111.576
109.13
107.143
105.542
104.266
103.257
102.466
101.852
101.379
101.019
100.747
100.543
100.391
100.28
100.198
100.139
100.097
100.067
100.046
100.031
100.021
100.014
100.009
100.006
100.004
100.003
100.002
100.001
100.001
100
100
100
100
100
100
100
100
100
100
100
100
100
100
100
100
100
100
100
100
100
100
100
100
100
388.469
365.515
342.878
320.762
299.355
278.825
259.319
240.958
223.832
208.008
193.521
180.381
168.571
158.055
148.777
140.667
133.642
127.614
122.487
118.167
114.56
111.576
109.13
107.143
105.542
104.266
103.257
102.466
101.852
101.379
101.019
100.747
100.543
100.391
100.28
100.198
100.139
100.097
100.067
100.046
100.031
100.021
100.014
100.009
100.006
100.004
100.003
100.002
100.001
100.001
100
100
100
100
100
100
100
100
100
100
100
100
100
100
100
100
100
100
100
100
100
100
100
100
100
388.469
365.515
342.878
320.762
299.355
278.825
259.319
240.958
223.832
208.008
193.521
180.381
168.571
158.055
148.777
140.667
133.642
127.614
122.487
118.167
114.56
111.576
109.13
107.143
105.542
104.266
103.257
102.466
101.852
101.379
101.019
100.747
100.543
100.391
100.28
100.198
100.139
100.097
100.067
100.046
100.031
100.021
100.014
100.009
100.006
100.004
100.003
100.002
100.001
100.001
100
100
100
100
100
100
100
100
100
100
100
100
100
100
100
100
100
100
100
100
100
100
100
100
100
388.469
365.515
342.878
320.762
299.355
278.825
259.319
240.958
223.832
208.008
193.521
180.381
168.571
158.055
148.777
140.667
133.642
127.614
122.487
118.167
114.56
111.576
109.13
107.143
105.542
104.266
103.257
102.466
101.852
101.379
101.019
100.747
100.543
100.391
100.28
100.198
100.139
100.097
100.067
100.046
100.031
100.021
100.014
100.009
100.006
100.004
100.003
100.002
100.001
100.001
100
100
100
100
100
100
100
100
100
100
100
100
100
100
100
100
100
100
100
100
100
100
100
100
100
388.469
365.515
342.878
320.762
299.355
278.825
259.319
240.958
223.833
208.008
193.521
180.381
168.571
158.055
148.777
140.667
133.642
127.614
122.487
118.167
114.56
111.576
109.13
107.143
105.542
104.266
103.257
102.466
101.852
101.379
101.019
100.747
100.543
100.391
100.28
100.198
100.139
100.097
100.067
100.046
100.031
100.021
100.014
100.009
100.006
100.004
100.003
100.002
100.001
100.001
100
100
100
100
100
100
100
100
100
100
100
100
100
100
100
100
100
100
100
100
100
100
100
100
100
388.469
365.515
342.878
320.762
299.355
278.825
259.319
240.958
223.833
208.008
193.521
180.381
168.571
158.055
148.777
140.667
133.642
127.614
122.487
118.167
114.56
111.576
109.13
107.143
105.542
104.266
103.257
102.466
101.852
101.379
101.019
100.747
100.543
100.391
100.28
100.198
100.139
100.097
100.067
100.046
100.031
100.021
100.014
100.009
100.006
100.004
100.003
100.002
100.001
100.001
100
100
100
100
100
100
100
100
100
100
100
100
100
100
100
100
100
100
100
100
100
100
100
100
100
388.469
365.515
342.878
320.762
299.355
278.825
259.319
240.958
223.833
208.008
193.521
180.381
168.571
158.055
148.777
140.667
133.642
127.614
122.487
118.167
114.56
111.576
109.13
107.143
105.542
104.266
103.257
102.466
101.852
101.379
101.019
100.747
100.543
100.391
100.28
100.198
100.139
100.097
100.067
100.046
100.031
100.021
100.014
100.009
100.006
100.004
100.003
100.002
100.001
100.001
100
100
100
100
100
100
100
100
100
100
100
100
100
100
100
100
100
100
100
100
100
100
100
100
100
388.469
365.515
342.878
320.762
299.355
278.825
259.319
240.958
223.833
208.008
193.521
180.381
168.571
158.055
148.777
140.667
133.642
127.614
122.487
118.167
114.56
111.576
109.13
107.143
105.542
104.266
103.257
102.466
101.852
101.379
101.019
100.747
100.543
100.391
100.28
100.198
100.139
100.097
100.067
100.046
100.031
100.021
100.014
100.009
100.006
100.004
100.003
100.002
100.001
100.001
100
100
100
100
100
100
100
100
100
100
100
100
100
100
100
100
100
100
100
100
100
100
100
100
100
388.469
365.515
342.878
320.762
299.355
278.825
259.319
240.958
223.833
208.008
193.521
180.381
168.571
158.055
148.777
140.667
133.642
127.614
122.487
118.167
114.56
111.576
109.13
107.143
105.542
104.266
103.257
102.466
101.852
101.379
101.019
100.747
100.543
100.391
100.28
100.198
100.139
100.097
100.067
100.046
100.031
100.021
100.014
100.009
100.006
100.004
100.003
100.002
100.001
100.001
100
100
100
100
100
100
100
100
100
100
100
100
100
100
100
100
100
100
100
100
100
100
100
100
100
388.469
365.515
342.878
320.762
299.355
278.825
259.319
240.958
223.833
208.008
193.521
180.381
168.571
158.055
148.777
140.667
133.642
127.614
122.487
118.167
114.56
111.576
109.13
107.143
105.542
104.266
103.257
102.466
101.852
101.379
101.019
100.747
100.543
100.391
100.28
100.198
100.139
100.097
100.067
100.046
100.031
100.021
100.014
100.009
100.006
100.004
100.003
100.002
100.001
100.001
100
100
100
100
100
100
100
100
100
100
100
100
100
100
100
100
100
100
100
100
100
100
100
100
100
388.469
365.515
342.878
320.762
299.355
278.825
259.319
240.958
223.833
208.008
193.521
180.381
168.571
158.055
148.777
140.667
133.642
127.614
122.487
118.167
114.56
111.576
109.13
107.143
105.542
104.266
103.257
102.466
101.852
101.379
101.019
100.747
100.543
100.391
100.28
100.198
100.139
100.097
100.067
100.046
100.031
100.021
100.014
100.009
100.006
100.004
100.003
100.002
100.001
100.001
100
100
100
100
100
100
100
100
100
100
100
100
100
100
100
100
100
100
100
100
100
100
100
100
100
388.469
365.515
342.878
320.762
299.355
278.825
259.319
240.958
223.833
208.008
193.521
180.381
168.571
158.055
148.777
140.667
133.642
127.614
122.487
118.167
114.56
111.576
109.13
107.143
105.542
104.266
103.257
102.466
101.852
101.379
101.019
100.747
100.543
100.391
100.28
100.198
100.139
100.097
100.067
100.046
100.031
100.021
100.014
100.009
100.006
100.004
100.003
100.002
100.001
100.001
100
100
100
100
100
100
100
100
100
100
100
100
100
100
100
100
100
100
100
100
100
100
100
100
100
388.469
365.515
342.878
320.762
299.355
278.825
259.319
240.958
223.833
208.008
193.521
180.381
168.571
158.055
148.777
140.667
133.642
127.614
122.487
118.167
114.56
111.576
109.13
107.143
105.542
104.266
103.257
102.466
101.852
101.379
101.019
100.747
100.543
100.391
100.28
100.198
100.139
100.097
100.067
100.046
100.031
100.021
100.014
100.009
100.006
100.004
100.003
100.002
100.001
100.001
100
100
100
100
100
100
100
100
100
100
100
100
100
100
100
100
100
100
100
100
100
100
100
100
100
388.469
365.515
342.878
320.762
299.355
278.825
259.319
240.958
223.833
208.008
193.521
180.381
168.571
158.055
148.777
140.667
133.642
127.614
122.487
118.167
114.56
111.576
109.13
107.143
105.542
104.266
103.257
102.466
101.852
101.379
101.019
100.747
100.543
100.391
100.28
100.198
100.139
100.097
100.067
100.046
100.031
100.021
100.014
100.009
100.006
100.004
100.003
100.002
100.001
100.001
100
100
100
100
100
100
100
100
100
100
100
100
100
100
100
100
100
100
100
100
100
100
100
100
100
388.469
365.515
342.878
320.762
299.355
278.825
259.319
240.958
223.833
208.008
193.521
180.381
168.571
158.055
148.777
140.667
133.642
127.614
122.487
118.167
114.56
111.576