/*--------------------------------*- C++ -*----------------------------------*\
  =========                 |
  \\      /  F ield         | OpenFOAM: The Open Source CFD Toolbox
   \\    /   O peration     | Website:  https://openfoam.org
    \\  /    A nd           | Version:  10
     \\/     M anipulation  |
\*---------------------------------------------------------------------------*/
FoamFile
{
    format      ascii;
    class       volScalarField;
    location    "32";
    object      gradTz;
}
// * * * * * * * * * * * * * * * * * * * * * * * * * * * * * * * * * * * * * //

dimensions      [0 -1 0 1 0 0 0];

internalField   nonuniform List<scalar> 
11250
(
-14570.8
-4341.19
-1676.5
-818.721
-460.056
-272.569
-161.586
-93.3222
-51.8259
-27.5028
-13.9085
-6.69669
-3.07025
-1.34129
-0.558907
-0.222396
-0.0846072
-0.0308101
-0.0107516
-0.00359911
-0.00115684
-0.000357332
-0.000106152
-3.03494e-05
-8.35643e-06
-2.21724e-06
-5.67274e-07
-1.40035e-07
-3.33731e-08
-7.68442e-09
-1.7046e-09
-3.72092e-10
-7.4638e-11
0
0
0
0
0
0
0
4.39047e-12
0
-3.29285e-12
0
-1.09762e-12
0
0
2.19524e-12
0
-1.09762e-12
0
1.31714e-11
0
-1.4269e-11
0
0
0
0
0
0
0
0
-2.08547e-11
-1.09762e-12
2.19523e-11
1.09762e-12
-1.09762e-12
0
1.09762e-12
-1.09762e-12
0
-5.48809e-12
-1.09762e-12
6.5857e-12
0
-8907.96
-5431.55
-3207.08
-1954.13
-1216.28
-754.558
-457.217
-267.087
-149.296
-79.5498
-40.3379
-19.4589
-8.93382
-3.90702
-1.62939
-0.648794
-0.246962
-0.0899756
-0.0314113
-0.0105189
-0.00338219
-0.00104505
-0.000310547
-8.88131e-05
-2.44609e-05
-6.4921e-06
-1.66143e-06
-4.10239e-07
-9.7801e-08
-2.25165e-08
-4.99745e-09
-1.0592e-09
-2.20621e-10
-4.39047e-11
-3.29285e-12
8.78094e-12
4.39047e-12
0
-4.39047e-12
-8.78094e-12
6.5857e-12
9.87856e-12
-8.78094e-12
-5.48809e-12
6.5857e-12
5.48809e-12
-6.5857e-12
2.19523e-12
3.29285e-12
0
0
0
0
0
0
0
-2.19523e-12
0
5.48809e-12
-1.09762e-12
-3.29285e-12
1.09762e-12
1.09762e-12
8.78094e-12
-1.09762e-12
-1.20738e-11
1.09762e-12
2.19523e-12
-1.09762e-12
-4.39047e-12
1.09762e-12
4.39047e-12
0
-8.78094e-12
8.78094e-12
-6621.72
-5190.65
-3720.8
-2565.86
-1717.72
-1111.27
-690.092
-409.182
-230.907
-123.818
-63.0629
-30.5187
-14.045
-6.15362
-2.57006
-1.02456
-0.390384
-0.142348
-0.0497312
-0.0166647
-0.00536146
-0.00165754
-0.000492811
-0.000141009
-3.88556e-05
-1.03174e-05
-2.64162e-06
-6.52539e-07
-1.55616e-07
-3.5857e-08
-7.97419e-09
-1.70021e-09
-3.52335e-10
-5.48809e-11
-6.5857e-12
-8.78094e-12
-1.09762e-12
7.68332e-12
1.09762e-12
0
1.09762e-12
-1.09762e-12
0
1.09762e-12
0
0
0
0
0
-1.64643e-11
1.09762e-12
1.53666e-11
8.78094e-12
-1.31714e-11
-1.53666e-11
-2.19523e-12
6.58571e-12
9.87856e-12
0
5.48809e-12
0
0
1.09762e-12
5.48809e-12
-1.09762e-12
-5.48809e-12
0
0
0
-1.09762e-11
0
1.20738e-11
1.09762e-12
-1.09762e-12
-1.09762e-12
-5607.76
-4862.34
-3847.48
-2857.14
-2011.42
-1344.93
-853.421
-513.348
-292.546
-157.956
-80.8538
-39.2746
-18.1263
-7.95957
-3.3303
-1.3296
-0.507238
-0.185154
-0.0647467
-0.0217146
-0.0069915
-0.00216303
-0.000643543
-0.00018426
-5.08059e-05
-1.34991e-05
-3.45832e-06
-8.54811e-07
-2.03971e-07
-4.70197e-08
-1.04844e-08
-2.24573e-09
-4.40145e-10
-7.13451e-11
-2.63428e-11
-8.78094e-12
0
-3.29285e-12
1.09762e-12
1.09762e-12
1.09762e-12
1.09762e-12
1.09762e-12
-2.19523e-12
9.87856e-12
0
-8.78094e-12
0
-1.09762e-12
0
0
3.29285e-12
1.09762e-11
-4.39047e-12
-1.09762e-11
0
3.29285e-12
1.09762e-12
-2.19523e-12
0
-1.09762e-12
0
-1.20738e-11
-1.09762e-12
1.4269e-11
1.09762e-12
0
0
-2.19524e-12
0
8.78094e-12
1.09762e-12
-9.87856e-12
0
0
-5131.13
-4638.12
-3855.08
-2985.93
-2170.39
-1485.13
-957.983
-583.033
-335.084
-182.056
-93.6278
-45.6436
-21.1253
-9.29747
-3.89726
-1.55834
-0.595278
-0.217536
-0.0761471
-0.0255613
-0.00823699
-0.00255039
-0.000759368
-0.000217584
-6.00378e-05
-1.59633e-05
-4.09253e-06
-1.01226e-06
-2.41703e-07
-5.57535e-08
-1.24206e-08
-2.6716e-09
-5.43321e-10
-9.21999e-11
-2.305e-11
-4.39047e-12
0
0
-1.09762e-12
0
-1.09762e-12
1.09762e-12
0
0
-1.09762e-12
1.09762e-12
0
1.09762e-12
-2.19523e-12
0
1.09762e-12
0
0
0
0
0
-5.48809e-12
0
1.20738e-11
0
-8.78094e-12
0
2.19523e-12
1.09762e-12
5.48809e-12
-2.19523e-12
-4.39047e-12
1.09762e-12
2.19523e-12
-5.48809e-12
-2.19523e-12
4.39047e-12
0
-5.48809e-12
5.48809e-12
-4901.08
-4508.07
-3836.81
-3039.9
-2251.75
-1563.74
-1020.11
-626.148
-362.196
-197.764
-102.099
-49.9252
-23.1635
-10.2148
-4.28889
-1.71734
-0.656804
-0.240275
-0.0841867
-0.0282848
-0.00912209
-0.00282665
-0.000842262
-0.000241515
-6.66897e-05
-1.77449e-05
-4.55253e-06
-1.12685e-06
-2.6923e-07
-6.21164e-08
-1.38508e-08
-2.98662e-09
-6.34423e-10
-1.27324e-10
-1.75619e-11
0
-2.08547e-11
0
2.08547e-11
5.48809e-12
-1.09762e-12
4.39047e-12
1.09762e-12
-9.87856e-12
-1.09762e-12
-4.39047e-12
1.09762e-12
4.39047e-12
4.39047e-12
8.78094e-12
-3.29285e-12
-9.87856e-12
0
0
2.19524e-12
0
-5.48809e-12
-6.58571e-12
6.5857e-12
4.39047e-12
-1.09762e-12
0
4.39047e-12
0
-5.48809e-12
1.09762e-12
0
0
0
-1.09762e-11
-2.19523e-12
4.39047e-12
1.09762e-12
4.39047e-12
3.29285e-12
-4789.7
-4438.27
-3819.51
-3061.52
-2291.6
-1605.42
-1054.73
-651.057
-378.289
-207.287
-107.321
-52.6
-24.4508
-10.7996
-4.54045
-1.82015
-0.69682
-0.255141
-0.0894683
-0.0300821
-0.0097087
-0.00301051
-0.000897658
-0.000257572
-7.11713e-05
-1.895e-05
-4.86496e-06
-1.20497e-06
-2.88107e-07
-6.65277e-08
-1.48453e-08
-3.20175e-09
-6.42106e-10
-1.20738e-10
-2.63428e-11
0
0
1.09762e-11
1.31714e-11
-1.09762e-11
-1.31714e-11
-9.87856e-12
0
9.87856e-12
0
0
1.09762e-12
-2.19524e-12
-3.29285e-12
-5.48809e-12
1.09762e-12
7.68332e-12
-3.29285e-12
-1.09762e-12
4.39047e-12
0
-2.19524e-12
0
2.19523e-12
2.19524e-12
0
1.09762e-12
-1.09762e-12
-1.09762e-12
1.09762e-12
-1.09762e-12
0
0
0
0
0
-4.39047e-12
-1.09762e-12
0
5.48809e-12
-4736.46
-4402.75
-3808.14
-3069.79
-2310.39
-1626.44
-1072.96
-664.585
-387.242
-212.687
-110.328
-54.1603
-25.2098
-11.1475
-4.69128
-1.88221
-0.721124
-0.264221
-0.0927105
-0.0311908
-0.0100723
-0.00312501
-0.000932316
-0.000267666
-7.40013e-05
-1.97145e-05
-5.06405e-06
-1.25499e-06
-3.00251e-07
-6.93716e-08
-1.5494e-08
-3.34005e-09
-6.86011e-10
-1.36105e-10
-9.87856e-12
4.39047e-12
0
0
1.09762e-12
-5.48809e-12
1.09762e-12
6.5857e-12
-9.87856e-12
-6.5857e-12
9.87856e-12
6.5857e-12
-1.09762e-12
0
-1.09762e-12
0
1.09762e-12
-1.09762e-12
-1.09762e-12
1.09762e-12
-7.68332e-12
0
-5.48809e-12
0
8.78094e-12
0
2.19523e-12
0
3.29285e-12
0
0
-1.09762e-12
0
-1.20738e-11
0
1.31714e-11
1.09762e-12
-8.78094e-12
-8.78094e-12
4.39047e-12
1.09762e-11
-4711.6
-4385.47
-3801.74
-3072.81
-2318.93
-1636.58
-1082.07
-671.526
-391.933
-215.565
-111.954
-55.0139
-25.6293
-11.3414
-4.77601
-1.91731
-0.734953
-0.269416
-0.0945759
-0.031832
-0.0102836
-0.0031919
-0.000952666
-0.000273622
-7.568e-05
-2.01703e-05
-5.18334e-06
-1.28512e-06
-3.076e-07
-7.11048e-08
-1.58726e-08
-3.41579e-09
-7.05768e-10
-1.44886e-10
-2.74404e-11
-8.78094e-12
-9.87856e-12
9.87856e-12
8.78094e-12
0
0
0
0
-4.39047e-12
-9.87856e-12
5.48809e-12
8.78094e-12
0
-6.58571e-12
-1.09762e-12
5.48809e-12
2.19524e-12
0
0
5.48809e-12
2.305e-11
-5.48809e-12
-2.41476e-11
0
1.09762e-12
1.09762e-12
-1.09762e-12
0
0
1.09762e-12
6.58571e-12
-1.09762e-12
-6.5857e-12
1.09762e-12
-1.09762e-12
0
1.09762e-12
0
-1.09762e-12
0
-4700.33
-4377.42
-3798.45
-3073.86
-2322.68
-1641.25
-1086.4
-674.901
-394.257
-217.012
-112.782
-55.4534
-25.8473
-11.443
-4.82074
-1.93597
-0.742349
-0.272211
-0.0955846
-0.0321805
-0.0103992
-0.00322865
-0.000963906
-0.000276929
-7.6617e-05
-2.0426e-05
-5.25063e-06
-1.30218e-06
-3.11766e-07
-7.2119e-08
-1.61481e-08
-3.48713e-09
-7.10159e-10
-1.30616e-10
-1.53666e-11
-1.09762e-12
0
0
-3.29285e-12
1.09762e-12
4.39047e-12
-1.09762e-12
0
-3.29285e-12
0
3.29285e-12
0
1.09762e-12
-1.20738e-11
-2.19523e-12
1.31714e-11
1.09762e-12
-4.39047e-12
1.09762e-12
3.29285e-12
1.4269e-11
0
-1.75619e-11
0
3.29285e-12
0
9.87856e-12
0
-9.87856e-12
0
1.64643e-11
1.09762e-12
-1.64643e-11
-1.09762e-12
2.19524e-12
5.48809e-12
-2.19524e-12
-5.48809e-12
0
0
-4695.39
-4373.82
-3796.88
-3074.2
-2324.26
-1643.32
-1088.36
-676.462
-395.348
-217.701
-113.181
-55.6672
-25.9543
-11.4933
-4.84302
-1.94531
-0.746077
-0.273627
-0.0960987
-0.0323591
-0.0104586
-0.00324768
-0.000969756
-0.00027866
-7.711e-05
-2.05613e-05
-5.28643e-06
-1.31133e-06
-3.14024e-07
-7.26546e-08
-1.62722e-08
-3.53213e-09
-7.38697e-10
-1.09762e-10
7.68332e-12
0
-1.09762e-12
-1.09762e-12
-5.48809e-12
-4.39047e-12
5.48809e-12
5.48809e-12
2.19523e-12
-1.09762e-12
0
0
-4.39047e-12
0
2.19523e-12
-3.29285e-12
0
3.29285e-12
2.19523e-12
1.09762e-12
0
2.19523e-12
-1.09762e-12
-2.19523e-12
-2.19523e-12
1.09762e-12
1.09762e-12
0
-1.09762e-12
-1.09762e-12
1.09762e-12
1.09762e-12
1.09762e-12
-1.09762e-12
0
0
1.09762e-12
-6.5857e-12
0
5.48809e-12
0
-4693.31
-4372.27
-3796.18
-3074.3
-2324.91
-1644.2
-1089.21
-677.149
-395.836
-218.012
-113.363
-55.7657
-26.004
-11.5168
-4.85351
-1.94974
-0.747853
-0.274306
-0.0963462
-0.0324456
-0.0104876
-0.00325699
-0.000972632
-0.000279515
-7.73548e-05
-2.06288e-05
-5.30441e-06
-1.31593e-06
-3.15162e-07
-7.29268e-08
-1.63161e-08
-3.53323e-09
-7.47478e-10
-1.17445e-10
-9.87856e-12
-1.64643e-11
-1.4269e-11
-8.78094e-12
1.4269e-11
2.52452e-11
0
-1.53666e-11
1.09762e-12
0
-1.09762e-12
-1.09762e-12
-5.48809e-12
0
4.39047e-12
1.09762e-12
0
0
0
1.09762e-12
1.09762e-12
-2.19523e-12
0
-1.09762e-12
-1.09762e-12
3.29285e-12
1.4269e-11
-2.19523e-12
-1.31714e-11
0
-9.87856e-12
-2.08547e-11
8.78094e-12
2.19523e-11
0
0
0
0
-2.19524e-12
-3.29285e-12
5.48809e-12
-4692.46
-4371.64
-3795.88
-3074.33
-2325.17
-1644.55
-1089.57
-677.438
-396.043
-218.146
-113.442
-55.8088
-26.0259
-11.5273
-4.85819
-1.95173
-0.748655
-0.274614
-0.0964591
-0.0324852
-0.0105009
-0.00326129
-0.000973969
-0.000279914
-7.74697e-05
-2.06607e-05
-5.31292e-06
-1.31814e-06
-3.15717e-07
-7.30475e-08
-1.63512e-08
-3.52445e-09
-7.25525e-10
-1.52569e-10
-2.85381e-11
-3.29285e-12
0
1.09762e-12
0
2.19524e-12
0
3.29285e-12
8.78094e-12
-5.48809e-12
-7.68332e-12
1.09762e-12
5.48809e-12
-1.09762e-12
-6.58571e-12
0
2.19524e-12
1.09762e-12
-2.19523e-12
-1.09762e-12
0
0
0
0
0
2.19524e-12
-2.19524e-12
6.5857e-12
0
-1.86595e-11
-4.39047e-12
9.87856e-12
3.29285e-12
3.29285e-12
1.09762e-12
0
-1.09762e-12
0
0
1.09762e-12
-1.09762e-12
-4692.13
-4371.39
-3795.76
-3074.33
-2325.26
-1644.69
-1089.71
-677.554
-396.127
-218.201
-113.474
-55.8268
-26.0351
-11.5317
-4.86018
-1.95258
-0.748999
-0.274746
-0.096508
-0.0325024
-0.0105067
-0.00326318
-0.000974558
-0.000280091
-7.75207e-05
-2.06749e-05
-5.31673e-06
-1.31915e-06
-3.15988e-07
-7.31024e-08
-1.63391e-08
-3.54201e-09
-7.48575e-10
-1.44886e-10
-1.4269e-11
1.53666e-11
3.29285e-12
-1.09762e-11
-2.19523e-12
-6.5857e-12
0
5.48809e-12
-2.19523e-12
0
2.19523e-12
-2.19523e-12
1.09762e-12
3.29285e-12
-1.09762e-12
0
1.09762e-12
0
-2.19523e-12
1.09762e-12
0
-1.09762e-12
-8.78094e-12
-8.78094e-12
4.39047e-12
8.78094e-12
4.39047e-12
0
-1.20738e-11
-1.09762e-12
1.31714e-11
2.19523e-12
-2.19523e-12
-1.09762e-12
1.09762e-12
-1.09762e-12
-4.39047e-12
-7.68332e-12
3.29285e-12
1.31714e-11
-3.29285e-12
-4692
-4371.29
-3795.71
-3074.33
-2325.3
-1644.74
-1089.76
-677.599
-396.16
-218.223
-113.487
-55.8339
-26.0388
-11.5334
-4.86099
-1.95293
-0.749139
-0.274801
-0.0965282
-0.0325096
-0.0105092
-0.00326397
-0.000974804
-0.000280165
-7.75422e-05
-2.06809e-05
-5.31834e-06
-1.31958e-06
-3.16095e-07
-7.312e-08
-1.63347e-08
-3.53762e-09
-7.49673e-10
-1.44886e-10
-1.75619e-11
1.09762e-12
0
0
0
0
-8.78094e-12
-1.09762e-12
9.87856e-12
-4.39047e-12
-5.48809e-12
5.48809e-12
4.39047e-12
0
0
0
0
0
2.19523e-12
0
-2.19524e-12
5.48809e-12
0
-5.48809e-12
1.09762e-12
0
-2.19524e-12
0
1.09762e-12
0
4.39047e-12
0
-4.39047e-12
-1.09762e-12
0
-4.39047e-12
4.39047e-12
5.48809e-12
-4.39047e-12
1.09762e-12
-1.09762e-12
-4691.96
-4371.26
-3795.69
-3074.33
-2325.31
-1644.76
-1089.78
-677.615
-396.172
-218.231
-113.492
-55.8366
-26.0402
-11.5341
-4.8613
-1.95306
-0.749194
-0.274822
-0.0965361
-0.0325124
-0.0105101
-0.00326428
-0.000974901
-0.000280195
-7.75508e-05
-2.06833e-05
-5.31899e-06
-1.31973e-06
-3.1612e-07
-7.31255e-08
-1.63402e-08
-3.55628e-09
-7.5077e-10
-1.33909e-10
-1.20738e-11
-8.78094e-12
5.48809e-12
0
-5.48809e-12
7.68332e-12
1.09762e-12
-1.4269e-11
0
1.4269e-11
-5.48809e-12
2.19524e-12
5.48809e-12
-7.68332e-12
0
6.5857e-12
-3.29285e-12
-9.87856e-12
3.29285e-12
-5.48809e-12
-2.19524e-12
1.53666e-11
-1.09762e-12
0
5.48809e-12
1.09762e-12
-8.78094e-12
-1.09762e-12
5.48809e-12
8.78094e-12
0
-8.78094e-12
0
-4.39047e-12
0
-6.58571e-12
-1.09762e-12
9.87856e-12
9.87856e-12
1.09762e-12
-8.78094e-12
-4691.94
-4371.25
-3795.69
-3074.33
-2325.32
-1644.77
-1089.79
-677.621
-396.176
-218.234
-113.494
-55.8376
-26.0407
-11.5344
-4.86141
-1.95311
-0.749215
-0.27483
-0.0965391
-0.0325134
-0.0105105
-0.0032644
-0.000974939
-0.000280206
-7.7554e-05
-2.06842e-05
-5.31923e-06
-1.31979e-06
-3.16137e-07
-7.31244e-08
-1.63424e-08
-3.55409e-09
-7.66137e-10
-1.383e-10
3.29285e-12
2.19523e-12
5.48809e-12
0
-5.48809e-12
0
-1.09762e-12
1.09762e-12
1.09762e-12
-1.09762e-12
0
0
3.29285e-12
0
-4.39047e-12
0
1.09762e-12
0
-1.09762e-12
1.09762e-12
-4.39047e-12
-1.09762e-12
6.5857e-12
8.78094e-12
-1.09762e-12
-8.78094e-12
0
0
-2.19523e-12
4.39047e-12
2.19523e-12
-5.48809e-12
-2.19523e-12
0
2.19523e-12
-6.5857e-12
-4.39047e-12
6.5857e-12
4.39047e-12
8.78094e-12
-7.68332e-12
-4691.94
-4371.24
-3795.68
-3074.33
-2325.32
-1644.77
-1089.79
-677.623
-396.178
-218.235
-113.495
-55.838
-26.0409
-11.5345
-4.86145
-1.95313
-0.749222
-0.274833
-0.0965401
-0.0325138
-0.0105106
-0.00326444
-0.000974952
-0.00028021
-7.75552e-05
-2.06845e-05
-5.31932e-06
-1.31983e-06
-3.16139e-07
-7.31332e-08
-1.63732e-08
-3.54201e-09
-7.28818e-10
-1.22933e-10
-9.87856e-12
-9.87856e-12
0
4.39047e-12
-4.39047e-12
0
-4.39047e-12
0
1.4269e-11
-1.53666e-11
-4.39047e-12
1.4269e-11
0
1.09762e-12
0
-1.09762e-12
1.09762e-12
0
-1.09762e-12
0
2.19524e-12
0
-1.09762e-12
0
-1.09762e-12
0
0
1.09762e-12
-1.09762e-12
0
0
0
-1.09762e-12
0
1.09762e-12
-1.4269e-11
4.39047e-12
9.87856e-12
-3.29285e-12
4.39047e-12
-1.09762e-12
-4691.94
-4371.24
-3795.68
-3074.33
-2325.32
-1644.77
-1089.79
-677.624
-396.178
-218.235
-113.495
-55.8381
-26.0409
-11.5345
-4.86147
-1.95313
-0.749225
-0.274834
-0.0965405
-0.0325139
-0.0105106
-0.00326445
-0.000974957
-0.000280211
-7.75556e-05
-2.06846e-05
-5.31935e-06
-1.31982e-06
-3.1612e-07
-7.31375e-08
-1.63732e-08
-3.54091e-09
-7.2772e-10
-1.29519e-10
-1.20738e-11
0
0
-1.09762e-12
1.09762e-12
1.09762e-12
0
1.09762e-12
-1.09762e-12
-1.64643e-11
0
1.53666e-11
0
0
1.09762e-12
-1.09762e-12
1.09762e-12
0
-1.09762e-12
-1.09762e-12
0
1.09762e-12
-1.09762e-12
0
1.09762e-12
0
-3.29285e-12
0
3.29285e-12
0
1.09762e-12
8.78094e-12
0
-9.87856e-12
0
0
9.87856e-12
3.29285e-12
-1.4269e-11
-2.19523e-12
3.29285e-12
-4691.93
-4371.24
-3795.68
-3074.33
-2325.32
-1644.77
-1089.79
-677.624
-396.178
-218.235
-113.495
-55.8381
-26.0409
-11.5345
-4.86147
-1.95314
-0.749225
-0.274834
-0.0965406
-0.032514
-0.0105107
-0.00326446
-0.000974958
-0.000280212
-7.75558e-05
-2.06847e-05
-5.31936e-06
-1.31982e-06
-3.16124e-07
-7.31189e-08
-1.63501e-08
-3.55518e-09
-7.38697e-10
-1.26226e-10
-1.75619e-11
0
0
0
0
0
5.48809e-12
-1.09762e-12
-5.48809e-12
1.09762e-12
1.09762e-12
1.09762e-11
-1.09762e-12
-2.19523e-12
0
-8.78094e-12
0
0
0
1.09762e-12
1.09762e-12
-2.19523e-12
1.09762e-12
-1.09762e-12
2.19523e-12
-2.19523e-12
-1.09762e-11
3.29285e-12
7.68332e-12
-8.78094e-12
-1.09762e-11
9.87856e-12
9.87856e-12
5.48809e-12
-1.09762e-12
-4.39047e-12
0
-1.09762e-12
0
0
1.09762e-12
-4691.93
-4371.24
-3795.68
-3074.33
-2325.32
-1644.77
-1089.79
-677.624
-396.178
-218.235
-113.495
-55.8381
-26.0409
-11.5345
-4.86147
-1.95314
-0.749226
-0.274834
-0.0965407
-0.032514
-0.0105107
-0.00326446
-0.000974959
-0.000280212
-7.75558e-05
-2.06847e-05
-5.31937e-06
-1.31982e-06
-3.16138e-07
-7.31343e-08
-1.63446e-08
-3.52116e-09
-7.31013e-10
-1.36105e-10
-1.64643e-11
0
-7.68332e-12
0
8.78094e-12
0
5.48809e-12
0
-6.58571e-12
0
-9.87856e-12
2.19524e-12
8.78094e-12
-1.09762e-12
-8.78094e-12
1.09762e-12
7.68332e-12
0
0
1.09762e-12
2.19524e-12
1.86595e-11
-4.39047e-12
-1.75619e-11
1.09762e-12
0
-1.09762e-11
-1.09762e-12
1.31714e-11
0
-2.19523e-12
0
1.09762e-12
-1.09762e-12
0
-2.19524e-12
-2.19523e-12
6.58571e-12
-3.29285e-12
-7.68332e-12
8.78094e-12
-4691.93
-4371.24
-3795.68
-3074.33
-2325.32
-1644.77
-1089.79
-677.624
-396.179
-218.235
-113.495
-55.8381
-26.041
-11.5345
-4.86147
-1.95314
-0.749226
-0.274834
-0.0965407
-0.032514
-0.0105107
-0.00326446
-0.000974959
-0.000280212
-7.75558e-05
-2.06847e-05
-5.31937e-06
-1.31982e-06
-3.16145e-07
-7.31507e-08
-1.63479e-08
-3.51238e-09
-7.16744e-10
-1.29519e-10
-2.305e-11
-4.39047e-12
-6.58571e-12
5.48809e-12
5.48809e-12
1.09762e-12
6.5857e-12
-1.09762e-12
-6.58571e-12
-4.39047e-12
0
4.39047e-12
-3.29285e-12
2.19524e-12
3.29285e-12
-2.19523e-12
2.19524e-12
0
1.09762e-12
0
-3.29285e-12
9.87856e-12
0
-9.87856e-12
0
0
0
0
-1.64643e-11
0
1.64643e-11
0
1.09762e-12
0
0
-1.31714e-11
0
1.20738e-11
-3.29285e-12
1.09762e-12
2.19524e-12
-4691.93
-4371.24
-3795.68
-3074.33
-2325.32
-1644.77
-1089.79
-677.624
-396.179
-218.235
-113.495
-55.8381
-26.041
-11.5345
-4.86147
-1.95314
-0.749226
-0.274834
-0.0965407
-0.032514
-0.0105107
-0.00326446
-0.000974959
-0.000280212
-7.75558e-05
-2.06847e-05
-5.31938e-06
-1.31983e-06
-3.1615e-07
-7.31507e-08
-1.6338e-08
-3.49042e-09
-7.21135e-10
-1.43788e-10
-1.53666e-11
0
0
0
0
-1.09762e-12
-1.09762e-12
3.29285e-12
-2.19523e-12
-3.29285e-12
2.19523e-12
1.09762e-12
0
0
0
0
1.09762e-12
0
-1.09762e-12
1.09762e-12
0
-1.09762e-12
-7.68332e-12
-1.09762e-12
7.68332e-12
1.09762e-12
0
0
0
-1.09762e-12
-4.39047e-12
1.20738e-11
4.39047e-12
-1.09762e-11
-2.19523e-12
-1.09762e-12
2.19523e-12
0
0
-1.09762e-11
1.20738e-11
-4691.93
-4371.24
-3795.68
-3074.33
-2325.32
-1644.77
-1089.79
-677.624
-396.179
-218.235
-113.495
-55.8381
-26.041
-11.5345
-4.86147
-1.95314
-0.749226
-0.274834
-0.0965407
-0.032514
-0.0105107
-0.00326446
-0.000974959
-0.000280212
-7.75558e-05
-2.06847e-05
-5.31938e-06
-1.31983e-06
-3.16134e-07
-7.31496e-08
-1.63534e-08
-3.50469e-09
-7.14549e-10
-1.29519e-10
-1.97571e-11
-8.78094e-12
0
0
0
0
0
1.09762e-12
0
-1.09762e-12
0
1.09762e-12
-3.29285e-12
-1.09762e-12
4.39047e-12
0
0
5.48809e-12
0
-7.68332e-12
3.29285e-12
2.19523e-12
7.68332e-12
1.09762e-12
-1.20738e-11
0
-1.09762e-12
-1.09762e-12
-2.19524e-12
0
1.75619e-11
0
-1.4269e-11
0
1.09762e-12
-5.48809e-12
-2.19523e-12
6.58571e-12
-1.09762e-12
-1.09762e-12
2.19524e-12
-4691.93
-4371.24
-3795.68
-3074.33
-2325.32
-1644.77
-1089.79
-677.624
-396.179
-218.235
-113.495
-55.8381
-26.041
-11.5345
-4.86147
-1.95314
-0.749226
-0.274834
-0.0965407
-0.032514
-0.0105107
-0.00326446
-0.000974959
-0.000280212
-7.75558e-05
-2.06847e-05
-5.3194e-06
-1.31981e-06
-3.16134e-07
-7.31529e-08
-1.63501e-08
-3.52335e-09
-7.16744e-10
-1.24031e-10
-1.97571e-11
-2.19524e-12
4.39047e-12
-2.19524e-12
2.19524e-12
0
1.09762e-12
-1.09762e-12
-3.29285e-12
2.19523e-12
-2.19524e-12
-1.09762e-12
-3.29285e-12
-1.09762e-12
6.58571e-12
-5.48809e-12
-8.78094e-12
5.48809e-12
8.78094e-12
-1.31714e-11
6.58571e-12
1.53666e-11
-2.19524e-12
-3.29285e-12
-5.48809e-12
2.19524e-12
1.09762e-12
-3.29285e-12
4.39047e-12
4.39047e-12
-4.39047e-12
-2.19524e-12
0
0
0
0
0
0
1.09762e-12
1.09762e-12
-2.19524e-12
-4691.93
-4371.24
-3795.68
-3074.33
-2325.32
-1644.77
-1089.79
-677.624
-396.179
-218.235
-113.495
-55.8381
-26.041
-11.5345
-4.86147
-1.95314
-0.749226
-0.274834
-0.0965407
-0.032514
-0.0105107
-0.00326446
-0.000974959
-0.000280212
-7.75558e-05
-2.06847e-05
-5.31939e-06
-1.31984e-06
-3.16158e-07
-7.31463e-08
-1.63369e-08
-3.51457e-09
-7.36501e-10
-1.29519e-10
-2.19523e-12
1.09762e-11
1.09762e-12
-9.87856e-12
-1.09762e-12
0
-1.09762e-12
-1.09762e-12
0
0
1.75619e-11
1.09762e-12
-2.08547e-11
0
3.29285e-12
0
-2.19523e-12
-1.09762e-12
3.29285e-12
0
0
0
8.78094e-12
-2.19523e-12
-5.48809e-12
1.09762e-12
-2.19523e-12
0
2.19523e-12
-2.19523e-12
-2.19523e-12
4.39047e-12
1.09762e-12
-3.29285e-12
0
0
2.19523e-12
0
-2.19523e-12
-5.48809e-12
5.48809e-12
-4691.93
-4371.24
-3795.68
-3074.33
-2325.32
-1644.77
-1089.79
-677.624
-396.179
-218.235
-113.495
-55.8381
-26.041
-11.5345
-4.86147
-1.95314
-0.749226
-0.274834
-0.0965407
-0.032514
-0.0105107
-0.00326446
-0.000974959
-0.000280212
-7.75558e-05
-2.06847e-05
-5.31936e-06
-1.31983e-06
-3.16164e-07
-7.31441e-08
-1.63424e-08
-3.52225e-09
-7.24428e-10
-1.32812e-10
-2.52452e-11
0
-4.39047e-12
-5.48809e-12
5.48809e-12
0
1.09762e-12
-1.09762e-12
0
0
1.09762e-12
0
3.29285e-12
0
-4.39047e-12
0
0
0
0
0
0
2.19523e-12
0
-1.09762e-12
0
0
-2.19524e-12
0
-4.39047e-12
-1.09762e-12
5.48809e-12
1.09762e-12
0
2.19523e-12
-1.09762e-12
-6.58571e-12
0
2.19524e-12
-1.4269e-11
4.39047e-12
1.31714e-11
-4691.93
-4371.24
-3795.68
-3074.33
-2325.32
-1644.77
-1089.79
-677.624
-396.179
-218.235
-113.495
-55.8381
-26.041
-11.5345
-4.86147
-1.95314
-0.749226
-0.274834
-0.0965407
-0.032514
-0.0105107
-0.00326446
-0.000974959
-0.000280212
-7.75558e-05
-2.06847e-05
-5.31936e-06
-1.31981e-06
-3.16146e-07
-7.31639e-08
-1.63556e-08
-3.51567e-09
-7.14549e-10
-1.39397e-10
-3.18309e-11
-1.09762e-12
-1.31714e-11
-1.09762e-12
1.31714e-11
2.19524e-12
5.48809e-12
-1.09762e-12
-6.58571e-12
-4.39047e-12
0
5.48809e-12
0
8.78094e-12
2.19524e-12
-1.20738e-11
0
-5.48809e-12
-1.09762e-12
5.48809e-12
0
2.19523e-12
0
1.09762e-12
0
-2.19524e-12
0
-5.48809e-12
-1.75619e-11
4.39047e-12
1.86595e-11
0
-1.09762e-12
1.09762e-12
0
0
0
0
0
8.78094e-12
-8.78094e-12
-4691.93
-4371.24
-3795.68
-3074.33
-2325.32
-1644.77
-1089.79
-677.624
-396.179
-218.235
-113.495
-55.8381
-26.041
-11.5345
-4.86147
-1.95314
-0.749226
-0.274834
-0.0965407
-0.032514
-0.0105107
-0.00326446
-0.000974959
-0.000280212
-7.75558e-05
-2.06847e-05
-5.31936e-06
-1.31981e-06
-3.16119e-07
-7.31222e-08
-1.63534e-08
-3.53762e-09
-7.35404e-10
-1.39397e-10
-1.97571e-11
-1.09762e-12
-1.09762e-12
-7.68332e-12
1.09762e-12
8.78094e-12
-1.09762e-12
-1.09762e-12
0
1.09762e-12
1.09762e-12
6.5857e-12
0
1.09762e-12
-2.19523e-12
-8.78094e-12
2.19523e-12
1.09762e-12
2.19523e-12
-1.09762e-12
-2.19523e-12
0
0
0
-1.09762e-12
0
1.09762e-12
-1.09762e-12
0
1.09762e-12
-3.29285e-12
0
3.29285e-12
9.87856e-12
3.29285e-12
-8.78094e-12
-2.41476e-11
-1.09762e-12
1.64643e-11
2.19523e-12
2.19523e-12
-4691.93
-4371.24
-3795.68
-3074.33
-2325.32
-1644.77
-1089.79
-677.624
-396.179
-218.235
-113.495
-55.8381
-26.041
-11.5345
-4.86147
-1.95314
-0.749226
-0.274834
-0.0965407
-0.032514
-0.0105107
-0.00326446
-0.000974959
-0.000280212
-7.75559e-05
-2.06847e-05
-5.31935e-06
-1.31981e-06
-3.16117e-07
-7.31408e-08
-1.6349e-08
-3.52006e-09
-7.26623e-10
-1.36105e-10
-1.97571e-11
-6.58571e-12
-4.39047e-12
3.29285e-12
3.29285e-12
4.39047e-12
-3.29285e-12
-2.19524e-12
1.09762e-12
-3.29285e-12
-2.19524e-12
2.305e-11
-1.09762e-12
-1.64643e-11
0
-1.09762e-12
0
1.4269e-11
0
-1.53666e-11
0
1.20738e-11
-1.09762e-12
-9.87856e-12
0
-1.09762e-12
1.09762e-12
0
0
0
0
0
9.87856e-12
2.19523e-12
-9.87856e-12
-6.58571e-12
-1.09762e-12
5.48809e-12
0
0
0
-4691.93
-4371.24
-3795.68
-3074.33
-2325.32
-1644.77
-1089.79
-677.624
-396.179
-218.235
-113.495
-55.8381
-26.041
-11.5345
-4.86147
-1.95314
-0.749226
-0.274834
-0.0965407
-0.032514
-0.0105107
-0.00326446
-0.000974959
-0.000280212
-7.75558e-05
-2.06847e-05
-5.31937e-06
-1.31981e-06
-3.16122e-07
-7.31299e-08
-1.63369e-08
-3.51567e-09
-7.21135e-10
-1.32812e-10
-2.08547e-11
-2.19524e-12
-1.09762e-12
0
1.09762e-12
0
-1.09762e-12
0
0
0
0
9.87856e-12
0
-9.87856e-12
0
-2.19523e-12
-9.87856e-12
1.09762e-12
1.09762e-11
1.09762e-12
2.19524e-12
8.78094e-12
-1.31714e-11
-9.87856e-12
1.20738e-11
-1.09762e-12
-4.39047e-12
-3.29285e-12
4.39047e-12
3.29285e-12
0
0
1.09762e-12
-1.09762e-12
7.68332e-12
1.09762e-12
-4.39047e-12
0
-2.19524e-12
0
-2.19524e-12
-4691.93
-4371.24
-3795.68
-3074.33
-2325.32
-1644.77
-1089.79
-677.624
-396.179
-218.235
-113.495
-55.8381
-26.041
-11.5345
-4.86147
-1.95314
-0.749226
-0.274834
-0.0965407
-0.032514
-0.0105107
-0.00326446
-0.000974959
-0.000280212
-7.75558e-05
-2.06847e-05
-5.31936e-06
-1.31982e-06
-3.16131e-07
-7.31419e-08
-1.63567e-08
-3.50469e-09
-7.11256e-10
-1.47081e-10
-1.64643e-11
4.39047e-12
1.09762e-12
0
0
-6.5857e-12
0
6.5857e-12
0
-6.5857e-12
0
5.48809e-12
-1.09762e-12
1.09762e-12
0
-5.48809e-12
-3.29285e-12
3.29285e-12
7.68332e-12
0
-2.19523e-12
0
-1.75619e-11
-9.87856e-12
5.48809e-12
5.48809e-12
1.20738e-11
4.39047e-12
-2.19523e-12
0
-7.68332e-12
0
1.4269e-11
0
-4.39047e-12
-7.68332e-12
-1.09762e-12
-1.09762e-12
0
1.64643e-11
-6.5857e-12
-4691.93
-4371.24
-3795.68
-3074.33
-2325.32
-1644.77
-1089.79
-677.624
-396.179
-218.235
-113.495
-55.8381
-26.041
-11.5345
-4.86147
-1.95314
-0.749226
-0.274834
-0.0965407
-0.032514
-0.0105107
-0.00326446
-0.000974959
-0.000280212
-7.75559e-05
-2.06847e-05
-5.31935e-06
-1.31981e-06
-3.16139e-07
-7.31628e-08
-1.63786e-08
-3.53543e-09
-6.92597e-10
-1.03176e-10
-1.4269e-11
0
-1.20738e-11
-1.09762e-12
1.31714e-11
0
3.29285e-12
4.39047e-12
0
-7.68332e-12
-1.09762e-12
1.09762e-12
0
0
-2.19524e-12
-2.19523e-12
4.39047e-12
1.09762e-12
-1.09762e-12
-1.09762e-12
8.78094e-12
3.29285e-12
-1.09762e-11
-9.87856e-12
1.09762e-12
-5.48809e-12
1.09762e-12
1.31714e-11
-5.48809e-12
-1.09762e-12
6.5857e-12
0
1.09762e-12
0
-1.09762e-12
-1.31714e-11
0
6.58571e-12
-4.39047e-12
6.5857e-12
4.39047e-12
-4691.93
-4371.24
-3795.68
-3074.33
-2325.32
-1644.77
-1089.79
-677.624
-396.179
-218.235
-113.495
-55.8381
-26.041
-11.5345
-4.86147
-1.95314
-0.749226
-0.274834
-0.0965407
-0.032514
-0.0105107
-0.00326446
-0.000974959
-0.000280212
-7.75558e-05
-2.06847e-05
-5.31937e-06
-1.31981e-06
-3.1614e-07
-7.31573e-08
-1.63666e-08
-3.53543e-09
-7.02475e-10
-1.16347e-10
-1.20738e-11
3.29285e-12
-9.87856e-12
-7.68332e-12
9.87856e-12
5.48809e-12
0
3.29285e-12
-4.39047e-12
0
-4.39047e-12
0
-5.48809e-12
-1.09762e-12
1.31714e-11
-2.19523e-12
-4.39047e-12
3.29285e-12
-7.68332e-12
1.09762e-12
1.53666e-11
1.09762e-12
-1.75619e-11
8.78094e-12
1.31714e-11
-8.78094e-12
2.19524e-12
0
-2.19524e-12
-1.09762e-12
1.09762e-12
-3.29285e-12
4.39047e-12
4.39047e-12
1.09762e-12
-2.19524e-12
-5.48809e-12
1.09762e-12
1.09762e-12
-1.09762e-12
0
-4691.93
-4371.24
-3795.68
-3074.33
-2325.32
-1644.77
-1089.79
-677.624
-396.179
-218.235
-113.495
-55.8381
-26.041
-11.5345
-4.86147
-1.95314
-0.749226
-0.274834
-0.0965407
-0.032514
-0.0105107
-0.00326446
-0.000974959
-0.000280212
-7.75558e-05
-2.06847e-05
-5.31937e-06
-1.31981e-06
-3.16152e-07
-7.31606e-08
-1.63556e-08
-3.51786e-09
-7.26623e-10
-1.37202e-10
-9.87856e-12
1.09762e-12
0
7.68332e-12
-5.48809e-12
-8.78094e-12
5.48809e-12
8.78094e-12
-1.4269e-11
-8.78094e-12
1.53666e-11
1.09762e-12
-2.19523e-12
1.09762e-12
-9.87856e-12
0
1.4269e-11
0
-7.68332e-12
1.09762e-12
-1.09762e-11
-1.09762e-12
9.87856e-12
0
3.29285e-12
-1.09762e-12
-2.19523e-12
-1.09762e-12
-5.48809e-12
-2.19523e-12
7.68332e-12
4.39047e-12
1.31714e-11
0
-1.31714e-11
8.78094e-12
1.31714e-11
-1.09762e-11
-1.09762e-11
-1.09762e-12
1.09762e-12
-4691.93
-4371.24
-3795.68
-3074.33
-2325.32
-1644.77
-1089.79
-677.624
-396.179
-218.235
-113.495
-55.8381
-26.041
-11.5345
-4.86147
-1.95314
-0.749226
-0.274834
-0.0965407
-0.032514
-0.0105107
-0.00326446
-0.000974959
-0.000280212
-7.75558e-05
-2.06847e-05
-5.31935e-06
-1.3198e-06
-3.16154e-07
-7.31683e-08
-1.63655e-08
-3.53323e-09
-7.32111e-10
-1.27324e-10
-1.86595e-11
-9.87856e-12
-1.09762e-12
-1.09762e-12
1.09762e-12
8.78094e-12
-4.39047e-12
-4.39047e-12
9.87856e-12
-5.48809e-12
-4.39047e-12
9.87856e-12
9.87856e-12
-1.09762e-11
-1.4269e-11
0
7.68332e-12
1.4269e-11
7.68332e-12
-1.4269e-11
0
4.39047e-12
-8.78094e-12
-5.48809e-12
0
0
0
0
0
-3.29285e-12
0
4.39047e-12
0
-1.09762e-12
-8.78094e-12
-6.58571e-12
1.53666e-11
5.48809e-12
-8.78094e-12
0
3.29285e-12
-4691.93
-4371.24
-3795.68
-3074.33
-2325.32
-1644.77
-1089.79
-677.624
-396.179
-218.235
-113.495
-55.8381
-26.041
-11.5345
-4.86147
-1.95314
-0.749226
-0.274834
-0.0965407
-0.032514
-0.0105107
-0.00326446
-0.000974959
-0.000280212
-7.75558e-05
-2.06847e-05
-5.31935e-06
-1.31982e-06
-3.16157e-07
-7.31716e-08
-1.63699e-08
-3.52335e-09
-7.07963e-10
-1.44886e-10
-4.06118e-11
-2.19524e-12
4.39047e-12
-1.09762e-12
2.19524e-12
0
0
5.48809e-12
5.48809e-12
-6.5857e-12
-3.29285e-12
1.09762e-12
-1.09762e-12
0
0
-1.09762e-12
8.78094e-12
1.4269e-11
-8.78094e-12
-1.53666e-11
0
1.53666e-11
0
-1.31714e-11
0
-1.09762e-12
-3.29285e-12
-1.09762e-12
4.39047e-12
0
0
0
0
1.09762e-12
-1.09762e-12
-7.68332e-12
1.09762e-12
7.68332e-12
-8.78094e-12
0
7.68332e-12
-4691.93
-4371.24
-3795.68
-3074.33
-2325.32
-1644.77
-1089.79
-677.624
-396.179
-218.235
-113.495
-55.8381
-26.041
-11.5345
-4.86147
-1.95314
-0.749226
-0.274834
-0.0965407
-0.032514
-0.0105107
-0.00326446
-0.000974959
-0.000280212
-7.75558e-05
-2.06847e-05
-5.31937e-06
-1.31982e-06
-3.1613e-07
-7.31518e-08
-1.63797e-08
-3.56287e-09
-7.28818e-10
-1.24031e-10
-2.305e-11
0
-1.09762e-12
2.19523e-12
1.31714e-11
0
-7.68332e-12
-9.87856e-12
-5.48809e-12
9.87856e-12
0
-1.09762e-12
1.09762e-12
-1.09762e-12
0
0
1.09762e-12
0
0
-1.09762e-12
-9.87856e-12
0
4.39047e-12
0
5.48809e-12
0
-2.19523e-12
5.48809e-12
2.19523e-12
-4.39047e-12
0
-1.09762e-12
0
7.68332e-12
7.68332e-12
-6.5857e-12
-9.87856e-12
-7.68332e-12
-2.19523e-12
3.29285e-12
7.68332e-12
-4691.93
-4371.24
-3795.68
-3074.33
-2325.32
-1644.77
-1089.79
-677.624
-396.179
-218.235
-113.495
-55.8381
-26.041
-11.5345
-4.86147
-1.95314
-0.749226
-0.274834
-0.0965407
-0.032514
-0.0105107
-0.00326446
-0.000974959
-0.000280212
-7.75558e-05
-2.06847e-05
-5.31937e-06
-1.31983e-06
-3.1613e-07
-7.31419e-08
-1.63589e-08
-3.54969e-09
-7.49673e-10
-1.39397e-10
-1.97571e-11
0
0
0
0
-1.09762e-12
0
1.09762e-12
0
0
1.09762e-12
-1.09762e-12
3.29285e-12
0
-2.19524e-12
0
3.29285e-12
2.19524e-12
-7.68332e-12
-2.19524e-12
3.29285e-12
-1.09762e-12
-1.09762e-12
1.09762e-12
1.09762e-12
0
-1.09762e-12
1.09762e-12
-1.09762e-12
0
-4.39047e-12
0
4.39047e-12
1.09762e-12
4.39047e-12
0
-5.48809e-12
-4.39047e-12
1.09762e-12
4.39047e-12
0
-4691.93
-4371.24
-3795.68
-3074.33
-2325.32
-1644.77
-1089.79
-677.624
-396.179
-218.235
-113.495
-55.8381
-26.041
-11.5345
-4.86147
-1.95314
-0.749226
-0.274834
-0.0965407