/*--------------------------------*- C++ -*----------------------------------*\
  =========                 |
  \\      /  F ield         | OpenFOAM: The Open Source CFD Toolbox
   \\    /   O peration     | Website:  https://openfoam.org
    \\  /    A nd           | Version:  10
     \\/     M anipulation  |
\*---------------------------------------------------------------------------*/
FoamFile
{
    format      ascii;
    class       volScalarField;
    location    "293";
    object      T;
}
// * * * * * * * * * * * * * * * * * * * * * * * * * * * * * * * * * * * * * //

dimensions      [0 0 0 1 0 0 0];

internalField   nonuniform List<scalar> 
11250
(
249.819
167.486
139.244
126.786
119.973
115.642
112.607
110.342
108.578
107.162
106.003
105.04
104.232
103.55
102.971
102.48
102.064
101.71
101.412
101.16
100.948
100.771
100.624
100.502
100.402
100.319
100.253
100.199
100.155
100.12
100.093
100.071
100.054
100.041
100.031
100.023
100.017
100.013
100.009
100.007
100.005
100.004
100.003
100.002
100.001
100.001
100.001
100
100
100
100
100
100
100
100
100
100
100
100
100
100
100
100
100
100
100
100
100
100
100
100
100
100
100
100
331.428
248.375
201.961
174.731
157.46
145.656
137.083
130.559
125.42
121.268
117.851
115.003
112.608
110.582
108.862
107.401
106.16
105.107
104.216
103.464
102.832
102.304
101.864
101.5
101.2
100.955
100.755
100.594
100.464
100.36
100.278
100.213
100.162
100.123
100.092
100.069
100.051
100.038
100.028
100.02
100.015
100.01
100.007
100.005
100.004
100.003
100.002
100.001
100.001
100.001
100
100
100
100
100
100
100
100
100
100
100
100
100
100
100
100
100
100
100
100
100
100
100
100
100
358.956
292.651
245.532
212.774
189.548
172.521
159.6
149.491
141.382
134.749
129.245
124.629
120.729
117.419
114.602
112.205
110.164
108.431
106.963
105.724
104.682
103.81
103.083
102.482
101.986
101.58
101.25
100.983
100.768
100.596
100.46
100.353
100.269
100.204
100.153
100.114
100.085
100.063
100.046
100.033
100.024
100.017
100.012
100.009
100.006
100.004
100.003
100.002
100.001
100.001
100.001
100
100
100
100
100
100
100
100
100
100
100
100
100
100
100
100
100
100
100
100
100
100
100
100
370.712
317.782
274.811
241.375
215.551
195.415
179.458
166.588
156.043
147.287
139.94
133.728
128.448
123.946
120.103
116.82
114.022
111.64
109.619
107.912
106.475
105.271
104.268
103.436
102.751
102.189
101.732
101.362
101.064
100.827
100.638
100.489
100.373
100.282
100.212
100.159
100.118
100.087
100.064
100.046
100.034
100.024
100.017
100.012
100.009
100.006
100.004
100.003
100.002
100.001
100.001
100.001
100
100
100
100
100
100
100
100
100
100
100
100
100
100
100
100
100
100
100
100
100
100
100
376.842
333.01
294.648
262.49
236.024
214.318
196.437
181.592
169.162
158.672
149.762
142.16
135.652
130.073
125.289
121.189
117.684
114.695
112.154
110.004
108.192
106.672
105.405
104.353
103.486
102.776
102.196
101.728
101.351
101.049
100.81
100.621
100.474
100.359
100.27
100.202
100.15
100.11
100.081
100.059
100.043
100.031
100.022
100.015
100.011
100.008
100.005
100.004
100.003
100.002
100.001
100.001
100.001
100
100
100
100
100
100
100
100
100
100
100
100
100
100
100
100
100
100
100
100
100
100
380.513
342.839
308.401
278.076
251.939
229.633
210.649
194.475
180.652
168.802
158.612
149.833
142.261
135.731
130.104
125.265
121.114
117.565
114.543
111.98
109.817
108.001
106.485
105.226
104.187
103.335
102.64
102.077
101.624
101.262
100.974
100.748
100.57
100.432
100.325
100.243
100.18
100.133
100.098
100.071
100.051
100.037
100.026
100.019
100.013
100.009
100.006
100.004
100.003
100.002
100.001
100.001
100.001
100
100
100
100
100
100
100
100
100
100
100
100
100
100
100
100
100
100
100
100
100
100
382.915
349.519
318.182
289.671
264.266
241.912
222.376
205.358
190.549
177.665
166.455
156.705
148.233
140.88
134.514
129.016
124.284
120.228
116.765
113.824
111.337
109.247
107.499
106.047
104.847
103.862
103.058
102.407
101.883
101.463
101.13
100.867
100.661
100.501
100.377
100.282
100.209
100.155
100.113
100.083
100.06
100.043
100.031
100.022
100.015
100.011
100.007
100.005
100.004
100.002
100.002
100.001
100.001
100
100
100
100
100
100
100
100
100
100
100
100
100
100
100
100
100
100
100
100
100
100
384.578
354.24
325.303
298.388
273.825
251.705
231.963
214.446
198.961
185.312
173.308
162.774
153.553
145.502
138.497
132.423
127.178
122.668
118.809
115.524
112.743
110.401
108.441
106.81
105.462
104.354
103.45
102.716
102.125
101.652
101.277
100.98
100.747
100.566
100.426
100.319
100.237
100.175
100.128
100.093
100.068
100.049
100.035
100.025
100.017
100.012
100.008
100.006
100.004
100.003
100.002
100.001
100.001
100.001
100
100
100
100
100
100
100
100
100
100
100
100
100
100
100
100
100
100
100
100
100
385.774
357.677
330.589
305.011
281.263
259.501
239.754
221.967
206.037
191.835
179.224
168.067
158.234
149.601
142.052
135.481
129.788
124.878
120.668
117.076
114.029
111.461
109.307
107.514
106.03
104.809
103.812
103.003
102.35
101.828
101.413
101.085
100.828
100.627
100.472
100.353
100.263
100.194
100.142
100.104
100.075
100.054
100.038
100.027
100.019
100.013
100.009
100.006
100.004
100.003
100.002
100.001
100.001
100.001
100
100
100
100
100
100
100
100
100
100
100
100
100
100
100
100
100
100
100
100
100
386.656
360.234
334.576
310.091
287.073
265.702
246.059
228.152
211.939
197.345
184.277
172.633
162.307
153.194
145.19
138.195
132.115
126.859
122.339
118.476
115.194
112.422
110.096
108.156
106.548
105.226
104.144
103.266
102.557
101.99
101.538
101.181
100.902
100.683
100.515
100.385
100.286
100.211
100.155
100.113
100.082
100.059
100.042
100.03
100.021
100.015
100.01
100.007
100.005
100.003
100.002
100.001
100.001
100.001
100
100
100
100
100
100
100
100
100
100
100
100
100
100
100
100
100
100
100
100
100
387.319
362.166
337.618
314.018
291.629
270.636
251.148
233.213
216.829
201.963
188.556
176.535
165.816
156.311
147.929
140.579
134.17
128.614
123.827
119.727
116.237
113.286
110.806
108.735
107.018
105.603
104.446
103.505
102.746
102.137
101.653
101.27
100.969
100.735
100.554
100.414
100.308
100.227
100.167
100.122
100.088
100.063
100.045
100.032
100.023
100.016
100.011
100.008
100.005
100.004
100.002
100.002
100.001
100.001
100
100
100
100
100
100
100
100
100
100
100
100
100
100
100
100
100
100
100
100
100
387.824
363.644
339.962
317.072
295.213
274.563
255.247
237.336
220.857
205.806
192.15
179.84
168.811
158.99
150.298
142.651
135.965
130.155
125.138
120.833
117.163
114.054
111.439
109.253
107.438
105.942
104.717
103.72
102.916
102.27
101.756
101.35
101.031
100.782
100.589
100.441
100.328
100.242
100.178
100.129
100.094
100.067
100.048
100.034
100.024
100.017
100.012
100.008
100.006
100.004
100.003
100.002
100.001
100.001
100.001
100
100
100
100
100
100
100
100
100
100
100
100
100
100
100
100
100
100
100
100
388.213
364.783
341.78
319.459
298.038
277.689
258.543
240.684
224.159
208.984
195.148
182.618
171.346
161.273
152.328
144.437
137.519
131.495
126.282
121.802
117.976
114.732
111.999
109.712
107.812
106.244
104.958
103.913
103.068
102.389
101.849
101.422
101.086
100.824
100.621
100.465
100.346
100.255
100.187
100.137
100.099
100.071
100.051
100.036
100.025
100.018
100.012
100.009
100.006
100.004
100.003
100.002
100.001
100.001
100.001
100
100
100
100
100
100
100
100
100
100
100
100
100
100
100
100
100
100
100
100
388.514
365.668
343.197
321.33
300.268
280.177
261.188
243.393
226.853
211.598
197.631
184.936
173.476
163.202
154.053
145.961
138.852
132.649
127.272
122.643
118.684
115.323
112.489
110.115
108.14
106.509
105.172
104.083
103.202
102.495
101.931
101.485
101.135
100.861
100.649
100.486
100.362
100.267
100.196
100.143
100.104
100.074
100.053
100.038
100.027
100.019
100.013
100.009
100.006
100.004
100.003
100.002
100.001
100.001
100.001
100
100
100
100
100
100
100
100
100
100
100
100
100
100
100
100
100
100
100
100
388.748
366.357
344.305
322.8
302.03
282.156
263.305
245.578
229.041
213.736
199.676
186.857
175.251
164.819
155.507
147.252
139.986
133.634
128.12
123.366
119.296
115.835
112.914
110.465
108.426
106.741
105.359
104.232
103.32
102.588
102.004
101.542
101.178
100.894
100.674
100.505
100.376
100.278
100.204
100.149
100.108
100.077
100.055
100.039
100.028
100.019
100.013
100.009
100.006
100.004
100.003
100.002
100.001
100.001
100.001
100
100
100
100
100
100
100
100
100
100
100
100
100
100
100
100
100
100
100
100
388.93
366.895
345.172
323.956
303.423
283.727
264.998
247.335
230.812
215.476
201.351
188.439
176.721
166.165
156.723
148.337
140.943
134.469
128.841
123.983
119.818
116.274
113.279
110.767
108.674
106.942
105.521
104.362
103.423
102.669
102.067
101.591
101.216
100.923
100.696
100.522
100.388
100.287
100.211
100.154
100.111
100.08
100.057
100.041
100.029
100.02
100.014
100.01
100.007
100.005
100.003
100.002
100.001
100.001
100.001
100
100
100
100
100
100
100
100
100
100
100
100
100
100
100
100
100
100
100
100
389.073
367.316
345.852
324.864
304.522
284.974
266.347
248.742
232.238
216.886
202.715
189.734
177.931
167.277
157.732
149.242
141.744
135.171
129.449
124.504
120.262
116.648
113.591
111.025
108.886
107.115
105.66
104.473
103.512
102.739
102.122
101.633
101.249
100.948
100.715
100.536
100.399
100.295
100.217
100.158
100.114
100.082
100.059
100.042
100.029
100.021
100.014
100.01
100.007
100.005
100.003
100.002
100.001
100.001
100.001
100
100
100
100
100
100
100
100
100
100
100
100
100
100
100
100
100
100
100
100
389.184
367.646
346.385
325.578
305.388
285.96
267.419
249.866
233.382
218.022
203.82
190.788
178.919
168.191
158.564
149.99
142.41
135.756
129.958
124.942
120.635
116.963
113.855
111.244
109.066
107.262
105.779
104.569
103.588
102.799
102.169
101.67
101.277
100.97
100.732
100.549
100.408
100.302
100.222
100.162
100.117
100.084
100.06
100.043
100.03
100.021
100.015
100.01
100.007
100.005
100.003
100.002
100.001
100.001
100.001
100
100
100
100
100
100
100
100
100
100
100
100
100
100
100
100
100
100
100
100
389.271
367.903
346.802
326.139
306.07
286.739
268.268
250.761
234.296
218.934
204.71
191.641
179.722
168.936
159.246
150.606
142.958
136.239
130.38
125.306
120.946
117.227
114.076
111.428
109.217
107.386
105.879
104.649
103.653
102.85
102.21
101.701
101.301
100.989
100.746
100.559
100.416
100.308
100.226
100.165
100.12
100.086
100.062
100.044
100.031
100.022
100.015
100.01
100.007
100.005
100.003
100.002
100.001
100.001
100.001
100
100
100
100
100
100
100
100
100
100
100
100
100
100
100
100
100
100
100
100
389.339
368.104
347.128
326.578
306.606
287.352
268.939
251.469
235.023
219.662
205.423
192.326
180.371
169.54
159.8
151.108
143.408
136.637
130.727
125.607
121.204
117.446
114.26
111.581
109.344
107.49
105.964
104.717
103.707
102.893
102.243
101.728
101.322
101.004
100.758
100.568
100.423
100.313
100.23
100.168
100.122
100.088
100.063
100.044
100.031
100.022
100.015
100.011
100.007
100.005
100.003
100.002
100.002
100.001
100.001
100
100
100
100
100
100
100
100
100
100
100
100
100
100
100
100
100
100
100
100
389.392
368.261
347.383
326.92
307.025
287.833
269.467
252.029
235.599
220.24
205.992
192.875
180.892
170.026
160.248
151.515
143.773
136.961
131.011
125.854
121.416
117.626
114.412
111.708
109.449
107.576
106.034
104.774
103.752
102.929
102.272
101.75
101.339
101.018
100.768
100.576
100.429
100.317
100.233
100.17
100.123
100.089
100.063
100.045
100.032
100.022
100.016
100.011
100.007
100.005
100.003
100.002
100.002
100.001
100.001
100
100
100
100
100
100
100
100
100
100
100
100
100
100
100
100
100
100
100
100
389.433
368.382
347.581
327.187
307.352
288.21
269.881
252.468
236.053
220.697
206.443
193.312
181.307
170.415
160.607
151.842
144.068
137.223
131.242
126.055
121.589
117.773
114.537
111.812
109.536
107.647
106.092
104.821
103.79
102.959
102.295
101.768
101.353
101.029
100.777
100.582
100.434
100.321
100.236
100.172
100.125
100.09
100.064
100.046
100.032
100.023
100.016
100.011
100.007
100.005
100.003
100.002
100.002
100.001
100.001
100
100
100
100
100
100
100
100
100
100
100
100
100
100
100
100
100
100
100
100
389.465
368.476
347.734
327.395
307.606
288.503
270.204
252.812
236.409
221.057
206.799
193.657
181.636
170.725
160.894
152.104
144.304
137.434
131.428
126.217
121.729
117.893
114.638
111.897
109.606
107.705
106.139
104.859
103.82
102.984
102.315
101.784
101.365
101.038
100.784
100.588
100.438
100.324
100.238
100.174
100.126
100.091
100.065
100.046
100.033
100.023
100.016
100.011
100.008
100.005
100.003
100.002
100.002
100.001
100.001
100
100
100
100
100
100
100
100
100
100
100
100
100
100
100
100
100
100
100
100
389.489
368.549
347.853
327.555
307.803
288.73
270.456
253.08
236.687
221.339
207.078
193.929
181.896
170.969
161.121
152.313
144.492
137.602
131.577
126.347
121.842
117.989
114.72
111.966
109.663
107.752
106.178
104.89
103.846
103.004
102.33
101.796
101.375
101.045
100.789
100.592
100.441
100.326
100.24
100.175
100.127
100.091
100.065
100.046
100.033
100.023
100.016
100.011
100.008
100.005
100.004
100.002
100.002
100.001
100.001
100
100
100
100
100
100
100
100
100
100
100
100
100
100
100
100
100
100
100
100
389.508
368.605
347.944
327.679
307.955
288.906
270.65
253.288
236.903
221.558
207.296
194.141
182.1
171.162
161.3
152.477
144.641
137.736
131.695
126.451
121.931
118.066
114.785
112.021
109.709
107.79
106.209
104.916
103.866
103.02
102.343
101.806
101.383
101.051
100.794
100.596
100.444
100.328
100.241
100.176
100.128
100.092
100.066
100.047
100.033
100.023
100.016
100.011
100.008
100.005
100.004
100.002
100.002
100.001
100.001
100
100
100
100
100
100
100
100
100
100
100
100
100
100
100
100
100
100
100
100
389.523
368.648
348.014
327.773
308.072
289.041
270.8
253.449
237.07
221.727
207.465
194.306
182.259
171.312
161.44
152.606
144.759
137.841
131.788
126.532
122.003
118.128
114.838
112.065
109.746
107.82
106.234
104.936
103.882
103.033
102.354
101.814
101.389
101.056
100.798
100.598
100.446
100.33
100.243
100.177
100.128
100.092
100.066
100.047
100.033
100.023
100.016
100.011
100.008
100.005
100.004
100.002
100.002
100.001
100.001
100
100
100
100
100
100
100
100
100
100
100
100
100
100
100
100
100
100
100
100
389.534
368.681
348.067
327.846
308.161
289.145
270.915
253.572
237.198
221.858
207.595
194.434
182.382
171.429
161.549
152.706
144.85
137.923
131.861
126.597
122.059
118.176
114.879
112.1
109.775
107.845
106.254
104.952
103.895
103.043
102.362
101.821
101.394
101.06
100.801
100.601
100.448
100.331
100.244
100.178
100.129
100.093
100.066
100.047
100.033
100.023
100.016
100.011
100.008
100.005
100.004
100.002
100.002
100.001
100.001
100
100
100
100
100
100
100
100
100
100
100
100
100
100
100
100
100
100
100
100
389.542
368.706
348.108
327.901
308.229
289.223
271.002
253.666
237.297
221.958
207.695
194.532
182.476
171.518
161.634
152.784
144.921
137.987
131.918
126.647
122.102
118.214
114.911
112.127
109.798
107.863
106.269
104.965
103.906
103.052
102.368
101.826
101.398
101.063
100.803
100.603
100.449
100.332
100.244
100.178
100.129
100.093
100.067
100.047
100.033
100.023
100.016
100.011
100.008
100.005
100.004
100.002
100.002
100.001
100.001
100
100
100
100
100
100
100
100
100
100
100
100
100
100
100
100
100
100
100
100
389.548
368.725
348.139
327.943
308.28
289.283
271.069
253.737
237.371
222.035
207.771
194.607
182.549
171.587
161.698
152.844
144.976
138.036
131.962
126.686
122.136
118.243
114.936
112.148
109.816
107.878
106.281
104.975
103.914
103.058
102.374
101.83
101.401
101.066
100.805
100.604
100.45
100.333
100.245
100.179
100.13
100.093
100.067
100.047
100.034
100.023
100.016
100.011
100.008
100.005
100.004
100.002
100.002
100.001
100.001
100
100
100
100
100
100
100
100
100
100
100
100
100
100
100
100
100
100
100
100
389.553
368.739
348.162
327.974
308.319
289.328
271.119
253.791
237.428
222.092
207.829
194.664
182.604
171.64
161.748
152.89
145.018
138.074
131.996
126.716
122.162
118.265
114.955
112.165
109.829
107.89
106.291
104.983
103.92
103.063
102.378
101.833
101.404
101.068
100.807
100.605
100.451
100.334
100.245
100.179
100.13
100.094
100.067
100.048
100.034
100.024
100.016
100.011
100.008
100.005
100.004
100.002
100.002
100.001
100.001
100
100
100
100
100
100
100
100
100
100
100
100
100
100
100
100
100
100
100
100
389.557
368.749
348.179
327.998
308.348
289.362
271.157
253.832
237.47
222.136
207.873
194.707
182.646
171.68
161.785
152.924
145.049
138.103
132.022
126.739
122.182
118.283
114.97
112.177
109.84
107.899
106.298
104.988
103.925
103.067
102.381
101.836
101.406
101.069
100.808
100.606
100.452
100.334
100.246
100.179
100.13
100.094
100.067
100.048
100.034
100.024
100.016
100.011
100.008
100.005
100.004
100.002
100.002
100.001
100.001
100
100
100
100
100
100
100
100
100
100
100
100
100
100
100
100
100
100
100
100
389.559
368.757
348.192
328.015
308.37
289.387
271.185
253.862
237.502
222.169
207.906
194.739
182.677
171.71
161.813
152.951
145.073
138.125
132.042
126.756
122.198
118.296
114.982
112.187
109.848
107.905
106.304
104.993
103.928
103.07
102.383
101.837
101.407
101.07
100.809
100.607
100.452
100.335
100.246
100.18
100.13
100.094
100.067
100.048
100.034
100.024
100.016
100.011
100.008
100.005
100.004
100.002
100.002
100.001
100.001
100
100
100
100
100
100
100
100
100
100
100
100
100
100
100
100
100
100
100
100
389.561
368.763
348.201
328.028
308.386
289.406
271.206
253.885
237.526
222.193
207.93
194.764
182.701
171.732
161.835
152.97
145.092
138.141
132.056
126.769
122.209
118.306
114.99
112.194
109.854
107.911
106.308
104.997
103.931
103.072
102.385
101.839
101.408
101.071
100.809
100.607
100.453
100.335
100.246
100.18
100.13
100.094
100.067
100.048
100.034
100.024
100.016
100.011
100.008
100.005
100.004
100.002
100.002
100.001
100.001
100
100
100
100
100
100
100
100
100
100
100
100
100
100
100
100
100
100
100
100
389.563
368.767
348.208
328.038
308.398
289.42
271.221
253.901
237.543
222.211
207.948
194.782
182.718
171.749
161.85
152.985
145.105
138.154
132.067
126.779
122.218
118.313
114.997
112.2
109.859
107.914
106.311
104.999
103.933
103.074
102.386
101.84
101.409
101.072
100.81
100.608
100.453
100.335
100.246
100.18
100.131
100.094
100.067
100.048
100.034
100.024
100.016
100.011
100.008
100.005
100.004
100.002
100.002
100.001
100.001
100
100
100
100
100
100
100
100
100
100
100
100
100
100
100
100
100
100
100
100
389.564
368.771
348.214
328.045
308.406
289.43
271.232
253.914
237.556
222.224
207.962
194.795
182.731
171.761
161.862
152.996
145.115
138.163
132.076
126.786
122.224
118.319
115.001
112.204
109.862
107.917
106.314
105.001
103.935
103.075
102.387
101.841
101.41
101.072
100.81
100.608
100.453
100.335
100.247
100.18
100.131
100.094
100.067
100.048
100.034
100.024
100.016
100.011
100.008
100.005
100.004
100.002
100.002
100.001
100.001
100
100
100
100
100
100
100
100
100
100
100
100
100
100
100
100
100
100
100
100
389.564
368.773
348.217
328.05
308.413
289.437
271.241
253.923
237.566
222.234
207.972
194.804
182.74
171.77
161.871
153.004
145.122
138.169
132.082
126.791
122.229
118.323
115.005
112.207
109.865
107.92
106.315
105.003
103.936
103.076
102.388
101.841
101.41
101.073
100.811
100.608
100.453
100.336
100.247
100.18
100.131
100.094
100.067
100.048
100.034
100.024
100.016
100.011
100.008
100.005
100.004
100.002
100.002
100.001
100.001
100
100
100
100
100
100
100
100
100
100
100
100
100
100
100
100
100
100
100
100
389.565
368.774
348.22
328.053
308.417
289.443
271.247
253.929
237.573
222.241
207.979
194.811
182.747
171.777
161.877
153.01
145.128
138.174
132.086
126.795
122.232
118.326
115.008
112.209
109.867
107.921
106.317
105.004
103.937
103.077
102.389
101.842
101.411
101.073
100.811
100.608
100.453
100.336
100.247
100.18
100.131
100.094
100.067
100.048
100.034
100.024
100.016
100.011
100.008
100.005
100.004
100.002
100.002
100.001
100.001
100
100
100
100
100
100
100
100
100
100
100
100
100
100
100
100
100
100
100
100
389.565
368.776
348.222
328.056
308.421
289.447
271.251
253.934
237.578
222.246
207.984
194.817
182.752
171.782
161.881
153.014
145.132
138.178
132.089
126.798
122.235
118.328
115.009
112.211
109.868
107.922
106.318
105.005
103.938
103.078
102.389
101.842
101.411
101.073
100.811
100.609
100.454
100.336
100.247
100.18
100.131
100.094
100.067
100.048
100.034
100.024
100.016
100.011
100.008
100.005
100.004
100.002
100.002
100.001
100.001
100
100
100
100
100
100
100
100
100
100
100
100
100
100
100
100
100
100
100
100
389.566
368.777
348.223
328.058
308.423
289.449
271.254
253.937
237.581
222.25
207.987
194.82
182.756
171.785
161.885
153.017
145.135
138.181
132.092
126.8
122.237
118.33
115.011
112.212
109.869
107.923
106.318
105.005
103.938
103.078
102.389
101.842
101.411
101.073
100.811
100.609
100.454
100.336
100.247
100.18
100.131
100.094
100.067
100.048
100.034
100.024
100.016
100.011
100.008
100.005
100.004
100.002
100.002
100.001
100.001
100
100
100
100
100
100
100
100
100
100
100
100
100
100
100
100
100
100
100
100
389.566
368.777
348.224
328.059
308.425
289.451
271.256
253.94
237.584
222.252
207.99
194.823
182.758
171.788
161.887
153.019
145.137
138.182
132.093
126.802
122.238
118.331
115.012
112.213
109.87
107.924
106.319
105.006
103.939
103.078
102.39
101.843
101.411
101.074
100.811
100.609
100.454
100.336
100.247
100.18
100.131
100.094
100.067
100.048
100.034
100.024
100.016
100.011
100.008
100.005
100.004
100.002
100.002
100.001
100.001
100
100
100
100
100
100
100
100
100
100
100
100
100
100
100
100
100
100
100
100
389.566
368.778
348.225
328.06
308.426
289.453
271.258
253.941
237.585
222.254
207.992
194.825
182.76
171.789
161.889
153.021
145.138
138.184
132.095
126.803
122.239
118.332
115.013
112.213
109.871
107.924
106.319
105.006
103.939
103.079
102.39
101.843
101.411
101.074
100.811
100.609
100.454
100.336
100.247
100.18
100.131
100.094
100.067
100.048
100.034
100.024
100.016
100.011
100.008
100.005
100.004
100.002
100.002
100.001
100.001
100
100
100
100
100
100
100
100
100
100
100
100
100
100
100
100
100
100
100
100
389.566
368.778
348.226
328.061
308.427
289.454
271.259
253.942
237.587
222.255
207.993
194.826
182.761
171.791
161.89
153.022
145.139
138.185
132.095
126.804
122.24
118.333
115.013
112.214
109.871
107.925
106.32
105.006
103.939
103.079
102.39
101.843
101.411
101.074
100.811
100.609
100.454
100.336
100.247
100.18
100.131
100.094
100.067
100.048
100.034
100.024
100.016
100.011
100.008
100.005
100.004
100.002
100.002
100.001
100.001
100
100
100
100
100
100
100
100
100
100
100
100
100
100
100
100
100
100
100
100
389.566
368.778
348.226
328.062
308.427
289.455
271.26
253.943
237.588
222.256
207.994
194.827
182.762
171.791
161.891
153.023
145.14
138.185
132.096
126.804
122.24
118.333
115.013
112.214
109.871
107.925
106.32
105.006
103.939
103.079
102.39
101.843
101.411
101.074
100.811
100.609
100.454
100.336
100.247
100.18
100.131
100.094
100.067
100.048
100.034
100.024
100.016
100.011
100.008
100.005
100.004
100.002
100.002
100.001
100.001
100
100
100
100
100
100
100
100
100
100
100
100
100
100
100
100
100
100
100
100
389.566
368.778
348.226
328.062
308.428
289.455
271.26
253.944
237.588
222.257
207.995
194.828
182.763
171.792
161.891
153.023
145.14
138.186
132.096
126.805
122.24
118.333
115.014
112.214
109.871
107.925
106.32
105.006
103.939
103.079
102.39
101.843
101.412
101.074
100.811
100.609
100.454
100.336
100.247
100.18
100.131
100.094
100.067
100.048
100.034
100.024
100.016
100.011
100.008
100.005
100.004
100.002
100.002
100.001
100.001
100
100
100
100
100
100
100
100
100
100
100
100
100
100
100
100
100
100
100
100
389.566
368.778
348.226
328.062
308.428
289.455
271.261
253.944
237.589
222.257
207.995
194.828
182.763
171.793
161.892
153.024
145.141
138.186
132.097
126.805
122.241
118.334
115.014
112.215
109.872
107.925
106.32
105.006
103.939
103.079
102.39
101.843
101.412
101.074
100.811
100.609
100.454
100.336
100.247
100.18
100.131
100.094
100.067
100.048
100.034
100.024
100.016
100.011
100.008
100.005
100.004
100.002
100.002
100.001
100.001
100
100
100
100
100
100
100
100
100
100
100
100
100
100
100
100
100
100
100
100
389.566
368.778
348.227
328.062
308.428
289.456
271.261
253.945
237.589
222.258
207.996
194.828
182.764
171.793
161.892
153.024
145.141
138.186
132.097
126.805
122.241
118.334
115.014
112.215
109.872
107.925
106.32
105.007
103.939
103.079
102.39
101.843
101.412
101.074
100.811
100.609
100.454
100.336
100.247
100.18
100.131
100.094
100.067
100.048
100.034
100.024
100.017
100.011
100.008
100.005
100.004
100.002
100.002
100.001
100.001
100
100
100
100
100
100
100
100
100
100
100
100
100
100
100
100
100
100
100
100
389.566
368.778
348.227
328.062
308.428
289.456
271.261
253.945
237.589
222.258
207.996
194.829
182.764
171.793
161.892
153.024
145.141
138.187
132.097
126.805
122.241
118.334
115.014
112.215
109.872
107.925
106.32
105.007
103.939
103.079
102.39
101.843
101.412
101.074
100.811
100.609
100.454
100.336
100.247
100.18
100.131
100.094
100.067
100.048
100.034
100.024
100.017
100.011
100.008
100.005
100.004
100.002
100.002
100.001
100.001
100
100
100
100
100
100
100
100
100
100
100
100
100
100
100
100
100
100
100
100
389.566
368.778
348.227
328.062
308.428
289.456
271.261
253.945
237.589
222.258
207.996
194.829
182.764
171.793
161.892
153.024
145.141
138.187
132.097
126.805
122.241
118.334
115.014
112.215
109.872
107.925
106.32
105.007
103.939
103.079
102.39
101.843
101.412
101.074
100.811
100.609
100.454
100.336
100.247
100.18
100.131
100.094
100.067
100.048
100.034
100.024
100.017
100.011
100.008
100.005
100.004
100.002
100.002
100.001
100.001
100
100
100
100
100
100
100
100
100
100
100
100
100
100
100
100
100
100
100
100
389.566
368.779
348.227
328.062
308.429
289.456
271.261
253.945
237.589
222.258
207.996
194.829
182.764
171.793
161.892
153.024
145.141
138.187
132.097
126.805
122.241
118.334
115.014
112.215
109.872
107.925
106.32
105.007
103.939
103.079
102.39
101.843
101.412
101.074
100.811
100.609
100.454
100.336
100.247
100.18
100.131
100.094
100.067
100.048
100.034
100.024
100.017
100.011
100.008
100.005
100.004
100.002
100.002
100.001
100.001
100
100
100
100
100
100
100
100
100
100
100
100
100
100
100
100
100
100
100
100
389.566
368.779
348.227
328.063
308.429
289.456
271.261
253.945
237.589
222.258
207.996
194.829
182.764
171.793
161.892
153.024
145.141
138.187
132.097
126.805
122.241
118.334
115.014
112.215
109.872
107.925
106.32
105.007
103.939
103.079
102.39
101.843
101.412
101.074
100.811
100.609
100.454
100.336
100.247
100.18
100.131
100.094
100.067
100.048
100.034
100.024
100.017
100.011
100.008
100.005
100.004
100.002
100.002
100.001
100.001
100
100
100
100
100
100
100
100
100
100
100
100
100
100
100
100
100
100
100
100
389.566
368.779
348.227
328.063
308.429
289.456
271.261
253.945
237.589
222.258
207.996
194.829
182.764
171.793
161.892
153.024
145.141
138.187
132.097
126.805
122.241
118.334
115.014
112.215
109.872
107.925
106.32
105.007
103.939
103.079
102.39
101.843
101.412
101.074
100.811
100.609
100.454
100.336
100.247
100.18
100.131
100.094
100.067
100.048
100.034
100.024
100.017
100.011
100.008
100.005
100.004
100.002
100.002
100.001
100.001
100
100
100
100
100
100
100
100
100
100
100
100
100
100
100
100
100
100
100
100
389.566
368.779
348.227
328.063
308.429
289.456
271.261
253.945
237.589
222.258
207.996
194.829
182.764
171.793
161.892
153.024
145.141
138.187
132.097
126.805
122.241
118.334
115.014
112.215
109.872
107.925
106.32
105.007
103.939
103.079
102.39
101.843
101.412
101.074
100.811
100.609
100.454
100.336
100.247
100.18
100.131
100.094
100.067
100.048
100.034
100.024
100.017
100.011
100.008
100.005
100.004
100.002
100.002
100.001
100.001
100
100
100
100
100
100
100
100
100
100
100
100
100
100
100
100
100
100
100
100
389.566
368.779
348.227
328.063
308.429
289.456
271.261
253.945
237.59
222.258
207.996
194.829
182.764
171.793
161.892
153.024
145.141
138.187
132.097
126.805
122.241
118.334
115.014
112.215
109.872
107.925
106.32
105.007
103.939
103.079
102.39
101.843
101.412
101.074
100.811
100.609
100.454
100.336
100.247
100.18
100.131
100.094
100.067
100.048
100.034
100.024
100.017
100.011
100.008
100.005
100.004
100.002
100.002
100.001
100.001
100
100
100
100
100
100
100
100
100
100
100
100
100
100
100
100
100
100
100
100
389.566
368.779
348.227
328.063
308.429
289.456
271.261
253.945
237.59
222.258
207.996
194.829
182.764
171.793
161.892
153.024
145.141
138.187
132.097
126.805
122.241
118.334
115.014
112.215
109.872
107.925
106.32
105.007
103.939
103.079
102.39
101.843
101.412
101.074
100.811
100.609
100.454
100.336
100.247
100.18
100.131
100.094
100.067
100.048
100.034
100.024
100.017
100.011
100.008
100.005
100.004
100.002
100.002
100.001
100.001
100
100
100
100
100
100
100
100
100
100
100
100
100
100
100
100
100
100
100
100
389.566
368.779
348.227
328.063
308.429
289.456
271.261
253.945
237.59
222.258
207.996
194.829
182.764
171.793
161.892
153.024
145.141
138.187
132.097
126.805
122.241
118.334
115.014
112.215
109.872
107.925
106.32
105.007
103.939
103.079
102.39
101.843
101.412
101.074
100.811
100.609
100.454
100.336
100.247
100.18
100.131
100.094
100.067
100.048
100.034
100.024
100.017
100.011
100.008
100.005
100.004
100.002
100.002
100.001
100.001
100
100
100
100
100
100
100
100
100
100
100
100
100
100
100
100
100
100
100
100
389.566
368.779
348.227
328.063
308.429
289.456
271.261
253.945
237.59
222.258
207.996
194.829
182.764
171.793
161.892
153.024
145.141
138.187
132.097
126.805
122.241
118.334
115.014
112.215
109.872
107.925
106.32
105.007
103.939
103.079
102.39
101.843
101.412
101.074
100.811
100.609
100.454
100.336
100.247
100.18
100.131
100.094
100.067
100.048
100.034
100.024
100.017
100.011
100.008
100.005
100.004
100.002
100.002
100.001
100.001
100
100
100
100
100
100
100
100
100
100
100
100
100
100
100
100
100
100
100
100
389.566
368.779
348.227
328.063
308.429
289.456
271.261
253.945
237.59
222.258
207.996
194.829
182.764
171.793
161.892
153.024
145.141
138.187
132.097
126.805
122.241
118.334
115.014
112.215
109.872
107.925
106.32
105.007
103.939
103.079
102.39
101.843
101.412
101.074
100.811
100.609
100.454
100.336
100.247
100.18
100.131
100.094
100.067
100.048
100.034
100.024
100.017
100.011
100.008
100.005
100.004
100.002
100.002
100.001
100.001
100
100
100
100
100
100
100
100
100
100
100
100
100
100
100
100
100
100
100
100
389.566
368.779
348.227
328.063
308.429
289.456
271.261