/*--------------------------------*- C++ -*----------------------------------*\
  =========                 |
  \\      /  F ield         | OpenFOAM: The Open Source CFD Toolbox
   \\    /   O peration     | Website:  https://openfoam.org
    \\  /    A nd           | Version:  10
     \\/     M anipulation  |
\*---------------------------------------------------------------------------*/
FoamFile
{
    format      ascii;
    class       volScalarField;
    location    "429";
    object      T;
}
// * * * * * * * * * * * * * * * * * * * * * * * * * * * * * * * * * * * * * //

dimensions      [0 0 0 1 0 0 0];

internalField   nonuniform List<scalar> 
11250
(
249.876
167.658
139.526
127.174
120.459
116.217
113.262
111.064
109.355
107.983
106.854
105.909
105.106
104.419
103.826
103.311
102.862
102.471
102.129
101.831
101.57
101.343
101.145
100.973
100.824
100.696
100.585
100.491
100.41
100.341
100.282
100.233
100.191
100.157
100.128
100.103
100.084
100.067
100.054
100.043
100.034
100.027
100.021
100.017
100.013
100.01
100.008
100.006
100.005
100.003
100.003
100.002
100.001
100.001
100.001
100.001
100
100
100
100
100
100
100
100
100
100
100
100
100
100
100
100
100
100
100
331.601
248.889
202.806
175.893
158.915
147.379
139.042
132.721
127.748
123.724
120.398
117.604
115.226
113.185
111.42
109.887
108.551
107.384
106.364
105.472
104.694
104.015
103.424
102.911
102.466
102.082
101.752
101.468
101.226
101.019
100.844
100.697
100.572
100.468
100.382
100.31
100.25
100.201
100.161
100.129
100.102
100.081
100.063
100.05
100.039
100.03
100.023
100.018
100.014
100.01
100.008
100.006
100.004
100.003
100.002
100.002
100.001
100.001
100.001
100.001
100
100
100
100
100
100
100
100
100
100
100
100
100
100
100
359.242
293.504
246.936
214.701
191.963
175.381
162.852
153.078
145.245
138.825
133.472
128.944
125.074
121.739
118.847
116.33
114.132
112.21
110.528
109.057
107.771
106.649
105.672
104.822
104.087
103.451
102.904
102.434
102.032
101.691
101.401
101.156
100.95
100.777
100.633
100.514
100.415
100.334
100.267
100.213
100.169
100.134
100.105
100.082
100.064
100.05
100.039
100.03
100.023
100.017
100.013
100.01
100.007
100.006
100.004
100.003
100.002
100.002
100.001
100.001
100.001
100
100
100
100
100
100
100
100
100
100
100
100
100
100
371.11
318.969
276.764
244.056
218.911
199.393
183.981
171.579
161.417
152.958
145.82
139.732
134.493
129.957
126.008
122.56
119.542
116.897
114.58
112.549
110.773
109.221
107.869
106.693
105.673
104.792
104.033
103.381
102.824
102.349
101.947
101.606
101.32
101.08
100.881
100.715
100.577
100.464
100.372
100.297
100.235
100.186
100.146
100.115
100.089
100.069
100.054
100.041
100.032
100.024
100.018
100.014
100.01
100.008
100.006
100.004
100.003
100.002
100.002
100.001
100.001
100.001
100
100
100
100
100
100
100
100
100
100
100
100
100
377.35
334.523
297.138
265.909
240.308
219.389
202.205
187.955
176.014
165.902
157.259
149.814
143.36
137.736
132.818
128.507
124.723
121.399
118.479
115.917
113.673
111.71
109.997
108.506
107.213
106.094
105.13
104.303
103.594
102.991
102.479
102.046
101.682
101.376
101.122
100.91
100.736
100.592
100.474
100.378
100.3
100.237
100.187
100.146
100.114
100.089
100.068
100.053
100.04
100.031
100.023
100.018
100.013
100.01
100.007
100.005
100.004
100.003
100.002
100.002
100.001
100.001
100.001
100
100
100
100
100
100
100
100
100
100
100
100
381.127
344.669
311.412
282.211
257.121
235.767
217.625
202.171
188.94
177.547
167.68
159.092
151.584
145
139.213
134.117
129.629
125.674
122.194
119.133
116.447
114.095
112.04
110.25
108.695
107.35
106.189
105.192
104.339
103.611
102.994
102.471
102.032
101.663
101.356
101.101
100.889
100.716
100.573
100.457
100.363
100.287
100.226
100.177
100.138
100.107
100.083
100.064
100.049
100.037
100.028
100.021
100.016
100.012
100.009
100.007
100.005
100.004
100.003
100.002
100.001
100.001
100.001
100.001
100
100
100
100
100
100
100
100
100
100
100
383.632
351.655
321.696
294.498
270.314
249.071
230.519
214.342
200.223
187.873
177.04
167.513
159.115
151.7
145.146
139.35
134.224
129.695
125.697
122.175
119.078
116.361
113.985
111.912
110.111
108.55
107.203
106.045
105.053
104.207
103.488
102.88
102.368
101.939
101.581
101.284
101.038
100.835
100.669
100.534
100.424
100.335
100.264
100.207
100.161
100.125
100.097
100.074
100.057
100.043
100.033
100.025
100.019
100.014
100.01
100.008
100.006
100.004
100.003
100.002
100.002
100.001
100.001
100.001
100
100
100
100
100
100
100
100
100
100
100
385.393
356.67
329.3
303.878
280.705
259.849
241.225
224.665
209.965
196.924
185.348
175.068
165.932
157.811
150.592
144.179
138.485
133.438
128.971
125.025
121.55
118.496
115.82
113.484
111.451
109.688
108.166
106.855
105.732
104.774
103.96
103.271
102.69
102.203
101.797
101.459
101.18
100.949
100.761
100.607
100.482
100.381
100.3
100.235
100.183
100.142
100.11
100.085
100.065
100.049
100.037
100.028
100.021
100.016
100.012
100.009
100.006
100.005
100.003
100.003
100.002
100.001
100.001
100.001
100
100
100
100
100
100
100
100
100
100
100
386.683
360.387
335.047
311.133
288.936
268.583
250.083
233.363
218.309
204.784
192.652
181.778
172.041
163.329
155.542
148.593
142.399
136.891
132.002
127.674
123.853
120.49
117.539
114.959
112.711
110.76
109.073
107.621
106.375
105.311
104.407
103.641
102.995
102.454
102.002
101.626
101.314
101.058
100.848
100.677
100.538
100.425
100.335
100.262
100.205
100.159
100.123
100.094
100.072
100.055
100.042
100.032
100.024
100.018
100.013
100.01
100.007
100.005
100.004
100.003
100.002
100.001
100.001
100.001
100.001
100
100
100
100
100
100
100
100
100
100
387.654
363.208
339.47
316.812
295.497
275.673
257.399
240.664
225.412
211.563
199.02
187.687
177.466
168.266
160.001
152.591
145.963
140.049
134.785
130.114
125.981
122.337
119.135
116.332
113.886
111.761
109.923
108.338
106.978
105.816
104.827
103.989
103.283
102.69
102.195
101.783
101.442
101.161
100.931
100.743
100.59
100.467
100.367
100.288
100.225
100.174
100.135
100.104
100.079
100.061
100.046
100.035
100.026
100.02
100.015
100.011
100.008
100.006
100.004
100.003
100.002
100.002
100.001
100.001
100.001
100
100
100
100
100
100
100
100
100
100
388.401
365.39
342.923
321.303
300.759
281.444
263.44
246.774
231.433
217.374
204.537
192.853
182.248
172.65
163.985
156.185
149.182
142.913
137.319
132.344
127.933
124.036
120.607
117.6
114.974
112.69
110.712
109.005
107.54
106.286
105.219
104.315
103.552
102.912
102.376
101.931
101.562
101.258
101.009
100.805
100.64
100.506
100.398
100.312
100.244
100.189
100.146
100.113
100.086
100.066
100.05
100.038
100.028
100.021
100.016
100.012
100.009
100.006
100.005
100.003
100.002
100.002
100.001
100.001
100.001
100
100
100
100
100
100
100
100
100
100
388.984
367.101
345.651
324.885
305.003
286.153
268.429
251.88
236.519
222.333
209.289
197.34
186.435
176.514
167.519
159.39
152.067
145.492
139.61
134.366
129.709
125.587
121.953
118.764
115.974
113.546
111.44
109.622
108.059
106.722
105.583
104.618
103.803
103.118
102.545
102.068
101.674
101.348
101.081
100.863
100.686
100.543
100.427
100.335
100.261
100.203
100.157
100.121
100.093
100.071
100.054
100.04
100.03
100.023
100.017
100.013
100.009
100.007
100.005
100.004
100.003
100.002
100.001
100.001
100.001
100
100
100
100
100
100
100
100
100
100
389.445
368.457
347.826
327.762
308.443
290.007
272.552
256.141
240.804
226.549
213.363
201.218
190.078
179.898
170.632
162.228
154.634
147.798
141.666
136.188
131.313
126.992
123.177
119.823
116.887
114.328
112.107
110.188
108.537
107.124
105.919
104.897
104.034
103.308
102.701
102.196
101.777
101.432
101.149
100.917
100.729
100.577
100.454
100.356
100.278
100.216
100.167
100.129
100.098
100.075
100.057
100.043
100.032
100.024
100.018
100.013
100.01
100.007
100.005
100.004
100.003
100.002
100.001
100.001
100.001
100.001
100
100
100
100
100
100
100
100
100
389.813
369.542
349.572
330.086
311.241
293.166
275.96
259.693
244.406
230.122
216.841
204.551
193.23
182.845
173.358
164.726
156.904
149.845
143.499
137.818
132.753
128.256
124.281
120.782
117.715
115.039
112.714
110.704
108.974
107.491
106.227
105.153
104.246
103.483
102.845
102.314
101.873
101.509
101.211
100.967
100.769
100.608
100.479
100.376
100.293
100.228
100.176
100.136
100.104
100.079
100.06
100.045
100.034
100.026
100.019
100.014
100.01
100.008
100.006
100.004
100.003
100.002
100.002
100.001
100.001
100.001
100
100
100
100
100
100
100
100
100
390.109
370.415
350.982
331.971
313.524
295.761
278.78
262.652
247.429
233.14
219.799
207.405
195.946
185.397
175.731
166.912
158.899
151.651
145.122
139.266
134.036
129.387
125.27
121.643
118.46
115.68
113.263
111.171
109.37
107.825
106.506
105.386
104.44
103.643
102.977
102.421
101.96
101.58
101.268
101.013
100.805
100.637
100.502
100.394
100.308
100.239
100.185
100.142
100.109
100.083
100.063
100.048
100.036
100.027
100.02
100.015
100.011
100.008
100.006
100.004
100.003
100.002
100.002
100.001
100.001
100.001
100
100
100
100
100
100
100
100
100
390.348
371.121
352.126
333.506
315.391
297.895
281.112
265.115
249.96
235.684
222.307
209.839
198.273
187.597
177.786
168.813
160.642
153.235
146.55
140.545
135.173
130.391
126.152
122.412
119.127
116.255
113.756
111.592
109.726
108.126
106.759
105.598
104.615
103.788
103.096
102.519
102.04
101.645
101.32
101.055
100.839
100.664
100.523
100.41
100.32
100.249
100.193
100.148
100.114
100.087
100.066
100.05
100.037
100.028
100.021
100.015
100.011
100.008
100.006
100.004
100.003
100.002
100.002
100.001
100.001
100.001
100
100
100
100
100
100
100
100
100
390.541
371.694
353.056
334.758
316.921
299.652
283.041
267.163
252.076
237.822
224.427
211.906
200.261
189.483
179.557
170.458
162.156
154.616
147.8
141.667
136.175
131.278
126.932
123.094
119.72
116.768
114.197
111.968
110.046
108.396
106.986
105.788
104.773
103.919
103.204
102.607
102.112
101.703
101.367
101.092
100.869
100.688
100.542
100.425
100.332
100.258
100.2
100.154
100.118
100.09
100.068
100.052
100.039
100.029
100.022
100.016
100.012
100.009
100.006
100.005
100.003
100.002
100.002
100.001
100.001
100.001
100
100
100
100
100
100
100
100
100
390.699
372.16
353.814
335.782
318.175
301.097
284.636
268.864
253.842
239.614
226.213
213.656
201.951
191.095
181.076
171.874
163.464
155.814
148.888
142.647
137.051
132.056
127.619
123.696
120.244
117.222
114.587
112.303
110.331
108.637
107.189
105.957
104.915
104.037
103.3
102.686
102.177
101.756
101.41
101.127
100.896
100.71
100.559
100.439
100.343
100.267
100.206
100.159
100.122
100.093
100.071
100.053
100.04
100.03
100.022
100.017
100.012
100.009
100.007
100.005
100.003
100.003
100.002
100.001
100.001
100.001
100
100
100
100
100
100
100
100
100
390.827
372.54
354.433
336.619
319.205
302.288
285.953
270.275
255.313
241.114
227.713
215.132
203.382
192.465
182.372
173.088
164.589
156.847
149.829
143.498
137.814
132.735
128.219
124.224
120.705
117.621
114.932
112.598
110.583
108.851
107.369
106.108
105.041
104.141
103.387
102.757
102.234
101.803
101.448
101.157
100.921
100.729
100.575
100.451
100.352
100.274
100.212
100.163
100.125
100.096
100.073
100.055
100.041
100.031
100.023
100.017
100.013
100.009
100.007
100.005
100.004
100.003
100.002
100.001
100.001
100.001
100
100
100
100
100
100
100
100
100
390.931
372.85
354.939
337.304
320.049
303.267
287.041
271.444
256.535
242.365
228.969
216.373
204.59
193.626
183.475
174.123
165.552
157.734
150.64
144.232
138.474
133.325
128.742
124.684
121.107
117.971
115.234
112.858
110.805
109.039
107.528
106.242
105.152
104.234
103.463
102.82
102.286
101.844
101.481
101.184
100.943
100.747
100.589
100.462
100.361
100.281
100.217
100.167
100.128
100.098
100.074
100.056
100.042
100.032
100.024
100.018
100.013
100.01
100.007
100.005
100.004
100.003
100.002
100.001
100.001
100.001
100
100
100
100
100
100
100
100
100
391.016
373.103
355.352
337.865
320.742
304.072
287.938
272.41
257.55
243.407
230.019
217.413
205.606
194.605
184.407
175.002
166.372
158.492
151.334
144.863
139.043
133.833
129.194
125.082
121.457
118.276
115.498
113.085
110.998
109.204
107.668
106.359
105.25
104.315
103.531
102.876
102.331
101.881
101.511
101.209
100.962
100.762
100.601
100.472
100.369
100.287
100.222
100.171
100.131
100.1
100.076
100.057
100.043
100.032
100.024
100.018
100.013
100.01
100.007
100.005
100.004
100.003
100.002
100.001
100.001
100.001
100
100
100
100
100
100
100
100
100
391.086
373.31
355.689
338.324
321.309
304.733
288.676
273.207
258.389
244.271
230.892
218.282
206.457
195.428
185.194
175.745
167.067
159.136
151.926
145.402
139.53
134.27
129.583
125.426
121.759
118.539
115.726
113.282
111.167
109.347
107.789
106.462
105.336
104.387
103.59
102.924
102.371
101.914
101.538
101.23
100.979
100.776
100.612
100.48
100.375
100.292
100.226
100.174
100.134
100.102
100.077
100.059
100.044
100.033
100.025
100.018
100.013
100.01
100.007
100.005
100.004
100.003
100.002
100.001
100.001
100.001
100.001
100
100
100
100
100
100
100
100
391.143
373.478
355.965
338.699
321.774
305.275
289.282
273.864
259.082
244.987
231.618
219.005
207.168
196.117
185.854
176.371
167.654
159.682
152.428
145.86
139.945
134.643
129.916
125.721
122.018
118.766
115.923
113.452
111.313
109.472
107.895
106.551
105.411
104.449
103.641
102.967
102.406
101.942
101.561
101.248
100.994
100.788
100.621
100.488
100.381
100.297
100.23
100.177
100.136
100.104
100.079
100.06
100.045
100.034
100.025
100.019
100.014
100.01
100.007
100.005
100.004
100.003
100.002
100.001
100.001
100.001
100.001
100
100
100
100
100
100
100
100
391.189
373.616
356.189
339.005
322.153
305.719
289.779
274.404
259.653
245.578
232.218
219.605
207.759
196.692
186.406
176.895
168.147
160.141
152.851
146.248
140.297
134.96
130.199
125.973
122.24
118.96
116.092
113.598
111.439
109.579
107.986
106.627
105.475
104.503
103.686
103.004
102.436
101.967
101.581
101.265
101.007
100.798
100.63
100.494
100.386
100.301
100.233
100.179
100.138
100.105
100.08
100.06
100.045
100.034
100.025
100.019
100.014
100.01
100.007
100.005
100.004
100.003
100.002
100.001
100.001
100.001
100.001
100
100
100
100
100
100
100
100
391.226
373.727
356.372
339.254
322.463
306.081
290.186
274.847
260.122
246.064
232.713
220.101
208.249
197.169
186.866
177.333
168.56
160.526
153.207
146.575
140.594
135.228
130.439
126.186
122.429
119.126
116.237
113.723
111.546
109.671
108.064
106.693
105.531
104.549
103.724
103.035
102.462
101.988
101.598
101.279
101.018
100.807
100.637
100.5
100.391
100.304
100.235
100.181
100.139
100.106
100.081
100.061
100.046
100.034
100.026
100.019
100.014
100.01
100.008
100.006
100.004
100.003
100.002
100.001
100.001
100.001
100.001
100
100
100
100
100
100
100
100
391.257
373.818
356.521
339.457
322.715
306.377
290.519
275.209
260.507
246.464
233.121
220.51
208.654
197.564
187.247
177.697
168.903
160.847
153.505
146.848
140.843
135.454
130.642
126.367
122.588
119.266
116.359
113.829
111.637
109.749
108.13
106.75
105.578
104.589
103.757
103.063
102.485
102.007
101.613
101.291
101.028
100.815
100.643
100.505
100.395
100.307
100.238
100.183
100.141
100.107
100.082
100.062
100.046
100.035
100.026
100.019
100.014
100.01
100.008
100.006
100.004
100.003
100.002
100.001
100.001
100.001
100.001
100
100
100
100
100
100
100
100
391.281
373.891
356.641
339.622
322.92
306.617
290.789
275.504
260.82
246.79
233.455
220.846
208.987
197.89
187.562
177.998
169.188
161.115
153.754
147.077
141.052
135.643
130.811
126.518
122.722
119.384
116.462
113.918
111.715
109.815
108.187
106.798
105.618
104.622
103.786
103.086
102.504
102.022
101.626
101.301
101.036
100.822
100.648
100.509
100.398
100.31
100.24
100.185
100.142
100.108
100.082
100.062
100.047
100.035
100.026
100.019
100.014
100.011
100.008
100.006
100.004
100.003
100.002
100.002
100.001
100.001
100.001
100
100
100
100
100
100
100
100
391.301
373.951
356.739
339.755
323.086
306.812
291.009
275.744
261.076
247.057
233.728
221.121
209.26
198.158
187.821
178.247
169.424
161.336
153.959
147.267
141.225
135.8
130.953
126.645
122.835
119.483
116.549
113.994
111.78
109.871
108.235
106.838
105.652
104.651
103.809
103.106
102.52
102.036
101.637
101.31
101.043
100.827
100.653
100.513
100.401
100.312
100.242
100.186
100.143
100.109
100.083
100.063
100.047
100.035
100.026
100.02
100.014
100.011
100.008
100.006
100.004
100.003
100.002
100.002
100.001
100.001
100.001
100
100
100
100
100
100
100
100
391.318
373.999
356.817
339.862
323.22
306.97
291.187
275.938
261.284
247.274
233.95
221.345
209.483
198.377
188.034
178.451
169.618
161.518
154.129
147.423
141.369
135.931
131.071
126.75
122.928
119.565
116.621
114.057
111.834
109.918
108.275
106.872
105.681
104.675
103.829
103.122
102.534
102.047
101.646
101.317
101.05
100.832
100.657
100.516
100.403
100.314
100.243
100.187
100.144
100.11
100.083
100.063
100.048
100.036
100.027
100.02
100.015
100.011
100.008
100.006
100.004
100.003
100.002
100.002
100.001
100.001
100.001
100
100
100
100
100
100
100
100
391.33
374.037
356.881
339.949
323.328
307.097
291.33
276.096
261.452
247.449
234.13
221.528
209.664
198.556
188.207
178.617
169.776
161.667
154.269
147.552
141.487
136.038
131.168
126.837
123.006
119.634
116.681
114.109
111.88
109.957
108.308
106.9
105.705
104.695
103.846
103.136
102.546
102.057
101.654
101.324
101.055
100.836
100.66
100.518
100.405
100.315
100.244
100.188
100.145
100.11
100.084
100.063
100.048
100.036
100.027
100.02
100.015
100.011
100.008
100.006
100.004
100.003
100.002
100.002
100.001
100.001
100.001
100
100
100
100
100
100
100
100
391.341
374.068
356.931
340.019
323.415
307.199
291.446
276.222
261.587
247.591
234.276
221.675
209.812
198.701
188.349
178.753
169.906
161.789
154.383
147.658
141.584
136.127
131.248
126.909
123.07
119.691
116.731
114.153
111.917
109.99
108.336
106.924
105.725
104.712
103.86
103.148
102.555
102.065
101.66
101.329
101.059
100.84
100.663
100.521
100.407
100.317
100.245
100.189
100.145
100.111
100.084
100.064
100.048
100.036
100.027
100.02
100.015
100.011
100.008
100.006
100.004
100.003
100.002
100.002
100.001
100.001
100.001
100
100
100
100
100
100
100
100
391.349
374.093
356.972
340.074
323.484
307.281
291.539
276.324
261.696
247.705
234.394
221.794
209.931
198.818
188.463
178.864
170.011
161.889
154.476
147.744
141.664
136.199
131.314
126.968
123.123
119.737
116.772
114.188
111.949
110.017
108.359
106.944
105.742
104.726
103.872
103.158
102.563
102.071
101.666
101.333
101.062
100.843
100.665
100.522
100.409
100.318
100.246
100.19
100.146
100.111
100.085
100.064
100.048
100.036
100.027
100.02
100.015
100.011
100.008
100.006
100.004
100.003
100.002
100.002
100.001
100.001
100.001
100
100
100
100
100
100
100
100
391.356
374.113
357.005
340.119
323.54
307.347
291.613
276.406
261.783
247.797
234.488
221.89
210.026
198.913
188.555
178.953
170.096
161.969
154.551
147.814
141.728
136.258
131.367
127.016
123.166
119.775
116.806
114.218
111.974
110.039
108.378
106.96
105.755
104.738
103.882
103.166
102.57
102.077
101.67
101.337
101.065
100.845
100.667
100.524
100.41
100.319
100.247
100.19
100.146
100.112
100.085
100.064
100.048
100.036
100.027
100.02
100.015
100.011
100.008
100.006
100.004
100.003
100.002
100.002
100.001
100.001
100.001
100
100
100
100
100
100
100
100
391.361
374.128
357.03
340.154
323.584
307.399
291.672
276.471
261.853
247.87
234.564
221.967
210.103
198.989
188.629
179.024
170.164
162.034
154.612
147.871
141.781
136.306
131.411
127.055
123.201
119.806
116.833
114.242
111.995
110.057
108.393
106.973
105.767
104.747
103.89
103.172
102.575
102.081
101.674
101.34
101.068
100.847
100.669
100.525
100.411
100.32
100.248
100.191
100.147
100.112
100.085
100.064
100.048
100.036
100.027
100.02
100.015
100.011
100.008
100.006
100.004
100.003
100.002
100.002
100.001
100.001
100.001
100
100
100
100
100
100
100
100
391.365
374.141
357.051
340.182
323.619
307.441
291.719
276.523
261.909
247.928
234.624
222.028
210.164
199.049
188.689
179.082
170.219
162.086
154.661
147.917
141.823
136.345
131.446
127.087
123.229
119.832
116.855
114.261
112.012
110.071
108.406
106.984
105.776
104.755
103.896
103.178
102.58
102.085
101.677
101.343
101.07
100.848
100.67
100.526
100.412
100.32
100.248
100.191
100.147
100.112
100.085
100.065
100.049
100.036
100.027
100.02
100.015
100.011
100.008
100.006
100.004
100.003
100.002
100.002
100.001
100.001
100.001
100
100
100
100
100
100
100
100
391.369
374.151
357.067
340.205
323.647
307.473
291.757
276.563
261.953
247.975
234.672
222.076
210.213
199.097
188.736
179.127
170.263
162.128
154.7
147.953
141.856
136.376
131.474
127.112
123.252
119.852
116.873
114.277
112.026
110.083
108.416
106.993
105.783
104.761
103.901
103.182
102.584
102.088
101.679
101.345
101.071
100.85
100.671
100.527
100.412
100.321
100.249
100.192
100.147
100.112
100.085
100.065
100.049
100.036
100.027
100.02
100.015
100.011
100.008
100.006
100.004
100.003
100.002
100.002
100.001
100.001
100.001
100
100
100
100
100
100
100
100
391.371
374.159
357.08
340.222
323.669
307.499
291.786
276.596
261.987
248.011
234.709
222.115
210.252
199.136
188.773
179.164
170.298
162.161
154.731
147.982
141.883
136.4
131.496
127.133
123.27
119.868
116.888
114.29
112.037
110.093
108.424
107
105.789
104.766
103.906
103.186
102.587
102.09
101.681
101.346
101.073
100.851
100.672
100.528
100.413
100.321
100.249
100.192
100.147
100.113
100.086
100.065
100.049
100.037
100.027
100.02
100.015
100.011
100.008
100.006
100.004
100.003
100.002
100.002
100.001
100.001
100.001
100
100
100
100
100
100
100
100
391.373
374.165
357.09
340.236
323.686
307.52
291.809
276.621
262.015
248.04
234.739
222.145
210.282
199.166
188.803
179.192
170.326
162.187
154.756
148.005
141.905
136.42
131.514
127.149
123.284
119.881
116.899
114.3
112.045
110.1
108.431
107.005
105.794
104.77
103.909
103.189
102.589
102.092
101.683
101.347
101.074
100.852
100.672
100.528
100.413
100.322
100.249
100.192
100.147
100.113
100.086
100.065
100.049
100.037
100.027
100.02
100.015
100.011
100.008
100.006
100.004
100.003
100.002
100.002
100.001
100.001
100.001
100
100
100
100
100
100
100
100
391.375
374.169
357.098
340.247
323.7
307.535
291.827
276.641
262.036
248.062
234.762
222.169
210.306
199.19
188.826
179.215
170.347
162.208
154.775
148.024
141.922
136.436
131.528
127.162
123.296
119.891
116.908
114.308
112.052
110.107
108.436
107.01
105.798
104.773
103.912
103.191
102.591
102.094
101.684
101.349
101.075
100.852
100.673
100.529
100.414
100.322
100.249
100.192
100.148
100.113
100.086
100.065
100.049
100.037
100.027
100.02
100.015
100.011
100.008
100.006
100.004
100.003
100.002
100.002
100.001
100.001
100.001
100
100
100
100
100
100
100
100
391.376
374.173
357.104
340.255
323.71
307.548
291.841
276.657
262.053
248.08
234.781
222.188
210.325
199.208
188.845
179.233
170.364
162.224
154.791
148.038
141.935
136.448
131.54
127.172
123.305
119.9
116.915
114.314
112.058
110.111
108.44
107.013
105.801
104.776
103.914
103.193
102.592
102.095
101.685
101.349
101.075
100.853
100.673
100.529
100.414
100.322
100.25
100.192
100.148
100.113
100.086
100.065
100.049
100.037
100.027
100.02
100.015
100.011
100.008
100.006
100.004
100.003
100.002
100.002
100.001
100.001
100.001
100
100
100
100
100
100
100
100
391.377
374.176
357.109
340.261
323.718
307.557
291.852
276.669
262.066
248.094
234.795
222.202
210.34
199.223
188.859
179.247
170.378
162.237
154.803
148.049
141.946
136.457
131.548
127.18
123.312
119.906
116.921
114.319
112.062
110.115
108.444
107.016
105.803
104.778
103.916
103.194
102.594
102.096
101.686
101.35
101.076
100.853
100.674
100.529
100.414
100.322
100.25
100.193
100.148
100.113
100.086
100.065
100.049
100.037
100.027
100.02
100.015
100.011
100.008
100.006
100.004
100.003
100.002
100.002
100.001
100.001
100.001
100
100
100
100
100
100
100
100
391.378
374.178
357.112
340.266
323.724
307.565
291.861
276.678
262.076
248.104
234.806
222.213
210.351
199.234
188.87
179.258
170.388
162.247
154.812
148.058
141.954
136.465
131.555
127.186
123.318
119.911
116.926
114.323
112.066
110.118
108.446
107.019
105.805
104.78
103.917
103.195
102.595
102.097
101.687
101.351
101.076
100.854
100.674
100.53
100.414
100.322
100.25
100.193
100.148
100.113
100.086
100.065
100.049
100.037
100.027
100.02
100.015
100.011
100.008
100.006
100.004
100.003
100.002
100.002
100.001
100.001
100.001
100
100
100
100
100
100
100
100
391.378
374.18
357.115
340.27
323.729
307.571
291.867
276.685
262.084
248.113
234.814
222.222
210.36
199.243
188.879
179.266
170.396
162.255
154.82
148.065
141.96
136.471
131.561
127.191
123.322
119.915
116.929
114.326
112.069
110.121
108.448
107.02
105.807
104.781
103.918
103.196
102.595
102.098
101.687
101.351
101.077
100.854
100.674
100.53
100.414
100.323
100.25
100.193
100.148
100.113
100.086
100.065
100.049
100.037
100.027
100.02
100.015
100.011
100.008
100.006
100.004
100.003
100.002
100.002
100.001
100.001
100.001
100
100
100
100
100
100
100
100
391.379
374.181
357.117
340.273
323.733
307.575
291.872
276.691
262.09
248.119
234.821
222.229
210.366
199.25
188.885
179.272
170.403
162.261
154.825
148.07
141.965
136.475
131.565
127.195
123.326
119.918
116.932
114.329
112.071
110.122
108.45
107.022
105.808
104.782
103.919
103.197
102.596
102.098
101.688
101.351
101.077
100.854
100.674
100.53
100.415
100.323
100.25
100.193
100.148
100.113
100.086
100.065
100.049
100.037
100.027
100.02
100.015
100.011
100.008
100.006
100.004
100.003
100.002
100.002
100.001
100.001
100.001
100
100
100
100
100
100
100
100
391.379
374.182
357.119
340.276
323.736
307.578
291.876
276.695
262.094
248.124
234.826
222.234
210.372
199.255
188.89
179.277
170.407
162.265
154.829
148.074
141.969
136.479
131.568
127.198
123.328
119.92
116.934
114.33
112.072
110.124
108.451
107.023
105.809
104.783
103.92
103.198
102.596
102.098
101.688
101.352
101.077
100.854
100.675
100.53
100.415
100.323
100.25
100.193
100.148
100.113
100.086
100.065
100.049
100.037
100.027
100.02
100.015
100.011
100.008
100.006
100.004
100.003
100.002
100.002
100.001
100.001
100.001
100
100
100
100
100
100
100
100
391.379
374.183
357.12
340.277
323.738
307.581
291.879
276.698
262.098
248.127
234.83
222.238
210.376
199.259
188.894
179.281
170.411
162.269
154.833
148.077
141.972
136.482
131.571
127.2
123.331
119.922
116.936
114.332
112.074
110.125
108.452
107.024
105.81
104.783
103.92
103.198
102.597
102.099
101.688
101.352
101.077
100.855
100.675
100.53
100.415
100.323
100.25
100.193
100.148
100.113
100.086
100.065
100.049
100.037
100.027
100.02
100.015
100.011
100.008
100.006
100.004
100.003
100.002
100.002
100.001
100.001
100.001
100
100
100
100
100
100
100
100
391.38
374.184
357.121
340.279
323.74
307.583
291.881
276.701
262.1
248.13
234.833
222.241
210.379
199.262
188.897
179.284
170.414
162.271
154.835
148.08
141.974
136.484
131.572
127.202
123.332
119.924
116.937
114.333
112.075
110.126
108.453
107.024
105.81
104.784
103.921
103.198
102.597
102.099
101.688
101.352
101.077
100.855
100.675
100.53
100.415
100.323
100.25
100.193
100.148
100.113
100.086
100.065
100.049
100.037
100.027
100.02
100.015
100.011
100.008
100.006
100.004
100.003
100.002
100.002
100.001
100.001
100.001
100
100
100
100
100
100
100
100
391.38
374.184
357.122
340.28
323.741
307.584
291.883
276.703
262.102
248.132
234.835
222.243
210.381
199.264
188.899
179.286
170.416
162.273
154.837
148.082
141.976
136.485
131.574
127.203
123.333
119.925
116.938
114.334
112.075
110.127
108.454
107.025
105.811
104.784
103.921
103.199
102.597
102.099
101.689
101.352
101.078
100.855
100.675
100.53
100.415
100.323
100.25
100.193
100.148
100.113
100.086
100.065
100.049
100.037
100.027
100.02
100.015
100.011
100.008
100.006
100.004
100.003
100.002
100.002
100.001
100.001
100.001
100
100
100
100
100
100
100
100
391.38
374.184
357.122
340.28
323.742
307.585
291.884
276.704
262.104
248.134
234.837
222.245
210.383
199.266
188.901
179.288
170.417
162.275
154.839
148.083
141.977
136.486
131.575
127.204
123.334
119.925
116.939
114.334
112.076
110.127
108.454
107.025
105.811
104.784
103.921
103.199
102.597
102.099
101.689
101.352
101.078
100.855
100.675
100.53
100.415
100.323
100.25
100.193
100.148
100.113
100.086
100.065
100.049
100.037
100.027
100.02
100.015
100.011
100.008
100.006
100.004
100.003
100.002
100.002
100.001
100.001
100.001
100
100
100
100
100
100
100
100
391.38
374.185
357.123
340.281
323.743
307.586
291.885
276.705
262.105
248.135
234.838
222.246
210.384
199.267
188.902
179.289
170.419
162.276
154.84
148.084
141.978
136.487
131.576
127.205
123.335
119.926
116.939
114.335
112.076
110.127
108.454
107.025
105.811
104.785
103.921
103.199
102.597
102.099
101.689
101.352
101.078
100.855
100.675
100.53
100.415
100.323
100.25
100.193
100.148
100.113
100.086
100.065
100.049
100.037
100.027
100.02
100.015
100.011
100.008
100.006
100.004
100.003
100.002
100.002
100.001
100.001
100.001
100
100
100
100
100
100
100
100
391.38
374.185
357.123
340.281
323.743
307.587
291.886
276.706
262.106
248.136
234.839
222.247
210.385
199.268
188.903
179.29
170.42
162.277
154.841
148.085
141.979
136.488
131.576
127.205
123.335
119.927
116.939
114.335
112.077
110.128
108.455
107.026
105.811
104.785
103.921
103.199
102.598
102.099
101.689
101.352
101.078
100.855
100.675
100.53
100.415
100.323
100.25
100.193
100.148
100.113
100.086
100.065
100.049
100.037
100.027
100.02
100.015
100.011
100.008
100.006
100.004
100.003
100.002
100.002
100.001
100.001
100.001
100
100
100
100
100
100
100
100
391.38
374.185
357.123
340.282
323.743
307.587
291.886
276.706
262.106
248.137
234.839
222.248
210.386
199.269
188.904
179.291
170.42
162.277
154.841
148.085
141.979
136.488
131.577
127.206
123.336
119.927
116.94
114.336
112.077
110.128
108.455
107.026
105.811
104.785
103.922
103.199
102.598
102.099
101.689
101.352
101.078
100.855
100.675
100.53
100.415
100.323
100.25
100.193
100.148
100.113
100.086
100.065
100.049
100.037
100.027
100.02
100.015
100.011
100.008
100.006
100.004
100.003
100.002
100.002
100.001
100.001
100.001
100
100
100
100
100
100
100
100
391.38
374.185
357.123
340.282
323.744
307.588
291.887
276.707
262.107
248.137
234.84
222.248
210.386
199.269
188.905
179.291
170.421
162.278
154.842
148.086
141.979
136.489
131.577
127.206
123.336
119.927
116.94
114.336
112.077
110.128
108.455
107.026
105.811
104.785
103.922
103.199
102.598
102.099
101.689
101.352
101.078
100.855
100.675
100.53
100.415