/*--------------------------------*- C++ -*----------------------------------*\
  =========                 |
  \\      /  F ield         | OpenFOAM: The Open Source CFD Toolbox
   \\    /   O peration     | Website:  https://openfoam.org
    \\  /    A nd           | Version:  10
     \\/     M anipulation  |
\*---------------------------------------------------------------------------*/
FoamFile
{
    format      ascii;
    class       volScalarField;
    location    "1700";
    object      gradTx;
}
// * * * * * * * * * * * * * * * * * * * * * * * * * * * * * * * * * * * * * //

dimensions      [0 -1 0 1 0 0 0];

internalField   nonuniform List<scalar> 
11250
(
14319.3
8162.02
5406.21
3960.29
3097.49
2530.31
2129.99
1832.12
1601.44
1417.13
1266.17
1140.01
1032.79
940.385
859.809
788.834
725.774
669.328
618.474
572.402
530.459
492.115
456.93
424.544
394.649
366.991
341.348
317.534
295.385
274.759
255.532
237.595
220.85
205.21
190.598
176.943
164.18
152.252
141.105
130.69
120.96
111.875
103.394
95.4804
88.1003
81.221
74.8122
68.845
63.2922
58.1282
53.3285
48.87
44.7306
40.8896
37.3269
34.0236
30.9616
28.1237
25.4934
23.0549
20.7933
18.6941
16.7434
14.9281
13.2355
11.6532
10.1694
8.77278
7.45218
6.19684
4.99627
3.8402
2.71854
1.62136
0.538829
4115.05
4760.62
4096.38
3377.26
2801.97
2363.6
2027.68
1765.11
1555.26
1384
1241.62
1121.32
1018.24
928.853
850.518
781.244
719.499
664.085
614.054
568.645
527.243
489.343
454.529
422.452
392.819
365.383
339.93
316.279
294.271
273.768
254.649
236.805
220.143
204.576
190.029
176.431
163.719
151.837
140.73
130.351
120.655
111.599
103.144
95.2546
87.896
81.0363
74.6451
68.6938
63.1555
58.0046
53.2168
48.7691
44.6396
40.8074
37.2528
33.9569
30.9016
28.0697
25.4449
23.0115
20.7545
18.6595
16.7127
14.9009
13.2115
11.6322
10.1512
8.75717
7.43898
6.1859
4.98748
3.83346
2.71378
1.61853
0.537887
1495.36
2669.08
2841.47
2650.51
2369.62
2094.56
1852.19
1645.57
1470.69
1322.22
1195.23
1085.66
990.289
906.559
832.473
766.449
707.231
653.811
605.373
561.253
520.905
483.875
449.785
418.316
389.197
362.198
337.12
313.791
292.063
271.802
252.895
235.237
218.738
203.316
188.897
175.412
162.802
151.01
139.984
129.678
120.046
111.049
102.647
94.8048
87.4892
80.6683
74.3122
68.3927
62.8832
57.7584
52.9942
48.568
44.458
40.6436
37.1051
33.8238
30.7818
27.9621
25.3483
22.925
20.6771
18.5905
16.6514
14.8467
13.1637
11.5904
10.1149
8.72603
7.41264
6.16409
4.96995
3.82002
2.70428
1.61287
0.536009
692.667
1578.91
1949.98
2013.76
1931.55
1792.98
1641.09
1494.45
1359.92
1239.16
1131.65
1036.07
950.966
874.915
806.674
745.172
689.502
638.903
592.734
550.461
511.628
475.855
442.814
412.228
383.859
357.498
332.969
310.113
288.794
268.89
250.295
232.912
216.654
201.445
187.215
173.899
161.438
149.78
138.874
128.675
119.14
110.23
101.906
94.135
86.8832
80.12
73.8161
67.9439
62.4772
57.3913
52.6624
48.2682
44.1872
40.3992
36.8847
33.6252
30.6031
27.8014
25.2042
22.7958
20.5617
18.4875
16.5599
14.7657
13.0924
11.528
10.0608
8.67953
7.37331
6.13151
4.94377
3.79995
2.6901
1.60442
0.533203
389.08
1003.95
1365.84
1523.08
1549.96
1504.85
1424.91
1331.39
1235.58
1143.08
1056.36
976.277
902.859
835.752
774.444
718.385
667.038
619.911
576.561
536.596
499.671
465.487
433.781
404.323
376.913
351.373
327.55
305.305
284.516
265.076
246.886
229.859
213.917
198.987
185.003
171.907
159.643
148.16
137.412
127.354
117.946
109.149
100.929
93.2508
86.083
79.3958
73.1607
67.3508
61.9407
56.906
52.2236
47.8716
43.829
40.0759
36.5931
33.3625
30.3666
27.5888
25.0133
22.6248
20.4088
18.3512
16.4387
14.6584
12.9979
11.4453
9.98904
8.61795
7.32123
6.08836
4.90909
3.77336
2.67132
1.59323
0.529487
248.8
681.99
986.419
1162.86
1240.46
1251.67
1222.46
1170.78
1108.13
1041.42
974.675
910.071
848.715
791.079
737.272
687.204
640.688
597.49
557.36
520.058
485.351
453.026
422.89
394.766
368.495
343.935
320.957
299.445
279.296
260.414
242.715
226.121
210.56
195.969
182.287
169.459
157.435
146.167
135.611
125.726
116.473
107.817
99.7234
92.1594
85.095
78.5013
72.351
66.6179
61.2774
56.3059
51.681
47.3811
43.386
39.6759
36.2323
33.0372
30.0738
27.3256
24.777
22.4131
20.2195
18.1824
16.2886
14.5256
12.8809
11.3429
9.90014
8.54163
7.25667
6.03488
4.8661
3.7404
2.64803
1.57936
0.52488
172.941
488.829
735.05
901.547
997.446
1039.06
1042.62
1021.34
984.919
940.032
891.08
840.868
791.124
742.866
696.662
652.79
611.353
572.342
535.689
501.289
469.021
438.758
410.375
383.748
358.764
335.315
313.299
292.626
273.209
254.971
237.838
221.743
206.626
192.428
179.096
166.581
154.837
143.819
133.489
123.806
114.736
106.245
98.2995
90.8699
83.9272
77.4436
71.3931
65.7506
60.4923
55.5955
51.0383
46.8001
42.8609
39.2017
35.8045
32.6516
29.7266
27.0134
24.4967
22.1618
19.9948
17.982
16.1105
14.3678
12.742
11.2213
9.79456
8.45099
7.18001
5.97136
4.81504
3.70126
2.62037
1.56289
0.519408
127.086
365.372
563.464
710.918
808.827
864.625
887.767
887.211
870.37
842.917
808.978
771.451
732.313
692.884
654.02
616.258
579.919
545.178
512.116
480.75
451.057
422.99
396.487
371.479
347.893
325.657
304.698
284.949
266.344
248.819
232.317
216.781
202.159
188.403
175.465
163.303
151.874
141.141
131.065
121.612
112.75
104.445
96.6692
89.3928
82.5887
76.2308
70.2943
64.7553
59.591
54.7796
50.3
46.1323
42.2573
38.6566
35.3125
32.208
29.3271
26.654
24.174
21.8726
19.736
17.7512
15.9053
14.1861
12.5819
11.0811
9.67292
8.34654
7.09165
5.89815
4.75619
3.65613
2.58848
1.54389
0.5131
97.1305
282.143
442.573
569.918
662.424
722.976
756.763
769.536
766.625
752.5
730.696
703.892
674.061
642.621
610.575
578.616
547.212
516.674
487.197
458.897
431.835
406.033
381.486
358.174
336.063
315.114
295.283
276.525
258.792
242.039
226.221
211.292
197.212
183.939
171.433
159.658
148.577
138.156
128.362
119.164
110.531
102.434
94.8459
87.7396
81.0899
74.8721
69.0627
63.6392
58.5799
53.8638
49.4711
45.3824
41.5793
38.0439
34.7594
31.7092
28.8777
26.2498
23.8109
21.547
19.4448
17.4914
15.6742
13.9815
12.4016
10.9233
9.53586
8.22886
6.99209
5.81565
4.68987
3.60528
2.55255
1.52249
0.50599
76.4346
223.534
354.825
463.839
548.078
608.219
646.918
667.717
674.281
669.971
657.641
639.606
617.68
593.245
567.339
540.727
513.963
487.443
461.446
436.162
411.717
388.191
365.628
344.049
323.457
303.843
285.187
267.466
250.653
234.715
219.622
205.34
191.837
179.082
167.04
155.682
144.976
134.893
125.405
116.482
108.098
100.227
92.8438
85.9233
79.4421
73.3774
67.7071
62.4101
57.4659
52.8545
48.5571
44.5551
40.831
37.3677
34.1487
31.1583
28.3813
25.8031
23.4095
21.1871
19.1227
17.204
15.4186
13.7551
12.202
10.7486
9.38416
8.09857
6.88185
5.7243
4.61643
3.54896
2.51275
1.49878
0.498115
61.5202
180.766
289.411
382.617
457.931
515.029
555.121
580.297
593.001
595.668
590.517
579.457
564.067
545.616
525.102
503.296
480.788
458.02
435.323
412.938
391.04
369.752
349.159
329.316
310.256
291.997
274.542
257.888
242.023
226.931
212.594
198.989
186.092
173.881
162.329
151.412
141.104
131.381
122.217
113.589
105.472
97.8426
90.6786
83.9574
77.6574
71.7575
66.2372
61.0766
56.2565
51.7583
47.5639
43.6559
40.0173
36.632
33.4841
30.5586
27.8407
25.3164
22.9722
20.7948
18.7717
16.8906
15.1399
13.5081
11.9843
10.5579
9.21861
7.95638
6.76154
5.62458
4.53626
3.48748
2.4693
1.47289
0.489518
50.4115
148.634
239.493
319.365
386.099
438.969
478.384
505.515
521.942
529.387
529.524
523.878
513.773
500.323
484.443
466.869
448.187
428.853
409.225
389.574
370.107
350.98
332.308
314.172
296.632
279.726
263.479
247.903
233.002
218.774
205.212
192.303
180.033
168.386
157.344
146.887
136.995
127.649
118.827
110.508
102.672
95.2982
88.3664
81.8565
75.7487
70.0238
64.6629
59.6476
54.9599
50.5824
46.498
42.6903
39.1432
35.8413
32.7696
29.9136
27.2591
24.7928
22.5014
20.3724
18.3936
16.5531
14.8395
13.242
11.7497
10.3524
9.0401
7.80305
6.63177
5.51702
4.44978
3.42115
2.42242
1.44496
0.480242
41.9142
123.9
200.617
269.329
328.233
376.486
414.074
441.597
460.048
470.615
474.534
472.995
467.077
457.73
445.762
431.85
416.546
400.303
383.481
366.366
349.184
332.111
315.283
298.801
282.745
267.171
252.12
237.618
223.684
210.327
197.548
185.347
173.717
162.648
152.129
142.146
132.684
123.728
115.26
107.263
99.7201
92.613
85.9241
79.6353
73.7292
68.1881
62.9949
58.1325
53.5844
49.3341
45.3659
41.6643
38.214
35.0005
32.0094
29.227
26.6399
24.235
21.9999
19.9223
17.9905
16.1931
14.5192
12.958
11.4993
10.1331
8.84957
7.63935
6.49322
5.40217
4.35742
3.35031
2.37235
1.41514
0.470334
35.2703
104.469
169.801
229.177
281.115
324.787
359.967
386.912
406.218
418.688
425.22
426.723
424.061
418.023
409.306
398.513
386.152
372.649
358.357
343.562
328.497
313.349
298.267
283.367
268.742
254.462
240.58
227.137
214.16
201.669
189.675
178.185
167.199
156.715
146.727
137.227
128.204
119.648
111.544
103.878
96.6377
89.8062
83.3686
77.3092
71.6125
66.2626
61.2439
56.541
52.1385
48.0213
44.1746
40.584
37.2351
34.1143
31.2079
28.5029
25.9865
23.6463
21.4702
19.4468
17.5646
15.8127
14.1805
12.6578
11.2345
9.90106
8.64798
7.46613
6.34659
5.28061
4.25965
3.27532
2.31935
1.38356
0.459844
29.979
88.9368
144.996
196.54
242.359
281.697
314.234
340.022
359.399
372.894
381.147
384.844
384.665
381.255
375.202
367.031
357.198
346.096
334.057
321.359
308.232
294.867
281.42
268.015
254.754
241.717
228.967
216.554
204.514
192.876
181.659
170.875
160.533
150.635
141.182
132.169
123.591
115.439
107.705
100.378
93.4462
86.8968
80.7171
74.8935
69.4123
64.2594
59.421
54.8828
50.631
46.6517
42.931
39.4556
36.2122
33.1877
30.3695
27.7451
25.3024
23.0296
20.9154
18.9485
17.1181
15.4138
13.8253
12.3428
10.9566
9.65753
8.43635
7.28426
6.1926
5.15293
4.15696
3.19655
2.26366
1.35038
0.448824
25.6986
76.3354
124.758
169.702
210.18
245.523
275.384
299.699
318.635
332.533
341.84
347.067
348.742
347.385
343.486
337.493
329.809
320.787
310.732
299.908
288.538
276.808
264.875
252.868
240.894
229.039
217.374
205.955
194.825
184.019
173.563
163.475
153.77
144.454
135.533
127.008
118.875
111.132
103.771
96.7859
90.1668
83.904
77.9866
72.4033
67.1422
62.1909
57.537
53.1679
49.0708
45.2332
41.6423
38.2857
35.1509
32.226
29.4988
26.9577
24.5913
22.3885
20.3382
18.4299
16.6533
14.9983
13.4553
12.0146
10.6671
9.40368
8.21571
7.0946
6.03201
5.01976
4.04984
3.11436
2.20557
1.31576
0.437325
22.1892
65.9795
108.051
147.403
183.227
214.945
242.212
264.904
283.081
296.949
306.818
313.061
316.087
316.308
314.128
309.925
304.047
296.808
288.486
279.322
269.528
259.283
248.741
238.031
227.261
216.521
205.886
195.417
185.162
175.161
165.445
156.038
146.957
138.215
129.821
121.779
114.09
106.754
99.7669
93.1245
86.8202
80.8462
75.1939
69.8538
64.8157
60.0691
55.6029
51.4059
47.4667
43.7737
40.3155
37.0804
34.057
31.234
28.6003
26.1449
23.8569
21.7259
19.7415
17.8937
16.1725
14.5685
13.0723
11.6748
10.3672
9.14074
7.98712
6.89808
5.86557
4.88172
3.93879
3.02916
2.14533
1.27987
0.425402
19.2783
57.3731
94.1146
128.702
160.473
188.928
213.746
234.773
252.001
265.548
275.621
282.491
286.468
287.879
287.051
284.302
279.93
274.208
267.384
259.679
251.289
242.382
233.107
223.589
213.937
204.24
194.576
185.008
175.588
166.36
157.359
148.611
140.139
131.958
124.081
116.515
109.264
102.332
95.7167
89.4162
83.4264
77.7416
72.3552
67.2595
62.4461
57.9059
53.6294
49.6066
45.8273
42.2811
38.9576
35.8461
32.9361
30.2171
27.6787
25.3107
23.1029
21.0454
19.1284
17.3424
15.6781
14.1263
12.6782
11.325
10.0584
8.86994
7.75164
6.6956
5.69406
4.73945
3.82432
2.94133
2.08323
1.24286
0.413108
16.8391
50.1501
82.382
112.888
141.122
166.656
189.199
208.584
224.766
237.801
247.822
255.024
259.641
261.927
262.15
260.569
257.439
252.996
247.459
241.026
233.877
226.168
218.039
209.611
200.988
192.261
183.505
174.786
166.158
157.668
149.351
141.239
133.355
125.72
118.346
111.246
104.427
97.8921
91.6438
85.6819
80.0042
74.6072
69.486
64.6346
60.0461
55.713
51.6269
47.7793
44.1611
40.763
37.5755
34.589
31.7937
29.1801
26.7384
24.4591
22.3328
20.35
18.5016
16.7787
15.1723
13.6738
12.2747
10.9669
9.7421
8.5925
7.51034
6.48806
5.51824
4.59359
3.70694
2.85125
2.01954
1.2049
0.400499
14.7769
44.0354
72.4239
99.4156
124.556
147.483
167.931
185.74
200.838
213.242
223.034
230.35
235.364
238.276
239.298
238.645
236.531
233.158
228.719
223.389
217.329
210.686
203.587
196.148
188.468
180.635
172.725
164.801
156.92
149.128
141.463
133.959
126.642
119.533
112.649
106.002
99.6032
93.4577
87.5699
81.9413
76.5718
71.4596
66.6013
61.9926
57.628
53.5013
49.6055
45.9332
42.4764
39.2268
36.176
33.3151
30.6354
28.128
25.7839
23.5942
21.5502
19.643
17.8642
16.2051
14.6574
13.213
11.8638
10.6019
9.41973
8.30964
7.26427
6.27638
5.33887
4.44476
3.58716
2.75932
1.95453
1.16616
0.387629
13.0197
38.8191
63.9103
87.8602
110.29
130.89
149.426
165.743
179.76
191.467
200.908
208.178
213.406
216.743
218.361
218.436
217.145
214.661
211.151
206.771
201.664
195.962
189.784
183.238
176.417
169.406
162.277
155.094
147.913
140.779
133.732
126.808
120.032
113.428
107.015
100.808
94.8169
89.0507
83.5149
78.2128
73.146
68.314
63.7151
59.3463
55.2034
51.2815
47.5748
44.0769
40.781
37.6797
34.7655
32.0304
29.4665
27.0656
24.8194
22.7198
20.7586
18.9276
17.2188
15.6241
14.1357
12.7459
11.4471
10.2318
9.09265
8.02257
7.01448
6.06146
5.15672
4.29359
3.46549
2.66593
1.88848
1.1268
0.374552
11.5119
34.3389
56.5842
77.8893
97.9367
116.461
133.257
148.179
161.144
172.123
181.136
188.246
193.546
197.154
199.204
199.839
199.208
197.457
194.73
191.162
186.883
182.009
176.651
170.907
164.865
158.604
152.195
145.698
139.169
132.652
126.189
119.813
113.552
107.432
101.471
95.6862
90.0895
84.6908
79.4972
74.5134
69.7422
65.1847
60.8404
56.7075
52.7832
49.0635
45.5438
42.2188
39.0825
36.1286
33.3502
30.7405
28.292
25.9974
23.8492
21.8397
19.9615
18.2068
16.5682
15.0382
13.6093
12.2745
11.0263
9.85789
8.76221
7.73247
6.76198
5.84415
4.97251
4.14069
3.3424
2.57144
1.82166
1.08697
0.361319
10.2101
30.4676
50.2434
69.2389
87.1865
103.859
119.076
132.704
144.66
154.906
163.445
170.315
175.583
179.339
181.689
182.749
182.641
181.489
179.416
176.541
172.977
168.829
164.197
159.169
153.83
148.252
142.502
136.639
130.715
124.775
118.858
112.999
107.227
101.567
96.0377
90.6577
85.4402
80.396
75.5334
70.8583
66.3747
62.0848
57.9893
54.0875
50.3776
46.8567
43.5212
40.3666
37.388
34.5798
31.9361
29.4506
27.1168
24.9279
22.8771
20.9575
19.1619
17.4834
15.915
14.4496
13.0804
11.8006
10.6032
9.4818
8.42969
7.44047
6.50776
5.62532
4.78698
3.98667
3.21839
2.47623
1.75431
1.04683
0.347982
9.07992
27.1042
44.7269
61.6974
77.7894
92.808
106.594
119.028
130.03
139.554
147.594
154.171
159.331
163.142
165.686
167.059
167.36
166.694
165.165
162.877
159.928
156.413
152.421
148.033
143.325
138.366
133.218
127.937
122.572
117.167
111.762
106.389
101.077
95.8518
90.7336
85.74
80.8856
76.182
71.6383
67.2615
63.0564
59.0264
55.1729
51.4964
47.996
44.6697
41.5147
38.5276
35.7041
33.0395
30.5286
28.1658
25.9454
23.8612
21.907
20.0765
18.3631
16.7603
15.2617
13.8608
12.551
11.326
10.1794
9.10491
8.09637
7.14767
6.25279
5.40578
4.60081
3.83209
3.09391
2.38065
1.6867
1.00652
0.334592
8.09386
24.1679
39.9049
55.0937
69.5416
83.0811
95.5729
106.909
117.013
125.84
133.374
139.623
144.62
148.415
151.072
152.667
153.282
153.006
151.926
150.132
147.711
144.746
141.316
137.495
133.353
128.952
124.352
119.603
114.754
109.846
104.916
99.9976
95.1187
90.304
85.5747
80.9486
76.4405
72.0627
67.8251
63.7352
59.7989
56.0201
52.4013
48.9436
45.647
42.5104
39.5318
36.7085
34.037
31.5133
29.1329
26.8909
24.7822
22.8013
20.9425
19.2
17.5679
16.0402
14.6108
13.2737
12.023
10.8525
9.75632
8.72859
7.76345
6.85514
5.99797
5.18633
4.41467
3.6775
2.96942
2.28505
1.61907
0.966204
0.321195
7.22974
21.5933
35.6725
49.2881
62.2759
74.491
85.8117
96.1411
105.408
113.568
120.599
126.503
131.299
135.024
137.729
139.473
140.325
140.357
139.646
138.267
136.296
133.807
130.869
127.55
123.913
120.015
115.911
111.648
107.272
102.822
98.3337
93.8388
89.3651
84.9366
80.5743
76.2962
72.1172
68.0501
64.105
60.2903
56.6122
53.0755
49.6832
46.4373
43.3384
40.3861
37.5792
34.9155
32.3923
30.0064
27.7537
25.6302
23.6312
21.7517
19.9868
18.331
16.7791
15.3254
13.9644
12.6905
11.4981
10.3817
9.3355
8.35412
7.43205
6.56386
5.74419
4.96771
4.2292
3.52345
2.84533
2.18974
1.55164
0.926004
0.307838
6.46949
19.3272
31.9436
44.1661
55.8538
66.8817
77.1429
86.551
95.0407
102.568
109.109
114.659
119.229
122.845
125.548
127.383
128.408
128.682
128.27
127.237
125.649
123.569
121.062
118.186
114.998
111.551
107.895
104.075
100.132
96.1032
92.0234
87.9223
83.8267
79.7601
75.7431
71.7935
67.9262
64.1542
60.4879
56.936
53.5053
50.2009
47.0267
43.985
41.077
38.3032
35.6627
33.1541
30.7753
28.5235
26.3956
24.3877
22.496
20.7159
19.043
17.4724
15.9992
14.6183
13.3246
12.113
10.9782
9.91505
8.91827
7.98273
7.10327
6.27479
5.49225
4.75064
4.045
3.37042
2.72204
2.09504
1.48463
0.886053
0.294564
5.79826
17.3255
28.6471
39.6324
50.1604
60.1225
69.4251
77.9912
85.7611
92.6926
98.7609
103.957
108.286
111.767
114.429
116.31
117.455
117.915
117.744
116.998
115.733
114.006
111.873
109.387
106.598
103.555
100.303
96.8837
93.3358
89.6942
85.991
82.2547
78.511
74.7826
71.0894
67.4489
63.8759
60.3833
56.9818
53.6802
50.4857
47.4037
44.4386
41.5931
38.8691
36.2673
33.7877
31.4293
29.1905
27.069
25.0623
23.1672
21.38
19.6969
18.1139
16.6266
15.2305
13.9211
12.6935
11.543
10.4648
9.45408
8.50593
7.61554
6.7781
5.98881
5.24294
4.53577
3.86262
3.21888
2.59994
2.00124
1.41825
0.846475
0.281413
5.20374
15.552
25.7241
35.608
45.0992
54.1033
62.5383
70.3355
77.4407
83.8144
89.4312
94.2796
98.3608
101.687
104.28
106.17
107.394
107.994
108.014
107.504
106.512
105.087
103.279
101.134
98.6987
96.0163
93.1278
90.0717
86.8836
83.5962
80.2394
76.8403
73.4231
70.0097
66.6194
63.2689
59.973
56.7442
53.5934
50.5295
47.5597
44.6899
41.9247
39.2673
36.7198
34.2836
31.959
29.7455
27.642
25.6467
23.7575
21.9717
20.2862
18.6976
17.2022
15.7961
14.4753
13.2356
12.0727
10.9821
9.95936
9.00005
8.09964
7.25361
6.45747
5.70674
4.99697
4.32372
3.68261
3.06927
2.47937
1.90861
1.3527
0.807384
0.268422
4.67566
13.9761
23.1251
32.0262
40.5889
48.731
56.3804
63.476
69.9688
75.8218
81.0104
85.5216
89.3529
92.5122
95.0156
96.8868
98.1556
98.8567
99.0283
98.7113
97.9478
96.781
95.2537
93.4081
91.285
88.9236
86.3613
83.6332
80.7719
77.8079
74.769
71.6806
68.5658
65.4452
62.3372
59.2582
56.2223
53.2421
50.328
47.489
44.7325
42.0646
39.49
37.0122
34.6338
32.3563
30.1806
28.1065
26.1334
24.2599
22.4844
20.8044
19.2174
17.7203
16.31
14.983
13.7355
12.5638
11.4639
10.4317
9.46319
8.55417
7.70047
6.89789
6.14224
5.42933
4.75499
4.11507
3.50544
2.922
2.36067
1.81739
1.28814
0.768884
0.255629
4.2054
12.5723
20.8087
28.831
36.5607
43.9262
50.8639
57.3196
63.2489
68.6179
73.4027
77.5894
81.1736
84.1595
86.5587
88.3897
89.6766
90.448
90.7361
90.5755
90.0028
89.0554
87.7708
86.1864
84.3387
82.2629
79.9927
77.5601
74.9951
72.3258
69.578
66.7755
63.9398
61.0906
58.2454
55.4198
52.6275
49.8806
47.1894
44.5629
42.0083
39.5318
37.1384
34.8318
32.6147
30.4891
28.4559
26.5157
24.6678
22.9116
21.2455
19.6676
18.1758
16.7674
15.4395
14.1891
13.0128
11.9071
10.8685
9.89319
8.97749
8.11752
7.30941
6.54927
5.8332
5.15728
4.51762
3.91033
3.33155
2.77742
2.24412
1.72782
1.22474
0.731074
0.243064
3.78569
11.3191
18.7396
25.9746
32.956
39.621
45.9137
51.7858
57.1975
62.1175
66.5232
70.4004
73.7432
76.5531
78.8384
80.6132
81.8971
82.7135
83.0895
83.0546
82.6402
81.8787
80.8031
79.4464
77.841
76.0186
74.0095
71.8428
69.5459
67.1447
64.6629
62.1227
59.5443
56.9462
54.3449
51.7552
49.1905
46.6622
44.1805
41.7539
39.39
37.0947
34.8731
32.7291
30.6656
28.6848
26.7879
24.9757
23.2479
21.6042
20.0433
18.5638
17.1636
15.8407
14.5925
13.4161
12.3086
11.267
10.2878
9.36774
8.50334
7.69107
6.92733
6.20853
5.53103
4.89119
4.28538
3.70998
3.16135
2.63589
2.13
1.64011
1.16264
0.69404
0.230756
3.41032
10.198
16.8877
23.4164
29.7245
35.7571
41.4649
46.8051
51.7417
56.2461
60.2971
63.8808
66.9902
69.6248
71.7902
73.4974
74.7618
75.6028
76.0431
76.1078
75.8238
75.2194
74.3233
73.1646
71.7721
70.1741
68.3981
66.4702
64.4155
62.2576
60.0185
57.7186
55.3769
53.0105
50.6351
48.2648
45.9121
43.5882
41.3028
39.0642
36.8798
34.7556
32.6965
30.7066
28.7889
26.9458
25.1788
23.4887
21.8758
20.3397
18.8797
17.4945
16.1826
14.9419
13.7703
12.6654
11.6244
10.6446
9.72294
8.85636
8.04169
7.27567
6.55501
5.87636
5.23636
4.63163
4.05878
3.51443
2.99519
2.49769
2.01855
1.55444
1.10199
0.657863
0.218733
3.074
9.19337
15.2274
21.1213
26.823
32.2842
37.4614
42.3166
46.8175
50.938
54.6584
57.965
60.8504
63.3127
65.3555
66.9869
68.2193
69.0686
69.5539
69.6964
69.5192
69.0468
68.3043
67.3175
66.1117
64.7123
63.1439
61.4302
59.5939
57.6566
55.6384
53.5583
51.4339
49.281
47.1145
44.9476
42.7922
40.6589
38.557
36.4947
34.4789
32.5157
30.61
28.7658
26.9864
25.274
23.6304
22.0566
20.5532
19.1199
17.7564
16.4615
15.2341
14.0724
12.9745
11.9382
10.9613
10.0411
9.17489
8.35995
7.59334
6.87207
6.19311
5.55337
4.94973
4.37907
3.83823
3.32405
2.83339
2.36308
1.90999
1.47097
1.04289
0.622611
0.207017
2.77219
8.29162
13.7367
19.0593
24.2141
29.1586
33.8543
38.2675
42.3691
46.1354
49.5482
52.5944
55.2663
57.5611
59.4807
61.0311
62.2221
63.0669
63.5813
63.7833
63.6928
63.3309
62.7197
61.8817
60.8394
59.6155
58.2318
56.7098
55.0702
53.3325
51.5153
49.6358
47.7105
45.754
43.7803
41.8016
39.8293
37.8735
35.9429
34.0454
32.1879
30.376
28.6147
26.908
25.2591
23.6705
22.1439
20.6807
19.2813
17.946
16.6745
15.4659
14.3193
13.2332
12.2059
11.2356
10.3201
9.45723
8.64446
7.87926
7.15898
6.4809
5.84221
5.24008
4.67162
4.13393
3.62409
3.13917
2.67622
2.23231
1.8045
1.38986
0.985447
0.588346
0.195628
2.50097
7.4811
12.3962
17.2043
21.8654
26.3423
30.6009
34.6112
38.3471
41.7871
44.9144
47.7167
50.1862
52.3194
54.1171
55.5835
56.7265
57.5567
58.0873
58.3337
58.3129
58.0431
57.5436
56.8342
55.9349
54.8656
53.6461
52.2957
50.8329
49.2756
47.6408
45.9443
44.2011
42.425
40.6288
38.8241
37.0215
35.2305
33.4595
31.7159
30.0064
28.3364
26.7108
25.1336
23.6078
22.1361
20.7203
19.3617
18.0612
16.819
15.635
14.5086
13.4391
12.4252
11.4655
10.5583
9.70173
8.8938
8.1323
7.4149
6.73919
6.10268
5.5028
4.93693
4.40242
3.89657
3.41669
2.96005
2.52392
2.10556
1.70224
1.31121
0.929752
0.55512
0.184585
2.25693
6.75169
11.1895
15.5336
19.7488
23.8022
27.6639
31.3069
34.708
37.8477
40.7106
43.2851
45.5635
47.5421
49.2205
50.6018
51.692
52.4998
53.0364
53.3146
53.3491
53.1556
52.751
52.1525
51.3779
50.4449
49.3711
48.1738
46.8699
45.4755
44.006
42.4761
40.8993
39.2886
37.6557
36.0115
34.3659
32.7277
31.1051
29.505
27.9336
26.3965
24.8981
23.4424
22.0325
20.671
19.3598
18.1002
16.8933
15.7393
14.6385
13.5903
12.5941
11.649
10.7537
9.90683
9.10663
8.35132
7.63893
6.96736
6.33443
5.73784
5.17526
4.64428
4.14244
3.66728
3.21628
2.78692
2.37668
1.983
1.60334
1.23515
0.875875
0.522977
0.173901
2.0371
6.09456
10.1021
14.0273
17.8393
21.5092
25.0102
28.3185
31.4133
34.277
36.8954
39.2576
41.3564
43.1877
44.7504
46.0468
47.0813
47.8611
48.3954
48.6951
48.7728
48.6422
48.3177
47.8147
47.1488
46.3356
45.391
44.3304
43.1691
41.9215
40.6017
39.2232
37.7983
36.339
34.8561
33.3597
31.859
30.3624
28.8774
27.4107
25.9682
24.5551
23.1758
21.834
20.533
19.2751
18.0624
16.8963
15.7778
14.7074
13.6853
12.7113
11.7848
10.9051
10.0712
9.28173
8.53527
7.83019
7.16474
6.53702
5.94503
5.38671
4.8599
4.3624
3.89195
3.44628
3.02306
2.61997
2.23465
1.86475
1.50791
1.16174
0.823877
0.491952
0.163588
1.83891
5.50201
9.12122
12.6681
16.1154
19.4376
22.6109
25.6143
28.4289
31.039
33.4315
35.5966
37.527
39.2187
40.6702
41.8828
42.8601
43.6076
44.1332
44.446
44.5569
44.4775
44.2207
43.7997
43.2283
42.5204
41.6902
40.7515
39.7178
38.6025
37.4182
36.1771
34.8906
33.5697
32.2243
30.8638
29.4968
28.131
26.7736
25.4307
24.1081
22.8107
21.5426
20.3075
19.1085
17.948
16.8279
15.7498
14.7147
13.7231
12.7755
11.8717
11.0113
10.1937
9.41804
8.68319
7.98788
7.33067
6.70998
6.12411
5.57124
5.0495
4.55693
4.09149
3.65113
3.23374
2.83719
2.45933
2.09797
1.75093
1.41603
1.09105
0.773802
0.462073
0.153656
1.66006
4.96725
8.23582
11.4407
14.5579
17.5648
20.4404
23.1659
25.7244
28.1017
30.286
32.268
34.0411
35.6011
36.9463
38.0773
38.9967
39.7092
40.2211
40.5402
40.6758
40.638
40.4378
40.0871
39.5978
38.9824
38.2534
37.4231
36.5038
35.5074
34.4455
33.329
32.1686
30.974
29.7545
28.5189
27.2749
26.0299
24.7904
23.5624
22.3512
21.1614
19.997
18.8616
17.758
16.6887
15.6556
14.6601
13.7035
12.7863
11.909
11.0715
10.2736
9.51477
8.79433
8.1113
7.46458
6.85288
6.27479
5.72878
5.21321
4.72638
4.26649
3.8317
3.42011
3.02979
2.65878
2.30509
1.9667
1.6416
1.32776
1.02314
0.725685
0.43336
0.144112
1.49857
4.48433
7.43606
10.3317
13.15
15.8709
18.4759
20.9481
23.2726
25.4364
27.4289
29.2415
30.8679
32.3041
33.5482
34.6002
35.4621
36.1377
36.6321
36.9521
37.1054
37.1009
36.9481
36.6574
36.2394
35.705
35.0654
34.3316
33.5146
32.6252
31.6737
30.6702
29.6242
28.5449
27.4406
26.3194
25.1886
24.0548
22.9244
21.8027
20.6947
19.6049
18.5371
17.4946
16.4801
15.4961
14.5445
13.6266
12.7437
11.8964
11.0853
10.3103
9.57139
8.86815
8.19996
7.56601
6.96535
6.39683
5.85919
5.35107
4.87099
4.41739
3.98865
3.58308
3.19896
2.83449
2.48789
2.15731
1.8409
1.53681
1.24314
0.95802
0.679547
0.405826
0.134958
1.35267
4.04796
6.71325
9.32904
11.8766
14.3381
16.6972
18.9387
21.0494
23.0175
24.8334
26.4893
27.9794
29.2996
30.4479
31.4241
32.2296
32.8672
33.3415
33.6579
33.8233
33.8451
33.7317
33.4922
33.1358
32.6724
32.1117
31.4636
30.7381
29.9446
29.0928
28.1915
27.2495
26.2751
25.2761
24.2597
23.2328
22.2015
21.1715
20.148
19.1357
18.1387
17.1606
16.2045
15.2732
14.3689
13.4934
12.6482
11.8344
11.0528
10.3038
9.58772
8.90439
8.25354
7.63469
7.04713
6.49004
5.9624
5.46311
4.99094
4.54454
4.12253
3.72341
3.34566
2.98768
2.64786
2.32453
2.01601
1.7206
1.43657
1.16219
0.895716
0.635397
0.379477
0.126199
1.22078
3.65348
6.05969
8.42219
10.7244
12.9506
15.0861
17.1175
19.0329
20.8219
22.4755
23.9868
25.3502
26.562
27.62
28.5238
29.2743
29.8738
30.326
30.6355
30.8082
30.8504
30.7696
30.5736
30.2706
29.8692
29.3781
28.8062
28.1623
27.455
26.6928
25.884
25.0363
24.1575
23.2544
22.334
21.4023
20.4651
19.5277
18.5949
17.671
16.7599
15.8651
14.9894
14.1354
13.3053
12.5009
11.7237
10.9746
10.2545
9.56391
8.90309
8.27202
7.6705
7.09814
6.55435
6.03839
5.5494
5.08638
4.64824
4.23377
3.8417
3.4707
3.11937
2.78625
2.46986
2.16869
1.88119
1.60578
1.34088
1.0849
0.836223
0.593235
0.354313
0.117833
1.10152
3.29673
5.46854
7.60171
9.68157
11.6942
13.6265
15.4666
17.2038
18.8287
20.3334
21.7113
22.9574
24.0681
25.0413
25.8763
26.5737
27.1353
27.5642
27.8642
28.0403
28.0982
28.0441
27.8849
27.6279
27.2807
26.851
26.3466
25.7755
25.1455
24.464
23.7387
22.9766
22.1845
21.369
20.5362
19.6917
18.8409
17.9887
17.1394
16.2972
15.4656
14.6478
13.8467
13.0646
12.3037
11.5656
10.8517
10.163
9.50051
8.86461
8.25562
7.67362
7.11846
6.58983
6.08724
5.61006
5.15752
4.72875
4.32276
3.93848
3.57477
3.2304
2.90411
2.59458
2.30044
2.02032
1.75279
1.49641
1.24972
1.01125
0.779527
0.55305
0.330328
0.109859
0.993645
2.97401
4.93368
6.85918
8.73751
10.5563
12.304
13.9699
15.5445
17.0194
18.3874
19.6424
20.78
21.7966
22.6904
23.4603
24.1068
24.6312
25.0361
25.3247
25.5012
25.5705
25.5382
25.4102
25.1928
24.8929
24.5172
24.0728
23.5666
23.0057
22.3969
21.7469
21.0622
20.349
19.6131
18.8603
18.0956
17.324
16.55
15.7776
15.0107
14.2525
13.5061
12.7741
12.0587
11.362
10.6855
10.0306
9.39843
8.78966
8.20489
7.64443
7.1084
6.59672
6.10916
5.64529
5.20459
4.78638
4.38988
4.01423
3.65845
3.32152
3.00233
2.69974
2.41254
2.13949
1.87932
1.63074
1.39242
1.16303
0.941211
0.725599
0.514825
0.30751
0.102272
0.896045
2.68201
4.44966
6.18708
7.88273
9.52565
11.1055
12.6129
14.0393
15.377
16.6196
17.7617
18.799
19.7284
20.5479
21.2565
21.8544
22.3426
22.7232
22.999
23.1735
23.251
23.2362
23.1344
22.9511
22.6924
22.3642
21.9728
21.5245
21.0255
20.482
19.9
19.2853
18.6436
17.9802
17.3003
16.6085
15.9094
15.2072
14.5055
13.8079
13.1174
12.4369
11.7688
11.1153
10.4781
9.85892
9.25898
8.67929
8.12065
7.5836
7.06849
6.57547
6.10451
5.65544
5.22791
4.82146
4.43551
4.06938
3.72229
3.39337
3.0817
2.78628
2.50607
2.23997
1.98687
1.74559
1.51495
1.29375
1.08075
0.874722
0.674401
0.478531
0.285844
0.0950687
0.807728
2.41776
4.01159
5.57864
7.10871
8.59204
10.0195
11.3826
12.6738
13.8862
15.014
16.0523
16.9971
17.8457
18.5959
19.247
19.7987
20.252
20.6085
20.8705
21.0411
21.1239
21.1231
21.0433
20.8893
20.6664
20.38
20.0356
19.6388
19.1952
18.7102
18.1894
17.6381
17.0612
16.4636
15.8501
15.2249
14.5922
13.9557
13.3189
12.685
12.0569
11.4372
10.8282
10.2318
9.64987
9.08383
8.53489
8.00405
7.49207
6.9995
6.5267
6.07385
5.64097
5.22791
4.83441
4.46008
4.10441
3.7668
3.44655
3.14289
2.855
2.58197
2.32286
2.07668
1.8424
1.61897
1.4053
1.20029
1.00281
0.811721
0.625882
0.444133
0.265308
0.0882408
0.727805
2.17861
3.61507
5.02781
6.40778
7.74633
9.03532
10.2672
11.4352
12.5332
13.5559
14.4989
15.3586
16.1323
16.8183
17.4154
17.9235
18.3433
18.676
18.9237
19.0889
19.1748
19.185
19.1235
18.9946
18.8029
18.5531
18.2503
17.8993
17.5052
17.0728
16.6072
16.1129
15.5948
15.057
14.5039
13.9394
13.3673
12.791
12.2137
11.6384
11.0676
10.5039
9.94939
9.40587
8.875
8.35818
7.85655
7.37107
6.90247
6.45129
6.0179
5.60251
5.20515
4.82575
4.46408
4.11981
3.79249
3.48161
3.18655
2.90662
2.64108
2.38911
2.14986
1.92243
1.7059
1.4993
1.30164
1.11191
0.929089
0.752131
0.579985
0.41159
0.245879
0.0817806
0.655475
1.96217
3.25616
4.52913
5.77306
6.98025
8.14349
9.25606
10.3119
11.3054
12.232
13.0877
13.869
14.5737
15.1999
15.7466
16.2137
16.6015
16.9111
17.1441
17.3029
17.39
17.4087
17.3624
17.2549
17.0903
16.8727
16.6066
16.2964
15.9464
15.5613
15.1452
14.7026
14.2375
13.754
13.2558
12.7467
12.2298
11.7086
11.1858
10.6641
10.1461
9.63397
9.12963
8.63485
8.15117
7.67987
7.22206
6.77863
6.35029
5.93757
5.54084
5.16032
4.79608
4.44807
4.11611
3.79993
3.49914
3.21328
2.94182
2.68413
2.43955
2.20736
1.98677
1.77698
1.57715
1.38639
1.20381
1.02849
0.859494
0.695864
0.536642
0.380856
0.227529
0.0756787
0.590018
1.76628
2.93129
4.07767
5.1983
6.28636
7.33543
8.33952
9.29318
10.1915
11.0303
11.8059
12.5153
13.1562
13.7271
14.2269
14.6554
15.0128
15.3001
15.5185
15.67
15.7569
15.782
15.7482
15.659