/*--------------------------------*- C++ -*----------------------------------*\
  =========                 |
  \\      /  F ield         | OpenFOAM: The Open Source CFD Toolbox
   \\    /   O peration     | Website:  https://openfoam.org
    \\  /    A nd           | Version:  10
     \\/     M anipulation  |
\*---------------------------------------------------------------------------*/
FoamFile
{
    format      ascii;
    class       volScalarField;
    location    "337";
    object      gradTz;
}
// * * * * * * * * * * * * * * * * * * * * * * * * * * * * * * * * * * * * * //

dimensions      [0 -1 0 1 0 0 0];

internalField   nonuniform List<scalar> 
11250
(
-14347.5
-4143.09
-1522.93
-719.554
-415.073
-273.711
-196.604
-149.362
-117.905
-95.6232
-79.0658
-66.2853
-56.114
-47.8187
-40.921
-35.099
-30.1291
-25.8521
-22.1514
-18.9389
-16.1464
-13.7193
-11.6127
-9.78849
-8.21387
-6.85991
-5.70076
-4.71316
-3.87604
-3.17033
-2.57877
-2.0858
-1.67744
-1.34124
-1.06617
-0.842528
-0.661853
-0.516824
-0.401157
-0.309503
-0.237348
-0.180913
-0.137059
-0.103204
-0.0772385
-0.0574532
-0.0424752
-0.0312102
-0.0227928
-0.0165438
-0.0119348
-0.0085572
-0.00609803
-0.00431905
-0.0030404
-0.00212725
-0.00147928
-0.00102243
-0.000702366
-0.000479564
-0.00032545
-0.000219521
-0.000147173
-9.80705e-05
-6.49555e-05
-4.27635e-05
-2.79858e-05
-1.82092e-05
-1.1785e-05
-7.5958e-06
-4.89063e-06
-3.17032e-06
-2.1087e-06
-1.49974e-06
-1.22297e-06
-8246.77
-4844.66
-2751.72
-1659.49
-1081.85
-756.65
-559.752
-432.138
-344.413
-281.051
-233.362
-196.221
-166.472
-142.093
-121.748
-104.527
-89.7954
-77.0958
-66.0924
-56.5306
-48.2117
-40.9763
-34.6926
-29.2488
-24.548
-20.5046
-17.0421
-14.0913
-11.5897
-9.48038
-7.71202
-6.23817
-5.01717
-4.01183
-3.18922
-2.52036
-1.97996
-1.54616
-1.20017
-0.925988
-0.710131
-0.541294
-0.410093
-0.308803
-0.231115
-0.171916
-0.1271
-0.0933929
-0.0682058
-0.049507
-0.035715
-0.0256079
-0.0182489
-0.0129253
-0.00909888
-0.00636618
-0.00442707
-0.00305986
-0.00210202
-0.00143524
-0.000974012
-0.000656992
-0.000440467
-0.000293514
-0.000194406
-0.000127988
-8.376e-05
-5.44993e-05
-3.52722e-05
-2.27342e-05
-1.46377e-05
-9.48879e-06
-6.31144e-06
-4.48889e-06
-3.66049e-06
-5547.17
-4236.16
-2978.93
-2084.01
-1495.42
-1110.61
-853.033
-674.537
-546.174
-450.528
-376.933
-318.69
-271.478
-232.438
-199.632
-171.715
-147.732
-126.99
-108.971
-93.2804
-79.6063
-67.6969
-57.3425
-48.3639
-40.6049
-33.9268
-28.205
-23.3266
-19.1892
-15.6995
-12.7731
-10.3334
-8.31188
-6.64708
-5.28464
-4.17669
-3.28142
-2.56266
-1.98933
-1.53497
-1.17722
-0.897374
-0.679898
-0.511991
-0.3832
-0.285056
-0.210754
-0.154867
-0.113104
-0.0820987
-0.0592286
-0.0424684
-0.0302649
-0.0214364
-0.0150907
-0.0105587
-0.00734267
-0.00507513
-0.0034865
-0.00238058
-0.00161559
-0.00108976
-0.000730621
-0.000486869
-0.000322477
-0.000212307
-0.000138943
-9.04057e-05
-5.85116e-05
-3.77133e-05
-2.42825e-05
-1.57411e-05
-1.04702e-05
-7.44683e-06
-6.07268e-06
-4157.04
-3572.37
-2842.37
-2200.85
-1703.96
-1336.22
-1066.26
-865.998
-714.579
-597.49
-504.861
-430.002
-368.341
-316.721
-272.926
-235.378
-202.93
-174.735
-150.151
-128.679
-109.921
-93.5516
-79.2967
-66.9196
-56.2118
-46.9872
-39.0774
-32.3291
-26.6026
-21.7703
-17.7163
-14.3354
-11.533
-9.22452
-7.33486
-5.79783
-4.55562
-3.55815
-2.76238
-2.13164
-1.63496
-1.2464
-0.944406
-0.711223
-0.532347
-0.396027
-0.292814
-0.215177
-0.157158
-0.114081
-0.0823047
-0.0590166
-0.0420594
-0.0297914
-0.020973
-0.0146748
-0.0102054
-0.00705398
-0.00484604
-0.00330896
-0.00224568
-0.00151481
-0.00101561
-0.000676793
-0.000448281
-0.000295136
-0.000193154
-0.000125681
-8.13435e-05
-5.24302e-05
-3.37588e-05
-2.18845e-05
-1.45568e-05
-1.03535e-05
-8.4431e-06
-3349.42
-3051.8
-2615.31
-2171.14
-1781.61
-1462.5
-1208.43
-1007.49
-847.77
-719.345
-614.614
-527.939
-455.207
-393.42
-340.392
-294.511
-254.574
-219.67
-189.094
-162.288
-138.799
-118.25
-100.319
-84.7239
-71.2129
-59.5596
-49.5573
-41.0167
-33.7639
-27.6399
-22.4994
-18.2105
-14.654
-11.7233
-9.32351
-7.37102
-5.79265
-4.52497
-3.51342
-2.71152
-2.07995
-1.5858
-1.20168
-0.905049
-0.677479
-0.50403
-0.372695
-0.273895
-0.200056
-0.145228
-0.104782
-0.0751375
-0.0535507
-0.0379325
-0.0267054
-0.0186865
-0.0129957
-0.00898295
-0.00617143
-0.00421408
-0.00286004
-0.00192928
-0.00129353
-0.000862015
-0.000570978
-0.000375926
-0.000246032
-0.000160091
-0.000103617
-6.67879e-05
-4.30044e-05
-2.78786e-05
-1.85443e-05
-1.31899e-05
-1.07563e-05
-2836.68
-2667.42
-2393.36
-2084.37
-1786.6
-1521.77
-1295.73
-1106.35
-948.532
-816.686
-705.792
-611.711
-531.178
-461.667
-401.245
-348.428
-302.076
-261.296
-225.382
-193.759
-165.951
-141.553
-120.212
-101.614
-85.4747
-71.535
-59.556
-49.3172
-40.6149
-33.2615
-27.085
-21.9289
-17.6512
-14.1246
-11.2359
-8.88474
-6.98356
-5.45619
-4.23714
-3.27052
-2.50909
-1.91321
-1.44995
-1.09215
-0.817609
-0.608339
-0.449861
-0.330631
-0.241513
-0.175335
-0.126512
-0.0907253
-0.0646637
-0.0458068
-0.0322506
-0.0225677
-0.0156956
-0.0108497
-0.00745418
-0.00509018
-0.00345476
-0.00233053
-0.00156261
-0.00104136
-0.000689794
-0.000454165
-0.000297246
-0.000193421
-0.000125192
-8.06966e-05
-5.19614e-05
-3.36861e-05
-2.24079e-05
-1.59384e-05
-1.29979e-05
-2489.89
-2384.61
-2203.22
-1983.44
-1755.97
-1539.86
-1344.28
-1171.91
-1021.96
-892.083
-779.531
-681.666
-596.191
-521.197
-455.134
-396.761
-345.081
-299.29
-258.726
-222.841
-191.161
-163.277
-138.82
-117.46
-98.8891
-82.8239
-68.9999
-57.1706
-47.1066
-38.5953
-31.4411
-25.4649
-20.5041
-16.4123
-13.0592
-10.329
-8.12053
-6.34576
-4.92885
-3.80507
-2.91963
-2.22656
-1.68765
-1.27134
-0.951867
-0.708306
-0.523836
-0.385034
-0.281276
-0.204219
-0.147364
-0.105686
-0.0753316
-0.053367
-0.0375756
-0.0262953
-0.0182891
-0.012643
-0.00868668
-0.00593206
-0.00402632
-0.00271621
-0.00182126
-0.00121378
-0.000804033
-0.000529398
-0.000346496
-0.000225475
-0.000145943
-9.40754e-05
-6.0578e-05
-3.92734e-05
-2.61253e-05
-1.85831e-05
-1.5155e-05
-2244.52
-2174.11
-2047.82
-1886.78
-1710.83
-1534.62
-1367.19
-1213.04
-1073.71
-948.996
-837.852
-738.916
-650.799
-572.227
-502.085
-439.427
-383.454
-333.492
-288.967
-249.38
-214.288
-183.295
-156.034
-132.167
-111.376
-93.3583
-77.832
-64.5295
-53.2
-43.6097
-35.5419
-28.7977
-23.196
-18.5731
-14.7828
-11.6954
-9.19704
-7.18859
-5.58463
-4.31213
-3.30926
-2.52411
-1.91345
-1.44164
-1.07951
-0.803379
-0.594213
-0.436807
-0.319128
-0.231721
-0.167223
-0.119938
-0.0854965
-0.0605723
-0.0426516
-0.0298493
-0.0207622
-0.0143534
-0.00986235
-0.00673525
-0.00457168
-0.00308426
-0.00206813
-0.00137837
-0.00091309
-0.000601227
-0.000393523
-0.000256086
-0.000165762
-0.000106854
-6.88089e-05
-4.46111e-05
-2.96771e-05
-2.11102e-05
-1.72163e-05
-2065.16
-2015.17
-1923.05
-1801.16
-1662.37
-1517.43
-1374.05
-1237.06
-1109.04
-991.021
-883.135
-784.987
-695.948
-615.318
-542.407
-476.575
-417.243
-363.894
-316.06
-273.314
-235.264
-201.539
-171.788
-145.677
-122.881
-103.092
-86.0127
-71.3604
-58.867
-48.281
-39.3679
-31.9115
-25.7141
-20.5966
-16.3986
-12.9775
-10.2079
-7.98066
-6.20134
-4.7893
-3.67614
-2.80442
-2.12629
-1.60224
-1.19993
-0.89311
-0.66066
-0.485707
-0.35489
-0.257714
-0.185997
-0.133415
-0.095111
-0.067389
-0.0474548
-0.033213
-0.0231034
-0.0159729
-0.0109757
-0.00749601
-0.00508833
-0.00343297
-0.00230207
-0.00153435
-0.00101646
-0.00066932
-0.000438109
-0.000285111
-0.000184557
-0.000118974
-7.66162e-05
-4.96747e-05
-3.30469e-05
-2.35081e-05
-1.91725e-05
-1930.91
-1893.56
-1823.45
-1728.11
-1616.07
-1495.11
-1371.46
-1249.56
-1132.33
-1021.45
-917.757
-821.549
-732.783
-651.239
-576.602
-508.523
-446.642
-390.602
-340.056
-294.662
-254.084
-217.993
-186.06
-157.961
-133.379
-112
-93.5191
-77.6428
-64.0898
-52.5941
-42.9064
-34.7956
-28.0496
-22.4757
-17.9007
-14.1706
-11.1495
-8.71904
-6.77669
-5.23477
-4.01888
-3.06645
-2.32536
-1.75252
-1.31266
-0.977156
-0.722923
-0.531545
-0.388425
-0.282096
-0.203614
-0.146065
-0.104138
-0.0737908
-0.051967
-0.0363736
-0.0253036
-0.0174952
-0.0120225
-0.00821141
-0.00557425
-0.00376101
-0.00252217
-0.00168113
-0.00111375
-0.000733415
-0.000480083
-0.00031244
-0.000202255
-0.000130388
-8.39699e-05
-5.44447e-05
-3.62218e-05
-2.57676e-05
-2.10158e-05
-1828.62
-1799.47
-1743.99
-1667.03
-1574.34
-1471.6
-1363.72
-1254.59
-1147.06
-1043.07
-943.881
-850.229
-762.502
-680.853
-605.284
-535.7
-471.945
-413.817
-361.088
-313.506
-270.8
-232.684
-198.861
-169.026
-142.868
-120.077
-100.344
-83.3688
-68.8605
-56.5417
-46.1508
-37.4443
-30.1975
-24.2061
-19.2856
-15.2718
-12.0195
-9.40186
-7.30919
-5.64739
-4.33657
-3.30949
-2.51011
-1.89207
-1.41741
-1.05528
-0.780827
-0.574191
-0.419638
-0.304798
-0.220023
-0.157851
-0.112551
-0.0797593
-0.0561748
-0.0393218
-0.0273565
-0.0189159
-0.0129997
-0.00887934
-0.00602802
-0.0040674
-0.00272778
-0.00181827
-0.00120467
-0.00079332
-0.000519319
-0.000337989
-0.000218804
-0.000141062
-9.08479e-05
-5.89067e-05
-3.9192e-05
-2.78818e-05
-2.27408e-05
-1749.65
-1726.01
-1680.55
-1616.51
-1537.93
-1449
-1353.58
-1254.98
-1155.84
-1058.15
-963.369
-872.509
-786.254
-705.038
-629.112
-558.596
-493.511
-433.799
-379.343
-329.98
-285.504
-245.677
-210.237
-178.899
-151.366
-127.334
-106.494
-88.542
-73.1807
-60.1239
-49.1004
-39.8563
-32.1566
-25.7865
-20.5521
-16.28
-12.8168
-10.0283
-7.79818
-6.02661
-4.62876
-3.53318
-2.68026
-2.02067
-1.51399
-1.12736
-0.834273
-0.613573
-0.448474
-0.325779
-0.235194
-0.168752
-0.120336
-0.0852831
-0.0600703
-0.042052
-0.0292582
-0.0202322
-0.0139052
-0.00949848
-0.00644874
-0.00435153
-0.0029185
-0.00194549
-0.00128902
-0.000848914
-0.000555738
-0.000361708
-0.000234169
-0.000150975
-9.72359e-05
-6.30515e-05
-4.19516e-05
-2.98463e-05
-2.43438e-05
-1688.1
-1668.25
-1629.81
-1575.02
-1506.82
-1428.35
-1342.7
-1252.66
-1160.6
-1068.45
-977.756
-889.676
-805.089
-724.629
-648.742
-577.72
-511.73
-450.844
-395.045
-344.252
-298.322
-257.066
-220.255
-187.631
-158.91
-133.798
-111.988
-93.1759
-77.0597
-63.3472
-51.7597
-42.0348
-33.9288
-27.2183
-21.7011
-17.1958
-13.5419
-10.5985
-8.2437
-6.37242
-4.89543
-3.73749
-2.83578
-2.13829
-1.60238
-1.19335
-0.883237
-0.649671
-0.474918
-0.345029
-0.249118
-0.178761
-0.127485
-0.0903584
-0.0636507
-0.0445621
-0.0310069
-0.0214431
-0.0147384
-0.0100683
-0.00683603
-0.00461315
-0.00309414
-0.00206269
-0.00136674
-0.000900143
-0.000589303
-0.000383572
-0.000248335
-0.000160115
-0.000103127
-6.68747e-05
-4.44975e-05
-3.16589e-05
-2.58231e-05
-1639.77
-1622.6
-1589.17
-1541.1
-1480.59
-1410.08
-1332.06
-1248.9
-1162.71
-1075.32
-988.275
-902.81
-819.923
-740.39
-664.796
-593.569
-527
-465.265
-408.439
-356.512
-309.401
-266.963
-229.003
-195.288
-165.551
-139.506
-116.855
-97.292
-80.5138
-66.2239
-54.1378
-43.9864
-35.5191
-28.5052
-22.7351
-18.021
-14.196
-11.1136
-8.64649
-6.68535
-5.13695
-3.92268
-2.97685
-2.24506
-1.68266
-1.25333
-0.927763
-0.682513
-0.498989
-0.362559
-0.261805
-0.187884
-0.134004
-0.0949879
-0.0669176
-0.0468531
-0.0326036
-0.0225489
-0.0154996
-0.010589
-0.00719003
-0.00485233
-0.00325475
-0.00216988
-0.00143784
-0.000947018
-0.000620021
-0.000403585
-0.000261304
-0.000168484
-0.000108523
-7.03767e-05
-4.68298e-05
-3.33199e-05
-2.71788e-05
-1601.62
-1586.39
-1556.58
-1513.46
-1458.7
-1394.25
-1322.18
-1244.51
-1163.13
-1079.76
-995.892
-912.796
-831.54
-752.991
-677.839
-606.614
-539.705
-477.374
-419.774
-366.96
-318.9
-275.494
-236.58
-201.947
-171.348
-144.507
-121.132
-100.919
-83.5647
-68.7705
-56.2473
-45.721
-36.935
-29.6526
-23.6585
-18.7589
-14.7816
-11.5751
-9.00786
-6.96637
-5.35404
-4.08927
-3.10385
-2.34125
-1.75504
-1.30744
-0.967954
-0.712175
-0.520739
-0.378407
-0.273279
-0.196139
-0.139906
-0.0991802
-0.0698771
-0.0489293
-0.0340511
-0.0235517
-0.0161901
-0.0110614
-0.0075113
-0.00506945
-0.00340058
-0.00226723
-0.00150243
-0.000989608
-0.000647937
-0.000421776
-0.000273094
-0.000176094
-0.000113429
-7.35621e-05
-4.89518e-05
-3.48313e-05
-2.84125e-05
-1571.41
-1557.58
-1530.45
-1490.99
-1440.55
-1380.75
-1313.32
-1240.01
-1162.54
-1082.51
-1001.35
-920.347
-840.591
-763.013
-688.374
-617.283
-550.204
-487.471
-429.299
-375.797
-326.982
-282.791
-243.09
-207.694
-176.369
-148.853
-124.859
-104.089
-86.2382
-71.0072
-58.104
-47.2505
-38.1856
-30.6678
-24.4766
-19.4136
-15.3018
-11.9857
-9.32962
-7.21684
-5.5477
-4.23802
-3.21734
-2.42727
-1.81981
-1.3559
-1.00397
-0.738767
-0.54025
-0.392631
-0.283582
-0.203554
-0.145209
-0.102949
-0.0725389
-0.0507973
-0.0353538
-0.0244546
-0.0168119
-0.0114871
-0.0078008
-0.00526516
-0.00353206
-0.00235502
-0.00156069
-0.00102803
-0.000673128
-0.000438194
-0.000283737
-0.000182966
-0.000117861
-7.64394e-05
-5.08688e-05
-3.6197e-05
-2.95275e-05
-1547.42
-1534.64
-1509.48
-1472.77
-1425.61
-1369.37
-1305.55
-1235.7
-1161.39
-1084.1
-1005.23
-926.027
-847.612
-770.945
-696.84
-625.96
-558.828
-495.835
-437.246
-383.219
-333.809
-288.985
-248.643
-212.615
-180.685
-152.601
-128.084
-106.839
-88.563
-72.9566
-59.7256
-48.589
-39.282
-31.5592
-25.1961
-19.9901
-15.7605
-12.3481
-9.61396
-7.43841
-5.71918
-4.36984
-3.318
-2.50362
-1.87735
-1.39897
-1.036
-0.762435
-0.557625
-0.405304
-0.292766
-0.210168
-0.149941
-0.106314
-0.0749159
-0.0524661
-0.036518
-0.0252617
-0.017368
-0.0118678
-0.00805984
-0.00544031
-0.00364977
-0.00243363
-0.00161287
-0.00106246
-0.000695701
-0.00045291
-0.000293279
-0.000189127
-0.000121835
-7.90203e-05
-5.25887e-05
-3.74225e-05
-3.05281e-05
-1528.36
-1516.35
-1492.68
-1458.03
-1413.37
-1359.87
-1298.85
-1231.74
-1159.96
-1084.92
-1007.95
-930.28
-853.035
-777.197
-703.61
-632.979
-565.871
-502.72
-443.835
-389.411
-339.536
-294.207
-253.344
-216.798
-184.367
-155.809
-130.852
-109.206
-90.5692
-74.6427
-61.1311
-49.7513
-40.2358
-32.3359
-25.824
-20.4939
-16.1619
-12.6656
-9.86336
-7.63296
-5.8699
-4.48581
-3.40663
-2.5709
-1.92809
-1.43697
-1.06428
-0.783348
-0.572986
-0.416514
-0.300895
-0.216024
-0.154134
-0.109296
-0.0770234
-0.0539463
-0.037551
-0.0259781
-0.0178617
-0.0122059
-0.00828998
-0.00559598
-0.00375441
-0.00250354
-0.00165928
-0.00109308
-0.000715787
-0.000466007
-0.000301773
-0.000194612
-0.000125374
-8.13192e-05
-5.41211e-05
-3.85146e-05
-3.14199e-05
-1513.2
-1501.77
-1479.22
-1446.14
-1403.38
-1351.99
-1293.17
-1228.22
-1158.46
-1085.23
-1009.83
-933.449
-857.209
-782.104
-708.999
-638.628
-571.591
-508.356
-449.265
-394.543
-344.307
-298.579
-257.297
-220.329
-187.486
-158.535
-133.211
-111.228
-92.2878
-76.0903
-62.3404
-50.7533
-41.0594
-33.0078
-26.3679
-20.931
-16.5106
-12.9417
-10.0805
-7.80253
-6.0014
-4.58708
-3.4841
-2.62976
-1.9725
-1.47027
-1.08908
-0.801693
-0.586469
-0.426359
-0.308037
-0.221173
-0.157821
-0.11192
-0.0788788
-0.0552498
-0.0384611
-0.0266095
-0.018297
-0.0125041
-0.00849303
-0.00573336
-0.00384678
-0.00256526
-0.00170027
-0.00112014
-0.000733536
-0.000477582
-0.000309282
-0.000199463
-0.000128504
-8.33528e-05
-5.54769e-05
-3.9481e-05
-3.22092e-05
-1501.15
-1490.16
-1468.46
-1436.57
-1395.27
-1345.51
-1288.4
-1225.14
-1156.99
-1085.24
-1011.11
-935.799
-860.411
-785.941
-713.271
-643.153
-576.213
-512.943
-453.712
-398.771
-348.258
-302.215
-260.598
-223.288
-190.109
-160.835
-135.208
-112.944
-93.7493
-77.3242
-63.3732
-51.6106
-41.7655
-33.5847
-26.8356
-21.3074
-16.8112
-13.1801
-10.2682
-7.94926
-6.1153
-4.67488
-3.55132
-2.68087
-2.01111
-1.49923
-1.11066
-0.81767
-0.59822
-0.434945
-0.314269
-0.225667
-0.161041
-0.114212
-0.0805006
-0.0563898
-0.0392573
-0.0271621
-0.0186781
-0.0127653
-0.0086709
-0.00585374
-0.00392775
-0.00261938
-0.00173622
-0.00114387
-0.00074911
-0.000487742
-0.000315874
-0.000203722
-0.000131253
-8.51392e-05
-5.66681e-05
-4.03303e-05
-3.29029e-05
-1491.58
-1480.93
-1459.87
-1428.89
-1388.71
-1340.21
-1284.43
-1222.5
-1155.64
-1085.05
-1011.96
-937.535
-862.858
-788.931
-716.644
-646.762
-579.929
-516.657
-457.335
-402.233
-351.508
-305.22
-263.336
-225.752
-192.3
-162.762
-136.885
-114.39
-94.9834
-78.3683
-64.2489
-52.339
-42.3664
-34.0764
-27.2349
-21.6292
-17.0686
-13.3845
-10.4293
-8.0753
-6.21324
-4.75046
-3.60923
-2.72495
-2.04442
-1.52424
-1.12931
-0.831487
-0.608387
-0.442378
-0.319667
-0.229562
-0.163834
-0.116201
-0.0819084
-0.0573797
-0.039949
-0.0276424
-0.0190094
-0.0129925
-0.00882565
-0.00595851
-0.00399823
-0.0026665
-0.00176753
-0.00116455
-0.000762681
-0.000496597
-0.00032162
-0.000207436
-0.00013365
-8.66976e-05
-5.77076e-05
-4.10715e-05
-3.35085e-05
-1484
-1473.6
-1453.03
-1422.75
-1383.43
-1335.91
-1281.16
-1220.27
-1154.42
-1084.77
-1012.52
-938.81
-864.722
-791.253
-719.296
-649.628
-582.902
-519.648
-460.269
-405.051
-354.167
-307.687
-265.594
-227.791
-194.118
-164.366
-138.284
-115.599
-96.0181
-79.2457
-64.9863
-52.9535
-42.8741
-34.4926
-27.5734
-21.9023
-17.2874
-13.5584
-10.5665
-8.18281
-6.29687
-4.81505
-3.65876
-2.76268
-2.07296
-1.54569
-1.14532
-0.84335
-0.617123
-0.448768
-0.324311
-0.232915
-0.166238
-0.117915
-0.0831217
-0.0582333
-0.0405457
-0.0280568
-0.0192954
-0.0131886
-0.00895933
-0.00604904
-0.00405916
-0.00270725
-0.00179461
-0.00118244
-0.000774425
-0.000504262
-0.000326596
-0.000210652
-0.000135727
-8.80477e-05
-5.86083e-05
-4.17139e-05
-3.40334e-05
-1478
-1467.79
-1447.6
-1417.86
-1379.2
-1332.42
-1278.48
-1218.41
-1153.35
-1084.45
-1012.87
-939.742
-866.138
-793.05
-721.374
-651.893
-585.27
-522.045
-462.634
-407.333
-356.328
-309.701
-267.443
-229.466
-195.617
-165.692
-139.445
-116.603
-96.8798
-79.9778
-65.6029
-53.4681
-43.3001
-34.8424
-27.8583
-22.1326
-17.472
-13.7053
-10.6826
-8.27386
-6.36776
-4.86985
-3.70084
-2.79475
-2.09724
-1.56395
-1.15895
-0.853465
-0.624576
-0.454223
-0.328278
-0.23578
-0.168295
-0.119381
-0.0841602
-0.0589642
-0.0410568
-0.0284119
-0.0195407
-0.0133569
-0.00907401
-0.00612673
-0.00411146
-0.00274224
-0.00181788
-0.0011978
-0.000784518
-0.000510851
-0.000330873
-0.000213418
-0.000137513
-8.92093e-05
-5.93833e-05
-4.22669e-05
-3.44852e-05
-1473.26
-1463.2
-1443.3
-1413.96
-1375.81
-1329.62
-1276.3
-1216.87
-1152.44
-1084.12
-1013.08
-940.421
-867.21
-794.436
-722.996
-653.677
-587.148
-523.956
-464.528
-409.17
-358.076
-311.336
-268.949
-230.834
-196.845
-166.781
-140.4
-117.433
-97.5926
-80.5847
-66.1148
-53.8963
-43.6552
-35.1344
-28.0964
-22.3253
-17.6267
-13.8286
-10.7801
-8.35043
-6.42744
-4.91603
-3.73632
-2.82182
-2.11776
-1.57938
-1.17049
-0.862028
-0.630889
-0.458847
-0.331642
-0.238212
-0.17004
-0.120626
-0.0850428
-0.0595857
-0.0414916
-0.0287142
-0.0197494
-0.0135001
-0.00917172
-0.00619294
-0.00415605
-0.00277208
-0.00183772
-0.00121092
-0.000793132
-0.000516475
-0.000334526
-0.00021578
-0.000139039
-9.02017e-05
-6.00457e-05
-4.27396e-05
-3.48715e-05
-1469.53
-1459.59
-1439.9
-1410.88
-1373.12
-1327.37
-1274.54
-1215.61
-1151.66
-1083.82
-1013.2
-940.912
-868.018
-795.502
-724.257
-655.075
-588.629
-525.473
-466.039
-410.641
-359.48
-312.654
-270.167
-231.945
-197.845
-167.669
-141.181
-118.113
-98.1782
-81.0843
-66.5371
-54.2501
-43.949
-35.3763
-28.2941
-22.4854
-17.7555
-13.9314
-10.8615
-8.41437
-6.47732
-4.95468
-3.76604
-2.84452
-2.13497
-1.59234
-1.18018
-0.869227
-0.636201
-0.46274
-0.334476
-0.240261
-0.171513
-0.121677
-0.0857878
-0.0601105
-0.0418589
-0.0289696
-0.0199259
-0.0136213
-0.00925439
-0.00624899
-0.0041938
-0.00279735
-0.00185453
-0.00122203
-0.000800433
-0.000521243
-0.000337623
-0.000217783
-0.000140334
-9.10439e-05
-6.06079e-05
-4.31408e-05
-3.51996e-05
-1466.61
-1456.75
-1437.23
-1408.45
-1370.99
-1325.59
-1273.12
-1214.58
-1151.02
-1083.54
-1013.25
-941.266
-868.627
-796.318
-725.234
-656.167
-589.793
-526.671
-467.238
-411.813
-360.603
-313.711
-271.147
-232.841
-198.653
-168.39
-141.816
-118.666
-98.6563
-81.4929
-66.8831
-54.5404
-44.1905
-35.5755
-28.457
-22.6176
-17.8619
-14.0164
-10.9289
-8.4674
-6.51874
-4.98679
-3.79076
-2.86341
-2.1493
-1.60315
-1.18827
-0.875238
-0.640639
-0.465994
-0.336846
-0.241976
-0.172745
-0.122557
-0.0864123
-0.0605506
-0.0421671
-0.029184
-0.0200741
-0.0137231
-0.00932386
-0.00629609
-0.00422554
-0.0028186
-0.00186867
-0.00123138
-0.000806578
-0.000525258
-0.000340232
-0.000219471
-0.000141424
-9.17535e-05
-6.10818e-05
-4.34791e-05
-3.54761e-05
-1464.32
-1454.53
-1435.13
-1406.54
-1369.31
-1324.17
-1272
-1213.75
-1150.48
-1083.29
-1013.27
-941.519
-869.083
-796.941
-725.988
-657.016
-590.703
-527.612
-468.184
-412.741
-361.496
-314.554
-271.932
-233.56
-199.303
-168.971
-142.329
-119.115
-99.0439
-81.8248
-67.1647
-54.7771
-44.3877
-35.7384
-28.5905
-22.726
-17.9493
-14.0863
-10.9843
-8.51107
-6.55288
-5.01329
-3.81117
-2.87903
-2.16116
-1.61209
-1.19497
-0.880223
-0.644321
-0.468696
-0.338815
-0.243402
-0.173771
-0.12329
-0.0869322
-0.0609172
-0.0424239
-0.0293627
-0.0201977
-0.013808
-0.00938183
-0.00633542
-0.00425204
-0.00283635
-0.00188049
-0.0012392
-0.000811716
-0.000528615
-0.000342414
-0.000220883
-0.000142337
-9.23475e-05
-6.14785e-05
-4.37623e-05
-3.57077e-05
-1462.54
-1452.79
-1433.5
-1405.04
-1367.99
-1323.06
-1271.1
-1213.09
-1150.05
-1083.08
-1013.26
-941.699
-869.423
-797.415
-726.568
-657.673
-591.412
-528.349
-468.927
-413.473
-362.201
-315.223
-272.555
-234.133
-199.823
-169.436
-142.741
-119.475
-99.3563
-82.0928
-67.3924
-54.9688
-44.5476
-35.8707
-28.699
-22.8143
-18.0205
-14.1433
-11.0297
-8.54681
-6.58085
-5.03501
-3.82792
-2.89185
-2.17091
-1.61945
-1.20048
-0.884327
-0.647356
-0.470924
-0.34044
-0.244579
-0.174618
-0.123895
-0.087362
-0.0612204
-0.0426364
-0.0295107
-0.0203001
-0.0138784
-0.00942988
-0.00636802
-0.00427403
-0.00285108
-0.00189029
-0.00124569
-0.000815982
-0.000531404
-0.000344226
-0.000222056
-0.000143095
-9.28412e-05
-6.18082e-05
-4.39978e-05
-3.59003e-05
-1461.15
-1451.45
-1432.23
-1403.88
-1366.96
-1322.18
-1270.4
-1212.56
-1149.7
-1082.9
-1013.25
-941.826
-869.677
-797.775
-727.012
-658.18
-591.961
-528.922
-469.507
-414.046
-362.756
-315.75
-273.048
-234.587
-200.235
-169.807
-143.07
-119.763
-99.6064
-82.3078
-67.5753
-55.123
-44.6765
-35.9775
-28.7867
-22.8858
-18.0783
-14.1896
-11.0664
-8.57584
-6.60359
-5.05269
-3.84157
-2.90231
-2.17887
-1.62546
-1.20499
-0.887684
-0.649839
-0.472748
-0.341772
-0.245544
-0.175312
-0.124392
-0.0877149
-0.0614695
-0.0428111
-0.0296324
-0.0203843
-0.0139363
-0.00946943
-0.00639487
-0.00429214
-0.00286322
-0.00189837
-0.00125103
-0.000819499
-0.000533703
-0.000345721
-0.000223024
-0.000143721
-9.32488e-05
-6.20805e-05
-4.41923e-05
-3.60593e-05
-1460.08
-1450.4
-1431.24
-1402.97
-1366.15
-1321.5
-1269.84
-1212.14
-1149.42
-1082.75
-1013.22
-941.915
-869.865
-798.046
-727.35
-658.569
-592.385
-529.366
-469.958
-414.494
-363.19
-316.164
-273.435
-234.945
-200.561
-170.1
-143.33
-119.992
-99.8055
-82.4791
-67.7213
-55.2463
-44.7797
-36.0631
-28.857
-22.9432
-18.1247
-14.2268
-11.0961
-8.59928
-6.62196
-5.06699
-3.85262
-2.91078
-2.18532
-1.63033
-1.20865
-0.890412
-0.651858
-0.474232
-0.342855
-0.246329
-0.175878
-0.124797
-0.0880028
-0.0616728
-0.0429536
-0.0297317
-0.0204531
-0.0139836
-0.00950177
-0.00641683
-0.00430695
-0.00287315
-0.00190499
-0.00125541
-0.000822381
-0.000535587
-0.000346946
-0.000223817
-0.000144235
-9.35829e-05
-6.23038e-05
-4.43518e-05
-3.61898e-05
-1459.26
-1449.6
-1430.48
-1402.27
-1365.53
-1320.97
-1269.41
-1211.81
-1149.19
-1082.63
-1013.2
-941.977
-870.004
-798.251
-727.607
-658.866
-592.711
-529.708
-470.307
-414.841
-363.528
-316.486
-273.738
-235.225
-200.817
-170.33
-143.535
-120.173
-99.9628
-82.6147
-67.8371
-55.3443
-44.8618
-36.1312
-28.9132
-22.989
-18.1618
-14.2566
-11.1199
-8.61807
-6.63671
-5.07847
-3.86149
-2.91759
-2.19051
-1.63426
-1.2116
-0.892612
-0.653488
-0.475431
-0.343731
-0.246965
-0.176336
-0.125125
-0.088236
-0.0618375
-0.0430692
-0.0298123
-0.0205089
-0.014022
-0.00952803
-0.00643466
-0.00431899
-0.00288122
-0.00191037
-0.00125898
-0.000824724
-0.00053712
-0.000347943
-0.000224463
-0.000144652
-9.3855e-05
-6.24857e-05
-4.44818e-05
-3.62961e-05
-1458.62
-1448.98
-1429.9
-1401.74
-1365.05
-1320.56
-1269.07
-1211.56
-1149.02
-1082.53
-1013.17
-942.02
-870.107
-798.404
-727.802
-659.092
-592.959
-529.971
-470.576
-415.108
-363.789
-316.737
-273.974
-235.443
-201.017
-170.51
-143.696
-120.315
-100.086
-82.7215
-67.9284
-55.4216
-44.9266
-36.1852
-28.9576
-23.0253
-18.1913
-14.2803
-11.1388
-8.63303
-6.64846
-5.08764
-3.86859
-2.92304
-2.19466
-1.63741
-1.21396
-0.894376
-0.654795
-0.476394
-0.344434
-0.247476
-0.176705
-0.125389
-0.0884237
-0.0619701
-0.0431623
-0.0298773
-0.0205539
-0.014053
-0.00954921
-0.00644905
-0.00432871
-0.00288774
-0.00191471
-0.00126185
-0.000826618
-0.000538359
-0.000348749
-0.000224985
-0.00014499
-9.40751e-05
-6.26328e-05
-4.45868e-05
-3.63821e-05
-1458.14
-1448.51
-1429.45
-1401.33
-1364.69
-1320.24
-1268.82
-1211.36
-1148.88
-1082.45
-1013.15
-942.049
-870.182
-798.518
-727.948
-659.264
-593.149
-530.171
-470.782
-415.314
-363.99
-316.929
-274.156
-235.612
-201.172
-170.65
-143.821
-120.425
-100.183
-82.805
-67.9999
-55.4822
-44.9775
-36.2276
-28.9926
-23.054
-18.2145
-14.2991
-11.1537
-8.64487
-6.65777
-5.0949
-3.87421
-2.92736
-2.19796
-1.63991
-1.21584
-0.895781
-0.655837
-0.477161
-0.344995
-0.247883
-0.176999
-0.125599
-0.0885736
-0.0620762
-0.0432368
-0.0299292
-0.0205899
-0.0140778
-0.00956618
-0.00646059
-0.0043365
-0.00289297
-0.0019182
-0.00126416
-0.000828138
-0.000539353
-0.000349396
-0.000225404
-0.000145262
-9.42519e-05
-6.2751e-05
-4.46713e-05
-3.64511e-05
-1457.77
-1448.16
-1429.11
-1401.01
-1364.41
-1320
-1268.62
-1211.2
-1148.77
-1082.39
-1013.13
-942.069
-870.237
-798.603
-728.058
-659.393
-593.292
-530.324
-470.939
-415.471
-364.144
-317.077
-274.296
-235.742
-201.291
-170.759
-143.918
-120.511
-100.258
-82.8699
-68.0556
-55.5294
-45.0173
-36.2607
-29.02
-23.0764
-18.2327
-14.3137
-11.1655
-8.65418
-6.6651
-5.10062
-3.87864
-2.93077
-2.20056
-1.64188
-1.21733
-0.896891
-0.656661
-0.477768
-0.34544
-0.248206
-0.177232
-0.125767
-0.0886927
-0.0621604
-0.043296
-0.0299705
-0.0206185
-0.0140975
-0.00957968
-0.00646977
-0.0043427
-0.00289713
-0.00192097
-0.001266
-0.000829349
-0.000540146
-0.000349912
-0.000225739
-0.000145478
-9.43929e-05
-6.28453e-05
-4.47388e-05
-3.65063e-05
-1457.5
-1447.88
-1428.85
-1400.77
-1364.19
-1319.81
-1268.47
-1211.09
-1148.69
-1082.34
-1013.11
-942.083
-870.277
-798.666
-728.14
-659.49
-593.4
-530.439
-471.057
-415.59
-364.262
-317.19
-274.403
-235.842
-201.383
-170.842
-143.993
-120.577
-100.316
-82.9201
-68.0986
-55.566
-45.0481
-36.2864
-29.0413
-23.0939
-18.2469
-14.3252
-11.1746
-8.66145
-6.67082
-5.1051
-3.88211
-2.93344
-2.20261
-1.64343
-1.2185
-0.897764
-0.657309
-0.478246
-0.34579
-0.248461
-0.177416
-0.125898
-0.0887866
-0.0622268
-0.0433427
-0.0300031
-0.0206412
-0.0141131
-0.00959035
-0.00647703
-0.0043476
-0.00290042
-0.00192317
-0.00126746
-0.000830308
-0.000540774
-0.000350321
-0.000226003
-0.000145649
-9.45047e-05
-6.29201e-05
-4.47922e-05
-3.655e-05
-1457.29
-1447.68
-1428.66
-1400.59
-1364.03
-1319.68
-1268.35
-1211
-1148.63
-1082.3
-1013.1
-942.091
-870.306
-798.713
-728.201
-659.563
-593.481
-530.526
-471.147
-415.681
-364.35
-317.276
-274.484
-235.918
-201.453
-170.905
-144.05
-120.628
-100.36
-82.9586
-68.1317
-55.5942
-45.0719
-36.3063
-29.0577
-23.1074
-18.2579
-14.3341
-11.1817
-8.66709
-6.67527
-5.10857
-3.88481
-2.93552
-2.2042
-1.64464
-1.21941
-0.898445
-0.657815
-0.478619
-0.346063
-0.24866
-0.177559
-0.126002
-0.0888601
-0.0622789
-0.0433793
-0.0300287
-0.0206589
-0.0141253
-0.00959874
-0.00648273
-0.00435146
-0.00290301
-0.0019249
-0.0012686
-0.000831063
-0.000541268
-0.000350643
-0.000226212
-0.000145784
-9.45927e-05
-6.29789e-05
-4.48343e-05
-3.65845e-05
-1457.13
-1447.53
-1428.51
-1400.46
-1363.91
-1319.57
-1268.26
-1210.93
-1148.58
-1082.27
-1013.09
-942.097
-870.327
-798.747
-728.247
-659.617
-593.542
-530.59
-471.214
-415.748
-364.417
-317.341
-274.545
-235.976
-201.506
-170.954
-144.093
-120.666
-100.394
-82.988
-68.157
-55.6158
-45.0901
-36.3215
-29.0703
-23.1177
-18.2664
-14.3409
-11.1872
-8.67144
-6.6787
-5.11126
-3.8869
-2.93713
-2.20543
-1.64557
-1.22011
-0.898973
-0.658207
-0.478909
-0.346276
-0.248814
-0.177671
-0.126082
-0.0889174
-0.0623195
-0.0434079
-0.0300487
-0.0206728
-0.0141349
-0.00960528
-0.00648718
-0.00435447
-0.00290503
-0.00192625
-0.0012695
-0.000831652
-0.000541654
-0.000350894
-0.000226375
-0.00014589
-9.46615e-05
-6.3025e-05
-4.48671e-05
-3.66114e-05
-1457.01
-1447.41
-1428.4
-1400.36
-1363.82
-1319.49
-1268.2
-1210.88
-1148.54
-1082.25
-1013.08
-942.101
-870.342
-798.772
-728.28
-659.657
-593.587
-530.639
-471.264
-415.799
-364.467
-317.389
-274.592
-236.019
-201.546
-170.99
-144.126
-120.695
-100.42
-83.0103
-68.1762
-55.6321
-45.1039
-36.3331
-29.08
-23.1256
-18.2728
-14.3461
-11.1914
-8.67477
-6.68133
-5.11332
-3.8885
-2.93837
-2.20638
-1.64629
-1.22065
-0.89938
-0.65851
-0.479132
-0.34644
-0.248934
-0.177758
-0.126144
-0.0889617
-0.0623508
-0.0434299
-0.0300641
-0.0206835
-0.0141423
-0.00961034
-0.00649063
-0.0043568
-0.0029066
-0.00192729
-0.00127019
-0.000832109
-0.000541954
-0.000351089
-0.000226501
-0.000145972
-9.47149e-05
-6.30607e-05
-4.48927e-05
-3.66323e-05
-1456.93
-1447.33
-1428.32
-1400.28
-1363.75
-1319.43
-1268.15
-1210.84
-1148.51
-1082.23
-1013.07
-942.103
-870.353
-798.79
-728.305
-659.686
-593.62
-530.675
-471.302
-415.837
-364.505
-317.425
-274.626
-236.051
-201.576
-171.017
-144.15
-120.717
-100.439
-83.0271
-68.1907
-55.6445
-45.1144
-36.3419
-29.0873
-23.1316
-18.2777
-14.3501
-11.1945
-8.6773
-6.68333
-5.11489
-3.88972
-2.93931
-2.2071
-1.64684
-1.22107
-0.899691
-0.658742
-0.479304
-0.346565
-0.249025
-0.177824
-0.126192
-0.0889956
-0.0623749
-0.0434469
-0.030076
-0.0206917
-0.014148
-0.00961424
-0.00649329
-0.0043586
-0.00290781
-0.0019281
-0.00127072
-0.000832462
-0.000542184
-0.00035124
-0.000226599
-0.000146035
-9.47561e-05
-6.30882e-05
-4.49124e-05
-3.66485e-05
-1456.86
-1447.27
-1428.26
-1400.23
-1363.71
-1319.39
-1268.11
-1210.81
-1148.49
-1082.22
-1013.07
-942.104
-870.36
-798.804
-728.322
-659.708
-593.645
-530.701
-471.329
-415.865
-364.532
-317.452
-274.652
-236.075
-201.598
-171.038
-144.169
-120.733
-100.453
-83.0397
-68.2016
-55.6538
-45.1223
-36.3485
-29.0927