/*--------------------------------*- C++ -*----------------------------------*\
  =========                 |
  \\      /  F ield         | OpenFOAM: The Open Source CFD Toolbox
   \\    /   O peration     | Website:  https://openfoam.org
    \\  /    A nd           | Version:  10
     \\/     M anipulation  |
\*---------------------------------------------------------------------------*/
FoamFile
{
    format      ascii;
    class       volScalarField;
    location    "454";
    object      gradTz;
}
// * * * * * * * * * * * * * * * * * * * * * * * * * * * * * * * * * * * * * //

dimensions      [0 -1 0 1 0 0 0];

internalField   nonuniform List<scalar> 
11250
(
-14341.5
-4137.12
-1517.16
-714.089
-409.997
-269.099
-192.521
-145.857
-115.012
-93.3612
-77.4385
-65.2819
-55.7106
-47.9797
-41.6011
-36.2448
-31.6817
-27.7489
-24.3282
-21.332
-18.694
-16.3631
-14.2991
-12.4695
-10.8476
-9.41094
-8.1402
-7.01852
-6.03091
-5.16389
-4.40522
-3.74371
-3.16909
-2.67194
-2.24359
-1.8761
-1.56219
-1.29527
-1.06933
-0.878958
-0.719313
-0.586066
-0.475381
-0.383879
-0.308598
-0.246963
-0.196744
-0.156027
-0.123174
-0.0967952
-0.0757185
-0.0589604
-0.045701
-0.0352611
-0.0270813
-0.0207036
-0.0157551
-0.0119343
-0.00899861
-0.00675389
-0.00504586
-0.00375252
-0.00277796
-0.00204719
-0.00150193
-0.00109715
-0.00079825
-0.000578798
-0.000418763
-0.000303073
-0.000220506
-0.000162831
-0.000124156
-0.000100448
-8.91951e-05
-8228.57
-4826.78
-2734.46
-1643.13
-1066.65
-742.842
-547.528
-421.643
-335.751
-274.278
-228.489
-193.217
-165.264
-142.575
-123.784
-107.958
-94.4442
-82.7751
-72.6103
-63.696
-55.8397
-48.8924
-42.7363
-37.2764
-32.4341
-28.1431
-24.3464
-20.9942
-18.042
-15.4497
-13.181
-11.2025
-9.48367
-7.9964
-6.71482
-5.61522
-4.67591
-3.87711
-3.20092
-2.63116
-2.15333
-1.75449
-1.42317
-1.14926
-0.923906
-0.739393
-0.589053
-0.467153
-0.368795
-0.289819
-0.226715
-0.176541
-0.136841
-0.105582
-0.0810904
-0.061994
-0.047177
-0.0357364
-0.0269459
-0.0202243
-0.0151098
-0.011237
-0.0083187
-0.00613042
-0.00449766
-0.00328554
-0.00239045
-0.00173329
-0.00125405
-0.000907602
-0.000660345
-0.000487629
-0.000371812
-0.000300815
-0.000267117
-5516.95
-4206.47
-2950.26
-2056.84
-1470.19
-1087.69
-832.736
-657.113
-531.792
-439.282
-368.842
-313.701
-269.472
-233.238
-203.012
-177.41
-155.45
-136.419
-119.792
-105.177
-92.2706
-80.8398
-70.6974
-61.6922
-53.6982
-46.609
-40.3325
-34.7877
-29.9022
-25.6107
-21.8535
-18.576
-15.728
-13.263
-11.1385
-9.31543
-7.75781
-6.43304
-5.31145
-4.36631
-3.57358
-2.91185
-2.36209
-1.90757
-1.53358
-1.22736
-0.977837
-0.775508
-0.612246
-0.481151
-0.376398
-0.293105
-0.227198
-0.175303
-0.134641
-0.102936
-0.0783349
-0.0593395
-0.0447438
-0.0335832
-0.0250907
-0.0186599
-0.0138141
-0.0101803
-0.00746902
-0.00545618
-0.00396979
-0.00287848
-0.00208262
-0.00150729
-0.00109667
-0.000809841
-0.000617501
-0.000499595
-0.000443633
-4114.97
-3531.03
-2802.46
-2163.02
-1668.83
-1304.31
-1038
-841.742
-694.559
-581.835
-493.598
-423.056
-365.548
-317.834
-277.63
-243.305
-213.673
-187.86
-165.214
-145.238
-127.549
-111.846
-97.8869
-85.4727
-74.438
-64.6413
-55.9595
-48.2837
-41.5159
-35.5675
-30.3571
-25.8099
-21.857
-18.4347
-15.4843
-12.9517
-10.7875
-8.94639
-7.3874
-6.07344
-4.97121
-4.05101
-3.28643
-2.65422
-2.13399
-1.70798
-1.36082
-1.0793
-0.852125
-0.669696
-0.523917
-0.407995
-0.316265
-0.244035
-0.187436
-0.143303
-0.109058
-0.0826146
-0.0622955
-0.046758
-0.0349347
-0.0259815
-0.0192346
-0.0141753
-0.0104002
-0.00759758
-0.00552791
-0.00400833
-0.00290014
-0.00209899
-0.0015272
-0.00112779
-0.000859946
-0.000695757
-0.000617827
-3295.75
-2999.05
-2564.39
-2122.88
-1736.78
-1421.79
-1172.37
-976.543
-822.223
-699.369
-600.24
-519.074
-451.64
-394.838
-346.393
-304.625
-268.28
-236.415
-208.312
-183.416
-161.292
-141.594
-124.04
-108.398
-94.4698
-82.0868
-71.0997
-61.3755
-52.7943
-45.2462
-38.6302
-32.8532
-27.8287
-23.4768
-19.7234
-16.5006
-13.7456
-11.4014
-9.41591
-7.74214
-6.33782
-5.16519
-4.19074
-3.38487
-2.72166
-2.1785
-1.73584
-1.37683
-1.08709
-0.85441
-0.668459
-0.520582
-0.403559
-0.311406
-0.239192
-0.18288
-0.139182
-0.105438
-0.0795083
-0.0596795
-0.0445902
-0.0331634
-0.0245522
-0.0180947
-0.0132761
-0.00969869
-0.00705681
-0.00511705
-0.0037024
-0.00267969
-0.00194975
-0.00143985
-0.00109792
-0.000888311
-0.000788822
-2771.7
-2603.56
-2331.7
-2025.93
-1732.33
-1472.47
-1252.07
-1068.87
-917.599
-792.497
-688.386
-600.976
-526.857
-463.381
-408.507
-360.671
-318.668
-281.569
-248.649
-219.339
-193.184
-169.816
-148.932
-130.278
-113.634
-98.8109
-85.6399
-73.9684
-63.6578
-54.5803
-46.6175
-39.6597
-33.6046
-28.3572
-23.8296
-19.9403
-16.6145
-13.7835
-11.3851
-9.36277
-7.66558
-6.24811
-5.06996
-4.09548
-3.29338
-2.63637
-2.10085
-1.66649
-1.3159
-1.03432
-0.809264
-0.630277
-0.488624
-0.377067
-0.289642
-0.221463
-0.168554
-0.127695
-0.0962951
-0.0722826
-0.0540087
-0.0401696
-0.0297402
-0.0219188
-0.0160824
-0.0117491
-0.00854894
-0.00619919
-0.00448549
-0.00324655
-0.00236226
-0.00174452
-0.00133027
-0.00107632
-0.00095579
-2413.95
-2309.97
-2131.16
-1915.15
-1692.54
-1482.24
-1293.26
-1128.11
-985.805
-863.811
-759.186
-669.116
-591.138
-523.196
-463.618
-411.065
-364.468
-322.978
-285.915
-252.733
-222.985
-196.305
-172.384
-150.958
-131.798
-114.701
-99.4843
-85.9811
-74.0379
-63.512
-54.2704
-46.1887
-39.1507
-33.048
-27.7794
-23.2516
-19.378
-16.0797
-13.2844
-10.9266
-8.94745
-7.29406
-5.91952
-4.78237
-3.8462
-3.07925
-2.45402
-1.94683
-1.5374
-1.20852
-0.945637
-0.736542
-0.571046
-0.440699
-0.338541
-0.258866
-0.197032
-0.149277
-0.112576
-0.0845073
-0.0631456
-0.0469672
-0.0347742
-0.0256299
-0.0188059
-0.0137393
-0.00999736
-0.00724972
-0.00524577
-0.00379694
-0.00276282
-0.00204039
-0.00155593
-0.00125893
-0.00111796
-2158.02
-2089.09
-1965.75
-1809
-1638.58
-1468.99
-1309.08
-1163.15
-1032.53
-916.79
-814.675
-724.617
-645.038
-574.499
-511.744
-455.715
-405.532
-360.47
-319.933
-283.425
-250.535
-220.914
-194.263
-170.322
-148.86
-129.668
-112.556
-97.3477
-83.878
-71.9932
-61.548
-52.4059
-44.4383
-37.5248
-31.5528
-26.4176
-22.0226
-18.2786
-15.1044
-12.4261
-10.1772
-8.29802
-6.73536
-5.44228
-4.37752
-3.50507
-2.79371
-2.21655
-1.75057
-1.37622
-1.07696
-0.838894
-0.65045
-0.502015
-0.38567
-0.294923
-0.224489
-0.170089
-0.128278
-0.0962996
-0.0719605
-0.0535262
-0.0396322
-0.0292116
-0.0214349
-0.0156605
-0.0113958
-0.00826408
-0.00597995
-0.00432849
-0.0031497
-0.00232619
-0.00177392
-0.00143535
-0.00127465
-1968.55
-1920.22
-1831.38
-1714.29
-1581.67
-1444.12
-1309.15
-1181.34
-1063.04
-955.046
-857.244
-769.01
-689.508
-617.85
-553.189
-494.761
-441.897
-394.021
-350.641
-311.336
-275.745
-243.554
-214.485
-188.292
-164.749
-143.648
-124.799
-108.018
-93.1347
-79.9863
-68.4182
-58.2836
-49.4438
-41.7679
-35.1331
-29.4247
-24.5365
-20.3706
-16.8372
-13.8548
-11.3497
-9.25571
-7.51402
-6.07243
-4.88511
-3.91204
-3.11849
-2.47453
-1.95454
-1.53673
-1.20268
-0.936912
-0.726513
-0.560766
-0.430837
-0.329486
-0.250815
-0.190048
-0.143339
-0.107612
-0.0804183
-0.0598204
-0.0442947
-0.0326497
-0.0239587
-0.0175053
-0.0127386
-0.00923827
-0.00668513
-0.0048391
-0.00352138
-0.00260079
-0.00198339
-0.0016049
-0.00142524
-1824.67
-1789.15
-1722.64
-1632.58
-1527.33
-1414.5
-1300.08
-1188.28
-1081.74
-981.881
-889.278
-803.973
-725.694
-654.015
-588.451
-528.515
-473.746
-423.726
-378.079
-336.47
-298.598
-264.194
-233.011
-204.825
-179.421
-156.601
-136.174
-117.958
-101.777
-87.4641
-74.857
-63.8013
-54.1497
-45.7622
-38.5074
-32.2619
-26.9108
-22.3481
-18.4766
-15.2074
-12.4605
-10.1637
-8.25267
-6.67054
-5.36714
-4.2987
-3.42719
-2.71984
-2.14856
-1.68947
-1.32236
-1.03025
-0.798962
-0.616741
-0.473882
-0.362434
-0.275916
-0.209082
-0.157706
-0.118405
-0.088489
-0.0658276
-0.0487454
-0.0359322
-0.0263687
-0.0192669
-0.0140212
-0.0101689
-0.00735884
-0.00532699
-0.00387657
-0.00286323
-0.00218362
-0.00176698
-0.00156921
-1713.26
-1686.1
-1634.53
-1563.29
-1477.98
-1384.06
-1286.21
-1188.04
-1092.12
-1000.1
-912.951
-831.137
-754.795
-683.859
-618.141
-557.4
-501.368
-449.777
-402.369
-358.897
-319.13
-282.848
-249.841
-219.911
-192.863
-168.508
-146.663
-127.148
-109.787
-94.4097
-80.8493
-68.9452
-58.5435
-49.4971
-41.6667
-34.9213
-29.1387
-24.2056
-20.0178
-16.4802
-13.5065
-11.0192
-8.94915
-7.23483
-5.82218
-4.66389
-3.7189
-2.95174
-2.33206
-1.83398
-1.43563
-1.11862
-0.867581
-0.669772
-0.514675
-0.393665
-0.299716
-0.227134
-0.171334
-0.128646
-0.0961483
-0.0715296
-0.0529708
-0.039049
-0.0286574
-0.0209403
-0.0152397
-0.0110531
-0.00799906
-0.00579069
-0.0042142
-0.00311274
-0.002374
-0.0019211
-0.00170612
-1625.71
-1604.2
-1562.94
-1505.06
-1434.4
-1354.95
-1270.3
-1183.48
-1096.81
-1011.98
-930.129
-851.987
-777.965
-708.257
-642.916
-581.901
-525.115
-472.427
-423.689
-378.743
-337.426
-299.571
-265.01
-233.571
-205.083
-179.372
-156.263
-135.584
-117.158
-100.816
-86.3874
-73.7082
-62.6188
-52.9664
-44.6054
-37.3982
-31.2161
-25.9394
-21.4578
-17.6703
-14.4854
-11.8205
-9.60192
-7.76405
-6.24918
-5.00678
-3.99293
-3.16971
-2.50461
-1.96993
-1.54223
-1.20181
-0.932204
-0.719733
-0.553118
-0.423107
-0.322158
-0.24416
-0.184191
-0.138309
-0.103378
-0.0769127
-0.0569606
-0.0419926
-0.0308194
-0.0225212
-0.0163911
-0.0118887
-0.00860421
-0.00622906
-0.00453343
-0.00334868
-0.00255406
-0.00206688
-0.00183563
-1556.13
-1538.55
-1504.58
-1456.34
-1396.58
-1328.2
-1254.02
-1176.51
-1097.73
-1019.28
-942.351
-867.813
-796.251
-728.047
-663.431
-602.525
-545.374
-491.968
-442.259
-396.171
-353.607
-314.452
-278.578
-245.848
-216.111
-189.213
-164.989
-143.273
-123.895
-106.684
-91.4716
-78.089
-66.3737
-56.1681
-47.3213
-39.6903
-33.1408
-27.5476
-22.7948
-18.7764
-15.396
-12.5665
-10.2101
-8.25745
-6.64754
-5.32687
-4.24888
-3.3734
-2.66593
-2.09709
-1.64199
-1.2797
-0.992724
-0.766538
-0.589145
-0.450707
-0.343202
-0.260131
-0.196254
-0.147378
-0.110164
-0.081967
-0.0607076
-0.0447577
-0.0328506
-0.0240069
-0.0174732
-0.0126742
-0.00917317
-0.00664128
-0.00483366
-0.00357062
-0.00272346
-0.00220406
-0.00195751
-1500.32
-1485.55
-1456.84
-1415.7
-1364.1
-1304.25
-1238.35
-1168.43
-1096.27
-1023.35
-950.853
-879.697
-810.573
-743.989
-680.305
-619.769
-562.54
-508.711
-458.32
-411.367
-367.814
-327.598
-290.631
-256.805
-225.996
-198.066
-172.864
-150.234
-130.01
-112.025
-96.1083
-82.0924
-69.8113
-59.104
-49.8155
-41.7983
-34.9132
-29.0302
-24.0287
-19.7983
-16.238
-13.2569
-10.7733
-8.71475
-7.01701
-5.62392
-4.48656
-3.56265
-2.8159
-2.21536
-1.73481
-1.3522
-1.04909
-0.810143
-0.62272
-0.476438
-0.362828
-0.275029
-0.207511
-0.155843
-0.1165
-0.0866871
-0.0642076
-0.047341
-0.0347487
-0.0253954
-0.0184849
-0.0134087
-0.00970526
-0.00702685
-0.00511454
-0.0037783
-0.002882
-0.00233246
-0.0020716
-1455.25
-1442.53
-1417.69
-1381.82
-1336.42
-1283.16
-1223.81
-1160.04
-1093.39
-1025.2
-956.601
-888.523
-821.713
-756.756
-694.105
-634.102
-576.997
-522.966
-472.123
-424.531
-380.208
-339.136
-301.265
-266.519
-234.796
-205.977
-179.927
-156.495
-135.526
-116.853
-100.31
-85.7276
-72.9386
-61.7795
-52.092
-43.725
-36.5353
-30.3887
-25.1607
-20.7366
-17.0119
-13.892
-11.292
-9.13614
-7.35771
-5.89803
-4.70601
-3.73749
-2.95452
-2.32473
-1.82069
-1.41931
-1.10128
-0.850541
-0.653839
-0.500294
-0.38103
-0.288851
-0.217957
-0.163701
-0.122383
-0.0910712
-0.0674593
-0.0497416
-0.036513
-0.0266863
-0.0194256
-0.0140919
-0.0102002
-0.0073856
-0.00537593
-0.00397159
-0.00302959
-0.00245201
-0.00217783
-1418.67
-1407.47
-1385.51
-1353.62
-1312.95
-1264.83
-1210.66
-1151.86
-1089.76
-1025.56
-960.34
-895.005
-830.323
-766.928
-705.335
-645.955
-589.108
-535.037
-483.917
-435.867
-390.953
-349.199
-310.59
-275.076
-242.581
-213.003
-186.219
-162.091
-140.469
-121.191
-104.094
-89.008
-75.766
-64.2026
-54.1571
-45.4754
-38.0109
-31.6261
-26.1929
-21.5932
-17.7191
-14.4729
-11.7667
-9.52219
-7.67007
-6.14951
-4.90748
-3.89811
-3.08194
-2.42532
-1.89972
-1.4811
-1.14935
-0.887763
-0.682522
-0.522292
-0.39782
-0.301606
-0.2276
-0.170957
-0.127817
-0.0951213
-0.0704641
-0.0519605
-0.0381441
-0.0278801
-0.0202957
-0.0147239
-0.0106583
-0.00771763
-0.0056179
-0.00415056
-0.00316627
-0.00256274
-0.00227624
-1388.85
-1378.79
-1359.01
-1330.16
-1293.14
-1249.02
-1198.96
-1144.17
-1085.81
-1024.97
-962.638
-899.704
-836.937
-774.996
-714.434
-655.713
-599.204
-545.205
-493.94
-445.574
-400.216
-357.925
-318.717
-282.57
-249.427
-219.204
-191.791
-167.062
-144.872
-125.065
-107.48
-91.9502
-78.3069
-66.384
-56.0193
-47.0561
-39.3453
-32.7466
-27.1287
-22.3706
-18.3616
-15.0012
-12.1988
-9.87384
-7.95481
-6.37892
-5.0914
-4.04482
-3.1984
-2.51731
-1.97203
-1.53766
-1.19338
-0.921869
-0.708816
-0.542465
-0.413223
-0.31331
-0.236452
-0.17762
-0.132808
-0.0988429
-0.0732259
-0.0540005
-0.0396441
-0.0289781
-0.0210962
-0.0153054
-0.0110798
-0.00802331
-0.00584071
-0.0043154
-0.00329218
-0.00266476
-0.00236692
-1364.48
-1355.29
-1337.17
-1310.65
-1276.46
-1235.48
-1188.7
-1137.15
-1081.85
-1023.8
-963.918
-903.062
-841.989
-781.368
-721.778
-663.713
-607.585
-553.73
-502.416
-453.844
-408.158
-365.449
-325.761
-289.094
-255.411
-224.644
-196.697
-171.451
-148.77
-128.504
-110.494
-94.5736
-80.5768
-68.3363
-57.6885
-48.4752
-40.5451
-33.7552
-27.9721
-23.0721
-18.9419
-15.4788
-12.5898
-10.1923
-8.21293
-6.58704
-5.25836
-4.17809
-3.30425
-2.60097
-2.03782
-1.58915
-1.23348
-0.952949
-0.732787
-0.560864
-0.427277
-0.323994
-0.244535
-0.183706
-0.137369
-0.102244
-0.0757508
-0.0558661
-0.0410162
-0.0299828
-0.0218288
-0.0158378
-0.0114658
-0.00830325
-0.00604481
-0.00446642
-0.00340756
-0.00275827
-0.00245004
-1344.53
-1336
-1319.16
-1294.44
-1262.46
-1223.96
-1179.78
-1130.84
-1078.05
-1022.31
-964.496
-905.419
-845.824
-786.382
-727.684
-670.248
-614.513
-560.848
-509.551
-460.855
-414.934
-371.904
-331.833
-294.743
-260.613
-229.391
-200.991
-175.305
-152.202
-131.539
-113.159
-96.8991
-82.5928
-70.0733
-59.1763
-49.7419
-41.6175
-34.658
-28.7279
-23.7014
-19.4632
-15.9081
-12.9417
-10.4792
-8.44558
-6.77477
-5.40907
-4.29848
-3.39993
-2.67664
-2.09737
-1.63577
-1.26981
-0.981119
-0.754523
-0.577554
-0.440031
-0.333693
-0.251875
-0.189235
-0.141513
-0.105336
-0.0780468
-0.057563
-0.0422646
-0.0308972
-0.0224958
-0.0163226
-0.0118174
-0.00855827
-0.00623078
-0.00460407
-0.00351275
-0.00284354
-0.00252584
-1328.16
-1320.14
-1304.3
-1280.99
-1250.74
-1214.2
-1172.1
-1125.26
-1074.51
-1020.69
-964.602
-907.037
-848.719
-790.313
-732.419
-675.568
-620.221
-566.768
-515.532
-466.773
-420.686
-377.414
-337.041
-299.608
-265.112
-233.51
-204.729
-178.669
-155.207
-134.202
-115.503
-98.9488
-84.3733
-71.6101
-60.4946
-50.8662
-42.5706
-35.4615
-29.4014
-24.2629
-19.9287
-16.292
-13.2566
-10.7361
-8.65413
-6.94318
-5.54438
-4.40663
-3.48595
-2.7447
-2.15096
-1.67776
-1.30254
-1.00651
-0.774125
-0.592612
-0.451543
-0.342451
-0.258506
-0.194231
-0.14526
-0.108132
-0.0801236
-0.0590984
-0.0433944
-0.0317249
-0.0230997
-0.0167617
-0.0121359
-0.00878937
-0.00639936
-0.00472887
-0.00360814
-0.00292087
-0.00259461
-1314.73
-1307.11
-1292.04
-1269.83
-1240.95
-1205.96
-1165.53
-1120.39
-1071.3
-1019.05
-964.405
-908.116
-850.89
-793.385
-736.205
-679.887
-624.907
-571.672
-520.525
-471.746
-425.549
-382.094
-341.486
-303.778
-268.981
-237.065
-207.966
-181.59
-157.823
-136.527
-117.554
-100.745
-85.9369
-72.9622
-61.6564
-51.8585
-43.4131
-36.1726
-29.9982
-24.761
-20.3421
-16.6333
-13.5368
-10.965
-8.84004
-7.09343
-5.66518
-4.50326
-3.56285
-2.80559
-2.19893
-1.71537
-1.33187
-1.02928
-0.791708
-0.606126
-0.461879
-0.350318
-0.264464
-0.198722
-0.148628
-0.110647
-0.0819923
-0.0604803
-0.0444117
-0.0324704
-0.0236437
-0.0171573
-0.0124229
-0.00899771
-0.00655136
-0.00484143
-0.0036942
-0.00299066
-0.00265666
-1303.71
-1296.4
-1281.94
-1260.6
-1232.79
-1199.03
-1159.94
-1116.16
-1068.43
-1017.47
-964.024
-908.805
-852.506
-795.779
-739.223
-683.382
-628.741
-575.721
-524.678
-475.908
-429.641
-386.053
-345.261
-307.334
-272.293
-240.118
-210.754
-184.114
-160.088
-138.545
-119.338
-102.312
-87.3025
-74.1451
-62.6746
-52.7294
-44.1536
-36.7985
-30.5242
-25.2004
-20.7072
-16.935
-13.7848
-11.1677
-9.00486
-7.22674
-5.77244
-4.58912
-3.63122
-2.85977
-2.24164
-1.74886
-1.35802
-1.04958
-0.807396
-0.618189
-0.471108
-0.357345
-0.269789
-0.202737
-0.151642
-0.112898
-0.0836647
-0.0617175
-0.0453227
-0.0331382
-0.0241312
-0.0175119
-0.0126803
-0.00918455
-0.00668771
-0.00494242
-0.00377143
-0.00305331
-0.00271238
-1294.67
-1287.61
-1273.62
-1252.96
-1226.01
-1193.24
-1155.2
-1112.54
-1065.9
-1016
-963.543
-909.217
-853.701
-797.637
-741.622
-686.203
-631.87
-579.053
-528.12
-479.377
-433.071
-389.386
-348.454
-310.353
-275.114
-242.727
-213.143
-186.282
-162.039
-140.287
-120.882
-103.67
-88.4889
-75.1746
-63.5621
-53.4897
-44.8009
-37.3464
-30.9851
-25.5861
-21.028
-17.2004
-14.003
-11.3463
-9.1502
-7.34439
-5.86718
-4.66501
-3.6917
-2.90772
-2.27945
-1.77854
-1.38119
-1.06759
-0.821317
-0.628898
-0.479307
-0.36359
-0.274523
-0.206308
-0.154322
-0.1149
-0.0851537
-0.0628194
-0.0461342
-0.0337333
-0.0245658
-0.0178281
-0.0129098
-0.00935123
-0.00680939
-0.00503257
-0.00384039
-0.00310925
-0.00276214
-1287.25
-1280.39
-1266.78
-1246.66
-1220.39
-1188.4
-1151.22
-1109.44
-1063.7
-1014.67
-963.02
-909.436
-854.577
-799.076
-743.526
-688.474
-634.415
-581.786
-530.961
-482.259
-435.933
-392.18
-351.141
-312.903
-277.505
-244.945
-215.18
-188.136
-163.712
-141.784
-122.211
-104.841
-89.5141
-76.0657
-64.3316
-54.1499
-45.3638
-37.8234
-31.387
-25.9226
-21.3083
-17.4324
-14.1941
-11.5028
-9.27766
-7.44765
-5.95039
-4.73172
-3.7449
-2.94992
-2.31277
-1.8047
-1.40163
-1.08347
-0.833607
-0.638357
-0.48655
-0.36911
-0.278709
-0.209467
-0.156695
-0.116673
-0.0864725
-0.0637955
-0.0468535
-0.0342608
-0.0249511
-0.0181085
-0.0131135
-0.00949916
-0.00691741
-0.00511262
-0.00390164
-0.00315895
-0.00280635
-1281.18
-1274.47
-1261.16
-1241.47
-1215.73
-1184.37
-1147.88
-1106.82
-1061.8
-1013.47
-962.494
-909.524
-855.213
-800.186
-745.032
-690.298
-636.48
-584.02
-533.3
-484.643
-438.313
-394.514
-353.393
-315.048
-279.523
-246.822
-216.909
-189.714
-165.139
-143.063
-123.349
-105.846
-90.3954
-76.833
-64.9952
-54.7201
-45.8507
-38.2365
-31.7355
-26.2148
-21.5518
-17.6343
-14.3605
-11.6392
-9.38886
-7.53781
-6.0231
-4.79005
-3.79144
-2.98687
-2.34195
-1.82764
-1.41956
-1.09742
-0.844398
-0.646666
-0.492917
-0.373964
-0.282392
-0.212247
-0.158783
-0.118235
-0.0876343
-0.0646559
-0.0474876
-0.0347261
-0.025291
-0.018356
-0.0132933
-0.00962977
-0.0070128
-0.00518334
-0.00395576
-0.00320288
-0.00284543
-1276.22
-1269.63
-1256.55
-1237.2
-1211.9
-1181.03
-1145.09
-1104.6
-1060.17
-1012.42
-961.988
-909.525
-855.67
-801.04
-746.221
-691.759
-638.151
-585.841
-535.218
-486.609
-440.284
-396.454
-355.274
-316.844
-281.218
-248.404
-218.37
-191.05
-166.349
-144.151
-124.319
-106.705
-91.1491
-77.4903
-65.5646
-55.2101
-46.2696
-38.5924
-32.036
-26.4671
-21.7624
-17.809
-14.5047
-11.7574
-9.48535
-7.61611
-6.0863
-4.84078
-3.83196
-3.01906
-2.36739
-1.84763
-1.4352
-1.10959
-0.853823
-0.653928
-0.498484
-0.37821
-0.285614
-0.214681
-0.160613
-0.119603
-0.0886526
-0.0654102
-0.0480437
-0.0351342
-0.0255893
-0.0185733
-0.0134511
-0.00974449
-0.00709662
-0.00524549
-0.00400334
-0.00324151
-0.00287981
-1272.17
-1265.67
-1252.78
-1233.7
-1208.74
-1178.27
-1142.77
-1102.75
-1058.79
-1011.5
-961.519
-909.472
-855.993
-801.694
-747.157
-692.926
-639.499
-587.322
-536.786
-488.224
-441.911
-398.061
-356.836
-318.342
-282.636
-249.731
-219.598
-192.175
-167.372
-145.072
-125.142
-107.434
-91.7905
-78.0506
-66.0506
-55.6289
-46.6282
-38.8975
-32.2939
-26.6839
-21.9435
-17.9594
-14.6289
-11.8594
-9.56864
-7.68375
-6.14094
-4.88468
-3.86704
-3.04694
-2.38944
-1.86498
-1.44878
-1.12016
-0.862013
-0.660241
-0.503325
-0.381905
-0.28842
-0.216801
-0.162206
-0.120795
-0.0895404
-0.066068
-0.0485289
-0.0354905
-0.0258498
-0.018763
-0.013589
-0.00984474
-0.00716988
-0.00529983
-0.00404495
-0.0032753
-0.00290988
-1268.87
-1262.45
-1249.7
-1230.84
-1206.15
-1176
-1140.84
-1101.2
-1057.62
-1010.72
-961.094
-909.388
-856.219
-802.194
-747.893
-693.856
-640.583
-588.521
-538.064
-489.546
-443.248
-399.388
-358.13
-319.586
-283.817
-250.838
-220.625
-193.119
-168.231
-145.848
-125.836
-108.05
-92.3336
-78.5257
-66.4634
-55.9851
-46.9335
-39.1576
-32.5141
-26.8691
-22.0984
-18.0882
-14.7353
-11.9469
-9.64016
-7.74189
-6.18793
-4.92246
-3.89725
-3.07098
-2.40846
-1.87995
-1.4605
-1.1293
-0.869093
-0.6657
-0.507514
-0.385103
-0.290849
-0.218637
-0.163588
-0.121829
-0.0903105
-0.0666389
-0.0489501
-0.0357998
-0.026076
-0.0189278
-0.0137089
-0.00993189
-0.00723358
-0.00534709
-0.00408115
-0.0033047
-0.00293606
-1266.18
-1259.82
-1247.2
-1228.5
-1204.03
-1174.13
-1139.26
-1099.91
-1056.64
-1010.04
-960.716
-909.288
-856.373
-802.575
-748.469
-694.596
-641.453
-589.49
-539.101
-490.625
-444.343
-400.478
-359.197
-320.615
-284.796
-251.758
-221.481
-193.908
-168.95
-146.498
-126.419
-108.568
-92.7911
-78.9266
-66.8122
-56.2865
-47.1922
-39.3782
-32.7011
-27.0266
-22.2302
-18.1979
-14.8261
-12.0216
-9.70126
-7.79159
-6.22814
-4.95481
-3.92314
-3.09159
-2.42477
-1.8928
-1.47057
-1.13715
-0.875181
-0.670397
-0.51112
-0.387857
-0.292942
-0.22022
-0.164779
-0.122721
-0.0909751
-0.0671317
-0.0493138
-0.036067
-0.0262714
-0.0190703
-0.0138125
-0.0100073
-0.0072887
-0.005388
-0.0041125
-0.00333017
-0.00295873
-1264
-1257.69
-1245.16
-1226.6
-1202.3
-1172.6
-1137.96
-1098.85
-1055.83
-1009.47
-960.385
-909.183
-856.476
-802.864
-748.92
-695.182
-642.15
-590.271
-539.941
-491.502
-445.237
-401.37
-360.073
-321.462
-285.604
-252.52
-222.191
-194.563
-169.549
-147.04
-126.906
-109.002
-93.1748
-79.2633
-67.1055
-56.5403
-47.4103
-39.5645
-32.8591
-27.1598
-22.3419
-18.291
-14.9032
-12.085
-9.75318
-7.83386
-6.26236
-4.98237
-3.94521
-3.10916
-2.4387
-1.90378
-1.47918
-1.14386
-0.880388
-0.674418
-0.514208
-0.390217
-0.294736
-0.221577
-0.1658
-0.123486
-0.0915456
-0.0675549
-0.0496262
-0.0362966
-0.0264395
-0.0191928
-0.0139016
-0.0100721
-0.00733614
-0.00542322
-0.00413949
-0.00335211
-0.00297826
-1262.24
-1255.97
-1243.51
-1225.06
-1200.89
-1171.36
-1136.89
-1097.97
-1055.15
-1008.99
-960.099
-909.079
-856.542
-803.082
-749.271
-695.647
-642.706
-590.898
-540.62
-492.213
-445.963
-402.098
-360.79
-322.157
-286.268
-253.148
-222.778
-195.105
-170.045
-147.49
-127.311
-109.364
-93.4949
-79.5446
-67.3509
-56.7529
-47.5933
-39.7209
-32.992
-27.272
-22.436
-18.3694
-14.9682
-12.1386
-9.79709
-7.86964
-6.29135
-5.00572
-3.96393
-3.12408
-2.45053
-1.91311
-1.48649
-1.14957
-0.884821
-0.677841
-0.516838
-0.392228
-0.296266
-0.222735
-0.166672
-0.12414
-0.0920328
-0.0679165
-0.0498932
-0.0364929
-0.0265832
-0.0192977
-0.0139779
-0.0101276
-0.00737677
-0.00545339
-0.00416262
-0.00337091
-0.002995
-1260.82
-1254.57
-1242.17
-1223.81
-1199.75
-1170.34
-1136.02
-1097.26
-1054.59
-1008.59
-959.854
-908.982
-856.582
-803.247
-749.544
-696.013
-643.148
-591.399
-541.165
-492.787
-446.552
-402.69
-361.374
-322.724
-286.812
-253.663
-223.26
-195.552
-170.455
-147.863
-127.647
-109.664
-93.7608
-79.7785
-67.5553
-56.9302
-47.746
-39.8516
-33.1031
-27.3659
-22.5148
-18.4352
-15.0228
-12.1837
-9.83403
-7.89976
-6.31577
-5.02541
-3.97972
-3.13668
-2.46052
-1.92099
-1.49268
-1.1544
-0.888574
-0.680741
-0.519068
-0.393934
-0.297564
-0.223718
-0.167413
-0.124695
-0.0924469
-0.0682238
-0.0501203
-0.0366599
-0.0267055
-0.0193869
-0.0140428
-0.0101749
-0.00741138
-0.0054791
-0.00418234
-0.00338694
-0.00300928
-1259.67
-1253.45
-1241.1
-1222.8
-1198.82
-1169.52
-1135.31
-1096.67
-1054.13
-1008.26
-959.647
-908.894
-856.605
-803.37
-749.757
-696.301
-643.499
-591.8
-541.602
-493.249
-447.028
-403.169
-361.848
-323.186
-287.256
-254.084
-223.655
-195.918
-170.792
-148.169
-127.923
-109.911
-93.9805
-79.9722
-67.7247
-57.0773
-47.8729
-39.9603
-33.1957
-27.4441
-22.5806
-18.4902
-15.0684
-12.2213
-9.86495
-7.92499
-6.33624
-5.04194
-3.99298
-3.14726
-2.46892
-1.92762
-1.49789
-1.15847
-0.891736
-0.683186
-0.520948
-0.395372
-0.29866
-0.224548
-0.168038
-0.125164
-0.0927969
-0.0684838
-0.0503125
-0.0368013
-0.026809
-0.0194625
-0.0140979
-0.010215
-0.00744072
-0.00550091
-0.00419907
-0.00340054
-0.0030214
-1258.75
-1252.55
-1240.23
-1221.99
-1198.08
-1168.86
-1134.74
-1096.19
-1053.76
-1007.99
-959.472
-908.815
-856.616
-803.462
-749.921
-696.527
-643.777
-592.119
-541.952
-493.619
-447.41
-403.555
-362.231
-323.56
-287.616
-254.426
-223.976
-196.217
-171.067
-148.42
-128.15
-110.114
-94.1613
-80.1317
-67.8643
-57.1987
-47.9778
-40.0503
-33.2723
-27.509
-22.6352
-18.5358
-15.1064
-12.2527
-9.8907
-7.94602
-6.35332
-5.05572
-4.00405
-3.1561
-2.47594
-1.93317
-1.50225
-1.16188
-0.894386
-0.685236
-0.522526
-0.39658
-0.29958
-0.225245
-0.168564
-0.125558
-0.0930914
-0.0687026
-0.0504742
-0.0369203
-0.0268962
-0.0195261
-0.0141443
-0.0102488
-0.00746547
-0.0055193
-0.00421318
-0.00341203
-0.00303163
-1258.02
-1251.83
-1239.54
-1221.34
-1197.48
-1168.33
-1134.28
-1095.81
-1053.45
-1007.76
-959.327
-908.747
-856.619
-803.53
-750.047
-696.704
-643.996
-592.372
-542.23
-493.916
-447.717
-403.866
-362.539
-323.862
-287.907
-254.703
-224.237
-196.46
-171.291
-148.625
-128.335
-110.281
-94.3093
-80.2624
-67.979
-57.2986
-48.0641
-40.1244
-33.3355
-27.5626
-22.6803
-18.5736
-15.1378
-12.2787
-9.91204
-7.96346
-6.3675
-5.06718
-4.01325
-3.16346
-2.48179
-1.93779
-1.50588
-1.16472
-0.896597
-0.686947
-0.523843
-0.397589
-0.300348
-0.225828
-0.169004
-0.125888
-0.0933378
-0.0688857
-0.0506097
-0.03702
-0.0269693
-0.0195795
-0.0141832
-0.0102771
-0.00748624
-0.00553474
-0.00422503
-0.00342167
-0.00304022
-1257.43
-1251.25
-1238.99
-1220.82
-1197.01
-1167.9
-1133.9
-1095.5
-1053.2
-1007.58
-959.207
-908.688
-856.617
-803.581
-750.145
-696.843
-644.168
-592.572
-542.451
-494.151
-447.961
-404.114
-362.787
-324.105
-288.142
-254.927
-224.448
-196.657
-171.473
-148.791
-128.486
-110.416
-94.4299
-80.3691
-68.0727
-57.3802
-48.1348
-40.1851
-33.3874
-27.6066
-22.7174
-18.6046
-15.1636
-12.3
-9.92964
-7.97785
-6.3792
-5.07664
-4.02086
-3.16954
-2.48663
-1.94162
-1.5089
-1.16707
-0.898431
-0.688367
-0.524937
-0.398427
-0.300988
-0.226313
-0.169369
-0.126163
-0.093543
-0.0690383
-0.0507225
-0.0371031
-0.0270303
-0.0196241
-0.0142156
-0.0103008
-0.00750358
-0.00554764
-0.00423494
-0.00342973
-0.00304741
-1256.97
-1250.8
-1238.55
-1220.41
-1196.63
-1167.56
-1133.61
-1095.25
-1053
-1007.43
-959.108
-908.637
-856.612
-803.618
-750.22
-696.95
-644.304
-592.729
-542.626
-494.338
-448.156
-404.312
-362.985
-324.299
-288.33
-255.107
-224.618
-196.815
-171.619
-148.925
-128.608
-110.526
-94.5278
-80.4558
-68.1489
-57.4467
-48.1923
-40.2346
-33.4297
-27.6425
-22.7477
-18.6301
-15.1848
-12.3176
-9.94408
-7.98967
-6.38882
-5.08442
-4.02712
-3.17455
-2.49061
-1.94477
-1.51138
-1.16902
-0.899945
-0.68954
-0.525841
-0.39912
-0.301516
-0.226714
-0.169672
-0.126391
-0.0937131
-0.0691647
-0.0508161
-0.0371721
-0.0270809
-0.019661
-0.0142426
-0.0103205
-0.00751798
-0.00555836
-0.00424317
-0.00343643
-0.00305338
-1256.6
-1250.43
-1238.2
-1220.08
-1196.32
-1167.28
-1133.37
-1095.05
-1052.84
-1007.31
-959.028
-908.595
-856.606
-803.646
-750.277
-697.034
-644.409
-592.853
-542.764
-494.486
-448.311
-404.47
-363.143
-324.454
-288.48
-255.251
-224.754
-196.943
-171.737
-149.033
-128.706
-110.614
-94.6069
-80.5259
-68.2105
-57.5005
-48.239
-40.2748
-33.4641
-27.6718
-22.7724
-18.6508
-15.2021
-12.3319
-9.95588
-7.99933
-6.39668
-5.09079
-4.03225
-3.17866
-2.49388
-1.94736
-1.51342
-1.17062
-0.901189
-0.690504
-0.526585
-0.399691
-0.301951
-0.227044
-0.169922
-0.126578
-0.0938532
-0.069269
-0.0508933
-0.037229
-0.0271226
-0.0196915
-0.0142648
-0.0103367
-0.00752989
-0.00556722
-0.00424998
-0.00344198
-0.00305833
-1256.3
-1250.15
-1237.93
-1219.82
-1196.08
-1167.07
-1133.18
-1094.89
-1052.71
-1007.21
-958.962
-908.56
-856.6
-803.666
-750.321
-697.098
-644.492
-592.95
-542.872
-494.603
-448.433
-404.595
-363.268
-324.577
-288.6
-255.366
-224.863
-197.044
-171.832
-149.12
-128.785
-110.685
-94.6705
-80.5823
-68.2602
-57.544
-48.2767
-40.3073
-33.4919
-27.6954
-22.7924
-18.6676
-15.2161
-12.3435
-9.96546
-8.00719
-6.40309
-5.09598
-4.03643
-3.182
-2.49655
-1.94947
-1.51508
-1.17192
-0.902206
-0.691293
-0.527193
-0.400157
-0.302308
-0.227315
-0.170126
-0.126732
-0.0939682
-0.0693546
-0.0509567
-0.0372757
-0.0271569
-0.0197166
-0.0142831
-0.01035
-0.00753968
-0.00557451
-0.00425558
-0.00344654
-0.0030624
-1256.07
-1249.92
-1237.71
-1219.61
-1195.9
-1166.9
-1133.03
-1094.76
-1052.61
-1007.13
-958.909
-908.531
-856.593
-803.68
-750.354
-697.148
-644.556
-593.026
-542.957
-494.695
-448.529
-404.693
-363.366
-324.675
-288.695
-255.457
-224.949
-197.125
-171.907
-149.189
-128.848
-110.742
-94.7213
-80.6275
-68.3001
-57.5788
-48.307
-40.3335
-33.5143
-27.7145
-22.8085
-18.6811
-15.2274
-12.3529
-9.97321
-8.01354
-6.40827
-5.10018
-4.03982
-3.18472
-2.49871
-1.95119
-1.51643
-1.17298
-0.903033
-0.691935
-0.527688
-0.400538
-0.302598
-0.227535
-0.170293
-0.126857
-0.094062
-0.0694244
-0.0510085
-0.0373139
-0.0271849
-0.0197371
-0.0142981
-0.010361
-0.0075477
-0.00558048
-0.00426017
-0.00345028
-0.00306573
-1255.89
-1249.74
-1237.54
-1219.45
-1195.75
-1166.76
-1132.91
-1094.66
-1052.53
-1007.07
-958.867
-908.507
-856.587
-803.69
-750.38
-697.187
-644.605
-593.085
-543.023
-494.766
-448.604
-404.77
-363.444
-324.752
-288.77
-255.529
-225.018
-197.19
-171.966
-149.244
-128.898
-110.787
-94.7619
-80.6636
-68.3319
-57.6067
-48.3313
-40.3544
-33.5323
-27.7298
-22.8215
-18.692
-15.2365
-12.3605
-9.97945
-8.01866
-6.41244
-5.10357
-4.04255
-3.18691
-2.50046
-1.95258
-1.51753
-1.17384
-0.903703
-0.692454
-0.528089
-0.400846
-0.302833
-0.227714
-0.170428
-0.126959
-0.0941383
-0.0694812
-0.0510506
-0.0373449
-0.0272077
-0.0197538
-0.0143102
-0.0103699
-0.00755422
-0.00558534
-0.00426391
-0.00345333
-0.00306845
-1255.75
-1249.61
-1237.4
-1219.32
-1195.63
-1166.66
-1132.82
-1094.59
-1052.47
-1007.02
-958.833
-908.488
-856.582
-803.698
-750.399
-697.216
-644.644
-593.13
-543.075