/*--------------------------------*- C++ -*----------------------------------*\
  =========                 |
  \\      /  F ield         | OpenFOAM: The Open Source CFD Toolbox
   \\    /   O peration     | Website:  https://openfoam.org
    \\  /    A nd           | Version:  10
     \\/     M anipulation  |
\*---------------------------------------------------------------------------*/
FoamFile
{
    format      ascii;
    class       volScalarField;
    location    "357";
    object      gradTx;
}
// * * * * * * * * * * * * * * * * * * * * * * * * * * * * * * * * * * * * * //

dimensions      [0 -1 0 1 0 0 0];

internalField   nonuniform List<scalar> 
11250
(
14301.6
8109.33
5319.06
3839.65
2944.69
2347.04
1918.2
1594.05
1339.52
1133.97
964.507
822.63
702.521
600.033
512.109
436.424
371.159
314.853
266.304
224.504
188.591
157.822
131.543
109.18
90.2249
74.2263
60.7833
49.5403
40.1828
32.4334
26.0486
20.8154
16.5488
13.0892
10.299
8.06122
6.2764
4.86083
3.74443
2.86897
2.18635
1.65713
1.2492
0.936553
0.69832
0.517836
0.381891
0.280086
0.204289
0.148182
0.106891
0.0766793
0.0547021
0.0388076
0.0273789
0.0192087
0.0134019
0.0092985
0.00641567
0.00440201
0.00300358
0.00203801
0.00137515
0.000922721
0.000615683
0.000408506
0.000269499
0.000176743
0.000115167
7.44622e-05
4.76071e-05
2.98283e-05
1.78662e-05
9.45576e-06
2.95191e-06
4097.48
4708.13
4009.55
3257.07
2649.74
2181.01
1816.68
1527.92
1294.31
1101.89
941.056
805.094
689.169
589.72
504.053
430.075
366.122
310.836
263.089
221.924
186.519
156.156
130.203
108.104
89.3621
73.5355
60.2315
49.1006
39.8335
32.1568
25.8303
20.6437
16.4144
12.9843
10.2176
7.99822
6.22789
4.82364
3.71606
2.84743
2.17007
1.64489
1.24004
0.929734
0.693269
0.514113
0.379161
0.278095
0.202844
0.147139
0.106142
0.0761445
0.0543222
0.0385392
0.0271902
0.0190769
0.0133102
0.00923508
0.00637205
0.00437217
0.00298328
0.00202428
0.00136591
0.000916534
0.000611565
0.00040578
0.000267704
0.000175569
0.000114404
7.39697e-05
4.72927e-05
2.96318e-05
1.77488e-05
9.39367e-06
2.93259e-06
1477.92
2616.98
2755.3
2531.22
2218.54
1913.33
1642.75
1410.13
1211.66
1042.16
896.851
771.728
663.582
569.848
488.463
417.747
356.314
302.997
256.804
216.874
182.455
152.885
127.572
105.989
87.6642
72.1753
59.1442
48.2339
39.1447
31.6112
25.3995
20.3049
16.149
12.7772
10.0566
7.87373
6.13201
4.75014
3.65997
2.80483
2.13788
1.62068
1.22192
0.91624
0.683272
0.506745
0.373758
0.274154
0.199984
0.145075
0.10466
0.0750855
0.0535698
0.0380075
0.0268165
0.0188156
0.0131285
0.00910942
0.00628561
0.00431304
0.00294305
0.00199705
0.00134758
0.000904267
0.000603399
0.000400374
0.000264146
0.000173241
0.00011289
7.29925e-05
4.66692e-05
2.92417e-05
1.75154e-05
9.27032e-06
2.89412e-06
675.431
1527.4
1864.77
1895.8
1782.15
1613.77
1433.98
1261.61
1103.74
962.176
836.52
725.538
627.773
541.799
466.309
400.133
342.238
291.706
247.723
209.558
176.557
148.129
123.74
102.904
85.1853
70.1873
57.5538
46.9652
38.1356
30.8113
24.7677
19.8078
15.7593
12.473
9.82021
7.69077
5.99105
4.64204
3.57747
2.74216
2.0905
1.58504
1.19524
0.896373
0.668551
0.495893
0.3658
0.268347
0.19577
0.142032
0.102475
0.0735247
0.0524607
0.0372237
0.0262655
0.0184303
0.0128605
0.00892411
0.00615813
0.00422582
0.0028837
0.00195688
0.00132055
0.00088617
0.000591352
0.000392398
0.000258895
0.000169804
0.000110655
7.15503e-05
4.57487e-05
2.86659e-05
1.7171e-05
9.08825e-06
2.83729e-06
372.102
953.202
1281.9
1406.88
1402.77
1328.28
1220.85
1101.97
983.142
870.122
765.504
670.207
584.283
507.361
438.868
378.161
324.576
277.471
236.227
200.266
169.044
142.056
118.835
98.9493
82.002
67.6309
55.5063
45.3299
36.8338
29.7785
23.9513
19.1649
15.2551
12.0793
9.51401
7.4537
5.80834
4.50188
3.47045
2.66084
2.02901
1.53877
1.1606
0.870568
0.649426
0.481791
0.355456
0.260799
0.190291
0.138076
0.099633
0.0714945
0.051018
0.0362039
0.0255485
0.017929
0.0125119
0.00868292
0.00599219
0.00411227
0.00280643
0.00190458
0.00128535
0.000862603
0.000575662
0.00038201
0.000252056
0.000165328
0.000107744
6.96714e-05
4.45495e-05
2.79157e-05
1.67223e-05
8.85098e-06
2.76327e-06
232.136
632.186
904.033
1048.8
1095.99
1078.36
1022.14
945.559
860.284
773.412
689.057
609.479
535.804
468.485
407.573
352.889
304.121
260.887
222.769
189.342
160.18
134.87
113.017
94.2468
78.2096
64.5801
53.059
43.3728
35.2739
28.5396
22.9711
18.3924
14.6488
11.6054
9.14528
7.16806
5.58808
4.33282
3.34131
2.56267
1.95475
1.48288
1.11874
0.839377
0.626303
0.464738
0.342944
0.251667
0.183661
0.133287
0.0961931
0.0690364
0.0492709
0.0349688
0.0246801
0.0173216
0.0120894
0.00839064
0.00579109
0.00397465
0.00271276
0.00184118
0.00124266
0.000834028
0.000556636
0.000369412
0.000243762
0.000159898
0.000104212
6.73921e-05
4.30947e-05
2.70055e-05
1.61778e-05
8.56307e-06
2.67343e-06
156.646
440.129
654.486
790.012
856.162
869.553
846.692
801.03
742.461
677.815
611.605
546.701
484.856
427.071
373.859
325.409
281.703
242.592
207.84
177.167
150.26
126.799
106.462
88.9352
73.9161
61.1191
50.2776
41.145
33.4958
27.1257
21.8511
17.5089
13.9547
11.0625
8.72248
6.84031
5.33519
4.13862
3.19289
2.44979
1.86932
1.41855
1.07054
0.803453
0.599663
0.445084
0.32852
0.241137
0.176013
0.127763
0.0922237
0.0661995
0.0472542
0.0335428
0.0236772
0.0166201
0.0116014
0.00805299
0.00555873
0.00381562
0.00260451
0.0017679
0.00119332
0.000800991
0.000534637
0.000354844
0.000234169
0.000153619
0.000100127
6.47555e-05
4.14116e-05
2.59525e-05
1.55478e-05
8.22991e-06
2.56947e-06
111.211
317.923
484.968
602.242
671.157
699.443
696.821
672.48
634.025
587.279
536.476
484.58
433.591
384.814
339.052
296.756
258.132
223.218
191.934
164.126
139.587
118.082
99.3586
83.1616
69.2368
57.3386
47.2333
38.7022
31.5429
25.5705
20.6177
16.5346
13.1886
10.4626
8.25496
6.47761
5.05514
3.92341
3.02831
2.32456
1.7745
1.34711
1.017
0.763524
0.570041
0.423223
0.312471
0.229417
0.1675
0.121611
0.0878023
0.0630387
0.0450067
0.0319533
0.0225592
0.015838
0.0110571
0.00767635
0.0052995
0.00363817
0.0024837
0.00168611
0.00113825
0.000764109
0.000510074
0.000338577
0.000223456
0.000146605
9.55646e-05
6.18099e-05
3.9531e-05
2.47758e-05
1.48438e-05
7.85763e-06
2.45329e-06
81.719
236.08
366.367
464.407
528.753
562.581
571.332
560.984
537.05
504.149
465.919
425.104
383.7
343.112
304.291
267.849
234.144
203.354
175.521
150.595
128.459
108.954
91.8932
77.0743
64.2892
53.3311
43.999
36.1017
29.4602
23.9093
19.2982
15.4912
12.367
9.8187
7.7526
6.08753
4.7537
3.69159
2.85092
2.18948
1.67216
1.26998
0.959154
0.720369
0.538013
0.399577
0.295105
0.21673
0.158281
0.114948
0.0830119
0.0596132
0.0425704
0.0302299
0.0213467
0.0149895
0.0104666
0.00726763
0.00501813
0.00344554
0.00235254
0.00159728
0.00107843
0.000724046
0.000483389
0.000320902
0.000211814
0.000138982
9.06049e-05
5.86078e-05
3.74866e-05
2.34964e-05
1.40783e-05
7.4528e-06
2.32698e-06
61.5262
178.973
281.103
361.761
418.748
453.018
467.474
465.871
452.058
429.532
401.254
369.598
336.402
303.037
270.493
239.456
210.376
183.521
159.024
136.916
117.152
99.6391
84.2448
70.8162
59.1874
49.1875
40.6467
33.4006
27.2928
22.1775
17.9205
14.4001
11.5068
9.14371
7.22544
5.6778
4.43679
3.44768
2.66413
2.04715
1.56426
1.1886
0.898093
0.674791
0.504171
0.374581
0.27674
0.203309
0.148524
0.107894
0.0779387
0.0559844
0.0399888
0.0284033
0.0200612
0.0140897
0.00984032
0.00683401
0.00471957
0.00324109
0.00221331
0.00150298
0.00101491
0.000681496
0.000455044
0.000302124
0.000199445
0.000130881
8.53338e-05
5.52041e-05
3.53131e-05
2.21361e-05
1.32642e-05
7.0223e-06
2.19263e-06
47.149
137.81
218.341
284.204
333.235
365.374
382.068
385.613
378.627
363.681
343.092
318.83
292.498
265.353
238.348
212.182
187.345
164.157
142.809
123.391
105.915
90.3386
76.5774
64.52
54.0379
44.9932
37.2448
30.6532
25.0836
20.4091
16.5114
13.2824
10.6244
8.45044
6.68338
5.25604
4.11025
3.19614
2.47133
1.90014
1.45274
1.10443
0.8349
0.627596
0.469109
0.348671
0.257695
0.189384
0.138398
0.10057
0.0726696
0.0522143
0.0373058
0.0265043
0.0187244
0.0131539
0.00918869
0.00638277
0.00440881
0.00302824
0.00206832
0.00140477
0.000948745
0.000637164
0.000425506
0.000282553
0.000186551
0.000122436
7.98374e-05
5.16546e-05
3.30462e-05
2.07172e-05
1.24151e-05
6.57311e-06
2.05244e-06
36.6055
107.367
171.213
224.811
266.282
295.153
312.06
318.372
315.836
306.302
291.542
273.137
252.436
230.543
208.332
186.47
165.447
145.606
127.172
110.271
94.9576
81.2276
69.035
58.3036
48.937
40.8262
33.8561
27.9098
22.873
18.636
15.0959
12.1579
9.73542
7.751
6.13582
4.82953
3.7797
2.94126
2.27581
1.75092
1.33945
1.01887
0.770625
0.579564
0.433406
0.322273
0.238281
0.175184
0.128067
0.0930942
0.0672897
0.0483634
0.0345645
0.0245634
0.0173577
0.0121968
0.0085221
0.00592105
0.00409075
0.00281035
0.00191987
0.00130418
0.000880966
0.000591745
0.000395238
0.000262494
0.000173333
0.000113777
7.42014e-05
4.80143e-05
3.0721e-05
1.92616e-05
1.15438e-05
6.11224e-06
1.90861e-06
28.6958
84.3885
135.239
178.786
213.487
238.74
254.747
262.298
262.542
256.793
246.379
232.544
216.394
198.869
180.739
162.616
144.965
128.128
112.342
97.7568
84.4514
72.4511
61.7392
52.268
43.9678
36.7545
30.5357
25.2152
20.6967
16.8869
13.6972
11.0447
8.854
7.05657
5.59149
4.40502
3.45034
2.68705
2.08062
1.60183
1.22617
0.933252
0.70626
0.531433
0.397607
0.29579
0.218795
0.160924
0.117688
0.0855804
0.0618799
0.0444897
0.0318058
0.0226096
0.0159815
0.0112327
0.00785047
0.00545571
0.00377012
0.00259063
0.00177014
0.00120271
0.000812573
0.000545904
0.000364683
0.000242242
0.000159985
0.000105031
6.85078e-05
4.43362e-05
2.83714e-05
1.77904e-05
1.06632e-05
5.64642e-06
1.76324e-06
22.6561
66.7622
107.406
142.759
171.585
193.286
207.84
215.683
217.563
214.401
207.182
196.87
184.353
170.413
155.712
140.792
126.08
111.9
98.4863
85.9971
74.528
64.1232
54.7876
46.4955
39.1991
32.8351
27.3307
22.6076
18.586
15.187
12.3351
9.9589
7.99283
6.37711
5.05817
3.98859
3.12688
2.43712
1.88852
1.45497
1.11449
0.848782
0.64271
0.483881
0.362217
0.269593
0.199509
0.146802
0.107404
0.0781326
0.0565154
0.0406469
0.0290681
0.0206698
0.0146147
0.010275
0.00718303
0.00499314
0.0034513
0.0023721
0.00162118
0.00110173
0.0007445
0.000500268
0.000334258
0.000222071
0.000146689
9.63178e-05
6.2834e-05
4.06703e-05
2.60291e-05
1.63237e-05
9.78515e-06
5.18186e-06
1.61822e-06
17.9801
53.0681
85.6391
114.323
138.143
156.557
169.441
177.017
179.765
178.326
173.426
165.801
156.155
145.128
133.277
121.07
108.888
97.0267
85.7097
75.0939
65.2813
56.3281
48.254
41.05
34.6853
29.1139
24.2792
20.1186
16.5665
13.5572
11.0266
8.91393
7.16272
5.72116
4.54259
3.58549
2.8134
2.19464
1.70197
1.31221
1.00584
0.766531
0.580783
0.437509
0.327682
0.244014
0.180666
0.132998
0.0973466
0.0708448
0.0512637
0.0368832
0.0263857
0.0187686
0.0132746
0.00933555
0.00652814
0.00453913
0.00313829
0.0021575
0.00147485
0.00100251
0.000677597
0.000455405
0.000304342
0.000202233
0.000133609
8.77445e-05
5.72505e-05
3.70621e-05
2.37232e-05
1.48796e-05
8.92046e-06
4.72435e-06
1.4754e-06
14.3206
42.3219
68.468
91.7257
111.327
126.806
137.998
145
148.114
147.787
144.546
138.952
131.557
122.876
113.371
103.44
93.412
83.5536
74.0688
65.1072
56.7709
49.1222
42.19
35.9773
30.4665
25.6252
21.4104
17.7727
14.6587
12.0141
9.78529
7.92086
6.37252
5.09579
4.05034
3.20013
2.51336
1.96229
1.52302
1.17514
0.901415
0.687415
0.52117
0.392837
0.294389
0.219339
0.162479
0.119666
0.0876277
0.063799
0.0461839
0.0332411
0.0237889
0.0169273
0.0119762
0.00842504
0.00589319
0.0040988
0.00283461
0.00194923
0.0013328
0.000906167
0.000612616
0.00041182
0.000275271
0.000182952
0.000120893
7.94079e-05
5.18201e-05
3.35521e-05
2.14798e-05
1.34743e-05
8.07889e-06
4.279e-06
1.3364e-06
11.4328
33.8232
54.8312
73.6726
89.7453
102.66
112.246
118.528
121.692
122.048
119.979
115.908
110.264
103.46
95.872
87.8323
79.6237
71.4779
63.5778
56.0614
49.0266
42.5369
36.6267
31.3067
26.5694
22.3928
18.7451
15.5876
12.8775
10.5704
8.62163
6.98817
5.62911
4.50653
3.58585
2.83601
2.2295
1.74222
1.35334
1.04504
0.802212
0.612189
0.464441
0.350293
0.262661
0.195807
0.145123
0.106936
0.0783424
0.0570639
0.0413257
0.0297563
0.021303
0.0151639
0.0107322
0.0075524
0.00528443
0.00367648
0.00254326
0.00174935
0.00119644
0.000813654
0.000550201
0.000369945
0.000247334
0.000164418
0.000108667
7.13909e-05
4.65967e-05
3.01752e-05
1.9321e-05
1.21218e-05
7.26884e-06
3.85026e-06
1.20253e-06
9.13953
27.0622
43.9457
59.1916
72.3287
83.0375
91.1563
96.6719
99.6969
100.443
99.1878
96.2505
91.9624
86.6494
80.6168
74.1388
67.4533
60.7593
54.2175
47.9518
42.0531
36.5828
31.5775
27.0531
23.0087
19.4308
16.2961
13.5748
11.2329
9.2345
7.54278
6.12187
4.93745
3.95742
3.15238
2.49575
1.9639
1.53606
1.19422
0.922906
0.708994
0.541438
0.411042
0.310215
0.232749
0.173607
0.128738
0.0949111
0.0695666
0.0506948
0.0367292
0.0264575
0.0189488
0.0134931
0.00955315
0.00672493
0.00470696
0.00327573
0.0022667
0.00155955
0.00106692
0.000725754
0.000490882
0.000330137
0.000220768
0.000146789
9.70358e-05
6.3762e-05
4.1625e-05
2.69604e-05
1.72654e-05
1.08338e-05
6.49727e-06
3.44187e-06
1.07503e-06
7.30975
21.6601
35.2236
47.542
58.2466
67.0779
73.8919
78.6561
81.4356
82.3747
81.6752
79.5753
76.3305
72.1969
67.4194
62.2222
56.8031
51.3307
45.9435
40.7508
35.8346
31.2526
27.041
23.2185
19.7889
16.7446
14.0691
11.7399
9.73038
8.01139
6.55305
5.32568
4.30068
3.4511
2.75209
2.1811
1.71798
1.34495
1.04655
0.809446
0.622311
0.475587
0.361298
0.272851
0.204841
0.152879
0.113431
0.0836694
0.0613572
0.0447336
0.0324247
0.0233667
0.0167419
0.0119263
0.0084469
0.00594827
0.00416474
0.00289929
0.00200682
0.00138115
0.000945131
0.00064308
0.000435072
0.000292673
0.000195761
0.00013019
8.60811e-05
5.6575e-05
3.69403e-05
2.39305e-05
1.53277e-05
9.6193e-06
5.76966e-06
3.05674e-06
9.54781e-07
5.84499
17.3305
28.217
38.1523
46.8481
54.0953
59.7698
63.8315
66.3153
67.3194
66.9896
65.504
63.0584
59.8531
56.0833
51.9306
47.5578
43.1061
38.6932
34.4137
30.3403
26.5254
23.0038
19.7949
16.9055
14.3323
12.064
10.0839
8.3712
6.90268
5.65414
4.60125
3.72032
2.9889
2.38615
1.89306
1.49257
1.16957
0.910873
0.705093
0.542508
0.414906
0.31542
0.238361
0.179061
0.133718
0.0992698
0.0732633
0.0537534
0.0392088
0.0284332
0.0204992
0.0146935
0.0104712
0.00741913
0.00522639
0.00366056
0.00254914
0.00176501
0.00121509
0.000831729
0.000566073
0.000383073
0.000257757
0.000172447
0.000114711
7.58631e-05
4.98698e-05
3.25686e-05
2.11023e-05
1.35185e-05
8.48527e-06
5.09014e-06
2.697e-06
8.4247e-07
4.66988
13.8536
22.5795
30.5761
37.6181
43.538
48.2313
51.6566
53.8304
54.819
54.7275
53.689
51.8529
49.3755
46.4111
43.1058
39.5926
35.9882
32.3916
28.8837
25.5276
22.3701
19.4432
16.7661
14.3472
12.1862
10.2757
8.60344
7.15339
5.90725
4.84553
3.94841
3.19644
2.57103
2.05482
1.63191
1.28793
1.01016
0.787419
0.610038
0.469742
0.359524
0.273511
0.20683
0.155473
0.116174
0.0862947
0.0637222
0.0467774
0.0341372
0.024767
0.017864
0.0128101
0.00913269
0.00647327
0.00456176
0.00319618
0.0022265
0.0015421
0.00106196
0.000727123
0.000495016
0.000335076
0.000225519
0.000150915
0.000100412
6.64211e-05
4.36722e-05
2.85269e-05
1.84871e-05
1.18452e-05
7.43618e-06
4.4614e-06
2.36409e-06
7.38542e-07
3.72605
11.0586
18.0403
24.4613
30.1458
34.9602
38.818
41.6799
43.5513
44.4767
44.532
43.816
42.443
40.534
38.2107
35.5898
32.779
29.874
26.9572
24.0967
21.3467
18.7482
16.3298
14.1098
12.0973
10.2938
8.69496
7.29181
6.07217
5.02169
4.12481
3.36551
2.72791
2.19673
1.75761
1.39732
1.10388
0.866615
0.676123
0.524253
0.404007
0.309446
0.235583
0.17827
0.134091
0.100258
0.0745156
0.0550547
0.0404361
0.0295242
0.0214305
0.0154645
0.0110942
0.00791268
0.00561073
0.00395541
0.00277233
0.00193191
0.0013385
0.000922037
0.000631507
0.000430044
0.000291176
0.000196023
0.00013121
8.73216e-05
5.7775e-05
3.79955e-05
2.4824e-05
1.60905e-05
1.03116e-05
6.47441e-06
3.88487e-06
2.0588e-06
6.43171e-07
2.9677
8.8114
14.3855
19.5279
24.1014
28
31.1526
33.5242
35.1138
35.9508
36.0899
35.6047
34.582
33.1155
31.3006
29.2299
26.9902
24.6593
22.3051
19.9844
17.7431
15.6164
13.6297
11.7996
10.1353
8.6395
7.30979
6.1399
5.12063
4.24082
3.48812
2.84968
2.31261
1.86445
1.49338
1.18849
0.93983
0.738512
0.576689
0.44753
0.345157
0.264571
0.201564
0.152631
0.114881
0.0859483
0.0639178
0.0472512
0.0347232
0.0253659
0.018421
0.013299
0.00954492
0.00681053
0.00483116
0.00340714
0.00238892
0.00166531
0.00115417
0.000795314
0.00054488
0.00037116
0.000251376
0.000169274
0.000113334
7.54431e-05
4.99273e-05
3.28417e-05
2.14612e-05
1.39136e-05
8.91809e-06
5.6004e-06
3.36091e-06
1.78129e-06
5.56509e-07
2.3586
7.00535
11.4447
15.5514
19.2184
22.362
24.9244
26.8752
28.21
28.9481
29.1288
28.8069
28.0483
26.9251
25.5118
23.8819
22.1044
20.2423
18.3511
16.4777
14.6604
12.9293
11.3064
9.80651
8.43831
7.20515
6.10608
5.13674
4.29029
3.55811
2.93047
2.39711
1.94767
1.57202
1.26052
1.0042
0.794873
0.625185
0.488626
0.379508
0.292929
0.224707
0.171318
0.129817
0.0977733
0.0731948
0.0544657
0.0402865
0.0296211
0.0216499
0.0157301
0.0113616
0.00815808
0.00582347
0.00413265
0.00291566
0.00204508
0.00142612
0.000988736
0.000681534
0.000467072
0.000318253
0.000215604
0.000145225
9.72569e-05
6.4757e-05
4.28653e-05
2.82027e-05
1.84336e-05
1.19531e-05
7.66291e-06
4.81295e-06
2.88878e-06
1.53123e-06
4.78436e-07
1.86987
5.55542
9.08136
12.3509
15.2807
17.8047
19.8765
21.4702
22.58
23.2182
23.413
23.2053
22.6449
21.7872
20.6903
19.4119
18.0068
16.5256
15.0133
13.5084
12.0426
10.641
9.32255
8.10023
6.982
5.97141
5.06845
4.27021
3.57164
2.96613
2.44608
2.00336
1.62967
1.31682
1.05702
0.842933
0.667869
0.525779
0.411293
0.319712
0.246971
0.189596
0.144654
0.109688
0.0826669
0.0619247
0.0461069
0.0341232
0.0251031
0.0183572
0.0133444
0.00964303
0.00692719
0.00494696
0.00351208
0.0024788
0.00173932
0.00121334
0.0008415
0.000580234
0.000397773
0.000271115
0.000183722
0.000123784
8.29193e-05
5.52241e-05
3.65638e-05
2.40621e-05
1.57306e-05
1.02024e-05
6.54178e-06
4.10949e-06
2.46688e-06
1.30774e-06
4.0861e-07
1.47829
4.39322
7.18533
9.77984
12.112
14.13
15.7966
17.0903
18.0047
18.5478
18.7397
18.6107
18.1984
17.5455
16.6969
15.6977
14.5914
13.4183
12.2146
11.0115
9.83505
8.70627
7.64099
6.65044
5.74173
4.91839
4.18096
3.52759
2.95459
2.45694
2.02873
1.66355
1.3548
1.09593
0.880631
0.702977
0.557513
0.439301
0.343945
0.267582
0.206865
0.158928
0.121342
0.0920746
0.0694383
0.0520479
0.0387762
0.0287143
0.0211355
0.0154639
0.0112468
0.0081311
0.00584373
0.00417504
0.00296529
0.00209371
0.00146967
0.0010256
0.000711544
0.000490789
0.00033656
0.000229463
0.000155541
0.000104825
7.02379e-05
4.679e-05
3.09869e-05
2.03966e-05
1.33372e-05
8.65182e-06
5.54856e-06
3.48614e-06
2.09296e-06
1.10961e-06
3.46727e-07
1.16519
3.46354
5.66745
7.71922
9.56864
11.1751
12.5091
13.5529
14.3003
14.7562
14.9351
14.8594
14.5575
14.062
13.4076
12.6295
11.7619
10.8368
9.88294
8.92571
7.98631
7.08194
6.22583
5.42753
4.69326
4.02634
3.42763
2.89602
2.42886
2.02236
1.67195
1.37261
1.11912
0.90626
0.728973
0.582487
0.462391
0.364677
0.285765
0.222502
0.17215
0.132356
0.101127
0.0767882
0.057948
0.0434625
0.0323994
0.0240059
0.0176795
0.0129421
0.00941741
0.00681177
0.00489779
0.00350074
0.00248741
0.001757
0.00123379
0.000861306
0.000597767
0.000412449
0.000282928
0.000192955
0.000130833
8.81974e-05
5.91121e-05
3.93882e-05
2.60912e-05
1.7178e-05
1.1235e-05
7.28954e-06
4.67577e-06
2.93821e-06
1.76426e-06
9.35453e-07
2.92346e-07
0.915409
2.72165
4.45534
6.07206
7.53293
8.80627
9.86877
10.706
11.3123
11.6907
11.8514
11.811
11.5909
11.2161
10.7131
10.1094
9.43165
8.70512
7.95276
7.19479
6.44837
5.72752
5.04317
4.40332
3.81332
3.27617
2.79291
2.36292
1.98432
1.65428
1.36928
1.12542
0.918595
0.744659
0.599591
0.479569
0.381046
0.300789
0.235902
0.183827
0.142338
0.109517
0.0837366
0.0636264
0.0480468
0.0360589
0.0268964
0.01994
0.0146932
0.0107616
0.00783467
0.00566967
0.00407847
0.0029164
0.00207309
0.00146493
0.00102908
0.000718667
0.000498947
0.00034438
0.00023631
0.000161211
0.00010934
7.37295e-05
4.94283e-05
3.29439e-05
2.18276e-05
1.43742e-05
9.40315e-06
6.10226e-06
3.91491e-06
2.46047e-06
1.47761e-06
7.83539e-07
2.44858e-07
0.716694
2.13124
3.49016
4.75928
5.90859
6.91349
7.75561
8.42333
8.91178
9.22254
9.36295
9.34529
9.18568
8.90298
8.51771
8.05101
7.52372
6.95562
6.36485
5.7675
5.17734
4.60571
4.06153
3.55145
3.07999
2.64982
2.26198
1.91621
1.6112
1.34484
1.11444
0.916993
0.749272
0.608024
0.490059
0.392334
0.312017
0.246514
0.193497
0.150904
0.116935
0.0900386
0.068892
0.0523824
0.0395817
0.0297243
0.0221847
0.0164562
0.0121327
0.00889092
0.00647603
0.00468872
0.00337437
0.00241398
0.00171667
0.00121356
0.000852829
0.000595798
0.000413788
0.000285698
0.000196106
0.000133825
9.07921e-05
6.12391e-05
4.10656e-05
2.7377e-05
1.81435e-05
1.19507e-05
7.81946e-06
5.07552e-06
3.25678e-06
2.0472e-06
1.22958e-06
6.52058e-07
2.03769e-07
0.55908
1.66283
2.724
3.71637
4.61686
5.40638
6.07059
6.60019
6.99104
7.2439
7.36402
7.36042
7.24522
7.03273
6.73862
6.37919
5.9706
5.52828
5.06649
4.59796
4.13364
3.68263
3.25219
2.84774
2.47307
2.13049
1.821
1.54457
1.30028
1.08658
0.901446
0.742537
0.607359
0.493359
0.398025
0.318949
0.253881
0.200755
0.157709
0.123092
0.0954558
0.0735532
0.0563178
0.0428502
0.0323997
0.024346
0.0181813
0.0134943
0.00995435
0.00729841
0.00531872
0.00385266
0.00277395
0.00198532
0.00141243
0.000998884
0.000702237
0.000490772
0.000340967
0.000235498
0.0001617
0.000110379
7.49076e-05
5.0539e-05
3.38992e-05
2.26051e-05
1.49845e-05
9.87219e-06
6.46079e-06
4.19445e-06
2.69193e-06
1.69243e-06
1.01662e-06
5.39182e-07
1.68512e-07
0.434477
1.29243
2.11787
2.89073
3.59329
4.21082
4.73215
5.14992
5.46067
5.66467
5.76565
5.77025
5.68755
5.52835
5.30462
5.02885
4.71352
4.37063
4.0113
3.64553
3.28201
2.92798
2.58927
2.27029
1.97416
1.70285
1.45728
1.23755
1.04303
0.872589
0.724701
0.597577
0.489284
0.397835
0.321262
0.257671
0.205284
0.162464
0.127731
0.0997715
0.0774293
0.0597058
0.0457467
0.0348302
0.0263525
0.019814
0.0148056
0.010995
0.00811508
0.00595297
0.00434039
0.0031455
0.00226582
0.00162236
0.00115469
0.000816938
0.000574546
0.000401681
0.000279168
0.000192879
0.000132479
9.04602e-05
6.14075e-05
4.14421e-05
2.78047e-05
1.85457e-05
1.22965e-05
8.10302e-06
5.30408e-06
3.44415e-06
2.2108e-06
1.39014e-06
8.3512e-07
4.42968e-07
1.38467e-07
0.336318
1.00058
1.64007
2.23949
2.78526
3.26608
3.67328
4.00107
4.2466
4.40988
4.49353
4.50244
4.44339
4.32453
4.15495
3.94418
3.70183
3.43716
3.15883
2.87465
2.59144
2.31494
2.04979
1.79955
1.56677
1.35308
1.15933
0.98565
0.831655
0.696511
0.579073
0.477981
0.391746
0.318831
0.257701
0.206874
0.164955
0.130655
0.102804
0.0803622
0.0624123
0.0481602
0.0369256
0.0281325
0.0212984
0.0160236
0.0119803
0.0089018
0.0065737
0.00482474
0.00351953
0.00255182
0.00183901
0.00131734
0.000937987
0.000663886
0.000467084
0.000326671
0.000227115
0.000156968
0.000107848
7.36637e-05
5.00198e-05
3.37661e-05
2.26606e-05
1.51182e-05
1.00263e-05
6.60851e-06
4.32671e-06
2.81001e-06
1.80405e-06
1.13453e-06
6.81663e-07
3.61591e-07
1.13018e-07
0.259279
0.771475
1.26486
1.72779
2.14992
2.52257
2.83907
3.09489
3.28772
3.41743
3.48585
3.49658
3.45466
3.36623
3.23815
3.0777
2.89221
2.68882
2.47421
2.25446
2.0349
1.82004
1.61355
1.41827
1.23628
1.0689
0.916879
0.780384
0.659167
0.55263
0.459919
0.380002
0.311742
0.253952
0.205444
0.165067
0.131729
0.104422
0.082227
0.0643251
0.0499933
0.038604
0.0296185
0.02258
0.0171054
0.0128767
0.00963299
0.00716165
0.00529146
0.00388564
0.00283586
0.0020571
0.00148316
0.00106289
0.000757125
0.000536089
0.000377315
0.000263984
0.000183597
0.000126933
8.72392e-05
5.96052e-05
4.04853e-05
2.73372e-05
1.83508e-05
1.22459e-05
8.12328e-06
5.35534e-06
3.50694e-06
2.27804e-06
1.46276e-06
9.20056e-07
5.52881e-07
2.93319e-07
9.16544e-08
0.199053
0.592343
0.971389
1.32736
1.65239
1.93987
2.18467
2.38327
2.53383
2.63613
2.69147
2.70248
2.6729
2.60734
2.51096
2.3893
2.24793
2.09232
1.92761
1.7585
1.58912
1.423
1.26302
1.11144
0.969907
0.839525
0.720903
0.614234
0.519361
0.435859
0.363093
0.300286
0.246573
0.201044
0.162784
0.130901
0.104548
0.0829407
0.0653615
0.0511689
0.0397965
0.0307512
0.0236091
0.0180101
0.0136518
0.010283
0.00769701
0.00572547
0.00423255
0.00310963
0.00227061
0.00164785
0.00118862
0.000852176
0.00060728
0.000430159
0.000302873
0.000211978
0.000147478
0.000101995
7.01221e-05
4.79244e-05
3.25606e-05
2.19921e-05
1.47665e-05
9.85644e-06
6.5397e-06
4.31226e-06
2.82442e-06
1.83504e-06
1.17852e-06
7.41391e-07
4.45555e-07
2.36403e-07
7.38883e-08
0.152162
0.452854
0.742795
1.01531
1.26445
1.48518
1.67359
1.82696
1.94383
2.02396
2.06827
2.07867
2.05794
2.0095
1.93726
1.84538
1.7381
1.61957
1.49375
1.36422
1.2342
1.10641
0.983104
0.866059
0.756587
0.655573
0.563527
0.480631
0.406798
0.341724
0.284943
0.235871
0.193854
0.158196
0.128198
0.103174
0.0824685
0.0654743
0.0516354
0.0404523
0.0314836
0.024344
0.0187021
0.0142757
0.0108276
0.00816049
0.00611169
0.00454867
0.00336435
0.002473
0.00180662
0.00131172
0.000946587
0.000678943
0.000484027
0.000342989
0.000241588
0.000169146
0.000117719
8.14405e-05
5.60079e-05
3.82895e-05
2.60219e-05
1.75804e-05
1.18072e-05
7.88299e-06
5.23151e-06
3.45034e-06
2.26032e-06
1.46879e-06
9.43454e-07
5.93601e-07
3.56781e-07
1.89291e-07
5.9189e-08
0.115809
0.344696
0.565497
0.773189
0.963275
1.13195
1.27624
1.39406
1.48427
1.54662
1.58177
1.5911
1.57666
1.54101
1.48707
1.41796
1.3369
1.24703
1.15136
1.05263
0.95331
0.855502
0.760955
0.671053
0.586829
0.508993
0.437961
0.3739
0.316764
0.266341
0.222287
0.184169
0.151493
0.123731
0.100351
0.0808262
0.0646556
0.0513705
0.0405419
0.0317838
0.0247537
0.0191529
0.0147234
0.0112456
0.00853443
0.00643584
0.0048227
0.00359124
0.00265756
0.00195444
0.00142847
0.00103763
0.000749122
0.000537537
0.000383372
0.000271769
0.000191494
0.00013412
9.33744e-05
6.46193e-05
4.44533e-05
3.03992e-05
2.06652e-05
1.39651e-05
9.38145e-06
6.26489e-06
4.15856e-06
2.74327e-06
1.79747e-06
1.16822e-06
7.50474e-07
4.72235e-07
2.83877e-07
1.50617e-07
4.71054e-08
0.0877484
0.261199
0.428589
0.586152
0.730508
0.858791
0.968746
1.05878
1.12801
1.17622
1.20386
1.21193
1.20195
1.17581
1.13569
1.08393
1.02295
0.955118
0.882711
0.807824
0.732331
0.657849
0.585726
0.517035
0.452583
0.39293
0.338416
0.289185
0.245218
0.206369
0.172386
0.142947
0.117683
0.0961955
0.0780801
0.062937
0.0503832
0.0400598
0.0316378
0.0248201
0.0193432
0.0149762
0.0115198
0.00880398
0.00668536
0.00504428
0.00378198
0.00281774
0.00208622
0.001535
0.00112244
0.0008157
0.000589152
0.000422926
0.000301752
0.000213991
0.000150838
0.000105682
7.36004e-05
5.0951e-05
3.50612e-05
2.39833e-05
1.63082e-05
1.10235e-05
7.40718e-06
4.94759e-06
3.28484e-06
2.16735e-06
1.42039e-06
9.23313e-07
5.93244e-07
3.73328e-07
2.24447e-07
1.19121e-07
3.72389e-08
0.0661852
0.197028
0.323347
0.442326
0.551436
0.648527
0.7319
0.800348
0.853182
0.890223
0.911775
0.918574
0.911727
0.892636
0.862915
0.824315
0.778638
0.727674
0.673135
0.616606
0.55951
0.503079
0.448346
0.396136
0.347076
0.301607
0.259998
0.222373
0.18873
0.158966
0.132901
0.110297
0.090876
0.0743418
0.0603882
0.0487128
0.0390246
0.0310505
0.0245395
0.0192643
0.015023
0.0116387
0.00895799
0.00685018
0.00520469
0.00392925
0.00294755
0.00219718
0.00162757
0.00119811
0.000876497
0.000637254
0.000460464
0.000330682
0.00023603
0.000167447
0.000118072
8.27543e-05
5.76517e-05
3.99228e-05
2.74805e-05
1.88031e-05
1.27892e-05
8.647e-06
5.81167e-06
3.88274e-06
2.57839e-06
1.70155e-06
1.11531e-06
7.25119e-07
4.65983e-07
2.93279e-07
1.76349e-07
9.36158e-08
2.92691e-08
0.0496909
0.147937
0.242819
0.332241
0.414317
0.487443
0.550342
0.602106
0.642205
0.670489
0.687168
0.692774
0.688115
0.674224
0.652297
0.623632
0.589575
0.551461
0.510576
0.468113
0.425145
0.382608
0.341286
0.301811
0.264667
0.230195
0.19861
0.170013
0.144413
0.121739
0.101861
0.084603
0.0697608
0.0571118
0.0464267
0.0374777
0.0300452
0.0239224
0.0189187
0.0148615
0.0115969
0.00898986
0.00692339
0.00529737
0.00402714
0.0030419
0.0022831
0.00170274
0.00126193
0.000929387
0.000680216
0.000494765
0.000357655
0.000256954
0.000183477
0.000130212
9.18499e-05
6.43975e-05
4.48778e-05
3.10867e-05
2.14046e-05
1.46498e-05
9.96686e-06
6.74046e-06
4.53131e-06
3.028e-06
2.01119e-06
1.32748e-06
8.70246e-07
5.65855e-07
3.6368e-07
2.28944e-07
1.37683e-07
7.30761e-08
2.28579e-08
0.0371329
0.110558
0.181491
0.248379
0.309823
0.364628
0.411843
0.450784
0.48105
0.502518
0.51533
0.51987
0.516728
0.506662
0.490551
0.469357
0.444078
0.415708
0.385205
0.353464
0.32129
0.289389
0.258353
0.228664
0.200691
0.174698
0.150852
0.129238
0.109866
0.0926897
0.0776152
0.0645146
0.0532365
0.0436157
0.0354811
0.0286621
0.0229936
0.0183201
0.0144976
0.0113957
0.00889793
0.00690177
0.00531837
0.0040716
0.00309698
0.00234055
0.0017576
0.00131147
0.000972419
0.000716499
0.000524639
0.000381768
0.000276086
0.00019843
0.000141742
0.000100631
7.10083e-05
4.98018e-05
3.47173e-05
2.40559e-05
1.65683e-05
1.13429e-05
7.71898e-06
5.22152e-06
3.51101e-06
2.34672e-06
1.559e-06
1.02917e-06
6.74785e-07
4.38838e-07
2.82067e-07
1.77593e-07
1.06807e-07
5.66919e-08
1.77144e-08
0.0276173
0.0822317
0.135009
0.184801
0.230575
0.271446
0.306708
0.33585
0.358569
0.374766
0.384538
0.388161
0.386062
0.378796
0.367009
0.351408
0.33273
0.311712
0.289065
0.265455
0.241485
0.217682
0.194493
0.172281
0.151327
0.131832
0.113927
0.0976798
0.0831027
0.070164
0.0587971
0.0489088
0.0403881
0.0331128
0.0269558
0.02179
0.0174922
0.0139459
0.0110431
0.00868568
0.00678595
0.00526667
0.0040607
0.00311047
0.00236718
0.00178993
0.00134479
0.00100394
0.00074474
0.00054899
0.00040216
0.000292766
0.000211809
0.000152292
0.000108826
7.72892e-05
5.45566e-05
3.82759e-05
2.66909e-05
1.84999e-05
1.27453e-05
8.72791e-06
5.94097e-06
4.01973e-06
2.70352e-06
1.80738e-06
1.20093e-06
7.92914e-07
5.19968e-07
3.38229e-07
2.17446e-07
1.36884e-07
8.23389e-08
4.37137e-08
1.36478e-08
0.0204419
0.0608702
0.0999489
0.136835
0.170769
0.201097
0.227298
0.248993
0.265953
0.278102
0.285504
0.288356
0.28697
0.281746
0.273159
0.261726
0.247989
0.232491
0.215759
0.198284
0.180516
0.162846
0.14561
0.129079
0.113466
0.0989239
0.0855532
0.0734072
0.0624986
0.0528065
0.0442835
0.0368623
0.0304615
0.0249914
0.0203582
0.0164676
0.0132281
0.0105529
0.00836147