/*--------------------------------*- C++ -*----------------------------------*\
  =========                 |
  \\      /  F ield         | OpenFOAM: The Open Source CFD Toolbox
   \\    /   O peration     | Website:  https://openfoam.org
    \\  /    A nd           | Version:  10
     \\/     M anipulation  |
\*---------------------------------------------------------------------------*/
FoamFile
{
    format      ascii;
    class       volScalarField;
    location    "427";
    object      gradTx;
}
// * * * * * * * * * * * * * * * * * * * * * * * * * * * * * * * * * * * * * //

dimensions      [0 -1 0 1 0 0 0];

internalField   nonuniform List<scalar> 
11250
(
14305.3
8120.25
5337.04
3864.4
2975.8
2383.98
1960.38
1640.8
1390.13
1187.7
1020.58
880.286
761.027
658.685
570.253
493.464
426.567
368.175
317.162
272.597
233.694
199.782
170.277
144.664
122.492
103.355
86.8926
72.7795
60.7253
50.4693
41.7781
34.4431
28.2789
23.1208
18.8236
15.2596
12.317
9.8985
7.92
6.30896
5.00327
3.95006
3.10454
2.42898
1.8918
1.46672
1.13195
0.869589
0.664966
0.50615
0.383485
0.289203
0.21709
0.162201
0.120627
0.0892912
0.0657874
0.0482443
0.035214
0.0255829
0.018499
0.0133139
0.00953716
0.00679954
0.00482468
0.0034068
0.00239347
0.00167232
0.00116092
0.000798981
0.000542506
0.000359324
0.000225703
0.000123748
3.93724e-05
4101.12
4718.99
4027.44
3281.69
2680.67
2217.74
1858.62
1574.41
1344.63
1155.3
996.805
862.421
747.341
648.037
561.865
486.79
421.215
363.855
313.658
269.744
231.365
197.878
168.717
143.387
121.446
102.499
86.1925
72.2079
60.2595
50.0905
41.4707
34.1943
28.0781
22.9592
18.694
15.1559
12.2343
9.83289
7.86808
6.26803
4.97113
3.92491
3.08494
2.41377
1.88005
1.45767
1.12501
0.864293
0.660941
0.503103
0.381189
0.287481
0.215803
0.161244
0.119919
0.0887689
0.0654042
0.0479643
0.0350104
0.0254355
0.0183927
0.0132377
0.00948272
0.00676084
0.0047973
0.00338752
0.00237995
0.0016629
0.0011544
0.0007945
0.00053947
0.000357317
0.000224444
0.000123059
3.91535e-05
1481.52
2627.72
2772.98
2555.55
2249.11
1949.65
1684.22
1456.09
1261.41
1094.97
951.966
828.403
721.093
627.503
545.618
473.818
410.781
355.414
306.798
264.15
226.793
194.134
165.649
140.872
119.385
100.811
84.8114
71.0798
59.3397
49.3421
40.8632
33.7025
27.681
22.6395
18.4375
14.9508
12.0708
9.70299
7.76528
6.18697
4.90746
3.8751
3.04611
2.38363
1.85675
1.43973
1.11126
0.853795
0.65296
0.497063
0.376637
0.284065
0.213251
0.159346
0.118513
0.0877328
0.0646437
0.0474087
0.0346063
0.0251429
0.0181818
0.0130864
0.00937466
0.00668401
0.00474293
0.00334923
0.00235312
0.0016442
0.00114144
0.000785602
0.00053344
0.00035333
0.000221943
0.000121689
3.87181e-05
678.968
1537.95
1882.15
1919.72
1812.21
1649.46
1474.74
1306.79
1152.64
1014.09
890.698
781.249
684.305
598.474
522.493
455.251
395.78
343.233
296.869
256.032
220.143
188.678
161.171
137.196
116.368
98.3379
82.7865
69.4244
57.989
48.2424
39.97
32.979
27.0966
22.1689
18.0597
14.6485
11.8298
9.5115
7.61369
6.06741
4.81353
3.80159
2.98882
2.33915
1.82236
1.41325
1.09096
0.838291
0.641173
0.48814
0.369912
0.279018
0.20948
0.156541
0.116436
0.0862013
0.0635197
0.0465874
0.0340089
0.0247104
0.01787
0.0128626
0.00921485
0.0065704
0.00466253
0.0032926
0.00231343
0.00161653
0.00112227
0.000772439
0.000524519
0.000347431
0.000218243
0.000119663
3.80736e-05
375.558
963.513
1298.89
1430.26
1432.15
1363.17
1260.69
1146.12
1030.94
920.857
818.456
724.659
639.538
562.754
493.783
432.033
376.909
327.834
284.264
245.691
211.646
181.691
155.423
132.468
112.483
95.1477
80.171
67.2838
56.2407
46.8178
38.8121
32.0404
26.3379
21.5577
17.5687
14.2555
11.5163
9.26233
7.41637
5.91174
4.69119
3.70582
2.91415
2.28117
1.77751
1.37871
1.06447
0.818066
0.625794
0.476496
0.361134
0.27243
0.204558
0.152879
0.113724
0.0842014
0.0620517
0.0455147
0.0332285
0.0241452
0.0174627
0.0125703
0.00900604
0.00642192
0.00455744
0.00321858
0.00226155
0.00158036
0.00109722
0.000755231
0.000512856
0.000339718
0.000213405
0.000117013
3.72308e-05
235.495
642.206
920.543
1071.52
1124.54
1112.26
1060.86
988.47
906.736
822.717
740.517
662.396
589.502
522.318
460.941
405.245
354.981
309.833
269.455
233.49
201.584
173.391
148.576
126.824
107.834
91.3246
77.0317
64.7111
54.1368
45.1015
37.4157
30.9075
25.4216
20.8188
16.9749
13.7799
11.1367
8.96046
7.17721
5.72299
4.54279
3.58961
2.82351
2.21076
1.72305
1.33676
1.03229
0.793485
0.607099
0.462339
0.35046
0.264417
0.198569
0.148423
0.110423
0.0817674
0.0602648
0.0442088
0.0322785
0.0234572
0.0169666
0.0122143
0.00875171
0.00624107
0.00442944
0.0031284
0.00219834
0.00153629
0.00106669
0.00073426
0.000498642
0.000330319
0.000207508
0.000113782
3.62036e-05
159.892
449.811
670.439
811.964
883.746
902.313
884.099
842.494
787.346
725.457
661.329
597.835
536.744
479.09
425.429
376.001
330.85
289.89
252.954
219.829
190.271
164.024
140.826
120.418
102.546
86.9657
73.4458
61.7675
51.7262
43.1324
35.8118
29.6048
24.3669
19.9676
16.2903
13.2312
10.6985
8.61178
6.90081
5.50473
4.37113
3.45513
2.71858
2.12923
1.65996
1.28814
0.994986
0.764983
0.585416
0.445915
0.338074
0.255118
0.191618
0.14325
0.10659
0.0789406
0.0581892
0.0426917
0.0311746
0.0226576
0.0163901
0.0118005
0.00845606
0.00603081
0.0042806
0.00302355
0.00212484
0.00148504
0.00103118
0.000709867
0.000482107
0.000319383
0.000200647
0.000110024
3.50083e-05
114.329
327.225
500.294
623.333
697.658
730.918
732.76
712.317
677.149
633.053
584.251
533.708
483.445
434.794
388.601
345.366
305.354
268.664
235.282
205.119
178.033
153.851
132.379
113.414
96.748
82.1757
69.497
58.5199
49.0622
40.9532
34.0343
28.1595
23.1954
19.0213
15.5285
12.6201
10.2101
8.22289
6.59235
5.26102
4.17933
3.3048
2.60124
2.03801
1.58935
1.23371
0.953204
0.73305
0.561116
0.427505
0.324187
0.244688
0.18382
0.137446
0.102289
0.0757676
0.0558591
0.0409882
0.0299349
0.0217595
0.0157424
0.0113356
0.00812385
0.00579452
0.00411332
0.00290569
0.0020422
0.00142742
0.000991257
0.000682437
0.000463512
0.000307084
0.000192931
0.000105797
3.36639e-05
84.698
244.966
381.008
484.554
554.07
592.648
605.664
599.04
578.246
547.877
511.558
472.037
431.326
390.86
351.627
314.289
279.259
246.772
216.935
189.759
165.191
143.129
123.443
105.979
90.5757
77.063
65.2724
55.0382
46.2009
38.6086
32.1191
26.6001
21.9299
17.9979
14.7038
11.9579
9.68044
7.80085
6.25736
4.99618
3.97079
3.14126
2.47351
1.93867
1.51241
1.17438
0.907648
0.698221
0.534604
0.407411
0.309025
0.233299
0.175302
0.131104
0.0975886
0.0722993
0.0533115
0.0391254
0.028579
0.0207771
0.0150338
0.0108269
0.00776028
0.00553589
0.0039302
0.00277665
0.00195172
0.00136432
0.00094753
0.000652392
0.000443142
0.00029361
0.000184477
0.000101165
3.2191e-05
64.3558
187.414
295.009
380.898
442.795
481.578
500.084
502.018
491.188
471.068
444.606
414.18
381.643
348.393
315.459
283.571
253.232
224.767
198.367
174.122
152.048
132.106
114.218
98.2776
84.1613
71.7349
60.8588
51.3927
43.1989
36.1444
30.1029
24.956
20.5939
16.9161
13.8311
11.2566
9.11892
7.35303
5.90163
4.71473
3.74902
2.96724
2.33753
1.83286
1.43042
1.11113
0.859056
0.661055
0.506302
0.385954
0.292829
0.221129
0.166198
0.124324
0.0925619
0.0685895
0.050586
0.037132
0.0271278
0.0197253
0.0142751
0.010282
0.00737086
0.00525883
0.003734
0.00263837
0.00185475
0.00129668
0.000900654
0.00062018
0.000421301
0.000279162
0.000175411
9.61981e-05
3.06112e-05
49.8213
145.782
231.474
302.278
355.946
392.347
412.867
419.753
415.585
402.911
384.037
360.937
335.228
308.192
280.819
253.851
227.824
203.116
179.971
158.535
138.878
121.008
104.892
90.462
77.6307
66.2941
56.3399
47.6515
40.1115
33.6052
28.0217
23.2562
19.2107
15.7947
12.9254
10.5278
8.53487
6.88682
5.53098
4.42126
3.51761
2.78553
2.19545
1.72223
1.34466
1.04493
0.808179
0.622125
0.476645
0.363461
0.275846
0.208362
0.156644
0.117207
0.0872841
0.0646933
0.0477227
0.0350375
0.0256025
0.0186198
0.0134774
0.0097091
0.00696126
0.00496736
0.00352756
0.00249285
0.00175269
0.00122548
0.000851303
0.000586263
0.000398302
0.000263946
0.000165862
9.09661e-05
2.89471e-05
39.115
114.853
183.547
241.783
287.609
320.482
340.983
350.432
350.543
343.143
329.994
312.681
292.565
270.776
248.22
225.604
203.465
182.197
162.075
143.281
125.919
110.035
95.6308
82.6717
71.0989
60.8357
51.7939
43.8784
36.9909
31.0334
25.9099
21.5286
17.8028
14.6516
12.0009
9.78317
7.93746
6.40947
5.15112
4.12024
3.28007
2.59887
2.0494
1.60845
1.2564
0.976762
0.755765
0.582
0.446064
0.340258
0.258319
0.195183
0.146778
0.109855
0.0818303
0.0606659
0.0447623
0.0328713
0.0240248
0.0174758
0.0126518
0.00911603
0.00653718
0.00466553
0.00331375
0.00234211
0.00164694
0.00115171
0.000800156
0.000551108
0.000374459
0.00024817
0.000155961
8.55409e-05
2.72215e-05
31.0391
91.378
146.755
194.634
233.401
262.392
281.754
292.235
294.951
291.194
282.285
269.47
253.868
236.44
217.988
199.161
180.469
162.3
144.939
128.586
113.367
99.3566
86.5795
75.0282
64.6678
55.4447
47.2913
40.1317
33.885
28.4683
23.7997
19.7992
16.3911
13.5038
11.0715
9.03356
7.33538
5.92789
4.76754
3.816
3.03979
2.40992
1.90145
1.49311
1.16688
0.90758
0.702541
0.541234
0.41498
0.316662
0.240488
0.181769
0.136734
0.102367
0.0762739
0.0565616
0.0417444
0.0306625
0.0224155
0.0163088
0.0118094
0.00851068
0.00610423
0.00435732
0.00309537
0.00218812
0.0015389
0.00107631
0.000747883
0.000515172
0.000350084
0.00023204
0.000145837
7.9993e-05
2.54569e-05
24.8316
73.2516
118.099
157.473
190.075
215.245
232.915
243.479
247.653
246.342
240.521
231.156
219.148
205.299
190.3
174.728
159.049
143.632
128.757
114.626
101.381
89.1101
77.8573
67.6339
58.4247
50.1945
42.8938
36.4629
30.8363
25.9451
21.7197
18.0917
14.9949
12.3669
10.1496
8.28907
6.7367
5.4485
4.38532
3.51255
2.79993
2.22114
1.75353
1.37771
1.07725
0.838277
0.649192
0.500352
0.383791
0.292976
0.222581
0.168293
0.126638
0.0948385
0.0706852
0.052432
0.038707
0.0284386
0.0207948
0.0151331
0.0109605
0.0079006
0.00566779
0.00404656
0.00287514
0.0020328
0.0014299
0.00100024
0.000695126
0.000478898
0.000325476
0.000215754
0.000135613
7.43904e-05
2.36747e-05
19.9885
59.0589
95.51
127.907
155.212
176.83
192.591
202.679
207.545
207.816
204.206
197.456
188.28
177.337
165.212
152.403
139.329
126.327
113.661
101.53
90.0785
79.4023
69.5583
60.5713
52.4407
45.1463
38.6531
32.9157
27.8816
23.4943
19.6954
16.4266
13.6312
11.2548
9.24637
7.55875
6.1487
4.97714
4.00909
3.21358
2.56339
2.03482
1.60741
1.26364
0.988592
0.76968
0.596356
0.459839
0.352867
0.26948
0.20481
0.154912
0.11661
0.0873573
0.0651297
0.0483255
0.0356856
0.0262258
0.0191817
0.0139626
0.0101151
0.00729285
0.00523292
0.00373684
0.0026556
0.00187793
0.0013212
0.000924356
0.000642493
0.000442704
0.000300918
0.000199499
0.000125409
6.87974e-05
2.18955e-05
16.1643
47.8212
77.5291
104.195
126.995
145.416
159.249
168.557
173.617
174.858
172.803
168.012
161.049
152.446
142.69
132.207
121.361
110.456
99.7325
89.3806
79.5402
70.3099
61.7531
53.9037
46.7718
40.3487
34.6113
29.5259
25.0512
21.1413
17.7479
14.8218
12.3145
10.1792
8.37166
6.8505
5.57775
4.5189
3.64295
2.92233
2.33274
1.85298
1.4647
1.15214
0.901869
0.702535
0.544605
0.420134
0.322545
0.246428
0.187365
0.141772
0.106758
0.0800043
0.0596673
0.0442863
0.0327126
0.0240478
0.0175934
0.0128098
0.00928227
0.00669396
0.00480427
0.00343148
0.0024391
0.00172517
0.00121395
0.000849474
0.000590545
0.000406974
0.000276671
0.000183447
0.00011533
6.32732e-05
2.01382e-05
13.1157
38.8428
63.1019
85.0543
104.047
119.647
131.644
140.03
144.971
146.76
145.773
142.436
137.187
130.455
122.637
114.095
105.14
96.0385
87.0086
78.2235
69.816
61.8829
54.4898
47.6759
41.4588
35.8383
30.8005
26.3214
22.369
18.9066
15.8945
13.2916
11.0569
9.15025
7.53356
6.17095
5.02923
4.07815
3.29039
2.64158
2.11019
1.67737
1.32676
1.04428
0.817919
0.637492
0.494442
0.381625
0.293117
0.224044
0.170418
0.129001
0.0971774
0.0728511
0.0543511
0.0403537
0.0298171
0.0219257
0.0160455
0.0116859
0.00847005
0.00610973
0.00438601
0.00313344
0.00222773
0.00157599
0.0011092
0.000776321
0.000539785
0.000372054
0.000252971
0.000167755
0.000105476
5.78715e-05
1.84197e-05
10.6669
31.6181
51.4523
69.5218
85.3097
98.4554
108.762
116.189
120.826
122.873
122.601
120.33
116.401
111.153
104.913
97.9791
90.6168
83.0561
75.4892
68.0723
60.9278
54.1476
47.7966
41.9163
36.5288
31.6402
27.2436
23.3225
19.8529
16.8056
14.1484
11.8473
9.86771
8.17572
6.73862
5.52547
4.50754
3.65844
2.95427
2.37365
1.8976
1.50946
1.19475
0.94098
0.737452
0.575103
0.446293
0.344638
0.264837
0.202521
0.154114
0.116708
0.0879514
0.0659594
0.0492271
0.0365618
0.027024
0.019878
0.0145512
0.0106007
0.00768551
0.00554525
0.00398176
0.00284531
0.00202334
0.00143171
0.00100786
0.000705532
0.000490656
0.00033825
0.000230023
0.000152559
9.59323e-05
5.26394e-05
1.67551e-05
8.68816
25.7717
41.9983
56.8651
69.9621
80.9928
89.7817
96.2707
100.506
102.619
102.807
101.309
98.3888
94.3149
89.3506
83.7421
77.7127
71.4585
65.1465
58.915
52.8748
47.1107
41.6847
36.6385
31.9966
27.7693
23.9548
20.5426
17.5149
14.8491
12.5191
10.497
8.75401
7.26154
5.99175
4.91818
4.01605
3.26254
2.63687
2.12037
1.69642
1.35042
1.06961
0.842964
0.661045
0.515818
0.400508
0.309444
0.237911
0.182017
0.138573
0.104984
0.0791485
0.0593806
0.0443336
0.0329389
0.0243544
0.0179201
0.013122
0.00956225
0.00693461
0.0050048
0.00359461
0.00256929
0.00182749
0.00129341
0.000910704
0.000637649
0.000443533
0.00030582
0.000208003
0.000137975
8.67718e-05
4.7617e-05
1.51572e-05
7.08199
21.0203
34.2967
46.519
57.3619
66.583
74.0301
79.6398
83.4302
85.4884
85.9555
85.0107
82.8565
79.7053
75.7682
71.2469
66.3268
61.1738
55.9312
50.7198
45.6379
40.7624
36.1509
31.8439
27.8665
24.2315
20.941
17.9887
15.362
13.0435
11.0124
9.24596
7.72039
6.4117
5.2964
4.35197
3.55721
2.89248
2.33983
1.88307
1.50776
1.20112
0.952024
0.750795
0.589138
0.459983
0.357358
0.276253
0.212501
0.162656
0.123891
0.0939014
0.070823
0.0531557
0.0397012
0.0295078
0.0218251
0.0160643
0.0117669
0.00857733
0.00622214
0.00449184
0.00322705
0.00230716
0.00164144
0.00116201
0.00081836
0.000573114
0.000398724
0.000274975
0.000187056
0.000124099
7.80549e-05
4.28373e-05
1.36364e-05
5.77375
17.1463
28.0049
38.0423
47.0004
54.6819
60.9572
65.7642
69.1042
71.0338
71.6538
71.0982
69.5226
67.0938
63.9806
60.3468
56.3455
52.1157
47.7791
43.4398
39.1839
35.0801
31.1807
27.5236
24.1338
21.0251
18.2022
15.6622
13.3963
11.3914
9.63105
8.09689
6.76934
5.62849
4.65459
3.82862
3.13254
2.54955
2.06425
1.66268
1.33234
1.06218
0.842497
0.664867
0.522045
0.407847
0.317036
0.245218
0.188726
0.14453
0.110136
0.0835141
0.0630157
0.0473154
0.0353529
0.0262858
0.0194489
0.0143202
0.0104927
0.00765097
0.0055518
0.00400906
0.00288099
0.00206029
0.00146617
0.00103818
0.000731321
0.000512271
0.000356469
0.000245882
0.000167295
0.000111006
6.98286e-05
3.83261e-05
1.22009e-05
4.70557
13.9805
22.8546
31.0866
38.4714
44.8492
50.1108
54.199
57.1056
58.8663
59.5532
59.2662
58.1247
56.2593
53.8043
50.8923
47.6487
44.189
40.6158
37.0179
33.4696
30.0314
26.7501
23.6606
20.7864
18.142
15.7333
13.5599
11.6161
9.89208
8.37501
7.05013
5.9015
4.91264
4.06711
3.34889
2.74274
2.23439
1.81069
1.45967
1.17061
0.933947
0.741317
0.585419
0.459961
0.359565
0.279669
0.216436
0.166664
0.127698
0.0973572
0.0738579
0.055754
0.0418805
0.0313046
0.0232847
0.0172347
0.0126943
0.00930452
0.00678672
0.00492618
0.00355833
0.00255781
0.00182967
0.00130239
0.000922435
0.000649942
0.000455369
0.000316941
0.00021866
0.000148801
9.875e-05
6.21273e-05
3.41024e-05
1.08568e-05
3.83202
11.3896
18.6335
25.3741
31.448
36.7261
41.1177
44.5716
47.0748
48.6492
49.3459
49.2395
48.4215
46.9938
45.063
42.7359
40.1147
37.2946
34.3614
31.3902
28.4446
25.5771
22.8291
20.2317
17.8071
15.5691
13.5246
11.6749
10.0165
8.54207
7.24187
6.10411
5.11585
4.26357
3.53363
2.91265
2.38781
1.94707
1.57926
1.27418
1.02266
0.816537
0.648592
0.512546
0.402969
0.315209
0.245315
0.189956
0.146352
0.112193
0.0855781
0.0649523
0.0490532
0.0368628
0.0275653
0.0205113
0.0151876
0.0111905
0.00820508
0.00598675
0.00434688
0.00314083
0.00225835
0.0016159
0.00115053
0.000815087
0.000574445
0.000402567
0.000280251
0.000193388
0.000131627
8.73672e-05
5.49735e-05
3.01785e-05
9.6081e-06
3.117
9.26757
15.1722
20.6812
25.6648
30.019
33.6687
36.5693
38.706
40.0913
40.7617
40.7725
40.1938
39.1049
37.5904
35.7357
33.6237
31.3327
28.9337
26.4896
24.0546
21.6736
19.3826
17.2095
15.1741
13.2896
11.5632
9.99725
8.58975
7.33563
6.22735
5.25562
4.41004
3.67955
3.0529
2.519
2.06713
1.68715
1.36965
1.106
0.888392
0.709869
0.564273
0.446222
0.351056
0.274774
0.213974
0.165783
0.127797
0.0980197
0.0748041
0.0568019
0.0429174
0.0322658
0.0241377
0.017968
0.0133094
0.00981024
0.00719555
0.00525191
0.00381455
0.00275704
0.00198298
0.00141927
0.0010108
0.000716282
0.000504935
0.000353939
0.000246454
0.000170101
0.0001158
7.68749e-05
4.83781e-05
2.65605e-05
8.45669e-06
2.53161
7.52933
12.3338
16.827
20.9056
24.4861
27.5067
29.9293
31.739
32.9422
33.5645
33.6474
33.2443
32.4169
31.2319
29.7576
28.061
26.2058
24.2506
22.248
20.2432
18.2746
16.3734
14.5636
12.8631
11.2841
9.83371
8.5147
7.3264
6.26528
5.32564
4.50021
3.78063
3.15794
2.62294
2.16645
1.77954
1.45377
1.18123
0.954651
0.767437
0.613688
0.488174
0.386311
0.304123
0.23819
0.185596
0.143879
0.110973
0.0851606
0.0650232
0.0493986
0.0373409
0.0280856
0.0210194
0.0156531
0.0115992
0.00855277
0.00627546
0.00458191
0.003329
0.00240685
0.00173163
0.00123973
0.000883175
0.000626009
0.000441411
0.000309486
0.00021555
0.000148803
0.000101321
6.72743e-05
4.23424e-05
2.32491e-05
7.40275e-06
2.05248
6.10597
10.0075
13.6638
16.9929
19.9276
22.4176
24.4307
25.9526
26.9861
27.5492
27.6725
27.397
26.7707
25.8459
24.6771
23.318
21.8206
20.2328
18.5979
16.954
15.3333
13.7624
12.2621
10.8481
9.53152
8.31897
7.2136
6.21551
5.32235
4.52988
3.83242
3.22336
2.69544
2.24116
1.85297
1.52351
1.24576
1.0131
0.81945
0.659276
0.527597
0.419995
0.332589
0.262004
0.205332
0.16009
0.124178
0.0958305
0.0735791
0.0562087
0.0427228
0.0323096
0.0243122
0.0182031
0.0135613
0.010053
0.0074155
0.00544296
0.00397545
0.00288933
0.00208964
0.00150387
0.00107698
0.00076745
0.000544128
0.000383774
0.000269141
0.000187495
0.000129464
8.817e-05
5.85529e-05
3.68584e-05
2.02401e-05
6.44499e-06
1.66063
4.94141
8.10261
11.0706
13.7802
16.1778
18.2224
19.887
21.1588
22.0381
22.5375
22.6798
22.4961
22.0238
21.3039
20.3797
19.2942
18.0894
16.8043
15.4747
14.132
12.8033
11.5109
10.2727
9.10248
8.00986
7.00108
6.07934
5.24524
4.49731
3.83242
3.24619
2.73338
2.28819
1.90452
1.5762
1.29719
1.06165
0.864124
0.699531
0.563242
0.451085
0.359347
0.284759
0.224474
0.176031
0.137328
0.106583
0.0822983
0.0632225
0.0483217
0.036746
0.0278025
0.0209301
0.0156776
0.0116846
0.00866526
0.00639425
0.00469507
0.0034304
0.00249403
0.00180433
0.00129894
0.000930496
0.000663256
0.000470383
0.000331848
0.000232784
0.000162205
0.000112027
7.63099e-05
5.06858e-05
3.19108e-05
1.75251e-05
5.58078e-06
1.34054
3.98978
6.54491
8.9478
11.1469
13.0991
14.7715
16.1415
17.1979
17.9398
18.3756
18.5225
18.4041
18.0494
17.4904
16.7615
15.8971
14.9307
13.8943
12.8169
11.7245
10.6396
9.5809
8.56362
7.59949
6.697
5.86179
5.09692
4.40334
3.78018
3.22518
2.735
2.30549
1.93204
1.60972
1.33352
1.09849
0.899836
0.733042
0.593903
0.478568
0.383559
0.305774
0.242473
0.191265
0.150084
0.117157
0.0909807
0.0702897
0.0540261
0.0413138
0.0314323
0.0237932
0.0179199
0.0134286
0.0100126
0.00742827
0.00548355
0.00402785
0.00294394
0.00214108
0.00154949
0.00111583
0.000799568
0.000570095
0.000404425
0.000285392
0.000200247
0.000139567
9.6413e-05
6.56879e-05
4.36384e-05
2.7478e-05
1.50922e-05
4.80629e-06
1.07947
3.21337
5.27325
7.21326
8.99255
10.5768
11.9394
13.0619
13.9346
14.5556
14.931
15.0734
15.0007
14.7353
14.3025
13.7291
13.0427
12.2701
11.4371
10.5673
9.68199
8.79972
7.93613
7.10398
6.31323
5.57125
4.88301
4.25139
3.67748
3.16087
2.69995
2.29216
1.93428
1.62264
1.35328
1.12216
0.925223
0.75857
0.618482
0.501493
0.404417
0.32437
0.258773
0.205342
0.162082
0.127264
0.0994034
0.0772386
0.0597059
0.0459157
0.0351297
0.0267404
0.0202512
0.0152591
0.0114397
0.00853315
0.00633322
0.00467698
0.00343668
0.00251275
0.00182811
0.00132343
0.000953336
0.000683338
0.000487366
0.000345834
0.000244111
0.000171326
0.000119439
8.25273e-05
5.6239e-05
3.73681e-05
2.35333e-05
1.29269e-05
4.11696e-06
0.866932
2.58113
4.23715
5.79887
7.23399
8.51523
9.62118
10.5368
11.2538
11.7701
12.0898
12.2221
12.1809
11.9833
11.649
11.1992
10.6557
10.04
9.37273
8.67309
7.95839
7.24383
6.54235
5.86459
5.21894
4.61171
4.04723
3.52814
3.05556
2.6294
2.24851
1.91099
1.61432
1.3556
1.13167
0.939267
0.775126
0.636058
0.519025
0.421184
0.339914
0.272835
0.217813
0.172957
0.136608
0.107329
0.0838831
0.0652166
0.0504407
0.038811
0.0297092
0.0226255
0.0171429
0.0129229
0.00969244
0.00723288
0.00537033
0.00396744
0.00291639
0.0021331
0.00155243
0.00112423
0.000810103
0.000580848
0.000414391
0.000294134
0.000207675
0.000145791
0.000101662
7.02607e-05
4.78899e-05
3.18264e-05
2.00463e-05
1.10128e-05
3.50754e-06
0.694282
2.06741
3.39487
4.64823
5.80202
6.83457
7.72876
8.47242
9.0585
9.48495
9.75446
9.87392
9.85377
9.70728
9.44978
9.0979
8.66884
8.17974
7.64711
7.0864
6.51164
5.93523
5.3678
4.81816
4.29333
3.79863
3.33781
2.91321
2.52595
2.17611
1.86292
1.58495
1.34026
1.12657
0.941366
0.782034
0.645938
0.530497
0.43324
0.351846
0.284169
0.228256
0.182352
0.144895
0.114518
0.0900295
0.0704043
0.0547686
0.0423832
0.0326286
0.0249893
0.0190403
0.0144333
0.0108852
0.00816772
0.00609763
0.00452925
0.00334737
0.00246151
0.00180104
0.00131122
0.000949868
0.000684679
0.00049107
0.000350445
0.000248816
0.000175726
0.000123395
8.60662e-05
5.94958e-05
4.05612e-05
2.69609e-05
1.69843e-05
9.33161e-06
2.97229e-06
0.554368
1.65101
2.71185
3.71456
4.63907
5.46825
6.18844
6.78981
7.26651
7.61658
7.8418
7.94723
7.9408
7.83273
7.63493
7.36041
7.02272
6.63545
6.21176
5.76403
5.30358
4.84048
4.38339
3.93955
3.51481
3.1136
2.73913
2.39346
2.07762
1.79183
1.53557
1.30778
1.10698
0.931371
0.778977
0.647707
0.535448
0.440119
0.359719
0.292362
0.236303
0.189944
0.151848
0.120738
0.095486
0.0751132
0.0587743
0.0457475
0.0354215
0.0272835
0.0209063
0.0159371
0.0120866
0.00911955
0.00684581
0.0051129
0.00379934
0.00280902
0.0020664
0.00151249
0.00110153
0.000798233
0.000575564
0.000412938
0.000294775
0.000209351
0.000147894
0.000103879
7.24719e-05
5.011e-05
3.41697e-05
2.27168e-05
1.43129e-05
7.86472e-06
2.50519e-06
0.441281
1.31438
2.15946
2.95903
3.6973
4.36075
4.93855
5.42278
5.80864
6.09434
6.28102
6.37242
6.37453
6.29521
6.14369
5.93012
5.66516
5.35952
5.02367
4.66747
4.30002
3.92944
3.56275
3.20589
2.86364
2.53972
2.23681
1.9567
1.70033
1.46798
1.25932
1.07357
0.909604
0.766021
0.641258
0.53366
0.441539
0.363223
0.297103
0.241654
0.19546
0.157224
0.125776
0.100073
0.0791928
0.0623342
0.0488036
0.0380081
0.029445
0.022692
0.0173968
0.0132682
0.0100672
0.00759932
0.0057071
0.00426422
0.00316998
0.00234462
0.00172542
0.00126337
0.000920417
0.000667211
0.000481246
0.000345377
0.00024662
0.000175202
0.000123804
8.69809e-05
6.06983e-05
4.19791e-05
2.86314e-05
1.90384e-05
1.19972e-05
6.59301e-06
2.1002e-06
0.350134
1.04302
1.71401
2.34944
2.93693
3.46584
3.92758
4.31584
4.62669
4.85856
5.01214
5.0902
5.09727
5.03936
4.92363
4.75796
4.5507
4.31029
4.045
3.76267
3.47057
3.1752
2.88226
2.59654
2.32197
2.06161
1.8177
1.59177
1.38465
1.19665
1.02757
0.876843
0.743612
0.626796
0.525168
0.43742
0.362208
0.2982
0.244103
0.198693
0.160826
0.129455
0.103631
0.0825058
0.0653318
0.0514548
0.040309
0.0314101
0.0243466
0.0187726
0.0143992
0.0109873
0.00834049
0.00629872
0.00473239
0.00353742
0.00263074
0.00194653
0.001433
0.00104964
0.000764972
0.000554715
0.000400234
0.000287327
0.000205231
0.00014584
0.000103084
7.24431e-05
5.0566e-05
3.49798e-05
2.38628e-05
1.58705e-05
1.00024e-05
5.49742e-06
1.75131e-06
0.276892
0.824922
1.35589
1.85913
2.32497
2.74504
3.11259
3.42258
3.67184
3.859
3.98449
4.05031
4.05991
4.01788
3.92973
3.8016
3.63999
3.45152
3.24271
3.01976
2.78846
2.55399
2.32092
2.09313
1.87381
1.66547
1.46996
1.28856
1.12202
0.970617
0.834266
0.712555
0.604832
0.510263
0.427893
0.356692
0.295597
0.243548
0.199515
0.162517
0.131637
0.106032
0.0849357
0.0676646
0.0536128
0.0422499
0.033117
0.02582
0.0200243
0.0154478
0.0118549
0.00905018
0.00687321
0.00519295
0.00390328
0.00291888
0.00217161
0.00160744
0.00118381
0.000867423
0.000632394
0.00045873
0.000331087
0.00023776
0.000169877
0.000120752
8.53752e-05
6.00139e-05
4.19008e-05
2.89924e-05
1.97825e-05
1.31593e-05
8.29497e-06
4.55947e-06
1.45262e-06
0.218223
0.650195
1.06891
1.46605
1.83407
2.16645
2.45786
2.70431
2.90326
3.05355
3.1554
3.2103
3.22084
3.19052
3.12358
3.02477
2.89916
2.75192
2.58815
2.41276
2.2303
2.04492
1.86026
1.67943
1.505
1.33902
1.18301
1.03804
0.904738
0.783391
0.673958
0.576149
0.489473
0.413292
0.346861
0.289375
0.239997
0.197888
0.162229
0.132239
0.107186
0.0863938
0.0692495
0.0552025
0.043765
0.0345095
0.027065
0.021113
0.0163825
0.0126448
0.00970854
0.00741516
0.00563407
0.00425862
0.00320237
0.00239573
0.0017831
0.00132037
0.000972759
0.000713034
0.000520018
0.00037734
0.000272432
0.0001957
0.000139867
9.94492e-05
7.03329e-05
4.94531e-05
3.45361e-05
2.39021e-05
1.63127e-05
1.08533e-05
6.84243e-06
3.76147e-06
1.19846e-06
0.171381
0.510676
0.839688
1.15197
1.44164
1.70362
1.93374
2.12886
2.28693
2.40699
2.48915
2.53449
2.54495
2.52322
2.47254
2.39659
2.29927
2.18463
2.05666
1.91919
1.77584
1.62986
1.48415
1.34121
1.20308
1.07143
0.947502
0.832167
0.725973
0.62917
0.541758
0.463534
0.394132
0.333062
0.279751
0.233569
0.19386
0.159963
0.131232
0.107047
0.0868244
0.0700278
0.0561667
0.0448009
0.0355396
0.0280397
0.0220031
0.0171735
0.0133326
0.0102959
0.00790894
0.00604351
0.00459397
0.00347397
0.00261344
0.00195595
0.00145636
0.00107884
0.000795107
0.000583024
0.000425347
0.000308747
0.000222981
0.000160227
0.000114549
8.14706e-05
5.76339e-05
4.05348e-05
2.8315e-05
1.96012e-05
1.33803e-05
8.90394e-06
5.61434e-06
3.08672e-06
9.83511e-07
0.134112
0.399654
0.657244
0.901888
1.12904
1.33473
1.51572
1.66954
1.79456
1.88999
1.95587
1.99298
2.00279
1.98732
1.94907
1.89086
1.81572
1.72678
1.62714
1.51981
1.40761
1.29313
1.17864
1.06612
0.957215
0.853256
0.755248
0.663911
0.5797
0.502836
0.433344
0.371083
0.315779
0.267062
0.224489
0.187571
0.155797
0.128648
0.105615
0.0862085
0.0699688
0.056469
0.0453197
0.0361706
0.0287101
0.0226641
0.0177946
0.0138961
0.0107938
0.00833944
0.00640914
0.00489974
0.00372621
0.002819
0.0021216
0.00158849
0.00118323
0.000876839
0.000646472
0.000474204
0.000346076
0.00025129
0.000181543
0.000130491
9.33182e-05
6.63897e-05
4.69783e-05
3.30492e-05
2.30919e-05
1.59892e-05
1.0917e-05
7.2661e-06
4.58233e-06
2.51962e-06
8.02867e-07
0.104562
0.31162
0.512547
0.703487
0.880924
1.04179
1.18356
1.30431
1.40275
1.47823
1.53075
1.56088
1.56971
1.55879
1.53001
1.48554
1.42772
1.35895
1.28166
1.19819
1.11073
1.0213
0.93171
0.843516
0.758026
0.676294
0.599134
0.527129
0.460658
0.399911
0.344925
0.295604
0.251747
0.213072
0.17924
0.149874
0.124574
0.102938
0.0845648
0.0690721
0.0560965
0.0453014
0.0363791
0.029052
0.0230729
0.0182242
0.0143163
0.0111857
0.00869281
0.00671951
0.00516662
0.00395165
0.00300654
0.00227552
0.00171329
0.0012833
0.00095627
0.00070892
0.00052286
0.000383667
0.000280097
0.000203449
0.000147027
0.000105714
7.56219e-05
5.38153e-05
3.80909e-05
2.6804e-05
1.87329e-05
1.2974e-05
8.86019e-06
5.89827e-06
3.72028e-06
2.04583e-06
6.51943e-07
0.0812199
0.242071
0.398208
0.546666
0.684735
0.810047
0.920646
1.01503
1.09219
1.15161
1.19324
1.21751
1.22524
1.21759
1.19601
1.16215
1.1178
1.06483
1.0051
0.940422
0.872513
0.802948
0.733136
0.664303
0.59748
0.533507
0.473031
0.416524
0.364296
0.316509
0.273206
0.234321
0.199707
0.169153
0.142398
0.119152
0.0991072
0.0819492
0.067367
0.0550604
0.044745
0.0361564
0.0290525
0.0232144
0.018447
0.0145784
0.0114583
0.00895724
0.00696448
0.00538611
0.0041433
0.00317042
0.00241321
0.00182724
0.00137634
0.00103132
0.000768803
0.000570156
0.000420668
0.000308788
0.000225508
0.000163852
0.000118449
8.51921e-05
6.09596e-05
4.33934e-05
3.07226e-05
2.16246e-05
1.51168e-05
1.0472e-05
7.15306e-06
4.76273e-06
3.00451e-06
1.6524e-06
5.26578e-07
0.0628491
0.18733
0.308198
0.423179
0.530193
0.627419
0.713344
0.786808
0.847018
0.893561
0.92639
0.945805
0.952419
0.947109
0.930973
0.905274
0.871381
0.830724
0.784738
0.734824
0.682307
0.628413
0.574239
0.520745
0.468741
0.418887
0.3717
0.327556
0.286706
0.249289
0.215345
0.184833
0.157645
0.133622
0.112566
0.0942549
0.0784513
0.064912
0.0533957
0.0436687
0.0355092
0.0287104
0.0230828
0.0184547
0.0146729
0.0116019
0.00912357
0.00713573
0.00555092
0.00429494
0.00330544
0.00253043
0.00192691
0.00145963
0.00109989
0.000824502
0.000614862
0.000456161
0.000336682
0.000247224
0.000180609
0.000131271
9.49262e-05
6.82945e-05
4.88827e-05
3.48064e-05
2.46497e-05
1.73546e-05
1.21348e-05
8.40824e-06
5.74459e-06
3.82559e-06
2.4137e-06
1.32762e-06
4.2309e-07
0.0484463
0.144409
0.237612
0.326317
0.408932
0.484061
0.550542
0.607478
0.654253
0.690538
0.716285
0.73171
0.737269
0.733621
0.721598
0.702158
0.676347
0.645256
0.609986
0.571615
0.531165
0.489583
0.447722
0.406325
0.366029
0.32735
0.290695
0.256365
0.224561
0.195398
0.168915
0.145086
0.123832
0.105034
0.0885431
0.0741892
0.0617903
0.0511591
0.042109
0.0344591
0.0280371
0.0226821
0.0182465
0.0145961
0.0116112
0.00918582
0.00722728
0.0056554
0.00440147
0.00340717
0.00262339
0.00200918
0.00153063
0.00115993
0.000874409
0.000655731
0.000489189
0.000363058
0.00026806
0.000196903
0.000143895
0.00010462
7.56776e-05
5.44625e-05
3.89936e-05
2.77727e-05
1.96737e-05
1.38548e-05
9.69009e-06
6.71579e-06
4.58927e-06
3.05676e-06
1.9289e-06
1.06108e-06
3.38177e-07
0.0371983
0.110887
0.182475
0.250638
0.314161
0.371979
0.423201
0.467139
0.503314
0.531469
0.551557
0.563733
0.568335
0.565858
0.55693
0.542275
0.522687
0.499
0.472054
0.442673
0.411643
0.379693
0.347481
0.315584
0.284494
0.254617
0.226271
0.199693
0.175045
0.152421
0.131855
0.113332
0.0967956
0.0821569
0.0693034
0.058106
0.0484256
0.0401187
0.0330417
0.0270551
0.0220257
0.017829
0.0143503
0.0114856
0.00914159
0.00723576
0.00569583
0.00445919
0.00347213
0.002689
0.00207135
0.00158707
0.00120957
0.000917006
0.000691554