/*--------------------------------*- C++ -*----------------------------------*\
  =========                 |
  \\      /  F ield         | OpenFOAM: The Open Source CFD Toolbox
   \\    /   O peration     | Website:  https://openfoam.org
    \\  /    A nd           | Version:  10
     \\/     M anipulation  |
\*---------------------------------------------------------------------------*/
FoamFile
{
    format      ascii;
    class       volScalarField;
    location    "203";
    object      gradTz;
}
// * * * * * * * * * * * * * * * * * * * * * * * * * * * * * * * * * * * * * //

dimensions      [0 -1 0 1 0 0 0];

internalField   nonuniform List<scalar> 
11250
(
-14363.1
-4158.24
-1537.28
-732.752
-426.812
-283.747
-204.766
-155.55
-122.095
-97.8579
-79.4527
-64.9834
-53.3233
-43.7671
-35.8522
-29.2601
-23.7602
-19.1776
-15.373
-12.2311
-9.65379
-7.55581
-5.8624
-4.50784
-3.43457
-2.59247
-1.93836
-1.43546
-1.0528
-0.764666
-0.54998
-0.391702
-0.27624
-0.1929
-0.133379
-0.0913163
-0.0619034
-0.0415512
-0.0276157
-0.018173
-0.0118412
-0.00763928
-0.00487963
-0.00308591
-0.00193206
-0.00119749
-0.000734683
-0.000446133
-0.000268112
-0.000159439
-9.38077e-05
-5.45975e-05
-3.14284e-05
-1.78897e-05
-1.00676e-05
-5.60028e-06
-3.07864e-06
-1.67219e-06
-8.97231e-07
-4.75474e-07
-2.48811e-07
-1.28542e-07
-6.55772e-08
-3.30087e-08
-1.63754e-08
-8.0181e-09
-3.88776e-09
-1.87144e-09
-8.8468e-10
-4.11607e-10
-1.97571e-10
-1.09762e-10
-2.96357e-11
5.48809e-12
0
-8293.31
-4889.98
-2794.65
-1698.97
-1116.96
-786.673
-584.168
-450.65
-356.946
-287.738
-234.521
-192.329
-158.126
-129.976
-106.587
-87.063
-70.7455
-57.1314
-45.817
-36.466
-28.7905
-22.5392
-17.4914
-13.4522
-10.251
-7.7386
-5.78674
-4.28582
-3.1436
-2.28343
-1.64245
-1.16985
-0.825059
-0.576173
-0.398407
-0.272776
-0.184922
-0.124129
-0.0825011
-0.0542932
-0.0353774
-0.0228241
-0.0145794
-0.00922033
-0.00577291
-0.00357813
-0.00219531
-0.00133313
-0.00080119
-0.000476461
-0.00028034
-0.000163168
-9.39289e-05
-5.34684e-05
-3.00914e-05
-1.67396e-05
-9.20272e-06
-4.99883e-06
-2.68232e-06
-1.42156e-06
-7.43955e-07
-3.84375e-07
-1.9603e-07
-9.86725e-08
-4.90394e-08
-2.40455e-08
-1.16249e-08
-5.56273e-09
-2.64526e-09
-1.25567e-09
-5.74054e-10
-2.50257e-10
-1.07567e-10
-4.17095e-11
7.68332e-12
-5624.29
-4311.25
-3050.06
-2149.43
-1553.61
-1160.36
-893.492
-705.215
-566.945
-461.612
-378.859
-312.246
-257.654
-212.365
-174.515
-142.78
-116.169
-93.911
-75.376
-60.0336
-47.4246
-37.1452
-28.8379
-22.1864
-16.9116
-12.7701
-9.55135
-7.07539
-5.19063
-3.77091
-2.71276
-1.93242
-1.36303
-0.951953
-0.658308
-0.450758
-0.305604
-0.205151
-0.13636
-0.0897422
-0.0584791
-0.0377304
-0.0241023
-0.0152436
-0.00954455
-0.00591612
-0.00362993
-0.00220443
-0.0013249
-0.000787951
-0.000463641
-0.000269874
-0.000155366
-8.8448e-05
-4.97816e-05
-2.76956e-05
-1.52274e-05
-8.27224e-06
-4.43931e-06
-2.35297e-06
-1.23156e-06
-6.36422e-07
-3.24641e-07
-1.63431e-07
-8.12204e-08
-3.9838e-08
-1.92698e-08
-9.20352e-09
-4.35864e-09
-2.06133e-09
-9.48342e-10
-4.12704e-10
-1.80009e-10
-6.80523e-11
-1.86595e-11
-4264.06
-3676.58
-2941.09
-2291.63
-1784.71
-1405.27
-1122.42
-908.583
-743.417
-612.884
-507.546
-421.07
-349.168
-288.873
-238.077
-195.228
-159.131
-128.83
-103.526
-82.5357
-65.2542
-51.1456
-39.7306
-30.5819
-23.3213
-17.6167
-13.1806
-9.76668
-7.16681
-5.20775
-3.74716
-2.66974
-1.8834
-1.31558
-0.909886
-0.623094
-0.422489
-0.283644
-0.18855
-0.124101
-0.0808747
-0.0521838
-0.0333376
-0.0210859
-0.0132036
-0.0081847
-0.0050222
-0.00305017
-0.00183334
-0.00109042
-0.000641677
-0.000373539
-0.000215068
-0.00012245
-6.89273e-05
-3.83523e-05
-2.10896e-05
-1.14586e-05
-6.15031e-06
-3.26046e-06
-1.70686e-06
-8.82207e-07
-4.50127e-07
-2.26693e-07
-1.12657e-07
-5.52398e-08
-2.67369e-08
-1.27807e-08
-6.04458e-09
-2.82307e-09
-1.28202e-09
-5.83933e-10
-2.85381e-10
-1.08664e-10
-1.53666e-11
-3485.44
-3184.26
-2740.79
-2286.53
-1884.25
-1550.28
-1279.82
-1061.63
-884.44
-738.931
-618.045
-516.607
-430.855
-358.042
-296.114
-243.492
-198.914
-161.329
-129.836
-103.638
-82.0229
-64.3449
-50.0211
-38.5274
-29.3965
-22.2166
-16.6291
-12.3265
-9.04813
-6.5767
-4.73338
-3.37317
-2.38013
-1.66286
-1.15027
-0.787831
-0.534264
-0.358731
-0.238492
-0.156989
-0.102318
-0.0660265
-0.0421849
-0.0266842
-0.0167105
-0.0103595
-0.00635728
-0.00386137
-0.00232115
-0.0013807
-0.000812588
-0.000473089
-0.000272421
-0.000155126
-8.73345e-05
-4.86026e-05
-2.67311e-05
-1.45267e-05
-7.7987e-06
-4.13525e-06
-2.16534e-06
-1.11946e-06
-5.71329e-07
-2.87803e-07
-1.43081e-07
-7.02014e-08
-3.39932e-08
-1.62436e-08
-7.66905e-09
-3.5914e-09
-1.62996e-09
-7.14549e-10
-3.29285e-10
-1.54764e-10
-4.06118e-11
-3000.58
-2827.02
-2544.55
-2223.41
-1910.29
-1627.55
-1381.77
-1171.61
-992.743
-840.313
-709.956
-598.085
-501.863
-419.063
-347.913
-286.97
-235.02
-191.005
-153.98
-123.086
-97.5312
-76.5884
-59.5908
-45.9325
-35.0693
-26.5187
-19.8591
-14.7271
-10.8145
-7.86326
-5.66107
-4.03538
-2.84809
-1.99024
-1.37701
-0.9433
-0.639802
-0.429661
-0.285688
-0.188081
-0.122597
-0.079122
-0.0505573
-0.0319836
-0.0200313
-0.0124196
-0.00762224
-0.00463021
-0.00278364
-0.00165602
-0.000974748
-0.00056758
-0.000326884
-0.00018617
-0.000104832
-5.83519e-05
-3.21001e-05
-1.74485e-05
-9.36965e-06
-4.96958e-06
-2.60294e-06
-1.3461e-06
-6.87231e-07
-3.46321e-07
-1.72232e-07
-8.45089e-08
-4.09291e-08
-1.95694e-08
-9.24633e-09
-4.32022e-09
-1.96693e-09
-8.86875e-10
-4.07216e-10
-1.67935e-10
-3.7319e-11
-2680.35
-2570.07
-2378.91
-2145.02
-1899.71
-1662.8
-1444.29
-1247.78
-1073.37
-919.576
-784.408
-665.87
-562.162
-471.721
-393.187
-325.365
-267.173
-217.615
-175.755
-140.709
-111.642
-87.767
-68.354
-52.7308
-40.2887
-30.4848
-22.8418
-16.9473
-12.4502
-9.0561
-6.5221
-4.65058
-3.28321
-2.29488
-1.58815
-1.08816
-0.738198
-0.495826
-0.329736
-0.217112
-0.141541
-0.0913596
-0.0583842
-0.0369396
-0.023138
-0.0143474
-0.0088065
-0.00535027
-0.00321696
-0.00191407
-0.00112681
-0.00065623
-0.000378006
-0.000215328
-0.000121276
-6.75201e-05
-3.71528e-05
-2.02003e-05
-1.08504e-05
-5.75671e-06
-3.01619e-06
-1.56034e-06
-7.96889e-07
-4.01715e-07
-1.99838e-07
-9.81292e-08
-4.75631e-08
-2.27207e-08
-1.07116e-08
-4.99635e-09
-2.29731e-09
-1.0603e-09
-4.78561e-10
-2.05254e-10
-5.59785e-11
-2460.07
-2384
-2246.67
-2069.67
-1873.53
-1673.78
-1480.4
-1298.94
-1131.94
-980.16
-843.422
-721.088
-612.335
-516.276
-432.014
-358.654
-295.303
-241.07
-195.068
-156.423
-124.279
-97.8172
-76.2587
-58.8807
-45.0222
-34.0894
-25.5579
-18.9725
-13.9445
-10.1473
-7.31071
-5.21466
-3.68256
-2.57472
-1.78226
-1.22144
-0.828787
-0.556779
-0.370336
-0.243885
-0.159019
-0.102656
-0.0656125
-0.0415185
-0.0260095
-0.0161301
-0.009902
-0.00601665
-0.00361814
-0.0021531
-0.00126773
-0.00073843
-0.000425437
-0.000242396
-0.000136552
-7.6044e-05
-4.18542e-05
-2.27631e-05
-1.22307e-05
-6.49115e-06
-3.40216e-06
-1.76068e-06
-8.99533e-07
-4.5362e-07
-2.2577e-07
-1.10907e-07
-5.37723e-08
-2.57062e-08
-1.21122e-08
-5.63407e-09
-2.60465e-09
-1.21287e-09
-5.56492e-10
-2.48062e-10
-7.35404e-11
-2304.21
-2247.95
-2143.58
-2003.99
-1842.82
-1671.78
-1499.65
-1332.37
-1173.66
-1025.64
-889.374
-765.277
-653.348
-553.32
-464.742
-387.033
-319.509
-261.411
-211.928
-170.217
-135.427
-106.719
-83.2853
-64.3645
-49.2545
-37.3201
-27.9974
-20.7949
-15.2914
-11.1323
-8.02357
-5.72518
-4.04439
-2.82853
-1.95847
-1.34253
-0.911151
-0.612236
-0.4073
-0.268274
-0.17495
-0.112958
-0.0722074
-0.045698
-0.0286318
-0.0177587
-0.0109033
-0.00662601
-0.00398519
-0.00237189
-0.0013968
-0.000813758
-0.00046893
-0.000267235
-0.00015058
-8.38778e-05
-4.61787e-05
-2.51226e-05
-1.35029e-05
-7.16876e-06
-3.75871e-06
-1.94595e-06
-9.94593e-07
-5.01773e-07
-2.49833e-07
-1.22761e-07
-5.95447e-08
-2.84887e-08
-1.34326e-08
-6.2641e-09
-2.87905e-09
-1.30836e-09
-6.14666e-10
-2.97454e-10
-1.02078e-10
-2191.76
-2147.58
-2064.1
-1949.47
-1813.02
-1663.59
-1508.56
-1353.62
-1202.92
-1059.3
-924.637
-800.112
-686.364
-583.644
-491.903
-410.852
-340.018
-278.784
-226.426
-182.148
-145.118
-114.491
-89.4432
-69.1862
-52.9866
-40.1763
-30.1591
-22.413
-16.4896
-12.01
-8.65963
-6.1813
-4.36805
-3.05581
-2.11641
-1.45117
-0.985108
-0.662071
-0.440539
-0.290221
-0.189294
-0.122239
-0.0781518
-0.0494673
-0.0309978
-0.0192289
-0.0118077
-0.00717663
-0.00431701
-0.00256981
-0.00151361
-0.000881975
-0.000508344
-0.000289761
-0.000163312
-9.09937e-05
-5.01105e-05
-2.72699e-05
-1.46618e-05
-7.78678e-06
-4.08424e-06
-2.1153e-06
-1.08162e-06
-5.45936e-07
-2.71941e-07
-1.33662e-07
-6.48429e-08
-3.10516e-08
-1.46708e-08
-6.8206e-09
-3.11614e-09
-1.43898e-09
-6.79425e-10
-3.15016e-10
-1.4269e-10
-2109.54
-2073.04
-2003.18
-1905.43
-1786.47
-1653.08
-1511.43
-1366.73
-1223.15
-1083.91
-951.373
-827.223
-712.587
-608.125
-514.125
-430.559
-357.147
-293.411
-238.716
-192.323
-153.424
-121.182
-94.7657
-73.3681
-56.2334
-42.6678
-32.0492
-23.8309
-17.5415
-12.7819
-9.21993
-6.58366
-4.65393
-3.25679
-2.25624
-1.54744
-1.0507
-0.706307
-0.470067
-0.30973
-0.202053
-0.130499
-0.0834457
-0.0528258
-0.0331071
-0.0205403
-0.0126147
-0.00766826
-0.00461344
-0.0027467
-0.00161808
-0.000943024
-0.00054364
-0.000309948
-0.000174732
-9.73814e-05
-5.36433e-05
-2.92013e-05
-1.57054e-05
-8.34387e-06
-4.37804e-06
-2.26835e-06
-1.16034e-06
-5.85904e-07
-2.91991e-07
-1.4361e-07
-6.96943e-08
-3.33764e-08
-1.57684e-08
-7.33867e-09
-3.37627e-09
-1.5663e-09
-7.03573e-10
-3.19407e-10
-1.72326e-10
-2048.9
-2017.42
-1956.64
-1870.48
-1763.93
-1642.36
-1510.98
-1374.5
-1236.98
-1101.74
-971.44
-848.093
-733.169
-627.644
-532.073
-446.649
-371.263
-305.56
-248.994
-200.882
-160.447
-126.866
-99.3047
-76.9471
-59.0208
-44.8128
-33.6806
-25.0574
-18.4532
-13.4521
-9.70725
-6.93414
-4.90329
-3.43232
-2.37849
-1.63169
-1.10817
-0.745094
-0.495978
-0.326862
-0.213266
-0.137763
-0.0881038
-0.0557827
-0.0349651
-0.021696
-0.0133263
-0.008102
-0.00487511
-0.00290294
-0.0017104
-0.000997008
-0.000574872
-0.000327823
-0.000184851
-0.000103047
-5.67797e-05
-3.09176e-05
-1.66337e-05
-8.84001e-06
-4.64002e-06
-2.40498e-06
-1.23072e-06
-6.21696e-07
-3.0998e-07
-1.52552e-07
-7.40574e-08
-3.54651e-08
-1.67672e-08
-7.81833e-09
-3.60458e-09
-1.6563e-09
-7.65039e-10
-3.61116e-10
-1.39397e-10
-2003.92
-1975.81
-1921.21
-1843.09
-1745.37
-1632.48
-1508.89
-1378.88
-1246.32
-1114.56
-986.373
-864.005
-749.155
-643.031
-546.398
-459.626
-382.749
-315.522
-257.479
-207.989
-166.309
-131.631
-103.126
-79.9707
-61.3831
-46.6359
-35.0707
-26.1049
-19.2336
-14.0269
-10.1258
-7.23566
-5.11812
-3.58374
-2.48408
-1.70454
-1.1579
-0.778695
-0.518444
-0.341728
-0.223002
-0.144074
-0.0921536
-0.0583549
-0.0365823
-0.0227025
-0.0139464
-0.00848011
-0.00510333
-0.00303928
-0.00179101
-0.00104417
-0.000602177
-0.000343462
-0.000193712
-0.000108012
-5.95304e-05
-3.24244e-05
-1.74495e-05
-9.27651e-06
-4.87077e-06
-2.52547e-06
-1.29285e-06
-6.53375e-07
-3.25906e-07
-1.60427e-07
-7.79265e-08
-3.73475e-08
-1.76563e-08
-8.25518e-09
-3.81861e-09
-1.74741e-09
-8.01261e-10
-3.53433e-10
-1.4269e-10
-1970.46
-1944.65
-1894.31
-1821.82
-1730.42
-1623.87
-1506.14
-1381.14
-1252.56
-1123.7
-997.401
-876.033
-761.453
-655.037
-557.706
-469.972
-391.985
-323.592
-264.396
-213.816
-171.14
-135.577
-106.302
-82.4929
-63.3601
-48.1659
-36.2403
-26.9885
-19.8931
-14.5136
-10.481
-7.49187
-5.30094
-3.71277
-2.57417
-1.76677
-1.20043
-0.807453
-0.537688
-0.354473
-0.231355
-0.149493
-0.0956327
-0.060566
-0.0379732
-0.0235686
-0.0144802
-0.00880581
-0.00530002
-0.00315684
-0.00186055
-0.00108488
-0.00062576
-0.000356978
-0.000201374
-0.000112309
-6.19132e-05
-3.37308e-05
-1.81575e-05
-9.65571e-06
-5.07144e-06
-2.63039e-06
-1.34703e-06
-6.80981e-07
-3.39795e-07
-1.67338e-07
-8.13477e-08
-3.90027e-08
-1.84466e-08
-8.64044e-09
-3.99643e-09
-1.82095e-09
-8.04554e-10
-3.41359e-10
-1.89888e-10
-1945.55
-1921.33
-1873.95
-1805.43
-1718.57
-1616.66
-1503.3
-1382.14
-1256.68
-1130.18
-1005.49
-885.055
-770.831
-664.313
-566.54
-478.131
-399.328
-330.054
-269.97
-218.538
-175.074
-138.803
-108.909
-84.5711
-64.9942
-49.4343
-37.2126
-27.7246
-20.4438
-14.9208
-10.7786
-7.70696
-5.45464
-3.8214
-2.65011
-1.81928
-1.23636
-0.831774
-0.553978
-0.36527
-0.238437
-0.15409
-0.0985863
-0.0624442
-0.0391554
-0.0243051
-0.0149344
-0.00908302
-0.0054675
-0.00325699
-0.00191983
-0.0011196
-0.000645881
-0.000368516
-0.00020792
-0.000115982
-6.39515e-05
-3.48492e-05
-1.87641e-05
-9.98098e-06
-5.24376e-06
-2.72054e-06
-1.39361e-06
-7.04769e-07
-3.51816e-07
-1.73339e-07
-8.42871e-08
-4.04362e-08
-1.91446e-08
-8.95546e-09
-4.10399e-09
-1.84729e-09
-8.46263e-10
-3.9624e-10
-1.92083e-10
-1927.02
-1903.91
-1858.61
-1792.91
-1709.29
-1610.77
-1500.66
-1382.4
-1259.37
-1134.75
-1011.39
-891.773
-777.924
-671.417
-573.375
-484.499
-405.103
-335.171
-274.411
-222.32
-178.239
-141.411
-111.025
-86.263
-66.3288
-50.4732
-38.0109
-28.3305
-20.8981
-15.2573
-11.025
-7.88536
-5.58232
-3.91177
-2.71336
-1.86308
-1.26635
-0.852099
-0.567605
-0.374309
-0.244371
-0.157945
-0.101064
-0.0640208
-0.0401482
-0.0249239
-0.0153162
-0.00931615
-0.0056084
-0.00334129
-0.00196973
-0.00114884
-0.000662837
-0.000378244
-0.000213442
-0.000119082
-6.5673e-05
-3.57944e-05
-1.92772e-05
-1.02563e-05
-5.38974e-06
-2.79704e-06
-1.43321e-06
-7.24977e-07
-3.62e-07
-1.78425e-07
-8.67897e-08
-4.16568e-08
-1.9722e-08
-9.22657e-09
-4.24888e-09
-1.92083e-09
-8.51751e-10
-3.84166e-10
-2.37085e-10
-1913.26
-1890.92
-1847.09
-1783.39
-1702.12
-1606.06
-1498.35
-1382.27
-1261.1
-1137.95
-1015.67
-896.742
-783.247
-676.809
-578.614
-489.421
-409.599
-339.179
-277.909
-225.315
-180.758
-143.494
-112.721
-87.6243
-67.4059
-51.314
-38.6587
-28.8233
-21.2684
-15.5322
-11.2267
-8.03158
-5.68714
-3.98606
-2.76544
-1.89918
-1.2911
-0.868887
-0.578869
-0.381788
-0.249284
-0.161138
-0.103119
-0.0653287
-0.0409723
-0.0254378
-0.0156333
-0.00950988
-0.00572554
-0.00341138
-0.00201125
-0.00117318
-0.00067695
-0.000386344
-0.000218041
-0.000121666
-6.71084e-05
-3.6583e-05
-1.97056e-05
-1.04863e-05
-5.51175e-06
-2.86101e-06
-1.46635e-06
-7.41941e-07
-3.7056e-07
-1.82684e-07
-8.88982e-08
-4.26765e-08
-2.01984e-08
-9.45488e-09
-4.35315e-09
-1.97242e-09
-8.80289e-10
-3.90752e-10
-2.5794e-10
-1903.07
-1881.28
-1838.49
-1776.22
-1696.62
-1602.35
-1496.41
-1381.96
-1262.19
-1140.18
-1018.75
-900.393
-787.212
-680.869
-582.594
-493.189
-413.064
-342.287
-280.636
-227.66
-182.739
-145.139
-114.066
-88.707
-68.2652
-51.9867
-39.1783
-29.2195
-21.5668
-15.7542
-11.3898
-8.15004
-5.77219
-4.04642
-2.8078
-1.92858
-1.31129
-0.88259
-0.588074
-0.387904
-0.253304
-0.163754
-0.104802
-0.066401
-0.0416482
-0.0258595
-0.0158936
-0.00966896
-0.00582174
-0.00346896
-0.00204536
-0.00119317
-0.000688552
-0.000393004
-0.000221824
-0.000123791
-6.82896e-05
-3.72322e-05
-2.00583e-05
-1.06758e-05
-5.61236e-06
-2.91377e-06
-1.49369e-06
-7.55942e-07
-3.77645e-07
-1.86214e-07
-9.06259e-08
-4.35216e-08
-2.06297e-08
-9.66562e-09
-4.42011e-09
-1.99766e-09
-9.23096e-10
-4.2368e-10
-2.27207e-10
-1895.56
-1874.15
-1832.1
-1770.85
-1692.46
-1599.48
-1494.83
-1381.58
-1262.87
-1141.72
-1020.96
-903.058
-790.143
-683.902
-585.591
-496.046
-415.708
-344.673
-282.74
-229.478
-184.281
-146.424
-115.12
-89.5585
-68.9431
-52.5187
-39.5903
-29.5344
-21.8044
-15.9312
-11.5202
-8.24489
-5.84039
-4.0949
-2.84187
-1.95225
-1.32756
-0.893648
-0.595507
-0.392848
-0.256557
-0.165871
-0.106166
-0.06727
-0.0421962
-0.0262014
-0.0161048
-0.00979803
-0.00589981
-0.0035157
-0.00207305
-0.00120941
-0.00069797
-0.000398411
-0.000224895
-0.000125517
-6.92489e-05
-3.77595e-05
-2.0345e-05
-1.08298e-05
-5.69417e-06
-2.95672e-06
-1.51594e-06
-7.67332e-07
-3.83405e-07
-1.89074e-07
-9.20308e-08
-4.42274e-08
-2.09733e-08
-9.80063e-09
-4.49584e-09
-2.04596e-09
-9.57122e-10
-4.4673e-10
-2.15133e-10
-1890.04
-1868.91
-1827.38
-1766.85
-1689.32
-1597.28
-1493.57
-1381.21
-1263.28
-1142.79
-1022.53
-904.991
-792.295
-686.148
-587.828
-498.194
-417.708
-346.486
-284.347
-230.873
-185.468
-147.418
-115.938
-90.2209
-69.4717
-52.9347
-39.9132
-29.7818
-21.9914
-16.0709
-11.6232
-8.31997
-5.89446
-4.1334
-2.86895
-1.9711
-1.34052
-0.902468
-0.601443
-0.396798
-0.259158
-0.167565
-0.107257
-0.067966
-0.0426353
-0.0264755
-0.0162741
-0.00990151
-0.00596241
-0.00355317
-0.00209524
-0.00122242
-0.00070552
-0.000402746
-0.000227357
-0.0001269
-7.00178e-05
-3.81822e-05
-2.05748e-05
-1.09533e-05
-5.75977e-06
-2.99114e-06
-1.53378e-06
-7.7648e-07
-3.88037e-07
-1.91387e-07
-9.31767e-08
-4.47521e-08
-2.12148e-08
-9.92795e-09
-4.57597e-09
-2.09645e-09
-9.5383e-10
-4.50023e-10
-2.10743e-10
-1886.01
-1865.08
-1823.91
-1763.9
-1686.99
-1595.62
-1492.59
-1380.87
-1263.52
-1143.52
-1023.65
-906.384
-793.863
-687.799
-589.485
-499.793
-419.205
-347.85
-285.561
-231.931
-186.373
-148.177
-116.565
-90.7304
-69.8796
-53.2565
-40.1636
-29.974
-22.1371
-16.1799
-11.7037
-8.37874
-5.93685
-4.16361
-2.89024
-1.98593
-1.35073
-0.909424
-0.606128
-0.399919
-0.261214
-0.168905
-0.108121
-0.0685171
-0.042983
-0.0266926
-0.0164082
-0.0099835
-0.006012
-0.00358285
-0.00211283
-0.00123273
-0.000711498
-0.000406176
-0.000229305
-0.000127994
-7.06258e-05
-3.85164e-05
-2.07564e-05
-1.10509e-05
-5.8116e-06
-3.01837e-06
-1.54789e-06
-7.83701e-07
-3.91695e-07
-1.9321e-07
-9.40559e-08
-4.51944e-08
-2.14354e-08
-1.00399e-08
-4.63634e-09
-2.07999e-09
-9.62611e-10
-4.6539e-10
-2.18426e-10
-1883.09
-1862.29
-1821.39
-1761.73
-1685.26
-1594.38
-1491.83
-1380.58
-1263.66
-1144.02
-1024.43
-907.382
-794.998
-689.004
-590.701
-500.975
-420.316
-348.868
-286.471
-232.726
-187.055
-148.752
-117.041
-91.1183
-70.1909
-53.5027
-40.3556
-30.1217
-22.2492
-16.2639
-11.7659
-8.42422
-5.96971
-4.18706
-2.90679
-1.99747
-1.35869
-0.914848
-0.609784
-0.402356
-0.262821
-0.169953
-0.108797
-0.0689484
-0.0432552
-0.0268626
-0.0165133
-0.0100477
-0.00605082
-0.00360609
-0.00212658
-0.00124079
-0.00071617
-0.000408856
-0.000230826
-0.000128849
-7.11002e-05
-3.8777e-05
-2.08979e-05
-1.11269e-05
-5.85198e-06
-3.03955e-06
-1.5589e-06
-7.89332e-07
-3.94514e-07
-1.94611e-07
-9.47365e-08
-4.55237e-08
-2.1611e-08
-1.01332e-08
-4.67146e-09
-2.1195e-09
-9.8127e-10
-4.44535e-10
-2.305e-10
-1880.97
-1860.27
-1819.55
-1760.16
-1684
-1593.45
-1491.26
-1380.35
-1263.73
-1144.36
-1024.98
-908.091
-795.813
-689.875
-591.587
-501.839
-421.134
-349.619
-287.145
-233.318
-187.564
-149.182
-117.398
-91.4104
-70.4259
-53.689
-40.5012
-30.2339
-22.3346
-16.328
-11.8135
-8.45904
-5.99489
-4.20506
-2.91951
-2.00635
-1.36482
-0.91903
-0.612605
-0.404239
-0.264063
-0.170764
-0.10932
-0.0692821
-0.0434659
-0.0269942
-0.0165945
-0.0100974
-0.00608086
-0.00362405
-0.00213722
-0.00124701
-0.000719778
-0.000410925
-0.000231999
-0.000129507
-7.14655e-05
-3.89775e-05
-2.10068e-05
-1.11853e-05
-5.88299e-06
-3.05582e-06
-1.56732e-06
-7.93649e-07
-3.96695e-07
-1.95676e-07
-9.52743e-08
-4.58003e-08
-2.17295e-08
-1.0165e-08
-4.69341e-09
-2.1634e-09
-9.92246e-10
-4.60999e-10
-2.12938e-10
-1879.46
-1858.82
-1818.24
-1759.02
-1683.08
-1592.78
-1490.83
-1380.16
-1263.77
-1144.58
-1025.37
-908.593
-796.394
-690.501
-592.226
-502.467
-421.729
-350.169
-287.64
-233.754
-187.941
-149.501
-117.664
-91.6281
-70.6015
-53.8285
-40.6105
-30.3183
-22.3989
-16.3764
-11.8494
-8.48539
-6.01398
-4.21873
-2.92917
-2.0131
-1.36949
-0.922218
-0.614759
-0.405676
-0.265012
-0.171383
-0.10972
-0.0695374
-0.0436271
-0.0270948
-0.0166567
-0.0101354
-0.00610382
-0.00363778
-0.00214534
-0.00125176
-0.000722529
-0.0004125
-0.000232892
-0.000130007
-7.17429e-05
-3.91297e-05
-2.10893e-05
-1.12296e-05
-5.90646e-06
-3.06814e-06
-1.57372e-06
-7.96899e-07
-3.98319e-07
-1.96528e-07
-9.57111e-08
-4.59759e-08
-2.17866e-08
-1.02155e-08
-4.72963e-09
-2.15901e-09
-9.9993e-10
-4.58804e-10
-2.15133e-10
-1878.38
-1857.79
-1817.29
-1758.21
-1682.42
-1592.29
-1490.52
-1380.02
-1263.78
-1144.74
-1025.63
-908.945
-796.806
-690.947
-592.684
-502.918
-422.16
-350.567
-288
-234.073
-188.216
-149.735
-117.859
-91.7886
-70.7313
-53.9319
-40.6916
-30.3811
-22.4469
-16.4126
-11.8763
-8.50512
-6.0283
-4.22899
-2.93644
-2.01819
-1.373
-0.924623
-0.616383
-0.406762
-0.265729
-0.171851
-0.110023
-0.0697306
-0.0437491
-0.027171
-0.0167037
-0.0101641
-0.00612117
-0.00364815
-0.00215146
-0.00125535
-0.0007246
-0.000413685
-0.000233563
-0.000130383
-7.1951e-05
-3.92436e-05
-2.11511e-05
-1.12627e-05
-5.92396e-06
-3.0773e-06
-1.57845e-06
-7.99303e-07
-3.99558e-07
-1.97157e-07
-9.60053e-08
-4.61285e-08
-2.18777e-08
-1.02408e-08
-4.72524e-09
-2.14914e-09
-9.80172e-10
-4.71976e-10
-2.46964e-10
-1877.62
-1857.06
-1816.63
-1757.63
-1681.95
-1591.93
-1490.29
-1379.91
-1263.78
-1144.84
-1025.81
-909.19
-797.095
-691.262
-593.009
-503.24
-422.468
-350.854
-288.26
-234.303
-188.416
-149.906
-118.002
-91.9059
-70.8263
-54.0077
-40.7512
-30.4273
-22.4822
-16.4392
-11.8961
-8.51974
-6.03892
-4.23661
-2.94184
-2.02197
-1.37562
-0.926416
-0.617596
-0.407573
-0.266265
-0.172201
-0.110249
-0.069875
-0.0438403
-0.0272279
-0.0167389
-0.0101855
-0.00613412
-0.00365588
-0.00215603
-0.00125801
-0.000726141
-0.000414566
-0.000234061
-0.000130661
-7.21049e-05
-3.93278e-05
-2.11966e-05
-1.1287e-05
-5.93687e-06
-3.08403e-06
-1.58192e-06
-8.01106e-07
-4.00457e-07
-1.97573e-07
-9.62106e-08
-4.62316e-08
-2.19337e-08
-1.02583e-08
-4.71207e-09
-2.15462e-09
-1.00761e-09
-4.91733e-10
-2.49159e-10
-1877.08
-1856.55
-1816.16
-1757.22
-1681.61
-1591.68
-1490.12
-1379.83
-1263.78
-1144.9
-1025.94
-909.36
-797.296
-691.483
-593.238
-503.468
-422.686
-351.058
-288.445
-234.467
-188.56
-150.028
-118.105
-91.9906
-70.8951
-54.0627
-40.7946
-30.461
-22.508
-16.4587
-11.9107
-8.53045
-6.04671
-4.24221
-2.94581
-2.02476
-1.37756
-0.927738
-0.618491
-0.408171
-0.266661
-0.17246
-0.110416
-0.0699818
-0.0439077
-0.02727
-0.0167649
-0.0102014
-0.00614368
-0.00366158
-0.00215939
-0.00125998
-0.000727274
-0.000415212
-0.000234425
-0.000130865
-7.22173e-05
-3.93892e-05
-2.12298e-05
-1.13047e-05
-5.94621e-06
-3.08891e-06
-1.58446e-06
-8.02388e-07
-4.01086e-07
-1.97909e-07
-9.63587e-08
-4.62843e-08
-2.19666e-08
-1.02989e-08
-4.73293e-09
-2.15462e-09
-1.00871e-09
-4.78561e-10
-2.48062e-10
-1876.71
-1856.19
-1815.83
-1756.93
-1681.38
-1591.5
-1490
-1379.77
-1263.78
-1144.95
-1026.02
-909.476
-797.436
-691.637
-593.398
-503.627
-422.84
-351.201
-288.576
-234.584
-188.661
-150.115
-118.178
-92.0513
-70.9444
-54.1022
-40.8257
-30.4852
-22.5266
-16.4728
-11.9212
-8.53822
-6.05237
-4.24628
-2.9487
-2.02679
-1.37896
-0.928704
-0.619145
-0.408609
-0.266951
-0.17265
-0.110538
-0.0700599
-0.043957
-0.0273008
-0.0167839
-0.010213
-0.00615066
-0.00366574
-0.00216184
-0.0012614
-0.000728096
-0.000415681
-0.000234689
-0.000131012
-7.22983e-05
-3.94334e-05
-2.12536e-05
-1.13174e-05
-5.95289e-06
-3.0924e-06
-1.58625e-06
-8.03289e-07
-4.01541e-07
-1.98136e-07
-9.64839e-08
-4.63392e-08
-2.19897e-08
-1.03055e-08
-4.745e-09
-2.15133e-09
-9.80172e-10
-4.57706e-10
-2.85381e-10
-1876.45
-1855.94
-1815.6
-1756.73
-1681.21
-1591.38
-1489.92
-1379.72
-1263.77
-1144.98
-1026.08
-909.556
-797.532
-691.743
-593.509
-503.738
-422.947
-351.302
-288.668
-234.666
-188.733
-150.177
-118.23
-92.0942
-70.9794
-54.1303
-40.8479
-30.5025
-22.5399
-16.4829
-11.9287
-8.54379
-6.05643
-4.2492
-2.95079
-2.02825
-1.37998
-0.9294
-0.619617
-0.408925
-0.26716
-0.172787
-0.110627
-0.0701165
-0.0439927
-0.0273231
-0.0167976
-0.0102213
-0.0061557
-0.00366874
-0.00216361
-0.00126243
-0.000728686
-0.000416016
-0.000234878
-0.000131117
-7.2356e-05
-3.94648e-05
-2.12704e-05
-1.13264e-05
-5.9576e-06
-3.09483e-06
-1.58748e-06
-8.03919e-07
-4.01898e-07
-1.98304e-07
-9.65377e-08
-4.63645e-08
-2.19995e-08
-1.03242e-08
-4.78122e-09
-2.16011e-09
-9.70294e-10
-4.68683e-10
-2.59038e-10
-1876.28
-1855.77
-1815.45
-1756.6
-1681.1
-1591.29
-1489.86
-1379.69
-1263.77
-1144.99
-1026.12
-909.61
-797.597
-691.815
-593.585
-503.814
-423.021
-351.371
-288.732
-234.723
-188.783
-150.22
-118.266
-92.1243
-71.004
-54.1501
-40.8636
-30.5148
-22.5493
-16.49
-11.9341
-8.54774
-6.05932
-4.25128
-2.95227
-2.02929
-1.3807
-0.929898
-0.619955
-0.409152
-0.26731
-0.172885
-0.11069
-0.0701569
-0.0440182
-0.027339
-0.0168074
-0.0102273
-0.00615929
-0.00367088
-0.00216486
-0.00126316
-0.000729105
-0.000416254
-0.000235011
-0.000131191
-7.23966e-05
-3.94868e-05
-2.12823e-05
-1.13327e-05
-5.96086e-06
-3.09652e-06
-1.58835e-06
-8.04369e-07
-4.02118e-07
-1.98414e-07
-9.65761e-08
-4.63842e-08
-2.20215e-08
-1.03385e-08
-4.77134e-09
-2.14584e-09
-9.86758e-10
-4.73073e-10
-2.49159e-10
-1876.16
-1855.66
-1815.34
-1756.5
-1681.02
-1591.23
-1489.82
-1379.67
-1263.76
-1145.01
-1026.14
-909.646
-797.641
-691.865
-593.637
-503.867
-423.072
-351.419
-288.775
-234.763
-188.818
-150.25
-118.291
-92.1452
-71.0211
-54.1638
-40.8745
-30.5233
-22.5559
-16.495
-11.9378
-8.55052
-6.06135
-4.25275
-2.95331
-2.03003
-1.38122
-0.930249
-0.620193
-0.409311
-0.267416
-0.172954
-0.110735
-0.0701855
-0.0440363
-0.0273502
-0.0168143
-0.0102315
-0.00616182
-0.00367238
-0.00216575
-0.00126367
-0.000729398
-0.00041642
-0.000235104
-0.000131242
-7.24248e-05
-3.9502e-05
-2.12904e-05
-1.1337e-05
-5.96314e-06
-3.09767e-06
-1.58893e-06
-8.04671e-07
-4.02274e-07
-1.98487e-07
-9.6631e-08
-4.64237e-08
-2.19963e-08
-1.03044e-08
-4.76476e-09
-2.15682e-09
-9.94441e-10
-4.76366e-10
-2.51354e-10
-1876.07
-1855.58
-1815.27
-1756.44
-1680.97
-1591.19
-1489.79
-1379.66
-1263.76
-1145.01
-1026.16
-909.67
-797.671
-691.898
-593.672
-503.902
-423.106
-351.452
-288.805
-234.79
-188.841
-150.27
-118.308
-92.1596
-71.0329
-54.1733
-40.8821
-30.5292
-22.5604
-16.4985
-11.9404
-8.55245
-6.06276
-4.25377
-2.95404
-2.03054
-1.38157
-0.930495
-0.62036
-0.409423
-0.26749
-0.173002
-0.110766
-0.0702056
-0.0440489
-0.0273581
-0.0168192
-0.0102345
-0.00616359
-0.00367343
-0.00216636
-0.00126403
-0.000729602
-0.000416535
-0.000235168
-0.000131278
-7.24442e-05
-3.95125e-05
-2.1296e-05
-1.13399e-05
-5.96466e-06
-3.09848e-06
-1.58934e-06
-8.04863e-07
-4.02372e-07
-1.98535e-07
-9.6643e-08
-4.64259e-08
-2.20116e-08
-1.03121e-08
-4.76915e-09
-2.18426e-09
-9.93344e-10
-4.29168e-10
-2.56842e-10
-1876.02
-1855.53
-1815.22
-1756.4
-1680.93
-1591.17
-1489.77
-1379.65
-1263.76
-1145.02
-1026.17
-909.686
-797.691
-691.92
-593.696
-503.926
-423.129
-351.473
-288.825
-234.808
-188.857
-150.284
-118.32
-92.1694
-71.0409
-54.1798
-40.8872
-30.5332
-22.5636
-16.5009
-11.9422
-8.55378
-6.06373
-4.25447
-2.95454
-2.0309
-1.38182
-0.930665
-0.620476
-0.409501
-0.267541
-0.173036
-0.110788
-0.0702195
-0.0440577
-0.0273636
-0.0168225
-0.0102365
-0.00616481
-0.00367415
-0.00216678
-0.00126427
-0.000729741
-0.000416614
-0.000235212
-0.000131302
-7.24573e-05
-3.95196e-05
-2.12997e-05
-1.13419e-05
-5.96571e-06
-3.09901e-06
-1.58964e-06
-8.05017e-07
-4.02427e-07
-1.98557e-07
-9.66419e-08
-4.64128e-08
-2.20259e-08
-1.03253e-08
-4.76586e-09
-2.17987e-09
-1.00322e-09
-4.51121e-10
-2.21719e-10
-1875.98
-1855.49
-1815.19
-1756.37
-1680.91
-1591.15
-1489.76
-1379.64
-1263.76
-1145.02
-1026.18
-909.697
-797.704
-691.935
-593.711
-503.941
-423.144
-351.488
-288.839
-234.82
-188.868
-150.293
-118.328
-92.176
-71.0463
-54.1842
-40.8907
-30.536
-22.5657
-16.5025
-11.9434
-8.55468
-6.06439
-4.25495
-2.95489
-2.03114
-1.38199
-0.930781
-0.620555
-0.409554
-0.267576
-0.173059
-0.110803
-0.070229
-0.0440637
-0.0273673
-0.0168248
-0.0102379
-0.00616564
-0.00367465
-0.00216707
-0.00126444
-0.000729836
-0.000416667
-0.000235242
-0.000131318
-7.24661e-05
-3.95242e-05
-2.13022e-05
-1.13432e-05
-5.96638e-06
-3.09937e-06
-1.58983e-06
-8.05101e-07
-4.02458e-07
-1.98585e-07
-9.66672e-08
-4.64248e-08
-2.20193e-08
-1.03275e-08
-4.77793e-09
-2.17767e-09
-9.88953e-10
-4.74171e-10
-2.18426e-10
-1875.96
-1855.47
-1815.17
-1756.35
-1680.9
-1591.14
-1489.75
-1379.64
-1263.75
-1145.02
-1026.18
-909.703
-797.712
-691.944
-593.721
-503.952
-423.155
-351.498
-288.848
-234.828
-188.875
-150.299
-118.333
-92.1804
-71.0499
-54.1871
-40.893
-30.5378
-22.5671
-16.5036
-11.9443
-8.55529
-6.06484
-4.25528
-2.95512
-2.0313
-1.3821
-0.93086
-0.620608
-0.40959
-0.2676
-0.173075
-0.110813
-0.0702354
-0.0440678
-0.0273698
-0.0168264
-0.0102388
-0.00616621
-0.00367498
-0.00216727
-0.00126455
-0.000729899
-0.000416702
-0.000235262
-0.000131329
-7.2472e-05
-3.95274e-05
-2.13039e-05
-1.13441e-05
-5.96683e-06
-3.09961e-06
-1.58994e-06
-8.05157e-07
-4.0248e-07
-1.98588e-07
-9.66749e-08
-4.64424e-08
-2.20215e-08
-1.03e-08
-4.75159e-09
-2.20292e-09
-1.02298e-09
-4.66487e-10
-2.16231e-10
-1875.94
-1855.46
-1815.15
-1756.34
-1680.89
-1591.13
-1489.75
-1379.63
-1263.75
-1145.03
-1026.19
-909.708
-797.718
-691.951
-593.728
-503.959
-423.161
-351.504
-288.854
-234.833
-188.88
-150.303
-118.337
-92.1833
-71.0523
-54.189
-40.8946
-30.539
-22.568
-16.5043
-11.9448
-8.5557
-6.06514
-4.25549
-2.95527
-2.03141
-1.38218
-0.930912
-0.620644
-0.409614
-0.267616
-0.173085
-0.11082
-0.0702397
-0.0440705
-0.0273715
-0.0168274
-0.0102394
-0.00616658
-0.0036752
-0.00216739
-0.00126462
-0.000729941
-0.000416726
-0.000235275
-0.000131336
-7.24758e-05
-3.95294e-05
-2.1305e-05
-1.13446e-05
-5.96711e-06
-3.09973e-06
-1.59001e-06
-8.0523e-07
-4.02518e-07
-1.98571e-07
-9.66825e-08
-4.64611e-08
-2.20226e-08
-1.03143e-08
-4.75488e-09
-2.18645e-09
-1.03176e-09
-4.6539e-10
-2.0745e-10
-1875.93
-1855.45
-1815.14
-1756.33
-1680.88
-1591.12
-1489.74
-1379.63
-1263.75
-1145.03
-1026.19
-909.711
-797.721
-691.955
-593.732
-503.963
-423.166
-351.508
-288.858
-234.837
-188.883
-150.306
-118.339
-92.1852
-71.0539
-54.1903
-40.8956
-30.5398
-22.5687
-16.5048
-11.9452
-8.55596
-6.06533
-4.25564
-2.95538
-2.03148
-1.38223
-0.930947
-0.620668
-0.40963
-0.267627
-0.173092
-0.110824
-0.0702426
-0.0440723
-0.0273726
-0.0168281
-0.0102399
-0.00616683
-0.00367535
-0.00216748
-0.00126467
-0.000729969
-0.000416741
-0.000235283
-0.00013134
-7.24783e-05
-3.95308e-05
-2.13057e-05
-1.1345e-05
-5.9673e-06
-3.09983e-06
-1.59005e-06
-8.05244e-07
-4.02536e-07
-1.98591e-07
-9.66617e-08
-4.64358e-08
-2.20292e-08
-1.03363e-08
-4.76915e-09
-2.18645e-09
-1.03286e-09
-4.52218e-10
-2.09645e-10
-1875.93
-1855.44
-1815.14
-1756.33
-1680.87
-1591.12
-1489.74
-1379.63
-1263.75
-1145.03
-1026.19