/*--------------------------------*- C++ -*----------------------------------*\
  =========                 |
  \\      /  F ield         | OpenFOAM: The Open Source CFD Toolbox
   \\    /   O peration     | Website:  https://openfoam.org
    \\  /    A nd           | Version:  10
     \\/     M anipulation  |
\*---------------------------------------------------------------------------*/
FoamFile
{
    format      ascii;
    class       volScalarField;
    location    "198";
    object      gradTx;
}
// * * * * * * * * * * * * * * * * * * * * * * * * * * * * * * * * * * * * * //

dimensions      [0 -1 0 1 0 0 0];

internalField   nonuniform List<scalar> 
11250
(
14283.7
8055.96
5231.66
3720.47
2796.75
2173.96
1724.11
1383.37
1116.83
903.811
731.24
590.321
474.818
380.091
302.544
239.289
187.952
146.541
113.369
86.9992
66.2078
49.9551
37.3633
27.6974
20.3472
14.8112
10.6821
7.63257
5.40259
3.78814
2.63101
1.80999
1.2333
0.832313
0.556316
0.368264
0.241428
0.156745
0.100776
0.0641603
0.0404476
0.0252469
0.0156019
0.00954464
0.00577971
0.00346386
0.00205428
0.0012054
0.000699673
0.000401669
0.000228013
0.00012796
7.09771e-05
3.89035e-05
2.10663e-05
1.12673e-05
5.95104e-06
3.1032e-06
1.59732e-06
8.11438e-07
4.06735e-07
2.01157e-07
9.81555e-08
4.72382e-08
2.24441e-08
1.05163e-08
4.89098e-09
2.23475e-09
1.01091e-09
4.17095e-10
1.36105e-10
2.52452e-11
-4.39047e-12
0
-9.87856e-12
4079.69
4655.23
3922.91
3138.93
2503.08
2009.43
1624.27
1319.07
1073.54
873.705
709.794
574.777
463.411
371.651
296.266
234.608
184.458
143.936
111.432
85.5635
65.1484
49.1773
36.7957
27.2858
20.0507
14.5992
10.5317
7.52663
5.32859
3.73689
2.59581
1.78601
1.21712
0.821489
0.549139
0.363549
0.238359
0.154766
0.0995122
0.0633605
0.0399464
0.024936
0.0154109
0.00942857
0.0057099
0.00342232
0.00202983
0.00119117
0.000691489
0.000397018
0.000225402
0.000126513
7.01846e-05
3.84755e-05
2.08382e-05
1.11475e-05
5.8889e-06
3.07147e-06
1.58133e-06
8.0353e-07
4.02888e-07
1.99308e-07
9.7261e-08
4.6854e-08
2.22608e-08
1.0423e-08
4.80756e-09
2.20402e-09
9.92246e-10
4.33559e-10
1.60252e-10
6.36618e-11
2.85381e-11
2.19523e-12
0
1460.44
2565
2670.16
2415.12
2074.41
1744.72
1453.66
1204.87
994.684
817.897
669.546
545.34
441.665
355.477
284.188
225.571
177.698
138.886
107.669
82.7704
63.0848
47.6609
35.688
26.4818
19.4712
14.1846
10.2373
7.31925
5.18369
3.63647
2.52682
1.73902
1.18539
0.800257
0.535059
0.354296
0.232335
0.15088
0.0970295
0.0617893
0.0389618
0.024325
0.0150356
0.00920035
0.00557259
0.00334059
0.00198171
0.00116316
0.000675371
0.000387853
0.000220254
0.000123657
6.86208e-05
3.76302e-05
2.03875e-05
1.09104e-05
5.76595e-06
3.00863e-06
1.54968e-06
7.87804e-07
3.95208e-07
1.9561e-07
9.55026e-08
4.59726e-08
2.18173e-08
1.02342e-08
4.72634e-09
2.15462e-09
9.54927e-10
4.31364e-10
1.96474e-10
9.00046e-11
2.52452e-11
-1.09762e-12
8.78094e-12
658.402
1476.75
1781.83
1782.71
1641.75
1449.5
1249.76
1061.63
892.329
743.648
615.018
504.914
411.49
332.854
267.187
212.787
168.094
131.687
102.291
78.7693
60.123
45.4807
34.0932
25.323
18.6351
13.5858
9.81177
7.01929
4.97395
3.49106
2.42686
1.6709
1.13938
0.769454
0.514624
0.340864
0.223586
0.145235
0.0934218
0.0595056
0.0375302
0.0234363
0.0144895
0.00886824
0.00537269
0.00322156
0.00191161
0.00112233
0.000651868
0.000374482
0.000212739
0.000119485
6.63347e-05
3.63937e-05
1.97276e-05
1.0563e-05
5.5856e-06
2.91629e-06
1.50311e-06
7.64642e-07
3.83852e-07
1.90115e-07
9.28991e-08
4.47641e-08
2.12674e-08
9.96746e-09
4.59024e-09
2.07011e-09
9.1212e-10
4.06118e-10
1.72326e-10
8.34189e-11
1.86595e-11
1.20738e-11
-5.48809e-12
355.656
904.297
1201.81
1297.66
1267.17
1169.63
1042.92
908.803
778.925
659.013
551.503
457.035
375.284
305.43
246.409
197.06
156.216
122.744
95.5847
73.765
56.4088
42.7408
32.085
23.8614
17.5791
12.8286
9.27306
6.63915
4.70793
3.30647
2.29988
1.58432
1.08086
0.73026
0.488611
0.323756
0.21244
0.13804
0.0888217
0.0565926
0.0357033
0.022302
0.0137922
0.00844393
0.0051172
0.00306935
0.00182192
0.00107007
0.000621762
0.000357342
0.000203098
0.00011413
6.3397e-05
3.4803e-05
1.88777e-05
1.0115e-05
5.3527e-06
2.79689e-06
1.44276e-06
7.34588e-07
3.69101e-07
1.82999e-07
8.95085e-08
4.31847e-08
2.05386e-08
9.62062e-09
4.44206e-09
2.00754e-09
8.96753e-10
3.83069e-10
1.55862e-10
5.70761e-11
6.5857e-12
1.09762e-12
-1.09762e-12
216.392
585.367
827.355
944.232
966.16
926.453
851.763
760.579
664.704
571.212
484.066
405.257
335.555
274.982
223.119
179.295
142.712
112.523
87.8862
67.9984
52.1153
39.5647
29.7517
22.1597
16.3473
11.944
8.64291
6.19394
4.39604
3.08985
2.15074
1.48254
1.01202
0.684125
0.457972
0.303595
0.199297
0.129553
0.0833924
0.0531529
0.0335452
0.0209613
0.0129676
0.00794195
0.00481477
0.00288907
0.00171562
0.00100809
0.000586028
0.000336982
0.000191635
0.000107755
5.98963e-05
3.29052e-05
1.78623e-05
9.57895e-06
5.07358e-06
2.65359e-06
1.37021e-06
6.98361e-07
3.51288e-07
1.74366e-07
8.53881e-08
4.12298e-08
1.96441e-08
9.23316e-09
4.26754e-09
1.94608e-09
8.8468e-10
3.9624e-10
1.95376e-10
6.91499e-11
1.64643e-11
-1.20738e-11
0
141.704
395.692
581.708
690.757
732.925
725.352
684.94
625.403
556.75
485.796
416.91
352.712
294.611
243.206
198.56
160.401
128.247
101.509
79.5483
61.7259
47.4279
36.0863
27.1894
20.2865
14.9887
10.9665
7.9454
5.70044
4.04988
2.84915
1.98484
1.36922
0.935319
0.632677
0.42378
0.281082
0.184611
0.120063
0.0773188
0.0493028
0.0311283
0.019459
0.0120431
0.00737878
0.00447526
0.00268655
0.00159611
0.000938342
0.000545785
0.000314028
0.000178699
0.000100552
5.59354e-05
3.07548e-05
1.67099e-05
8.96953e-06
4.75565e-06
2.48999e-06
1.28719e-06
6.56826e-07
3.3081e-07
1.64397e-07
8.05992e-08
3.89907e-08
1.86299e-08
8.78204e-09
4.06887e-09
1.86485e-09
8.56142e-10
4.03923e-10
2.20621e-10
9.54927e-11
3.62214e-11
-7.68332e-12
0
97.1504
276.108
416.482
508.837
555.176
563.723
544.569
507.15
459.182
406.473
353.124
301.861
254.368
211.568
173.845
141.212
113.445
90.1646
70.9135
55.1995
42.5309
32.4397
24.4949
18.3114
13.5527
9.93121
7.20536
5.176
3.68147
2.59264
1.80785
1.2482
0.853318
0.577627
0.387164
0.256954
0.168861
0.109879
0.0707963
0.0451655
0.0285295
0.0178425
0.0110477
0.00677201
0.00410919
0.00246801
0.00146704
0.000862947
0.000502236
0.000289162
0.000164666
9.2728e-05
5.16265e-05
2.84115e-05
1.54519e-05
8.30299e-06
4.40717e-06
2.31026e-06
1.19575e-06
6.10985e-07
3.08134e-07
1.53345e-07
7.52735e-08
3.64705e-08
1.74181e-08
8.21018e-09
3.83727e-09
1.76058e-09
8.03456e-10
3.65507e-10
1.77814e-10
9.32975e-11
5.48809e-11
1.31714e-11
4.39047e-12
68.601
197.067
302.469
377.254
420.529
435.926
429.235
406.663
373.828
335.334
294.698
254.443
216.271
181.231
149.886
122.44
98.8491
78.9034
62.2919
48.6504
37.5957
28.7506
21.7601
16.3009
12.0873
8.87233
6.44691
4.63754
3.30261
2.32848
1.62533
1.12325
0.768565
0.520672
0.349247
0.231947
0.152524
0.0993079
0.0640208
0.0408647
0.025826
0.0161598
0.0100107
0.0061394
0.00372722
0.00223979
0.00133212
0.000784053
0.000456613
0.000263078
0.000149926
8.44973e-05
4.70861e-05
2.59379e-05
1.41212e-05
7.59644e-06
4.0369e-06
2.11882e-06
1.09812e-06
5.61871e-07
2.83759e-07
1.41437e-07
6.95604e-08
3.37298e-08
1.61207e-08
7.59881e-09
3.55518e-09
1.63765e-09
7.34306e-10
3.18309e-10
1.51471e-10
9.43951e-11
5.70761e-11
3.51238e-11
3.29285e-12
49.3912
142.883
221.989
281.13
318.614
335.82
335.971
323.036
300.961
273.232
242.696
211.527
181.289
153.028
127.374
104.639
84.8984
68.0658
53.9453
42.2773
32.7714
25.1302
19.0668
14.3149
10.6358
7.82093
5.69219
4.10069
2.92422
2.06423
1.4425
0.997918
0.683454
0.463415
0.31109
0.206759
0.136055
0.0886415
0.057179
0.0365184
0.0230918
0.0144566
0.00896032
0.00549807
0.00333964
0.00200799
0.00119495
0.000703752
0.00041012
0.000236461
0.000134863
7.60723e-05
4.24304e-05
2.33966e-05
1.27513e-05
6.86734e-06
3.65386e-06
1.92024e-06
9.96546e-07
5.10602e-07
2.58252e-07
1.2891e-07
6.35125e-08
3.08573e-08
1.47915e-08
6.98194e-09
3.25005e-09
1.50264e-09
6.71742e-10
3.02942e-10
1.53666e-10
6.36618e-11
1.86595e-11
2.63428e-11
1.09762e-12
36.0174
104.704
164.111
210.231
241.362
257.833
261.386
254.512
239.92
220.17
197.477
173.629
149.978
127.485
106.776
88.2037
71.9176
57.9127
46.079
36.2395
28.1797
21.6703
16.4836
12.404
9.23521
6.80382
4.96041
3.57909
2.55591
1.80659
1.26396
0.875364
0.600123
0.40729
0.273647
0.182018
0.119862
0.0781449
0.0504403
0.032234
0.0203943
0.0127749
0.00792228
0.00486374
0.00295594
0.00177827
0.00105887
0.000623994
0.000363883
0.000209953
0.000119838
6.76546e-05
3.77701e-05
2.08476e-05
1.13743e-05
6.13279e-06
3.26702e-06
1.71915e-06
8.9339e-07
4.58397e-07
2.32199e-07
1.16092e-07
5.72715e-08
2.78938e-08
1.34129e-08
6.34313e-09
2.93174e-09
1.35446e-09
6.15763e-10
2.87576e-10
1.21836e-10
3.07333e-11
8.78094e-12
-1.4269e-11
-4.39047e-12
26.4795
77.2505
121.879
157.51
182.688
197.291
202.226
199.036
189.552
175.619
158.912
140.85
122.557
104.868
88.3568
73.381
60.1211
48.6239
38.8397
30.6537
23.912
18.4414
14.064
10.6082
7.91511
5.84266
4.26725
3.08396
2.2056
1.56111
1.09358
0.75824
0.520378
0.353513
0.23773
0.158259
0.104297
0.0680458
0.043951
0.0281046
0.0177922
0.0111512
0.00691914
0.00425017
0.00258444
0.00155564
0.00092683
0.000546514
0.000318906
0.000184131
0.000105179
5.94276e-05
3.32068e-05
1.83465e-05
1.00202e-05
5.40872e-06
2.88475e-06
1.51991e-06
7.90897e-07
4.06388e-07
2.0615e-07
1.03218e-07
5.10195e-08
2.48863e-08
1.19618e-08
5.67249e-09
2.64526e-09
1.21836e-09
5.60883e-10
2.55745e-10
8.45165e-11
2.52452e-11
2.19524e-12
-2.63428e-11
1.09762e-12
19.5605
57.2179
90.7281
118.06
138.053
150.42
155.606
154.562
148.511
138.762
126.56
113.003
98.9942
85.2319
72.2193
60.2877
49.6247
40.3051
32.3187
25.5962
20.0302
15.4922
11.8459
8.95649
6.69732
4.95359
3.62452
2.62385
1.87942
1.33212
0.934385
0.648635
0.445647
0.303054
0.203988
0.135914
0.0896427
0.0585285
0.0378296
0.0242057
0.0153331
0.00961548
0.00596948
0.00366876
0.00223206
0.00134424
0.000801318
0.000472774
0.000276044
0.000159487
9.11661e-05
5.15499e-05
2.88291e-05
1.59424e-05
8.71568e-06
4.70953e-06
2.51468e-06
1.3265e-06
6.9114e-07
3.55583e-07
1.80617e-07
9.05567e-08
4.48245e-08
2.18964e-08
1.05448e-08
5.02928e-09
2.37415e-09
1.07567e-09
4.97221e-10
2.12938e-10
6.5857e-11
5.48809e-12
-3.29285e-12
1.31714e-11
6.58571e-12
14.4819
42.4496
67.5756
88.4141
104.069
114.226
119.079
119.209
115.429
108.659
99.8097
89.7148
79.0835
68.4827
58.3364
48.9367
40.462
32.9979
26.5587
21.1064
16.5685
12.8514
9.85243
7.46716
5.59595
4.14734
3.04023
2.20462
1.58162
1.12266
0.78852
0.548052
0.376969
0.256619
0.1729
0.115303
0.0761109
0.049731
0.0321658
0.0205949
0.0130537
0.00819059
0.00508756
0.00312832
0.00190419
0.00114735
0.000684286
0.000403934
0.000235978
0.000136418
7.80288e-05
4.41519e-05
2.47104e-05
1.3676e-05
7.4833e-06
4.04751e-06
2.16343e-06
1.14248e-06
5.95973e-07
3.06995e-07
1.56124e-07
7.83918e-08
3.88546e-08
1.90272e-08
9.20243e-09
4.38827e-09
2.05364e-09
9.37365e-10
4.11607e-10
1.59155e-10
5.92713e-11
3.95142e-11
3.07333e-11
3.84166e-11
0
10.725
31.4887
50.2841
66.0803
78.201
86.3564
90.6132
91.3212
89.0209
84.3519
77.975
70.5129
62.5121
54.4221
46.5898
39.2632
32.6022
26.6927
21.5617
17.1925
13.5374
10.53
8.0937
6.14888
4.61816
3.42961
2.51879
1.82966
1.31471
0.934578
0.657308
0.457428
0.315
0.214664
0.144774
0.0966344
0.0638409
0.0417456
0.0270198
0.0173112
0.0109787
0.00689238
0.00428332
0.00263503
0.00160465
0.000967276
0.00057714
0.000340836
0.000199208
0.000115219
6.59381e-05
3.73323e-05
2.09071e-05
1.15792e-05
6.34087e-06
3.43249e-06
1.83634e-06
9.70713e-07
5.06907e-07
2.61431e-07
1.33121e-07
6.69173e-08
3.32128e-08
1.62722e-08
7.88638e-09
3.75605e-09
1.76168e-09
8.1992e-10
3.55628e-10
1.55862e-10
6.91499e-11
4.93928e-11
2.85381e-11
3.18309e-11
2.19524e-12
7.93289
23.3215
37.3364
49.242
58.5341
64.9683
68.548
69.4824
68.1287
64.9307
60.3624
54.8841
48.91
42.7901
36.8015
31.1486
25.9687
21.3414
17.2991
13.838
10.9287
8.52427
6.56873
5.00212
3.76508
2.80174
2.06151
1.50008
1.07962
0.768601
0.541315
0.377187
0.260048
0.177407
0.119767
0.0800158
0.0529062
0.0346218
0.0224245
0.014376
0.00912243
0.00572992
0.00356254
0.00219254
0.0013357
0.000805448
0.000480751
0.000284011
0.000166056
9.60804e-05
5.50083e-05
3.11583e-05
1.74583e-05
9.67457e-06
5.30121e-06
2.87165e-06
1.53747e-06
8.13394e-07
4.25119e-07
2.19452e-07
1.11871e-07
5.63012e-08
2.79596e-08
1.36884e-08
6.634e-09
3.17541e-09
1.50813e-09
6.93694e-10
3.30383e-10
1.58057e-10
7.57356e-11
3.40261e-11
1.4269e-11
1.53666e-11
1.31714e-11
5.85311
17.2257
27.6348
36.5554
43.6152
48.6179
51.5386
52.5013
51.7415
49.5656
46.3115
42.3157
37.8885
33.2978
28.7606
24.4414
20.4543
16.8695
13.7197
11.0088
8.71932
6.81925
5.26797
4.02088
3.03302
2.26149
1.6671
1.21517
0.875969
0.624547
0.440467
0.307308
0.212121
0.144869
0.0978984
0.0654653
0.0433216
0.0283711
0.0183884
0.0117957
0.00748905
0.00470619
0.00292725
0.0018022
0.00109825
0.000662446
0.000395498
0.000233703
0.000136674
7.90996e-05
4.52986e-05
2.56663e-05
1.4386e-05
7.97521e-06
4.372e-06
2.36954e-06
1.26938e-06
6.71988e-07
3.51436e-07
1.81542e-07
9.26005e-08
4.66411e-08
2.31938e-08
1.13713e-08
5.49906e-09
2.6244e-09
1.24799e-09
5.82835e-10
2.73307e-10
1.07567e-10
4.82952e-11
4.28071e-11
1.97571e-11
-2.19523e-12
2.19523e-12
4.30357
12.6767
20.3721
27.0153
32.3338
36.1743
38.5027
39.3911
38.9946
37.5241
35.2189
32.3229
29.066
25.6503
22.2431
18.974
15.9355
13.1868
10.7585
8.65835
6.87673
5.39216
4.17561
3.19433
2.41462
1.80395
1.33225
0.972759
0.702339
0.501494
0.35417
0.247415
0.170981
0.116899
0.0790762
0.052927
0.0350533
0.0229732
0.0148996
0.00956319
0.00607469
0.00381901
0.00237626
0.0014634
0.000891991
0.000538134
0.000321326
0.000189896
0.000111066
6.42854e-05
3.68188e-05
2.08642e-05
1.16963e-05
6.48544e-06
3.55621e-06
1.92802e-06
1.03323e-06
5.47205e-07
2.86315e-07
1.4799e-07
7.55304e-08
3.80522e-08
1.89273e-08
9.3056e-09
4.50243e-09
2.15353e-09
1.02957e-09
5.10392e-10
2.23914e-10
9.7688e-11
5.37833e-11
3.18309e-11
2.63428e-11
-6.5857e-12
-4.39047e-12
3.15063
9.28748
14.9472
19.863
23.8368
26.7515
28.5729
29.342
29.1607
28.1737
26.5496
24.4639
22.0851
19.5638
17.0273
14.5757
12.2824
10.1961
8.34345
6.7337
5.36234
4.21521
3.27186
2.50846
1.90008
1.42227
1.05227
0.769624
0.556549
0.397978
0.281448
0.196862
0.136205
0.0932237
0.0631233
0.0422874
0.0280294
0.0183831
0.0119301
0.0076614
0.00486885
0.00306206
0.00190582
0.00117392
0.000715646
0.000431777
0.000257825
0.000152365
8.91104e-05
5.15737e-05
2.95362e-05
1.67363e-05
9.38184e-06
5.20204e-06
2.8526e-06
1.54666e-06
8.28991e-07
4.39141e-07
2.29835e-07
1.18821e-07
6.0662e-08
3.05533e-08
1.5191e-08
7.47258e-09
3.60348e-09
1.73094e-09
8.14432e-10
3.83069e-10
1.94278e-10
9.87856e-11
6.80523e-11
4.39047e-12
4.39047e-12
0
-8.78094e-12
2.29507
6.76971
10.9085
14.5221
17.4672
19.6559
21.0578
21.6957
21.6362
20.9784
19.8405
18.3478
16.6226
14.7763
12.9038
11.0819
9.36747
7.79942
6.40035
5.17936
4.13504
3.25825
2.53478
1.9475
1.47812
1.10851
0.821577
0.601891
0.435928
0.312176
0.221066
0.154822
0.107242
0.0734787
0.0498021
0.0333927
0.0221511
0.0145379
0.00944029
0.0060655
0.00385621
0.00242594
0.00151022
0.000930362
0.000567187
0.000342192
0.000204308
0.000120718
7.05865e-05
4.08427e-05
2.33842e-05
1.32468e-05
7.42377e-06
4.11534e-06
2.25624e-06
1.22312e-06
6.55533e-07
3.47229e-07
1.8174e-07
9.39528e-08
4.79725e-08
2.41651e-08
1.20101e-08
5.8975e-09
2.84502e-09
1.35775e-09
6.3113e-10
2.98552e-10
1.44886e-10
7.68332e-11
2.08547e-11
-4.39047e-12
3.29285e-12
-1.20738e-11
-1.20738e-11
1.66254
4.90659
7.91472
10.5528
12.7178
14.3449
15.4087
15.9212
15.9261
15.491
14.6981
13.6366
12.3944
11.0528
9.68222
8.34021
7.07046
5.90335
4.85733
3.94071
3.15375
2.49074
1.9419
1.49505
1.13692
0.854182
0.634172
0.465349
0.337548
0.242067
0.171647
0.120359
0.083466
0.0572479
0.0388383
0.0260637
0.0173025
0.0113632
0.00738295
0.00474578
0.00301823
0.00189923
0.00118248
0.000728483
0.000444082
0.000267877
0.000159898
9.44471e-05
5.52037e-05
3.19279e-05
1.82714e-05
1.03454e-05
5.79486e-06
3.2108e-06
1.75949e-06
9.53418e-07
5.10777e-07
2.70458e-07
1.41537e-07
7.31562e-08
3.73497e-08
1.88384e-08
9.3528e-09
4.57377e-09
2.21609e-09
1.0603e-09
5.13685e-10
2.67819e-10
1.22933e-10
6.58571e-11
9.87856e-12
1.4269e-11
4.39047e-12
-1.75619e-11
7.68332e-12
1.19706
3.53447
5.70657
7.61873
9.19754
10.3954
11.1922
11.5939
11.629
11.3433
10.794
10.044
9.1559
8.18863
7.19378
6.214
5.28222
4.42182
3.64746
2.96627
2.37936
1.88327
1.47134
1.13501
0.864742
0.650842
0.484015
0.355725
0.258413
0.185575
0.13176
0.0925021
0.0642194
0.0440921
0.0299409
0.0201095
0.0133596
0.00877925
0.00570702
0.00366998
0.00233471
0.00146937
0.000914896
0.000563596
0.000343505
0.000207147
0.000123599
7.29708e-05
4.26267e-05
2.46382e-05
1.40901e-05
7.9721e-06
4.46221e-06
2.47058e-06
1.35286e-06
7.32559e-07
3.92189e-07
2.0754e-07
1.08529e-07
5.60696e-08
2.86061e-08
1.44183e-08
7.16086e-09
3.49811e-09
1.68704e-09
8.11139e-10
4.07216e-10
1.92083e-10
1.00981e-10
4.93928e-11
4.39047e-11
2.52452e-11
-1.53666e-11
1.09762e-12
-7.68332e-12
0.856338
2.52946
4.08716
5.46301
6.60494
7.47853
8.0682
8.37658
8.42223
8.23617
7.85792
7.33137
6.70107
6.00914
5.293
4.58392
3.9064
3.2781
2.71041
2.20923
1.77597
1.40861
1.1027
0.852249
0.650482
0.490419
0.365303
0.268889
0.195614
0.140667
0.100002
0.0702892
0.0488514
0.0335742
0.0228192
0.0153386
0.0101972
0.00670502
0.00436071
0.0028052
0.00178498
0.0011235
0.000699523
0.000430851
0.000262522
0.000158245
9.43695e-05
5.5678e-05
3.25005e-05
1.87696e-05
1.07243e-05
6.06194e-06
3.38971e-06
1.87488e-06
1.02564e-06
5.5485e-07
2.96767e-07
1.56918e-07
8.19876e-08
4.23351e-08
2.16e-08
1.08675e-08
5.39259e-09
2.63538e-09
1.27872e-09
6.22349e-10
2.73307e-10
1.05371e-10
5.04904e-11
4.06118e-11
2.305e-11
8.78094e-12
1.09762e-12
5.48809e-12
-9.87856e-12
0.608422
1.79779
2.90693
3.88942
4.7086
5.33978
5.77123
6.00382
6.04957
5.9294
5.67047
5.30329
4.8592
4.36812
3.85689
3.3482
2.86001
2.40549
1.99333
1.62822
1.31161
1.04236
0.817537
0.633
0.483976
0.365486
0.272669
0.201002
0.146431
0.105439
0.07505
0.0528118
0.0367435
0.0252772
0.0171951
0.0115671
0.00769497
0.00506249
0.00329388
0.00211956
0.00134892
0.000849064
0.000528589
0.000325485
0.000198241
0.000119432
7.1175e-05
4.19592e-05
2.44698e-05
1.41172e-05
8.057e-06
4.54884e-06
2.54046e-06
1.40339e-06
7.6674e-07
4.14283e-07
2.21301e-07
1.16873e-07
6.09902e-08
3.14533e-08
1.60318e-08
8.07188e-09
3.99972e-09
1.96144e-09
9.71391e-10
4.54414e-10
1.87693e-10
7.57356e-11
3.18309e-11
9.87856e-12
-2.19523e-12
-2.19524e-12
2.41476e-11
2.41476e-11
2.19524e-11
0.429204
1.26862
2.05254
2.74871
3.33149
3.78336
4.09563
4.2683
4.30914
4.23221
4.05603
3.80173
3.49115
3.14537
2.78346
2.4217
2.0731
1.74736
1.45097
1.18759
0.958524
0.763191
0.599662
0.465109
0.3562
0.269419
0.201302
0.148606
0.108407
0.078159
0.0556994
0.0392388
0.0273283
0.0188178
0.0128118
0.00862482
0.00574123
0.00377906
0.00245977
0.00158321
0.00100769
0.000634255
0.000394782
0.000243007
0.000147931
8.90629e-05
5.3033e-05
3.12339e-05
1.8195e-05
1.04842e-05
5.97564e-06
3.36897e-06
1.87873e-06
1.03627e-06
5.65304e-07
3.04942e-07
1.62664e-07
8.57733e-08
4.46895e-08
2.30247e-08
1.16984e-08
5.87774e-09
2.91966e-09
1.44227e-09
6.83816e-10
3.15016e-10
1.55862e-10
8.56142e-11
3.29285e-11
0
2.08547e-11
3.29285e-11
3.07333e-11
2.63428e-11
5.48809e-12
0.300544
0.888575
1.43842
1.92783
2.33896
2.65951
2.88314
3.0095
3.04358
2.99477
2.87567
2.70075
2.48517
2.24364
1.98958
1.73454
1.48786
1.25657
1.04546
0.857312
0.693222
0.552935
0.435203
0.338109
0.259349
0.196462
0.147004
0.108671
0.0793792
0.0573014
0.0408828
0.028832
0.0201004
0.0138534
0.00943946
0.00635909
0.00423553
0.00278928
0.00181614
0.00116918
0.000744203
0.000468362
0.000291446
0.00017932
0.000109095
6.563e-05
3.90427e-05
2.29686e-05
1.33632e-05
7.68919e-06
4.37586e-06
2.46301e-06
1.37117e-06
7.54944e-07
4.11092e-07
2.21343e-07
1.17857e-07
6.2045e-08
3.22908e-08
1.66059e-08
8.42751e-09
4.21924e-09
2.09864e-09
9.98832e-10
4.70878e-10
2.23914e-10
1.05371e-10
6.47594e-11
4.60999e-11
1.97571e-11
7.68332e-12
2.63428e-11
8.78094e-12
-4.39047e-12
5.48809e-12
0.208851
0.617629
1.00029
1.34157
1.62917
1.8545
2.01302
2.10426
2.13142
2.10075
2.02074
1.90129
1.75278
1.58542
1.40856
1.23033
1.05734
0.894633
0.745682
0.612572
0.496183
0.396436
0.312534
0.243189
0.186822
0.141727
0.106196
0.0786086
0.0574924
0.0415516
0.0296791
0.0209527
0.0146214
0.010086
0.00687779
0.00463649
0.0030899
0.00203572
0.00132588
0.000853698
0.000543393
0.000341926
0.000212697
0.0001308
7.95204e-05
4.77959e-05
2.84029e-05
1.66884e-05
9.69553e-06
5.56998e-06
3.16434e-06
1.77781e-06
9.87766e-07
5.42737e-07
2.94906e-07
1.58463e-07
8.41708e-08
4.42022e-08
2.29611e-08
1.17599e-08
5.96665e-09
2.97893e-09
1.45983e-09
6.84913e-10
3.38066e-10
1.58057e-10
6.25642e-11
2.96357e-11
1.86595e-11
0
-1.20738e-11
-2.305e-11
-4.39047e-12
1.86595e-11
2.08547e-11
0.144001
0.425942
0.690134
0.926175
1.12564
1.2826
1.39384
1.4589
1.47982
1.46073
1.40735
1.32635
1.22483
1.1098
0.987728
0.864259
0.744038
0.630627
0.526524
0.433256
0.351508
0.28129
0.222099
0.173078
0.133153
0.101153
0.0758944
0.0562505
0.0411902
0.0298038
0.0213111
0.0150603
0.0105193
0.00726245
0.00495608
0.00334317
0.00222917
0.00146923
0.000957175
0.000616368
0.00039231
0.000246804
0.000153464
9.43186e-05
5.72967e-05
3.44045e-05
2.04209e-05
1.1982e-05
6.95039e-06
3.98598e-06
2.26016e-06
1.26721e-06
7.02542e-07
3.85157e-07
2.08786e-07
1.11912e-07
5.92944e-08
3.10483e-08
1.60713e-08
8.21128e-09
4.13912e-09
2.0723e-09
1.01091e-09
5.12587e-10
2.38183e-10
9.43951e-11
3.95142e-11
1.64643e-11
9.87856e-12
8.78094e-12
-5.48809e-12
-3.29285e-11
-9.87856e-12
-1.09762e-12
-1.09762e-12
0.0984962
0.291399
0.47232
0.634219
0.771374
0.879716
0.957007
1.00284
1.01852
1.00677
0.97138
0.916858
0.848007
0.769589
0.68604
0.601255
0.518454
0.440133
0.368059
0.303333
0.246475
0.197533
0.156194
0.121891
0.0939016
0.0714287
0.0536608
0.0398202
0.029193
0.0211464
0.0151364
0.0107072
0.00748545
0.00517212
0.00353213
0.0023841
0.00159047
0.00104866
0.000683337
0.000440066
0.000280071
0.000176148
0.000109481
6.72428e-05
4.08139e-05
2.44813e-05
1.45125e-05
8.50264e-06
4.9238e-06
2.81847e-06
1.59487e-06
8.92186e-07
4.93472e-07
2.69851e-07
1.45911e-07
7.8e-08
4.1221e-08
2.15155e-08
1.10958e-08
5.64505e-09
2.82417e-09
1.41044e-09
6.94792e-10
3.57823e-10
1.62447e-10
5.81737e-11
2.08547e-11
2.19523e-11
6.5857e-12
1.4269e-11
-1.20738e-11
-9.87856e-12
-3.29285e-12
-2.74404e-11
-2.52452e-11
0.0668242
0.197732
0.320607
0.430719
0.52421
0.598317
0.651493
0.683416
0.694904
0.687738
0.664441
0.628013
0.581681
0.528662
0.471967
0.414256
0.357741
0.30415
0.254719
0.21023
0.171068
0.137291
0.108707
0.0849461
0.0655252
0.0499059
0.0375373
0.0278879
0.020468
0.0148421
0.0106345
0.0075297
0.00526862
0.00364325
0.00248976
0.00168152
0.0011223
0.000740231
0.000482456
0.000310715
0.000197725
0.00012432
7.72301e-05
4.74017e-05
2.8745e-05
1.72226e-05
1.01959e-05
5.96424e-06
3.44767e-06
1.96956e-06
1.11206e-06
6.206e-07
3.42368e-07
1.86718e-07
1.00693e-07
5.36768e-08
2.82834e-08
1.47037e-08
7.55929e-09
3.82849e-09
1.89998e-09
9.25292e-10
4.58804e-10
2.19524e-10
9.7688e-11
3.7319e-11
1.09762e-11
-8.78094e-12
-2.96357e-11
4.39047e-12
2.19523e-12
2.63428e-11
3.29285e-12
1.09762e-12
-1.31714e-11
0.0449625
0.133064
0.215819
0.290073
0.353244
0.403473
0.439702
0.461686
0.469937
0.465617
0.450384
0.426227
0.395296
0.359747
0.321603
0.282666
0.24444
0.208108
0.174524
0.144236
0.117524
0.0944425
0.0748756
0.0585826
0.0452442
0.0345002
0.0259796
0.0193226
0.0141967
0.0103051
0.00739083
0.00523776
0.00366799
0.00253834
0.00173584
0.001173
0.000783256
0.000516778
0.00033688
0.000216966
0.000138048
8.67698e-05
5.38752e-05
3.3043e-05
2.00188e-05
1.19803e-05
7.08243e-06
4.13625e-06
2.38652e-06
1.3605e-06
7.66387e-07
4.26631e-07
2.34716e-07
1.27668e-07
6.86329e-08
3.64749e-08
1.91622e-08
9.92795e-09
5.07977e-09
2.56842e-09
1.27872e-09
6.21252e-10
2.90869e-10
1.29519e-10
5.92713e-11
7.68332e-12
1.09762e-12
-1.97571e-11
-1.75619e-11
-4.39047e-12
1.09762e-11
-2.19524e-12
-2.96357e-11
-1.09762e-12
2.305e-11
0.0299999
0.0887954
0.144058
0.193701
0.23601
0.269744
0.294188
0.309161
0.314985
0.312408
0.302516
0.286618
0.266134
0.242496
0.217054
0.191015
0.165393
0.140988
0.118385
0.097962
0.0799182
0.0643007
0.0510396
0.0399802
0.0309127
0.0235983
0.0177894
0.0132451
0.0097413
0.00707786
0.00508096
0.00360393
0.00252586
0.00174923
0.00119698
0.000809314
0.000540645
0.000356819
0.000232645
0.000149837
9.53212e-05
5.98937e-05
3.7168e-05
2.27791e-05
1.37871e-05
8.24109e-06
4.86494e-06
2.83644e-06
1.63344e-06
9.29172e-07
5.22164e-07
2.89952e-07
1.59083e-07
8.6264e-08
4.62108e-08
2.449e-08
1.28257e-08
6.64278e-09
3.39274e-09
1.72436e-09
8.60532e-10
4.28071e-10
1.92083e-10
5.59785e-11
1.4269e-11
-7.68332e-12
-9.87856e-12
2.19523e-12
1.4269e-11
-1.4269e-11
-8.78094e-12
-1.97571e-11
-2.85381e-11
-2.19523e-11
3.29285e-12
0.0198472
0.058752
0.0953404
0.128241
0.156327
0.178776
0.195109
0.205197
0.209241
0.207721
0.201341
0.190958
0.177501
0.161915
0.145091
0.127832
0.110813
0.0945716
0.0795017
0.0658625
0.0537924
0.0433291
0.0344312
0.0269999
0.0208987
0.0159705
0.0120515
0.00898186
0.00661222
0.00480878
0.00345512
0.00245277
0.00172039
0.00119227
0.000816369
0.000552264
0.000369085
0.000243666
0.000158896
0.000102339
6.50946e-05
4.08873e-05
2.53596e-05
1.55304e-05
9.39074e-06
5.60643e-06
3.30487e-06
1.92358e-06
1.10559e-06
6.27545e-07
3.51817e-07
1.94836e-07
1.06591e-07
5.75964e-08
3.07717e-08
1.62403e-08
8.46153e-09
4.38059e-09
2.26219e-09
1.15579e-09
5.89421e-10
2.94161e-10
1.44886e-10
4.82952e-11
1.75619e-11
1.97571e-11
5.48809e-12
1.20738e-11
1.20738e-11
8.78094e-12
-5.48809e-12
1.09762e-12
4.39047e-12
5.48809e-12
-2.305e-11
0.013018
0.0385404
0.0625555
0.0841702
0.102647
0.117449
0.128257
0.134982
0.137747
0.13686
0.132774
0.126044
0.117275
0.107084
0.0960564
0.084718
0.0735162
0.0628073
0.0528547
0.043833
0.0358373
0.0288963
0.0229857
0.0180429
0.0139795
0.0106933
0.00807705
0.00602534
0.00443974
0.00323167
0.00232392
0.00165106
0.00115893
0.000803715
0.000550656
0.000372706
0.000249189
0.000164561
0.000107329
6.91276e-05
4.39632e-05
2.76051e-05
1.71125e-05
1.04721e-05
6.32605e-06
3.77225e-06
2.22045e-06
1.29023e-06
7.40108e-07
4.19185e-07
2.3444e-07
1.29477e-07
7.06372e-08
3.80467e-08
2.02631e-08
1.06271e-08
5.52321e-09
2.8549e-09
1.46642e-09
7.35404e-10
3.83069e-10
1.844e-10
8.8907e-11
4.28071e-11
3.07333e-11
3.07333e-11
1.64643e-11
1.53666e-11
0
1.4269e-11
2.41476e-11
2.74404e-11
7.68332e-12
1.20738e-11
-4.39047e-12
0.00846488
0.0250632
0.0406883
0.0547629
0.0668097
0.0764787
0.0835618
0.0879972
0.0898606
0.0893475
0.0867485
0.0824196
0.0767525
0.0701456
0.0629794
0.0555972
0.0482914
0.041296
0.0347852
0.028875
0.0236302
0.0190713
0.0151845
0.0119301
0.0092518
0.00708334
0.00535503
0.00399824
0.00294859
0.00214805
0.00154592
0.00109916
0.00077209
0.000535796
0.000367313
0.00024874
0.000166374
0.000109904
7.16933e-05
4.6177e-05
2.93633e-05
1.84318e-05
1.14201e-05
6.98367e-06
4.2148e-06
2.51039e-06
1.47559e-06
8.56014e-07
4.90093e-07
2.76964e-07
1.54535e-07
8.51356e-08
4.63304e-08
2.49104e-08
1.3212e-08
6.93475e-09
3.60238e-09
1.85936e-09
9.3078e-10
4.60999e-10
2.33793e-10
1.1964e-10
7.35404e-11
4.71976e-11
2.19523e-12
1.20738e-11
2.96357e-11
2.19523e-12
-5.48809e-12
-6.5857e-12
1.09762e-11
2.08547e-11
5.48809e-12
-1.64643e-11
4.39047e-12
0.00545625
0.0161565
0.0262333
0.0353166
0.0430999
0.0493573
0.0539542
0.0568486
0.0580869
0.0577927
0.0561504
0.0533874
0.0497545
0.0455075
0.0408914
0.0361281
0.0314068
0.0268799
0.022661
0.0188267
0.01542
0.0124555
0.00992524
0.00780453
0.0060574
0.00464144
0.0035118
0.00262413
0.00193676
0.00141202
0.00101698
0.000723607
0.000508639
0.000353199
0.000242274
0.000164148
0.000109839
7.25801e-05
4.73544e-05
3.05018e-05
1.93935e-05
1.21701e-05
7.53688e-06
4.60586e-06
2.77726e-06
1.65231e-06
9.69886e-07
5.61721e-07
3.21032e-07
1.8104e-07
1.00782e-07
5.53891e-08
3.00495e-08
1.61031e-08
8.50324e-09
4.46291e-09
2.32146e-09
1.1964e-09
6.11373e-10
3.06235e-10
1.50374e-10
8.45165e-11
5.48809e-11
3.62214e-11
5.48809e-12
-4.39047e-12
7.68332e-12
1.09762e-11
1.86595e-11
5.48809e-12
-1.20738e-11
-8.78094e-12
-4.39047e-12
-2.63428e-11
0
0.00348602
0.0103232
0.0167643
0.0225738
0.0275565
0.0315682
0.0345224
0.0363912
0.037203
0.0370352
0.0360042
0.0342542
0.0319443
0.0292375
0.0262902
0.0232443
0.0202213
0.0173193
0.0146117
0.0121483
0.00995733
0.00804895
0.00641859
0.00505085
0.00392304
0.00300821
0.00227774
0.00170325
0.00125801
0.000917837
0.000661522
0.000471012
0.000331303
0.000230199
0.000157992
0.000107098
7.16935e-05
4.7389e-05
3.09247e-05
1.99205e-05
1.26646e-05
7.94551e-06
4.91845e-06
3.00382e-06
1.80975e-06
1.07554e-06
6.30501e-07
3.64601e-07
2.08001e-07
1.17072e-07
6.49998e-08
3.56298e-08
1.92599e-08
1.02704e-08
5.40357e-09
2.79892e-09
1.45764e-09
7.55161e-10
3.92947e-10
1.99766e-10
8.8907e-11
2.96357e-11
1.97571e-11
-1.09762e-12
9.87856e-12
-1.64643e-11
-1.4269e-11
6.5857e-12
3.62214e-11
3.40261e-11
9.87856e-12
-7.68332e-12
3.29285e-12
4.39047e-12
-7.68332e-12
0.00220748
0.00653743
0.0106177
0.0142997
0.0174602
0.020008
0.0218877
0.0230815
0.0236065
0.023511
0.022868
0.021768
0.0203113
0.0186009
0.0167357
0.0148056
0.012888
0.0110452
0.00932421
0.00775706
0.00636206
0.00514597
0.00410621
0.00323328
0.00251292
0.00192817
0.00146091
0.00109316
0.00080794
0.000589858
0.000425414
0.000303096
0.000213326
0.000148313
0.000101848
6.90727e-05
4.6258e-05
3.05861e-05
1.9964e-05
1.28611e-05
8.17617e-06
5.12847e-06
3.17343e-06
1.93697e-06
1.16608e-06
6.92308e-07
4.05363e-07
2.34084e-07
1.33296e-07
7.48861e-08
4.14669e-08
2.26548e-08
1.22209e-08
6.49241e-09
3.42018e-09
1.77814e-09
9.19803e-10
4.90635e-10
2.52452e-10
1.35007e-10
5.59785e-11
2.305e-11
8.78094e-12
-1.4269e-11
-2.19523e-11
-3.40261e-11
-2.08547e-11
-6.5857e-12
8.78094e-12
1.75619e-11
1.86595e-11
-7.68332e-12
1.53666e-11
2.19523e-11
1.09762e-12
0.00138535
0.0041029
0.00666432
0.00897668
0.0109628
0.0125653
0.0137496
0.014504
0.014839
0.0147845
0.0143859
0.0136997
0.0127886
0.0117171
0.0105472
0.00933531
0.00813017
0.00697114
0.00588792
0.0049008
0.00402152
0.0032545
0.00259828
0.002047
0.0015918