/*--------------------------------*- C++ -*----------------------------------*\
  =========                 |
  \\      /  F ield         | OpenFOAM: The Open Source CFD Toolbox
   \\    /   O peration     | Website:  https://openfoam.org
    \\  /    A nd           | Version:  10
     \\/     M anipulation  |
\*---------------------------------------------------------------------------*/
FoamFile
{
    format      ascii;
    class       volScalarField;
    location    "88";
    object      gradTx;
}
// * * * * * * * * * * * * * * * * * * * * * * * * * * * * * * * * * * * * * //

dimensions      [0 -1 0 1 0 0 0];

internalField   nonuniform List<scalar> 
11250
(
14233.2
7907.2
4992.72
3403.97
2418.65
1752.21
1277.17
928.877
670.466
478.555
336.922
233.555
159.2
106.606
70.0799
45.2022
28.5967
17.7399
10.7892
6.43254
3.75937
2.15369
1.2095
0.665896
0.359443
0.19025
0.098752
0.0502758
0.0251091
0.0123037
0.0059163
0.00279223
0.00129366
0.000588492
0.000262904
0.000115365
4.9734e-05
2.10681e-05
8.77147e-06
3.58987e-06
1.44455e-06
5.7165e-07
2.22467e-07
8.51554e-08
3.20515e-08
1.18872e-08
4.33449e-09
1.55203e-09
5.6198e-10
1.86595e-10
5.70761e-11
0
1.4269e-11
0
1.09762e-12
0
1.09762e-12
-2.19524e-12
0
2.19524e-12
0
1.09762e-12
0
-2.19524e-11
9.87856e-12
-1.09762e-12
-1.09762e-12
0
1.09762e-12
0
-5.48809e-12
0
-7.68332e-12
0
-9.87856e-12
4030.1
4509.17
3688.31
2828.15
2131.79
1595.24
1185.3
872.622
635.023
455.86
322.284
224.107
153.129
102.734
67.6374
43.6805
27.6622
17.1748
10.453
6.23592
3.64638
2.08992
1.17415
0.646665
0.349171
0.184865
0.0959808
0.048876
0.024415
0.0119658
0.00575481
0.00271644
0.00125873
0.000572681
0.000255873
0.000112293
4.8415e-05
2.05115e-05
8.54059e-06
3.49573e-06
1.40678e-06
5.56741e-07
2.16707e-07
8.29711e-08
3.1259e-08
1.15854e-08
4.21924e-09
1.51691e-09
5.36735e-10
1.75619e-10
2.74404e-11
1.09762e-12
-1.4269e-11
8.78094e-12
-1.31714e-11
-6.5857e-12
-1.4269e-11
0
-4.39047e-12
0
0
-1.09762e-12
0
2.41476e-11
5.48809e-12
0
-1.09762e-12
1.09762e-12
-1.09762e-12
0
-8.78094e-12
0
8.78094e-12
2.19523e-12
0
1412.63
2424.18
2443.97
2115.45
1716.35
1345.22
1030.17
774.068
571.419
414.464
295.279
206.534
141.766
95.4552
63.0282
40.801
25.8896
16.1008
9.81303
5.86115
3.43077
1.9681
1.10658
0.609869
0.329504
0.174547
0.0906682
0.046191
0.023083
0.0113171
0.00544461
0.0025708
0.00119158
0.000542269
0.000242343
0.000106379
4.5875e-05
1.94392e-05
8.09562e-06
3.31418e-06
1.33395e-06
5.27981e-07
2.05562e-07
7.87365e-08
2.96862e-08
1.10025e-08
4.01179e-09
1.45544e-09
5.00514e-10
1.60252e-10
5.1588e-11
1.20738e-11
1.20738e-11
8.78094e-12
0
-2.19523e-12
0
4.39047e-12
0
-2.19524e-12
0
0
0
-1.4269e-11
-1.09762e-11
2.19524e-12
3.29285e-12
2.19523e-12
0
0
3.29285e-12
8.78094e-12
0
-1.09762e-12
8.78094e-12
613.138
1343.44
1567.67
1498.93
1302.6
1071.01
848.418
653.212
490.897
360.854
259.724
183.113
126.48
85.593
56.7485
36.8601
23.4549
14.6213
8.92931
5.34255
3.13189
1.79898
1.01264
0.558661
0.302107
0.160162
0.0832553
0.0424418
0.0212218
0.0104101
0.0050107
0.00236697
0.00109755
0.00049967
0.000223384
9.80887e-05
4.23129e-05
1.7935e-05
7.47123e-06
3.05936e-06
1.23169e-06
4.87597e-07
1.89875e-07
7.27457e-08
2.74218e-08
1.01584e-08
3.71214e-09
1.31824e-09
4.50023e-10
1.41593e-10
5.92713e-11
1.31714e-11
0
-8.78094e-12
1.31714e-11
5.48809e-12
1.4269e-11
-4.39047e-12
5.48809e-12
6.58571e-12
0
-2.19523e-12
0
-1.09762e-12
-4.39047e-12
3.29285e-12
0
1.09762e-12
0
2.19524e-12
5.48809e-12
0
-1.09762e-12
-1.09762e-12
-5.48809e-12
313.57
780.334
1002.64
1033.69
951.621
817.352
669.216
528.334
404.764
302.011
219.933
156.51
108.918
74.1596
49.4159
32.232
20.5822
12.8688
7.87913
4.72458
2.77491
1.59659
0.900036
0.497181
0.26917
0.142847
0.0743238
0.0379204
0.0189754
0.0093146
0.00448622
0.00212045
0.000983767
0.000448089
0.000200416
8.80411e-05
3.79938e-05
1.61103e-05
6.71349e-06
2.75e-06
1.10749e-06
4.38559e-07
1.70831e-07
6.5452e-08
2.46668e-08
9.13218e-09
3.32029e-09
1.17884e-09
4.21485e-10
1.59155e-10
5.81737e-11
9.87856e-12
-1.09762e-11
-9.87856e-12
0
5.48809e-12
1.09762e-12
-8.78094e-12
-5.48809e-12
0
0
0
0
1.86595e-11
0
-1.09762e-12
-1.09762e-12
-3.29285e-12
0
-1.09762e-12
-9.87856e-12
-1.20738e-11
-7.68332e-12
-1.09762e-12
-1.09762e-12
177.95
472.126
645.38
702.995
677.679
604.258
509.806
412.226
321.898
243.886
179.811
129.25
90.6918
62.172
41.6644
27.3063
17.5078
10.9846
6.74563
4.05538
2.38725
1.37627
0.777194
0.42999
0.233116
0.123867
0.0645205
0.032952
0.0165043
0.00810841
0.00390828
0.00184858
0.000858195
0.000391129
0.000175037
7.69327e-05
3.32163e-05
1.4091e-05
5.87452e-06
2.40729e-06
9.6983e-07
3.84213e-07
1.4969e-07
5.73538e-08
2.16132e-08
8.02139e-09
2.90869e-09
1.03505e-09
3.47945e-10
1.28421e-10
3.62214e-11
1.09762e-11
0
-3.29285e-12
-1.09762e-12
0
-1.09762e-12
2.19524e-12
1.09762e-12
-6.58571e-12
1.09762e-12
2.19523e-12
1.09762e-12
0
-1.09762e-12
-4.39047e-12
0
0
0
-2.19524e-12
4.39047e-12
1.09762e-12
-4.39047e-12
0
0
107.198
294.037
418.318
474.091
473.723
435.71
377.347
311.837
247.934
190.666
142.319
103.355
73.1464
50.5068
34.054
22.4347
14.4484
9.09995
5.60686
3.38056
1.99508
1.15276
0.652273
0.361516
0.196305
0.104456
0.0544796
0.0278564
0.013967
0.00686851
0.0033136
0.00156859
0.000728762
0.000332372
0.00014884
6.54584e-05
2.82783e-05
1.20027e-05
5.00641e-06
2.05254e-06
8.27289e-07
3.27908e-07
1.27793e-07
4.89669e-08
1.84433e-08
6.84804e-09
2.49269e-09
8.75899e-10
2.83185e-10
9.21999e-11
2.52452e-11
1.75619e-11
0
-1.09762e-12
0
-9.87856e-12
-1.09762e-12
-7.68332e-12
4.39047e-12
-4.39047e-12
0
-2.19523e-12
1.09762e-12
-5.48809e-12
2.19523e-12
2.19524e-12
0
0
-1.20738e-11
1.09762e-12
1.31714e-11
2.19524e-12
0
-7.68332e-12
0
66.7047
186.404
272.267
317.53
326.203
307.71
272.5
229.573
185.56
144.712
109.309
80.188
57.2403
39.8149
27.0144
17.8938
11.5781
7.32197
4.52749
2.73833
1.62053
0.938647
0.53228
0.295588
0.160787
0.0856924
0.0447574
0.0229151
0.0115032
0.00566304
0.00273478
0.00129578
0.000602533
0.00027502
0.000123248
5.42409e-05
2.34475e-05
9.95831e-06
4.15607e-06
1.70484e-06
6.87517e-07
2.72619e-07
1.0631e-07
4.07644e-08
1.53557e-08
5.68237e-09
2.06681e-09
7.47478e-10
2.54647e-10
7.02475e-11
3.29285e-11
1.31714e-11
4.39047e-12
4.39047e-12
1.09762e-12
4.39047e-12
2.305e-11
3.29285e-12
-3.29285e-12
0
0
0
-3.29285e-12
0
0
0
7.68332e-12
-1.09762e-12
0
1.09762e-12
-1.09762e-12
0
6.5857e-12
0
4.39047e-12
42.1844
119.224
177.288
211.13
221.591
213.347
192.51
164.925
135.288
106.873
81.634
60.468
43.5267
30.4967
20.823
13.8688
9.01702
5.72645
3.5541
2.15669
1.28005
0.743368
0.422527
0.235132
0.128144
0.068412
0.0357875
0.0183487
0.00922281
0.00454584
0.00219768
0.00104235
0.000485146
0.000221634
9.94052e-05
4.37812e-05
1.89396e-05
8.04922e-06
3.36148e-06
1.37971e-06
5.56707e-07
2.20847e-07
8.61641e-08
3.30888e-08
1.24953e-08
4.64182e-09
1.69582e-09
6.23447e-10
2.21719e-10
6.36618e-11
2.08547e-11
1.09762e-11
-1.09762e-12
-3.29285e-12
0
8.78094e-12
1.4269e-11
1.4269e-11
-4.39047e-12
4.39047e-12
-1.09762e-12
2.19523e-12
8.78094e-12
0
-1.09762e-12
0
1.4269e-11
2.19523e-12
1.31714e-11
-1.09762e-12
2.19523e-12
5.48809e-12
6.58571e-12
8.78094e-12
2.19524e-12
26.8418
76.426
115.086
139.198
148.545
145.401
133.271
115.834
96.2663
76.9381
59.3777
44.3843
32.206
22.7243
15.6125
10.4554
6.83062
4.35651
2.71414
1.65256
0.983811
0.572882
0.326419
0.182049
0.0994128
0.0531698
0.0278601
0.0143058
0.00720072
0.00355371
0.00172007
0.000816719
0.000380515
0.000174
7.81099e-05
3.44307e-05
1.49063e-05
6.33975e-06
2.64943e-06
1.08819e-06
4.39347e-07
1.74405e-07
6.81138e-08
2.61793e-08
9.92027e-09
3.69678e-09
1.35995e-09
4.74171e-10
1.80009e-10
7.24428e-11
1.20738e-11
7.68332e-12
-1.09762e-12
0
0
-5.48809e-12
-1.97571e-11
-1.09762e-12
2.19523e-12
-1.09762e-12
-1.09762e-12
0
1.09762e-12
-1.09762e-12
-1.09762e-12
-1.09762e-12
-6.58571e-12
0
-1.09762e-12
0
1.09762e-12
0
-6.58571e-12
0
1.09762e-12
17.0721
48.8595
74.2506
90.8666
98.2413
97.4574
90.5025
79.6394
66.9468
54.066
42.1205
31.7515
23.2138
16.49
11.3973
7.6734
5.03705
3.22628
2.01766
1.23271
0.736121
0.42984
0.245532
0.137249
0.075104
0.0402446
0.021124
0.0108642
0.00547641
0.00270638
0.00131158
0.000623488
0.000290802
0.000133111
5.98112e-05
2.63882e-05
1.1434e-05
4.86681e-06
2.03542e-06
8.36625e-07
3.38039e-07
1.34286e-07
5.24859e-08
2.01863e-08
7.65917e-09
2.83295e-09
1.03725e-09
3.53433e-10
1.26226e-10
6.69547e-11
1.53666e-11
-1.09762e-12
8.78094e-12
4.39047e-12
2.19523e-12
1.09762e-12
-1.4269e-11
0
4.39047e-12
-1.09762e-12
3.29285e-12
1.4269e-11
-8.78094e-12
0
0
-9.87856e-12
-3.7319e-11
-1.09762e-12
0
0
-3.29285e-12
-5.48809e-12
0
-2.19523e-12
-3.29285e-12
10.8048
31.0386
47.4919
58.6469
64.0654
64.2509
60.3207
53.644
45.5467
37.1259
29.1704
22.1606
16.3161
11.6639
8.10796
5.48696
3.61854
2.32741
1.46102
0.895669
0.536508
0.31416
0.179911
0.100802
0.0552767
0.0296777
0.0156054
0.00803919
0.00405854
0.00200852
0.000974653
0.000463886
0.000216608
9.92552e-05
4.46433e-05
1.97148e-05
8.54998e-06
3.64237e-06
1.52457e-06
6.27117e-07
2.5358e-07
1.0081e-07
3.941e-08
1.51603e-08
5.72408e-09
2.13267e-09
7.74918e-10
2.95259e-10
1.1525e-10
6.14666e-11
4.28071e-11
2.96357e-11
1.09762e-11
1.09762e-12
-1.09762e-12
-1.09762e-12
-3.29285e-12
0
-1.09762e-12
2.19524e-12
0
-1.09762e-12
5.48809e-12
0
-1.09762e-11
-5.48809e-12
-2.19524e-12
-1.09762e-12
0
1.09762e-12
0
0
4.39047e-12
0
1.09762e-12
6.78275
19.5393
30.0538
37.3763
41.1694
41.6595
39.4707
35.4203
30.3362
24.9315
19.7397
15.1027
11.192
8.04852
5.6251
3.82548
2.53412
1.63656
1.03114
0.634259
0.381087
0.223775
0.128477
0.0721529
0.0396517
0.0213309
0.0112369
0.00579848
0.00293191
0.00145307
0.00070607
0.000336479
0.000157302
7.21596e-05
3.249e-05
1.43619e-05
6.23438e-06
2.65826e-06
1.1136e-06
4.58427e-07
1.8549e-07
7.37939e-08
2.88421e-08
1.10695e-08
4.16546e-09
1.54545e-09
5.65273e-10
2.305e-10
9.87856e-11
5.59785e-11
5.48809e-11
3.40261e-11
4.39047e-12
0
-1.09762e-12
0
1.09762e-12
-8.78094e-12
-7.68332e-12
-3.29285e-12
-1.09762e-12
-1.4269e-11
1.09762e-12
-1.20738e-11
-1.09762e-12
1.09762e-11
2.305e-11
-2.19523e-12
0
0
-1.09762e-12
-4.39047e-12
-8.78094e-12
1.09762e-12
6.58571e-12
4.21325
12.1636
18.7859
23.4951
26.054
26.5598
25.3589
22.9334
19.7909
16.3834
13.0611
10.0574
7.49778
5.42171
3.80851
2.60216
1.73114
1.12236
0.709702
0.437976
0.263946
0.155418
0.0894578
0.050357
0.0277334
0.0149491
0.00788956
0.00407816
0.00206534
0.00102511
0.000498808
0.000238016
0.000111407
5.11644e-05
2.30618e-05
1.02047e-05
4.43402e-06
1.89233e-06
7.93422e-07
3.26901e-07
1.32388e-07
5.27054e-08
2.06155e-08
7.91492e-09
2.97564e-09
1.08115e-09
3.98435e-10
1.4269e-10
4.71976e-11
2.52452e-11
2.41476e-11
7.68332e-12
4.39047e-12
1.4269e-11
0
0
4.39047e-12
0
1.09762e-12
0
-1.09762e-12
-1.09762e-12
-6.5857e-12
0
1.20738e-11
8.78094e-12
2.19523e-12
0
-1.09762e-12
-2.19523e-12
-6.5857e-12
4.39047e-12
0
0
0
2.58509
7.47597
11.5839
14.5538
16.2282
16.6455
15.9969
14.5633
12.6509
10.5402
8.4546
6.54827
4.90851
3.56755
2.51796
1.72797
1.15423
0.751142
0.47661
0.295066
0.178344
0.105298
0.0607612
0.0342825
0.0189212
0.0102194
0.00540336
0.00279784
0.00141922
0.000705472
0.000343758
0.000164248
7.6974e-05
3.53923e-05
1.59704e-05
7.07417e-06
3.07682e-06
1.31435e-06
5.51563e-07
2.2745e-07
9.22054e-08
3.67636e-08
1.44084e-08
5.56821e-09
2.10633e-09
7.78211e-10
3.05138e-10
9.43951e-11
2.305e-11
-1.09762e-12
-2.08547e-11
-3.07333e-11
-1.97571e-11
0
-1.4269e-11
-1.09762e-12
0
7.68332e-12
8.78094e-12
6.58571e-12
1.09762e-12
-4.39047e-12
0
1.31714e-11
9.87856e-12
0
-1.09762e-12
2.19523e-12
-4.39047e-12
0
-7.68332e-12
3.29285e-12
8.78094e-12
9.87856e-12
-3.29285e-12
1.56456
4.53087
7.03918
8.87695
9.9436
10.2522
9.90754
9.07155
7.92586
6.64106
5.35637
4.17052
3.14183
2.29429
1.62646
1.12077
0.751522
0.490815
0.312461
0.194037
0.117614
0.0696257
0.0402753
0.0227759
0.0125971
0.00681718
0.00361115
0.00187306
0.000951649
0.000473767
0.000231182
0.000110607
5.19007e-05
2.38922e-05
1.07932e-05
4.78607e-06
2.08377e-06
8.90993e-07
3.74268e-07
1.54492e-07
6.26915e-08
2.50246e-08
9.83246e-09
3.81093e-09
1.4752e-09
5.74054e-10
2.21719e-10
9.11023e-11
3.18309e-11
5.48809e-12
-2.08547e-11
-2.85381e-11
-1.97571e-11
-1.53666e-11
0
-4.39047e-12
-4.39047e-12
0
8.78094e-12
-1.09762e-12
0
1.09762e-12
0
-2.19524e-12
5.48809e-12
-4.39047e-12
-1.09762e-12
-1.09762e-12
0
1.09762e-12
-4.39047e-12
-7.68332e-12
-2.19524e-12
2.19523e-12
5.48809e-12
0.93305
2.70512
4.21186
5.32793
5.99104
6.20407
6.02409
5.54326
4.86769
4.09917
3.32251
2.59928
1.96709
1.44268
1.02693
0.71038
0.478061
0.313276
0.200067
0.124607
0.0757375
0.0449504
0.026064
0.0147722
0.00818741
0.00443942
0.00235592
0.00122408
0.00062292
0.000310582
0.00015177
7.27103e-05
3.41618e-05
1.57452e-05
7.121e-06
3.16112e-06
1.37773e-06
5.89686e-07
2.47945e-07
1.02443e-07
4.16096e-08
1.66037e-08
6.53741e-09
2.54428e-09
9.74684e-10
4.03923e-10
1.44886e-10
7.4638e-11
2.96357e-11
0
-1.09762e-11
1.86595e-11
3.29285e-11
4.39047e-12
1.4269e-11
2.19523e-12
1.09762e-12
3.29285e-12
0
-2.19523e-12
-2.19523e-12
5.48809e-12
1.09762e-12
0
-9.87856e-12
-1.09762e-12
0
-3.29285e-12
4.39047e-12
-1.09762e-12
-3.29285e-12
5.48809e-12
-3.29285e-12
-9.87856e-12
-1.09762e-12
0.547854
1.58984
2.47988
3.14514
3.54805
3.68798
3.59569
3.32302
2.93102
2.4793
2.01843
1.58587
1.20516
0.887396
0.634068
0.440193
0.297241
0.195406
0.125167
0.0781774
0.0476427
0.0283461
0.0164743
0.00935743
0.00519688
0.00282329
0.00150096
0.000781187
0.000398172
0.000198824
9.72961e-05
4.66756e-05
2.19578e-05
1.01327e-05
4.58794e-06
2.03889e-06
8.89558e-07
3.81138e-07
1.60395e-07
6.634e-08
2.69685e-08
1.08028e-08
4.24888e-09
1.65082e-09
6.19056e-10
2.41476e-10
8.56142e-11
2.08547e-11
1.75619e-11
-1.09762e-11
-9.87856e-12
1.09762e-11
1.53666e-11
-1.09762e-12
-2.19524e-12
5.48809e-12
-1.09762e-12
-2.19524e-12
-9.87856e-12
0
0
-4.39047e-12
0
2.19524e-12
-4.39047e-12
1.09762e-12
8.78094e-12
4.39047e-12
0
0
9.87856e-12
1.20738e-11
5.48809e-12
-5.48809e-12
-4.39047e-12
0.316517
0.919238
1.43605
1.82529
2.06481
2.15315
2.10673
1.95435
1.73056
1.46967
1.20122
0.94747
0.722747
0.534132
0.382992
0.266778
0.180716
0.119161
0.0765456
0.0479376
0.029288
0.0174671
0.0101744
0.0057913
0.00322274
0.00175409
0.000934187
0.000487017
0.000248625
0.000124334
6.09301e-05
2.92692e-05
1.37868e-05
6.3698e-06
2.8875e-06
1.28464e-06
5.61088e-07
2.40648e-07
1.01388e-07
4.19894e-08
1.70932e-08
6.87657e-09
2.70453e-09
1.04054e-09
4.28071e-10
1.56959e-10
6.69547e-11
1.31714e-11
1.09762e-11
-2.305e-11
1.09762e-12
-1.20738e-11
-4.39047e-12
-4.39047e-12
1.09762e-12
-2.19523e-12
-1.09762e-12
-1.09762e-12
-1.09762e-12
2.19524e-12
-1.09762e-12
-8.78094e-12
-1.09762e-12
0
-8.78094e-12
-9.87856e-12
0
2.19523e-12
4.39047e-12
1.09762e-12
1.31714e-11
-4.39047e-12
3.29285e-12
-1.09762e-12
-1.09762e-12
0.179842
0.522651
0.817555
1.04111
1.18052
1.23445
1.21159
1.12769
1.00202
0.85398
0.700476
0.554456
0.424413
0.314709
0.22639
0.158187
0.107475
0.0710682
0.0457753
0.0287407
0.0176019
0.0105217
0.00614202
0.00350321
0.00195324
0.00106506
0.000568209
0.000296709
0.000151707
7.59788e-05
3.72856e-05
1.79349e-05
8.45874e-06
3.91287e-06
1.77582e-06
7.90939e-07
3.45823e-07
1.48464e-07
6.26377e-08
2.59685e-08
1.05843e-08
4.25327e-09
1.68594e-09
6.57473e-10
2.59038e-10
9.54927e-11
4.39047e-11
2.63428e-11
-5.48809e-12
-7.68332e-12
1.75619e-11
4.39047e-12
9.87856e-12
1.09762e-12
3.29285e-12
3.29285e-12
1.86595e-11
0
2.19523e-12
0
0
-6.5857e-12
-1.09762e-12
3.29285e-12
0
-1.09762e-12
-7.68332e-12
0
0
1.09762e-12
-4.39047e-12
-8.78094e-12
0
0
-5.48809e-12
0.100458
0.292115
0.457451
0.58348
0.662974
0.694941
0.683919
0.638426
0.569033
0.4865
0.400331
0.317893
0.244102
0.181565
0.131003
0.0918018
0.0625456
0.0414689
0.0267783
0.0168539
0.0103458
0.00619785
0.00362554
0.00207197
0.00115741
0.000632236
0.000337867
0.000176712
9.04905e-05
4.53858e-05
2.23034e-05
1.07424e-05
5.0729e-06
2.34949e-06
1.06754e-06
4.75996e-07
2.08335e-07
8.95316e-08
3.78041e-08
1.56871e-08
6.41996e-09
2.5783e-09
1.04383e-09
4.10509e-10
1.32812e-10
4.93928e-11
6.5857e-12
-1.20738e-11
-2.19524e-12
1.75619e-11
9.87856e-12
1.53666e-11
-1.53666e-11
2.19524e-12
-1.09762e-12
-1.09762e-12
9.87856e-12
0
0
-2.19524e-12
3.29285e-12
8.78094e-12
0
-1.86595e-11
8.78094e-12
1.09762e-11
0
1.09762e-12
-4.39047e-12
0
-1.20738e-11
0
0
-3.29285e-12
2.19524e-12
0.0551515
0.160451
0.251509
0.321251
0.365673
0.384118
0.37893
0.354644
0.316965
0.271763
0.224277
0.17861
0.137547
0.102599
0.0742329
0.0521596
0.0356295
0.0236822
0.0153294
0.00967036
0.00594923
0.00357147
0.00209337
0.00119863
0.00067077
0.000367042
0.00019647
0.000102919
5.27818e-05
2.65107e-05
1.30456e-05
6.29161e-06
2.97482e-06
1.37944e-06
6.27515e-07
2.80122e-07
1.22751e-07
5.28217e-08
2.23244e-08
9.26718e-09
3.79556e-09
1.50813e-09
6.0808e-10
2.35988e-10
8.78094e-11
3.62214e-11
0
-1.64643e-11
4.39047e-12
1.75619e-11
-3.29285e-12
6.58571e-12
-1.97571e-11
1.09762e-12
-1.09762e-12
-2.19523e-12
-1.86595e-11
-7.68332e-12
-1.09762e-12
0
-1.09762e-12
1.09762e-11
1.09762e-12
-2.19524e-12
-1.09762e-12
-4.39047e-12
9.87856e-12
-1.09762e-12
2.19524e-12
-2.19524e-12
3.29285e-12
0
-2.19524e-12
3.29285e-12
-8.78094e-12
0.0297525
0.0865956
0.135854
0.173739
0.198074
0.208455
0.206075
0.193313
0.1732
0.148881
0.123188
0.098365
0.0759505
0.0568013
0.0412027
0.0290236
0.0198739
0.0132408
0.00859022
0.00543084
0.00334806
0.00201395
0.00118271
0.000678443
0.000380333
0.000208465
0.000111766
5.8637e-05
3.01158e-05
1.51475e-05
7.46389e-06
3.60429e-06
1.70631e-06
7.92156e-07
3.60778e-07
1.61249e-07
7.07579e-08
3.04962e-08
1.29003e-08
5.36625e-09
2.17109e-09
8.6163e-10
3.34773e-10
1.1964e-10
5.04904e-11
2.19523e-11
2.19523e-11
1.31714e-11
3.29285e-12
1.31714e-11
-4.39047e-12
-5.48809e-12
8.78094e-12
-3.29285e-12
-2.19523e-12
5.48809e-12
-7.68332e-12
1.20738e-11
1.09762e-12
0
1.09762e-12
-2.19523e-12
-1.09762e-12
1.31714e-11
0
1.31714e-11
0
-2.19523e-12
0
1.09762e-12
4.39047e-12
-2.19523e-12
0
2.19523e-12
-1.09762e-12
0.0157696
0.0459153
0.0720868
0.0922886
0.105362
0.111067
0.110006
0.103407
0.0928532
0.0800003
0.0663521
0.0531097
0.041107
0.0308169
0.0224073
0.0158208
0.0108579
0.00725001
0.00471363
0.00298617
0.00184461
0.00111171
0.000654061
0.000375852
0.000211058
0.000115871
6.2219e-05
3.26913e-05
1.68142e-05
8.46869e-06
4.17844e-06
2.02031e-06
9.57574e-07
4.45074e-07
2.02936e-07
9.08059e-08
3.98962e-08
1.72216e-08
7.29477e-09
3.04808e-09
1.23153e-09
4.97221e-10
1.77814e-10
6.0369e-11
4.06118e-11
2.19524e-11
2.305e-11
9.87856e-12
8.78094e-12
1.09762e-11
-1.09762e-11
-2.305e-11
-2.19523e-12
0
-1.31714e-11
6.5857e-12
1.09762e-12
1.09762e-11
0
-1.09762e-12
1.09762e-12
0
-1.09762e-12
4.39047e-12
3.29285e-12
4.39047e-12
-9.87856e-12
0
-1.09762e-12
1.09762e-12
1.09762e-12
1.09762e-12
0
1.09762e-12
1.31714e-11
0.00821127
0.0239162
0.037573
0.0481486
0.0550367
0.0581027
0.0576446
0.0542875
0.0488439
0.0421711
0.0350524
0.0281188
0.0218125
0.0163887
0.0119427
0.00845051
0.005812
0.00388884
0.00253346
0.00160813
0.00099525
0.000600912
0.000354162
0.000203862
0.000114664
6.30491e-05
3.39065e-05
1.78411e-05
9.18898e-06
4.63435e-06
2.28953e-06
1.1084e-06
5.25976e-07
2.44753e-07
1.11741e-07
5.007e-08
2.2027e-08
9.51854e-09
4.06118e-09
1.71777e-09
7.2333e-10
2.95259e-10
1.03176e-10
4.06118e-11
2.305e-11
2.08547e-11
-2.19523e-12
8.78094e-12
1.64643e-11
7.68332e-12
9.87856e-12
-6.58571e-12
-1.4269e-11
1.09762e-12
1.09762e-12
-4.39047e-12
0
-3.29285e-12
-2.19523e-12
2.19524e-12
-1.09762e-12
2.19523e-12
0
6.58571e-12
-2.19523e-12
-1.31714e-11
2.19524e-12
1.09762e-12
0
-1.09762e-12
7.68332e-12
3.29285e-12
0
3.29285e-12
-4.39047e-12
0.00420024
0.0122373
0.0192363
0.0246717
0.0282322
0.0298444
0.0296539
0.0279737
0.0252142
0.021811
0.0181651
0.0146014
0.01135
0.0085453
0.00623986
0.0044242
0.0030489
0.00204402
0.00133415
0.000848436
0.00052603
0.000318159
0.000187831
0.000108295
6.10069e-05
3.3596e-05
1.80936e-05
9.53398e-06
4.91709e-06
2.48313e-06
1.22831e-06
5.9538e-07
2.82883e-07
1.31802e-07
6.02515e-08
2.70091e-08
1.18894e-08
5.12478e-09
2.19084e-09
9.15413e-10
4.05021e-10
1.81107e-10
8.67118e-11
4.93928e-11
2.63428e-11
2.305e-11
1.31714e-11
3.84166e-11
2.19523e-11
5.48809e-12
6.5857e-12
6.5857e-12
3.29285e-12
-2.19523e-12
1.4269e-11
-6.5857e-12
-1.09762e-12
-3.29285e-12
1.09762e-12
2.19523e-12
-1.09762e-12
-2.19523e-12
2.19523e-12
-1.20738e-11
-3.29285e-12
-1.09762e-12
0
1.09762e-12
1.09762e-12
0
-7.68332e-12
0
-4.39047e-12
-1.4269e-11
-1.09762e-12
0.00211061
0.00615086
0.0096738
0.0124167
0.0142226
0.0150527
0.014977
0.0141499
0.0127749
0.0110699
0.00923614
0.00743801
0.00579266
0.00436957
0.00319679
0.00227089
0.00156789
0.00105307
0.000688587
0.000438666
0.000272438
0.000165053
9.7599e-05
5.63589e-05
3.17973e-05
1.75361e-05
9.45764e-06
4.99029e-06
2.57714e-06
1.30312e-06
6.45402e-07
3.13205e-07
1.48996e-07
6.9511e-08
3.17903e-08
1.42537e-08
6.2641e-09
2.68258e-09
1.11847e-09
4.50023e-10
1.78912e-10
8.67118e-11
5.59785e-11
3.29285e-11
1.53666e-11
9.87856e-12
3.95142e-11
4.28071e-11
2.52452e-11
4.39047e-12
-1.64643e-11
4.39047e-12
-7.68332e-12
0
-2.19524e-12
0
0
-7.68332e-12
4.39047e-12
-3.29285e-12
0
-1.09762e-12
-5.48809e-12
-2.08547e-11
2.19523e-12
0
-2.19524e-12
-3.29285e-12
1.09762e-12
-1.09762e-12
1.09762e-12
-2.19524e-12
0
0
1.31714e-11
0.00104189
0.00303706
0.00477879
0.00613796
0.00703696
0.00745564
0.00742735
0.0070268
0.00635349
0.00551426
0.00460847
0.00371765
0.00290035
0.00219169
0.0016063
0.00114308
0.000790606
0.000531926
0.000348411
0.000222326
0.000138303
8.39219e-05
4.97012e-05
2.87432e-05
1.62403e-05
8.96909e-06
4.84385e-06
2.5592e-06
1.32334e-06
6.69995e-07
3.32235e-07
1.61413e-07
7.6864e-08
3.58734e-08
1.63995e-08
7.37379e-09
3.21273e-09
1.3841e-09
5.55394e-10
2.22816e-10
5.81737e-11
5.48809e-12
-1.09762e-11
-2.19523e-12
9.87856e-12
2.305e-11
3.18309e-11
1.20738e-11
2.305e-11
-2.19523e-12
-7.68332e-12
6.58571e-12
0
3.29285e-12
0
-1.09762e-12
0
0
-1.09762e-12
0
0
3.29285e-12
-1.09762e-12
7.68332e-12
0
-1.09762e-12
0
0
6.58571e-12
4.39047e-12
6.5857e-12
-1.97571e-11
2.19524e-12
1.09762e-11
0
0.000505282
0.00147319
0.00231904
0.00298047
0.00341975
0.00362675
0.00361705
0.00342629
0.00310222
0.00269638
0.00225692
0.00182354
0.00142496
0.00107857
0.000791799
0.000564399
0.000391007
0.000263503
0.000172872
0.000110487
6.88372e-05
4.18336e-05
2.48118e-05
1.43698e-05
8.13051e-06
4.49637e-06
2.43152e-06
1.28631e-06
6.65961e-07
3.37576e-07
1.67586e-07
8.15113e-08
3.8848e-08
1.81293e-08
8.28372e-09
3.70336e-09
1.59484e-09
6.92597e-10
2.74404e-10
9.7688e-11
1.97571e-11
-1.64643e-11
-3.29285e-11
-1.20738e-11
-7.68332e-12
3.29285e-12
0
-1.53666e-11
-3.29285e-12
3.29285e-12
1.09762e-11
-4.39047e-12
3.40261e-11
0
0
0
8.78094e-12
0
-1.09762e-12
-2.19523e-12
-1.09762e-12
1.09762e-12
4.39047e-12
1.86595e-11
1.09762e-12
0
-1.09762e-12
1.31714e-11
0
1.09762e-12
-7.68332e-12
0
0
0
-7.68332e-12
0.000240756
0.000702083
0.00110561
0.00142175
0.0016325
0.00173285
0.00172999
0.00164064
0.00148733
0.00129449
0.00108504
0.00087798
0.000687111
0.000520882
0.000382984
0.000273419
0.000189715
0.000128048
8.41343e-05
5.38531e-05
3.3602e-05
2.04501e-05
1.21463e-05
7.04428e-06
3.99107e-06
2.21006e-06
1.19666e-06
6.33833e-07
3.28553e-07
1.66709e-07
8.28449e-08
4.03287e-08
1.92336e-08
8.9818e-09
4.09631e-09
1.81875e-09
7.78211e-10
3.227e-10
1.28421e-10
3.62214e-11
-1.09762e-12
-6.58571e-12
-2.305e-11
-2.63428e-11
-3.7319e-11
-4.50023e-11
-3.40261e-11
-2.52452e-11
-2.52452e-11
-7.68332e-12
-1.09762e-12
-2.63428e-11
-6.5857e-12
-2.19524e-12
1.09762e-12
3.29285e-12
7.68332e-12
-1.20738e-11
-1.09762e-12
2.19524e-12
-1.09762e-12
-5.48809e-12
-3.29285e-12
0
0
2.19524e-12
1.09762e-12
0
-8.78094e-12
4.39047e-12
1.09762e-12
2.41476e-11
2.19524e-12
4.39047e-12
0
0.000112716
0.000328759
0.000517898
0.000666328
0.000765609
0.000813333
0.000812757
0.000771594
0.0007003
0.00061026
0.000512191
0.000415014
0.000325249
0.000246917
0.000181813
0.000129989
9.03268e-05
6.10548e-05
4.01744e-05
2.57518e-05
1.60907e-05
9.80632e-06
5.83235e-06
3.38698e-06
1.92147e-06
1.06537e-06
5.77584e-07
3.06307e-07
1.58956e-07
8.0744e-08
4.01684e-08
1.95563e-08
9.33633e-09
4.35425e-09
1.96583e-09
8.82484e-10
3.83069e-10
1.44886e-10
6.0369e-11
1.4269e-11
-2.74404e-11
-1.86595e-11
-8.78094e-12
-2.08547e-11
-2.41476e-11
-3.40261e-11
-4.60999e-11
-2.52452e-11
-3.29285e-11
-2.63428e-11
-2.19524e-11
-1.97571e-11
-2.63428e-11
2.19524e-12
2.19524e-12
0
-8.78094e-12
-1.64643e-11
-8.78094e-12
-1.20738e-11
-3.29285e-12
-1.09762e-12
1.09762e-12
-2.19524e-12
-1.09762e-12
-1.09762e-11
1.09762e-12
-6.5857e-12
-1.09762e-12
-1.09762e-12
-2.19523e-12
0
-9.87856e-12
0
5.48809e-12
5.18573e-05
0.000151277
0.000238384
0.00030685
0.000352787
0.000375057
0.000375117
0.000356465
0.000323875
0.000282557
0.000237439
0.000192635
0.000151167
0.000114915
8.47314e-05
6.06634e-05
4.22121e-05
2.8572e-05
1.88264e-05
1.20842e-05
7.5608e-06
4.61399e-06
2.74778e-06
1.59776e-06
9.07558e-07
5.03822e-07
2.735e-07
1.45228e-07
7.54656e-08
3.83782e-08
1.90985e-08
9.29133e-09
4.41901e-09
2.07559e-09
9.32975e-10
4.03923e-10
1.77814e-10
4.39047e-11
-4.39047e-12
-1.64643e-11
-9.87856e-12
-1.4269e-11
1.31714e-11
1.53666e-11
-3.29285e-12
-3.29285e-12
-6.5857e-12
-9.87856e-12
-3.29285e-12
-1.97571e-11
-1.64643e-11
2.305e-11
1.4269e-11
2.19523e-12
-3.29285e-12
6.5857e-12
-7.68332e-12
7.68332e-12
-8.78094e-12
-2.19523e-12
-1.31714e-11
5.48809e-12
4.39047e-12
-7.68332e-12
1.09762e-12
-1.09762e-12
-1.09762e-12
1.09762e-12
2.19523e-12
-8.78094e-12
-1.31714e-11
-4.39047e-12
-6.5857e-12
-7.68332e-12
-1.09762e-12
2.34474e-05
6.84106e-05
0.000107834
0.000138866
0.000159744
0.000169946
0.000170109
0.000161796
0.000147149
0.000128514
0.000108116
8.78189e-05
6.89995e-05
5.25188e-05
3.87739e-05
2.77963e-05
1.93672e-05
1.31262e-05
8.6603e-06
5.56606e-06
3.48704e-06
2.13067e-06
1.27049e-06
7.39677e-07
4.20667e-07
2.33824e-07
1.27072e-07
6.75485e-08
3.51567e-08
1.78945e-08
8.92363e-09
4.34657e-09
2.05803e-09
9.73587e-10
4.34657e-10
1.67935e-10
6.36618e-11
1.09762e-12
-1.97571e-11
-2.08547e-11
-3.29285e-12
2.19524e-12
1.09762e-11
0
1.53666e-11
2.19524e-12
2.52452e-11
-3.29285e-12
-3.29285e-12
-1.09762e-12
1.09762e-11
1.31714e-11
3.29285e-12
-1.31714e-11
-1.09762e-12
4.39047e-12
0
4.39047e-12
1.86595e-11
1.31714e-11
4.39047e-12
2.19523e-12
0
2.19524e-12
0
1.09762e-11
-2.19524e-12
0
0
5.48809e-12
8.78094e-12
0
9.87856e-12
2.19523e-12
-6.58571e-12
1.04208e-05
3.04081e-05
4.79448e-05
6.17664e-05
7.10903e-05
7.56782e-05
7.5807e-05
7.21632e-05
6.5691e-05
5.74291e-05
4.83649e-05
3.93288e-05
3.09364e-05
2.35752e-05
1.74264e-05
1.25081e-05
8.72587e-06
5.92137e-06
3.91163e-06
2.51714e-06
1.5789e-06
9.65943e-07
5.76659e-07
3.36123e-07
1.91389e-07
1.06541e-07
5.79729e-08
3.08672e-08
1.60878e-08
8.20908e-09
4.11936e-09
2.03279e-09
9.92246e-10
4.4673e-10
2.19523e-10
8.78094e-11
4.82952e-11
2.96357e-11
2.96357e-11
3.29285e-12
2.52452e-11
2.08547e-11
1.75619e-11
1.09762e-12
2.305e-11
1.75619e-11
1.20738e-11
5.48809e-12
-1.75619e-11
3.29285e-12
1.64643e-11
0
-1.20738e-11
-4.39047e-12
2.19524e-12
-2.305e-11
-1.09762e-12
0
7.68332e-12
1.09762e-12
1.4269e-11
-2.19523e-12
-1.09762e-12
-1.09762e-12
-4.39047e-12
1.09762e-12
-1.09762e-12
1.20738e-11
0
0
2.08547e-11
9.87856e-12
6.58571e-12
4.39047e-12
0
4.55282e-06
1.32869e-05
2.0955e-05
2.70059e-05
3.10977e-05
3.31242e-05
3.32035e-05
3.16322e-05
2.88199e-05
2.52187e-05
2.12595e-05
1.73056e-05
1.36276e-05
1.03966e-05
7.6938e-06
5.52882e-06
3.86157e-06
2.6236e-06
1.7352e-06
1.11793e-06
7.02062e-07
4.30014e-07
2.57008e-07
1.49984e-07
8.55132e-08
4.76607e-08
2.59894e-08
1.38882e-08
7.25525e-09
3.7297e-09
1.88241e-09
9.49439e-10
4.74171e-10
2.15133e-10
1.33909e-10
5.81737e-11
3.7319e-11
4.28071e-11
1.75619e-11
4.39047e-12
4.71976e-11
1.31714e-11
3.62214e-11
5.04904e-11
4.28071e-11
4.71976e-11
2.305e-11
3.84166e-11
5.48809e-12
3.29285e-12
1.4269e-11
2.305e-11
2.08547e-11
2.08547e-11
1.09762e-12
5.48809e-12
4.39047e-12
1.4269e-11
-1.09762e-11
0
0
-2.19523e-12
-1.09762e-12
0
-3.29285e-12
0
4.39047e-12
-4.39047e-12
-2.19523e-12
-1.31714e-11
-5.48809e-12
6.5857e-12
-1.09762e-12
-5.48809e-12
2.19523e-12
1.95564e-06
5.70809e-06
9.00437e-06
1.16085e-05
1.33734e-05
1.42529e-05
1.42962e-05
1.36296e-05
1.24279e-05
1.08845e-05
9.18419e-06
7.48348e-06
5.89904e-06
4.50519e-06
3.33763e-06
2.4011e-06
1.67893e-06
1.14198e-06
7.56126e-07
4.87715e-07
3.06628e-07
1.87997e-07
1.12504e-07
6.57418e-08
3.75385e-08
2.09425e-08
1.14503e-08
6.1291e-09
3.21053e-09
1.66179e-09
8.37482e-10
4.2368e-10
2.12938e-10
1.1964e-10
4.39047e-11
1.53666e-11
0
1.64643e-11
0
1.20738e-11
6.5857e-12
8.78094e-12
1.75619e-11
5.26856e-11
4.82952e-11
4.39047e-11
1.75619e-11
8.78094e-12
2.96357e-11
1.64643e-11
2.63428e-11
2.85381e-11
3.29285e-11
1.09762e-12
-2.19524e-12
1.4269e-11
1.31714e-11
2.19524e-12
2.19523e-12
0
0
-2.19523e-12
2.19524e-12
8.78094e-12
3.29285e-12
-1.09762e-12
0
-1.20738e-11
1.09762e-12
0
-1.64643e-11
-9.87856e-12
1.09762e-12
-7.68332e-12
0
8.26032e-07
2.41141e-06
3.80483e-06
4.90679e-06
5.65522e-06
6.0302e-06
6.05221e-06
5.77392e-06
5.26883e-06
4.61827e-06
3.90029e-06
3.18098e-06
2.50993e-06
1.91881e-06
1.42301e-06
1.0248e-06
7.17344e-07
4.88435e-07
3.23751e-07
2.09025e-07
1.31556e-07
8.07506e-08
4.83731e-08
2.8301e-08
1.61679e-08
9.04327e-09
4.94696e-09
2.63318e-09
1.38519e-09
7.36501e-10
3.80873e-10
1.85497e-10
7.35404e-11
3.84166e-11
4.39047e-12
7.68332e-12
-4.39047e-12
1.31714e-11
1.97571e-11
3.84166e-11
1.09762e-12
1.20738e-11
-1.97571e-11
7.68332e-12
2.96357e-11
2.52452e-11
-1.09762e-12
3.29285e-12
1.75619e-11
2.41476e-11
1.20738e-11
1.31714e-11
0
-8.78094e-12
0
-2.08547e-11
-4.39047e-12
-4.39047e-12
1.09762e-12
0
0
-2.19523e-12
4.39047e-12
0
5.48809e-12
0
-1.09762e-12
0
6.58571e-12
1.53666e-11
5.48809e-12
-5.48809e-12
-8.78094e-12
1.09762e-12
-4.39047e-12
3.43185e-07
1.00192e-06
1.58115e-06
2.03971e-06
2.35172e-06
2.50886e-06
2.51941e-06
2.40512e-06
2.19628e-06
1.92656e-06
1.62841e-06
1.32925e-06
1.0498e-06
8.03336e-07
5.96341e-07
4.29909e-07
3.01228e-07
2.0531e-07
1.36236e-07
8.80311e-08
5.54407e-08
3.40722e-08
2.04365e-08
1.19498e-08
6.83596e-09
3.82959e-09
2.07999e-09
1.1053e-09
5.89421e-10
3.23797e-10
1.83302e-10
1.07567e-10
3.40261e-11
-3.29285e-12
1.09762e-12