/*--------------------------------*- C++ -*----------------------------------*\
  =========                 |
  \\      /  F ield         | OpenFOAM: The Open Source CFD Toolbox
   \\    /   O peration     | Website:  https://openfoam.org
    \\  /    A nd           | Version:  10
     \\/     M anipulation  |
\*---------------------------------------------------------------------------*/
FoamFile
{
    format      ascii;
    class       volScalarField;
    location    "35";
    object      gradTz;
}
// * * * * * * * * * * * * * * * * * * * * * * * * * * * * * * * * * * * * * //

dimensions      [0 -1 0 1 0 0 0];

internalField   nonuniform List<scalar> 
11250
(
-14549.8
-4324.3
-1666.52
-816.337
-464.014
-280.482
-170.915
-102.108
-58.9746
-32.701
-17.3495
-8.79497
-4.25864
-1.97035
-0.871689
-0.369081
-0.149716
-0.0582457
-0.0217551
-0.0078091
-0.00269649
-0.00089648
-0.0002872
-8.87274e-05
-2.64525e-05
-7.61541e-06
-2.11839e-06
-5.69726e-07
-1.4822e-07
-3.73212e-08
-9.09596e-09
-2.14694e-09
-4.90635e-10
-1.05371e-10
-2.52452e-11
0
0
0
0
0
4.39047e-12
0
-3.29285e-12
0
-1.09762e-12
0
0
2.19524e-12
0
-1.09762e-12
0
1.31714e-11
0
-1.4269e-11
0
0
0
0
0
0
0
0
-2.08547e-11
-1.09762e-12
2.19523e-11
1.09762e-12
-1.09762e-12
0
1.09762e-12
-1.09762e-12
0
-5.48809e-12
-1.09762e-12
6.5857e-12
0
-8846.35
-5382.04
-3177.82
-1947.14
-1227.88
-777.757
-484.571
-292.848
-170.257
-94.7926
-50.4286
-25.6122
-12.419
-5.75194
-2.54676
-1.07903
-0.437944
-0.170456
-0.0636912
-0.0228702
-0.00789955
-0.00262705
-0.000841835
-0.000260142
-7.75753e-05
-2.23384e-05
-6.21533e-06
-1.67193e-06
-4.35078e-07
-1.09577e-07
-2.67127e-08
-6.29703e-09
-1.45983e-09
-3.30383e-10
-4.82952e-11
7.68332e-12
4.39047e-12
0
-4.39047e-12
-8.78094e-12
6.5857e-12
9.87856e-12
-8.78094e-12
-5.48809e-12
6.5857e-12
5.48809e-12
-6.5857e-12
2.19523e-12
3.29285e-12
0
0
0
0
0
0
0
-2.19523e-12
0
5.48809e-12
-1.09762e-12
-3.29285e-12
1.09762e-12
1.09762e-12
8.78094e-12
-1.09762e-12
-1.20738e-11
1.09762e-12
2.19523e-12
-1.09762e-12
-4.39047e-12
1.09762e-12
4.39047e-12
0
-8.78094e-12
8.78094e-12
-6523.5
-5111.73
-3674.16
-2554.71
-1736.21
-1148.25
-733.699
-450.252
-264.327
-148.122
-79.153
-40.331
-19.603
-9.09602
-4.03326
-1.71084
-0.695043
-0.270743
-0.101234
-0.0363732
-0.0125704
-0.00418246
-0.00134088
-0.000414533
-0.000123666
-3.56247e-05
-9.91588e-06
-2.66837e-06
-6.94623e-07
-1.75023e-07
-4.26918e-08
-1.00739e-08
-2.31378e-09
-5.04904e-10
-1.00981e-10
-1.86595e-11
-1.09762e-12
7.68332e-12
1.09762e-12
0
1.09762e-12
-1.09762e-12
0
1.09762e-12
0
0
0
0
0
-1.64643e-11
1.09762e-12
1.53666e-11
8.78094e-12
-1.31714e-11
-1.53666e-11
-2.19523e-12
6.58571e-12
9.87856e-12
0
5.48809e-12
0
0
1.09762e-12
5.48809e-12
-1.09762e-12
-5.48809e-12
0
0
0
-1.09762e-11
0
1.20738e-11
1.09762e-12
-1.09762e-12
-1.09762e-12
-5478.7
-4758.64
-3786.18
-2842.48
-2035.71
-1393.52
-910.715
-567.314
-336.463
-189.896
-102.001
-52.1721
-25.4324
-11.8278
-5.25407
-2.23199
-0.907876
-0.354015
-0.13249
-0.0476408
-0.0164761
-0.00548551
-0.00175969
-0.000544317
-0.000162472
-4.6828e-05
-1.30408e-05
-3.51105e-06
-9.14427e-07
-2.30514e-07
-5.62825e-08
-1.32954e-08
-3.01845e-09
-6.50887e-10
-1.51471e-10
-3.95142e-11
-5.48809e-12
-3.29285e-12
1.09762e-12
1.09762e-12
1.09762e-12
1.09762e-12
1.09762e-12
-2.19523e-12
9.87856e-12
0
-8.78094e-12
0
-1.09762e-12
0
0
3.29285e-12
1.09762e-11
-4.39047e-12
-1.09762e-11
0
3.29285e-12
1.09762e-12
-2.19523e-12
0
-1.09762e-12
0
-1.20738e-11
-1.09762e-12
1.4269e-11
1.09762e-12
0
0
-2.19524e-12
0
8.78094e-12
1.09762e-12
-9.87856e-12
0
0
-4977.8
-4514.91
-3782.24
-2968.49
-2199.23
-1542.84
-1026.05
-647.155
-387.27
-220.014
-118.762
-60.9741
-29.8105
-13.8963
-6.18462
-2.6314
-1.07174
-0.418381
-0.156731
-0.0564063
-0.0195229
-0.00650454
-0.00208798
-0.000646279
-0.000193025
-5.56671e-05
-1.55114e-05
-4.17859e-06
-1.08889e-06
-2.74641e-07
-6.7071e-08
-1.58617e-08
-3.61994e-09
-7.81504e-10
-1.72326e-10
-4.82952e-11
-1.31714e-11
0
-1.09762e-12
0
-1.09762e-12
1.09762e-12
0
0
-1.09762e-12
1.09762e-12
0
1.09762e-12
-2.19523e-12
0
1.09762e-12
0
0
0
0
0
-5.48809e-12
0
1.20738e-11
0
-8.78094e-12
0
2.19523e-12
1.09762e-12
5.48809e-12
-2.19523e-12
-4.39047e-12
1.09762e-12
2.19523e-12
-5.48809e-12
-2.19523e-12
4.39047e-12
0
-5.48809e-12
5.48809e-12
-4729.85
-4370.48
-3755.46
-3020.42
-2283.95
-1628.18
-1096.12
-697.758
-420.482
-240.162
-130.176
-67.0524
-32.8675
-15.3537
-6.84511
-2.91665
-1.18939
-0.464804
-0.174285
-0.0627767
-0.0217444
-0.00724985
-0.00232879
-0.000721278
-0.000215559
-6.22036e-05
-1.73431e-05
-4.67479e-06
-1.21888e-06
-3.07579e-07
-7.51605e-08
-1.77869e-08
-4.09192e-09
-9.06632e-10
-1.92083e-10
-4.39047e-11
-2.63428e-11
0
2.08547e-11
5.48809e-12
-1.09762e-12
4.39047e-12
1.09762e-12
-9.87856e-12
-1.09762e-12
-4.39047e-12
1.09762e-12
4.39047e-12
4.39047e-12
8.78094e-12
-3.29285e-12
-9.87856e-12
0
0
2.19524e-12
0
-5.48809e-12
-6.58571e-12
6.5857e-12
4.39047e-12
-1.09762e-12
0
4.39047e-12
0
-5.48809e-12
1.09762e-12
0
0
0
-1.09762e-11
-2.19523e-12
4.39047e-12
1.09762e-12
4.39047e-12
3.29285e-12
-4606.11
-4290.75
-3732.28
-3040.61
-2326.11
-1674.5
-1136.23
-727.842
-440.793
-252.757
-137.435
-70.9714
-34.8608
-16.3128
-7.28316
-3.10709
-1.26838
-0.496129
-0.186183
-0.0671119
-0.0232619
-0.00776076
-0.00249442
-0.000773032
-0.000231158
-6.67427e-05
-1.86191e-05
-5.0215e-06
-1.31002e-06
-3.30766e-07
-8.08692e-08
-1.91501e-08
-4.37291e-09
-9.75782e-10
-2.19523e-10
-3.51238e-11
0
1.09762e-11
1.31714e-11
-1.09762e-11
-1.31714e-11
-9.87856e-12
0
9.87856e-12
0
0
1.09762e-12
-2.19524e-12
-3.29285e-12
-5.48809e-12
1.09762e-12
7.68332e-12
-3.29285e-12
-1.09762e-12
4.39047e-12
0
-2.19524e-12
0
2.19523e-12
2.19524e-12
0
1.09762e-12
-1.09762e-12
-1.09762e-12
1.09762e-12
-1.09762e-12
0
0
0
0
0
-4.39047e-12
-1.09762e-12
0
5.48809e-12
-4544.85
-4248.77
-3717.09
-3047.96
-2346.39
-1698.54
-1158.02
-744.73
-452.486
-260.153
-141.767
-73.3412
-36.0794
-16.9046
-7.55555
-3.22631
-1.31812
-0.515958
-0.19375
-0.0698813
-0.0242352
-0.00808975
-0.00260148
-0.000806608
-0.000241315
-6.97089e-05
-1.94558e-05
-5.24969e-06
-1.37022e-06
-3.46136e-07
-8.46801e-08
-2.00623e-08
-4.59353e-09
-1.02627e-09
-2.14035e-10
-3.18309e-11
-1.09762e-12
0
1.09762e-12
-5.48809e-12
1.09762e-12
6.5857e-12
-9.87856e-12
-6.5857e-12
9.87856e-12
6.5857e-12
-1.09762e-12
0
-1.09762e-12
0
1.09762e-12
-1.09762e-12
-1.09762e-12
1.09762e-12
-7.68332e-12
0
-5.48809e-12
0
8.78094e-12
0
2.19523e-12
0
3.29285e-12
0
0
-1.09762e-12
0
-1.20738e-11
0
1.31714e-11
1.09762e-12
-8.78094e-12
-8.78094e-12
4.39047e-12
1.09762e-11
-4515.09
-4227.55
-3708.35
-3050.41
-2355.84
-1710.51
-1169.3
-753.723
-458.852
-264.252
-144.203
-74.6905
-36.7804
-17.248
-7.71487
-3.29651
-1.34759
-0.527766
-0.198279
-0.0715462
-0.0248229
-0.00828922
-0.00266666
-0.00082713
-0.000247548
-7.15363e-05
-1.99734e-05
-5.39139e-06
-1.40774e-06
-3.55756e-07
-8.70498e-08
-2.06209e-08
-4.73293e-09
-1.0614e-09
-2.31597e-10
-5.04904e-11
-1.20738e-11
9.87856e-12
8.78094e-12
0
0
0
0
-4.39047e-12
-9.87856e-12
5.48809e-12
8.78094e-12
0
-6.58571e-12
-1.09762e-12
5.48809e-12
2.19524e-12
0
0
5.48809e-12
2.305e-11
-5.48809e-12
-2.41476e-11
0
1.09762e-12
1.09762e-12
-1.09762e-12
0
0
1.09762e-12
6.58571e-12
-1.09762e-12
-6.5857e-12
1.09762e-12
-1.09762e-12
0
1.09762e-12
0
-1.09762e-12
0
-4501.01
-4217.23
-3703.72
-3051.13
-2360.11
-1716.24
-1174.88
-758.281
-462.14
-266.404
-145.499
-75.4163
-37.1612
-17.4362
-7.80277
-3.33549
-1.36405
-0.534398
-0.200835
-0.0724903
-0.0251577
-0.00840334
-0.00270411
-0.000838971
-0.00025116
-7.25997e-05
-2.02758e-05
-5.47452e-06
-1.42984e-06
-3.61467e-07
-8.85185e-08
-2.09886e-08
-4.81086e-09
-1.07018e-09
-2.21719e-10
-3.40261e-11
-1.09762e-12
0
-3.29285e-12
1.09762e-12
4.39047e-12
-1.09762e-12
0
-3.29285e-12
0
3.29285e-12
0
1.09762e-12
-1.20738e-11
-2.19523e-12
1.31714e-11
1.09762e-12
-4.39047e-12
1.09762e-12
3.29285e-12
1.4269e-11
0
-1.75619e-11
0
3.29285e-12
0
9.87856e-12
0
-9.87856e-12
0
1.64643e-11
1.09762e-12
-1.64643e-11
-1.09762e-12
2.19524e-12
5.48809e-12
-2.19524e-12
-5.48809e-12
0
0
-4494.54
-4212.4
-3701.42
-3051.29
-2361.98
-1718.88
-1177.52
-760.484
-463.757
-267.476
-146.152
-75.7862
-37.357
-17.5337
-7.84866
-3.35597
-1.37274
-0.53792
-0.202199
-0.0729965
-0.025338
-0.00846508
-0.00272446
-0.000845434
-0.00025314
-7.31852e-05
-2.04431e-05
-5.52071e-06
-1.44218e-06
-3.64659e-07
-8.93175e-08
-2.11994e-08
-4.86793e-09
-1.0592e-09
-2.10743e-10
-3.62214e-11
-1.09762e-12
-1.09762e-12
-5.48809e-12
-4.39047e-12
5.48809e-12
5.48809e-12
2.19523e-12
-1.09762e-12
0
0
-4.39047e-12
0
2.19523e-12
-3.29285e-12
0
3.29285e-12
2.19523e-12
1.09762e-12
0
2.19523e-12
-1.09762e-12
-2.19523e-12
-2.19523e-12
1.09762e-12
1.09762e-12
0
-1.09762e-12
-1.09762e-12
1.09762e-12
1.09762e-12
1.09762e-12
-1.09762e-12
0
0
1.09762e-12
-6.5857e-12
0
5.48809e-12
0
-4491.66
-4210.22
-3700.34
-3051.3
-2362.77
-1720.05
-1178.72
-761.502
-464.514
-267.985
-146.466
-75.9653
-37.4526
-17.5816
-7.87137
-3.36617
-1.3771
-0.539693
-0.202889
-0.0732538
-0.02543
-0.00849674
-0.00273493
-0.000848777
-0.000254168
-7.34906e-05
-2.05308e-05
-5.54501e-06
-1.4487e-06
-3.66351e-07
-8.97225e-08
-2.12905e-08
-4.90855e-09
-1.07786e-09
-2.19523e-10
-4.60999e-11
-1.64643e-11
-8.78094e-12
1.4269e-11
2.52452e-11
0
-1.53666e-11
1.09762e-12
0
-1.09762e-12
-1.09762e-12
-5.48809e-12
0
4.39047e-12
1.09762e-12
0
0
0
1.09762e-12
1.09762e-12
-2.19523e-12
0
-1.09762e-12
-1.09762e-12
3.29285e-12
1.4269e-11
-2.19523e-12
-1.31714e-11
0
-9.87856e-12
-2.08547e-11
8.78094e-12
2.19523e-11
0
0
0
0
-2.19524e-12
-3.29285e-12
5.48809e-12
-4490.43
-4209.28
-3699.85
-3051.28
-2363.1
-1720.55
-1179.25
-761.952
-464.854
-268.215
-146.609
-76.0479
-37.497
-17.6041
-7.88207
-3.371
-1.37917
-0.540541
-0.203221
-0.0733779
-0.0254747
-0.00851215
-0.00274006
-0.000850418
-0.000254675
-7.36419e-05
-2.05743e-05
-5.55717e-06
-1.45198e-06
-3.67188e-07
-8.99399e-08
-2.133e-08
-4.90196e-09
-1.1064e-09
-2.39281e-10
-4.17095e-11
-2.19524e-12
1.09762e-12
0
2.19524e-12
0
3.29285e-12
8.78094e-12
-5.48809e-12
-7.68332e-12
1.09762e-12
5.48809e-12
-1.09762e-12
-6.58571e-12
0
2.19524e-12
1.09762e-12
-2.19523e-12
-1.09762e-12
0
0
0
0
0
2.19524e-12
-2.19524e-12
6.5857e-12
0
-1.86595e-11
-4.39047e-12
9.87856e-12
3.29285e-12
3.29285e-12
1.09762e-12
0
-1.09762e-12
0
0
1.09762e-12
-1.09762e-12
-4489.92
-4208.88
-3699.64
-3051.26
-2363.23
-1720.75
-1179.47
-762.143
-464.999
-268.315
-146.672
-76.0843
-37.5167
-17.6141
-7.88686
-3.37318
-1.38011
-0.540927
-0.203372
-0.073435
-0.0254952
-0.00851928
-0.00274244
-0.000851184
-0.000254913
-7.3713e-05
-2.05949e-05
-5.56294e-06
-1.45355e-06
-3.67593e-07
-9.00178e-08
-2.13717e-08
-4.9294e-09
-1.1075e-09
-2.26109e-10
-1.64643e-11
2.19523e-12
-1.09762e-11
-2.19523e-12
-6.5857e-12
0
5.48809e-12
-2.19523e-12
0
2.19523e-12
-2.19523e-12
1.09762e-12
3.29285e-12
-1.09762e-12
0
1.09762e-12
0
-2.19523e-12
1.09762e-12
0
-1.09762e-12
-8.78094e-12
-8.78094e-12
4.39047e-12
8.78094e-12
4.39047e-12
0
-1.20738e-11
-1.09762e-12
1.31714e-11
2.19523e-12
-2.19523e-12
-1.09762e-12
1.09762e-12
-1.09762e-12
-4.39047e-12
-7.68332e-12
3.29285e-12
1.31714e-11
-3.29285e-12
-4489.72
-4208.73
-3699.56
-3051.25
-2363.28
-1720.84
-1179.55
-762.221
-465.059
-268.357
-146.698
-76.0996
-37.525
-17.6183
-7.88892
-3.37411
-1.38051
-0.541095
-0.203439
-0.0734599
-0.0255043
-0.00852243
-0.00274349
-0.000851524
-0.000255019
-7.37448e-05
-2.06041e-05
-5.56554e-06
-1.45426e-06
-3.67773e-07
-9.00573e-08
-2.13706e-08
-4.93379e-09
-1.11189e-09
-2.27207e-10
-2.74404e-11
0
0
0
0
-8.78094e-12
-1.09762e-12
9.87856e-12
-4.39047e-12
-5.48809e-12
5.48809e-12
4.39047e-12
0
0
0
0
0
2.19523e-12
0
-2.19524e-12
5.48809e-12
0
-5.48809e-12
1.09762e-12
0
-2.19524e-12
0
1.09762e-12
0
4.39047e-12
0
-4.39047e-12
-1.09762e-12
0
-4.39047e-12
4.39047e-12
5.48809e-12
-4.39047e-12
1.09762e-12
-1.09762e-12
-4489.64
-4208.66
-3699.53
-3051.25
-2363.3
-1720.87
-1179.59
-762.252
-465.083
-268.373
-146.708
-76.1057
-37.5284
-17.6201
-7.88976
-3.3745
-1.38068
-0.541165
-0.203466
-0.0734704
-0.0255081
-0.00852376
-0.00274394
-0.000851668
-0.000255064
-7.37584e-05
-2.06081e-05
-5.56664e-06
-1.45455e-06
-3.67842e-07
-9.00782e-08
-2.13959e-08
-4.93708e-09
-1.09323e-09
-2.23914e-10
-4.39047e-11
5.48809e-12
0
-5.48809e-12
7.68332e-12
1.09762e-12
-1.4269e-11
0
1.4269e-11
-5.48809e-12
2.19524e-12
5.48809e-12
-7.68332e-12
0
6.5857e-12
-3.29285e-12
-9.87856e-12
3.29285e-12
-5.48809e-12
-2.19524e-12
1.53666e-11
-1.09762e-12
0
5.48809e-12
1.09762e-12
-8.78094e-12
-1.09762e-12
5.48809e-12
8.78094e-12
0
-8.78094e-12
0
-4.39047e-12
0
-6.58571e-12
-1.09762e-12
9.87856e-12
9.87856e-12
1.09762e-12
-8.78094e-12
-4489.61
-4208.64
-3699.51
-3051.25
-2363.3
-1720.88
-1179.6
-762.263
-465.092
-268.379
-146.713
-76.1081
-37.5297
-17.6207
-7.89009
-3.37465
-1.38075
-0.541192
-0.203477
-0.0734746
-0.0255096
-0.00852429
-0.00274412
-0.000851727
-0.000255082
-7.3764e-05
-2.06097e-05
-5.56709e-06
-1.45467e-06
-3.67872e-07
-9.00892e-08
-2.13959e-08
-4.94696e-09
-1.1075e-09
-2.08547e-10
-2.41476e-11
3.29285e-12
0
-5.48809e-12
0
-1.09762e-12
1.09762e-12
1.09762e-12
-1.09762e-12
0
0
3.29285e-12
0
-4.39047e-12
0
1.09762e-12
0
-1.09762e-12
1.09762e-12
-4.39047e-12
-1.09762e-12
6.5857e-12
8.78094e-12
-1.09762e-12
-8.78094e-12
0
0
-2.19523e-12
4.39047e-12
2.19523e-12
-5.48809e-12
-2.19523e-12
0
2.19523e-12
-6.5857e-12
-4.39047e-12
6.5857e-12
4.39047e-12
8.78094e-12
-7.68332e-12
-4489.6
-4208.63
-3699.51
-3051.25
-2363.3
-1720.88
-1179.61
-762.267
-465.095
-268.382
-146.714
-76.109
-37.5302
-17.621
-7.89022
-3.37471
-1.38077
-0.541203
-0.203481
-0.0734762
-0.0255102
-0.0085245
-0.00274419
-0.00085175
-0.000255089
-7.37661e-05
-2.06103e-05
-5.56728e-06
-1.45472e-06
-3.67895e-07
-9.01221e-08
-2.13838e-08
-4.91733e-09
-1.08006e-09
-2.10743e-10
-4.71976e-11
-4.39047e-12
4.39047e-12
-4.39047e-12
0
-4.39047e-12
0
1.4269e-11
-1.53666e-11
-4.39047e-12
1.4269e-11
0
1.09762e-12
0
-1.09762e-12
1.09762e-12
0
-1.09762e-12
0
2.19524e-12
0
-1.09762e-12
0
-1.09762e-12
0
0
1.09762e-12
-1.09762e-12
0
0
0
-1.09762e-12
0
1.09762e-12
-1.4269e-11
4.39047e-12
9.87856e-12
-3.29285e-12
4.39047e-12
-1.09762e-12
-4489.6
-4208.63
-3699.51
-3051.25
-2363.3
-1720.88
-1179.61
-762.269
-465.096
-268.382
-146.715
-76.1093
-37.5304
-17.6211
-7.89026
-3.37473
-1.38078
-0.541207
-0.203483
-0.0734768
-0.0255104
-0.00852458
-0.00274421
-0.000851758
-0.000255092
-7.37669e-05
-2.06106e-05
-5.56733e-06
-1.45471e-06
-3.67899e-07
-9.01232e-08
-2.13805e-08
-4.91623e-09
-1.08993e-09
-2.17328e-10
-3.29285e-11
-1.09762e-12
-1.09762e-12
1.09762e-12
1.09762e-12
0
1.09762e-12
-1.09762e-12
-1.64643e-11
0
1.53666e-11
0
0
1.09762e-12
-1.09762e-12
1.09762e-12
0
-1.09762e-12
-1.09762e-12
0
1.09762e-12
-1.09762e-12
0
1.09762e-12
0
-3.29285e-12
0
3.29285e-12
0
1.09762e-12
8.78094e-12
0
-9.87856e-12
0
0
9.87856e-12
3.29285e-12
-1.4269e-11
-2.19523e-12
3.29285e-12
-4489.59
-4208.63
-3699.51
-3051.25
-2363.31
-1720.88
-1179.61
-762.269
-465.097
-268.383
-146.715
-76.1094
-37.5305
-17.6211
-7.89028
-3.37474
-1.38078
-0.541208
-0.203483
-0.073477
-0.0255105
-0.0085246
-0.00274422
-0.000851761
-0.000255093
-7.37672e-05
-2.06106e-05
-5.56735e-06
-1.45473e-06
-3.67885e-07
-9.00935e-08
-2.13904e-08
-4.91952e-09
-1.09542e-09
-2.28304e-10
-2.96357e-11
-1.09762e-12
0
0
0
5.48809e-12
-1.09762e-12
-5.48809e-12
1.09762e-12
1.09762e-12
1.09762e-11
-1.09762e-12
-2.19523e-12
0
-8.78094e-12
0
0
0
1.09762e-12
1.09762e-12
-2.19523e-12
1.09762e-12
-1.09762e-12
2.19523e-12
-2.19523e-12
-1.09762e-11
3.29285e-12
7.68332e-12
-8.78094e-12
-1.09762e-11
9.87856e-12
9.87856e-12
5.48809e-12
-1.09762e-12
-4.39047e-12
0
-1.09762e-12
0
0
1.09762e-12
-4489.59
-4208.63
-3699.51
-3051.25
-2363.31
-1720.88
-1179.61
-762.269
-465.097
-268.383
-146.715
-76.1095
-37.5305
-17.6211
-7.89028
-3.37474
-1.38079
-0.541209
-0.203484
-0.0734771
-0.0255105
-0.00852461
-0.00274423
-0.000851762
-0.000255093
-7.37673e-05
-2.06107e-05
-5.56736e-06
-1.45474e-06
-3.67903e-07
-9.00892e-08
-2.13552e-08
-4.91074e-09
-1.09981e-09
-2.26109e-10
-3.18309e-11
-9.87856e-12
0
8.78094e-12
0
5.48809e-12
0
-6.58571e-12
0
-9.87856e-12
2.19524e-12
8.78094e-12
-1.09762e-12
-8.78094e-12
1.09762e-12
7.68332e-12
0
0
1.09762e-12
2.19524e-12
1.86595e-11
-4.39047e-12
-1.75619e-11
1.09762e-12
0
-1.09762e-11
-1.09762e-12
1.31714e-11
0
-2.19523e-12
0
1.09762e-12
-1.09762e-12
0
-2.19524e-12
-2.19523e-12
6.58571e-12
-3.29285e-12
-7.68332e-12
8.78094e-12
-4489.59
-4208.63
-3699.51
-3051.25
-2363.31
-1720.89
-1179.61
-762.269
-465.097
-268.383
-146.715
-76.1095
-37.5305
-17.6211
-7.89028
-3.37474
-1.38079
-0.541209
-0.203484
-0.0734771
-0.0255105
-0.00852462
-0.00274423
-0.000851762
-0.000255093
-7.37673e-05
-2.06107e-05
-5.56736e-06
-1.45475e-06
-3.67919e-07
-9.00946e-08
-2.13476e-08
-4.8833e-09
-1.08006e-09
-2.45866e-10
-4.82952e-11
-7.68332e-12
5.48809e-12
5.48809e-12
1.09762e-12
6.5857e-12
-1.09762e-12
-6.58571e-12
-4.39047e-12
0
4.39047e-12
-3.29285e-12
2.19524e-12
3.29285e-12
-2.19523e-12
2.19524e-12
0
1.09762e-12
0
-3.29285e-12
9.87856e-12
0
-9.87856e-12
0
0
0
0
-1.64643e-11
0
1.64643e-11
0
1.09762e-12
0
0
-1.31714e-11
0
1.20738e-11
-3.29285e-12
1.09762e-12
2.19524e-12
-4489.59
-4208.63
-3699.51
-3051.25
-2363.31
-1720.89
-1179.61
-762.269
-465.097
-268.383
-146.715
-76.1095
-37.5305
-17.6211
-7.89028
-3.37474
-1.38079
-0.541209
-0.203484
-0.0734771
-0.0255105
-0.00852462
-0.00274423
-0.000851762
-0.000255093
-7.37673e-05
-2.06107e-05
-5.56737e-06
-1.45476e-06
-3.67916e-07
-9.00826e-08
-2.13278e-08
-4.8833e-09
-1.09323e-09
-2.41476e-10
-4.60999e-11
-1.09762e-12
0
0
-1.09762e-12
-1.09762e-12
3.29285e-12
-2.19523e-12
-3.29285e-12
2.19523e-12
1.09762e-12
0
0
0
0
1.09762e-12
0
-1.09762e-12
1.09762e-12
0
-1.09762e-12
-7.68332e-12
-1.09762e-12
7.68332e-12
1.09762e-12
0
0
0
-1.09762e-12
-4.39047e-12
1.20738e-11
4.39047e-12
-1.09762e-11
-2.19523e-12
-1.09762e-12
2.19523e-12
0
0
-1.09762e-11
1.20738e-11
-4489.59
-4208.63
-3699.51
-3051.25
-2363.31
-1720.89
-1179.61
-762.269
-465.097
-268.383
-146.715
-76.1095
-37.5305
-17.6211
-7.89028
-3.37474
-1.38079
-0.541209
-0.203484
-0.0734771
-0.0255105
-0.00852462
-0.00274423
-0.000851763
-0.000255093
-7.37673e-05
-2.06107e-05
-5.56737e-06
-1.45475e-06
-3.67917e-07
-9.0099e-08
-2.13421e-08
-4.88111e-09
-1.07896e-09
-2.35988e-10
-5.26856e-11
-5.48809e-12
0
0
0
0
1.09762e-12
0
-1.09762e-12
0
1.09762e-12
-3.29285e-12
-1.09762e-12
4.39047e-12
0
0
5.48809e-12
0
-7.68332e-12
3.29285e-12
2.19523e-12
7.68332e-12
1.09762e-12
-1.20738e-11
0
-1.09762e-12
-1.09762e-12
-2.19524e-12
0
1.75619e-11
0
-1.4269e-11
0
1.09762e-12
-5.48809e-12
-2.19523e-12
6.58571e-12
-1.09762e-12
-1.09762e-12
2.19524e-12
-4489.59
-4208.63
-3699.51
-3051.25
-2363.31
-1720.89
-1179.61
-762.269
-465.097
-268.383
-146.715
-76.1095
-37.5305
-17.6211
-7.89028
-3.37474
-1.38079
-0.541209
-0.203484
-0.0734771
-0.0255105
-0.00852462
-0.00274423
-0.000851763
-0.000255093
-7.37673e-05
-2.06107e-05
-5.56736e-06
-1.45474e-06
-3.67921e-07
-9.01023e-08
-2.13618e-08
-4.89537e-09
-1.07896e-09
-2.28304e-10
-3.51238e-11
3.29285e-12
-2.19524e-12
2.19524e-12
0
1.09762e-12
-1.09762e-12
-3.29285e-12
2.19523e-12
-2.19524e-12
-1.09762e-12
-3.29285e-12
-1.09762e-12
6.58571e-12
-5.48809e-12
-8.78094e-12
5.48809e-12
8.78094e-12
-1.31714e-11
6.58571e-12
1.53666e-11
-2.19524e-12
-3.29285e-12
-5.48809e-12
2.19524e-12
1.09762e-12
-3.29285e-12
4.39047e-12
4.39047e-12
-4.39047e-12
-2.19524e-12
0
0
0
0
0
0
1.09762e-12
1.09762e-12
-2.19524e-12
-4489.59
-4208.63
-3699.51
-3051.25
-2363.31
-1720.89
-1179.61
-762.269
-465.097
-268.383
-146.715
-76.1095
-37.5305
-17.6211
-7.89028
-3.37474
-1.38079
-0.541209
-0.203484
-0.0734771
-0.0255105
-0.00852462
-0.00274423
-0.000851762
-0.000255093
-7.37673e-05
-2.06107e-05
-5.56738e-06
-1.45476e-06
-3.67916e-07
-9.00902e-08
-2.13574e-08
-4.90745e-09
-1.06688e-09
-2.14035e-10
-4.06118e-11
-4.39047e-12
-9.87856e-12
-1.09762e-12
0
-1.09762e-12
-1.09762e-12
0
0
1.75619e-11
1.09762e-12
-2.08547e-11
0
3.29285e-12
0
-2.19523e-12
-1.09762e-12
3.29285e-12
0
0
0
8.78094e-12
-2.19523e-12
-5.48809e-12
1.09762e-12
-2.19523e-12
0
2.19523e-12
-2.19523e-12
-2.19523e-12
4.39047e-12
1.09762e-12
-3.29285e-12
0
0
2.19523e-12
0
-2.19523e-12
-5.48809e-12
5.48809e-12
-4489.59
-4208.63
-3699.51
-3051.25
-2363.31
-1720.89
-1179.61
-762.269
-465.097
-268.383
-146.715
-76.1095
-37.5305
-17.6211
-7.89028
-3.37474
-1.38079
-0.541209
-0.203484
-0.0734771
-0.0255105
-0.00852462
-0.00274423
-0.000851762
-0.000255093
-7.37673e-05
-2.06107e-05
-5.56737e-06
-1.45477e-06
-3.67909e-07
-9.00935e-08
-2.13596e-08
-4.89757e-09
-1.06798e-09
-2.41476e-10
-6.25642e-11
-4.39047e-12
-5.48809e-12
5.48809e-12
0
1.09762e-12
-1.09762e-12
0
0
1.09762e-12
0
3.29285e-12
0
-4.39047e-12
0
0
0
0
0
0
2.19523e-12
0
-1.09762e-12
0
0
-2.19524e-12
0
-4.39047e-12
-1.09762e-12
5.48809e-12
1.09762e-12
0
2.19523e-12
-1.09762e-12
-6.58571e-12
0
2.19524e-12
-1.4269e-11
4.39047e-12
1.31714e-11
-4489.59
-4208.63
-3699.51
-3051.25
-2363.31
-1720.89
-1179.61
-762.269
-465.097
-268.383
-146.715
-76.1095
-37.5305
-17.6211
-7.89028
-3.37474
-1.38079
-0.541209
-0.203484
-0.0734771
-0.0255105
-0.00852462
-0.00274423
-0.000851763
-0.000255093
-7.37673e-05
-2.06107e-05
-5.56735e-06
-1.45475e-06
-3.67924e-07
-9.01012e-08
-2.13563e-08
-4.88879e-09
-1.07127e-09
-2.45866e-10
-6.58571e-11
-2.08547e-11
-1.09762e-12
1.31714e-11
2.19524e-12
5.48809e-12
-1.09762e-12
-6.58571e-12
-4.39047e-12
0
5.48809e-12
0
8.78094e-12
2.19524e-12
-1.20738e-11
0
-5.48809e-12
-1.09762e-12
5.48809e-12
0
2.19523e-12
0
1.09762e-12
0
-2.19524e-12
0
-5.48809e-12
-1.75619e-11
4.39047e-12
1.86595e-11
0
-1.09762e-12
1.09762e-12
0
0
0
0
0
8.78094e-12
-8.78094e-12
-4489.59
-4208.63
-3699.51
-3051.25
-2363.31
-1720.89
-1179.61
-762.269
-465.097
-268.383
-146.715
-76.1095
-37.5305
-17.6211
-7.89028
-3.37474
-1.38079
-0.541209
-0.203484
-0.0734771
-0.0255105
-0.00852462
-0.00274423
-0.000851763
-0.000255093
-7.37673e-05
-2.06107e-05
-5.56736e-06
-1.45472e-06
-3.67887e-07
-9.01034e-08
-2.13695e-08
-4.90525e-09
-1.08774e-09
-2.28304e-10
-5.1588e-11
-1.4269e-11
-7.68332e-12
1.09762e-12
8.78094e-12
-1.09762e-12
-1.09762e-12
0
1.09762e-12
1.09762e-12
6.5857e-12
0
1.09762e-12
-2.19523e-12
-8.78094e-12
2.19523e-12
1.09762e-12
2.19523e-12
-1.09762e-12
-2.19523e-12
0
0
0
-1.09762e-12
0
1.09762e-12
-1.09762e-12
0
1.09762e-12
-3.29285e-12
0
3.29285e-12
9.87856e-12
3.29285e-12
-8.78094e-12
-2.41476e-11
-1.09762e-12
1.64643e-11
2.19523e-12
2.19523e-12
-4489.59
-4208.63
-3699.51
-3051.25
-2363.31
-1720.89
-1179.61
-762.269
-465.097
-268.383
-146.715
-76.1095
-37.5305
-17.6211
-7.89028
-3.37474
-1.38079
-0.541209
-0.203484
-0.0734771
-0.0255105
-0.00852462
-0.00274423
-0.000851763
-0.000255093
-7.37673e-05
-2.06107e-05
-5.56734e-06
-1.45472e-06
-3.67904e-07
-9.00957e-08
-2.13563e-08
-4.90086e-09
-1.08115e-09
-2.31597e-10
-5.81737e-11
-9.87856e-12
3.29285e-12
3.29285e-12
4.39047e-12
-3.29285e-12
-2.19524e-12
1.09762e-12
-3.29285e-12
-2.19524e-12
2.305e-11
-1.09762e-12
-1.64643e-11
0
-1.09762e-12
0
1.4269e-11
0
-1.53666e-11
0
1.20738e-11
-1.09762e-12
-9.87856e-12
0
-1.09762e-12
1.09762e-12
0
0
0
0
0
9.87856e-12
2.19523e-12
-9.87856e-12
-6.58571e-12
-1.09762e-12
5.48809e-12
0
0
0
-4489.59
-4208.63
-3699.51
-3051.25
-2363.31
-1720.89
-1179.61
-762.269
-465.097
-268.383
-146.715
-76.1095
-37.5305
-17.6211
-7.89028
-3.37474
-1.38079
-0.541209
-0.203484
-0.0734771
-0.0255105
-0.00852462
-0.00274423
-0.000851763
-0.000255093
-7.37673e-05
-2.06107e-05
-5.56735e-06
-1.45473e-06
-3.67897e-07
-9.00881e-08
-2.1352e-08
-4.89867e-09
-1.08664e-09
-2.22816e-10
-4.39047e-11
-8.78094e-12
0
1.09762e-12
0
-1.09762e-12
0
0
0
0
9.87856e-12
0
-9.87856e-12
0
-2.19523e-12
-9.87856e-12
1.09762e-12
1.09762e-11
1.09762e-12
2.19524e-12
8.78094e-12
-1.31714e-11
-9.87856e-12
1.20738e-11
-1.09762e-12
-4.39047e-12
-3.29285e-12
4.39047e-12
3.29285e-12
0
0
1.09762e-12
-1.09762e-12
7.68332e-12
1.09762e-12
-4.39047e-12
0
-2.19524e-12
0
-2.19524e-12
-4489.59
-4208.63
-3699.51
-3051.25
-2363.31
-1720.89
-1179.61
-762.269
-465.097
-268.383
-146.715
-76.1095
-37.5305
-17.6211
-7.89028
-3.37474
-1.38079
-0.541209
-0.203484
-0.0734771
-0.0255105
-0.00852462
-0.00274423
-0.000851763
-0.000255093
-7.37673e-05
-2.06107e-05
-5.56736e-06
-1.45474e-06
-3.67908e-07
-9.01056e-08
-2.13498e-08
-4.88879e-09
-1.1064e-09
-2.28304e-10
-2.305e-11
0
0
0
-6.5857e-12
0
6.5857e-12
0
-6.5857e-12
0
5.48809e-12
-1.09762e-12
1.09762e-12
0
-5.48809e-12
-3.29285e-12
3.29285e-12
7.68332e-12
0
-2.19523e-12
0
-1.75619e-11
-9.87856e-12
5.48809e-12
5.48809e-12
1.20738e-11
4.39047e-12
-2.19523e-12
0
-7.68332e-12
0
1.4269e-11
0
-4.39047e-12
-7.68332e-12
-1.09762e-12
-1.09762e-12
0
1.64643e-11
-6.5857e-12
-4489.59
-4208.63
-3699.51
-3051.25
-2363.31
-1720.89
-1179.61
-762.269
-465.097
-268.383
-146.715
-76.1095
-37.5305
-17.6211
-7.89028
-3.37474
-1.38079
-0.541209
-0.203484
-0.0734771
-0.0255105
-0.00852462
-0.00274423
-0.000851763
-0.000255093
-7.37673e-05
-2.06107e-05
-5.56735e-06
-1.45474e-06
-3.67932e-07
-9.01265e-08
-2.13706e-08
-4.86793e-09
-1.06359e-09
-2.27207e-10
-3.40261e-11
-1.53666e-11
-1.09762e-12
1.31714e-11
0
3.29285e-12
4.39047e-12
0
-7.68332e-12
-1.09762e-12
1.09762e-12
0
0
-2.19524e-12
-2.19523e-12
4.39047e-12
1.09762e-12
-1.09762e-12
-1.09762e-12
8.78094e-12
3.29285e-12
-1.09762e-11
-9.87856e-12
1.09762e-12
-5.48809e-12
1.09762e-12
1.31714e-11
-5.48809e-12
-1.09762e-12
6.5857e-12
0
1.09762e-12
0
-1.09762e-12
-1.31714e-11
0
6.58571e-12
-4.39047e-12
6.5857e-12
4.39047e-12
-4489.59
-4208.63
-3699.51
-3051.25
-2363.31
-1720.89
-1179.61
-762.269
-465.097
-268.383
-146.715
-76.1095
-37.5305
-17.6211
-7.89028
-3.37474
-1.38079
-0.541209
-0.203484
-0.0734771
-0.0255105
-0.00852462
-0.00274423
-0.000851763
-0.000255093
-7.37673e-05
-2.06107e-05
-5.56735e-06
-1.45474e-06
-3.67929e-07
-9.01166e-08
-2.13706e-08
-4.87123e-09
-1.07896e-09
-2.3489e-10
-2.63428e-11
-9.87856e-12
-7.68332e-12
9.87856e-12
5.48809e-12
0
3.29285e-12
-4.39047e-12
0
-4.39047e-12
0
-5.48809e-12
-1.09762e-12
1.31714e-11
-2.19523e-12
-4.39047e-12
3.29285e-12
-7.68332e-12
1.09762e-12
1.53666e-11
1.09762e-12
-1.75619e-11
8.78094e-12
1.31714e-11
-8.78094e-12
2.19524e-12
0
-2.19524e-12
-1.09762e-12
1.09762e-12
-3.29285e-12
4.39047e-12
4.39047e-12
1.09762e-12
-2.19524e-12
-5.48809e-12
1.09762e-12
1.09762e-12
-1.09762e-12
0
-4489.59
-4208.63
-3699.51
-3051.25
-2363.31
-1720.89
-1179.61
-762.269
-465.097
-268.383
-146.715
-76.1095
-37.5305
-17.6211
-7.89028
-3.37474
-1.38079
-0.541209
-0.203484
-0.0734771
-0.0255105
-0.00852462
-0.00274423
-0.000851763
-0.000255093
-7.37673e-05
-2.06107e-05
-5.56736e-06
-1.45476e-06
-3.67927e-07
-9.01067e-08
-2.13651e-08
-4.89647e-09
-1.08115e-09
-2.25012e-10
-4.28071e-11
-1.09762e-12
7.68332e-12
-5.48809e-12
-8.78094e-12
5.48809e-12
8.78094e-12
-1.4269e-11
-8.78094e-12
1.53666e-11
1.09762e-12
-2.19523e-12
1.09762e-12
-9.87856e-12
0
1.4269e-11
0
-7.68332e-12
1.09762e-12
-1.09762e-11
-1.09762e-12
9.87856e-12
0
3.29285e-12
-1.09762e-12
-2.19523e-12
-1.09762e-12
-5.48809e-12
-2.19523e-12
7.68332e-12
4.39047e-12
1.31714e-11
0
-1.31714e-11
8.78094e-12
1.31714e-11
-1.09762e-11
-1.09762e-11
-1.09762e-12
1.09762e-12
-4489.59
-4208.63
-3699.51
-3051.25
-2363.31
-1720.89
-1179.61
-762.269
-465.097
-268.383
-146.715
-76.1095
-37.5305
-17.6211
-7.89028
-3.37474
-1.38079
-0.541209
-0.203484
-0.0734771
-0.0255105
-0.00852462
-0.00274423
-0.000851763
-0.000255093
-7.37673e-05
-2.06107e-05
-5.56735e-06
-1.45476e-06
-3.6793e-07
-9.01155e-08
-2.13739e-08
-4.90196e-09
-1.07127e-09
-2.39281e-10
-6.25642e-11
-1.09762e-12
-1.09762e-12
1.09762e-12
8.78094e-12
-4.39047e-12
-4.39047e-12
9.87856e-12
-5.48809e-12
-4.39047e-12
9.87856e-12
9.87856e-12
-1.09762e-11
-1.4269e-11
0
7.68332e-12
1.4269e-11
7.68332e-12
-1.4269e-11
0
4.39047e-12
-8.78094e-12
-5.48809e-12
0
0
0
0
0
-3.29285e-12
0
4.39047e-12
0
-1.09762e-12
-8.78094e-12
-6.58571e-12
1.53666e-11
5.48809e-12
-8.78094e-12
0
3.29285e-12
-4489.59
-4208.63
-3699.51
-3051.25
-2363.31
-1720.89
-1179.61
-762.269
-465.097
-268.383
-146.715
-76.1095
-37.5305
-17.6211
-7.89028
-3.37474
-1.38079
-0.541209
-0.203484
-0.0734771
-0.0255105
-0.00852462
-0.00274423
-0.000851763
-0.000255093
-7.37673e-05
-2.06107e-05
-5.56737e-06
-1.45476e-06
-3.67935e-07
-9.01199e-08
-2.13651e-08
-4.88769e-09
-1.08884e-09
-2.55745e-10
-5.04904e-11
3.29285e-12
-1.09762e-12
2.19524e-12
0
0
5.48809e-12
5.48809e-12
-6.5857e-12
-3.29285e-12
1.09762e-12
-1.09762e-12
0
0
-1.09762e-12
8.78094e-12
1.4269e-11
-8.78094e-12
-1.53666e-11
0
1.53666e-11
0
-1.31714e-11
0
-1.09762e-12
-3.29285e-12
-1.09762e-12
4.39047e-12
0
0
0
0
1.09762e-12
-1.09762e-12
-7.68332e-12
1.09762e-12
7.68332e-12
-8.78094e-12
0
7.68332e-12
-4489.59
-4208.63
-3699.51
-3051.25
-2363.31
-1720.89
-1179.61
-762.269
-465.097
-268.383
-146.715
-76.1095
-37.5305
-17.6211
-7.89028
-3.37474
-1.38079
-0.541209
-0.203484
-0.0734771
-0.0255105
-0.00852462
-0.00274423
-0.000851763
-0.000255093
-7.37673e-05
-2.06107e-05
-5.56737e-06
-1.45473e-06
-3.67917e-07
-9.01342e-08
-2.13981e-08
-4.90745e-09
-1.07237e-09
-2.38183e-10
-4.93928e-11
-1.09762e-12
2.19523e-12
1.31714e-11
0
-7.68332e-12
-9.87856e-12
-5.48809e-12
9.87856e-12
0
-1.09762e-12
1.09762e-12
-1.09762e-12
0
0
1.09762e-12
0
0
-1.09762e-12
-9.87856e-12
0
4.39047e-12
0
5.48809e-12
0
-2.19523e-12
5.48809e-12
2.19523e-12
-4.39047e-12
0
-1.09762e-12
0
7.68332e-12
7.68332e-12
-6.5857e-12
-9.87856e-12
-7.68332e-12
-2.19523e-12
3.29285e-12
7.68332e-12
-4489.59
-4208.63
-3699.51
-3051.25
-2363.31
-1720.89
-1179.61
-762.269
-465.097
-268.383
-146.715
-76.1095
-37.5305
-17.6211
-7.89028
-3.37474
-1.38079
-0.541209
-0.203484
-0.0734771
-0.0255105
-0.00852462
-0.00274423
-0.000851763
-0.000255093
-7.37673e-05
-2.06107e-05
-5.56737e-06
-1.45474e-06
-3.67909e-07
-9.01111e-08
-2.13937e-08
-4.93269e-09
-1.09323e-09
-2.27207e-10
-3.84166e-11
-4.39047e-12
0
0
-1.09762e-12
0
1.09762e-12
0
0
1.09762e-12
-1.09762e-12
3.29285e-12
0
-2.19524e-12
0
3.29285e-12
2.19524e-12
-7.68332e-12
-2.19524e-12
3.29285e-12
-1.09762e-12
-1.09762e-12
1.09762e-12
1.09762e-12
0
-1.09762e-12
1.09762e-12
-1.09762e-12
0
-4.39047e-12
0
4.39047e-12
1.09762e-12
4.39047e-12
0
-5.48809e-12
-4.39047e-12