/*--------------------------------*- C++ -*----------------------------------*\
  =========                 |
  \\      /  F ield         | OpenFOAM: The Open Source CFD Toolbox
   \\    /   O peration     | Website:  https://openfoam.org
    \\  /    A nd           | Version:  10
     \\/     M anipulation  |
\*---------------------------------------------------------------------------*/
FoamFile
{
    format      ascii;
    class       volScalarField;
    location    "387";
    object      gradTx;
}
// * * * * * * * * * * * * * * * * * * * * * * * * * * * * * * * * * * * * * //

dimensions      [0 -1 0 1 0 0 0];

internalField   nonuniform List<scalar> 
11250
(
14303.4
8114.49
5327.56
3851.34
2959.36
2364.44
1938.03
1615.99
1363.22
1159.07
990.627
849.408
729.604
627.087
538.824
462.523
396.399
339.027
289.244
246.081
208.713
176.43
148.612
124.715
104.254
86.7997
71.9683
59.4175
48.8423
39.9714
32.5642
26.4083
21.3169
17.1263
13.6944
10.8978
8.63049
6.80169
5.33419
4.16274
3.23248
2.49763
1.9202
1.46888
1.11798
0.846617
0.637878
0.478168
0.356625
0.264622
0.195353
0.14348
0.104842
0.0762164
0.0551228
0.0396625
0.0283919
0.0202196
0.0143256
0.0100975
0.00708073
0.00493969
0.00342829
0.00236706
0.00162586
0.0011109
0.000754976
0.000510185
0.000342572
0.000228176
0.000150146
9.66271e-05
5.92287e-05
3.18936e-05
1.00501e-05
4099.2
4713.26
4018
3268.69
2664.33
2198.3
1836.4
1549.73
1317.87
1126.83
967.02
831.712
716.09
616.612
530.608
456.018
391.211
334.866
285.893
243.373
206.52
174.653
147.171
123.547
103.308
86.0339
71.3497
58.9189
48.4413
39.6498
32.3071
26.2033
21.154
16.9974
13.5927
10.8179
8.56795
6.75294
5.29635
4.13349
3.20997
2.48038
1.90705
1.45889
1.11043
0.840938
0.633626
0.475
0.354275
0.262887
0.194079
0.142548
0.104164
0.0757258
0.0547694
0.0394093
0.0282113
0.0200914
0.0142351
0.0100339
0.00703627
0.00490876
0.00340689
0.00235232
0.00161576
0.00110402
0.00075031
0.000507039
0.000340464
0.000226775
0.000149226
9.6036e-05
5.8867e-05
3.16991e-05
9.98891e-06
1479.63
2622.05
2763.64
2542.7
2232.94
1930.42
1662.23
1431.68
1234.94
1066.81
922.506
798.029
690.183
596.42
514.702
443.382
381.104
326.741
279.336
238.067
202.219
171.162
144.338
121.247
101.444
84.5249
70.1302
57.9354
47.6501
39.015
31.7992
25.7984
20.8322
16.7426
13.3916
10.6599
8.44426
6.65651
5.22149
4.07561
3.16542
2.44625
1.88101
1.43911
1.09548
0.829692
0.625204
0.468723
0.349619
0.25945
0.191554
0.140702
0.102821
0.0747535
0.054069
0.0389072
0.0278532
0.0198373
0.0140556
0.00990782
0.00694809
0.00484742
0.00336443
0.00232308
0.00159573
0.00109036
0.000741051
0.000500796
0.00033628
0.000223994
0.000147399
9.48625e-05
5.81488e-05
3.13127e-05
9.86726e-06
677.101
1532.38
1872.97
1907.08
1796.31
1630.55
1453.12
1282.78
1126.6
986.385
861.718
751.37
653.899
567.897
492.081
425.311
366.587
315.027
269.854
230.374
195.969
166.081
140.207
117.891
98.7195
82.3171
68.3443
56.4939
46.4897
38.0834
31.0536
25.2035
20.3593
16.3679
13.0959
10.4274
8.2622
6.51454
5.11124
3.99037
3.09979
2.39595
1.84263
1.40997
1.07345
0.813108
0.612784
0.459464
0.34275
0.254379
0.187828
0.137978
0.100839
0.0733186
0.0530352
0.0381661
0.0273245
0.019462
0.0137906
0.00972159
0.00681787
0.00475683
0.00330173
0.00227989
0.00156614
0.00107019
0.000727373
0.000491572
0.0003301
0.000219886
0.000144701
9.31285e-05
5.70873e-05
3.07417e-05
9.6874e-06
373.732
958.063
1289.91
1417.89
1416.59
1344.67
1239.53
1122.63
1005.46
893.758
790.105
695.428
609.791
532.841
464.03
402.742
348.348
300.239
257.834
220.589
187.996
159.583
134.913
113.581
95.216
79.4738
66.0415
54.6333
44.9903
36.8786
30.0886
24.4331
19.7464
15.8821
12.7123
10.1257
8.02584
6.33014
4.96799
3.87957
3.01447
2.33053
1.79271
1.37204
1.04477
0.791523
0.596614
0.447409
0.333806
0.247775
0.182975
0.134429
0.0982565
0.0714485
0.0516878
0.0372
0.0266353
0.0189728
0.013445
0.00947874
0.00664806
0.00463868
0.00321994
0.00222356
0.00152753
0.00104388
0.000709528
0.000479538
0.000322036
0.000214524
0.000141179
9.08654e-05
5.57019e-05
2.99964e-05
9.45268e-06
233.718
636.904
911.803
1059.48
1109.4
1094.26
1040.27
965.616
881.948
796.35
712.932
633.955
560.559
493.213
431.992
376.745
327.192
282.983
243.739
209.066
178.573
151.88
128.62
108.447
91.0339
76.0738
63.2835
52.4019
43.19
35.4305
28.9275
23.5054
19.0077
15.2962
12.2494
9.76133
7.74028
6.10726
4.79478
3.74554
2.91122
2.25135
1.73225
1.3261
1.01002
0.765363
0.577013
0.432792
0.322958
0.239763
0.177086
0.130123
0.0951223
0.0691788
0.0500521
0.0360271
0.0257985
0.0183787
0.0130254
0.00918376
0.00644177
0.00449514
0.00312056
0.00215511
0.00148063
0.00101189
0.000687839
0.000464911
0.000312232
0.000208006
0.000136897
8.81139e-05
5.40174e-05
2.90902e-05
9.16725e-06
158.173
444.68
661.981
800.318
869.097
884.895
864.181
820.379
763.36
699.943
634.636
570.314
508.737
450.926
397.416
348.423
303.96
263.909
228.07
196.194
168.004
143.208
121.515
102.635
86.288
72.2074
60.1416
49.8558
41.1327
33.7736
27.5976
22.4416
18.16
14.6232
11.7172
9.34222
7.41158
5.85056
4.59517
3.59101
2.79212
2.15997
1.66247
1.27305
0.969879
0.735135
0.554357
0.415894
0.310414
0.230497
0.170274
0.125139
0.0914949
0.0665512
0.0481583
0.0346689
0.0248292
0.0176905
0.0125392
0.00884199
0.00620273
0.00432879
0.00300539
0.00207577
0.00142624
0.000974815
0.000662689
0.000447948
0.000300863
0.000200447
0.00013193
8.49223e-05
5.20634e-05
2.80388e-05
8.83609e-06
112.675
322.287
492.155
612.125
683.561
714.155
713.592
691.034
654.066
608.499
558.562
507.222
456.492
407.69
361.642
318.825
279.474
243.659
211.333
182.372
156.603
133.818
113.794
96.2992
81.1011
67.972
56.6927
47.0556
38.8666
31.9458
26.1285
21.2652
17.2215
13.8774
11.127
8.87701
7.04646
5.56523
4.37316
3.41904
2.65951
2.05818
1.5847
1.2139
0.92511
0.701408
0.529071
0.397027
0.296405
0.220145
0.162663
0.11957
0.0874398
0.0636134
0.0460404
0.0331497
0.0237449
0.0169204
0.011995
0.00845944
0.00593513
0.00414255
0.00287641
0.00198691
0.00136534
0.00093328
0.000634515
0.000428943
0.000288124
0.000191975
0.000126364
8.1345e-05
4.98731e-05
2.68604e-05
8.4649e-06
83.1141
240.24
373.218
473.826
540.577
576.604
587.318
578.67
556.153
524.375
486.971
446.687
405.529
364.917
325.824
288.885
254.489
222.84
194.013
167.988
144.679
123.954
105.654
89.5977
75.599
63.4675
53.0163
44.0648
36.4418
29.9868
24.5516
20.0008
16.2116
13.074
10.4905
8.37492
6.65207
5.25679
4.13301
3.2329
2.51589
1.94788
1.50038
1.14975
0.876528
0.664796
0.501611
0.37653
0.281181
0.208892
0.154386
0.113512
0.0830281
0.0604164
0.0437351
0.0314958
0.0225642
0.0160818
0.0114023
0.00804266
0.00564354
0.00393957
0.00273583
0.00189004
0.00129893
0.000887989
0.000603789
0.000408215
0.000274228
0.000182734
0.000120292
7.74418e-05
4.7483e-05
2.55744e-05
8.05983e-06
62.8481
182.915
287.594
370.687
429.951
466.306
482.621
482.628
470.158
448.697
421.201
390.049
357.086
323.699
290.897
259.389
229.653
201.985
176.546
153.397
132.522
113.853
97.2837
82.683
69.9042
58.7925
49.1913
40.9463
33.9084
27.9365
22.8987
18.6734
15.15
12.2286
9.81999
7.84543
6.23578
4.93095
3.87912
3.03597
2.36385
1.83104
1.41101
1.08172
0.824987
0.625934
0.472452
0.354758
0.265003
0.19693
0.145585
0.107069
0.0783342
0.0570139
0.0412811
0.0297347
0.0213067
0.0151884
0.0107708
0.00759851
0.00533274
0.00372318
0.00258594
0.00178674
0.0012281
0.000839676
0.000571009
0.000386098
0.000259399
0.00017287
0.00011381
7.32751e-05
4.49314e-05
2.42013e-05
7.62734e-06
48.394
141.523
224.455
292.611
343.787
377.889
396.334
401.397
395.675
381.732
361.88
338.092
311.979
284.813
257.565
230.957
205.501
181.547
159.313
138.914
120.392
103.727
88.8589
75.6977
64.1324
54.0406
45.2934
37.7609
31.3153
25.8339
21.2006
17.3078
14.0563
11.3563
9.12743
7.29796
5.80493
4.59341
3.6159
2.83164
2.20598
1.70964
1.3181
1.01095
0.771345
0.58547
0.442076
0.332066
0.248135
0.184454
0.136402
0.100344
0.0734335
0.0534606
0.0387176
0.0278945
0.0199925
0.0142545
0.0101105
0.00713399
0.00500762
0.00349678
0.00242909
0.00167862
0.00115396
0.000789093
0.000536682
0.000362934
0.000243866
0.000162538
0.000107018
6.89091e-05
4.22576e-05
2.27624e-05
7.17405e-06
37.7712
110.843
176.937
232.681
276.161
306.87
325.417
333.149
331.797
323.203
309.132
291.171
270.676
248.764
226.325
204.048
182.446
161.889
142.624
124.806
108.512
93.763
80.5344
68.7694
58.3887
49.2975
41.3922
34.565
28.708
23.7155
19.4868
15.9271
12.9489
10.4721
8.42443
6.74159
5.36662
4.2497
3.34761
2.62322
2.04483
1.58563
1.22313
0.938568
0.716447
0.544036
0.410957
0.308809
0.23084
0.171656
0.126979
0.09344
0.068401
0.0498104
0.0360834
0.0260031
0.0186412
0.013294
0.00943124
0.00665605
0.00467303
0.00326374
0.0022676
0.00156729
0.00107759
0.000736988
0.000501318
0.000339066
0.000227859
0.000151887
0.000100018
6.44079e-05
3.95007e-05
2.12787e-05
6.70664e-06
29.7807
87.6236
140.566
186.111
222.681
249.645
267.178
276.05
277.397
272.522
262.75
249.328
233.37
215.827
197.485
178.976
160.787
143.283
126.724
111.284
97.0668
84.1182
72.4421
62.009
52.7649
44.6392
37.5501
31.4097
26.1278
21.6149
17.7841
14.5532
11.8451
9.58939
7.72179
6.18484
4.92752
3.90501
3.07832
2.41383
1.8828
1.46085
1.1275
0.865638
0.6611
0.502239
0.379549
0.285325
0.213367
0.15872
0.117451
0.0864569
0.0633086
0.0461157
0.0334162
0.0240874
0.0172722
0.0123206
0.00874268
0.00617144
0.0043337
0.00302734
0.00210375
0.0014543
0.00100008
0.000684088
0.000465407
0.000314825
0.000211599
0.000141068
9.29044e-05
5.98338e-05
3.66988e-05
1.97707e-05
6.23159e-06
23.6597
69.7551
112.335
149.536
180.091
203.374
219.34
228.406
231.306
228.952
222.328
212.398
200.058
186.101
171.205
155.928
140.718
125.921
111.792
98.5127
86.1996
74.9176
64.69
55.508
47.3383
40.1302
33.8206
28.339
23.6111
19.5616
16.1166
13.2052
10.7605
8.7207
7.02934
5.63548
4.49375
3.56414
2.81175
2.20636
1.72211
1.33701
1.03252
0.793154
0.606056
0.460646
0.348276
0.261929
0.195952
0.145822
0.107946
0.0794876
0.0582245
0.0424254
0.0307513
0.0221727
0.0159035
0.0113472
0.00805389
0.00568654
0.00399407
0.00279068
0.00193968
0.00134114
0.000922433
0.000631086
0.00042942
0.000290528
0.000195298
0.000130219
8.57711e-05
5.52463e-05
3.38884e-05
1.82579e-05
5.75498e-06
18.903
55.8204
90.1715
120.555
145.965
165.835
180.017
188.718
192.403
191.709
187.354
180.081
170.598
159.556
147.525
134.99
122.35
109.921
97.9466
86.6042
76.0156
66.2556
57.3613
49.3388
42.1711
35.8234
30.2482
25.39
21.1884
17.5807
14.5047
11.8998
9.70837
7.87679
6.35569
5.10033
4.07069
3.23132
2.5512
2.00339
1.56478
1.21565
0.939371
0.722014
0.551996
0.419771
0.317526
0.238911
0.178809
0.133119
0.0985801
0.0726176
0.0532107
0.0387849
0.0281213
0.0202824
0.0145518
0.0103855
0.00737325
0.00520724
0.00365828
0.00255663
0.00177738
0.00122918
0.000845588
0.00057862
0.00039379
0.000266468
0.000179153
0.000119472
7.87036e-05
5.07003e-05
3.11031e-05
1.67586e-05
5.28258e-06
15.1644
44.8379
72.6113
97.4227
118.477
135.287
147.666
155.696
159.668
160.02
157.279
152.006
144.76
136.066
126.396
116.165
105.719
95.3417
85.2559
75.6301
66.5845
58.1982
50.5162
43.5553
37.3104
31.7594
26.8677
22.5923
18.8844
15.6928
12.9654
10.6509
8.70008
7.06677
5.70815
4.58525
3.66299
2.91022
2.29955
1.80716
1.41252
1.0981
0.849081
0.653006
0.49952
0.380068
0.287637
0.216526
0.162128
0.120752
0.0894579
0.0659231
0.0483229
0.0352344
0.0255554
0.0184375
0.0132321
0.00944635
0.00670828
0.00473884
0.00333003
0.00232778
0.00161865
0.00111964
0.000770392
0.000527268
0.000358909
0.000242908
0.000163341
0.000108945
7.17795e-05
4.62459e-05
2.83735e-05
1.52891e-05
4.81959e-06
12.1996
36.1096
58.5963
78.8496
96.2433
110.367
121.032
128.248
132.192
133.165
131.55
127.771
122.263
115.446
107.709
99.3968
90.808
82.1906
73.7445
65.6246
57.9452
50.7853
44.1936
38.1938
32.7894
27.9679
23.705
19.9679
16.7181
13.9139
11.512
9.46948
7.74465
6.29799
5.09269
4.09501
3.27446
2.60386
2.0592
1.61955
1.26681
0.985514
0.762524
0.5868
0.449138
0.341922
0.258904
0.194992
0.146073
0.108842
0.0806686
0.0594699
0.0436091
0.0318088
0.0230787
0.0166561
0.0119574
0.00853885
0.00606554
0.00428595
0.00301256
0.00210637
0.00146504
0.00101361
0.000697589
0.000477539
0.000325123
0.000220083
0.000148019
9.87424e-05
6.50672e-05
4.19272e-05
2.57268e-05
1.3864e-05
4.37054e-06
9.83213
29.1276
47.3468
63.8681
78.1986
89.9995
99.0929
105.452
109.181
110.485
109.641
106.967
102.802
97.4774
91.3099
84.5858
77.5569
70.437
63.402
56.5912
50.1101
44.0345
38.4137
33.2751
28.6281
24.4676
20.7771
17.5322
14.7029
12.2553
10.1542
8.36376
6.84889
5.57608
4.51388
3.63333
2.9081
2.31463
1.83203
1.44204
1.12882
0.878791
0.680407
0.523941
0.401267
0.305652
0.231565
0.174491
0.130778
0.0974903
0.0722868
0.0533127
0.0391094
0.0285374
0.0207126
0.0149535
0.0107385
0.00767085
0.00545056
0.00385249
0.00270861
0.00189434
0.00131788
0.000912016
0.000627808
0.000429863
0.000292724
0.00019819
0.00013332
8.89521e-05
5.86253e-05
3.77816e-05
2.31858e-05
1.24958e-05
3.93938e-06
7.93169
23.5147
38.2777
51.7414
63.5176
73.3296
81.0188
86.5408
89.9524
91.3928
91.0618
89.199
86.0641
81.9204
77.0219
71.6038
65.8764
60.0216
54.1916
48.5093
43.0703
37.9446
33.1804
28.8064
24.8356
21.2681
18.0935
15.2942
12.8468
10.7245
8.89852
7.33926
6.01749
4.90495
3.97499
3.20289
2.56609
2.04429
1.61947
1.27577
0.999434
0.778631
0.603273
0.464847
0.356229
0.271504
0.205808
0.155164
0.11635
0.0867761
0.0643714
0.0474953
0.034856
0.0254436
0.0184739
0.013342
0.00958445
0.00684864
0.00486782
0.0034416
0.0024204
0.00169322
0.00117827
0.000815596
0.000561566
0.000384592
0.000261951
0.000177392
0.000119352
7.96472e-05
5.25016e-05
3.38402e-05
2.07696e-05
1.11946e-05
3.52934e-06
6.40015
18.986
30.9433
41.9008
51.5533
59.6759
66.1316
70.8698
73.918
75.3695
75.3687
74.0948
71.7474
68.5332
64.6554
60.3055
55.6576
50.8645
46.0563
41.3399
36.7998
32.4997
28.4847
24.7835
21.4111
18.3708
15.657
13.2572
11.1536
9.32502
7.74826
6.39907
5.25319
4.28701
3.47806
2.80542
2.24986
1.79403
1.42246
1.1215
0.87927
0.685522
0.531506
0.40982
0.314256
0.239658
0.18177
0.137115
0.102869
0.0767584
0.0569664
0.0420501
0.0308728
0.022545
0.0163755
0.0118308
0.00850178
0.00607701
0.00432073
0.00305572
0.00214963
0.00150422
0.00104702
0.00072493
0.00049926
0.000342
0.000232993
0.000157814
0.000106201
7.08846e-05
4.67336e-05
3.0127e-05
1.8493e-05
9.96845e-06
3.14295e-06
5.16252
15.3226
24.9987
33.9024
41.7933
48.49
53.8766
57.9023
60.5769
61.9625
62.163
61.3123
59.5635
57.0781
54.0179
50.5378
46.7804
42.8732
38.9259
35.0303
31.2601
27.6721
24.3073
21.1934
18.3458
15.7703
13.4645
11.4198
9.62284
8.05719
6.70418
5.54411
4.55699
3.72323
3.02402
2.44174
1.96014
1.56447
1.24154
0.979678
0.768688
0.599756
0.46534
0.359043
0.275496
0.210226
0.159539
0.120411
0.0903841
0.0674762
0.0501012
0.0369991
0.027176
0.0198535
0.0144262
0.0104263
0.00749518
0.00535932
0.00381169
0.00269655
0.00189752
0.00132818
0.000924738
0.000640431
0.000441174
0.000302283
0.000205981
0.000139549
9.39288e-05
6.27054e-05
4.13485e-05
2.66597e-05
1.63668e-05
8.82319e-06
2.78201e-06
4.1606
12.3545
20.1742
27.3955
33.8288
39.3285
43.7978
47.1893
49.5025
50.7782
51.091
50.5409
49.2448
47.3289
44.9211
42.146
39.1199
35.9478
32.7216
29.5192
26.404
23.4256
20.621
18.0157
15.6251
13.4559
11.5083
9.77659
8.25095
6.91859
5.76473
4.77344
3.92839
3.21338
2.6128
2.11191
1.69704
1.35575
1.07686
0.850443
0.667818
0.521448
0.404872
0.312601
0.240016
0.183265
0.13916
0.105088
0.0789242
0.0589505
0.0437919
0.0323546
0.023775
0.0173761
0.012631
0.00913238
0.0065674
0.00469755
0.00334213
0.00236511
0.0016648
0.00116562
0.000811785
0.000562354
0.000387488
0.000265563
0.000181002
0.000122653
8.25739e-05
5.5136e-05
3.63638e-05
2.34496e-05
1.4398e-05
7.76259e-06
2.4477e-06
3.34876
9.94773
16.2567
22.1009
27.331
31.8305
35.5194
38.3555
40.3325
41.4767
41.8417
41.5019
40.5467
39.0742
37.1852
34.9794
32.5509
29.9859
27.3604
24.7399
22.1783
19.7185
17.3931
15.2252
13.2293
11.4128
9.77728
8.31923
7.0316
5.90459
4.92651
4.08461
3.3656
2.75621
2.24353
1.81531
1.46015
1.16759
0.928226
0.733681
0.57659
0.450558
0.350083
0.270484
0.207814
0.158775
0.120635
0.0911509
0.0684935
0.0511858
0.0380424
0.0281198
0.0206723
0.0151149
0.0109918
0.00795028
0.00571942
0.00409246
0.00291261
0.00206183
0.00145177
0.00101677
0.000708319
0.000490813
0.000338281
0.000231897
0.000158094
0.000107154
7.2155e-05
4.81889e-05
3.17879e-05
2.05022e-05
1.259e-05
6.78853e-06
2.14067e-06
2.69078
7.99591
13.0759
17.7943
22.0337
25.7012
28.7311
31.0868
32.7593
33.7653
34.1429
33.9478
33.2481
32.1196
30.6419
28.8942
26.9521
24.8859
22.7583
20.6235
18.5271
16.5057
14.5875
12.7931
11.1358
9.62316
8.25745
7.0369
5.95649
5.00879
4.18466
3.47392
2.86585
2.34963
1.91465
1.5508
1.24861
0.999363
0.795191
0.629057
0.494763
0.386911
0.300847
0.232604
0.178828
0.136715
0.103936
0.0785778
0.0590778
0.0441722
0.032846
0.0242902
0.0178651
0.013068
0.00950715
0.00687915
0.00495072
0.0035437
0.00252293
0.00178656
0.00125835
0.000881571
0.000614312
0.000425792
0.000293545
0.000201281
0.000137255
9.30512e-05
6.26723e-05
4.18645e-05
2.76213e-05
1.78179e-05
1.09432e-05
5.90117e-06
1.86098e-06
2.15772
6.41381
10.4949
14.2946
17.7204
20.6984
23.1753
25.1199
26.5224
27.3927
27.7583
27.6605
27.1511
26.2889
25.1362
23.7557
22.2081
20.5501
18.8329
17.1015
15.3937
13.7406
12.1663
10.6887
9.32
8.06719
6.93315
5.9172
5.01587
4.22357
3.53323
2.93676
2.42557
1.99089
1.62406
1.31678
1.06121
0.850162
0.677067
0.536061
0.421957
0.330227
0.256958
0.198808
0.152946
0.117002
0.0890027
0.0673264
0.0506462
0.0378878
0.028187
0.0208548
0.0153454
0.0112298
0.00817323
0.00591632
0.00425943
0.00304999
0.0021722
0.00153872
0.00108413
0.000759749
0.000529578
0.000367164
0.000253195
0.000173658
0.000118448
8.03203e-05
5.41098e-05
3.61525e-05
2.38573e-05
1.53925e-05
9.45493e-06
5.09914e-06
1.60812e-06
1.72627
5.1327
8.40309
11.4543
14.2138
16.6228
18.6385
20.2344
21.4011
22.1441
22.4831
22.4488
22.0806
21.4238
20.5272
19.4401
18.211
16.8856
15.5054
14.1071
12.7223
11.3769
10.0912
8.88074
7.75622
6.72419
5.78768
4.94674
4.19905
3.54047
2.96553
2.46789
2.04067
1.67682
1.3693
1.11133
0.896501
0.718864
0.573001
0.454046
0.357684
0.280138
0.218141
0.168891
0.130017
0.0995236
0.0757529
0.0573365
0.0431551
0.0323007
0.0240426
0.017797
0.0131014
0.00959188
0.00698408
0.00505758
0.00364259
0.00260927
0.00185897
0.00131729
0.000928418
0.000650832
0.000453794
0.000314712
0.000217084
0.00014893
0.000101607
6.89166e-05
4.6438e-05
3.10333e-05
2.04831e-05
1.32178e-05
8.12028e-06
4.37979e-06
1.38135e-06
1.37755
4.09683
6.71034
9.15321
11.3686
13.31
14.9429
16.2456
17.209
17.8362
18.1411
18.1465
17.8824
17.3836
16.6881
15.8347
14.862
13.8064
12.7015
11.5772
10.4593
9.36936
8.32452
7.33789
6.4188
5.57315
4.80393
4.11167
3.49489
2.95055
2.47446
2.06166
1.70669
1.4039
1.14762
0.932339
0.75282
0.604199
0.482018
0.382266
0.301375
0.236216
0.184071
0.142612
0.109859
0.0841461
0.0640869
0.0485346
0.0365504
0.0273717
0.020384
0.0150961
0.0111183
0.0081436
0.00593208
0.00429752
0.00309638
0.00221884
0.00158138
0.00112096
0.000790312
0.000554193
0.000386529
0.00026814
0.000185011
0.00012696
8.664e-05
5.87793e-05
3.96163e-05
2.64803e-05
1.74814e-05
1.12827e-05
6.9325e-06
3.73956e-06
1.17951e-06
1.09621
3.26081
5.34323
7.29292
9.06536
10.6239
11.9409
12.9985
13.7888
14.313
14.5809
14.6096
14.4217
14.0441
13.5062
12.8384
12.0712
11.2336
10.3526
9.45245
8.55409
7.67525
6.83022
6.03003
5.28266
4.59335
3.96491
3.39814
2.89214
2.44473
2.05272
1.71224
1.419
1.16849
0.956152
0.777541
0.628413
0.504801
0.403064
0.319912
0.252413
0.197988
0.154392
0.1197
0.0922692
0.070718
0.0538923
0.0408375
0.0307709
0.0230557
0.0171786
0.0127284
0.00937885
0.0068726
0.00500838
0.00362983
0.00261634
0.00187555
0.0013372
0.000948205
0.000668734
0.000469087
0.000327271
0.000227099
0.000156737
0.000107586
7.34379e-05
4.98348e-05
3.35956e-05
2.24608e-05
1.48308e-05
9.57372e-06
5.88329e-06
3.17392e-06
1.00113e-06
0.869722
2.58758
4.24164
5.79258
7.20561
8.45186
9.50939
10.3637
11.0078
11.442
11.6733
11.7141
11.5817
11.2967
10.8818
10.361
9.75795
9.09589
8.39627
7.67856
6.95981
6.25446
5.57429
4.92851
4.32385
3.76488
3.25416
2.79261
2.37976
2.01405
1.69306
1.41382
1.17295
0.966874
0.79196
0.644634
0.521473
0.419264
0.335047
0.266142
0.21015
0.164959
0.128728
0.0998704
0.0770342
0.0590783
0.045049
0.0341561
0.0257506
0.0193044
0.0143908
0.010668
0.00786433
0.00576538
0.0042033
0.0030476
0.00219754
0.00157593
0.00112399
0.000797296
0.000562492
0.00039469
0.00027545
0.000191196
0.000131995
9.06276e-05
6.18779e-05
4.20006e-05
2.83209e-05
1.89385e-05
1.25075e-05
8.07542e-06
4.96327e-06
2.67785e-06
8.44696e-07
0.687839
2.04679
3.3563
4.58581
5.70818
6.7008
7.54626
8.23286
8.75469
9.11146
9.30801
9.35366
9.26139
9.04696
8.72797
8.32296
7.85068
7.32931
6.77595
6.20616
5.63365
5.07013
4.52526
4.00663
3.51989
3.06892
2.65604
2.28217
1.94714
1.64983
1.38846
1.16072
0.963975
0.795415
0.65215
0.531328
0.430199
0.346178
0.276871
0.220105
0.173931
0.136629
0.106695
0.0828324
0.0639334
0.0490617
0.0374334
0.0283981
0.0214214
0.0160674
0.0119838
0.00888802
0.0065552
0.0048078
0.00350668
0.00254356
0.00183482
0.00131631
0.000939167
0.000666427
0.000470322
0.000330122
0.00023046
0.000160015
0.0001105
7.58897e-05
5.18288e-05
3.51882e-05
2.37329e-05
1.58739e-05
1.04857e-05
6.7713e-06
4.16234e-06
2.24597e-06
7.08513e-07
0.542181
1.61361
2.64678
3.618
4.50617
5.29359
5.96654
6.51565
6.93597
7.2269
7.39183
7.43764
7.37413
7.21333
6.9688
6.65492
6.28633
5.87733
5.44141
4.99095
4.53693
4.0888
3.65437
3.23987
2.84999
2.48802
2.15595
1.8547
1.58427
1.34388
1.13221
0.947498
0.787699
0.6506
0.533923
0.435401
0.35284
0.284167
0.22746
0.180965
0.14311
0.112499
0.0879127
0.0682964
0.0527478
0.0405029
0.0309214
0.0234714
0.0177147
0.0132942
0.00992039
0.00736121
0.00543166
0.00398554
0.0029082
0.00211033
0.00152291
0.00109296
0.000780094
0.000553744
0.000390929
0.000274485
0.000191679
0.000133127
9.19586e-05
6.3173e-05
4.31552e-05
2.93067e-05
1.97707e-05
1.32267e-05
8.73885e-06
5.64419e-06
3.47e-06
1.8726e-06
5.90778e-07
0.425884
1.26767
2.07991
2.84428
3.54442
4.16652
4.69981
5.13682
5.47349
5.70906
5.8459
5.8891
5.84603
5.72585
5.53897
5.29653
5.0099
4.69026
4.34825
3.99364
3.63518
3.28043
2.93568
2.60601
2.29526
2.00618
1.74048
1.49902
1.28188
1.08856
0.918071
0.769078
0.640001
0.529114
0.434624
0.35474
0.287721
0.231914
0.185782
0.14792
0.117064
0.0920895
0.072013
0.0559814
0.0432639
0.0332409
0.0253923
0.0192852
0.0145632
0.0109348
0.00816388
0.00606076
0.00447416
0.00328444
0.00239764
0.00174056
0.00125657
0.000902155
0.000644144
0.000457402
0.000323023
0.000226879
0.000158484
0.000110105
7.60774e-05
5.22773e-05
3.57213e-05
2.42644e-05
1.63729e-05
1.09559e-05
7.24002e-06
4.67697e-06
2.87579e-06
1.55209e-06
4.89678e-07
0.333326
0.99229
1.62849
2.2278
2.77754
3.267
3.68775
4.03388
4.30206
4.49155
4.60396
4.64304
4.61435
4.52483
4.38247
4.19584
3.97375
3.72493
3.45768
3.17971
2.89795
2.61839
2.3461
2.08515
1.83869
1.60898
1.39747
1.20493
1.0315
0.876857
0.740279
0.620753
0.517065
0.427874
0.351779
0.287371
0.233274
0.18818
0.150865
0.12021
0.095203
0.074945
0.0586457
0.0456196
0.0352781
0.0271216
0.0207298
0.015753
0.0119022
0.00894143
0.00667898
0.00496077
0.00366383
0.00269077
0.00196511
0.00142715
0.00103071
0.000740285
0.000528761
0.000375601
0.000265343
0.000186427
0.000130267
9.05286e-05
6.25689e-05
4.30066e-05
2.93942e-05
1.99715e-05
1.34794e-05
9.0217e-06
5.96301e-06
3.85274e-06
2.36935e-06
1.2789e-06
4.03479e-07
0.259914
0.773834
1.27027
1.73833
2.16825
2.55174
2.88223
3.15506
3.36756
3.519
3.6105
3.64482
3.62613
3.55968
3.45158
3.30841
3.13697
2.94402
2.73605
2.51909
2.29859
2.07929
1.86523
1.65967
1.46516
1.28353
1.11602
0.963275
0.825485
0.702437
0.593609
0.49824
0.415401
0.344056
0.283114
0.231473
0.188053
0.15182
0.121808
0.0971288
0.0769782
0.0606399
0.0474832
0.0369601
0.0285993
0.0220001
0.016825
0.0127927
0.00967073
0.00726878
0.00543225
0.00403669
0.00298271
0.00219152
0.00160118
0.00116333
0.000840506
0.000603901
0.000431503
0.000306622
0.000216686
0.00015229
0.000106447
7.39966e-05
5.11574e-05
3.51724e-05
2.4046e-05
1.63417e-05
1.10321e-05
7.38537e-06
4.88245e-06
3.15514e-06
1.94061e-06
1.04759e-06
3.30537e-07
0.201894
0.601157
0.987019
1.35113
1.68598
1.98517
2.2436
2.45763
2.62512
2.74542
2.81928
2.84873
2.8369
2.78775
2.70594
2.59649
2.46464
2.31561
2.15444
1.98583
1.81403
1.64279
1.47529
1.31414
1.16137
1.01848
0.886481
0.765931
0.657023
0.55963
0.473376
0.39769
0.331866
0.275108
0.22657
0.185395
0.150738
0.121789
0.0977865
0.0780305
0.0618852
0.0487833
0.038224
0.0297716
0.023051
0.0177424
0.0135765
0.0103284
0.00781198
0.00587468
0.00439254
0.00326563
0.00241407
0.0017745
0.00129704
0.00094274
0.000681399
0.000489768
0.000350079
0.00024885
0.000175918
0.000123677
8.64737e-05
6.01302e-05
4.15826e-05
2.85971e-05
1.95558e-05
1.32934e-05
8.97629e-06
6.01042e-06
3.97427e-06
2.56871e-06
1.58015e-06
8.53075e-07
2.69201e-07
0.156211
0.465176
0.763902
1.046
1.30572
1.53814
1.73932
1.90642
2.03775
2.13274
2.1919
2.21672
2.20952
2.1733
2.11159
2.02822
1.9272
1.81256
1.68817
1.55769
1.42444
1.29134
1.16089
1.03515
0.915752
0.803895
0.7004
0.605746
0.520111
0.443428
0.375426
0.315682
0.26366
0.218752
0.180305
0.147656
0.120147
0.0971454
0.0780566
0.0623306
0.0494676
0.0390204
0.0305939
0.0238436
0.0184721
0.0142263
0.0108921
0.00829068
0.00627399
0.00472047
0.00353124
0.00262653
0.0019425
0.00142849
0.00104457
0.00075954
0.000549198
0.000394894
0.000282367
0.000200787
0.000141988
9.98553e-05
6.9839e-05
4.85774e-05
3.36028e-05
2.31155e-05
1.58113e-05
1.07507e-05
7.26099e-06
4.86291e-06
3.2161e-06
2.07903e-06
1.27912e-06
6.90624e-07
2.17955e-07
0.120379
0.358507
0.588836
0.806498
1.0071
1.18686
1.34277
1.47261
1.57506
1.64964
1.69667
1.71726
1.71313
1.68654
1.64014
1.57687
1.49978
1.41194
1.31635
1.21582
1.11292
1.00993
0.90881
0.811176
0.718312
0.63118
0.550444
0.4765
0.409512
0.349449
0.296119
0.24921
0.208317
0.172976
0.142689
0.116941
0.0952263
0.0770522
0.0619557
0.0495076
0.0393172
0.0310338
0.0243473
0.0189867
0.0147181
0.0113416
0.00868823
0.0066167
0.00500978
0.00377116
0.00282245
0.00210031
0.00155402
0.00114329
0.000836369
0.000608396
0.000440081
0.000316552
0.00022643
0.000161066
0.000113937
8.01534e-05
5.60765e-05
3.90161e-05
2.69964e-05
1.85759e-05
1.27093e-05
8.64364e-06
5.83927e-06
3.91158e-06
2.58745e-06
1.67291e-06
1.0294e-06
5.55874e-07
1.75421e-07
0.0923877
0.275166
0.452024
0.619264
0.773537
0.911969
1.03224
1.13266
1.21217
1.27039
1.30752
1.32437
1.32223
1.30278
1.26802
1.22018
1.16157
1.09455
1.0214
0.944276
0.865174
0.785855
0.707837
0.632386
0.560511
0.492974
0.430307
0.372835
0.320703
0.273902
0.232298
0.195661
0.163687
0.136026
0.112295
0.0921009
0.0750534
0.0607726
0.0488995
0.039101
0.0310729
0.0245419
0.019266
0.0150331
0.0116601
0.00899014
0.00689064
0.00525046
0.00397735
0.00299546
0.00224295
0.00166984
0.00123606
0.000909762
0.000665804
0.000484515
0.000350607
0.000252286
0.000180524
0.000128456
9.08985e-05
6.39662e-05
4.47652e-05
3.1155e-05
2.15631e-05
1.48412e-05
1.01567e-05
6.90922e-06
4.66861e-06
3.12804e-06
2.06957e-06
1.3383e-06
8.23623e-07
4.44815e-07
1.40385e-07
0.0706097
0.210318
0.345549
0.4735
0.591634
0.697765
0.790126
0.867414
0.928815
0.974005
1.00313
1.01676
1.01586
1.00169
0.975747
0.939707
0.895329
0.844396
0.788653
0.729753
0.669219
0.608409
0.548498
0.490468
0.435108
0.383017
0.334618
0.290175
0.249812
0.213533
0.181247
0.152783
0.127916
0.106381
0.0878873
0.0721354
0.0588252
0.0476652
0.0383788
0.0307085
0.0244191
0.0192986
0.015159
0.0118354
0.00918501
0.00708569
0.00543384
0.00414255
0.00313965
0.00236571
0.00177223
0.00131999
0.00097752
0.000719773
0.000526976
0.000383639
0.000277715
0.000199908
0.000143095
0.000101857
7.20998e-05
5.07532e-05
3.5529e-05
2.4734e-05
1.71236e-05
1.17887e-05
8.06971e-06
5.49082e-06
3.71099e-06
2.48692e-06
1.64569e-06
1.06441e-06
6.55156e-07
3.53847e-07
1.11691e-07
0.053737
0.160072
0.263032
0.360503
0.450568
0.531572
0.602173
0.661376
0.708552
0.743441
0.766134
0.777051
0.776894
0.766606
0.747312
0.720267
0.686799
0.648255
0.605961
0.561175
0.515059
0.468654
0.422864
0.378447
0.336014
0.296035
0.258842
0.224647
0.193555
0.165578
0.140653
0.118656
0.0994186
0.0827421
0.0684073
0.0561865
0.0458507
0.0371772
0.0299538
0.0239826
0.0190826
0.0150902
0.0118603
0.0092652
0.00719439
0.00555303
0.0042607
0.00324984
0.00246427
0.0018577
0.0013923
0.00103747
0.000768633
0.0005662
0.000414705
0.000302022
0.000218715
0.000157495
0.000112774
8.0301e-05
5.68597e-05
4.00375e-05
2.80359e-05
1.95232e-05
1.35198e-05
9.31011e-06
6.37458e-06
4.3384e-06
2.93275e-06
1.9658e-06
1.30108e-06
8.41657e-07
5.18123e-07
2.79863e-07
8.83187e-08
0.0407207
0.121307
0.199359
0.273286
0.341647
0.403195
0.456913
0.502047
0.538113
0.564903
0.582475
0.591132
0.591392
0.583954
0.569657
0.549441
0.524302
0.495257
0.463306
0.429403
0.394431
0.359183
0.32435
0.290515
0.258149
0.227616
0.199177
0.173
0.149172
0.127708
0.108565
0.0916544
0.0768508
0.0640055
0.0529538
0.0435235
0.0355409
0.0288366
0.0232485
0.0186256
0.0148291
0.0117335
0.00922737
0.0072124
0.00560344
0.00432733
0.00332195
0.00253507
0.0019232
0.00145049
0.0010876
0.000810781
0.000600938
0.000442851
0.000324489
0.00023641
0.000171263
0.000123369
8.83691e-05
6.2944e-05
4.45836e-05
3.1403e-05
2.19961e-05
1.53215e-05
1.0613e-05
7.31027e-06
5.00653e-06
3.4081e-06
2.30437e-06
1.54494e-06
1.02273e-06
6.61662e-07
4.07376e-07
2.20076e-07
6.94441e-08
0.0307232
0.0915299
0.15044
0.206264
0.25792
0.304472
0.345156
0.379399
0.406833
0.427295
0.440819
0.447624
0.448089
0.442733
0.432178
0.417126
0.398321
0.376527
0.352496
0.326946
0.300546
0.273896
0.247524
0.221873
0.197305
0.174101
0.152464
0.132526
0.114358
0.0979754
0.0833498
0.0704169
0.0590849
0.0492431
0.040768
0.03353
0.0273981
0.0222439
0.0179445
0.014385
0.0114596
0.00907265
0.00713881
0.00558297
0.00433981
0.0033532
0.00257544
0.00196634
0.00149245
0.00112613
0.000844766
0.000630025
0.000467159
0.000344404
0.000252452
0.000183996
0.000133342
9.60862e-05
6.88496e-05
4.90565e-05
3.47579e-05
2.44894e-05
1.71585e-05
1.19551e-05
8.28333e-06
5.707e-06
3.90942e-06
2.66188e-06
1.80021e-06
1.20715e-06
7.99277e-07
5.17173e-07
3.18446e-07
1.72056e-07
5.43035e-08
0.0230782