/*--------------------------------*- C++ -*----------------------------------*\
  =========                 |
  \\      /  F ield         | OpenFOAM: The Open Source CFD Toolbox
   \\    /   O peration     | Website:  https://openfoam.org
    \\  /    A nd           | Version:  10
     \\/     M anipulation  |
\*---------------------------------------------------------------------------*/
FoamFile
{
    format      ascii;
    class       volScalarField;
    location    "387";
    object      T;
}
// * * * * * * * * * * * * * * * * * * * * * * * * * * * * * * * * * * * * * //

dimensions      [0 0 0 1 0 0 0];

internalField   nonuniform List<scalar> 
11250
(
249.863
167.617
139.46
127.083
120.344
116.081
113.106
110.891
109.167
107.783
106.645
105.693
104.887
104.198
103.606
103.094
102.651
102.267
101.934
101.645
101.395
101.179
100.993
100.833
100.697
100.58
100.481
100.397
100.326
100.267
100.218
100.176
100.142
100.114
100.091
100.073
100.058
100.045
100.036
100.028
100.022
100.017
100.013
100.01
100.007
100.006
100.004
100.003
100.002
100.002
100.001
100.001
100.001
100.001
100
100
100
100
100
100
100
100
100
100
100
100
100
100
100
100
100
100
100
100
100
331.56
248.769
202.608
175.62
158.572
146.971
138.575
132.202
127.185
123.126
119.772
116.958
114.569
112.524
110.763
109.239
107.919
106.774
105.779
104.917
104.171
103.526
102.97
102.492
102.083
101.735
101.438
101.188
100.976
100.799
100.651
100.528
100.426
100.342
100.274
100.218
100.173
100.136
100.107
100.083
100.065
100.05
100.038
100.029
100.022
100.017
100.013
100.01
100.007
100.005
100.004
100.003
100.002
100.002
100.001
100.001
100.001
100
100
100
100
100
100
100
100
100
100
100
100
100
100
100
100
100
100
359.175
293.304
246.607
214.248
191.393
174.702
162.076
152.217
144.311
137.832
132.432
127.872
123.983
120.641
117.756
115.255
113.084
111.197
109.558
108.135
106.902
105.837
104.918
104.128
103.451
102.874
102.383
101.968
101.618
101.324
101.079
100.875
100.706
100.568
100.454
100.361
100.286
100.226
100.177
100.138
100.107
100.083
100.064
100.049
100.037
100.028
100.021
100.016
100.012
100.009
100.006
100.005
100.003
100.003
100.002
100.001
100.001
100.001
100
100
100
100
100
100
100
100
100
100
100
100
100
100
100
100
100
371.017
318.69
276.305
243.425
218.117
198.449
182.901
170.38
160.117
151.574
144.372
138.239
132.974
128.428
124.488
121.063
118.082
115.487
113.228
111.266
109.563
108.09
106.819
105.726
104.789
103.989
103.308
102.732
102.247
101.839
101.499
101.216
100.982
100.789
100.631
100.502
100.398
100.313
100.246
100.192
100.149
100.115
100.089
100.068
100.052
100.039
100.029
100.022
100.016
100.012
100.009
100.007
100.005
100.004
100.003
100.002
100.001
100.001
100.001
100
100
100
100
100
100
100
100
100
100
100
100
100
100
100
100
377.231
334.168
296.553
265.103
239.295
218.184
200.826
186.425
174.353
164.135
155.411
147.909
141.42
135.785
130.878
126.597
122.859
119.598
116.754
114.278
112.128
110.265
108.657
107.272
106.084
105.069
104.206
103.475
102.858
102.34
101.907
101.547
101.249
101.004
100.803
100.639
100.506
100.399
100.313
100.244
100.19
100.147
100.113
100.086
100.066
100.05
100.037
100.028
100.021
100.016
100.011
100.008
100.006
100.004
100.003
100.002
100.002
100.001
100.001
100.001
100
100
100
100
100
100
100
100
100
100
100
100
100
100
100
380.983
344.239
310.703
281.235
255.893
234.306
215.956
200.317
186.929
175.407
165.442
156.783
149.235
142.638
136.862
131.803
127.371
123.493
120.104
117.148
114.576
112.345
110.417
108.754
107.328
106.108
105.07
104.189
103.447
102.823
102.301
101.867
101.508
101.212
100.97
100.772
100.612
100.482
100.378
100.295
100.229
100.177
100.136
100.104
100.079
100.06
100.045
100.034
100.025
100.019
100.014
100.01
100.007
100.005
100.004
100.003
100.002
100.001
100.001
100.001
100.001
100
100
100
100
100
100
100
100
100
100
100
100
100
100
383.463
351.152
320.867
293.356
268.879
247.364
228.567
212.174
197.872
185.371
174.423
164.814
156.368
148.938
142.398
136.643
131.584
127.144
123.254
119.853
116.89
114.316
112.086
110.164
108.512
107.098
105.894
104.872
104.01
103.285
102.679
102.174
101.756
101.412
101.13
100.9
100.713
100.562
100.441
100.344
100.267
100.207
100.159
100.122
100.093
100.07
100.053
100.04
100.03
100.022
100.016
100.012
100.009
100.006
100.005
100.003
100.002
100.002
100.001
100.001
100.001
100
100
100
100
100
100
100
100
100
100
100
100
100
100
385.201
356.097
328.356
302.577
279.069
257.904
239
222.194
207.285
194.073
182.365
171.992
162.801
154.662
147.46
141.094
135.477
130.531
126.186
122.38
119.056
116.164
113.657
111.491
109.629
108.034
106.673
105.519
104.543
103.723
103.037
102.466
101.992
101.602
101.282
101.021
100.809
100.638
100.501
100.391
100.304
100.235
100.181
100.138
100.105
100.08
100.06
100.045
100.034
100.025
100.018
100.014
100.01
100.007
100.005
100.004
100.003
100.002
100.001
100.001
100.001
100
100
100
100
100
100
100
100
100
100
100
100
100
100
386.468
359.746
333.992
309.68
287.107
266.408
247.596
230.602
215.314
201.598
189.318
178.34
168.541
159.809
152.041
145.145
139.037
133.641
128.889
124.717
121.066
117.884
115.121
112.732
110.674
108.911
107.405
106.127
105.046
104.137
103.375
102.741
102.216
101.782
101.427
101.136
100.901
100.71
100.558
100.435
100.338
100.262
100.201
100.154
100.117
100.089
100.067
100.05
100.037
100.028
100.021
100.015
100.011
100.008
100.006
100.004
100.003
100.002
100.002
100.001
100.001
100.001
100
100
100
100
100
100
100
100
100
100
100
100
100
387.418
362.503
338.308
315.212
293.484
273.28
254.662
237.625
222.116
208.056
195.351
183.903
173.615
164.393
156.148
148.798
142.263
136.473
131.359
126.859
122.914
119.47
116.474
113.881
111.645
109.726
108.087
106.694
105.515
104.523
103.692
102.999
102.425
101.951
101.562
101.245
100.987
100.778
100.611
100.477
100.371
100.287
100.221
100.169
100.129
100.097
100.073
100.055
100.041
100.031
100.023
100.017
100.012
100.009
100.006
100.005
100.003
100.002
100.002
100.001
100.001
100.001
100
100
100
100
100
100
100
100
100
100
100
100
100
388.144
364.624
341.661
319.565
298.572
278.843
260.466
243.472
227.851
213.563
200.55
188.741
178.064
168.441
159.799
152.062
145.161
139.028
133.597
128.807
124.6
120.92
117.715
114.937
112.538
110.478
108.717
107.219
105.95
104.882
103.986
103.239
102.62
102.108
101.688
101.346
101.067
100.842
100.661
100.516
100.401
100.31
100.239
100.183
100.139
100.106
100.08
100.06
100.045
100.033
100.024
100.018
100.013
100.01
100.007
100.005
100.004
100.003
100.002
100.001
100.001
100.001
100
100
100
100
100
100
100
100
100
100
100
100
100
388.708
366.277
344.294
323.015
302.652
283.357
265.231
248.329
232.667
218.235
205.001
192.919
181.935
171.988
163.017
154.956
147.743
141.314
135.608
130.564
126.125
122.236
118.844
115.899
113.355
111.167
109.295
107.701
106.35
105.212
104.257
103.461
102.8
102.254
101.805
101.439
101.142
100.901
100.708
100.553
100.43
100.332
100.256
100.196
100.149
100.113
100.085
100.064
100.048
100.035
100.026
100.019
100.014
100.01
100.007
100.005
100.004
100.003
100.002
100.001
100.001
100.001
100
100
100
100
100
100
100
100
100
100
100
100
100
389.151
367.58
346.379
325.769
305.937
287.026
269.144
252.356
236.699
222.182
208.793
196.506
185.282
175.075
165.834
157.503
150.026
143.345
137.4
132.135
127.494
123.42
119.863
116.77
114.095
111.793
109.821
108.14
106.716
105.514
104.506
103.664
102.965
102.387
101.913
101.525
101.21
100.955
100.75
100.586
100.456
100.353
100.272
100.208
100.158
100.12
100.091
100.068
100.051
100.038
100.028
100.02
100.015
100.011
100.008
100.006
100.004
100.003
100.002
100.001
100.001
100.001
100
100
100
100
100
100
100
100
100
100
100
100
100
389.502
368.614
348.042
327.978
308.59
290.014
272.356
255.69
240.065
225.503
212.008
199.568
188.158
177.744
168.283
159.729
152.031
145.135
138.987
133.531
128.713
124.479
120.776
117.553
114.762
112.357
110.296
108.538
107.047
105.788
104.731
103.849
103.115
102.509
102.011
101.604
101.273
101.005
100.79
100.617
100.48
100.371
100.286
100.219
100.167
100.126
100.095
100.072
100.053
100.04
100.029
100.022
100.016
100.011
100.008
100.006
100.004
100.003
100.002
100.002
100.001
100.001
100.001
100
100
100
100
100
100
100
100
100
100
100
100
389.782
369.44
349.375
329.757
310.739
292.45
274.993
258.447
242.867
228.287
214.722
202.17
190.617
180.038
170.399
161.662
153.779
146.703
140.381
134.762
129.792
125.418
121.588
118.251
115.358
112.863
110.723
108.896
107.345
106.036
104.935
104.016
103.252
102.62
102.1
101.676
101.33
101.05
100.825
100.645
100.502
100.388
100.299
100.229
100.175
100.132
100.1
100.075
100.056
100.042
100.031
100.023
100.017
100.012
100.009
100.006
100.004
100.003
100.002
100.002
100.001
100.001
100.001
100
100
100
100
100
100
100
100
100
100
100
100
390.006
370.102
350.447
331.193
312.482
294.436
277.156
260.723
245.196
230.615
217.004
204.37
192.707
181.999
172.217
163.329
155.294
148.066
141.599
135.841
130.74
126.246
122.305
118.869
115.887
113.313
111.103
109.216
107.612
106.257
105.118
104.166
103.374
102.719
102.181
101.74
101.381
101.091
100.858
100.671
100.522
100.404
100.311
100.238
100.182
100.138
100.104
100.078
100.058
100.043
100.032
100.023
100.017
100.012
100.009
100.007
100.005
100.003
100.002
100.002
100.001
100.001
100.001
100
100
100
100
100
100
100
100
100
100
100
100
390.186
370.636
351.311
332.355
313.898
296.057
278.93
262.599
247.125
232.555
218.916
206.223
194.477
183.666
173.77
164.759
156.598
149.245
142.655
136.779
131.568
126.97
122.935
119.412
116.353
113.71
111.439
109.499
107.849
106.454
105.281
104.3
103.484
102.808
102.253
101.798
101.428
101.128
100.887
100.693
100.54
100.418
100.322
100.246
100.188
100.142
100.108
100.081
100.06
100.045
100.033
100.024
100.018
100.013
100.009
100.007
100.005
100.003
100.002
100.002
100.001
100.001
100.001
100
100
100
100
100
100
100
100
100
100
100
100
390.332
371.065
352.009
333.296
315.049
297.379
280.384
264.143
248.721
234.166
220.512
207.777
195.968
185.077
175.089
165.979
157.715
150.258
143.565
137.591
132.286
127.6
123.484
119.887
116.761
114.059
111.735
109.748
108.058
106.628
105.425
104.419
103.581
102.887
102.317
101.849
101.469
101.161
100.913
100.714
100.555
100.43
100.331
100.254
100.194
100.147
100.111
100.083
100.062
100.046
100.034
100.025
100.018
100.013
100.01
100.007
100.005
100.004
100.003
100.002
100.001
100.001
100.001
100
100
100
100
100
100
100
100
100
100
100
100
390.449
371.412
352.574
334.058
315.984
298.457
281.573
265.411
250.037
235.501
221.84
209.076
197.218
186.266
176.205
167.015
158.666
151.123
144.346
138.288
132.904
128.144
123.959
120.299
117.116
114.362
111.993
109.966
108.241
106.781
105.552
104.523
103.666
102.957
102.373
101.895
101.505
101.19
100.936
100.732
100.57
100.441
100.34
100.26
100.199
100.151
100.114
100.085
100.064
100.047
100.035
100.026
100.019
100.014
100.01
100.007
100.005
100.004
100.003
100.002
100.001
100.001
100.001
100
100
100
100
100
100
100
100
100
100
100
100
390.543
371.692
353.03
334.676
316.743
299.335
282.544
266.45
251.119
236.603
222.94
210.156
198.263
187.262
177.143
167.889
159.472
151.859
145.01
138.884
133.434
128.612
124.369
120.655
117.423
114.626
112.218
110.156
108.4
106.914
105.663
104.614
103.741
103.018
102.423
101.935
101.537
101.215
100.956
100.748
100.582
100.451
100.347
100.266
100.203
100.154
100.116
100.087
100.065
100.048
100.036
100.026
100.019
100.014
100.01
100.007
100.005
100.004
100.003
100.002
100.001
100.001
100.001
100
100
100
100
100
100
100
100
100
100
100
100
390.619
371.919
353.399
335.175
317.358
300.049
283.336
267.301
252.008
237.511
223.85
211.052
199.132
188.093
177.929
168.623
160.15
152.48
145.574
139.391
133.886
129.011
124.719
120.96
117.687
114.852
112.411
110.32
108.538
107.03
105.759
104.694
103.806
103.071
102.466
101.97
101.565
101.238
100.973
100.762
100.593
100.459
100.354
100.271
100.207
100.157
100.119
100.089
100.066
100.049
100.037
100.027
100.02
100.014
100.01
100.007
100.005
100.004
100.003
100.002
100.001
100.001
100.001
100
100
100
100
100
100
100
100
100
100
100
100
390.681
372.101
353.696
335.58
317.857
300.628
283.981
267.994
252.735
238.256
224.598
211.791
199.851
188.784
178.584
169.237
160.719
153.002
146.049
139.819
134.268
129.35
125.017
121.22
117.912
115.046
112.577
110.46
108.657
107.129
105.841
104.762
103.863
103.118
102.503
102
101.59
101.257
100.989
100.774
100.603
100.467
100.36
100.276
100.21
100.16
100.121
100.091
100.068
100.05
100.037
100.027
100.02
100.015
100.011
100.008
100.005
100.004
100.003
100.002
100.001
100.001
100.001
100
100
100
100
100
100
100
100
100
100
100
100
390.73
372.248
353.937
335.906
318.26
301.097
284.504
268.559
253.328
238.865
225.212
212.399
200.445
189.355
179.127
169.747
161.194
153.438
146.446
140.178
134.59
129.636
125.269
121.441
118.104
115.211
112.718
110.58
108.758
107.214
105.912
104.821
103.911
103.157
102.536
102.026
101.61
101.274
101.002
100.784
100.611
100.473
100.365
100.28
100.213
100.162
100.122
100.092
100.069
100.051
100.038
100.028
100.02
100.015
100.011
100.008
100.006
100.004
100.003
100.002
100.001
100.001
100.001
100
100
100
100
100
100
100
100
100
100
100
100
390.77
372.366
354.13
336.169
318.586
301.477
284.928
269.017
253.81
239.362
225.714
212.898
200.932
189.826
179.575
170.169
161.587
153.802
146.778
140.478
134.859
129.876
125.481
121.626
118.265
115.351
112.837
110.682
108.845
107.286
105.973
104.871
103.953
103.191
102.563
102.048
101.628
101.288
101.014
100.794
100.618
100.479
100.369
100.283
100.216
100.164
100.124
100.093
100.069
100.052
100.038
100.028
100.021
100.015
100.011
100.008
100.006
100.004
100.003
100.002
100.001
100.001
100.001
100
100
100
100
100
100
100
100
100
100
100
100
390.802
372.461
354.285
336.38
318.848
301.783
285.27
269.388
254.201
239.765
226.122
213.305
201.331
190.212
179.944
170.517
161.912
154.102
147.053
140.728
135.084
130.076
125.658
121.782
118.401
115.468
112.938
110.768
108.917
107.348
106.024
104.914
103.988
103.22
102.587
102.067
101.644
101.3
101.023
100.801
100.624
100.484
100.373
100.286
100.218
100.166
100.125
100.094
100.07
100.052
100.039
100.028
100.021
100.015
100.011
100.008
100.006
100.004
100.003
100.002
100.001
100.001
100.001
100
100
100
100
100
100
100
100
100
100
100
100
390.828
372.537
354.41
336.55
319.059
302.029
285.546
269.687
254.518
240.092
226.454
213.635
201.656
190.527
180.246
170.803
162.18
154.35
147.28
140.934
135.27
130.242
125.805
121.911
118.514
115.566
113.022
110.84
108.978
107.399
106.067
104.949
104.017
103.244
102.606
102.083
101.657
101.311
101.032
100.808
100.629
100.488
100.376
100.288
100.22
100.167
100.126
100.095
100.071
100.053
100.039
100.029
100.021
100.015
100.011
100.008
100.006
100.004
100.003
100.002
100.001
100.001
100.001
100
100
100
100
100
100
100
100
100
100
100
100
390.848
372.598
354.509
336.686
319.227
302.226
285.768
269.928
254.772
240.356
226.722
213.903
201.92
190.783
180.491
171.036
162.398
154.552
147.467
141.104
135.423
130.379
125.927
122.019
118.608
115.647
113.092
110.9
109.029
107.442
106.103
104.979
104.042
103.265
102.623
102.097
101.668
101.319
101.039
100.813
100.634
100.491
100.379
100.29
100.222
100.168
100.127
100.095
100.071
100.053
100.039
100.029
100.021
100.015
100.011
100.008
100.006
100.004
100.003
100.002
100.001
100.001
100.001
100
100
100
100
100
100
100
100
100
100
100
100
390.864
372.647
354.589
336.794
319.362
302.384
285.945
270.12
254.976
240.568
226.938
214.119
202.133
190.99
180.691
171.225
162.576
154.718
147.619
141.243
135.549
130.492
126.027
122.107
118.685
115.714
113.15
110.95
109.072
107.478
106.133
105.004
104.063
103.282
102.637
102.108
101.677
101.327
101.045
100.818
100.637
100.494
100.381
100.292
100.223
100.169
100.128
100.096
100.072
100.053
100.039
100.029
100.021
100.015
100.011
100.008
100.006
100.004
100.003
100.002
100.001
100.001
100.001
100
100
100
100
100
100
100
100
100
100
100
100
390.877
372.685
354.652
336.88
319.469
302.509
286.086
270.274
255.14
240.737
227.111
214.293
202.305
191.158
180.852
171.378
162.72
154.852
147.743
141.356
135.651
130.584
126.109
122.179
118.748
115.77
113.198
110.991
109.106
107.507
106.158
105.025
104.08
103.296
102.649
102.118
101.684
101.333
101.049
100.822
100.64
100.496
100.383
100.294
100.224
100.17
100.128
100.097
100.072
100.054
100.04
100.029
100.021
100.016
100.011
100.008
100.006
100.004
100.003
100.002
100.001
100.001
100.001
100
100
100
100
100
100
100
100
100
100
100
100
390.888
372.716
354.702
336.949
319.554
302.609
286.198
270.397
255.27
240.873
227.249
214.432
202.442
191.292
180.981
171.501
162.836
154.96
147.843
141.448
135.734
130.659
126.176
122.238
118.8
115.815
113.237
111.024
109.135
107.531
106.178
105.042
104.094
103.307
102.658
102.125
101.691
101.338
101.053
100.825
100.643
100.498
100.384
100.295
100.225
100.171
100.129
100.097
100.072
100.054
100.04
100.029
100.021
100.016
100.011
100.008
100.006
100.004
100.003
100.002
100.001
100.001
100.001
100
100
100
100
100
100
100
100
100
100
100
100
390.896
372.74
354.741
337.003
319.621
302.688
286.287
270.494
255.373
240.98
227.359
214.542
202.552
191.399
181.084
171.6
162.929
155.047
147.924
141.522
135.801
130.719
126.23
122.286
118.842
115.851
113.269
111.051
109.158
107.551
106.195
105.056
104.106
103.317
102.666
102.132
101.696
101.342
101.057
100.828
100.645
100.5
100.386
100.296
100.226
100.171
100.129
100.097
100.073
100.054
100.04
100.029
100.022
100.016
100.011
100.008
100.006
100.004
100.003
100.002
100.001
100.001
100.001
100
100
100
100
100
100
100
100
100
100
100
100
390.902
372.759
354.772
337.045
319.674
302.75
286.357
270.571
255.455
241.065
227.446
214.63
202.639
191.484
181.167
171.679
163.004
155.117
147.988
141.581
135.855
130.768
126.273
122.325
118.876
115.881
113.295
111.074
109.177
107.567
106.208
105.067
104.115
103.325
102.672
102.137
101.7
101.346
101.06
100.83
100.647
100.501
100.387
100.297
100.226
100.172
100.13
100.098
100.073
100.054
100.04
100.03
100.022
100.016
100.011
100.008
100.006
100.004
100.003
100.002
100.001
100.001
100.001
100
100
100
100
100
100
100
100
100
100
100
100
390.907
372.774
354.797
337.079
319.716
302.799
286.412
270.631
255.519
241.133
227.515
214.699
202.708
191.551
181.232
171.741
163.063
155.172
148.039
141.628
135.898
130.807
126.308
122.356
118.903
115.905
113.315
111.091
109.193
107.58
106.219
105.077
104.123
103.331
102.678
102.141
101.704
101.348
101.062
100.832
100.648
100.502
100.388
100.297
100.227
100.172
100.13
100.098
100.073
100.054
100.04
100.03
100.022
100.016
100.011
100.008
100.006
100.004
100.003
100.002
100.001
100.001
100.001
100
100
100
100
100
100
100
100
100
100
100
100
390.911
372.785
354.816
337.105
319.748
302.837
286.456
270.678
255.57
241.185
227.569
214.754
202.762
191.605
181.284
171.791
163.11
155.216
148.08
141.666
135.932
130.838
126.336
122.38
118.925
115.924
113.332
111.106
109.205
107.591
106.228
105.084
104.129
103.336
102.682
102.145
101.706
101.351
101.064
100.833
100.649
100.503
100.388
100.298
100.227
100.173
100.13
100.098
100.073
100.054
100.04
100.03
100.022
100.016
100.011
100.008
100.006
100.004
100.003
100.002
100.001
100.001
100.001
100
100
100
100
100
100
100
100
100
100
100
100
390.914
372.794
354.831
337.125
319.773
302.867
286.489
270.715
255.609
241.226
227.611
214.796
202.804
191.646
181.324
171.83
163.147
155.251
148.112
141.695
135.96
130.862
126.358
122.4
118.943
115.939
113.345
111.117
109.215
107.599
106.235
105.09
104.134
103.34
102.685
102.147
101.709
101.352
101.065
100.834
100.65
100.504
100.389
100.298
100.228
100.173
100.131
100.098
100.073
100.055
100.04
100.03
100.022
100.016
100.011
100.008
100.006
100.004
100.003
100.002
100.001
100.001
100.001
100
100
100
100
100
100
100
100
100
100
100
100
390.916
372.801
354.842
337.141
319.793
302.89
286.516
270.744
255.64
241.258
227.644
214.83
202.837
191.679
181.356
171.86
163.175
155.278
148.138
141.719
135.981
130.881
126.375
122.416
118.956
115.951
113.355
111.126
109.222
107.606
106.241
105.094
104.138
103.343
102.688
102.15
101.71
101.354
101.066
100.835
100.651
100.505
100.389
100.299
100.228
100.173
100.131
100.098
100.073
100.055
100.04
100.03
100.022
100.016
100.011
100.008
100.006
100.004
100.003
100.002
100.001
100.001
100.001
100
100
100
100
100
100
100
100
100
100
100
100
390.918
372.807
354.851
337.153
319.808
302.908
286.536
270.766
255.663
241.283
227.67
214.856
202.863
191.704
181.38
171.884
163.198
155.299
148.157
141.737
135.998
130.897
126.389
122.428
118.967
115.961
113.364
111.133
109.228
107.611
106.245
105.098
104.141
103.346
102.69
102.151
101.712
101.355
101.067
100.836
100.652
100.505
100.39
100.299
100.228
100.173
100.131
100.098
100.074
100.055
100.04
100.03
100.022
100.016
100.011
100.008
100.006
100.004
100.003
100.002
100.001
100.001
100.001
100
100
100
100
100
100
100
100
100
100
100
100
390.919
372.811
354.858
337.162
319.82
302.922
286.551
270.783
255.682
241.302
227.689
214.876
202.883
191.724
181.399
171.902
163.215
155.316
148.173
141.751
136.011
130.908
126.399
122.437
118.975
115.968
113.37
111.139
109.233
107.615
106.248
105.101
104.143
103.348
102.692
102.153
101.713
101.356
101.068
100.837
100.652
100.505
100.39
100.299
100.228
100.173
100.131
100.098
100.074
100.055
100.04
100.03
100.022
100.016
100.012
100.008
100.006
100.004
100.003
100.002
100.001
100.001
100.001
100.001
100
100
100
100
100
100
100
100
100
100
100
390.921
372.814
354.863
337.169
319.829
302.932
286.563
270.796
255.696
241.317
227.705
214.891
202.899
191.739
181.414
171.916
163.229
155.328
148.185
141.762
136.021
130.918
126.408
122.445
118.982
115.974
113.375
111.143
109.237
107.618
106.251
105.103
104.145
103.35
102.693
102.154
101.714
101.357
101.068
100.837
100.652
100.506
100.39
100.299
100.228
100.174
100.131
100.098
100.074
100.055
100.041
100.03
100.022
100.016
100.012
100.008
100.006
100.004
100.003
100.002
100.001
100.001
100.001
100.001
100
100
100
100
100
100
100
100
100
100
100
390.921
372.816
354.867
337.175
319.836
302.94
286.572
270.806
255.706
241.328
227.716
214.903
202.91
191.751
181.426
171.927
163.239
155.338
148.194
141.77
136.028
130.925
126.414
122.45
118.987
115.978
113.379
111.147
109.24
107.621
106.253
105.105
104.147
103.351
102.694
102.155
101.714
101.357
101.069
100.837
100.653
100.506
100.39
100.299
100.229
100.174
100.131
100.099
100.074
100.055
100.041
100.03
100.022
100.016
100.012
100.008
100.006
100.004
100.003
100.002
100.001
100.001
100.001
100.001
100
100
100
100
100
100
100
100
100
100
100
390.922
372.818
354.87
337.179
319.841
302.947
286.579
270.814
255.715
241.337
227.725
214.912
202.919
191.76
181.434
171.935
163.247
155.346
148.201
141.777
136.034
130.93
126.419
122.455
118.991
115.982
113.382
111.149
109.242
107.623
106.255
105.107
104.148
103.352
102.695
102.155
101.715
101.358
101.069
100.838
100.653
100.506
100.39
100.3
100.229
100.174
100.131
100.099
100.074
100.055
100.041
100.03
100.022
100.016
100.012
100.008
100.006
100.004
100.003
100.002
100.001
100.001
100.001
100.001
100
100
100
100
100
100
100
100
100
100
100
390.922
372.82
354.872
337.182
319.845
302.951
286.585
270.819
255.721
241.344
227.732
214.918
202.926
191.766
181.441
171.942
163.253
155.351
148.206
141.782
136.039
130.934
126.423
122.458
118.994
115.984
113.384
111.151
109.244
107.624
106.256
105.108
104.149
103.353
102.695
102.156
101.715
101.358
101.069
100.838
100.653
100.506
100.391
100.3
100.229
100.174
100.131
100.099
100.074
100.055
100.041
100.03
100.022
100.016
100.012
100.008
100.006
100.004
100.003
100.002
100.001
100.001
100.001
100.001
100
100
100
100
100
100
100
100
100
100
100
390.923
372.821
354.874
337.184
319.848
302.955
286.589
270.824
255.725
241.348
227.737
214.924
202.931
191.771
181.446
171.947
163.258
155.356
148.21
141.786
136.042
130.937
126.425
122.461
118.996
115.986
113.386
111.153
109.245
107.625
106.257
105.108
104.149
103.353
102.696
102.156
101.716
101.358
101.07
100.838
100.653
100.506
100.391
100.3
100.229
100.174
100.131
100.099
100.074
100.055
100.041
100.03
100.022
100.016
100.012
100.008
100.006
100.004
100.003
100.002
100.001
100.001
100.001
100.001
100
100
100
100
100
100
100
100
100
100
100
390.923
372.821
354.875
337.186
319.85
302.957
286.591
270.827
255.729
241.352
227.741
214.927
202.935
191.775
181.449
171.95
163.261
155.359
148.213
141.789
136.045
130.94
126.428
122.462
118.998
115.988
113.387
111.154
109.246
107.626
106.258
105.109
104.15
103.354
102.696
102.157
101.716
101.358
101.07
100.838
100.653
100.507
100.391
100.3
100.229
100.174
100.131
100.099
100.074
100.055
100.041
100.03
100.022
100.016
100.012
100.008
100.006
100.004
100.003
100.002
100.001
100.001
100.001
100.001
100
100
100
100
100
100
100
100
100
100
100
390.923
372.822
354.876
337.187
319.852
302.959
286.594
270.829
255.732
241.355
227.743
214.93
202.938
191.778
181.452
171.953
163.264
155.361
148.216
141.791
136.047
130.941
126.429
122.464
118.999
115.989
113.388
111.155
109.247
107.627
106.258
105.11
104.15
103.354
102.696
102.157
101.716
101.359
101.07
100.838
100.653
100.507
100.391
100.3
100.229
100.174
100.131
100.099
100.074
100.055
100.041
100.03
100.022
100.016
100.012
100.008
100.006
100.004
100.003
100.002
100.001
100.001
100.001
100.001
100
100
100
100
100
100
100
100
100
100
100
390.923
372.822
354.877
337.188
319.853
302.961
286.595
270.831
255.734
241.357
227.745
214.932
202.94
191.78
181.454
171.955
163.266
155.363
148.217
141.792
136.048
130.943
126.43
122.465
119
115.99
113.389
111.155
109.247
107.627
106.259
105.11
104.151
103.354
102.697
102.157
101.716
101.359
101.07
100.838
100.653
100.507
100.391
100.3
100.229
100.174
100.131
100.099
100.074
100.055
100.041
100.03
100.022
100.016
100.012
100.008
100.006
100.004
100.003
100.002
100.001
100.001
100.001
100.001
100
100
100
100
100
100
100
100
100
100
100
390.924
372.823
354.878
337.189
319.854
302.962
286.597
270.833
255.735
241.358
227.747
214.934
202.942
191.782
181.456
171.956
163.267
155.365
148.219
141.793
136.05
130.944
126.431
122.466
119.001
115.99
113.39
111.156
109.248
107.628
106.259
105.11
104.151
103.354
102.697
102.157
101.716
101.359
101.07
100.838
100.653
100.507
100.391
100.3
100.229
100.174
100.131
100.099
100.074
100.055
100.041
100.03
100.022
100.016
100.012
100.008
100.006
100.004
100.003
100.002
100.001
100.001
100.001
100.001
100
100
100
100
100
100
100
100
100
100
100
390.924
372.823
354.878
337.19
319.854
302.963
286.597
270.834
255.736
241.36
227.748
214.935
202.943
191.783
181.457
171.958
163.268
155.366
148.22
141.794
136.05
130.945
126.432
122.466
119.001
115.991
113.39
111.156
109.248
107.628
106.259
105.11
104.151
103.354
102.697
102.157
101.716
101.359
101.07
100.838
100.653
100.507
100.391
100.3
100.229
100.174
100.131
100.099
100.074
100.055
100.041
100.03
100.022
100.016
100.012
100.008
100.006
100.004
100.003
100.002
100.001
100.001
100.001
100.001
100
100
100
100
100
100
100
100
100
100
100
390.924
372.823
354.878
337.19
319.855
302.963
286.598
270.834
255.737
241.36
227.749
214.936
202.944
191.784
181.458
171.958
163.269
155.366
148.22
141.795
136.051
130.945
126.433
122.467
119.002
115.991
113.391
111.157
109.248
107.628
106.26
105.111
104.151
103.355
102.697
102.157
101.717
101.359
101.07
100.838
100.653
100.507
100.391
100.3
100.229
100.174
100.131
100.099
100.074
100.055
100.041
100.03
100.022
100.016
100.012
100.008
100.006
100.004
100.003
100.002
100.001
100.001
100.001
100.001
100
100
100
100
100
100
100
100
100
100
100
390.924
372.823
354.879
337.19
319.855
302.964
286.599
270.835
255.737
241.361
227.75
214.937
202.944
191.784
181.458
171.959
163.27
155.367
148.221
141.795
136.051
130.946
126.433
122.467
119.002
115.992
113.391
111.157
109.249
107.628
106.26
105.111
104.151
103.355
102.697
102.157
101.717
101.359
101.07
100.838
100.654
100.507
100.391
100.3
100.229
100.174
100.131
100.099
100.074
100.055
100.041
100.03
100.022
100.016
100.012
100.008
100.006
100.004
100.003
100.002
100.001
100.001
100.001
100.001
100
100
100
100
100
100
100
100
100
100
100
390.924
372.823
354.879
337.191
319.856
302.964
286.599
270.835
255.738
241.361
227.75
214.937
202.945
191.785
181.459
171.959
163.27
155.367
148.221
141.796
136.052
130.946
126.433
122.467
119.002
115.992
113.391
111.157
109.249
107.628
106.26
105.111
104.151
103.355
102.697
102.157
101.717
101.359
101.07
100.838
100.654
100.507
100.391
100.3
100.229
100.174
100.131
100.099
100.074
100.055
100.041
100.03
100.022
100.016
100.012
100.008
100.006
100.004
100.003
100.002
100.001
100.001
100.001
100.001
100
100
100
100
100
100
100
100
100
100
100
390.924
372.823
354.879
337.191
319.856
302.964
286.599
270.835
255.738
241.362
227.75
214.938
202.945
191.785
181.459
171.96
163.27
155.368
148.221
141.796
136.052
130.946
126.433
122.468
119.002
115.992
113.391
111.157
109.249
107.628
106.26
105.111
104.151
103.355
102.697
102.157
101.717
101.359
101.07
100.838
100.654
100.507
100.391
100.3
100.229
100.174
100.131
100.099
100.074
100.055
100.041
100.03
100.022
100.016
100.012
100.008
100.006
100.004
100.003
100.002
100.001
100.001
100.001
100.001
100
100
100
100
100
100
100
100
100
100
100
390.924
372.823
354.879
337.191
319.856
302.964
286.599
270.836
255.738
241.362
227.751
214.938
202.945
191.785
181.459
171.96
163.271
155.368
148.222
141.796
136.052
130.946
126.434
122.468
119.003
115.992
113.391
111.157
109.249
107.628
106.26
105.111
104.151
103.355
102.697
102.157
101.717
101.359
101.07
100.839
100.654
100.507
100.391
100.3
100.229
100.174
100.131
100.099
100.074
100.055
100.041
100.03
100.022
100.016
100.012
100.008
100.006
100.004
100.003
100.002
100.001
100.001
100.001
100.001
100
100
100
100
100
100
100
100
100
100
100
390.924
372.824
354.879
337.191
319.856
302.964
286.6
270.836
255.738
241.362
227.751
214.938
202.946
191.786
181.46
171.96
163.271
155.368
148.222
141.796
136.052
130.946
126.434
122.468
119.003
115.992
113.391
111.157
109.249
107.628
106.26
105.111
104.151
103.355
102.697
102.157
101.717
101.359
101.07
100.839
100.654
100.507
100.391
100.3
100.229
100.174
100.131
100.099
100.074
100.055
100.041
100.03
100.022
100.016
100.012
100.008
100.006
100.004
100.003
100.002
100.001
100.001
100.001
100.001
100