/*--------------------------------*- C++ -*----------------------------------*\
  =========                 |
  \\      /  F ield         | OpenFOAM: The Open Source CFD Toolbox
   \\    /   O peration     | Website:  https://openfoam.org
    \\  /    A nd           | Version:  10
     \\/     M anipulation  |
\*---------------------------------------------------------------------------*/
FoamFile
{
    format      ascii;
    class       volScalarField;
    location    "474";
    object      gradTx;
}
// * * * * * * * * * * * * * * * * * * * * * * * * * * * * * * * * * * * * * //

dimensions      [0 -1 0 1 0 0 0];

internalField   nonuniform List<scalar> 
11250
(
14307.1
8125.77
5346.16
3876.98
2991.65
2402.88
1982.06
1664.96
1416.44
1215.82
1050.15
910.96
792.441
690.493
602.125
525.092
457.669
398.496
346.48
300.724
260.475
225.095
194.034
166.808
142.993
122.212
104.125
88.4281
74.8478
63.1369
53.0722
44.4529
37.0985
30.8467
25.5526
21.0871
17.3354
14.196
11.5799
9.40873
7.61435
6.13761
4.92741
3.93987
3.13748
2.48831
1.96539
1.54598
1.21105
0.944765
0.733971
0.567838
0.437476
0.335634
0.256423
0.195084
0.147794
0.111497
0.0837591
0.0626564
0.0466722
0.0346182
0.025568
0.0188025
0.0137668
0.0100341
0.00727818
0.0052504
0.00376206
0.00267027
0.00186685
0.00126957
0.000815258
0.000454221
0.00014575
4102.96
4724.48
4036.51
3294.2
2696.44
2236.54
1880.19
1598.45
1370.81
1183.28
1026.24
892.944
778.6
679.688
593.58
518.262
452.163
394.026
342.831
297.732
258.014
223.066
192.357
165.421
141.846
121.263
103.34
87.7794
74.3124
62.6955
52.7091
44.1548
36.8542
30.647
25.3898
20.9547
17.228
14.1093
11.51
9.35254
7.56936
6.1017
4.89885
3.91724
3.11959
2.47424
1.95435
1.53736
1.20435
0.939566
0.729955
0.564748
0.435109
0.333827
0.255048
0.194043
0.147009
0.110907
0.0833177
0.0623275
0.0464281
0.0344378
0.0254351
0.0187052
0.0136957
0.00998246
0.00724082
0.00522351
0.00374284
0.00265666
0.00185736
0.00126313
0.000811127
0.000451923
0.000145013
1483.35
2633.16
2781.96
2567.94
2264.73
1968.26
1705.57
1479.89
1287.33
1122.68
981.107
858.625
752.043
658.842
577.021
504.98
441.424
385.288
335.684
291.863
253.179
219.074
189.056
162.689
139.584
119.39
101.79
86.498
73.2543
61.8231
51.991
43.565
36.3708
30.2518
25.0675
20.6926
17.0154
13.9374
11.3714
9.24119
7.48018
6.03051
4.84222
3.87235
3.08414
2.44633
1.93247
1.52026
1.19104
0.929249
0.721987
0.558617
0.43041
0.33024
0.252321
0.191977
0.14545
0.109736
0.0824415
0.0616744
0.0459433
0.0340795
0.0251714
0.0185118
0.0135545
0.00987985
0.00716659
0.0051701
0.00370466
0.00262962
0.00183849
0.00125032
0.000802916
0.000447353
0.000143548
680.764
1543.31
1891
1931.93
1827.59
1667.81
1495.78
1330.24
1178.18
1041.38
919.409
811.025
714.8
629.351
553.432
485.954
425.971
372.667
325.329
283.336
246.14
213.251
184.233
158.692
136.27
116.643
99.5149
84.6156
71.6987
60.5397
50.9341
42.6964
35.6586
29.6692
24.5922
20.3059
16.7017
13.6836
11.1668
9.07676
7.34846
5.92535
4.75855
3.80601
3.03173
2.40508
1.90012
1.49498
1.17136
0.91399
0.7102
0.549547
0.423458
0.324932
0.248284
0.18892
0.143144
0.108003
0.0811445
0.0607077
0.0452257
0.033549
0.0247808
0.0182254
0.0133455
0.00972789
0.00705667
0.005091
0.00364812
0.00258958
0.00181055
0.00123135
0.000790752
0.000440583
0.000141377
377.32
968.77
1307.57
1442.22
1447.23
1381.15
1281.31
1169.11
1055.98
947.621
846.605
753.85
669.434
593.026
524.116
462.134
406.509
356.69
312.166
272.46
237.133
205.782
178.033
153.543
131.994
113.094
96.5718
82.1776
69.682
58.8744
49.5616
41.5676
34.7324
28.9112
23.9735
19.8022
16.293
13.3529
10.9
8.86229
7.17659
5.7881
4.64932
3.71938
2.96328
2.35119
1.85784
1.46195
1.14564
0.894043
0.694789
0.537687
0.414366
0.31799
0.243004
0.18492
0.140126
0.105735
0.0794472
0.0594425
0.0442865
0.0328545
0.0242695
0.0178505
0.0130718
0.00952894
0.00691273
0.00498742
0.00357407
0.00253713
0.00177395
0.00120651
0.000774819
0.000431715
0.000138533
237.214
647.335
929.006
1083.19
1139.25
1129.81
1080.98
1010.9
931.163
848.826
767.977
690.874
618.667
551.849
490.532
434.61
383.857
337.984
296.675
259.605
226.449
196.893
170.634
147.384
126.87
108.833
93.0321
79.2412
67.2501
56.8639
47.9029
40.2023
33.6113
27.993
23.2235
19.1914
15.7969
12.9513
10.576
8.60164
6.96765
5.62117
4.51643
3.61397
2.87996
2.28557
1.80636
1.4217
1.11431
0.869734
0.676004
0.523228
0.40328
0.309524
0.236564
0.180041
0.136444
0.102968
0.077376
0.0578985
0.0431401
0.0320069
0.0236453
0.0173928
0.0127376
0.009286
0.00673695
0.00486092
0.00348363
0.00247307
0.00172925
0.00117616
0.000755356
0.000420881
0.000135058
161.56
454.789
678.654
823.296
898.029
919.343
903.633
864.264
811.058
750.802
687.985
625.479
565.056
507.758
454.154
404.507
358.881
317.217
279.379
245.18
214.409
186.839
162.239
140.377
121.025
103.962
88.9785
75.8729
64.4563
54.5511
45.9926
38.6281
32.3174
26.9323
22.3565
18.4847
15.2227
12.4862
10.2004
8.29943
6.72527
5.42746
4.36216
3.49154
2.78316
2.20931
1.74651
1.37491
1.07786
0.841454
0.654147
0.5064
0.390375
0.299667
0.229065
0.174358
0.132156
0.0997442
0.0749627
0.0560992
0.041804
0.0310189
0.0229177
0.0168592
0.0123479
0.00900271
0.00653196
0.00471338
0.00337814
0.00239835
0.00167711
0.00114075
0.000732647
0.00040824
0.000131004
115.94
332.034
508.23
634.279
711.455
747.367
751.63
733.345
700.054
657.534
609.999
560.411
510.792
462.485
416.348
372.901
332.43
295.061
260.807
229.607
201.349
175.89
153.064
132.694
114.598
98.594
84.5014
72.1457
61.3594
51.9837
43.869
36.8761
30.8757
25.7493
21.3885
17.6952
14.5806
11.9658
9.77996
7.96086
6.45359
5.21022
4.18906
3.35412
2.67446
2.12365
1.67926
1.32231
1.03688
0.809647
0.629557
0.487464
0.375851
0.28857
0.220621
0.167959
0.127325
0.0961123
0.0722434
0.0540714
0.0402981
0.0299051
0.0220974
0.0162576
0.0119085
0.0086832
0.00630074
0.00454695
0.00325913
0.00231404
0.00161826
0.0011008
0.000707021
0.000393975
0.000126428
86.2464
249.588
388.635
495.075
567.33
608.458
623.8
619.252
600.262
571.407
536.307
497.703
457.612
417.475
378.297
340.755
305.284
272.145
241.469
213.297
187.602
164.313
143.325
124.511
107.734
92.8447
79.695
68.1358
58.0215
49.2116
41.5728
34.979
29.3127
24.4653
20.3369
16.8365
13.8818
11.3989
9.32162
7.59156
6.15708
4.97298
3.99994
3.2039
2.55559
2.02994
1.60565
1.26472
0.991993
0.7748
0.602609
0.466706
0.359925
0.276399
0.211358
0.160936
0.122023
0.0921257
0.0692578
0.0518447
0.0386442
0.0286817
0.0211962
0.0155965
0.0114256
0.00833204
0.00604659
0.00436398
0.00312829
0.00222133
0.00155356
0.00105686
0.000678837
0.000378285
0.000121396
65.8368
191.834
302.305
390.961
455.478
496.699
517.43
521.35
512.245
493.574
468.276
438.728
406.783
373.85
340.967
308.885
278.124
249.035
221.832
196.634
173.484
152.368
133.235
116.003
100.573
86.8299
74.6539
63.9206
54.5054
46.2863
39.1455
32.9706
27.6558
23.1025
19.2195
15.9232
13.1378
10.7948
8.83283
7.19744
5.84041
4.71947
3.79772
3.0432
2.42835
1.92958
1.5268
1.203
0.943872
0.737427
0.573698
0.444429
0.342828
0.263331
0.201409
0.153392
0.116326
0.0878408
0.0660482
0.0494504
0.0368655
0.0273657
0.0202266
0.0148851
0.0109059
0.00795409
0.005773
0.004167
0.00298741
0.00212151
0.00148388
0.00100953
0.00064848
0.000361384
0.000115975
51.2307
149.989
238.417
311.854
368.016
406.738
429.375
438.151
435.624
424.329
406.565
384.3
359.154
332.419
305.096
277.942
251.515
226.212
202.304
179.962
159.279
140.292
122.991
107.332
93.2504
80.6612
69.4699
59.5753
50.8729
43.2582
36.6285
30.8847
25.9324
21.6831
18.0542
14.9698
12.3603
10.1629
8.32111
6.7845
5.50839
4.45348
3.58543
2.87439
2.29462
1.82405
1.44384
1.13804
0.8932
0.698059
0.543232
0.420947
0.3248
0.249546
0.190911
0.14543
0.110312
0.0833164
0.0626585
0.0469212
0.0349861
0.025975
0.0192018
0.0141331
0.0103565
0.00755441
0.00548365
0.00395864
0.00283836
0.00201588
0.00141014
0.000959446
0.000616351
0.000343496
0.000110237
40.4498
118.837
190.122
250.852
299.04
334.111
356.616
367.855
369.52
363.427
351.328
334.806
315.224
293.72
271.211
248.419
225.901
204.07
183.226
163.573
145.24
128.298
112.772
98.6493
85.8921
74.4427
64.2293
55.1715
47.1832
40.176
34.0617
28.7538
24.1692
20.2288
16.8588
13.9905
11.5608
9.51253
7.79394
6.35873
5.16578
4.17881
3.36605
2.69983
2.15627
1.71481
1.35792
1.07073
0.840671
0.657229
0.511623
0.396574
0.306082
0.235229
0.180005
0.137156
0.10406
0.0786119
0.059133
0.0442901
0.0330306
0.0245277
0.018135
0.0133502
0.00978432
0.00713813
0.00518222
0.00374156
0.00268306
0.00190581
0.00133328
0.000907239
0.000582857
0.000324847
0.000104255
32.2968
95.1326
152.951
203.18
244.172
275.234
296.487
308.653
312.834
310.309
302.389
290.32
275.221
258.061
239.654
220.662
201.612
182.913
164.872
147.709
131.576
116.568
102.734
90.0858
78.6094
68.2683
59.011
50.7749
43.4907
37.0849
31.4825
26.6089
22.3914
18.7604
15.6501
12.999
10.7505
8.85264
7.25852
5.92591
4.8172
3.89913
3.14251
2.52185
2.0151
1.60328
1.27016
1.00193
0.786962
0.615465
0.479276
0.371622
0.286913
0.220562
0.168828
0.128674
0.0976488
0.0737864
0.0555158
0.0415899
0.0310233
0.0230416
0.0170395
0.0125459
0.00919648
0.00671037
0.00487243
0.00351841
0.00252339
0.00179262
0.00125425
0.000853544
0.000548405
0.000305664
9.81013e-05
26.011
76.7723
123.909
165.487
200.175
227.288
246.73
258.874
264.423
264.266
259.373
250.707
239.171
225.574
210.617
194.89
178.876
162.962
147.448
132.559
118.457
105.25
93.0062
81.7546
71.4989
62.2205
53.8845
46.4443
39.8448
34.026
28.925
24.478
20.6223
17.2969
14.4437
12.0082
9.93972
8.19167
6.72166
5.49151
4.46704
3.61796
2.91761
2.34265
1.87288
1.49085
1.18163
0.932503
0.732729
0.573272
0.446583
0.346393
0.267522
0.20572
0.157514
0.120084
0.0911548
0.0688969
0.0518496
0.0388523
0.0289877
0.0215343
0.015928
0.0117298
0.00859981
0.0062761
0.00455787
0.00329178
0.0023612
0.00167764
0.00117394
0.00079898
0.000513392
0.000286166
9.18467e-05
21.089
62.344
100.931
135.384
164.636
188.067
205.481
217.044
223.193
224.541
221.797
215.699
206.964
196.257
184.17
171.217
157.83
144.364
131.103
118.264
106.012
94.4638
83.6948
73.7484
64.6413
56.3688
48.9096
42.2303
36.2885
31.0356
26.4196
22.3867
18.883
15.8557
13.254
11.0298
9.13808
7.53736
6.18966
5.06061
4.11938
3.33856
2.69393
2.16431
1.73124
1.3788
1.09335
0.863228
0.678587
0.531129
0.413913
0.321169
0.248128
0.190869
0.146189
0.111484
0.0846501
0.0639978
0.0481751
0.0361078
0.0269463
0.0200222
0.0148128
0.0109108
0.00800088
0.00584009
0.00424198
0.00306415
0.00219827
0.0015621
0.00109324
0.000744141
0.000478199
0.000266567
8.55592e-05
17.186
50.8714
82.5625
111.138
135.746
155.849
171.218
181.895
188.146
190.387
189.136
184.951
178.398
170.013
160.293
149.676
138.54
127.204
115.928
104.919
94.3357
84.2955
74.8799
66.1398
58.1012
50.7699
44.1356
38.1756
32.858
28.1445
23.9923
20.3567
17.1917
14.452
12.0935
10.0741
8.35404
6.89666
5.66814
4.63777
3.7779
3.06388
2.47386
1.98869
1.59166
1.26831
1.00624
0.794832
0.625103
0.489475
0.381606
0.296215
0.228933
0.176164
0.13497
0.102961
0.078202
0.0591396
0.0445301
0.0333845
0.0249201
0.0185211
0.0137053
0.0100972
0.0074058
0.00540679
0.00392798
0.00283785
0.00203626
0.0014472
0.00101297
0.000689584
0.000443183
0.000247065
7.93025e-05
14.0597
41.6609
67.7524
91.4687
112.132
129.287
142.702
152.354
158.395
161.107
160.864
158.087
153.216
146.686
138.902
130.235
121.013
111.514
101.973
92.5808
83.487
74.8057
66.6191
58.9824
51.9275
45.4679
39.6015
34.3143
29.5831
25.3781
21.6649
18.4064
15.564
13.0989
10.9731
9.15001
7.59499
6.27563
5.16205
4.22701
3.44585
2.79653
2.25948
1.81748
1.45548
1.16044
0.921138
0.72797
0.572787
0.448709
0.349972
0.271768
0.210118
0.161745
0.123965
0.0945967
0.0718717
0.0543686
0.0409493
0.0307082
0.0229283
0.017045
0.012616
0.00929676
0.0068202
0.00498029
0.00361884
0.00261499
0.00187668
0.001334
0.000933871
0.000635822
0.000408674
0.000227843
7.31355e-05
11.5348
34.209
55.7278
75.4192
92.743
107.318
118.929
127.519
133.168
136.064
136.475
134.72
131.138
126.077
119.867
112.819
105.211
97.2848
89.2483
81.2732
73.4978
66.0298
58.9493
52.3124
46.1548
40.4947
35.3363
30.6722
26.4865
22.7565
19.4547
16.5507
14.0124
11.8069
9.90165
8.2651
6.86711
5.67936
4.67559
3.83174
3.126
2.53877
2.0526
1.65212
1.32386
1.0561
0.838767
0.663212
0.522086
0.409179
0.31928
0.248037
0.191846
0.147735
0.113268
0.0864634
0.0657136
0.0497256
0.0374634
0.0281021
0.0209881
0.0156066
0.0115542
0.00851636
0.00624911
0.00456425
0.00331722
0.0023975
0.00172091
0.00122349
0.000856638
0.000583316
0.000374966
0.000209067
6.7111e-05
9.48222
28.1421
45.9099
62.2604
76.7626
89.1009
99.0831
106.637
111.797
114.688
115.501
114.474
111.872
107.968
103.032
97.3199
91.0652
84.4767
77.7352
70.9932
64.3758
57.9824
51.8891
46.1508
40.8044
35.8712
31.3597
27.2678
23.5849
20.2944
17.3746
14.801
12.5467
10.5844
8.88627
7.42528
6.17539
5.11199
4.21216
3.45479
2.82065
2.29245
1.85474
1.49384
1.19776
0.956069
0.759741
0.601042
0.473381
0.371183
0.289762
0.225202
0.174256
0.134241
0.102961
0.0786228
0.0597747
0.0452461
0.034099
0.0255859
0.0191143
0.0142171
0.0105282
0.007762
0.00569692
0.00416187
0.00302543
0.00218706
0.00157016
0.00111651
0.00078186
0.000532471
0.000342321
0.00019088
6.12757e-05
7.80488
23.1782
37.8578
51.4308
63.553
73.9645
82.4979
89.0769
93.7096
96.4757
97.5119
96.996
95.1317
92.1354
88.2243
83.6084
78.4834
73.0261
67.3926
61.7165
56.1092
50.6609
45.4419
40.5048
35.886
31.6084
27.6833
24.1122
20.8891
18.0018
15.4337
13.1651
11.1741
9.43755
7.93224
6.63505
5.52364
4.57673
3.77444
3.09834
2.53162
2.05908
1.66709
1.3436
1.07798
0.86097
0.684559
0.541856
0.426984
0.334966
0.26161
0.203413
0.157461
0.121352
0.0931104
0.0711267
0.0540945
0.0409601
0.0308787
0.0231766
0.0173194
0.0128857
0.00954477
0.00703876
0.00516736
0.00377588
0.00274545
0.00198508
0.00142544
0.00101379
0.000710045
0.000483633
0.00031096
0.000173408
5.56691e-05
6.42862
19.1012
31.2309
42.492
52.609
61.369
68.6283
74.3135
78.4166
80.9875
82.1232
81.9562
80.6434
78.3549
75.2653
71.5459
67.359
62.8537
58.163
53.4027
48.671
44.0482
39.5985
35.3707
31.3998
27.709
24.3112
21.2106
18.4044
15.8841
13.6373
11.6482
9.89889
8.3704
7.04314
5.89754
4.91453
4.07586
3.36435
2.76403
2.26025
1.83974
1.49057
1.20214
0.965106
0.77129
0.613608
0.485963
0.383141
0.300721
0.234976
0.182785
0.141555
0.109138
0.0837716
0.0640168
0.0487045
0.0368915
0.0278206
0.0208878
0.0156137
0.0116199
0.00860958
0.00635078
0.00466347
0.0034085
0.00247889
0.00179274
0.00128759
0.000915923
0.000641614
0.000437088
0.000281067
0.000156751
5.03242e-05
5.29592
15.7427
25.7627
35.0979
43.5274
50.8774
57.0262
61.9061
65.5006
67.8395
68.9913
69.0547
68.1502
66.4113
63.9777
60.9886
57.5778
53.8698
49.9775
46.0001
42.0228
38.1169
34.3396
30.7355
27.3376
24.1684
21.2414
18.5626
16.1317
13.9431
11.9874
10.2523
8.72347
7.38512
6.22098
5.21457
4.34971
3.61082
2.98314
2.45291
2.00744
1.6352
1.32581
1.06999
0.859571
0.687373
0.547169
0.433586
0.342028
0.268588
0.209969
0.163409
0.126604
0.097652
0.0749855
0.0573246
0.043629
0.0330586
0.0249385
0.0187299
0.014005
0.0104258
0.00772698
0.00570128
0.00418762
0.00306147
0.00222703
0.00161096
0.00115728
0.000823386
0.000576894
0.00039306
0.000252787
0.000140992
4.52667e-05
4.36159
12.9704
21.2423
28.9724
35.9835
42.1339
47.3213
51.4854
54.6058
56.6989
57.8127
58.0207
57.4153
56.1012
54.1897
51.7935
49.0223
45.9796
42.7602
39.4486
36.1183
32.8312
29.6382
26.5793
23.6848
20.976
18.4667
16.1636
14.0681
12.1769
10.4832
8.97746
7.64805
6.48221
5.4664
4.58684
3.82988
3.18228
2.63144
2.16555
1.77369
1.4459
1.17317
0.94746
0.761634
0.609436
0.485416
0.38487
0.303763
0.238662
0.186666
0.145341
0.112657
0.0869311
0.0667804
0.0510719
0.0388847
0.0294743
0.0222422
0.0167104
0.0124989
0.00930739
0.00690009
0.00509259
0.00374152
0.00273604
0.00199079
0.0014404
0.00103498
0.000736521
0.000516128
0.000351714
0.000226225
0.000126189
4.0516e-05
3.58974
10.6788
17.501
23.8933
29.7136
34.8464
39.2065
42.7412
45.4288
47.2773
48.32
48.6115
48.2226
47.2352
45.738
43.8217
41.5759
39.0862
36.4317
33.6839
30.9055
28.15
25.4618
22.8767
20.4218
18.1171
15.9757
14.005
12.2073
10.5812
9.12158
7.8213
6.67113
5.66069
4.77881
4.01404
3.3549
2.79022
2.30929
1.90204
1.55912
1.27195
1.03279
0.834663
0.671403
0.537573
0.428435
0.339886
0.268405
0.210992
0.165107
0.128616
0.0997376
0.0769956
0.0591726
0.0452717
0.0344817
0.0261464
0.0197378
0.0148338
0.0110988
0.00826739
0.0061309
0.00452617
0.00332629
0.00243302
0.00177075
0.0012815
0.000921009
0.000655555
0.000459477
0.00031316
0.000201454
0.000112382
3.60847e-05
2.95154
8.78291
14.4025
19.6803
24.5022
28.7743
32.4261
35.4119
37.711
39.3256
40.2788
40.6111
40.3766
39.6395
38.4699
36.941
35.1255
33.0939
30.9119
28.6394
26.3296
24.0284
21.7743
19.5986
17.5255
15.5733
13.7542
12.0756
10.5407
9.14905
7.89732
6.77998
5.7898
4.91839
4.15662
3.49499
2.92393
2.43405
2.01629
1.66211
1.36353
1.11324
0.904578
0.731557
0.588854
0.471777
0.376224
0.298638
0.235962
0.185586
0.145299
0.11324
0.0878548
0.0678522
0.0521677
0.0399285
0.0304238
0.023078
0.0174277
0.0131022
0.00980638
0.00730696
0.00542031
0.00400274
0.00294243
0.00215283
0.00156723
0.00113449
0.000815534
0.000580604
0.000407022
0.000277456
0.00017851
9.95917e-05
3.19796e-05
2.42369
7.21409
11.8361
16.1861
20.1721
23.7182
26.7662
29.2772
31.2318
32.629
33.4846
33.8285
33.7022
33.1556
32.2445
31.0274
29.5634
27.91
26.1217
24.2484
22.3349
20.4202
18.5374
16.7136
14.9704
13.3238
11.7853
10.3621
9.05757
7.8722
6.80381
5.84829
4.99998
4.25215
3.59737
3.02782
2.53553
2.11266
1.7516
1.44512
1.18647
0.96942
0.788286
0.637951
0.513849
0.411945
0.328709
0.261073
0.206395
0.162418
0.127224
0.0992017
0.0769992
0.0594947
0.0457616
0.0350397
0.0267093
0.020268
0.0153112
0.011515
0.0086213
0.00642599
0.00476827
0.00352227
0.00258997
0.00189546
0.00138023
0.00099937
0.000718573
0.000511685
0.000358778
0.000244611
0.0001574
8.7823e-05
2.8202e-05
1.98717
5.91618
9.71119
13.2893
16.5769
19.5123
22.0477
24.1504
25.8028
27.0021
27.7588
28.0951
28.0427
27.6407
26.9329
25.9662
24.7885
23.4465
21.9851
20.4458
18.866
17.2787
15.712
14.1893
12.7293
11.3464
10.0509
8.84958
7.74593
6.74092
5.83329
5.02002
4.29673
3.65806
3.09798
2.61008
2.18779
1.82457
1.51406
1.25018
1.02723
0.83995
0.683502
0.553534
0.446149
0.357898
0.285756
0.22709
0.179629
0.14143
0.110841
0.0864691
0.0671478
0.0519062
0.0399419
0.0305963
0.0233315
0.0177115
0.0133848
0.0100698
0.00754183
0.00562322
0.00417389
0.00308413
0.00226846
0.00166063
0.00120955
0.000876005
0.000630021
0.000448728
0.000314698
0.000214595
0.000138105
7.70647e-05
2.47486e-05
1.62638
4.84306
7.95302
10.8901
13.595
16.0181
18.1201
19.8736
21.2633
22.2852
22.9464
23.2631
23.2597
22.9665
22.4182
21.6522
20.707
19.6207
18.4299
17.169
15.8691
14.5578
13.259
11.9927
10.7749
9.61837
8.53217
7.52252
6.59296
5.74474
4.97723
4.28826
3.67448
3.13163
2.65485
2.23892
1.87844
1.56798
1.30225
1.07617
0.884951
0.724152
0.589697
0.477896
0.385439
0.309393
0.247178
0.196546
0.155555
0.122541
0.0960864
0.0749957
0.0582655
0.0450604
0.0346892
0.0265836
0.0202797
0.0154008
0.0116429
0.00876238
0.00656489
0.00489643
0.00363557
0.00268718
0.00197707
0.00144772
0.00105475
0.000764094
0.000549667
0.000391584
0.000274678
0.000187339
0.000120581
6.7293e-05
2.16116e-05
1.32846
3.95667
6.49986
8.90517
11.1252
13.1196
14.8565
16.313
17.476
18.3411
18.9128
19.2032
19.2307
19.0189
18.5954
17.9898
17.233
16.356
15.3886
14.3589
13.2929
12.2135
11.1407
10.0916
9.07997
8.11665
7.20976
6.36489
5.58541
4.87272
4.22666
3.64568
3.12725
2.66801
2.26408
1.9112
1.60495
1.34088
1.11457
0.921822
0.758619
0.621238
0.506253
0.410552
0.331342
0.266137
0.212748
0.169267
0.13404
0.105649
0.0828834
0.0647225
0.0503079
0.038924
0.0299782
0.0229831
0.0175401
0.0133254
0.0100777
0.00758712
0.00568634
0.00424257
0.00315109
0.0023298
0.00171464
0.00125591
0.000915258
0.000663211
0.000477211
0.000340044
0.000238575
0.000162744
0.000104766
5.8473e-05
1.878e-05
1.08278
3.22548
5.30047
7.26555
9.08271
10.7195
12.1499
13.3552
14.3238
15.0518
15.5416
15.8023
15.8479
15.6969
15.3707
14.893
14.2885
13.5823
12.7986
11.9604
11.089
10.2036
9.32083
8.455
7.61786
6.81875
6.06473
5.36077
4.70997
4.11381
3.57241
3.08473
2.64885
2.26216
1.92154
1.62357
1.36464
1.14109
0.949298
0.785756
0.647138
0.530336
0.432482
0.350965
0.283436
0.227801
0.182213
0.145056
0.114932
0.0906358
0.071142
0.0555813
0.043223
0.0334575
0.0257794
0.0197723
0.0150958
0.011473
0.00867999
0.00653721
0.00490117
0.00365798
0.00271777
0.00201005
0.00147975
0.00108418
0.000790323
0.000572831
0.000412281
0.000293845
0.000206205
0.000140688
9.05809e-05
5.05613e-05
1.62398e-05
0.880485
2.62326
4.31215
5.91348
7.39685
8.73612
9.91024
10.9037
11.707
12.316
12.7323
12.9625
13.0174
12.9111
12.6606
12.2847
11.8031
11.2359
10.6028
9.92263
9.21274
8.48893
7.76513
7.05326
6.36324
5.70301
5.07867
4.49458
3.95356
3.45706
3.00538
2.59786
2.23306
1.90894
1.62305
1.37263
1.15474
0.966394
0.80462
0.666526
0.549358
0.450532
0.367659
0.298562
0.241272
0.194033
0.155296
0.123699
0.098064
0.077375
0.0607644
0.0474969
0.0369537
0.0286177
0.0220599
0.0169267
0.0129285
0.00982962
0.00743951
0.005605
0.00420373
0.0031385
0.00233258
0.0017257
0.0012708
0.000931356
0.000679111
0.000492354
0.000354449
0.000252685
0.000177358
0.00012103
7.79353e-05
4.35072e-05
1.39749e-05
0.714219
2.12819
3.49931
4.80075
6.0082
7.1007
8.06121
8.87708
9.5402
10.047
10.3983
10.5989
10.6568
10.5833
10.3915
10.0964
9.71366
9.25939
8.7495
8.19921
7.62278
7.03315
6.44183
5.85874
5.29218
4.74887
4.23402
3.75142
3.30357
2.89186
2.51669
2.17766
1.87373
1.6033
1.36445
1.15496
0.97246
0.814524
0.678717
0.562666
0.4641
0.380884
0.311038
0.25275
0.204381
0.164467
0.13171
0.104972
0.0832637
0.065732
0.0516472
0.0403902
0.0314393
0.0243583
0.0187848
0.0144198
0.0110182
0.00838054
0.00634518
0.00478226
0.00358794
0.00267967
0.00199222
0.00147435
0.00108604
0.00079618
0.000580708
0.000421125
0.000303247
0.000216234
0.000151806
0.000103612
6.67294e-05
3.72555e-05
1.19675e-05
0.577844
1.72205
2.83221
3.88698
4.86698
5.7554
6.53851
7.206
7.75114
8.17078
8.4652
8.63786
8.69501
8.64522
8.49889
8.26775
7.96431
7.60147
7.19198
6.74819
6.28167
5.80301
5.32166
4.84583
4.38243
3.93711
3.51427
3.11717
2.74801
2.40807
2.09781
1.81702
1.56492
1.34031
1.14167
0.967224
0.815077
0.683257
0.569784
0.472717
0.390194
0.320456
0.261869
0.212934
0.172294
0.138731
0.111165
0.088648
0.0703539
0.0555697
0.0436846
0.0341798
0.0266178
0.0206321
0.0159182
0.0122245
0.00934456
0.00711031
0.00538549
0.00406045
0.00304747
0.00227678
0.00169325
0.0012535
0.000923638
0.000677318
0.000494153
0.000358452
0.000258183
0.000184144
0.000129305
8.8271e-05
5.6858e-05
3.17477e-05
1.01987e-05
0.466237
1.3896
2.28597
3.13837
3.93137
4.65155
5.28786
5.83193
6.27821
6.62396
6.86917
7.01634
7.07022
7.03744
6.92614
6.74555
6.50561
6.21658
5.88871
5.53193
5.15561
4.76838
4.37795
3.9911
3.61353
3.24995
2.90408
2.57867
2.27566
1.99617
1.7407
1.50915
1.30098
1.11527
0.95081
0.806212
0.679952
0.570439
0.476068
0.39526
0.326493
0.268326
0.219416
0.17853
0.144546
0.116459
0.0933725
0.0745013
0.0591586
0.0467514
0.0367708
0.0287843
0.0224265
0.0173912
0.0134236
0.0103131
0.00788669
0.00600337
0.00454879
0.00343087
0.00257586
0.0019251
0.00143217
0.00106056
0.000781712
0.000573411
0.000418464
0.00030363
0.000218752
0.000156058
0.000109607
7.48379e-05
4.82127e-05
2.69233e-05
8.64945e-06
0.375123
1.11816
1.83981
2.52662
3.16634
3.74825
4.2635
4.70533
5.06918
5.35271
5.55573
5.68005
5.72927
5.70852
5.62414
5.48341
5.29416
5.06458
4.80284
4.51691
4.21437
3.90218
3.58665
3.27329
2.96683
2.67116
2.38938
2.12382
1.87612
1.64732
1.43786
1.24775
1.07661
0.923736
0.788192
0.668877
0.564577
0.474014
0.395893
0.328933
0.271897
0.223609
0.182971
0.148971
0.120688
0.0972938
0.0780517
0.0623114
0.0495056
0.0391431
0.0308022
0.0241237
0.0188041
0.0145887
0.0112653
0.00865855
0.00662411
0.00504427
0.00382353
0.0028849
0.00216672
0.00161988
0.0012055
0.000892987
0.0006584
0.0004831
0.000352657
0.000255951
0.000184449
0.000131618
9.24613e-05
6.3143e-05
4.06848e-05
2.2722e-05
7.30014e-06
0.300931
0.897096
1.47635
2.02807
2.5425
3.01114
3.42692
3.78439
4.07984
4.31128
4.47843
4.58259
4.6265
4.61412
4.55038
4.44097
4.29212
4.11027
3.90195
3.67354
3.43111
3.1803
2.92621
2.67334
2.42554
2.18603
1.95737
1.74153
1.5399
1.35337
1.18238
1.02697
0.886883
0.761595
0.65038
0.552371
0.466601
0.392051
0.327679
0.27245
0.225363
0.185463
0.151856
0.123715
0.100288
0.0808955
0.0649333
0.0518669
0.0412294
0.032616
0.0256786
0.0201206
0.015691
0.0121789
0.0094086
0.00723449
0.00553689
0.004218
0.00319842
0.00241413
0.00181378
0.00135648
0.00100981
0.000748269
0.000551869
0.000405053
0.000295768
0.00021472
0.000154776
0.00011047
7.76223e-05
5.30194e-05
3.41671e-05
1.9084e-05
6.13168e-06
0.240685
0.717561
1.1811
1.6229
2.03526
2.41142
2.74576
3.03391
3.27284
3.46091
3.5978
3.68443
3.72288
3.71619
3.6682
3.58338
3.4666
3.32298
3.15769
2.97581
2.78221
2.58142
2.37754
2.17423
1.97463
1.78137
1.59656
1.42184
1.25838
1.10695
0.967947
0.841451
0.727285
0.625057
0.534209
0.45406
0.383847
0.322757
0.269956
0.224612
0.185918
0.153102
0.125438
0.102256
0.0829415
0.066942
0.0537631
0.0429677
0.0341732
0.0270476
0.0213051
0.0167016
0.0130307
0.0101186
0.00782026
0.00601567
0.00460592
0.00351015
0.00266268
0.00201049
0.00151105
0.00113046
0.000841832
0.000623994
0.000460354
0.000337984
0.000246865
0.000179267
0.000129253
9.2276e-05
6.48521e-05
4.43052e-05
2.85558e-05
1.59516e-05
5.12551e-06
0.191903
0.572173
0.941944
1.2946
1.62405
1.92496
2.19287
2.42427
2.61673
2.76888
2.88041
2.95196
2.98512
2.98221
2.94622
2.88063
2.78927
2.67617
2.54542
2.40107
2.24698
2.08679
1.92379
1.76094
1.60078
1.44544
1.29666
1.1558
1.02383
0.90141
0.788887
0.686363
0.593723
0.510675
0.436791
0.37154
0.314319
0.264484
0.221371
0.184313
0.152662
0.125796
0.10313
0.0841214
0.0682723
0.0551338
0.0443039
0.0354268
0.0281903
0.0223234
0.0175924
0.0137976
0.0107698
0.00836665
0.00646903
0.00497831
0.00381318
0.00290713
0.00220607
0.00166633
0.00125282
0.00093759
0.000698435
0.000517868
0.000382176
0.00028067
0.000205061
0.00014895
0.000107422
7.6709e-05
5.39234e-05
3.6846e-05
2.37518e-05
1.32695e-05
4.26395e-06
0.152523
0.454791
0.748815
1.02939
1.29173
1.53162
1.74553
1.93066
2.08508
2.20764
2.29805
2.35677
2.38499
2.3845
2.3576
2.30702
2.23575
2.14694
2.04385
1.92965
1.80743
1.68008
1.55025
1.42029
1.29225
1.16788
1.04859
0.935482
0.829373
0.730812
0.640109
0.557368
0.482519
0.415346
0.355521
0.302633
0.256208
0.215738
0.180693
0.150545
0.124773
0.10288
0.0843942
0.0688793
0.055934
0.0451951
0.0363371
0.0290715
0.023145
0.0183371
0.0144578
0.0113445
0.00885901
0.0068852
0.00532583
0.00410022
0.00314185
0.00239623
0.00181906
0.00137449
0.00103377
0.000773916
0.000576699
0.00042774
0.00031576
0.000231962
0.000169522
0.00012317
8.88524e-05
6.34636e-05
4.46221e-05
3.04962e-05
1.96616e-05
1.09856e-05
3.53027e-06
0.12083
0.360315
0.593342
0.815829
1.02402
1.2146
1.38478
1.53235
1.65574
1.75405
1.82698
1.87488
1.89863
1.8996
1.87958
1.84068
1.78523
1.71572
1.63469
1.54465
1.44804
1.34716
1.24411
1.14078
1.03882
0.939632
0.844358
0.753901
0.668933
0.589911
0.517104
0.450612
0.390395
0.336297
0.288069
0.24539
0.207891
0.175171
0.146814
0.122397
0.101508
0.0837478
0.0687409
0.0561362
0.0456116
0.0368747
0.0296632
0.0237443
0.0189132
0.0149917
0.0118257
0.00928343
0.00725274
0.00563924
0.00436388
0.003361
0.00257642
0.00196574
0.00149281
0.00112838
0.000848962
0.000635775
0.000473915
0.000351615
0.000259643
0.000190794
0.000139475
0.000101366
7.31424e-05
5.22551e-05
3.67493e-05
2.51204e-05
1.61982e-05
9.05146e-06
2.90887e-06
0.0954061
0.284519
0.468586
0.644416
0.809069
0.959943
1.09484
1.21202
1.31024
1.38875
1.44731
1.48615
1.50594
1.50773
1.49289
1.46305
1.42004
1.3658
1.30231
1.23155
1.15545
1.07582
0.994328
0.912483
0.831601
0.752802
0.677011
0.60496
0.537197
0.474102
0.415904
0.362695
0.314458
0.271078
0.232366
0.198077
0.167921
0.141586
0.118742
0.099056
0.0822007
0.0678594
0.055732
0.0455385
0.0370212
0.0299458
0.024102
0.0193025
0.0153828
0.0121991
0.00962737
0.00756108
0.00590973
0.00459696
0.00355879
0.00274204
0.00210276
0.00160496
0.00121927
0.000921948
0.000693887
0.000519815
0.000387602
0.000287666
0.000212486
0.000156188
0.000114209
8.30256e-05
5.99239e-05
4.28217e-05
3.01217e-05
2.05939e-05
1.32815e-05
7.4224e-06
2.38546e-06
0.075078
0.22391
0.368811
0.507291
0.637056
0.756071
0.862613
0.955313
1.03318
1.09562
1.14242
1.17375
1.19009
1.19225
1.18129
1.15848
1.12522
1.08302
1.03343
0.978016
0.918278
0.855646
0.791441
0.726856
0.662937
0.60058
0.540527
0.483366
0.429545
0.379375
0.333047
0.290648
0.252171
0.217535
0.186597
0.159168
0.135025
0.113921
0.0956007
0.0798002
0.0662611
0.0547326
0.0449768
0.0367708
0.0299095
0.024206
0.0194923
0.0156185
0.0124529
0.0098803
0.00780096
0.00612939
0.0047928
0.00372971
0.00288858
0.00222652
0.00170809
0.00130421
0.000991154
0.000749723
0.000564457
0.000422995
0.000315509
0.000234234
0.00017307
0.000127252
9.30767e-05
6.76814e-05
4.88617e-05
3.49249e-05
2.45722e-05
1.6803e-05
1.08382e-05
6.05766e-06
1.94697e-06
0.0588791
0.175609
0.289283
0.397968
0.499877
0.593423
0.677261
0.750317
0.81181
0.861262
0.898494
0.923615
0.937
0.939259
0.931204
0.913806
0.888159
0.855432
0.816837
0.773585
0.726856
0.677772
0.627372
0.576598
0.526279
0.477125
0.429729
0.384564
0.341989
0.30226
0.265536
0.231892
0.201331
0.173795
0.149176
0.12733
0.108084
0.0912487
0.0766208
0.0639954
0.0531687
0.0439431
0.0361305
0.0295546
0.0240525
0.0194759
0.0156912
0.012579
0.0100342
0.00796495
0.00629154
0.00494558
0.00386878
0.0030119
0.00233359
0.00179944
0.00138098
0.00105483
0.000801924
0.000606798
0.000457006
0.000342585
0.000255614
0.000189827
0.000140301
0.000103187
7.54961e-05
5.49122e-05
3.96531e-05
2.83496e-05
1.99503e-05
1.3645e-05
8.80262e-06
4.92044e-06
1.58155e-06
0.0460149
0.137248
0.226114
0.311114
0.390861
0.464123
0.529851
0.587205
0.635574
0.674576
0.704062
0.724106
0.734987
0.737169
0.731273
0.718045
0.698329
0.673031
0.643089
0.609446
0.573022
0.534695
0.495279
0.455513
0.416052
0.377457
0.340199
0.304654
0.271113
0.239781
0.210791
0.184206
0.160035
0.138236
0.11873
0.101406
0.0861321
0.0727597
0.0611319
0.0510883
0.0424694
0.0351198
0.0288915
0.0236456