/*--------------------------------*- C++ -*----------------------------------*\
  =========                 |
  \\      /  F ield         | OpenFOAM: The Open Source CFD Toolbox
   \\    /   O peration     | Website:  https://openfoam.org
    \\  /    A nd           | Version:  10
     \\/     M anipulation  |
\*---------------------------------------------------------------------------*/
FoamFile
{
    format      ascii;
    class       volScalarField;
    location    "110";
    object      gradTx;
}
// * * * * * * * * * * * * * * * * * * * * * * * * * * * * * * * * * * * * * //

dimensions      [0 -1 0 1 0 0 0];

internalField   nonuniform List<scalar> 
11250
(
14251.4
7960.58
5077.66
3514.92
2548.7
1893.85
1422.95
1072.07
805.543
601.421
445.009
325.722
235.51
168.037
118.219
81.9581
55.9651
37.6275
24.9021
16.219
10.3948
6.55498
4.06683
2.48215
1.49034
0.880511
0.512091
0.293152
0.164885
0.0906203
0.0481496
0.024342
0.0114925
0.00498336
0.00196256
0.000698433
0.000224559
6.5416e-05
1.73444e-05
4.20758e-06
9.38979e-07
1.93802e-07
3.715e-08
6.62961e-09
1.08006e-09
1.70131e-10
9.87856e-12
-4.39047e-12
2.19524e-12
0
1.09762e-12
0
1.4269e-11
0
1.09762e-12
0
1.09762e-12
-2.19524e-12
0
2.19524e-12
0
1.09762e-12
0
-2.19524e-11
9.87856e-12
-1.09762e-12
-1.09762e-12
0
1.09762e-12
0
-5.48809e-12
0
-7.68332e-12
0
-9.87856e-12
4047.89
4561.34
3771.33
2936.59
2258.9
1733.68
1327.79
1012.59
767.055
575.959
427.94
314.203
227.726
162.788
114.698
79.6145
54.4194
36.6189
24.2517
15.8048
10.1343
6.39324
3.96772
2.42226
1.45466
0.859447
0.499641
0.285752
0.16058
0.0883627
0.0472507
0.0242172
0.0116705
0.00518651
0.00209552
0.000764212
0.00025123
7.46383e-05
2.01316e-05
4.95681e-06
1.12048e-06
2.33832e-07
4.52844e-08
8.16627e-09
1.37971e-09
2.12938e-10
2.74404e-11
1.09762e-12
-2.19523e-12
0
-1.75619e-11
0
-1.4269e-11
8.78094e-12
-1.31714e-11
-6.5857e-12
-1.4269e-11
0
-4.39047e-12
0
0
-1.09762e-12
0
2.41476e-11
5.48809e-12
0
-1.09762e-12
1.09762e-12
-1.09762e-12
0
-8.78094e-12
0
8.78094e-12
2.19523e-12
0
1429.63
2474.02
2523.28
2219.04
1837.78
1477.47
1166.3
907.792
697.569
529.217
396.236
292.628
213.053
152.848
108.007
75.1469
51.4658
34.688
23.0046
15.0095
9.63382
6.0825
3.77741
2.3074
1.38632
0.819219
0.476076
0.272022
0.152797
0.0843322
0.0455776
0.0238593
0.0118517
0.00545315
0.00228069
0.000858445
0.000290118
8.82558e-05
2.4288e-05
6.08322e-06
1.39529e-06
2.94829e-07
5.77292e-08
1.05371e-08
1.81326e-09
2.90869e-10
5.04904e-11
1.4269e-11
0
0
1.09762e-12
-1.09762e-12
4.39047e-12
8.78094e-12
0
-2.19523e-12
0
4.39047e-12
0
-2.19524e-12
0
0
0
-1.4269e-11
-1.09762e-11
2.19524e-12
3.29285e-12
2.19523e-12
0
0
3.29285e-12
8.78094e-12
0
-1.09762e-12
8.78094e-12
629.013
1389.98
1641.72
1595.66
1416
1194.51
975.541
778.099
608.716
468.036
354.027
263.539
193.08
139.217
98.7772
68.9568
47.3587
31.9948
21.2608
13.8954
8.93185
5.64643
3.51046
2.14641
1.29066
0.763121
0.443601
0.253567
0.142674
0.07916
0.0432896
0.0231209
0.0117934
0.00558453
0.0024005
0.000925805
0.000319514
9.89552e-05
2.76542e-05
7.0192e-06
1.62891e-06
3.47774e-07
6.87218e-08
1.26489e-08
2.17987e-09
3.44652e-10
5.70761e-11
4.39047e-12
0
0
1.53666e-11
0
1.09762e-12
-8.78094e-12
1.31714e-11
5.48809e-12
1.4269e-11
-4.39047e-12
5.48809e-12
6.58571e-12
0
-2.19523e-12
0
-1.09762e-12
-4.39047e-12
3.29285e-12
0
1.09762e-12
0
2.19524e-12
5.48809e-12
0
-1.09762e-12
-1.09762e-12
-5.48809e-12
328.06
822.809
1070.23
1121.98
1055.13
930.087
785.265
642.35
512.334
399.879
306.049
229.961
169.75
123.145
87.8144
61.5606
42.4277
28.7487
19.1521
12.5447
8.07911
5.11602
3.1855
1.95035
1.17415
0.694972
0.404489
0.231709
0.130892
0.0730956
0.0403526
0.0218191
0.0112893
0.00542681
0.00236788
0.000926571
0.000324275
0.00010179
2.88189e-05
7.40768e-06
1.74029e-06
3.76033e-07
7.51857e-08
1.39825e-08
2.43013e-09
3.81971e-10
4.17095e-11
-4.39047e-12
1.09762e-12
3.29285e-12
8.78094e-12
1.09762e-12
-5.48809e-12
-9.87856e-12
0
5.48809e-12
1.09762e-12
-8.78094e-12
-5.48809e-12
0
0
0
0
1.86595e-11
0
-1.09762e-12
-1.09762e-12
-3.29285e-12
0
-1.09762e-12
-9.87856e-12
-1.20738e-11
-7.68332e-12
-1.09762e-12
-1.09762e-12
190.878
510.023
705.689
781.776
770.041
704.862
613.375
513.988
417.918
331.254
256.698
194.838
145.018
105.926
75.9678
53.512
37.031
25.1792
16.8244
11.0488
7.13211
4.5256
2.82302
1.7312
1.04372
0.618662
0.360753
0.207262
0.117577
0.0659807
0.0365825
0.0198443
0.0103064
0.00498841
0.00220102
0.000874473
0.000311684
9.98412e-05
2.88784e-05
7.58711e-06
1.82187e-06
4.02281e-07
8.21314e-08
1.55763e-08
2.75392e-09
4.67585e-10
6.91499e-11
1.09762e-11
-2.19524e-12
-2.19523e-12
-6.58571e-12
-1.09762e-12
0
-3.29285e-12
-1.09762e-12
0
-1.09762e-12
2.19524e-12
1.09762e-12
-6.58571e-12
1.09762e-12
2.19523e-12
1.09762e-12
0
-1.09762e-12
-4.39047e-12
0
0
0
-2.19524e-12
4.39047e-12
1.09762e-12
-4.39047e-12
0
0
118.475
327.095
470.928
542.818
554.302
523.486
467.719
400.641
331.737
266.928
209.441
160.622
120.588
88.723
64.0217
45.3331
31.5116
21.5091
14.4203
9.49784
6.14677
3.90924
2.44341
1.50104
0.906397
0.538143
0.314407
0.181044
0.102921
0.0578099
0.0320221
0.0173583
0.00906658
0.00446479
0.00202799
0.000836272
0.000310599
0.000103754
3.12553e-05
8.53243e-06
2.12299e-06
4.84345e-07
1.01881e-07
1.98427e-08
3.58153e-09
6.16861e-10
1.08664e-10
1.53666e-11
-1.09762e-12
-4.39047e-12
-9.87856e-12
0
0
-1.09762e-12
0
-9.87856e-12
-1.09762e-12
-7.68332e-12
4.39047e-12
-4.39047e-12
0
-2.19523e-12
1.09762e-12
-5.48809e-12
2.19523e-12
2.19524e-12
0
0
-1.20738e-11
1.09762e-12
1.31714e-11
2.19524e-12
0
-7.68332e-12
0
76.3227
214.6
317.14
376.154
394.942
382.595
349.607
305.352
257.081
209.807
166.612
129.086
97.757
72.459
52.6183
37.4623
26.1638
17.9323
12.0657
7.97202
5.17346
3.29805
2.06564
1.27127
0.768966
0.457344
0.267641
0.154252
0.0876189
0.0490672
0.0270951
0.0147611
0.00790868
0.0040935
0.00198526
0.000877199
0.00034749
0.000122816
3.88145e-05
1.10307e-05
2.83849e-06
6.66062e-07
1.43486e-07
2.8537e-08
5.2499e-09
8.8468e-10
1.33909e-10
3.7319e-11
1.09762e-12
-3.29285e-12
5.48809e-12
0
0
4.39047e-12
1.09762e-12
4.39047e-12
2.305e-11
3.29285e-12
-3.29285e-12
0
0
0
-3.29285e-12
0
0
0
7.68332e-12
-1.09762e-12
0
1.09762e-12
-1.09762e-12
0
6.5857e-12
0
4.39047e-12
50.2065
142.742
214.718
260.032
278.935
275.825
256.848
228.164
194.982
161.214
129.479
101.304
77.37
57.7703
42.2197
30.226
21.2125
14.6007
9.8608
6.53652
4.25388
2.7184
1.70617
1.05205
0.637583
0.379951
0.2227
0.128348
0.0726919
0.0404869
0.022318
0.0123805
0.00699997
0.00393368
0.00208065
0.000990633
0.000416026
0.000153663
5.01948e-05
1.46254e-05
3.83599e-06
9.13514e-07
1.99076e-07
3.99994e-08
7.45173e-09
1.28751e-09
1.98669e-10
3.95142e-11
4.39047e-12
-1.20738e-11
-2.19524e-12
0
-1.09762e-12
-3.29285e-12
0
8.78094e-12
1.4269e-11
1.4269e-11
-4.39047e-12
4.39047e-12
-1.09762e-12
2.19523e-12
8.78094e-12
0
-1.09762e-12
0
1.4269e-11
2.19523e-12
1.31714e-11
-1.09762e-12
2.19523e-12
5.48809e-12
6.58571e-12
8.78094e-12
2.19524e-12
33.386
95.6115
145.622
179.096
195.335
196.384
185.781
167.454
145.001
121.31
98.4535
77.7424
59.8587
45.0149
33.1047
23.8316
16.8066
11.6181
7.87636
5.2385
3.41899
2.19035
1.37783
0.85141
0.517135
0.308917
0.181446
0.104608
0.0590546
0.0326791
0.017999
0.010244
0.00617851
0.00376897
0.00214096
0.00107354
0.000467069
0.000176706
5.86852e-05
1.73002e-05
4.57599e-06
1.09656e-06
2.40119e-07
4.84214e-08
9.0773e-09
1.59813e-09
2.65623e-10
2.08547e-11
1.09762e-12
4.39047e-12
-2.19524e-12
-1.09762e-12
0
0
0
-5.48809e-12
-1.97571e-11
-1.09762e-12
2.19523e-12
-1.09762e-12
-1.09762e-12
0
1.09762e-12
-1.09762e-12
-1.09762e-12
-1.09762e-12
-6.58571e-12
0
-1.09762e-12
0
1.09762e-12
0
-6.58571e-12
0
1.09762e-12
22.2945
64.17
98.6201
122.709
135.588
138.156
132.425
120.859
105.869
89.5111
73.3417
58.4108
45.3195
34.3145
25.3894
18.3767
13.0223
9.04092
6.15274
4.10605
2.68789
1.72654
1.08871
0.674329
0.410554
0.245871
0.144762
0.0835405
0.0470298
0.0258261
0.0141436
0.00816648
0.00514192
0.00330119
0.00195209
0.00100542
0.000445053
0.000170294
5.69924e-05
1.68926e-05
4.48596e-06
1.07824e-06
2.36672e-07
4.78144e-08
8.97302e-09
1.56191e-09
2.56842e-10
2.08547e-11
-4.39047e-12
1.20738e-11
2.19523e-12
0
2.19523e-12
4.39047e-12
2.19523e-12
1.09762e-12
-1.4269e-11
0
4.39047e-12
-1.09762e-12
3.29285e-12
1.4269e-11
-8.78094e-12
0
0
-9.87856e-12
-3.7319e-11
-1.09762e-12
0
0
-3.29285e-12
-5.48809e-12
0
-2.19523e-12
-3.29285e-12
14.8823
42.9928
66.5199
83.5118
93.2307
96.0384
93.0693
85.8489
75.9632
64.8308
53.5796
43.0089
33.6086
25.6121
19.0612
13.8688
9.87426
6.88444
4.70309
3.14946
2.0681
1.33215
0.84217
0.522814
0.3189
0.191227
0.112639
0.0649149
0.0363455
0.0197162
0.0106097
0.00605009
0.00382198
0.00248724
0.00149081
0.000775701
0.000345857
0.000133033
4.46987e-05
1.32904e-05
3.53863e-06
8.52464e-07
1.87479e-07
3.79315e-08
7.09939e-09
1.2447e-09
2.05254e-10
3.84166e-11
1.20738e-11
2.19523e-12
4.39047e-12
4.39047e-12
0
1.09762e-12
-1.09762e-12
-1.09762e-12
-3.29285e-12
0
-1.09762e-12
2.19524e-12
0
-1.09762e-12
5.48809e-12
0
-1.09762e-11
-5.48809e-12
-2.19524e-12
-1.09762e-12
0
1.09762e-12
0
0
4.39047e-12
0
1.09762e-12
9.89802
28.6728
44.5927
56.3767
63.4584
65.956
64.5062
60.0449
53.5984
46.1249
38.4171
31.0601
24.4324
18.7322
14.018
10.2506
7.33124
5.13237
3.51925
2.36477
1.55777
1.00636
0.637848
0.396764
0.242228
0.145099
0.0851327
0.0486776
0.0268885
0.0142719
0.00743185
0.00406532
0.0024779
0.001583
0.000943393
0.000490759
0.000219182
8.44985e-05
2.84594e-05
8.48218e-06
2.2637e-06
5.46573e-07
1.20447e-07
2.43945e-08
4.55511e-09
7.90285e-10
1.25128e-10
3.29285e-11
2.08547e-11
1.09762e-12
0
1.09762e-12
0
0
-1.09762e-12
0
1.09762e-12
-8.78094e-12
-7.68332e-12
-3.29285e-12
-1.09762e-12
-1.4269e-11
1.09762e-12
-1.20738e-11
-1.09762e-12
1.09762e-11
2.305e-11
-2.19523e-12
0
0
-1.09762e-12
-4.39047e-12
-8.78094e-12
1.09762e-12
6.58571e-12
6.54281
18.9937
29.6589
37.7059
42.7267
44.737
44.0926
41.3636
37.2055
32.2538
27.0517
22.0148
17.4228
13.4333
10.1048
7.42404
5.33255
3.74768
2.57887
1.73859
1.14887
0.744414
0.473112
0.294937
0.180238
0.107778
0.0628062
0.0353999
0.0191002
0.0097986
0.0048595
0.00248521
0.00141162
0.000860021
0.000501163
0.000258497
0.00011518
4.44183e-05
1.49828e-05
4.47473e-06
1.19699e-06
2.89728e-07
6.4001e-08
1.29892e-08
2.42244e-09
3.87459e-10
5.70761e-11
4.39047e-12
-8.78094e-12
-1.09762e-12
0
-2.19523e-12
-1.09762e-12
1.09762e-12
0
0
4.39047e-12
0
1.09762e-12
0
-1.09762e-12
-1.09762e-12
-6.5857e-12
0
1.20738e-11
8.78094e-12
2.19523e-12
0
-1.09762e-12
-2.19523e-12
-6.5857e-12
4.39047e-12
0
0
0
4.29046
12.4761
19.5443
24.9589
28.4376
29.9589
29.7207
28.0679
25.4148
22.1759
18.7159
15.3218
12.1938
9.45071
7.14335
5.27164
3.80192
2.6818
1.85158
1.25218
0.829993
0.539489
0.343987
0.215168
0.13192
0.0790113
0.045871
0.0254969
0.0133845
0.00658196
0.00306936
0.00143536
0.000733134
0.000411194
0.000229227
0.000115971
5.12955e-05
1.97423e-05
6.66227e-06
1.993e-06
5.34331e-07
1.29689e-07
2.87389e-08
5.86896e-09
1.1042e-09
1.83302e-10
4.28071e-11
-7.68332e-12
-2.305e-11
-1.09762e-12
0
-3.29285e-12
-8.78094e-12
0
-1.4269e-11
-1.09762e-12
0
7.68332e-12
8.78094e-12
6.58571e-12
1.09762e-12
-4.39047e-12
0
1.31714e-11
9.87856e-12
0
-1.09762e-12
2.19523e-12
-4.39047e-12
0
-7.68332e-12
3.29285e-12
8.78094e-12
9.87856e-12
-3.29285e-12
2.787
8.11515
12.7457
16.3368
18.6981
19.8001
19.7518
18.761
17.0866
14.9951
12.7266
10.4749
8.37918
6.52553
4.95456
3.67168
2.65828
1.88176
1.30347
0.884253
0.587963
0.383467
0.245448
0.154259
0.0951497
0.0573586
0.0334059
0.0184503
0.00948256
0.00448576
0.00196643
0.000833095
0.00037082
0.00018259
9.38095e-05
4.56131e-05
1.9833e-05
7.58312e-06
2.55463e-06
7.64688e-07
2.05393e-07
4.99811e-08
1.11222e-08
2.28304e-09
4.59902e-10
1.02078e-10
2.85381e-11
1.09762e-11
1.09762e-12
0
1.09762e-12
-1.09762e-12
0
-2.19524e-12
0
-4.39047e-12
-4.39047e-12
0
8.78094e-12
-1.09762e-12
0
1.09762e-12
0
-2.19524e-12
5.48809e-12
-4.39047e-12
-1.09762e-12
-1.09762e-12
0
1.09762e-12
-4.39047e-12
-7.68332e-12
-2.19524e-12
2.19523e-12
5.48809e-12
1.79127
5.22149
8.21833
10.5658
12.1388
12.9101
12.9398
12.352
11.307
9.97372
8.50758
7.0366
5.65512
4.42366
3.37281
2.50942
1.82365
1.29554
0.900444
0.612849
0.408833
0.267544
0.171883
0.108502
0.0673029
0.040835
0.0238968
0.0131763
0.00668621
0.00307869
0.00128782
0.000502284
0.000194738
8.09931e-05
3.63655e-05
1.63633e-05
6.85236e-06
2.57634e-06
8.62057e-07
2.57536e-07
6.92059e-08
1.68495e-08
3.76483e-09
7.89187e-10
1.51471e-10
5.92713e-11
7.68332e-12
2.08547e-11
2.305e-11
0
-1.09762e-12
4.39047e-12
8.78094e-12
0
1.4269e-11
2.19523e-12
1.09762e-12
3.29285e-12
0
-2.19523e-12
-2.19523e-12
5.48809e-12
1.09762e-12
0
-9.87856e-12
-1.09762e-12
0
-3.29285e-12
4.39047e-12
-1.09762e-12
-3.29285e-12
5.48809e-12
-3.29285e-12
-9.87856e-12
-1.09762e-12
1.13808
3.32044
5.23536
6.74782
7.77718
8.30205
8.3551
8.01018
7.36542
6.52638
5.59207
4.64557
3.7494
2.94489
2.25412
1.68349
1.22803
0.875641
0.610783
0.417095
0.279068
0.183076
0.11785
0.0744957
0.0462177
0.0279938
0.0163144
0.00892762
0.00447373
0.00202035
0.000819807
0.000303032
0.000106162
3.76565e-05
1.42395e-05
5.6425e-06
2.19631e-06
7.95733e-07
2.61598e-07
7.75609e-08
2.07856e-08
5.08307e-09
1.13164e-09
2.35988e-10
2.52452e-11
9.87856e-12
-8.78094e-12
-1.09762e-11
8.78094e-12
1.09762e-12
0
0
0
-1.09762e-12
-2.19524e-12
5.48809e-12
-1.09762e-12
-2.19524e-12
-9.87856e-12
0
0
-4.39047e-12
0
2.19524e-12
-4.39047e-12
1.09762e-12
8.78094e-12
4.39047e-12
0
0
9.87856e-12
1.20738e-11
5.48809e-12
-5.48809e-12
-4.39047e-12
0.714248
2.08547
3.29308
4.25358
4.9158
5.2643
5.31675
5.11667
4.72344
4.20216
3.61496
3.01483
2.44245
1.92537
1.47901
1.10859
0.811689
0.58097
0.406708
0.278576
0.18676
0.1226
0.0788609
0.049706
0.030608
0.0182782
0.0104445
0.00559199
0.00274235
0.00121235
0.000480487
0.000171775
5.66309e-05
1.79794e-05
5.80873e-06
1.96759e-06
6.83003e-07
2.31097e-07
7.32352e-08
2.133e-08
5.66919e-09
1.41263e-09
3.11723e-10
5.37833e-11
3.29285e-11
2.19524e-12
6.5857e-12
-1.09762e-11
4.39047e-12
0
0
0
0
0
1.09762e-12
-2.19523e-12
-1.09762e-12
-1.09762e-12
-1.09762e-12
2.19524e-12
-1.09762e-12
-8.78094e-12
-1.09762e-12
0
-8.78094e-12
-9.87856e-12
0
2.19523e-12
4.39047e-12
1.09762e-12
1.31714e-11
-4.39047e-12
3.29285e-12
-1.09762e-12
-1.09762e-12
0.442523
1.29297
2.04437
2.64559
3.06466
3.291
3.33415
3.21949
2.98251
2.66277
2.29868
1.92356
1.56339
1.23618
0.952446
0.716144
0.526124
0.377909
0.265438
0.182293
0.122389
0.0803433
0.0515978
0.0323681
0.0196827
0.0114684
0.00632638
0.00325693
0.00153965
0.000659567
0.000254393
8.8485e-05
2.80801e-05
8.33838e-06
2.41113e-06
7.07653e-07
2.14214e-07
6.54828e-08
1.94937e-08
5.4826e-09
1.43349e-09
3.53433e-10
8.12237e-11
1.86595e-11
1.20738e-11
-2.19523e-12
1.20738e-11
1.4269e-11
-9.87856e-12
-8.78094e-12
0
-1.09762e-12
0
1.09762e-12
3.29285e-12
3.29285e-12
1.86595e-11
0
2.19523e-12
0
0
-6.5857e-12
-1.09762e-12
3.29285e-12
0
-1.09762e-12
-7.68332e-12
0
0
1.09762e-12
-4.39047e-12
-8.78094e-12
0
0
-5.48809e-12
0.270518
0.790936
1.25213
1.62305
1.88394
2.0279
2.06008
1.99517
1.85409
1.66054
1.43789
1.20673
0.983395
0.77945
0.601889
0.453599
0.334088
0.240647
0.169538
0.116792
0.0786592
0.0517981
0.033338
0.0208673
0.0125224
0.00708209
0.00373193
0.0018195
0.000815054
0.000333073
0.00012356
4.15865e-05
1.27686e-05
3.62663e-06
9.76673e-07
2.57833e-07
6.87317e-08
1.86463e-08
5.07209e-09
1.33909e-09
3.63311e-10
8.34189e-11
3.95142e-11
1.4269e-11
-1.97571e-11
-1.09762e-11
-1.4269e-11
-1.4269e-11
-9.87856e-12
0
0
2.19524e-12
-1.09762e-12
2.19524e-12
-1.09762e-12
-1.09762e-12
9.87856e-12
0
0
-2.19524e-12
3.29285e-12
8.78094e-12
0
-1.86595e-11
8.78094e-12
1.09762e-11
0
1.09762e-12
-4.39047e-12
0
-1.20738e-11
0
0
-3.29285e-12
2.19524e-12
0.163072
0.477129
0.756264
0.981765
1.14152
1.23119
1.25362
1.21726
1.13432
1.0188
0.884675
0.744431
0.60813
0.483025
0.373641
0.28199
0.207975
0.150065
0.106017
0.0733708
0.0497779
0.0331253
0.02156
0.0135602
0.00805573
0.00442168
0.00221811
0.00101571
0.0004254
0.000163119
5.72537e-05
1.83979e-05
5.42663e-06
1.4799e-06
3.7844e-07
9.27553e-08
2.2387e-08
5.44089e-09
1.33141e-09
3.16114e-10
8.56142e-11
1.09762e-12
4.39047e-12
3.29285e-12
-6.58571e-12
-3.29285e-12
-1.09762e-11
-1.86595e-11
2.19524e-12
7.68332e-12
0
1.09762e-12
0
1.09762e-12
-1.09762e-12
-2.19523e-12
-1.86595e-11
-7.68332e-12
-1.09762e-12
0
-1.09762e-12
1.09762e-11
1.09762e-12
-2.19524e-12
-1.09762e-12
-4.39047e-12
9.87856e-12
-1.09762e-12
2.19524e-12
-2.19524e-12
3.29285e-12
0
-2.19524e-12
3.29285e-12
-8.78094e-12
0.0968767
0.283665
0.45018
0.585245
0.681497
0.736253
0.751091
0.730873
0.682692
0.61475
0.535292
0.451738
0.370102
0.294762
0.228492
0.172629
0.127316
0.0918469
0.0649932
0.0452452
0.0310922
0.0211449
0.0141306
0.00905144
0.00537063
0.00287763
0.0013798
0.000593948
0.000231443
8.23293e-05
2.69029e-05
8.10897e-06
2.26201e-06
5.86576e-07
1.42527e-07
3.2889e-08
7.35953e-09
1.64423e-09
3.62214e-10
8.23213e-11
-5.48809e-12
-1.97571e-11
-1.31714e-11
-1.75619e-11
0
3.29285e-12
1.31714e-11
1.09762e-12
1.09762e-12
2.19523e-12
1.09762e-12
-2.19523e-12
7.68332e-12
-3.29285e-12
-2.19523e-12
5.48809e-12
-7.68332e-12
1.20738e-11
1.09762e-12
0
1.09762e-12
-2.19523e-12
-1.09762e-12
1.31714e-11
0
1.31714e-11
0
-2.19523e-12
0
1.09762e-12
4.39047e-12
-2.19523e-12
0
2.19523e-12
-1.09762e-12
0.0566908
0.166121
0.263976
0.343703
0.400878
0.433802
0.443281
0.43208
0.404342
0.364899
0.318609
0.2698
0.22193
0.177484
0.138023
0.104361
0.0767829
0.0551492
0.038923
0.0272246
0.0190529
0.0134302
0.009397
0.00624087
0.00375075
0.00198621
0.000921763
0.0003775
0.000138069
4.56717e-05
1.38181e-05
3.85825e-06
1.00103e-06
2.42707e-07
5.53287e-08
1.1964e-08
2.49598e-09
5.18075e-10
1.07567e-10
3.18309e-11
-7.68332e-12
-3.29285e-12
-1.53666e-11
-1.97571e-11
6.58571e-12
8.78094e-12
8.78094e-12
-3.29285e-12
-7.68332e-12
2.19523e-12
-7.68332e-12
-7.68332e-12
-1.09762e-12
0
-1.31714e-11
6.5857e-12
1.09762e-12
1.09762e-11
0
-1.09762e-12
1.09762e-12
0
-1.09762e-12
4.39047e-12
3.29285e-12
4.39047e-12
-9.87856e-12
0
-1.09762e-12
1.09762e-12
1.09762e-12
1.09762e-12
0
1.09762e-12
1.31714e-11
0.0326867
0.0958619
0.152572
0.199078
0.232736
0.25237
0.258281
0.252032
0.236085
0.213325
0.186626
0.15851
0.130943
0.10524
0.082135
0.0620503
0.0453263
0.0321629
0.0224458
0.0156911
0.0112147
0.0082865
0.0061514
0.00427958
0.00263073
0.00139414
0.0006366
0.000253075
8.88063e-05
2.78944e-05
7.94415e-06
2.07451e-06
5.01464e-07
1.13113e-07
2.40016e-08
4.84488e-09
9.49439e-10
1.87693e-10
6.47594e-11
4.39047e-11
3.7319e-11
2.08547e-11
-8.78094e-12
-3.29285e-12
-1.09762e-12
6.58571e-12
-1.09762e-11
1.09762e-12
-3.29285e-12
-1.09762e-12
-1.09762e-12
-3.29285e-12
-7.68332e-12
1.09762e-12
1.09762e-12
-4.39047e-12
0
-3.29285e-12
-2.19523e-12
2.19524e-12
-1.09762e-12
2.19523e-12
0
6.58571e-12
-2.19523e-12
-1.31714e-11
2.19524e-12
1.09762e-12
0
-1.09762e-12
7.68332e-12
3.29285e-12
0
3.29285e-12
-4.39047e-12
0.0186122
0.0546716
0.0872635
0.114275
0.134066
0.145729
0.149284
0.145648
0.136331
0.123049
0.107484
0.0911924
0.0754001
0.0607821
0.0475286
0.0357478
0.0257519
0.0178754
0.0121953
0.00844399
0.00614762
0.00476992
0.00375319
0.002727
0.0017152
0.000915198
0.000416061
0.000163294
5.61675e-05
1.7176e-05
4.73008e-06
1.18645e-06
2.73759e-07
5.86216e-08
1.17643e-08
2.22268e-09
4.01728e-10
5.81737e-11
2.305e-11
7.68332e-12
3.18309e-11
3.40261e-11
3.07333e-11
2.19523e-11
5.48809e-12
1.09762e-11
4.39047e-12
2.96357e-11
9.87856e-12
-2.19523e-12
7.68332e-12
6.5857e-12
2.19523e-12
-2.19523e-12
1.4269e-11
-6.5857e-12
-1.09762e-12
-3.29285e-12
1.09762e-12
2.19523e-12
-1.09762e-12
-2.19523e-12
2.19523e-12
-1.20738e-11
-3.29285e-12
-1.09762e-12
0
1.09762e-12
1.09762e-12
0
-7.68332e-12
0
-4.39047e-12
-1.4269e-11
-1.09762e-12
0.0105316
0.0310332
0.0497816
0.0655323
0.0771929
0.0840546
0.0860464
0.0837491
0.0781025
0.0700758
0.0606442
0.0508902
0.0417307
0.0335337
0.0261723
0.0195214
0.0137869
0.00928258
0.00612433
0.00415451
0.00305687
0.00247251
0.00204077
0.00153397
0.000982853
0.00052857
0.000240548
9.40664e-05
3.21173e-05
9.71524e-06
2.63709e-06
6.49469e-07
1.46542e-07
3.05654e-08
5.92933e-09
1.06579e-09
1.64643e-10
3.29285e-12
-2.41476e-11
-2.19524e-11
-1.31714e-11
6.58571e-12
2.08547e-11
1.53666e-11
6.58571e-12
0
2.63428e-11
2.305e-11
2.08547e-11
5.48809e-12
-1.09762e-12
3.29285e-12
-6.5857e-12
0
-2.19524e-12
0
0
-7.68332e-12
4.39047e-12
-3.29285e-12
0
-1.09762e-12
-5.48809e-12
-2.08547e-11
2.19523e-12
0
-2.19524e-12
-3.29285e-12
1.09762e-12
-1.09762e-12
1.09762e-12
-2.19524e-12
0
0
1.31714e-11
0.00597013
0.0176576
0.0284694
0.0376248
0.0443922
0.0482999
0.0493015
0.0477651
0.0442436
0.0392329
0.0332912
0.0272418
0.0218387
0.0173095
0.0134054
0.00988375
0.00682345
0.00443668
0.00280995
0.00184829
0.00135946
0.00113297
0.000968773
0.00074628
0.000484832
0.000262587
0.000119863
4.68923e-05
1.59866e-05
4.82051e-06
1.30215e-06
3.18571e-07
7.12507e-08
1.46784e-08
2.78685e-09
4.97221e-10
5.26856e-11
4.39047e-12
-2.41476e-11
-1.09762e-11
-2.63428e-11
-2.52452e-11
-2.41476e-11
-6.5857e-12
1.31714e-11
1.4269e-11
2.19523e-11
3.29285e-12
2.52452e-11
-1.09762e-12
-1.09762e-12
1.09762e-12
0
3.29285e-12
0
-1.09762e-12
0
0
-1.09762e-12
0
0
3.29285e-12
-1.09762e-12
7.68332e-12
0
-1.09762e-12
0
0
6.58571e-12
4.39047e-12
6.5857e-12
-1.97571e-11
2.19524e-12
1.09762e-11
0
0.0034194
0.0101008
0.0162337
0.0213436
0.025028
0.0270765
0.0274976
0.0264933
0.0243461
0.0212684
0.0175649
0.0138408
0.0106806
0.00823827
0.00628017
0.00456301
0.00307839
0.00193287
0.00117183
0.000741502
0.000538942
0.000457102
0.000400488
0.000313887
0.000206026
0.000112257
5.14265e-05
2.01619e-05
6.88137e-06
2.07558e-06
5.60396e-07
1.36922e-07
3.05555e-08
6.25313e-09
1.16567e-09
1.87693e-10
0
0
-9.87856e-12
-7.68332e-12
-7.68332e-12
-1.86595e-11
-2.52452e-11
-4.39047e-12
-1.09762e-12
6.5857e-12
7.68332e-12
-1.20738e-11
-3.29285e-12
-5.48809e-12
2.19523e-12
0
2.08547e-11
0
0
0
8.78094e-12
0
-1.09762e-12
-2.19523e-12
-1.09762e-12
1.09762e-12
4.39047e-12
1.86595e-11
1.09762e-12
0
-1.09762e-12
1.31714e-11
0
1.09762e-12
-7.68332e-12
0
0
0
-7.68332e-12
0.00204367
0.00592705
0.00924825
0.0117927
0.0134906
0.0143627
0.0144539
0.0138404
0.012628
0.0108778
0.00873641
0.00659475
0.00484537
0.00358969
0.00266825
0.0019035
0.00125588
0.000763505
0.00044359
0.000268796
0.00019107
0.00016306
0.000145101
0.000115101
7.6135e-05
4.16968e-05
1.91725e-05
7.53821e-06
2.57882e-06
7.79289e-07
2.10711e-07
5.15298e-08
1.15041e-08
2.35329e-09
4.29168e-10
6.25642e-11
-9.87856e-12
-1.09762e-11
-1.09762e-12
-1.09762e-12
-8.78094e-12
-5.48809e-12
-8.78094e-12
-1.31714e-11
-2.74404e-11
-2.63428e-11
-1.75619e-11
-1.53666e-11
-2.52452e-11
1.09762e-12
-2.19524e-12
-1.31714e-11
-1.09762e-12
-2.19524e-12
1.09762e-12
3.29285e-12
7.68332e-12
-1.20738e-11
-1.09762e-12
2.19524e-12
-1.09762e-12
-5.48809e-12
-3.29285e-12
0
0
2.19524e-12
1.09762e-12
0
-8.78094e-12
4.39047e-12
1.09762e-12
2.41476e-11
2.19524e-12
4.39047e-12
0
0.00137619
0.00381251
0.00550941
0.00647347
0.00693447
0.00708486
0.00698258
0.00662001
0.00599931
0.00511067
0.0040087
0.00290654
0.00202676
0.00142894
0.00102623
0.000715729
0.000462103
0.000273012
0.00015255
8.84057e-05
6.09555e-05
5.18311e-05
4.65208e-05
3.72078e-05
2.47586e-05
1.362e-05
6.28542e-06
2.47918e-06
8.50588e-07
2.57728e-07
6.98634e-08
1.71064e-08
3.8252e-09
7.82601e-10
1.24031e-10
2.52452e-11
1.20738e-11
-8.78094e-12
3.29285e-12
2.19524e-12
-2.85381e-11
-1.31714e-11
-1.09762e-12
-7.68332e-12
-1.4269e-11
-2.41476e-11
-3.7319e-11
-1.09762e-11
-2.19524e-11
-1.09762e-12
-4.39047e-12
-5.48809e-12
-1.4269e-11
2.19524e-12
2.19524e-12
0
-8.78094e-12
-1.64643e-11
-8.78094e-12
-1.20738e-11
-3.29285e-12
-1.09762e-12
1.09762e-12
-2.19524e-12
-1.09762e-12
-1.09762e-11
1.09762e-12
-6.5857e-12
-1.09762e-12
-1.09762e-12
-2.19523e-12
0
-9.87856e-12
0
5.48809e-12
0.00107229
0.00280862
0.00364833
0.00374627
0.00353107
0.0032919
0.00308602
0.00286085
0.00256682
0.00216667
0.00166907
0.00117051
0.000777362
0.000519684
0.000358034
0.000243043
0.000153566
8.84768e-05
4.77658e-05
2.6506e-05
1.76243e-05
1.48097e-05
1.33334e-05
1.07224e-05
7.16819e-06
3.9589e-06
1.83348e-06
7.25613e-07
2.49771e-07
7.59233e-08
2.06319e-08
5.04355e-09
1.10969e-09
2.35988e-10
3.29285e-11
-5.48809e-12
3.29285e-12
-1.97571e-11
-2.305e-11
-2.08547e-11
-9.87856e-12
-3.29285e-12
1.53666e-11
1.75619e-11
3.29285e-12
1.09762e-12
-8.78094e-12
-4.39047e-12
1.75619e-11
-3.29285e-12
1.09762e-12
1.31714e-11
1.09762e-12
0
-3.29285e-12
6.5857e-12
-7.68332e-12
7.68332e-12
-8.78094e-12
-2.19523e-12
-1.31714e-11
5.48809e-12
4.39047e-12
-7.68332e-12
1.09762e-12
-1.09762e-12
-1.09762e-12
1.09762e-12
2.19523e-12
-8.78094e-12
-1.31714e-11
-4.39047e-12
-6.5857e-12
-7.68332e-12
-1.09762e-12
0.000860488
0.00216859
0.00259024
0.00233181
0.0018681
0.00149798
0.00127033
0.00112069
0.000985365
0.000823183
0.000625403
0.000427424
0.000272278
0.000172835
0.000113751
7.48621e-05
4.6268e-05
2.60686e-05
1.36607e-05
7.27945e-06
4.65121e-06
3.83658e-06
3.44933e-06
2.78297e-06
1.86742e-06
1.03504e-06
4.81002e-07
1.91002e-07
6.59822e-08
2.0116e-08
5.48919e-09
1.34239e-09
2.79892e-10
6.25642e-11
4.39047e-12
-2.305e-11
-1.75619e-11
-2.41476e-11
-2.74404e-11
-2.305e-11
-2.19523e-12
1.09762e-12
5.48809e-12
-7.68332e-12
9.87856e-12
-2.19524e-12
1.64643e-11
-1.09762e-12
6.58571e-12
0
0
1.09762e-12
-1.09762e-12
-1.31714e-11
-1.09762e-12
4.39047e-12
0
4.39047e-12
1.86595e-11
1.31714e-11
4.39047e-12
2.19523e-12
0
2.19524e-12
0
1.09762e-11
-2.19524e-12
0
0
5.48809e-12
8.78094e-12
0
9.87856e-12
2.19523e-12
-6.58571e-12
0.000620627
0.0015345
0.00175141
0.0014491
0.00101528
0.000687572
0.000501763
0.000404279
0.000341498
0.00028071
0.000210669
0.000141171
8.69362e-05
5.26428e-05
3.30585e-05
2.10304e-05
1.27032e-05
7.01335e-06
3.58216e-06
1.83972e-06
1.12782e-06
9.08328e-07
8.12454e-07
6.56517e-07
4.41848e-07
2.45729e-07
1.1458e-07
4.56664e-08
1.58309e-08
4.84927e-09
1.34348e-09
3.56726e-10
9.87856e-11
1.09762e-11
1.64643e-11
1.09762e-12
1.53666e-11
1.31714e-11
2.08547e-11
-1.09762e-12
1.64643e-11
1.31714e-11
7.68332e-12
-1.09762e-11
1.09762e-11
4.39047e-12
4.39047e-12
5.48809e-12
-1.4269e-11
-4.39047e-12
1.09762e-12
3.29285e-12
0
-2.19524e-12
2.19524e-12
-2.305e-11
-1.09762e-12
0
7.68332e-12
1.09762e-12
1.4269e-11
-2.19523e-12
-1.09762e-12
-1.09762e-12
-4.39047e-12
1.09762e-12
-1.09762e-12
1.20738e-11
0
0
2.08547e-11
9.87856e-12
6.58571e-12
4.39047e-12
0
0.000378638
0.000928295
0.00103739
0.000821855
0.000530325
0.000313687
0.000194086
0.000137144
0.000108162
8.6496e-05
6.40326e-05
4.22378e-05
2.53205e-05
1.47151e-05
8.82804e-06
5.41878e-06
3.19603e-06
1.73136e-06
8.64891e-07
4.29771e-07
2.52774e-07
1.97951e-07
1.75587e-07
1.41908e-07
9.57419e-08
5.34156e-08
2.50059e-08
1.00311e-08
3.49591e-09
1.10201e-09
3.15016e-10
1.08664e-10
4.60999e-11
7.68332e-12
3.29285e-11
1.31714e-11
1.53666e-11
2.74404e-11
1.09762e-11
-5.48809e-12
3.40261e-11
6.5857e-12
2.63428e-11
3.51238e-11
2.74404e-11
3.07333e-11
1.64643e-11
2.96357e-11
-1.09762e-12
-6.5857e-12
4.39047e-12
6.5857e-12
1.53666e-11
2.08547e-11
1.09762e-12
5.48809e-12
4.39047e-12
1.4269e-11
-1.09762e-11
0
0
-2.19523e-12
-1.09762e-12
0
-3.29285e-12
0
4.39047e-12
-4.39047e-12
-2.19523e-12
-1.31714e-11
-5.48809e-12
6.5857e-12
-1.09762e-12
-5.48809e-12
2.19523e-12
0.000193757
0.000473305
0.000523994
0.000406634
0.00025111
0.000136111
7.32023e-05
4.44931e-05
3.1771e-05
2.43118e-05
1.76726e-05
1.14952e-05
6.74447e-06
3.78512e-06
2.17559e-06
1.28765e-06
7.40962e-07
3.94182e-07
1.93088e-07
9.31932e-08
5.26351e-08
3.99368e-08
3.50557e-08
2.83207e-08
1.91545e-08
1.07084e-08
5.04465e-09
2.03718e-09
7.13451e-10
2.3489e-10
6.69547e-11
2.52452e-11
1.53666e-11
2.08547e-11
-2.19523e-12
-8.78094e-12
-1.09762e-11
7.68332e-12
-9.87856e-12
8.78094e-12
0
-4.39047e-12
9.87856e-12
3.62214e-11
2.52452e-11
2.74404e-11
9.87856e-12
0
8.78094e-12
8.78094e-12
1.09762e-12
4.39047e-12
1.4269e-11
1.09762e-12
-2.19524e-12
1.4269e-11
1.31714e-11
2.19524e-12
2.19523e-12
0
0
-2.19523e-12
2.19524e-12
8.78094e-12
3.29285e-12
-1.09762e-12
0
-1.20738e-11
1.09762e-12
0
-1.64643e-11
-9.87856e-12
1.09762e-12
-7.68332e-12
0
8.40881e-05
0.000205108
0.000226177
0.000173855
0.00010499
5.40965e-05
2.63235e-05
1.38835e-05
8.77459e-06
6.29955e-06
4.46259e-06
2.86144e-06
1.64936e-06
8.98943e-07
4.96898e-07
2.83684e-07
1.59181e-07
8.31851e-08
4.00466e-08
1.88121e-08
1.02232e-08
7.50331e-09
6.50229e-09
5.24442e-09
3.5464e-09
1.99766e-09
9.42853e-10
3.68799e-10
1.30616e-10
5.04904e-11
2.305e-11
3.29285e-12
-2.08547e-11
-5.48809e-12
-1.75619e-11
-4.39047e-12
-9.87856e-12
9.87856e-12
1.4269e-11
3.7319e-11
6.5857e-12
1.20738e-11
-2.63428e-11
-1.09762e-12
1.53666e-11
1.20738e-11
-1.4269e-11
-5.48809e-12
-8.78094e-12
5.48809e-12
0
-2.19524e-12
-1.4269e-11
-8.78094e-12
0
-2.08547e-11
-4.39047e-12
-4.39047e-12
1.09762e-12
0
0
-2.19523e-12
4.39047e-12
0
5.48809e-12
0
-1.09762e-12
0
6.58571e-12
1.53666e-11
5.48809e-12
-5.48809e-12
-8.78094e-12
1.09762e-12
-4.39047e-12
3.14415e-05
7.66599e-05
8.44179e-05
6.46246e-05
3.85981e-05
1.93347e-05
8.81728e-06
4.14344e-06
2.301e-06
1.52044e-06
1.03912e-06
6.55382e-07
3.71946e-07
1.97787e-07
1.05549e-07
5.81946e-08
3.18199e-08
1.63304e-08
7.74808e-09
3.53982e-09
1.83631e-09
1.31056e-09
1.13164e-09
8.86875e-10
6.0369e-10
3.51238e-10
1.56959e-10
5.37833e-11
2.63428e-11
1.97571e-11
2.19523e-11
2.305e-11
-1.20738e-11
-1.86595e-11
-7.68332e-12
7.68332e-12
7.68332e-12
1.09762e-11
2.52452e-11
1.20738e-11
5.48809e-12
1.09762e-12
-1.4269e-11
-8.78094e-12
3.29285e-12
-9.87856e-12
-5.48809e-12
8.78094e-12
-9.87856e-12
2.19523e-12
-1.09762e-12
-4.39047e-12
-1.09762e-11
-3.29285e-12
2.19523e-12
0
-1.4269e-11
-1.09762e-12
-1.09762e-12
0
-1.09762e-12
4.39047e-12
0
-1.09762e-12
0
-4.39047e-12
-1.09762e-12
-1.09762e-12
0
6.5857e-12
8.78094e-12
-2.19523e-12
-4.39047e-12
8.78094e-12
0
1.02866e-05
2.50833e-05
2.76196e-05
2.11159e-05
1.25473e-05
6.18939e-06
2.71137e-06
1.16992e-06
5.75413e-07
3.44972e-07
2.24849e-07
1.38952e-07
7.76916e-08
4.0434e-08
2.09041e-08
1.11397e-08
5.91945e-09
2.98771e-09
1.38519e-09
6.2674e-10
2.94161e-10
2.05254e-10
1.81107e-10
1.21836e-10
9.11023e-11
5.1588e-11
1.75619e-11
2.19524e-12
-6.5857e-12
-1.09762e-12
-9.87856e-12