/*--------------------------------*- C++ -*----------------------------------*\
  =========                 |
  \\      /  F ield         | OpenFOAM: The Open Source CFD Toolbox
   \\    /   O peration     | Website:  https://openfoam.org
    \\  /    A nd           | Version:  10
     \\/     M anipulation  |
\*---------------------------------------------------------------------------*/
FoamFile
{
    format      ascii;
    class       volScalarField;
    location    "110";
    object      gradTz;
}
// * * * * * * * * * * * * * * * * * * * * * * * * * * * * * * * * * * * * * //

dimensions      [0 -1 0 1 0 0 0];

internalField   nonuniform List<scalar> 
11250
(
-14396.1
-4189.74
-1565.83
-757.157
-446.21
-297.633
-213.006
-158.36
-119.987
-91.5655
-69.8447
-52.9818
-39.8285
-29.5984
-21.7068
-15.6903
-11.1683
-7.82306
-5.39012
-3.65175
-2.43211
-1.59226
-1.02469
-0.648164
-0.402882
-0.246041
-0.147706
-0.0873177
-0.0509644
-0.0294099
-0.0167139
-0.00923685
-0.00486034
-0.00237766
-0.00106066
-0.000426619
-0.000154126
-5.00766e-05
-1.46934e-05
-3.91505e-06
-9.52923e-07
-2.13147e-07
-4.40671e-08
-8.46044e-09
-1.51252e-09
-2.50257e-10
-4.06118e-11
2.19524e-12
0
-1.09762e-12
0
1.31714e-11
0
-1.4269e-11
0
0
0
0
0
0
0
0
-2.08547e-11
-1.09762e-12
2.19523e-11
1.09762e-12
-1.09762e-12
0
1.09762e-12
-1.09762e-12
0
-5.48809e-12
-1.09762e-12
6.5857e-12
0
-8391.9
-4983.98
-2879.84
-1771.81
-1174.86
-828.119
-608.766
-459.046
-350.666
-268.968
-205.855
-156.518
-117.857
-87.6927
-64.3718
-46.5634
-33.1624
-23.2399
-16.0184
-10.8556
-7.23193
-4.73566
-3.04814
-1.92833
-1.19875
-0.732208
-0.439653
-0.259888
-0.151568
-0.0873258
-0.0495644
-0.0274202
-0.0144983
-0.00715227
-0.00322427
-0.00131139
-0.000478891
-0.000157138
-4.6515e-05
-1.24903e-05
-3.06086e-06
-6.88678e-07
-1.43105e-07
-2.76106e-08
-4.94806e-09
-8.18823e-10
-1.37202e-10
-7.68332e-12
3.29285e-12
0
0
0
0
0
0
0
-2.19523e-12
0
5.48809e-12
-1.09762e-12
-3.29285e-12
1.09762e-12
1.09762e-12
8.78094e-12
-1.09762e-12
-1.20738e-11
1.09762e-12
2.19523e-12
-1.09762e-12
-4.39047e-12
1.09762e-12
4.39047e-12
0
-8.78094e-12
8.78094e-12
-5786.91
-4466.3
-3190.58
-2269.58
-1649.12
-1228.75
-934.092
-719.094
-556.617
-430.681
-331.6
-253.196
-191.244
-142.626
-104.88
-75.9694
-54.1639
-37.9907
-26.2042
-17.7692
-11.8437
-7.75883
-4.99568
-3.16122
-1.96569
-1.20106
-0.721401
-0.426379
-0.248354
-0.142739
-0.0808594
-0.044817
-0.0238911
-0.0119527
-0.00548295
-0.00227091
-0.0008437
-0.000281175
-8.4375e-05
-2.29261e-05
-5.6759e-06
-1.28834e-06
-2.69732e-07
-5.23651e-08
-9.46476e-09
-1.60252e-09
-2.51354e-10
-2.74404e-11
-1.09762e-12
-1.64643e-11
1.09762e-12
1.53666e-11
8.78094e-12
-1.31714e-11
-1.53666e-11
-2.19523e-12
6.58571e-12
9.87856e-12
0
5.48809e-12
0
0
1.09762e-12
5.48809e-12
-1.09762e-12
-5.48809e-12
0
0
0
-1.09762e-11
0
1.20738e-11
1.09762e-12
-1.09762e-12
-1.09762e-12
-4488.25
-3890.34
-3134.82
-2457.3
-1916.43
-1499.6
-1178.44
-927.778
-729.241
-570.3
-442.443
-339.701
-257.637
-192.739
-142.073
-103.104
-73.6213
-51.7011
-35.6968
-24.2264
-16.159
-10.5921
-6.82323
-4.31942
-2.68694
-1.64246
-0.98685
-0.583167
-0.339257
-0.194546
-0.110037
-0.0611461
-0.0329045
-0.0167233
-0.00781897
-0.00330196
-0.00124908
-0.000422968
-0.000128688
-3.5383e-05
-8.84925e-06
-2.02624e-06
-4.27398e-07
-8.35276e-08
-1.51932e-08
-2.58379e-09
-4.11607e-10
-5.92713e-11
-9.87856e-12
0
0
3.29285e-12
1.09762e-11
-4.39047e-12
-1.09762e-11
0
3.29285e-12
1.09762e-12
-2.19523e-12
0
-1.09762e-12
0
-1.20738e-11
-1.09762e-12
1.4269e-11
1.09762e-12
0
0
-2.19524e-12
0
8.78094e-12
1.09762e-12
-9.87856e-12
0
0
-3767.91
-3453.59
-2984.9
-2495.31
-2050.27
-1669.2
-1350.5
-1085.92
-866.68
-685.37
-536.098
-414.143
-315.565
-236.929
-175.14
-127.388
-91.1259
-64.0886
-44.3036
-30.0981
-20.0927
-13.1802
-8.4957
-5.38102
-3.34899
-2.04812
-1.23096
-0.727306
-0.422761
-0.242123
-0.136898
-0.0763132
-0.0414275
-0.0213456
-0.0101417
-0.00435189
-0.00167055
-0.000573035
-0.000176311
-4.89515e-05
-1.23473e-05
-2.84853e-06
-6.04854e-07
-1.18906e-07
-2.17701e-08
-3.72422e-09
-5.93811e-10
-8.56142e-11
-6.5857e-12
0
1.09762e-12
0
0
0
0
0
-5.48809e-12
0
1.20738e-11
0
-8.78094e-12
0
2.19523e-12
1.09762e-12
5.48809e-12
-2.19523e-12
-4.39047e-12
1.09762e-12
2.19523e-12
-5.48809e-12
-2.19523e-12
4.39047e-12
0
-5.48809e-12
5.48809e-12
-3337.38
-3148.17
-2835.64
-2472.4
-2108.33
-1769.46
-1466.18
-1200.71
-971.712
-776.585
-612.361
-476
-364.453
-274.674
-203.657
-148.491
-106.433
-74.9767
-51.9007
-35.2994
-23.5877
-15.4857
-9.98891
-6.33077
-3.94231
-2.41211
-1.45011
-0.856763
-0.49787
-0.285085
-0.161314
-0.0902095
-0.0492967
-0.0256447
-0.0123192
-0.00534556
-0.00207386
-0.000718424
-0.00022307
-6.24616e-05
-1.58809e-05
-3.69134e-06
-7.8945e-07
-1.56282e-07
-2.87927e-08
-4.97221e-09
-7.99066e-10
-9.87856e-11
-2.19524e-12
8.78094e-12
-3.29285e-12
-9.87856e-12
0
0
2.19524e-12
0
-5.48809e-12
-6.58571e-12
6.5857e-12
4.39047e-12
-1.09762e-12
0
4.39047e-12
0
-5.48809e-12
1.09762e-12
0
0
0
-1.09762e-11
-2.19523e-12
4.39047e-12
1.09762e-12
4.39047e-12
3.29285e-12
-3067.01
-2938.78
-2713.15
-2430.96
-2127.19
-1825.87
-1541.38
-1281.38
-1049.41
-846.59
-672.514
-525.823
-404.477
-305.979
-227.554
-166.325
-119.459
-84.2952
-58.4339
-39.7905
-26.6159
-17.4893
-11.2901
-7.16032
-4.46153
-2.73108
-1.64236
-0.970483
-0.564043
-0.323117
-0.183035
-0.102589
-0.0562833
-0.0294511
-0.0142556
-0.00624123
-0.00244518
-0.00085584
-0.000268565
-7.6008e-05
-1.95322e-05
-4.58827e-06
-9.9156e-07
-1.98285e-07
-3.6881e-08
-6.40679e-09
-1.05042e-09
-1.56959e-10
-1.75619e-11
-5.48809e-12
1.09762e-12
7.68332e-12
-3.29285e-12
-1.09762e-12
4.39047e-12
0
-2.19524e-12
0
2.19523e-12
2.19524e-12
0
1.09762e-12
-1.09762e-12
-1.09762e-12
1.09762e-12
-1.09762e-12
0
0
0
0
0
-4.39047e-12
-1.09762e-12
0
5.48809e-12
-2891.81
-2795.72
-2619.92
-2389.03
-2127.66
-1856.04
-1589.03
-1336.69
-1105.43
-898.881
-718.667
-564.853
-436.352
-331.241
-247.047
-181.001
-130.257
-92.068
-63.912
-43.573
-29.1763
-19.189
-12.3971
-7.86779
-4.9052
-3.00411
-1.80721
-1.06825
-0.621104
-0.355984
-0.201765
-0.113165
-0.0621902
-0.0326833
-0.0159477
-0.00706295
-0.00280638
-0.000997768
-0.000318291
-9.15939e-05
-2.3929e-05
-5.71245e-06
-1.25395e-06
-2.54579e-07
-4.80197e-08
-8.44397e-09
-1.40166e-09
-2.08547e-10
-2.19523e-11
0
1.09762e-12
-1.09762e-12
-1.09762e-12
1.09762e-12
-7.68332e-12
0
-5.48809e-12
0
8.78094e-12
0
2.19523e-12
0
3.29285e-12
0
0
-1.09762e-12
0
-1.20738e-11
0
1.31714e-11
1.09762e-12
-8.78094e-12
-8.78094e-12
4.39047e-12
1.09762e-11
-2776.09
-2697.96
-2551.59
-2353.16
-2120.74
-1871.2
-1618.62
-1373.9
-1144.96
-937.058
-753.235
-594.678
-461.104
-351.118
-262.551
-192.779
-138.989
-98.3933
-68.3942
-46.6827
-31.2899
-20.5971
-13.3169
-8.45699
-5.27545
-3.23241
-1.94545
-1.1505
-0.669227
-0.383641
-0.217341
-0.121776
-0.0669509
-0.0353745
-0.0174719
-0.007879
-0.00319956
-0.00116452
-0.000380351
-0.000111984
-2.98968e-05
-7.28327e-06
-1.62909e-06
-3.36522e-07
-6.45322e-08
-1.1525e-08
-1.89668e-09
-2.87576e-10
-5.92713e-11
-1.09762e-12
5.48809e-12
2.19524e-12
0
0
5.48809e-12
2.305e-11
-5.48809e-12
-2.41476e-11
0
1.09762e-12
1.09762e-12
-1.09762e-12
0
0
1.09762e-12
6.58571e-12
-1.09762e-12
-6.5857e-12
1.09762e-12
-1.09762e-12
0
1.09762e-12
0
-1.09762e-12
0
-2698.86
-2631.2
-2502.63
-2324.81
-2111.87
-1878.13
-1636.69
-1398.56
-1172.38
-964.384
-778.577
-616.962
-479.885
-366.391
-274.591
-202.008
-145.882
-103.42
-71.9762
-49.1799
-32.9944
-21.7367
-14.0635
-8.93637
-5.57731
-3.41899
-2.05882
-1.21826
-0.708965
-0.406358
-0.229872
-0.128483
-0.070637
-0.0376026
-0.0188908
-0.00872758
-0.00364335
-0.0013636
-0.000457329
-0.000137953
-3.76409e-05
-9.34937e-06
-2.12746e-06
-4.46203e-07
-8.67304e-08
-1.5697e-08
-2.64636e-09
-4.05021e-10
-7.4638e-11
-7.68332e-12
1.31714e-11
1.09762e-12
-4.39047e-12
1.09762e-12
3.29285e-12
1.4269e-11
0
-1.75619e-11
0
3.29285e-12
0
9.87856e-12
0
-9.87856e-12
0
1.64643e-11
1.09762e-12
-1.64643e-11
-1.09762e-12
2.19524e-12
5.48809e-12
-2.19524e-12
-5.48809e-12
0
0
-2647.09
-2585.73
-2468.11
-2303.44
-2103.46
-1880.76
-1647.55
-1414.68
-1191.1
-983.605
-796.802
-633.273
-493.832
-377.872
-283.734
-209.077
-151.202
-107.324
-74.7738
-51.14
-34.338
-22.6383
-14.6558
-9.31768
-5.81794
-3.5681
-2.14976
-1.2729
-0.741156
-0.424697
-0.239776
-0.133596
-0.073426
-0.039412
-0.0201673
-0.00955289
-0.0040964
-0.0015729
-0.000539756
-0.000166093
-4.61005e-05
-1.16191e-05
-2.67722e-06
-5.67565e-07
-1.11357e-07
-2.03378e-08
-3.47506e-09
-5.51004e-10
-7.57356e-11
-3.29285e-12
0
3.29285e-12
2.19523e-12
1.09762e-12
0
2.19523e-12
-1.09762e-12
-2.19523e-12
-2.19523e-12
1.09762e-12
1.09762e-12
0
-1.09762e-12
-1.09762e-12
1.09762e-12
1.09762e-12
1.09762e-12
-1.09762e-12
0
0
1.09762e-12
-6.5857e-12
0
5.48809e-12
0
-2612.39
-2554.88
-2444.09
-2287.85
-2096.42
-1881.29
-1653.99
-1425.11
-1203.72
-996.912
-809.678
-644.984
-503.982
-386.322
-290.529
-214.375
-155.218
-110.289
-76.911
-52.6448
-35.3739
-23.3359
-15.1157
-9.61453
-6.00576
-3.68478
-2.22115
-1.31599
-0.76668
-0.439244
-0.247531
-0.137485
-0.0755023
-0.0407924
-0.0211865
-0.0102346
-0.00447848
-0.00175166
-0.000610731
-0.000190459
-5.34552e-05
-1.35987e-05
-3.15789e-06
-6.73901e-07
-1.32982e-07
-2.44121e-08
-4.18961e-09
-6.66254e-10
-8.23213e-11
0
0
0
0
1.09762e-12
1.09762e-12
-2.19523e-12
0
-1.09762e-12
-1.09762e-12
3.29285e-12
1.4269e-11
-2.19523e-12
-1.31714e-11
0
-9.87856e-12
-2.08547e-11
8.78094e-12
2.19523e-11
0
0
0
0
-2.19524e-12
-3.29285e-12
5.48809e-12
-2589.22
-2534.09
-2427.59
-2276.73
-2090.93
-1880.92
-1657.74
-1431.79
-1212.12
-1005.99
-818.624
-653.244
-511.229
-392.419
-295.477
-218.264
-158.187
-112.495
-78.5088
-53.775
-36.1553
-23.8642
-15.4652
-9.84095
-6.14953
-3.77436
-2.27607
-1.34919
-0.786355
-0.450433
-0.253442
-0.140384
-0.0769888
-0.0417432
-0.0218789
-0.0106978
-0.00473907
-0.00187406
-0.000659498
-0.000207253
-5.85385e-05
-1.49703e-05
-3.49175e-06
-7.47943e-07
-1.48046e-07
-2.72319e-08
-4.68134e-09
-7.45282e-10
-1.09762e-10
-1.31714e-11
2.19524e-12
1.09762e-12
-2.19523e-12
-1.09762e-12
0
0
0
0
0
2.19524e-12
-2.19524e-12
6.5857e-12
0
-1.86595e-11
-4.39047e-12
9.87856e-12
3.29285e-12
3.29285e-12
1.09762e-12
0
-1.09762e-12
0
0
1.09762e-12
-1.09762e-12
-2573.82
-2520.18
-2416.39
-2268.98
-2086.84
-1880.24
-1659.9
-1436.02
-1217.64
-1012.09
-824.742
-658.969
-516.309
-396.736
-299.011
-221.062
-160.336
-114.101
-79.6786
-54.6062
-36.7323
-24.2558
-15.7253
-10.0102
-6.25743
-3.84188
-2.31757
-1.37423
-0.801085
-0.458701
-0.257738
-0.142439
-0.0779846
-0.0423269
-0.0222788
-0.0109588
-0.00488474
-0.00194238
-0.000686747
-0.000216655
-6.13908e-05
-1.57419e-05
-3.68007e-06
-7.89793e-07
-1.56585e-07
-2.88421e-08
-4.94586e-09
-7.70527e-10
-1.1525e-10
-2.19523e-11
1.09762e-12
0
-2.19523e-12
1.09762e-12
0
-1.09762e-12
-8.78094e-12
-8.78094e-12
4.39047e-12
8.78094e-12
4.39047e-12
0
-1.20738e-11
-1.09762e-12
1.31714e-11
2.19523e-12
-2.19523e-12
-1.09762e-12
1.09762e-12
-1.09762e-12
-4.39047e-12
-7.68332e-12
3.29285e-12
1.31714e-11
-3.29285e-12
-2563.68
-2510.97
-2408.88
-2263.67
-2083.9
-1879.55
-1661.11
-1438.68
-1221.23
-1016.14
-828.863
-662.873
-519.81
-399.737
-301.487
-223.036
-161.863
-115.248
-80.5179
-55.205
-37.1495
-24.54
-15.9146
-10.1338
-6.33669
-3.89179
-2.34845
-1.3929
-0.811956
-0.464673
-0.260756
-0.143832
-0.078614
-0.0426537
-0.0224804
-0.0110838
-0.00495315
-0.00197426
-0.000699442
-0.000221039
-6.27235e-05
-1.61033e-05
-3.76849e-06
-8.09523e-07
-1.60647e-07
-2.95973e-08
-5.06441e-09
-8.10042e-10
-1.1525e-10
-3.29285e-12
0
0
2.19523e-12
0
-2.19524e-12
5.48809e-12
0
-5.48809e-12
1.09762e-12
0
-2.19524e-12
0
1.09762e-12
0
4.39047e-12
0
-4.39047e-12
-1.09762e-12
0
-4.39047e-12
4.39047e-12
5.48809e-12
-4.39047e-12
1.09762e-12
-1.09762e-12
-2557.06
-2504.93
-2403.9
-2260.09
-2081.84
-1878.96
-1661.79
-1440.33
-1223.53
-1018.79
-831.596
-665.491
-522.181
-401.786
-303.19
-224.404
-162.926
-116.052
-81.1082
-55.6278
-37.445
-24.7418
-16.0496
-10.2222
-6.39359
-3.92793
-2.37108
-1.40672
-0.82
-0.469016
-0.262885
-0.144775
-0.0790087
-0.0428308
-0.022574
-0.0111368
-0.00498097
-0.00198702
-0.000704497
-0.000222783
-6.32542e-05
-1.62475e-05
-3.80389e-06
-8.17428e-07
-1.62271e-07
-2.99024e-08
-5.13685e-09
-8.39677e-10
-1.07567e-10
4.39047e-12
-3.29285e-12
-9.87856e-12
3.29285e-12
-5.48809e-12
-2.19524e-12
1.53666e-11
-1.09762e-12
0
5.48809e-12
1.09762e-12
-8.78094e-12
-1.09762e-12
5.48809e-12
8.78094e-12
0
-8.78094e-12
0
-4.39047e-12
0
-6.58571e-12
-1.09762e-12
9.87856e-12
9.87856e-12
1.09762e-12
-8.78094e-12
-2552.78
-2501.01
-2400.66
-2257.71
-2080.43
-1878.5
-1662.15
-1441.34
-1225
-1020.5
-833.383
-667.22
-523.759
-403.162
-304.341
-225.333
-163.653
-116.603
-81.5154
-55.9206
-37.6503
-24.8825
-16.1438
-10.2841
-6.43359
-3.95353
-2.38736
-1.41682
-0.825921
-0.472189
-0.264408
-0.145427
-0.0792645
-0.0429307
-0.0226174
-0.0111578
-0.00499118
-0.00199153
-0.00070626
-0.000223388
-6.34382e-05
-1.62976e-05
-3.81619e-06
-8.20186e-07
-1.62828e-07
-3.00297e-08
-5.15551e-09
-8.33092e-10
-1.28421e-10
-7.68332e-12
1.09762e-12
0
-1.09762e-12
1.09762e-12
-4.39047e-12
-1.09762e-12
6.5857e-12
8.78094e-12
-1.09762e-12
-8.78094e-12
0
0
-2.19523e-12
4.39047e-12
2.19523e-12
-5.48809e-12
-2.19523e-12
0
2.19523e-12
-6.5857e-12
-4.39047e-12
6.5857e-12
4.39047e-12
8.78094e-12
-7.68332e-12
-2550.04
-2498.5
-2398.56
-2256.17
-2079.5
-1878.16
-1662.35
-1441.96
-1225.91
-1021.59
-834.534
-668.344
-524.793
-404.069
-305.104
-225.953
-164.14
-116.975
-81.7909
-56.1194
-37.7903
-24.9788
-16.2086
-10.3268
-6.46125
-3.97133
-2.39874
-1.42393
-0.830098
-0.474414
-0.265461
-0.145868
-0.07943
-0.0429892
-0.0226386
-0.0111663
-0.00499475
-0.00199301
-0.000706815
-0.000223576
-6.34948e-05
-1.6313e-05
-3.81995e-06
-8.21042e-07
-1.62999e-07
-3.00484e-08
-5.17417e-09
-8.24311e-10
-1.28421e-10
-1.86595e-11
1.09762e-12
0
-1.09762e-12
0
2.19524e-12
0
-1.09762e-12
0
-1.09762e-12
0
0
1.09762e-12
-1.09762e-12
0
0
0
-1.09762e-12
0
1.09762e-12
-1.4269e-11
4.39047e-12
9.87856e-12
-3.29285e-12
4.39047e-12
-1.09762e-12
-2548.32
-2496.92
-2397.23
-2255.17
-2078.88
-1877.92
-1662.44
-1442.33
-1226.48
-1022.28
-835.264
-669.063
-525.46
-404.657
-305.602
-226.359
-164.461
-117.22
-81.974
-56.2523
-37.8843
-25.0437
-16.2524
-10.3558
-6.48009
-3.98344
-2.40642
-1.42866
-0.832828
-0.475843
-0.266126
-0.146141
-0.0795299
-0.0430226
-0.0226494
-0.0111698
-0.00499602
-0.00199347
-0.000706979
-0.000223629
-6.35107e-05
-1.63172e-05
-3.82103e-06
-8.21292e-07
-1.63053e-07
-3.00648e-08
-5.17636e-09
-8.16627e-10
-1.1525e-10
-1.75619e-11
1.09762e-12
0
-1.09762e-12
-1.09762e-12
0
1.09762e-12
-1.09762e-12
0
1.09762e-12
0
-3.29285e-12
0
3.29285e-12
0
1.09762e-12
8.78094e-12
0
-9.87856e-12
0
0
9.87856e-12
3.29285e-12
-1.4269e-11
-2.19523e-12
3.29285e-12
-2547.24
-2495.92
-2396.39
-2254.54
-2078.48
-1877.76
-1662.49
-1442.55
-1226.83
-1022.7
-835.721
-669.516
-525.883
-405.032
-305.921
-226.62
-164.668
-117.38
-82.0933
-56.3394
-37.9463
-25.0867
-16.2815
-10.375
-6.49268
-3.99149
-2.41143
-1.43163
-0.834478
-0.476676
-0.266502
-0.146292
-0.0795838
-0.04304
-0.0226546
-0.0111714
-0.00499649
-0.00199362
-0.000707025
-0.000223643
-6.35148e-05
-1.63183e-05
-3.82131e-06
-8.2132e-07
-1.63052e-07
-3.00725e-08
-5.18734e-09
-8.27604e-10
-1.18543e-10
-2.305e-11
0
0
0
1.09762e-12
1.09762e-12
-2.19523e-12
1.09762e-12
-1.09762e-12
2.19523e-12
-2.19523e-12
-1.09762e-11
3.29285e-12
7.68332e-12
-8.78094e-12
-1.09762e-11
9.87856e-12
9.87856e-12
5.48809e-12
-1.09762e-12
-4.39047e-12
0
-1.09762e-12
0
0
1.09762e-12
-2546.58
-2495.31
-2395.88
-2254.15
-2078.23
-1877.65
-1662.52
-1442.68
-1227.04
-1022.96
-836.003
-669.798
-526.147
-405.268
-306.122
-226.785
-164.799
-117.481
-82.1696
-56.3953
-37.9863
-25.1145
-16.3004
-10.3877
-6.50099
-3.99679
-2.41463
-1.43345
-0.835426
-0.477129
-0.266697
-0.146367
-0.07961
-0.0430483
-0.022657
-0.011172
-0.00499667
-0.00199366
-0.000707039
-0.000223647
-6.35158e-05
-1.63186e-05
-3.82137e-06
-8.21363e-07
-1.63074e-07
-3.00626e-08
-5.1621e-09
-8.39677e-10
-1.35007e-10
-6.5857e-12
7.68332e-12
0
0
1.09762e-12
2.19524e-12
1.86595e-11
-4.39047e-12
-1.75619e-11
1.09762e-12
0
-1.09762e-11
-1.09762e-12
1.31714e-11
0
-2.19523e-12
0
1.09762e-12
-1.09762e-12
0
-2.19524e-12
-2.19523e-12
6.58571e-12
-3.29285e-12
-7.68332e-12
8.78094e-12
-2546.18
-2494.94
-2395.56
-2253.91
-2078.08
-1877.58
-1662.53
-1442.76
-1227.16
-1023.12
-836.175
-669.971
-526.31
-405.414
-306.247
-226.888
-164.881
-117.544
-82.2172
-56.4303
-38.0113
-25.132
-16.3124
-10.3959
-6.50647
-4.00029
-2.41669
-1.43455
-0.835964
-0.477368
-0.266793
-0.146403
-0.0796218
-0.0430518
-0.022658
-0.0111723
-0.00499673
-0.00199368
-0.000707043
-0.000223648
-6.3516e-05
-1.63186e-05
-3.82138e-06
-8.21379e-07
-1.6308e-07
-3.0067e-08
-5.18954e-09
-8.21018e-10
-1.06469e-10
-1.31714e-11
2.19524e-12
0
1.09762e-12
0
-3.29285e-12
9.87856e-12
0
-9.87856e-12
0
0
0
0
-1.64643e-11
0
1.64643e-11
0
1.09762e-12
0
0
-1.31714e-11
0
1.20738e-11
-3.29285e-12
1.09762e-12
2.19524e-12
-2545.94
-2494.72
-2395.37
-2253.77
-2077.99
-1877.54
-1662.53
-1442.8
-1227.24
-1023.21
-836.277
-670.075
-526.409
-405.502
-306.323
-226.951
-164.931
-117.583
-82.2463
-56.4516
-38.0265
-25.1427
-16.32
-10.4012
-6.51013
-4.00263
-2.41804
-1.43524
-0.836278
-0.477497
-0.266841
-0.146419
-0.0796269
-0.0430533
-0.0226584
-0.0111724
-0.00499675
-0.00199369
-0.000707044
-0.000223648
-6.35161e-05
-1.63186e-05
-3.82137e-06
-8.21372e-07
-1.63079e-07
-3.00681e-08
-5.17746e-09
-8.27604e-10
-1.08664e-10
-7.68332e-12
1.09762e-12
0
-1.09762e-12
1.09762e-12
0
-1.09762e-12
-7.68332e-12
-1.09762e-12
7.68332e-12
1.09762e-12
0
0
0
-1.09762e-12
-4.39047e-12
1.20738e-11
4.39047e-12
-1.09762e-11
-2.19523e-12
-1.09762e-12
2.19523e-12
0
0
-1.09762e-11
1.20738e-11
-2545.8
-2494.59
-2395.26
-2253.68
-2077.93
-1877.51
-1662.53
-1442.83
-1227.28
-1023.26
-836.338
-670.136
-526.467
-405.555
-306.369
-226.989
-164.961
-117.607
-82.2638
-56.4642
-38.0354
-25.149
-16.3245
-10.4046
-6.51264
-4.00428
-2.41897
-1.4357
-0.836476
-0.477572
-0.266867
-0.146427
-0.0796293
-0.0430539
-0.0226586
-0.0111724
-0.00499676
-0.00199369
-0.000707044
-0.000223648
-6.35161e-05
-1.63186e-05
-3.82138e-06
-8.21366e-07
-1.63058e-07
-3.00561e-08
-5.19063e-09
-8.33092e-10
-1.05371e-10
-1.53666e-11
0
5.48809e-12
0
-7.68332e-12
3.29285e-12
2.19523e-12
7.68332e-12
1.09762e-12
-1.20738e-11
0
-1.09762e-12
-1.09762e-12
-2.19524e-12
0
1.75619e-11
0
-1.4269e-11
0
1.09762e-12
-5.48809e-12
-2.19523e-12
6.58571e-12
-1.09762e-12
-1.09762e-12
2.19524e-12
-2545.72
-2494.51
-2395.19
-2253.63
-2077.89
-1877.5
-1662.53
-1442.84
-1227.3
-1023.3
-836.373
-670.171
-526.501
-405.586
-306.396
-227.012
-164.98
-117.621
-82.2742
-56.4714
-38.0403
-25.1524
-16.3272
-10.4068
-6.51438
-4.00546
-2.41965
-1.43602
-0.83661
-0.477621
-0.266883
-0.146432
-0.0796306
-0.0430543
-0.0226586
-0.0111725
-0.00499676
-0.00199369
-0.000707044
-0.000223648
-6.35161e-05
-1.63187e-05
-3.82138e-06
-8.21352e-07
-1.63051e-07
-3.00626e-08
-5.19063e-09
-8.44068e-10
-1.03176e-10
-7.68332e-12
-8.78094e-12
5.48809e-12
8.78094e-12
-1.31714e-11
6.58571e-12
1.53666e-11
-2.19524e-12
-3.29285e-12
-5.48809e-12
2.19524e-12
1.09762e-12
-3.29285e-12
4.39047e-12
4.39047e-12
-4.39047e-12
-2.19524e-12
0
0
0
0
0
0
1.09762e-12
1.09762e-12
-2.19524e-12
-2545.67
-2494.47
-2395.16
-2253.6
-2077.88
-1877.49
-1662.53
-1442.85
-1227.32
-1023.31
-836.393
-670.192
-526.52
-405.604
-306.412
-227.026
-164.991
-117.63
-82.2803
-56.4754
-38.0428
-25.154
-16.3285
-10.4081
-6.51552
-4.00627
-2.42011
-1.43625
-0.836701
-0.477653
-0.266893
-0.146435
-0.0796313
-0.0430544
-0.0226587
-0.0111725
-0.00499677
-0.00199369
-0.000707044
-0.000223648
-6.35161e-05
-1.63187e-05
-3.8214e-06
-8.21358e-07
-1.63048e-07
-3.0067e-08
-5.19612e-09
-8.24311e-10
-1.08664e-10
-1.20738e-11
-2.19523e-12
-1.09762e-12
3.29285e-12
0
0
0
8.78094e-12
-2.19523e-12
-5.48809e-12
1.09762e-12
-2.19523e-12
0
2.19523e-12
-2.19523e-12
-2.19523e-12
4.39047e-12
1.09762e-12
-3.29285e-12
0
0
2.19523e-12
0
-2.19523e-12
-5.48809e-12
5.48809e-12
-2545.65
-2494.44
-2395.13
-2253.58
-2077.86
-1877.48
-1662.53
-1442.85
-1227.33
-1023.32
-836.404
-670.203
-526.532
-405.614
-306.421
-227.034
-164.998
-117.634
-82.2836
-56.4775
-38.044
-25.1548
-16.3292
-10.4089
-6.51619
-4.00676
-2.4204
-1.43638
-0.836756
-0.477672
-0.266899
-0.146436
-0.0796317
-0.0430545
-0.0226587
-0.0111725
-0.00499677
-0.00199369
-0.000707044
-0.000223648
-6.35161e-05
-1.63187e-05
-3.8214e-06
-8.21374e-07
-1.63062e-07
-3.00648e-08
-5.17197e-09
-8.37482e-10
-1.35007e-10
-1.09762e-11
0
0
0
0
0
2.19523e-12
0
-1.09762e-12
0
0
-2.19524e-12
0
-4.39047e-12
-1.09762e-12
5.48809e-12
1.09762e-12
0
2.19523e-12
-1.09762e-12
-6.58571e-12
0
2.19524e-12
-1.4269e-11
4.39047e-12
1.31714e-11
-2545.63
-2494.43
-2395.12
-2253.57
-2077.86
-1877.48
-1662.53
-1442.86
-1227.33
-1023.33
-836.412
-670.21
-526.538
-405.62
-306.426
-227.038
-165.002
-117.637
-82.2854
-56.4785
-38.0445
-25.1551
-16.3295
-10.4092
-6.51653
-4.00701
-2.42055
-1.43645
-0.836785
-0.477682
-0.266902
-0.146437
-0.0796319
-0.0430546
-0.0226587
-0.0111725
-0.00499677
-0.00199369
-0.000707044
-0.000223648
-6.35161e-05
-1.63187e-05
-3.82139e-06
-8.21374e-07
-1.63063e-07
-3.00462e-08
-5.17307e-09
-8.31994e-10
-1.26226e-10
-3.29285e-11
-4.39047e-12
-5.48809e-12
-1.09762e-12
5.48809e-12
0
2.19523e-12
0
1.09762e-12
0
-2.19524e-12
0
-5.48809e-12
-1.75619e-11
4.39047e-12
1.86595e-11
0
-1.09762e-12
1.09762e-12
0
0
0
0
0
8.78094e-12
-8.78094e-12
-2545.62
-2494.42
-2395.11
-2253.57
-2077.85
-1877.48
-1662.53
-1442.86
-1227.33
-1023.33
-836.416
-670.215
-526.541
-405.622
-306.429
-227.04
-165.003
-117.639
-82.2862
-56.4789
-38.0447
-25.1552
-16.3296
-10.4093
-6.51668
-4.00712
-2.42062
-1.43649
-0.836798
-0.477687
-0.266904
-0.146438
-0.079632
-0.0430546
-0.0226587
-0.0111725
-0.00499677
-0.00199369
-0.000707044
-0.000223648
-6.35161e-05
-1.63187e-05
-3.82138e-06
-8.21336e-07
-1.63041e-07
-3.00561e-08
-5.18295e-09
-8.35287e-10
-1.39397e-10
-3.62214e-11
2.19523e-12
1.09762e-12
2.19523e-12
-1.09762e-12
-2.19523e-12
0
0
0
-1.09762e-12
0
1.09762e-12
-1.09762e-12
0
1.09762e-12
-3.29285e-12
0
3.29285e-12
9.87856e-12
3.29285e-12
-8.78094e-12
-2.41476e-11
-1.09762e-12
1.64643e-11
2.19523e-12
2.19523e-12
-2545.62
-2494.42
-2395.11
-2253.56
-2077.85
-1877.48
-1662.53
-1442.86
-1227.34
-1023.34
-836.419
-670.217
-526.543
-405.624
-306.43
-227.041
-165.004
-117.639
-82.2866
-56.4791
-38.0448
-25.1552
-16.3296
-10.4094
-6.51673
-4.00717
-2.42064
-1.4365
-0.836803
-0.477689
-0.266904
-0.146438
-0.079632
-0.0430546
-0.0226587
-0.0111725
-0.00499677
-0.00199369
-0.000707044
-0.000223648
-6.35161e-05
-1.63187e-05
-3.82138e-06
-8.21352e-07
-1.63051e-07
-3.00396e-08
-5.19063e-09
-8.41873e-10
-1.17445e-10
-3.07333e-11
0
1.4269e-11
0
-1.53666e-11
0
1.20738e-11
-1.09762e-12
-9.87856e-12
0
-1.09762e-12
1.09762e-12
0
0
0
0
0
9.87856e-12
2.19523e-12
-9.87856e-12
-6.58571e-12
-1.09762e-12
5.48809e-12
0
0
0
-2545.62
-2494.42
-2395.11
-2253.56
-2077.85
-1877.48
-1662.53
-1442.86
-1227.34
-1023.34
-836.421
-670.219
-526.544
-405.625
-306.43
-227.042
-165.005
-117.639
-82.2867
-56.4792
-38.0448
-25.1552
-16.3296
-10.4094
-6.51675
-4.00718
-2.42065
-1.4365
-0.836805
-0.477689
-0.266904
-0.146438
-0.079632
-0.0430546
-0.0226587
-0.0111725
-0.00499677
-0.00199369
-0.000707044
-0.000223648
-6.35161e-05
-1.63187e-05
-3.82138e-06
-8.21355e-07
-1.63053e-07
-3.00473e-08
-5.17307e-09
-8.45165e-10
-1.20738e-10
-1.20738e-11
-9.87856e-12
1.09762e-12
1.09762e-11
1.09762e-12
2.19524e-12
8.78094e-12
-1.31714e-11
-9.87856e-12
1.20738e-11
-1.09762e-12
-4.39047e-12
-3.29285e-12
4.39047e-12
3.29285e-12
0
0
1.09762e-12
-1.09762e-12
7.68332e-12
1.09762e-12
-4.39047e-12
0
-2.19524e-12
0
-2.19524e-12
-2545.61
-2494.41
-2395.11
-2253.56
-2077.85
-1877.48
-1662.53
-1442.86
-1227.34
-1023.34
-836.421
-670.219
-526.545
-405.625
-306.431
-227.042
-165.005
-117.639
-82.2868
-56.4792
-38.0448
-25.1552
-16.3296
-10.4094
-6.51676
-4.00719
-2.42065
-1.4365
-0.836805
-0.47769
-0.266904
-0.146438
-0.079632
-0.0430546
-0.0226587
-0.0111725
-0.00499677
-0.00199369
-0.000707044
-0.000223648
-6.35161e-05
-1.63186e-05
-3.82137e-06
-8.21363e-07
-1.63071e-07
-3.00615e-08
-5.17636e-09
-8.24311e-10
-1.10859e-10
-1.20738e-11
-3.29285e-12
3.29285e-12
7.68332e-12
0
-2.19523e-12
0
-1.75619e-11
-9.87856e-12
5.48809e-12
5.48809e-12
1.20738e-11
4.39047e-12
-2.19523e-12
0
-7.68332e-12
0
1.4269e-11
0
-4.39047e-12
-7.68332e-12
-1.09762e-12
-1.09762e-12
0
1.64643e-11
-6.5857e-12
-2545.61
-2494.41
-2395.11
-2253.56
-2077.85
-1877.48
-1662.53
-1442.86
-1227.34
-1023.34
-836.422
-670.22
-526.545
-405.625
-306.431
-227.042
-165.005
-117.639
-82.2868
-56.4792
-38.0448
-25.1552
-16.3296
-10.4094
-6.51676
-4.00719
-2.42065
-1.4365
-0.836806
-0.47769
-0.266904
-0.146438
-0.079632
-0.0430546
-0.0226587
-0.0111725
-0.00499677
-0.00199369
-0.000707044
-0.000223648
-6.35161e-05
-1.63186e-05
-3.82137e-06
-8.21368e-07
-1.63069e-07
-3.00572e-08
-5.17966e-09
-8.17725e-10
-1.20738e-10
-2.74404e-11
3.29285e-12
1.09762e-12
-1.09762e-12
-1.09762e-12
8.78094e-12
3.29285e-12
-1.09762e-11
-9.87856e-12
1.09762e-12
-5.48809e-12
1.09762e-12
1.31714e-11
-5.48809e-12
-1.09762e-12
6.5857e-12
0
1.09762e-12
0
-1.09762e-12
-1.31714e-11
0
6.58571e-12
-4.39047e-12
6.5857e-12
4.39047e-12
-2545.61
-2494.41
-2395.11
-2253.56
-2077.85
-1877.48
-1662.53
-1442.86
-1227.34
-1023.34
-836.422
-670.22
-526.545
-405.625
-306.431
-227.042
-165.005
-117.639
-82.2868
-56.4792
-38.0448
-25.1552
-16.3296
-10.4094
-6.51676
-4.00719
-2.42065
-1.4365
-0.836806
-0.47769
-0.266904
-0.146438
-0.079632
-0.0430546
-0.0226587
-0.0111725
-0.00499677
-0.00199369
-0.000707044
-0.000223648
-6.35161e-05
-1.63186e-05
-3.82138e-06
-8.21358e-07
-1.63065e-07
-3.00539e-08
-5.17527e-09
-8.35287e-10
-1.08664e-10
-1.86595e-11
-4.39047e-12
3.29285e-12
-7.68332e-12
1.09762e-12
1.53666e-11
1.09762e-12
-1.75619e-11
8.78094e-12
1.31714e-11
-8.78094e-12
2.19524e-12
0
-2.19524e-12
-1.09762e-12
1.09762e-12
-3.29285e-12
4.39047e-12
4.39047e-12
1.09762e-12
-2.19524e-12
-5.48809e-12
1.09762e-12
1.09762e-12
-1.09762e-12
0
-2545.61
-2494.41
-2395.11
-2253.56
-2077.85
-1877.48
-1662.53
-1442.86
-1227.34
-1023.34
-836.422
-670.22
-526.545
-405.625
-306.431
-227.042
-165.005
-117.639
-82.2868
-56.4792
-38.0448
-25.1552
-16.3296
-10.4094
-6.51676
-4.00719
-2.42065
-1.4365
-0.836806
-0.47769
-0.266904
-0.146438
-0.079632
-0.0430546
-0.0226587
-0.0111725
-0.00499677
-0.00199369
-0.000707044
-0.000223648
-6.35161e-05
-1.63186e-05
-3.82139e-06
-8.21365e-07
-1.63053e-07
-3.00648e-08
-5.17856e-09
-8.37482e-10
-1.32812e-10
-1.09762e-11
1.4269e-11
0
-7.68332e-12
1.09762e-12
-1.09762e-11
-1.09762e-12
9.87856e-12
0
3.29285e-12
-1.09762e-12
-2.19523e-12
-1.09762e-12
-5.48809e-12
-2.19523e-12
7.68332e-12
4.39047e-12
1.31714e-11
0
-1.31714e-11
8.78094e-12
1.31714e-11
-1.09762e-11
-1.09762e-11
-1.09762e-12
1.09762e-12
-2545.61
-2494.41
-2395.11
-2253.56
-2077.85
-1877.48
-1662.53
-1442.86
-1227.34
-1023.34
-836.422
-670.22
-526.545
-405.625
-306.431
-227.042
-165.005
-117.639
-82.2868
-56.4792
-38.0448
-25.1552
-16.3296
-10.4094
-6.51676
-4.00719
-2.42065
-1.4365
-0.836806
-0.47769
-0.266904
-0.146438
-0.079632
-0.0430546
-0.0226587
-0.0111725
-0.00499677
-0.00199369
-0.000707044
-0.000223648
-6.35161e-05
-1.63186e-05
-3.82135e-06
-8.21358e-07
-1.63071e-07
-3.00637e-08
-5.17527e-09
-8.50654e-10
-1.45983e-10
-1.31714e-11
7.68332e-12
1.4269e-11
7.68332e-12
-1.4269e-11
0
4.39047e-12
-8.78094e-12
-5.48809e-12
0
0
0
0
0
-3.29285e-12
0
4.39047e-12
0
-1.09762e-12
-8.78094e-12
-6.58571e-12
1.53666e-11
5.48809e-12
-8.78094e-12
0
3.29285e-12
-2545.61
-2494.41
-2395.11
-2253.56
-2077.85
-1877.48
-1662.53
-1442.86
-1227.34
-1023.34
-836.422
-670.22
-526.545
-405.625
-306.431
-227.042
-165.005
-117.639
-82.2868
-56.4792
-38.0448
-25.1552
-16.3296
-10.4094
-6.51676
-4.00719
-2.42065
-1.4365
-0.836806
-0.47769
-0.266904
-0.146438
-0.079632
-0.0430546
-0.0226587
-0.0111725
-0.00499677
-0.00199369
-0.000707044
-0.000223648
-6.35161e-05
-1.63186e-05
-3.82135e-06
-8.21347e-07
-1.63062e-07
-3.00813e-08
-5.206e-09
-8.39677e-10
-1.22933e-10
-1.97571e-11
8.78094e-12
1.4269e-11
-8.78094e-12
-1.53666e-11
0
1.53666e-11
0
-1.31714e-11
0
-1.09762e-12
-3.29285e-12
-1.09762e-12
4.39047e-12
0
0
0
0
1.09762e-12
-1.09762e-12
-7.68332e-12
1.09762e-12
7.68332e-12
-8.78094e-12
0
7.68332e-12
-2545.61
-2494.41
-2395.11
-2253.56
-2077.85
-1877.48
-1662.53
-1442.86
-1227.34
-1023.34
-836.422
-670.22
-526.545
-405.625
-306.431
-227.042
-165.005
-117.639
-82.2868
-56.4792
-38.0448
-25.1552
-16.3296
-10.4094
-6.51676
-4.00719
-2.42065
-1.4365
-0.836806
-0.47769
-0.266904
-0.146438
-0.079632
-0.0430546
-0.0226587
-0.0111725
-0.00499677
-0.00199369
-0.000707044
-0.000223648
-6.35161e-05
-1.63187e-05
-3.82136e-06
-8.21318e-07
-1.63058e-07
-3.00956e-08
-5.19173e-09
-8.46263e-10
-1.31714e-10
-5.48809e-12
1.09762e-12
0
0
-1.09762e-12
-9.87856e-12
0
4.39047e-12
0
5.48809e-12
0
-2.19523e-12
5.48809e-12
2.19523e-12
-4.39047e-12
0
-1.09762e-12
0
7.68332e-12
7.68332e-12
-6.5857e-12
-9.87856e-12
-7.68332e-12
-2.19523e-12
3.29285e-12
7.68332e-12
-2545.61
-2494.41
-2395.11
-2253.56
-2077.85
-1877.48
-1662.53
-1442.86
-1227.34
-1023.34
-836.422
-670.22
-526.545
-405.625
-306.431
-227.042
-165.005
-117.639
-82.2868
-56.4792
-38.0448
-25.1552
-16.3296
-10.4094
-6.51676
-4.00719
-2.42065
-1.4365
-0.836806
-0.47769
-0.266904
-0.146438
-0.079632
-0.0430546
-0.0226587
-0.0111725
-0.00499677
-0.00199369
-0.000707044
-0.000223648
-6.35161e-05
-1.63186e-05
-3.82136e-06
-8.21327e-07
-1.63062e-07
-3.0089e-08
-5.18844e-09
-8.45165e-10
-1.30616e-10
-9.87856e-12
3.29285e-12
2.19524e-12
-7.68332e-12
-2.19524e-12
3.29285e-12
-1.09762e-12
-1.09762e-12
1.09762e-12
1.09762e-12
0
-1.09762e-12
1.09762e-12
-1.09762e-12
0
-4.39047e-12
0
4.39047e-12
1.09762e-12
4.39047e-12
0
-5.48809e-12
-4.39047e-12
1.09762e-12
4.39047e-12
0
-2545.61
-2494.41
-2395.11
-2253.56
-2077.85
-1877.48
-1662.53
-1442.86
-1227.34
-1023.34
-836.422
-670.22
-526.545
-405.625
-306.431
-227.042
-165.005
-117.639
-82.2868
-56.4792
-38.0448
-25.1552
-16.3296
-10.4094
-6.51676
-4.00719
-2.42065
-1.4365