/*--------------------------------*- C++ -*----------------------------------*\
  =========                 |
  \\      /  F ield         | OpenFOAM: The Open Source CFD Toolbox
   \\    /   O peration     | Website:  https://openfoam.org
    \\  /    A nd           | Version:  10
     \\/     M anipulation  |
\*---------------------------------------------------------------------------*/
FoamFile
{
    format      ascii;
    class       volScalarField;
    location    "438";
    object      gradTz;
}
// * * * * * * * * * * * * * * * * * * * * * * * * * * * * * * * * * * * * * //

dimensions      [0 -1 0 1 0 0 0];

internalField   nonuniform List<scalar> 
11250
(
-14342.1
-4137.75
-1517.78
-714.672
-410.544
-269.604
-192.976
-146.258
-115.354
-93.6422
-77.6572
-65.4383
-55.806
-48.0164
-41.5824
-36.1748
-31.5653
-27.5914
-24.1353
-21.1096
-18.448
-16.0993
-14.0231
-12.1864
-10.5622
-9.12754
-7.86251
-6.74971
-5.77358
-4.92009
-4.17648
-3.53106
-2.97312
-2.49285
-2.08123
-1.73004
-1.4318
-1.17969
-0.967618
-0.790072
-0.64216
-0.519542
-0.418396
-0.335378
-0.267579
-0.212488
-0.167947
-0.132118
-0.103443
-0.0806088
-0.0625177
-0.048257
-0.0370726
-0.0283451
-0.0215692
-0.0163351
-0.0123123
-0.00923603
-0.00689544
-0.00512352
-0.00378886
-0.00278858
-0.00204268
-0.00148926
-0.00108075
-0.000780748
-0.000561624
-0.000402496
-0.000287706
-0.000205602
-0.000147596
-0.000107454
-8.07537e-05
-6.4489e-05
-5.68e-05
-8230.49
-4828.67
-2736.29
-1644.87
-1068.29
-744.353
-548.89
-422.843
-336.775
-275.12
-229.144
-193.685
-165.55
-142.685
-123.728
-107.749
-94.0955
-82.3035
-72.0327
-63.03
-55.103
-48.1024
-41.9096
-36.4286
-31.5794
-27.2943
-23.5147
-20.1891
-17.2713
-14.7195
-12.4959
-10.5656
-8.89673
-7.46001
-6.22855
-5.17779
-4.28536
-3.53096
-2.8963
-2.36494
-1.92225
-1.55525
-1.2525
-1.004
-0.801054
-0.636139
-0.502805
-0.395547
-0.309701
-0.24134
-0.187179
-0.144484
-0.110999
-0.0848688
-0.0645817
-0.0489104
-0.0368657
-0.0276549
-0.0206468
-0.0153413
-0.011345
-0.00834996
-0.00611652
-0.00445942
-0.00323619
-0.00233789
-0.00168175
-0.00120526
-0.000861529
-0.000615672
-0.000441977
-0.000321774
-0.00024182
-0.000193116
-0.000170092
-5520.14
-4209.6
-2953.3
-2059.75
-1472.91
-1090.2
-834.999
-659.105
-533.493
-440.68
-369.93
-314.479
-269.946
-233.42
-202.919
-177.062
-154.871
-135.635
-118.833
-104.07
-91.047
-79.5275
-69.3242
-60.2838
-52.2784
-45.1991
-38.951
-33.4503
-28.622
-24.3978
-20.7155
-17.518
-14.753
-12.372
-10.3308
-8.58879
-7.10906
-5.85804
-4.80544
-3.92409
-3.18973
-2.58088
-2.07858
-1.66627
-1.32951
-1.05584
-0.834567
-0.65656
-0.514083
-0.400621
-0.310722
-0.239854
-0.18427
-0.140895
-0.107218
-0.081202
-0.0612063
-0.045915
-0.0342801
-0.0254718
-0.0188369
-0.0138642
-0.0101559
-0.00740456
-0.00537353
-0.00388199
-0.00279252
-0.00200134
-0.00143059
-0.00102235
-0.000733929
-0.000534331
-0.000401564
-0.000320689
-0.000282458
-4119.41
-3535.4
-2806.7
-2167.07
-1672.63
-1307.81
-1041.16
-844.517
-696.929
-583.782
-495.113
-424.14
-366.209
-318.088
-277.501
-242.82
-212.866
-186.768
-163.877
-143.697
-125.845
-110.018
-95.9739
-83.5108
-72.4602
-62.6772
-54.0349
-46.4206
-39.7324
-33.8778
-28.7717
-24.3361
-20.4988
-17.1935
-14.359
-11.9395
-9.88374
-8.14538
-6.68249
-5.4574
-4.43649
-3.58995
-2.89148
-2.31807
-1.8497
-1.46904
-1.16124
-0.9136
-0.715377
-0.557513
-0.432426
-0.333813
-0.256464
-0.196102
-0.149233
-0.113026
-0.0851964
-0.0639133
-0.0477188
-0.0354583
-0.0262227
-0.0193006
-0.0141386
-0.0103085
-0.00748104
-0.00540461
-0.00388789
-0.0027864
-0.0019918
-0.00142343
-0.00102187
-0.000743979
-0.000559128
-0.000446526
-0.000393297
-3301.41
-3004.63
-2569.8
-2128.04
-1741.63
-1426.25
-1176.4
-980.087
-825.25
-701.856
-602.176
-520.46
-452.485
-395.163
-346.228
-304.005
-267.25
-235.021
-206.605
-181.448
-159.115
-139.259
-121.597
-105.892
-91.9436
-79.5781
-68.6415
-58.9959
-50.5163
-43.088
-36.6054
-30.9708
-26.0939
-21.8913
-18.2861
-15.2077
-12.5913
-10.3783
-8.51556
-6.95529
-5.65483
-4.57629
-3.68628
-2.95552
-2.35855
-1.87332
-1.48091
-1.16518
-0.912429
-0.711121
-0.5516
-0.425831
-0.327176
-0.250182
-0.190396
-0.144208
-0.108704
-0.0815515
-0.0608898
-0.0452466
-0.0334625
-0.02463
-0.0180431
-0.0131556
-0.00954748
-0.00689765
-0.00496204
-0.00355631
-0.0025422
-0.00181681
-0.0013043
-0.000949622
-0.000713691
-0.000569972
-0.000502032
-2778.56
-2610.32
-2338.26
-2032.19
-1738.2
-1477.88
-1256.96
-1073.17
-921.269
-795.512
-690.733
-602.655
-527.881
-463.775
-408.306
-359.92
-317.419
-279.879
-246.579
-216.953
-190.545
-166.986
-145.97
-127.24
-110.571
-95.7698
-82.6599
-71.0838
-60.8964
-51.964
-44.1629
-37.3777
-31.5016
-26.4353
-22.0873
-18.373
-15.2151
-12.5433
-10.2937
-8.40891
-6.83762
-5.53421
-4.45843
-3.575
-2.85319
-2.26641
-1.79182
-1.40992
-1.10416
-0.860613
-0.667601
-0.515415
-0.396029
-0.302848
-0.230489
-0.174582
-0.131607
-0.0987375
-0.0737246
-0.0547861
-0.040519
-0.0298249
-0.0218494
-0.0159313
-0.0115623
-0.00835351
-0.00600951
-0.00430715
-0.00307901
-0.0022005
-0.0015798
-0.00115023
-0.000864477
-0.000690408
-0.000608121
-2421.98
-2317.88
-2138.83
-1922.48
-1699.41
-1488.58
-1298.98
-1133.14
-990.1
-867.34
-761.933
-671.081
-592.336
-523.657
-463.383
-410.186
-363.006
-321
-283.493
-249.94
-219.896
-192.993
-168.917
-147.403
-128.214
-111.142
-95.9968
-82.6051
-70.806
-60.4501
-51.3976
-43.518
-36.6895
-30.7987
-25.7403
-21.4172
-17.7403
-14.6282
-12.007
-9.8103
-7.97846
-6.45855
-5.20382
-4.17322
-3.33102
-2.64626
-2.09234
-1.64655
-1.28959
-1.00522
-0.77984
-0.602112
-0.462676
-0.353836
-0.26931
-0.204
-0.153791
-0.115387
-0.0861602
-0.0640301
-0.0473577
-0.0348601
-0.0255391
-0.0186224
-0.0135158
-0.00976519
-0.0070253
-0.00503534
-0.00359967
-0.00257268
-0.00184705
-0.00134485
-0.00101077
-0.000807267
-0.000711063
-2167.18
-2098.12
-1974.5
-1817.36
-1646.42
-1476.22
-1315.6
-1168.89
-1037.43
-920.816
-817.809
-726.858
-646.406
-575.025
-511.476
-454.712
-403.864
-358.214
-317.169
-280.239
-247.011
-217.134
-190.308
-166.266
-144.771
-125.608
-108.577
-93.4959
-80.1908
-68.4999
-58.2704
-49.3588
-41.6303
-34.9586
-29.2263
-24.3249
-20.1541
-16.6225
-13.647
-11.1525
-9.0717
-7.34478
-5.91881
-4.7473
-3.78975
-3.01107
-2.38106
-1.87395
-1.46785
-1.14428
-0.887796
-0.685521
-0.526809
-0.402912
-0.306684
-0.232324
-0.175155
-0.131423
-0.0981402
-0.0729368
-0.0539479
-0.039713
-0.0290957
-0.0212166
-0.0153992
-0.0111264
-0.00800487
-0.00573764
-0.00410187
-0.00293169
-0.00210487
-0.00153262
-0.00115194
-0.000920036
-0.000810407
-1978.81
-1930.33
-1841.18
-1723.64
-1590.45
-1452.21
-1316.44
-1187.76
-1068.52
-959.551
-860.751
-771.519
-691.038
-618.438
-552.889
-493.639
-440.031
-391.496
-347.549
-307.771
-271.802
-239.325
-210.06
-183.753
-160.173
-139.105
-120.346
-103.708
-89.0089
-76.0774
-64.7507
-54.8741
-46.3018
-38.8964
-32.5299
-27.083
-22.4458
-18.5175
-15.2065
-12.4296
-10.1126
-8.18908
-6.60033
-5.29478
-4.22742
-3.35927
-2.65675
-2.09118
-1.63818
-1.2772
-0.991016
-0.765293
-0.588163
-0.449873
-0.342455
-0.25944
-0.195611
-0.146782
-0.109616
-0.0814699
-0.0602625
-0.0443637
-0.0325046
-0.0237034
-0.017205
-0.0124316
-0.00894428
-0.00641122
-0.00458359
-0.00327611
-0.00235224
-0.00171279
-0.00128741
-0.00102826
-0.000905756
-1835.97
-1800.29
-1733.44
-1642.89
-1537.01
-1423.41
-1308.12
-1195.35
-1087.78
-986.845
-893.143
-806.737
-727.38
-654.664
-588.121
-527.279
-471.69
-420.944
-374.672
-332.541
-294.252
-259.534
-228.135
-199.823
-174.379
-151.594
-131.268
-113.209
-97.2309
-83.157
-70.8159
-60.0445
-50.6874
-42.5982
-35.639
-29.6816
-24.607
-20.3063
-16.6797
-13.6371
-11.0974
-8.98836
-7.24588
-5.81364
-4.64244
-3.6896
-2.91841
-2.29742
-1.79996
-1.40349
-1.08913
-0.841139
-0.646514
-0.494547
-0.376493
-0.285249
-0.215086
-0.161406
-0.120545
-0.0895985
-0.0662791
-0.0487956
-0.0357537
-0.0260741
-0.0189266
-0.0136762
-0.00984016
-0.00705369
-0.00504311
-0.00360469
-0.00258826
-0.00188473
-0.0014167
-0.00113157
-0.000996772
-1725.56
-1698.21
-1646.28
-1574.51
-1488.51
-1393.76
-1294.96
-1195.74
-1098.7
-1005.5
-917.156
-834.145
-756.63
-684.564
-617.782
-556.055
-499.13
-446.75
-398.661
-354.622
-314.402
-277.777
-244.535
-214.469
-187.376
-163.06
-141.324
-121.98
-104.84
-89.7228
-76.4517
-64.8571
-54.776
-46.054
-38.5453
-32.1135
-26.6318
-21.9837
-18.0624
-14.7713
-12.0232
-9.74026
-7.85357
-6.30236
-5.03355
-4.00108
-3.16524
-2.49208
-1.95271
-1.52278
-1.18183
-0.912829
-0.701686
-0.5368
-0.408695
-0.309673
-0.233521
-0.175253
-0.130895
-0.0972981
-0.0719793
-0.0529954
-0.0388331
-0.0283213
-0.0205589
-0.0148564
-0.0106898
-0.00766309
-0.00547905
-0.00391646
-0.00281224
-0.00204791
-0.00153942
-0.00122963
-0.00108318
-1638.96
-1617.25
-1575.6
-1517.14
-1445.74
-1365.39
-1279.72
-1191.77
-1103.89
-1017.79
-934.657
-855.227
-779.94
-709.017
-642.529
-580.453
-522.705
-469.167
-419.696
-374.14
-332.335
-294.111
-259.295
-227.71
-199.175
-173.504
-150.514
-130.018
-111.831
-95.7686
-81.6518
-69.3056
-58.5615
-49.2585
-41.2439
-34.3744
-28.5164
-23.5466
-19.352
-15.83
-12.888
-10.4432
-8.42208
-6.75987
-5.39991
-4.29299
-3.3967
-2.67469
-2.09609
-1.63479
-1.26891
-0.980198
-0.753549
-0.576533
-0.438987
-0.332654
-0.250871
-0.188289
-0.140642
-0.10455
-0.0773494
-0.0569527
-0.0417354
-0.0304397
-0.0220978
-0.0159693
-0.0114912
-0.00823793
-0.00589033
-0.00421063
-0.00302361
-0.00220193
-0.00165527
-0.00132222
-0.00116477
-1570.26
-1552.47
-1518.08
-1469.24
-1408.68
-1339.35
-1264.07
-1185.36
-1105.29
-1025.49
-947.185
-871.271
-798.36
-728.858
-663.018
-600.979
-542.802
-488.488
-437.997
-391.257
-348.171
-308.623
-272.479
-239.592
-209.805
-182.95
-158.852
-137.332
-118.208
-101.297
-86.4166
-73.3897
-62.0429
-52.2102
-43.7332
-36.4626
-30.2591
-24.9934
-20.5471
-16.812
-13.6909
-11.0963
-8.95069
-7.18556
-5.741
-4.56494
-3.61244
-2.845
-2.22986
-1.73935
-1.35023
-1.04314
-0.802021
-0.613681
-0.467316
-0.354154
-0.267108
-0.200491
-0.149768
-0.111342
-0.08238
-0.0606607
-0.0444554
-0.0324255
-0.0235408
-0.017013
-0.0122428
-0.0087772
-0.00627622
-0.00448669
-0.00322199
-0.00234652
-0.00176404
-0.00140916
-0.00124138
-1515.29
-1500.3
-1471.15
-1429.35
-1376.92
-1316.06
-1249
-1177.8
-1104.28
-1029.93
-955.973
-883.36
-812.807
-744.848
-679.867
-618.131
-559.815
-505.024
-453.806
-406.162
-362.057
-321.423
-284.169
-250.178
-219.315
-191.431
-166.364
-143.941
-123.986
-106.317
-90.7534
-77.1141
-65.2235
-54.9113
-46.0145
-38.3791
-31.8604
-26.3244
-21.6476
-17.7173
-14.4317
-11.6994
-9.4392
-7.57924
-6.05667
-4.81678
-3.81234
-3.00289
-2.35394
-1.83638
-1.42573
-1.1016
-0.847062
-0.648212
-0.49366
-0.374153
-0.282216
-0.211849
-0.158265
-0.117668
-0.0870664
-0.0641158
-0.0469905
-0.0342767
-0.0248861
-0.0179863
-0.0129439
-0.0092803
-0.0066363
-0.00474433
-0.00340717
-0.0024815
-0.0018656
-0.00149035
-0.00131294
-1471.01
-1458.05
-1432.75
-1396.2
-1349.91
-1295.59
-1235.02
-1169.9
-1101.81
-1032.12
-961.989
-892.378
-824.064
-757.661
-693.645
-632.379
-574.13
-519.087
-467.372
-419.053
-374.149
-332.638
-294.465
-259.545
-227.766
-198.996
-173.086
-149.873
-129.186
-110.847
-94.6747
-80.4886
-68.1105
-57.3671
-48.0919
-40.1267
-33.3226
-27.5413
-22.6548
-18.5467
-15.111
-12.253
-9.88794
-7.94116
-6.34706
-5.0486
-3.99648
-3.14841
-2.46837
-1.92591
-1.49543
-1.15558
-0.888674
-0.680127
-0.518018
-0.392651
-0.296195
-0.222361
-0.166131
-0.123526
-0.0914076
-0.0673173
-0.0493401
-0.0359928
-0.0261336
-0.018889
-0.0135942
-0.0097471
-0.00697045
-0.00498347
-0.00357909
-0.00260684
-0.00195992
-0.00156577
-0.00137942
-1435.15
-1423.71
-1401.26
-1368.66
-1327.07
-1277.83
-1222.38
-1162.18
-1098.57
-1032.8
-965.978
-899.038
-832.783
-767.874
-704.854
-644.152
-586.108
-530.978
-478.946
-430.135
-384.613
-342.4
-303.475
-267.78
-235.226
-205.698
-179.061
-155.162
-133.836
-114.907
-98.1976
-83.5265
-70.7145
-59.586
-49.9719
-41.7105
-34.6496
-28.6469
-23.5711
-19.3019
-15.7302
-12.758
-10.2977
-8.27188
-6.61263
-5.26076
-4.1651
-3.28175
-2.57328
-2.00803
-1.55939
-1.20515
-0.9269
-0.709458
-0.540411
-0.409664
-0.309056
-0.232036
-0.173374
-0.128921
-0.0954067
-0.0702673
-0.0515056
-0.0375749
-0.027284
-0.0197216
-0.0141942
-0.0101778
-0.00727885
-0.00520422
-0.00373782
-0.00272258
-0.00204705
-0.00163544
-0.00144083
-1406.01
-1395.7
-1375.41
-1345.82
-1307.83
-1262.55
-1211.17
-1154.92
-1094.99
-1032.51
-968.507
-903.903
-839.498
-775.981
-713.933
-653.836
-596.082
-540.98
-488.765
-439.608
-393.617
-350.848
-311.311
-274.974
-241.77
-211.6
-184.341
-159.849
-137.967
-118.524
-101.343
-86.2443
-73.0485
-61.5784
-51.6627
-43.1371
-35.8463
-29.6453
-24.3995
-19.9855
-16.2913
-13.216
-10.6696
-8.57233
-6.85407
-5.45377
-4.31861
-3.40322
-2.6689
-2.08293
-1.61776
-1.25041
-0.961815
-0.736259
-0.560883
-0.425223
-0.320823
-0.240891
-0.180004
-0.133862
-0.0990701
-0.0729705
-0.0534906
-0.0390254
-0.0283389
-0.0204853
-0.0147447
-0.0105731
-0.00756193
-0.00540689
-0.00388357
-0.00282889
-0.00212708
-0.00169945
-0.00149727
-1382.27
-1372.81
-1354.16
-1326.87
-1291.68
-1249.5
-1201.35
-1148.28
-1091.36
-1031.61
-969.999
-907.413
-844.642
-782.388
-721.258
-661.768
-604.349
-549.352
-497.054
-447.662
-401.32
-358.116
-318.087
-281.223
-247.477
-216.765
-188.976
-163.977
-141.615
-121.726
-104.134
-88.661
-75.1279
-63.3566
-53.1741
-44.4142
-36.9193
-30.5416
-25.144
-20.6005
-16.7966
-13.6289
-11.0052
-8.84367
-7.07229
-5.62836
-4.45756
-3.51323
-2.75557
-2.15085
-1.67072
-1.29149
-0.993525
-0.760612
-0.579492
-0.439372
-0.331527
-0.248949
-0.186041
-0.138361
-0.102408
-0.0754339
-0.0553
-0.040348
-0.0293011
-0.021182
-0.015247
-0.0109339
-0.00782035
-0.00559194
-0.00401669
-0.00292601
-0.00220021
-0.00175795
-0.00154885
-1362.88
-1354.07
-1336.69
-1311.18
-1278.17
-1238.43
-1192.84
-1142.33
-1087.86
-1030.37
-970.772
-909.909
-848.563
-787.435
-727.148
-668.241
-611.174
-556.33
-504.018
-454.475
-407.876
-364.336
-323.913
-286.62
-252.425
-221.259
-193.023
-167.591
-144.818
-124.543
-106.595
-90.7971
-76.9694
-64.9341
-54.5172
-45.5508
-37.8755
-31.3414
-25.8092
-21.1506
-17.2491
-13.999
-11.3063
-9.08731
-7.2684
-5.78537
-4.58261
-3.61231
-2.83366
-2.21209
-1.71849
-1.32858
-1.02216
-0.782616
-0.596314
-0.452167
-0.341212
-0.256242
-0.191506
-0.142436
-0.105431
-0.0776663
-0.0569402
-0.0415473
-0.0301738
-0.0218141
-0.0157029
-0.0112613
-0.00805499
-0.00576
-0.00413761
-0.00301424
-0.00226667
-0.00181113
-0.00159574
-1347.03
-1338.73
-1322.33
-1298.2
-1266.9
-1229.08
-1185.53
-1137.08
-1084.6
-1028.98
-971.056
-911.655
-851.535
-791.396
-731.868
-673.504
-616.787
-562.122
-509.842
-460.212
-413.43
-369.631
-328.897
-291.256
-256.692
-225.148
-196.536
-170.737
-147.614
-127.009
-108.754
-92.6741
-78.5907
-66.3254
-55.7037
-46.5564
-38.7228
-32.051
-26.4001
-21.6399
-17.6519
-14.3289
-11.5749
-9.30482
-7.44361
-5.92576
-4.69451
-3.70103
-2.90364
-2.26699
-1.76135
-1.36186
-1.04788
-0.802386
-0.611434
-0.463674
-0.349924
-0.262806
-0.196427
-0.146107
-0.108155
-0.0796784
-0.058419
-0.0426288
-0.0309611
-0.0223845
-0.0161143
-0.011557
-0.00826686
-0.0059118
-0.00424685
-0.00309397
-0.00232673
-0.0018592
-0.00163814
-1334.07
-1326.17
-1310.53
-1287.48
-1257.51
-1221.21
-1179.29
-1132.5
-1081.64
-1027.55
-971.02
-912.848
-853.776
-794.496
-735.64
-677.771
-621.387
-566.91
-514.693
-465.021
-418.111
-374.118
-333.139
-295.217
-260.351
-228.494
-199.568
-173.461
-150.04
-129.154
-110.636
-94.314
-80.0098
-67.5455
-56.7458
-47.4411
-39.4691
-32.6769
-26.9219
-22.0725
-18.0084
-14.6211
-11.8131
-9.4979
-7.59927
-6.05059
-4.79408
-3.78003
-2.96599
-2.31594
-1.79959
-1.39157
-1.07085
-0.82005
-0.624951
-0.473965
-0.357719
-0.268682
-0.200833
-0.149394
-0.110597
-0.0814819
-0.0597449
-0.0435989
-0.0316674
-0.0228964
-0.0164836
-0.0118225
-0.00845715
-0.00604816
-0.00434502
-0.00316564
-0.00238073
-0.00190243
-0.00167627
-1323.48
-1315.88
-1300.83
-1278.63
-1249.72
-1214.63
-1174
-1128.54
-1079
-1026.16
-970.785
-913.641
-855.456
-796.914
-738.645
-681.22
-625.144
-570.854
-518.718
-469.035
-422.04
-377.901
-336.73
-298.585
-263.473
-231.359
-202.171
-175.805
-152.134
-131.009
-112.268
-95.7388
-81.2451
-68.6093
-57.6559
-48.2148
-40.1228
-33.2259
-27.3802
-22.4528
-18.3222
-14.8785
-12.0231
-9.66832
-7.73679
-6.16095
-4.88217
-3.84997
-3.02122
-2.35934
-1.8335
-1.41794
-1.09124
-0.835745
-0.636967
-0.483117
-0.364655
-0.273911
-0.204756
-0.152323
-0.112772
-0.0830897
-0.0609273
-0.0444642
-0.0322976
-0.0233532
-0.0168134
-0.0120595
-0.00862714
-0.00617001
-0.00443275
-0.0032297
-0.00242902
-0.00194109
-0.00171037
-1314.82
-1307.46
-1292.88
-1271.35
-1243.26
-1209.13
-1169.54
-1125.15
-1076.68
-1024.86
-970.434
-914.147
-856.708
-798.794
-741.034
-684
-628.204
-574.092
-522.044
-472.372
-425.322
-381.076
-339.758
-301.434
-266.123
-233.798
-204.394
-177.813
-153.932
-132.606
-113.675
-96.9698
-82.3143
-69.5317
-58.4464
-48.8878
-40.6922
-33.7047
-27.7804
-22.7853
-18.5968
-15.1041
-12.2073
-9.81791
-7.85759
-6.25798
-4.95968
-3.91156
-3.0699
-2.3976
-1.86342
-1.44122
-1.10926
-0.849614
-0.64759
-0.491212
-0.370793
-0.278541
-0.208231
-0.154918
-0.1147
-0.0845152
-0.061976
-0.045232
-0.0328569
-0.0237588
-0.0171062
-0.0122701
-0.00877816
-0.00627829
-0.00451074
-0.00328667
-0.00247197
-0.00197548
-0.00174072
-1307.75
-1300.57
-1286.36
-1265.35
-1237.93
-1204.56
-1165.79
-1122.27
-1074.66
-1023.67
-970.028
-914.45
-857.635
-800.253
-742.927
-686.233
-630.687
-576.741
-524.783
-475.135
-428.053
-383.73
-342.298
-303.833
-268.362
-235.865
-206.283
-179.524
-155.467
-133.972
-114.882
-98.0276
-83.2348
-70.3271
-59.1291
-49.4699
-41.1854
-34.12
-28.1278
-23.0743
-18.8359
-15.3006
-12.368
-9.94847
-7.96312
-6.34281
-5.0275
-3.96548
-3.11254
-2.43115
-1.88968
-1.46165
-1.12508
-0.861802
-0.65693
-0.498333
-0.376194
-0.282617
-0.211291
-0.157204
-0.1164
-0.0857722
-0.0629011
-0.0459094
-0.0333507
-0.0241169
-0.0173648
-0.0124561
-0.00891163
-0.00637401
-0.0045797
-0.00333705
-0.00250996
-0.00200591
-0.00176757
-1301.98
-1294.96
-1281.03
-1260.44
-1233.54
-1200.77
-1162.67
-1119.83
-1072.92
-1022.61
-969.606
-914.612
-858.317
-801.38
-744.425
-688.024
-632.697
-578.901
-527.03
-477.414
-430.316
-385.938
-344.419
-305.844
-270.245
-237.608
-207.88
-180.974
-156.772
-135.136
-115.912
-98.9317
-84.023
-71.0093
-59.7155
-49.9707
-41.6103
-34.4781
-28.428
-23.3242
-19.0428
-15.4709
-12.5073
-10.0618
-8.05481
-6.41657
-5.08651
-4.01244
-3.1497
-2.4604
-1.91258
-1.47949
-1.1389
-0.872454
-0.665097
-0.504563
-0.380922
-0.286187
-0.213973
-0.159208
-0.11789
-0.0868746
-0.0637127
-0.046504
-0.0337841
-0.0244314
-0.017592
-0.0126196
-0.00902894
-0.00645816
-0.00464034
-0.00338137
-0.0025434
-0.0020327
-0.00179121
-1297.29
-1290.38
-1276.68
-1256.42
-1229.93
-1197.64
-1160.07
-1117.79
-1071.44
-1021.68
-969.193
-914.679
-858.813
-802.249
-745.606
-689.455
-634.318
-580.656
-528.867
-479.286
-432.184
-387.768
-346.183
-307.521
-271.82
-239.071
-209.224
-182.196
-157.874
-136.121
-116.785
-99.7005
-84.6943
-71.5913
-60.2166
-50.3992
-41.9743
-34.7854
-28.6857
-23.5391
-19.2208
-15.6176
-12.6274
-10.1596
-8.13403
-6.48035
-5.13758
-4.0531
-3.18191
-2.48577
-1.93246
-1.49498
-1.15091
-0.881714
-0.6722
-0.509984
-0.385038
-0.289295
-0.216309
-0.160955
-0.119189
-0.0878363
-0.064421
-0.047023
-0.0341626
-0.0247061
-0.0177905
-0.0127625
-0.0091315
-0.00653176
-0.00469339
-0.00342015
-0.00257266
-0.00205615
-0.00181191
-1293.47
-1286.66
-1273.14
-1253.14
-1226.98
-1195.07
-1157.92
-1116.08
-1070.18
-1020.86
-968.805
-914.684
-859.172
-802.917
-746.535
-690.596
-635.623
-582.078
-530.364
-480.819
-433.72
-389.277
-347.644
-308.914
-273.132
-240.292
-210.349
-183.222
-158.801
-136.952
-117.523
-100.351
-85.2631
-72.0852
-60.6425
-50.7639
-42.2846
-35.0476
-28.9059
-23.7229
-19.3733
-15.7433
-12.7305
-10.2437
-8.20211
-6.53521
-5.18154
-4.08813
-3.20967
-2.50765
-1.94961
-1.50836
-1.16128
-0.889719
-0.678345
-0.514675
-0.388601
-0.291988
-0.218333
-0.162469
-0.120316
-0.0886707
-0.0650357
-0.0474736
-0.0344913
-0.0249448
-0.017963
-0.0128867
-0.00922069
-0.00659578
-0.00473955
-0.00345391
-0.00259813
-0.00207657
-0.00182994
-1290.38
-1283.63
-1270.26
-1250.46
-1224.56
-1192.96
-1156.14
-1114.66
-1069.12
-1020.17
-968.451
-914.65
-859.429
-803.429
-747.264
-691.504
-636.67
-583.226
-531.579
-482.069
-434.977
-390.518
-348.848
-310.066
-274.22
-241.307
-211.287
-184.079
-159.577
-137.648
-118.143
-100.898
-85.7425
-72.5022
-61.0025
-51.0727
-42.5476
-35.2702
-29.0931
-23.8793
-19.5032
-15.8505
-12.8185
-10.3154
-8.2603
-6.58214
-5.21917
-4.11814
-3.23347
-2.52642
-1.96434
-1.51985
-1.1702
-0.896603
-0.683631
-0.518714
-0.39167
-0.294308
-0.220078
-0.163775
-0.121288
-0.0893908
-0.0655664
-0.0478628
-0.0347754
-0.0251511
-0.0181121
-0.0129941
-0.00929783
-0.00665117
-0.00477951
-0.00348313
-0.00262019
-0.00209426
-0.00184555
-1287.87
-1281.19
-1267.92
-1248.29
-1222.6
-1191.24
-1154.69
-1113.49
-1068.24
-1019.57
-968.134
-914.595
-859.61
-803.821
-747.835
-692.224
-637.507
-584.151
-532.562
-483.085
-436.003
-391.533
-349.837
-311.015
-275.118
-242.148
-212.064
-184.791
-160.223
-138.229
-118.661
-101.356
-86.1446
-72.8524
-61.3054
-51.3327
-42.7694
-35.4581
-29.2513
-24.0116
-19.6132
-15.9414
-12.8931
-10.3763
-8.30977
-6.62207
-5.25121
-4.14371
-3.25376
-2.54244
-1.97691
-1.52966
-1.17782
-0.902491
-0.688155
-0.522171
-0.394299
-0.296297
-0.221575
-0.164895
-0.122122
-0.090009
-0.0660222
-0.0481972
-0.0350194
-0.0253284
-0.0182404
-0.0130865
-0.00936421
-0.00669885
-0.0048139
-0.00350829
-0.0026392
-0.0021095
-0.00185901
-1285.85
-1279.21
-1266.04
-1246.53
-1221
-1189.83
-1153.5
-1112.53
-1067.51
-1019.07
-967.857
-914.528
-859.736
-804.119
-748.282
-692.793
-638.175
-584.893
-533.355
-483.908
-436.836
-392.361
-350.645
-311.793
-275.856
-242.84
-212.706
-185.381
-160.759
-138.712
-119.092
-101.738
-86.4801
-73.145
-61.5588
-51.5506
-42.9554
-35.6159
-29.3843
-24.123
-19.7059
-16.018
-12.9561
-10.4278
-8.35161
-6.65586
-5.27836
-4.16539
-3.27098
-2.55604
-1.98759
-1.538
-1.1843
-0.9075
-0.692006
-0.525116
-0.396539
-0.297992
-0.222851
-0.165851
-0.122834
-0.0905368
-0.0664115
-0.0484829
-0.035228
-0.02548
-0.0183501
-0.0131655
-0.00942103
-0.00673966
-0.00484336
-0.00352985
-0.00265548
-0.00212256
-0.00187055
-1284.23
-1277.62
-1264.52
-1245.11
-1219.71
-1188.69
-1152.53
-1111.74
-1066.9
-1018.65
-967.617
-914.458
-859.823
-804.345
-748.629
-693.243
-638.706
-585.486
-533.992
-484.572
-437.511
-393.033
-351.303
-312.427
-276.46
-243.407
-213.233
-185.866
-161.201
-139.111
-119.449
-102.054
-86.7586
-73.3883
-61.7698
-51.7323
-43.1107
-35.7478
-29.4955
-24.2163
-19.7835
-16.0824
-13.009
-10.4711
-8.38681
-6.68431
-5.30122
-4.18366
-3.2855
-2.56751
-1.99661
-1.54506
-1.18979
-0.911739
-0.695266
-0.52761
-0.398437
-0.299429
-0.223933
-0.166662
-0.123439
-0.0909851
-0.0667422
-0.0487257
-0.0354054
-0.025609
-0.0184434
-0.0132328
-0.00946939
-0.00677442
-0.00486845
-0.00354822
-0.00266936
-0.0021337
-0.00188039
-1282.92
-1276.34
-1263.29
-1243.97
-1218.67
-1187.77
-1151.74
-1111.09
-1066.41
-1018.3
-967.412
-914.39
-859.881
-804.516
-748.899
-693.596
-639.127
-585.959
-534.502
-485.105
-438.055
-393.577
-351.837
-312.943
-276.952
-243.871
-213.665
-186.263
-161.563
-139.439
-119.742
-102.315
-86.9888
-73.5896
-61.9445
-51.8829
-43.2397
-35.8575
-29.5881
-24.294
-19.8483
-16.136
-13.0533
-10.5073
-8.41626
-6.70814
-5.32039
-4.19899
-3.29769
-2.57715
-2.00419
-1.55098
-1.1944
-0.915307
-0.698012
-0.529712
-0.400038
-0.300641
-0.224846
-0.167346
-0.123949
-0.0913638
-0.0670218
-0.048931
-0.0355554
-0.0257181
-0.0185224
-0.0132898
-0.00951035
-0.00680386
-0.00488971
-0.00356379
-0.00268113
-0.00214314
-0.00188873
-1281.87
-1275.32
-1262.31
-1243.05
-1217.83
-1187.03
-1151.1
-1110.57
-1066
-1018.01
-967.239
-914.326
-859.918
-804.645
-749.108
-693.874
-639.46
-586.335
-534.909
-485.532
-438.492
-394.015
-352.268
-313.361
-277.351
-244.247
-214.016
-186.588
-161.86
-139.707
-119.983
-102.53
-87.178
-73.7553
-62.0886
-52.0072
-43.3462
-35.9482
-29.6648
-24.3584
-19.9021
-16.1806
-13.09
-10.5374
-8.44078
-6.72799
-5.33637
-4.21178
-3.30787
-2.58521
-2.01053
-1.55594
-1.19826
-0.918295
-0.700313
-0.531474
-0.40138
-0.301658
-0.225613
-0.167921
-0.124378
-0.0916822
-0.0672568
-0.0491037
-0.0356817
-0.0258099
-0.0185889
-0.0133378
-0.00954486
-0.00682868
-0.00490763
-0.00357692
-0.00269106
-0.00215111
-0.00189578
-1281.04
-1274.5
-1261.53
-1242.32
-1217.16
-1186.43
-1150.59
-1110.14
-1065.67
-1017.78
-967.094
-914.268
-859.941
-804.742
-749.27
-694.091
-639.722
-586.633
-535.233
-485.873
-438.842
-394.366
-352.615
-313.698
-277.673
-244.552
-214.301
-186.851
-162.101
-139.926
-120.18
-102.705
-87.3328
-73.8911
-62.2067
-52.1093
-43.4338
-36.0228
-29.728
-24.4115
-19.9465
-16.2174
-13.1204
-10.5623
-8.46108
-6.74444
-5.34962
-4.22239
-3.31632
-2.5919
-2.0158
-1.56007
-1.20147
-0.920784
-0.70223
-0.532943
-0.4025
-0.302507
-0.226253
-0.168402
-0.124737
-0.0919483
-0.0674534
-0.0492481
-0.0357873
-0.0258868
-0.0186446
-0.0133779
-0.00957378
-0.00684948
-0.00492266
-0.00358794
-0.00269939
-0.0021578
-0.00190169
-1280.38
-1273.85
-1260.91
-1241.73
-1216.63
-1185.96
-1150.18
-1109.8
-1065.4
-1017.58
-966.973
-914.217
-859.955
-804.814
-749.395
-694.26
-639.929
-586.869
-535.49
-486.144
-439.121
-394.647
-352.892
-313.968
-277.933
-244.798
-214.531
-187.064
-162.296
-140.103
-120.339
-102.847
-87.4588
-74.0017
-62.3032
-52.1928
-43.5055
-36.0839
-29.7797
-24.455
-19.9829
-16.2477
-13.1454
-10.5829
-8.47781
-6.75801
-5.36055
-4.23116
-3.3233
-2.59743
-2.02015
-1.56349
-1.20413
-0.922847
-0.70382
-0.534162
-0.403429
-0.303212
-0.226785
-0.168801
-0.125035
-0.0921696
-0.067617
-0.0493684
-0.0358753
-0.0259508
-0.018691
-0.0134114
-0.00959789
-0.00686683
-0.0049352
-0.00359713
-0.00270634
-0.00216339
-0.00190662
-1279.85
-1273.34
-1260.41
-1241.27
-1216.2
-1185.58
-1149.85
-1109.53
-1065.19
-1017.43
-966.874
-914.172
-859.962
-804.869
-749.491
-694.391
-640.09
-587.054
-535.693
-486.359
-439.342
-394.871
-353.114
-314.184
-278.14
-244.995
-214.716
-187.235
-162.454
-140.246
-120.468
-102.963
-87.5609
-74.0915
-62.3815
-52.2606
-43.5638
-36.1337
-29.822
-24.4906
-20.0126
-16.2725
-13.1658
-10.5997
-8.49153
-6.76914
-5.36953
-4.23836
-3.32904
-2.60198
-2.02374
-1.5663
-1.20633
-0.924547
-0.705131
-0.535168
-0.404196
-0.303794
-0.227224
-0.169131
-0.125281
-0.0923527
-0.0677523
-0.0494679
-0.0359481
-0.0260039
-0.0187294
-0.0134392
-0.00961788
-0.00688122
-0.00494561
-0.00360476
-0.00271212
-0.00216802
-0.00191072
-1279.43
-1272.93
-1260.02
-1240.9
-1215.86
-1185.27
-1149.59
-1109.31
-1065.02
-1017.3
-966.792
-914.134
-859.965
-804.909
-749.564
-694.494
-640.216
-587.199
-535.853
-486.529
-439.518
-395.048
-353.29
-314.356
-278.306
-245.152
-214.864
-187.373
-162.58
-140.361
-120.572
-103.055
-87.6433
-74.164
-62.4448
-52.3155
-43.611
-36.1741
-29.8562
-24.5195
-20.0368
-16.2926
-13.1825
-10.6133
-8.50271
-6.77822
-5.37686
-4.24424
-3.33374
-2.60571
-2.02668
-1.5686
-1.20812
-0.925942
-0.706207
-0.535993
-0.404826
-0.304272
-0.227586
-0.169402
-0.125484
-0.0925034
-0.0678638
-0.0495499
-0.0360081
-0.0260476
-0.0187611
-0.0134621
-0.00963438
-0.00689309
-0.0049542
-0.00361105
-0.00271688
-0.00217186
-0.00191411
-1279.11
-1272.61
-1259.71
-1240.61
-1215.6
-1185.04
-1149.38
-1109.14
-1064.88
-1017.2
-966.726
-914.103
-859.966
-804.939
-749.62
-694.573
-640.314
-587.312
-535.978
-486.662
-439.656
-395.188
-353.429
-314.492
-278.438
-245.277
-214.982
-187.482
-162.681
-140.453
-120.655
-103.13
-87.7094
-74.2222
-62.4957
-52.3597
-43.6491
-36.2066
-29.8839
-24.5429
-20.0564
-16.3089
-13.196
-10.6244
-8.51179
-6.78559
-5.38282
-4.24902
-3.33756
-2.60874
-2.02907
-1.57048
-1.20959
-0.927079
-0.707085
-0.536667
-0.405341
-0.304664
-0.227881
-0.169624
-0.12565
-0.0926268
-0.0679551
-0.0496171
-0.0360574
-0.0260835
-0.0187872
-0.0134809
-0.00964792
-0.00690284
-0.00496125
-0.00361623
-0.0027208
-0.00217501
-0.0019169
-1278.85
-1272.36
-1259.47
-1240.38
-1215.39
-1184.85
-1149.22
-1109
-1064.77
-1017.12
-966.673
-914.076
-859.964
-804.961
-749.663
-694.633
-640.39
-587.401
-536.076
-486.767
-439.764
-395.298
-353.539
-314.6
-278.542
-245.377
-215.075
-187.569
-162.761
-140.526
-120.721
-103.189
-87.7622
-74.2688
-62.5365
-52.3951
-43.6796
-36.2328
-29.9061
-24.5616
-20.0722
-16.322
-13.2069
-10.6334
-8.51911
-6.79155
-5.38763
-4.25289
-3.34065
-2.61119
-2.03101
-1.572
-1.21078
-0.928003
-0.707798
-0.537215
-0.40576
-0.304982
-0.228121
-0.169805
-0.125785
-0.0927274
-0.0680295
-0.0496719
-0.0360975
-0.0261127
-0.0188084
-0.0134962
-0.00965897
-0.00691081
-0.00496701
-0.00362046
-0.00272401
-0.00217758
-0.00191918
-1278.65
-1272.16
-1259.28
-1240.2
-1215.22
-1184.7
-1149.09
-1108.9
-1064.68
-1017.05
-966.63
-914.054
-859.962
-804.977
-749.695
-694.68
-640.449
-587.469
-536.152
-486.848
-439.849
-395.385
-353.625
-314.684
-278.623
-245.455
-215.149
-187.638
-162.824
-140.584
-120.774
-103.236
-87.8041
-74.3059
-62.569
-52.4233
-43.704
-36.2537
-29.9239
-24.5767
-20.0848
-16.3326
-13.2156
-10.6406
-8.525
-6.79634
-5.39151
-4.25601
-3.34314
-2.61317
-2.03258
-1.57323
-1.21174
-0.928749
-0.708375
-0.537658
-0.406098
-0.305239
-0.228316
-0.169951
-0.125894
-0.0928088
-0.0680898
-0.0497163
-0.03613
-0.0261365
-0.0188256
-0.0135087
-0.00966795
-0.00691728
-0.0049717
-0.0036239
-0.00272661
-0.00217968
-0.00192103
-1278.49
-1272.01
-1259.13
-1240.07
-1215.09
-1184.59
-1148.99
-1108.81
-1064.61
-1017
-966.596
-914.036
-859.96
-804.988
-749.72
-694.716
-640.494
-587.522
-536.211
-486.911
-439.915
-395.452
-353.693
-314.751
-278.688
-245.516
-215.207
-187.692
-162.874
-140.63
-120.816
-103.274
-87.8374
-74.3353
-62.5947
-52.4457
-43.7234
-36.2703
-29.9381
-24.5886
-20.0949
-16.341
-13.2226
-10.6463
-8.52971
-6.80017
-5.39461
-4.2585
-3.34513
-2.61476
-2.03383
-1.57422
-1.21251
-0.929348
-0.708838
-0.538014
-0.40637
-0.305446
-0.228473
-0.170069
-0.125983
-0.0928745
-0.0681384
-0.0497521
-0.0361563
-0.0261556
-0.0188395
-0.0135188
-0.00967521
-0.00692251
-0.00497549
-0.00362668
-0.00272872
-0.00218138
-0.00192253
-1278.37
-1271.89
-1259.02
-1239.96
-1214.99
-1184.5
-1148.91
-1108.74