/*--------------------------------*- C++ -*----------------------------------*\
  =========                 |
  \\      /  F ield         | OpenFOAM: The Open Source CFD Toolbox
   \\    /   O peration     | Website:  https://openfoam.org
    \\  /    A nd           | Version:  10
     \\/     M anipulation  |
\*---------------------------------------------------------------------------*/
FoamFile
{
    format      ascii;
    class       volScalarField;
    location    "224";
    object      gradTz;
}
// * * * * * * * * * * * * * * * * * * * * * * * * * * * * * * * * * * * * * //

dimensions      [0 -1 0 1 0 0 0];

internalField   nonuniform List<scalar> 
11250
(
-14359.4
-4154.69
-1533.95
-729.742
-424.203
-281.601
-203.121
-154.423
-121.48
-97.73
-79.7689
-65.6879
-54.3509
-45.0481
-37.3157
-30.8379
-25.3899
-20.8043
-16.951
-13.7245
-11.0363
-8.8102
-6.97968
-5.48592
-4.27689
-3.30667
-2.53496
-1.92671
-1.45172
-1.08427
-0.802699
-0.588985
-0.428328
-0.308713
-0.220512
-0.156099
-0.109511
-0.076137
-0.0524587
-0.0358196
-0.0242386
-0.0162545
-0.0108024
-0.00711458
-0.00464358
-0.0030035
-0.00192515
-0.0012228
-0.000769639
-0.000479998
-0.000296616
-0.000181603
-0.000110154
-6.61898e-05
-3.93964e-05
-2.3225e-05
-1.35595e-05
-7.83922e-06
-4.48738e-06
-2.54302e-06
-1.42656e-06
-7.92063e-07
-4.35239e-07
-2.36642e-07
-1.27278e-07
-6.77263e-08
-3.56682e-08
-1.85871e-08
-9.57013e-09
-4.87123e-09
-2.45208e-09
-1.24909e-09
-6.16861e-10
-3.17211e-10
-1.93181e-10
-8282.35
-4879.36
-2784.7
-1689.97
-1109.16
-780.257
-579.251
-447.281
-355.109
-287.355
-235.466
-194.435
-161.198
-133.805
-110.962
-91.7799
-75.6174
-61.9945
-50.5346
-40.9306
-32.9235
-26.2893
-20.8315
-16.3762
-12.7691
-9.87374
-7.57031
-5.75445
-4.33622
-3.23892
-2.39798
-1.75964
-1.27974
-0.922407
-0.658901
-0.466452
-0.327249
-0.227527
-0.156772
-0.10705
-0.0724408
-0.0485805
-0.0322864
-0.0212646
-0.0138794
-0.00897745
-0.00575439
-0.0036551
-0.00230058
-0.00143482
-0.000886667
-0.000542874
-0.000329294
-0.000197871
-0.000117776
-6.94331e-05
-4.05382e-05
-2.34372e-05
-1.34164e-05
-7.60339e-06
-4.26543e-06
-2.36835e-06
-1.30137e-06
-7.07593e-07
-3.80684e-07
-2.02606e-07
-1.06653e-07
-5.55515e-08
-2.86335e-08
-1.45983e-08
-7.34635e-09
-3.65726e-09
-1.82753e-09
-9.82368e-10
-5.98202e-10
-5606.14
-4293.67
-3033.59
-2134.54
-1540.7
-1149.74
-885.354
-699.64
-563.904
-460.979
-380.424
-315.732
-262.739
-218.703
-181.756
-150.587
-124.233
-101.96
-83.1842
-67.423
-54.2652
-43.352
-34.3663
-27.0259
-21.0795
-16.3041
-12.5034
-9.50618
-7.16457
-5.35239
-3.96327
-2.90862
-2.11559
-1.52503
-1.08947
-0.771325
-0.54118
-0.376293
-0.259292
-0.177064
-0.119826
-0.0803622
-0.0534109
-0.0351792
-0.0229624
-0.0148531
-0.00952092
-0.00604775
-0.00380669
-0.00237424
-0.00146724
-0.00089837
-0.00054495
-0.00032747
-0.000194923
-0.000114919
-6.70979e-05
-3.87944e-05
-2.22087e-05
-1.25868e-05
-7.06151e-06
-3.92113e-06
-2.15476e-06
-1.17168e-06
-6.30394e-07
-3.35535e-07
-1.76651e-07
-9.19979e-08
-4.74039e-08
-2.41739e-08
-1.21715e-08
-6.06214e-09
-3.03711e-09
-1.59703e-09
-1.03396e-09
-4238.92
-3652.23
-2918.26
-2271
-1766.83
-1390.56
-1111.14
-900.858
-739.204
-612.007
-509.713
-425.9
-356.213
-297.654
-248.11
-206.045
-170.303
-139.982
-114.345
-92.7742
-74.7323
-59.7456
-47.3906
-37.2876
-29.0962
-22.5133
-17.271
-13.1348
-9.90192
-7.39907
-5.47988
-4.02239
-2.92617
-2.10965
-1.50732
-1.06728
-0.748915
-0.520787
-0.358892
-0.245099
-0.165881
-0.111257
-0.0739496
-0.0487101
-0.0317962
-0.0205684
-0.0131852
-0.00837575
-0.0052723
-0.0032885
-0.00203235
-0.00124444
-0.000754916
-0.000453668
-0.000270057
-0.000159224
-9.29726e-05
-5.37583e-05
-3.07773e-05
-1.74445e-05
-9.78763e-06
-5.43537e-06
-2.9872e-06
-1.62452e-06
-8.74091e-07
-4.65276e-07
-2.44995e-07
-1.2761e-07
-6.57506e-08
-3.35103e-08
-1.68825e-08
-8.42641e-09
-4.22912e-09
-2.22707e-09
-1.41922e-09
-3453.56
-3153.37
-2711.84
-2260.36
-1861.57
-1531.62
-1265.51
-1051.84
-879.096
-737.818
-620.794
-522.731
-439.79
-369.179
-308.838
-257.211
-213.083
-175.473
-143.556
-116.623
-94.0435
-75.2518
-59.736
-47.032
-36.7207
-28.4268
-21.8168
-16.5982
-12.517
-9.35594
-6.931
-5.08874
-3.7027
-2.67
-1.90801
-1.35121
-0.948283
-0.659511
-0.454545
-0.310458
-0.210137
-0.140953
-0.0936957
-0.0617218
-0.0402929
-0.0260666
-0.0167109
-0.0106162
-0.00668302
-0.00416869
-0.00257649
-0.00157773
-0.000957166
-0.000575251
-0.000342457
-0.000201927
-0.000117917
-6.81878e-05
-3.90421e-05
-2.21312e-05
-1.24185e-05
-6.8972e-06
-3.79105e-06
-2.06194e-06
-1.10962e-06
-5.90754e-07
-3.11116e-07
-1.62063e-07
-8.35023e-08
-4.25755e-08
-2.14453e-08
-1.06952e-08
-5.36406e-09
-2.83295e-09
-1.80229e-09
-2962.26
-2789.9
-2509.76
-2191.97
-1883.03
-1605.12
-1364.58
-1159.83
-986.32
-838.976
-713.259
-605.445
-512.6
-432.446
-363.203
-303.456
-252.048
-208.002
-170.469
-138.691
-111.977
-89.6961
-71.266
-56.1531
-43.8714
-33.9821
-26.0937
-19.8609
-14.9835
-11.2034
-8.30223
-6.09721
-4.43761
-3.20066
-2.2877
-1.62041
-1.1374
-0.791161
-0.545358
-0.372534
-0.252184
-0.169176
-0.112468
-0.0740953
-0.0483749
-0.0312979
-0.0200663
-0.0127488
-0.0080262
-0.00500692
-0.0030948
-0.00189528
-0.00114991
-0.000691146
-0.000411488
-0.000242653
-0.000141714
-8.19573e-05
-4.69314e-05
-2.66065e-05
-1.49317e-05
-8.29414e-06
-4.55956e-06
-2.48034e-06
-1.33499e-06
-7.10838e-07
-3.74418e-07
-1.95081e-07
-1.0054e-07
-5.12664e-08
-2.5839e-08
-1.28992e-08
-6.46716e-09
-3.39274e-09
-2.1667e-09
-2635.96
-2527.07
-2338.61
-2108.6
-1868.14
-1636.82
-1424.38
-1234.14
-1065.93
-918.027
-788.235
-674.396
-574.6
-487.225
-410.901
-344.463
-286.9
-237.306
-194.858
-158.787
-128.377
-102.952
-81.8797
-64.5715
-50.4862
-39.1313
-30.0648
-22.895
-17.2801
-12.9258
-9.58202
-7.03935
-5.12478
-3.69725
-2.64326
-1.87266
-1.31471
-0.914664
-0.630594
-0.430823
-0.291683
-0.195699
-0.130116
-0.0857318
-0.0559781
-0.0362206
-0.0232247
-0.0147568
-0.00929121
-0.00579658
-0.00358322
-0.00219459
-0.00133163
-0.000800446
-0.000476611
-0.000281086
-0.000164178
-9.49603e-05
-5.43844e-05
-3.0836e-05
-1.73078e-05
-9.61552e-06
-5.28684e-06
-2.87646e-06
-1.54846e-06
-8.24705e-07
-4.34505e-07
-2.26404e-07
-1.16689e-07
-5.94964e-08
-3.00133e-08
-1.5022e-08
-7.53075e-09
-3.95033e-09
-2.51903e-09
-2410
-2335.5
-2201.22
-2028.58
-1837.92
-1644.48
-1457.95
-1283.56
-1123.55
-978.412
-847.737
-730.703
-626.361
-533.76
-451.991
-380.193
-317.55
-263.277
-216.612
-176.811
-143.154
-114.943
-91.5132
-72.2349
-56.5232
-43.8413
-33.7043
-25.6806
-19.392
-14.5118
-10.7619
-7.90891
-5.75965
-4.15646
-2.97234
-2.10629
-1.47906
-1.0292
-0.709687
-0.48494
-0.328373
-0.220347
-0.146524
-0.0965544
-0.063052
-0.0408024
-0.0261653
-0.016627
-0.0104697
-0.00653248
-0.00403852
-0.00247369
-0.00150114
-0.000902433
-0.000537397
-0.000316972
-0.000185161
-0.000107111
-6.13518e-05
-3.47918e-05
-1.95313e-05
-1.08526e-05
-5.9681e-06
-3.24773e-06
-1.7487e-06
-9.31534e-07
-4.90892e-07
-2.55858e-07
-1.31889e-07
-6.72411e-08
-3.39416e-08
-1.70219e-08
-8.55483e-09
-4.48926e-09
-2.83405e-09
-2248.9
-2194.37
-2093.36
-1958.61
-1803.48
-1639.41
-1474.84
-1315.38
-1164.39
-1023.71
-894.14
-775.898
-668.844
-572.636
-486.811
-410.827
-344.086
-285.944
-235.728
-192.741
-156.279
-125.64
-100.138
-79.1181
-61.9607
-48.094
-36.9976
-28.2061
-21.31
-15.9544
-11.8366
-8.70191
-6.33927
-4.57613
-3.27335
-2.32018
-1.62963
-1.13421
-0.782251
-0.53462
-0.362073
-0.242997
-0.161609
-0.106509
-0.0695615
-0.0450201
-0.0288733
-0.0183498
-0.0115558
-0.00721089
-0.0044584
-0.00273116
-0.00165756
-0.000996583
-0.000593532
-0.000350126
-0.000204555
-0.000118346
-6.77973e-05
-3.84531e-05
-2.15903e-05
-1.19989e-05
-6.59974e-06
-3.59219e-06
-1.93457e-06
-1.03076e-06
-5.43312e-07
-2.8326e-07
-1.46049e-07
-7.44986e-08
-3.76011e-08
-1.88263e-08
-9.48122e-09
-5.00294e-09
-3.15675e-09
-2131.66
-2089.36
-2009.53
-1900.14
-1770.27
-1628.41
-1481.6
-1335.15
-1192.84
-1057.2
-929.815
-811.652
-703.202
-604.635
-515.885
-436.709
-366.727
-305.445
-252.291
-206.627
-167.778
-135.053
-107.758
-85.22
-66.7956
-51.8853
-39.9405
-30.4676
-23.0306
-17.2507
-12.8038
-9.41655
-6.86225
-4.95522
-3.54553
-2.51376
-1.76601
-1.22941
-0.848078
-0.579717
-0.392682
-0.263583
-0.175326
-0.115566
-0.075486
-0.0488606
-0.0313401
-0.0199198
-0.0125459
-0.00782957
-0.00484145
-0.00296614
-0.00180037
-0.00108257
-0.000644823
-0.000380431
-0.00022229
-0.000128626
-7.36973e-05
-4.18063e-05
-2.34771e-05
-1.30499e-05
-7.17927e-06
-3.90847e-06
-2.10537e-06
-1.122e-06
-5.9153e-07
-3.08495e-07
-1.59123e-07
-8.11644e-08
-4.09587e-08
-2.05364e-08
-1.03461e-08
-5.44528e-09
-3.48274e-09
-2045.1
-2010.61
-1944.66
-1852.55
-1740.63
-1615.36
-1482.52
-1346.92
-1212.35
-1081.66
-956.924
-839.597
-730.641
-630.631
-539.839
-458.284
-385.786
-321.999
-266.45
-218.57
-177.722
-143.231
-114.405
-90.5612
-71.0408
-55.2236
-42.5381
-32.4681
-24.5557
-18.4018
-13.6639
-10.053
-7.32866
-5.2937
-3.78882
-2.68697
-1.88816
-1.31474
-0.907126
-0.620199
-0.420178
-0.282085
-0.187661
-0.123714
-0.0808196
-0.0523196
-0.0335628
-0.0213351
-0.0134388
-0.00838773
-0.00518716
-0.0031783
-0.00192937
-0.00116027
-0.000691189
-0.000407838
-0.000238337
-0.000137931
-7.9041e-05
-4.48449e-05
-2.51879e-05
-1.40035e-05
-7.7054e-06
-4.19577e-06
-2.26064e-06
-1.20506e-06
-6.35472e-07
-3.31483e-07
-1.71018e-07
-8.72551e-08
-4.4077e-08
-2.21126e-08
-1.11002e-08
-5.84591e-09
-3.76263e-09
-1980.56
-1951.22
-1894.6
-1814.41
-1715.33
-1602.36
-1480.32
-1353.5
-1225.52
-1099.35
-977.325
-861.213
-752.312
-651.508
-559.339
-476.048
-401.63
-335.873
-278.402
-228.714
-186.213
-150.246
-120.13
-95.179
-74.723
-58.1273
-44.8034
-34.2167
-25.8916
-19.4119
-14.42
-10.6134
-7.73984
-5.59248
-4.00382
-2.8402
-1.99633
-1.39037
-0.959506
-0.656136
-0.444604
-0.298533
-0.198634
-0.130967
-0.085569
-0.0554012
-0.035544
-0.0225971
-0.0142353
-0.00888587
-0.00549583
-0.0033678
-0.00204463
-0.00122973
-0.000732655
-0.00043236
-0.000252701
-0.000146264
-8.38292e-05
-4.75692e-05
-2.67227e-05
-1.48595e-05
-8.17802e-06
-4.45404e-06
-2.40035e-06
-1.27985e-06
-6.75064e-07
-3.52206e-07
-1.81762e-07
-9.27761e-08
-4.68781e-08
-2.35088e-08
-1.18268e-08
-6.23337e-09
-3.97886e-09
-1932.13
-1906.27
-1856.03
-1784.18
-1694.31
-1590.46
-1476.68
-1356.81
-1234.28
-1112.04
-992.554
-877.786
-769.263
-668.099
-575.04
-490.509
-414.649
-347.366
-288.372
-237.226
-193.376
-156.192
-125.003
-99.1237
-77.8788
-60.6234
-46.7557
-35.7273
-27.048
-20.2881
-15.077
-11.1011
-8.09822
-5.85324
-4.1917
-2.97425
-2.09105
-1.45666
-1.00546
-0.68769
-0.466066
-0.312994
-0.208288
-0.137351
-0.0897525
-0.0581171
-0.0372909
-0.0237104
-0.0149383
-0.0093257
-0.00576847
-0.00353526
-0.00214653
-0.00129116
-0.000769344
-0.000454066
-0.000265421
-0.000153648
-8.80739e-05
-4.99856e-05
-2.80848e-05
-1.56197e-05
-8.59799e-06
-4.68374e-06
-2.52467e-06
-1.34642e-06
-7.10354e-07
-3.70716e-07
-1.91352e-07
-9.77176e-08
-4.94005e-08
-2.47721e-08
-1.24558e-08
-6.54839e-09
-4.194e-09
-1895.65
-1872.18
-1826.38
-1760.42
-1677.21
-1580.09
-1472.58
-1358.15
-1240.01
-1121.08
-1003.84
-890.394
-782.408
-681.16
-587.555
-502.157
-425.229
-356.779
-296.593
-244.288
-199.35
-161.174
-129.103
-102.454
-80.5522
-62.7441
-48.419
-37.0174
-28.0378
-21.0394
-15.6415
-11.5207
-8.40708
-6.07828
-4.35404
-3.09021
-2.17308
-1.51412
-1.04533
-0.715091
-0.484719
-0.325572
-0.21669
-0.142912
-0.0933978
-0.0604849
-0.0388147
-0.024682
-0.0155521
-0.00970988
-0.00600672
-0.00368165
-0.00223565
-0.00134491
-0.000801457
-0.000473074
-0.000276566
-0.00016012
-9.17962e-05
-5.21058e-05
-2.92806e-05
-1.62875e-05
-8.96716e-06
-4.88575e-06
-2.63407e-06
-1.40507e-06
-7.41492e-07
-3.87054e-07
-1.99832e-07
-1.02091e-07
-5.1621e-08
-2.58796e-08
-1.29859e-08
-6.82169e-09
-4.4245e-09
-1868.11
-1846.31
-1803.64
-1741.88
-1663.48
-1571.33
-1468.56
-1358.33
-1243.69
-1127.47
-1012.16
-899.919
-792.521
-691.354
-597.438
-511.446
-433.74
-364.407
-303.298
-250.081
-204.275
-165.301
-132.512
-105.235
-82.7914
-64.5256
-49.82
-38.1067
-28.8754
-21.6765
-16.1209
-11.8778
-8.67031
-6.27035
-4.49278
-3.18944
-2.24334
-1.5634
-1.07955
-0.73863
-0.500756
-0.336394
-0.223924
-0.147702
-0.0965402
-0.0625272
-0.0401297
-0.0255208
-0.0160823
-0.0100419
-0.0062127
-0.00380825
-0.00231275
-0.00139143
-0.000829265
-0.000489539
-0.000286224
-0.000165731
-9.50251e-05
-5.39459e-05
-3.0319e-05
-1.68676e-05
-9.28807e-06
-5.06149e-06
-2.72936e-06
-1.4562e-06
-7.68625e-07
-4.01313e-07
-2.07252e-07
-1.05889e-07
-5.35154e-08
-2.68181e-08
-1.34853e-08
-7.11476e-09
-4.60231e-09
-1847.32
-1826.69
-1786.24
-1727.5
-1652.6
-1564.12
-1464.9
-1357.9
-1246
-1131.95
-1018.25
-907.07
-800.246
-699.246
-605.173
-518.786
-440.52
-370.526
-308.711
-254.783
-208.293
-168.682
-135.318
-107.531
-84.6461
-66.0057
-50.987
-39.0162
-29.5764
-22.2108
-16.5238
-12.1784
-8.8922
-6.43248
-4.61006
-3.27341
-2.30288
-1.60519
-1.10861
-0.758633
-0.514394
-0.345605
-0.230085
-0.151785
-0.0992202
-0.0642699
-0.0412523
-0.0262373
-0.0165353
-0.0103257
-0.00638886
-0.00391658
-0.00237875
-0.00143127
-0.000853084
-0.000503649
-0.000294503
-0.000170544
-9.77954e-05
-5.55254e-05
-3.12107e-05
-1.73662e-05
-9.56403e-06
-5.21266e-06
-2.81134e-06
-1.50021e-06
-7.92009e-07
-4.13609e-07
-2.13641e-07
-1.0917e-07
-5.52036e-08
-2.76786e-08
-1.38969e-08
-7.32879e-09
-4.77793e-09
-1831.64
-1811.85
-1772.98
-1716.41
-1644.06
-1558.28
-1461.73
-1357.17
-1247.4
-1135.08
-1022.69
-912.406
-806.106
-705.309
-611.179
-524.534
-445.87
-375.387
-313.037
-258.561
-211.537
-171.424
-137.601
-109.406
-86.1659
-67.222
-51.9486
-39.7675
-30.1567
-22.654
-16.8586
-12.4286
-9.07721
-6.56787
-4.70812
-3.34372
-2.35278
-1.64026
-1.13301
-0.775449
-0.52587
-0.353361
-0.235277
-0.155227
-0.101481
-0.0657411
-0.0422006
-0.0268428
-0.0169184
-0.0105658
-0.00653792
-0.00400828
-0.00243463
-0.00146501
-0.000873267
-0.000515609
-0.000301524
-0.000174625
-0.000100146
-5.68662e-05
-3.19681e-05
-1.77898e-05
-9.79859e-06
-5.34127e-06
-2.88112e-06
-1.53769e-06
-8.11934e-07
-4.24082e-07
-2.19078e-07
-1.11979e-07
-5.66349e-08
-2.84107e-08
-1.42712e-08
-7.51978e-09
-4.90964e-09
-1819.83
-1800.64
-1762.91
-1707.91
-1637.41
-1553.63
-1459.06
-1356.36
-1248.22
-1137.26
-1025.91
-916.367
-810.523
-709.933
-615.803
-528.998
-450.054
-379.213
-316.461
-261.567
-214.129
-173.623
-139.439
-110.921
-87.398
-68.2108
-52.7324
-40.3814
-30.6319
-23.0177
-17.1338
-12.6346
-9.22982
-6.67972
-4.78924
-3.40195
-2.39417
-1.66938
-1.15329
-0.789436
-0.535424
-0.359823
-0.239606
-0.1581
-0.103369
-0.0669701
-0.0429932
-0.0273492
-0.0172388
-0.0107667
-0.00666272
-0.00408507
-0.00248145
-0.00149328
-0.000890185
-0.000525637
-0.000307412
-0.00017805
-0.000102119
-5.79918e-05
-3.26041e-05
-1.81456e-05
-9.99573e-06
-5.4494e-06
-2.93983e-06
-1.56923e-06
-8.28688e-07
-4.3291e-07
-2.23704e-07
-1.14362e-07
-5.78203e-08
-2.90111e-08
-1.46082e-08
-7.70198e-09
-4.98538e-09
-1810.97
-1792.21
-1755.3
-1701.43
-1632.28
-1549.97
-1456.88
-1355.57
-1248.67
-1138.76
-1028.23
-919.289
-813.831
-713.435
-619.337
-532.435
-453.297
-382.197
-319.146
-263.934
-216.18
-175.371
-140.906
-112.133
-88.3866
-69.0065
-53.3647
-40.8778
-31.0169
-23.313
-17.3577
-12.8025
-9.35438
-6.77113
-4.85563
-3.44968
-2.42812
-1.69329
-1.16997
-0.800948
-0.543293
-0.365151
-0.243178
-0.160471
-0.104929
-0.067986
-0.0436486
-0.0277681
-0.0175041
-0.010933
-0.00676608
-0.0041487
-0.00252025
-0.00151672
-0.000904213
-0.000533954
-0.000312296
-0.000180892
-0.000103756
-5.89262e-05
-3.31322e-05
-1.84412e-05
-1.01595e-05
-5.53925e-06
-2.98863e-06
-1.59545e-06
-8.4264e-07
-4.4027e-07
-2.27542e-07
-1.16317e-07
-5.88334e-08
-2.95336e-08
-1.48848e-08
-7.85784e-09
-5.05892e-09
-1804.34
-1785.89
-1749.57
-1696.52
-1628.36
-1547.12
-1455.12
-1354.85
-1248.9
-1139.78
-1029.9
-921.435
-816.294
-716.069
-622.018
-535.061
-455.791
-384.504
-321.231
-265.782
-217.787
-176.746
-142.063
-113.093
-89.1717
-69.6401
-53.8695
-41.275
-31.3257
-23.5502
-17.538
-12.9379
-9.45498
-6.84508
-4.90941
-3.48838
-2.45569
-1.71273
-1.18353
-0.810324
-0.549708
-0.369497
-0.246094
-0.162408
-0.106204
-0.0688168
-0.044185
-0.028111
-0.0177213
-0.0110693
-0.00685079
-0.00420085
-0.00255206
-0.00153594
-0.000915719
-0.000540776
-0.000316304
-0.000183223
-0.0001051
-5.96932e-05
-3.35658e-05
-1.86839e-05
-1.0294e-05
-5.61308e-06
-3.02874e-06
-1.61702e-06
-8.54123e-07
-4.46289e-07
-2.30672e-07
-1.17943e-07
-5.96819e-08
-2.99748e-08
-1.50813e-08
-7.9709e-09
-5.12917e-09
-1799.4
-1781.17
-1745.28
-1692.82
-1625.38
-1544.93
-1453.73
-1354.24
-1248.99
-1140.48
-1031.09
-923.001
-818.115
-718.037
-624.036
-537.051
-457.691
-386.271
-322.837
-267.211
-219.035
-177.816
-142.967
-113.846
-89.789
-70.1396
-54.2684
-41.5896
-31.5708
-23.7389
-17.6816
-13.046
-9.53538
-6.90426
-4.95251
-3.51944
-2.47784
-1.72837
-1.19446
-0.81788
-0.554883
-0.373005
-0.248449
-0.163975
-0.107235
-0.0694893
-0.0446193
-0.0283889
-0.0178973
-0.0111798
-0.00691947
-0.00424315
-0.00257786
-0.00155154
-0.000925054
-0.000546312
-0.000319555
-0.000185115
-0.000106191
-6.03157e-05
-3.39177e-05
-1.88809e-05
-1.04032e-05
-5.67301e-06
-3.0613e-06
-1.63453e-06
-8.63428e-07
-4.51202e-07
-2.33239e-07
-1.19277e-07
-6.03701e-08
-3.02767e-08
-1.52503e-08
-8.07407e-09
-5.19941e-09
-1795.74
-1777.67
-1742.08
-1690.05
-1623.13
-1543.25
-1452.64
-1353.72
-1249
-1140.95
-1031.94
-924.139
-819.455
-719.497
-625.545
-538.547
-459.129
-387.614
-324.062
-268.305
-219.995
-178.643
-143.668
-114.43
-90.2696
-70.5294
-54.5805
-41.8362
-31.7634
-23.8874
-17.7948
-13.1313
-9.59899
-6.95115
-4.98671
-3.54411
-2.49546
-1.74081
-1.20316
-0.823907
-0.559014
-0.375809
-0.250333
-0.165228
-0.10806
-0.0700279
-0.0449673
-0.0286116
-0.0180385
-0.0112684
-0.00697457
-0.00427709
-0.00259857
-0.00156405
-0.000932546
-0.000550755
-0.000322165
-0.000186634
-0.000107066
-6.08152e-05
-3.42001e-05
-1.9039e-05
-1.04909e-05
-5.7211e-06
-3.08741e-06
-1.64856e-06
-8.70884e-07
-4.55136e-07
-2.35306e-07
-1.20349e-07
-6.09057e-08
-3.05719e-08
-1.54073e-08
-8.13225e-09
-5.251e-09
-1793.04
-1775.09
-1739.72
-1688
-1621.45
-1541.98
-1451.81
-1353.31
-1248.97
-1141.27
-1032.54
-924.96
-820.434
-720.573
-626.664
-539.664
-460.207
-388.626
-324.989
-269.137
-220.726
-179.275
-144.205
-114.88
-90.6402
-70.8308
-54.8222
-42.0277
-31.9131
-24.0032
-17.8832
-13.198
-9.64879
-6.98792
-5.01356
-3.56351
-2.50932
-1.75062
-1.21003
-0.828666
-0.562278
-0.378025
-0.251824
-0.16622
-0.108714
-0.0704549
-0.0452433
-0.0287882
-0.0181505
-0.0113387
-0.00701832
-0.00430404
-0.00261501
-0.00157399
-0.000938495
-0.000554282
-0.000324237
-0.000187839
-0.00010776
-6.12115e-05
-3.44241e-05
-1.91644e-05
-1.05604e-05
-5.75923e-06
-3.10812e-06
-1.65967e-06
-8.7682e-07
-4.58279e-07
-2.36928e-07
-1.21159e-07
-6.13261e-08
-3.08167e-08
-1.5528e-08
-8.20689e-09
-5.26966e-09
-1791.06
-1773.19
-1737.98
-1686.48
-1620.2
-1541.04
-1451.17
-1352.98
-1248.93
-1141.48
-1032.96
-925.55
-821.145
-721.36
-627.489
-540.492
-461.009
-389.382
-325.685
-269.763
-221.278
-179.753
-144.613
-115.222
-90.9231
-71.0614
-55.0077
-42.1749
-32.0285
-24.0925
-17.9515
-13.2497
-9.68741
-7.01647
-5.03443
-3.57861
-2.52013
-1.75827
-1.21539
-0.832385
-0.564832
-0.379761
-0.252991
-0.166998
-0.109227
-0.0707898
-0.0454599
-0.028927
-0.0182385
-0.011394
-0.00705268
-0.00432521
-0.00262793
-0.00158179
-0.000943166
-0.000557052
-0.000325863
-0.000188785
-0.000108305
-6.15224e-05
-3.45997e-05
-1.92627e-05
-1.06148e-05
-5.78909e-06
-3.12432e-06
-1.66843e-06
-8.81493e-07
-4.60705e-07
-2.38169e-07
-1.21819e-07
-6.16751e-08
-3.09748e-08
-1.56158e-08
-8.2486e-09
-5.30588e-09
-1789.62
-1771.8
-1736.7
-1685.36
-1619.28
-1540.33
-1450.69
-1352.72
-1248.88
-1141.62
-1033.26
-925.971
-821.658
-721.933
-628.092
-541.099
-461.601
-389.942
-326.202
-270.23
-221.692
-180.113
-144.92
-115.48
-91.1371
-71.2362
-55.1485
-42.2869
-32.1164
-24.1607
-18.0038
-13.2893
-9.71704
-7.0384
-5.05049
-3.59024
-2.52846
-1.76418
-1.21954
-0.835262
-0.566808
-0.381105
-0.253896
-0.167601
-0.109626
-0.07105
-0.0456282
-0.0290348
-0.0183068
-0.0114369
-0.00707939
-0.00434166
-0.00263797
-0.00158786
-0.000946796
-0.000559203
-0.000327126
-0.000189519
-0.000108728
-6.17635e-05
-3.47358e-05
-1.93388e-05
-1.0657e-05
-5.8122e-06
-3.13689e-06
-1.67519e-06
-8.85074e-07
-4.62595e-07
-2.39174e-07
-1.22321e-07
-6.19122e-08
-3.10933e-08
-1.56564e-08
-8.28921e-09
-5.36845e-09
-1788.58
-1770.8
-1735.78
-1684.55
-1618.61
-1539.81
-1450.33
-1352.53
-1248.84
-1141.71
-1033.47
-926.27
-822.026
-722.347
-628.53
-541.543
-462.035
-390.354
-326.583
-270.575
-221.998
-180.38
-145.149
-115.673
-91.2975
-71.3675
-55.2545
-42.3714
-32.1829
-24.2123
-18.0434
-13.3193
-9.73956
-7.0551
-5.06272
-3.59911
-2.53482
-1.76869
-1.22271
-0.837465
-0.568323
-0.382136
-0.254591
-0.168065
-0.109932
-0.0712499
-0.0457576
-0.0291177
-0.0183594
-0.01147
-0.00709994
-0.00435432
-0.00264569
-0.00159252
-0.000949586
-0.000560856
-0.000328096
-0.000190083
-0.000109052
-6.19483e-05
-3.48402e-05
-1.93971e-05
-1.06893e-05
-5.82991e-06
-3.14649e-06
-1.68032e-06
-8.87807e-07
-4.64031e-07
-2.39919e-07
-1.22702e-07
-6.20911e-08
-3.11932e-08
-1.57332e-08
-8.3386e-09
-5.38491e-09
-1787.82
-1770.08
-1735.11
-1683.96
-1618.12
-1539.43
-1450.07
-1352.38
-1248.8
-1141.76
-1033.61
-926.481
-822.288
-722.643
-628.845
-541.864
-462.35
-390.654
-326.862
-270.828
-222.224
-180.577
-145.318
-115.816
-91.4166
-71.4651
-55.3335
-42.4344
-32.2325
-24.251
-18.0731
-13.3419
-9.75651
-7.06767
-5.07196
-3.60581
-2.53963
-1.77211
-1.22511
-0.839135
-0.569473
-0.382919
-0.255119
-0.168417
-0.110164
-0.0714021
-0.0458561
-0.0291808
-0.0183995
-0.0114951
-0.00711559
-0.00436395
-0.00265156
-0.00159607
-0.000951708
-0.000562113
-0.000328833
-0.000190511
-0.000109298
-6.20885e-05
-3.49193e-05
-1.94413e-05
-1.07137e-05
-5.84328e-06
-3.15372e-06
-1.68422e-06
-8.89863e-07
-4.65098e-07
-2.40486e-07
-1.23015e-07
-6.22503e-08
-3.12601e-08
-1.57706e-08
-8.34738e-09
-5.40028e-09
-1787.29
-1769.56
-1734.63
-1683.54
-1617.76
-1539.16
-1449.88
-1352.27
-1248.77
-1141.8
-1033.71
-926.629
-822.473
-722.854
-629.071
-542.094
-462.577
-390.872
-327.064
-271.013
-222.388
-180.721
-145.442
-115.921
-91.5041
-71.5371
-55.3919
-42.4811
-32.2694
-24.2796
-18.0952
-13.3587
-9.76913
-7.07706
-5.07885
-3.61082
-2.54324
-1.77467
-1.22691
-0.840389
-0.570337
-0.383508
-0.255516
-0.168682
-0.110339
-0.0715167
-0.0459303
-0.0292283
-0.0184296
-0.0115141
-0.00712738
-0.00437121
-0.00265599
-0.00159874
-0.000953305
-0.000563057
-0.000329387
-0.000190832
-0.000109483
-6.21936e-05
-3.49785e-05
-1.94743e-05
-1.0732e-05
-5.85326e-06
-3.15913e-06
-1.68712e-06
-8.91406e-07
-4.65906e-07
-2.40911e-07
-1.23234e-07
-6.23677e-08
-3.13117e-08
-1.57684e-08
-8.3397e-09
-5.44199e-09
-1786.9
-1769.19
-1734.29
-1683.24
-1617.51
-1538.96
-1449.74
-1352.18
-1248.74
-1141.83
-1033.78
-926.733
-822.604
-723.004
-629.231
-542.259
-462.739
-391.027
-327.21
-271.146
-222.507
-180.825
-145.532
-115.998
-91.568
-71.5897
-55.4345
-42.5152
-32.2964
-24.3007
-18.1114
-13.3711
-9.77845
-7.08399
-5.08395
-3.61453
-2.54591
-1.77657
-1.22825
-0.841321
-0.570979
-0.383946
-0.255812
-0.168879
-0.11047
-0.0716021
-0.0459856
-0.0292638
-0.0184522
-0.0115282
-0.00713617
-0.00437663
-0.00265929
-0.00160073
-0.000954494
-0.000563761
-0.000329798
-0.000191071
-0.00010962
-6.22716e-05
-3.50224e-05
-1.94988e-05
-1.07455e-05
-5.86064e-06
-3.16316e-06
-1.68927e-06
-8.92525e-07
-4.66486e-07
-2.41205e-07
-1.23402e-07
-6.24819e-08
-3.13633e-08
-1.57837e-08
-8.36275e-09
-5.41564e-09
-1786.63
-1768.93
-1734.05
-1683.03
-1617.33
-1538.82
-1449.64
-1352.12
-1248.72
-1141.84
-1033.82
-926.804
-822.695
-723.109
-629.344
-542.375
-462.855
-391.138
-327.314
-271.241
-222.592
-180.9
-145.597
-116.053
-91.6141
-71.6277
-55.4655
-42.54
-32.316
-24.3161
-18.1233
-13.3801
-9.78526
-7.08907
-5.08769
-3.61726
-2.54787
-1.77797
-1.22923
-0.842007
-0.571452
-0.384269
-0.25603
-0.169025
-0.110566
-0.0716652
-0.0460265
-0.02929
-0.0184688
-0.0115387
-0.00714266
-0.00438062
-0.00266172
-0.0016022
-0.00095537
-0.000564278
-0.000330101
-0.000191246
-0.000109721
-6.23288e-05
-3.50545e-05
-1.95167e-05
-1.07553e-05
-5.86603e-06
-3.16607e-06
-1.69083e-06
-8.93332e-07
-4.6691e-07
-2.4144e-07
-1.23524e-07
-6.25291e-08
-3.13765e-08
-1.58134e-08
-8.37592e-09
-5.41016e-09
-1786.44
-1768.75
-1733.89
-1682.88
-1617.21
-1538.72
-1449.56
-1352.08
-1248.7
-1141.85
-1033.85
-926.853
-822.758
-723.182
-629.423
-542.457
-462.936
-391.216
-327.387
-271.308
-222.653
-180.954
-145.643
-116.092
-91.6471
-71.655
-55.4877
-42.5579
-32.3301
-24.3271
-18.1318
-13.3866
-9.79019
-7.09274
-5.0904
-3.61923
-2.54929
-1.77899
-1.22995
-0.842507
-0.571798
-0.384505
-0.256189
-0.169132
-0.110637
-0.0717113
-0.0460564
-0.0293092
-0.0184809
-0.0115463
-0.00714741
-0.00438354
-0.0026635
-0.00160327
-0.000956008
-0.000564655
-0.000330322
-0.000191374
-0.000109794
-6.23702e-05
-3.50778e-05
-1.95296e-05
-1.07624e-05
-5.86991e-06
-3.16817e-06
-1.69194e-06
-8.93941e-07
-4.67241e-07
-2.41569e-07
-1.23571e-07
-6.2562e-08
-3.14083e-08
-1.58331e-08
-8.38141e-09
-5.41784e-09
-1786.31
-1768.62
-1733.77
-1682.77
-1617.12
-1538.65
-1449.51
-1352.05
-1248.69
-1141.86
-1033.87
-926.887
-822.802
-723.232
-629.478
-542.513
-462.992
-391.271
-327.439
-271.355
-222.695
-180.991
-145.675
-116.12
-91.6705
-71.6743
-55.5035
-42.5706
-32.3402
-24.335
-18.138
-13.3913
-9.79373
-7.09538
-5.09235
-3.62065
-2.55032
-1.77972
-1.23047
-0.842868
-0.572047
-0.384675
-0.256304
-0.169209
-0.110688
-0.0717447
-0.046078
-0.029323
-0.0184897
-0.0115518
-0.00715084
-0.00438565
-0.00266478
-0.00160405
-0.000956469
-0.000564927
-0.000330481
-0.000191466
-0.000109846
-6.24e-05
-3.50945e-05
-1.95389e-05
-1.07675e-05
-5.87267e-06
-3.16966e-06
-1.69274e-06
-8.94346e-07
-4.67456e-07
-2.41692e-07
-1.23632e-07
-6.25982e-08
-3.145e-08
-1.58419e-08
-8.34299e-09
-5.41345e-09
-1786.22
-1768.53
-1733.69
-1682.7
-1617.06
-1538.6
-1449.48
-1352.03
-1248.68
-1141.86
-1033.89
-926.91
-822.831
-723.267
-629.516
-542.553
-463.032
-391.309
-327.474
-271.388
-222.725
-181.018
-145.698
-116.14
-91.6869
-71.688
-55.5146
-42.5796
-32.3474
-24.3406
-18.1423
-13.3946
-9.79624
-7.09726
-5.09374
-3.62167
-2.55105
-1.78024
-1.23084
-0.843126
-0.572225
-0.384797
-0.256387
-0.169264
-0.110724
-0.0717686
-0.0460935
-0.029333
-0.018496
-0.0115558
-0.0071533
-0.00438716
-0.0026657
-0.0016046
-0.000956799
-0.000565122
-0.000330594
-0.000191531
-0.000109884
-6.24211e-05
-3.51063e-05
-1.95455e-05
-1.07712e-05
-5.87465e-06
-3.17071e-06
-1.69329e-06
-8.94631e-07
-4.67589e-07
-2.41782e-07
-1.23688e-07
-6.26158e-08
-3.14522e-08
-1.58474e-08
-8.36824e-09
-5.38491e-09
-1786.16
-1768.48
-1733.63
-1682.65
-1617.01
-1538.57
-1449.45
-1352.01
-1248.68
-1141.86
-1033.9
-926.925
-822.851
-723.291
-629.542
-542.58
-463.059
-391.335
-327.499
-271.411
-222.746
-181.036
-145.714
-116.153
-91.6984
-71.6975
-55.5224
-42.5858
-32.3524
-24.3446
-18.1453
-13.397
-9.79801
-7.09858
-5.09471
-3.62238
-2.55157
-1.78061
-1.2311
-0.843309
-0.572351
-0.384884
-0.256445
-0.169303
-0.11075
-0.0717856
-0.0461045
-0.02934
-0.0185005
-0.0115586
-0.00715504
-0.00438823
-0.00266635
-0.00160499
-0.000957031
-0.000565259
-0.000330674
-0.000191577
-0.00010991
-6.2436e-05
-3.51146e-05
-1.95501e-05
-1.07737e-05
-5.87602e-06
-3.17143e-06
-1.69369e-06
-8.94848e-07
-4.6771e-07
-2.41829e-07
-1.2371e-07
-6.26399e-08
-3.1461e-08
-1.58419e-08
-8.37811e-09
-5.3904e-09
-1786.12
-1768.43
-1733.59
-1682.62
-1616.99
-1538.54
-1449.44
-1352
-1248.67
-1141.86
-1033.9
-926.936
-822.865
-723.307
-629.56
-542.598
-463.077
-391.353
-327.516
-271.427
-222.76
-181.048
-145.725
-116.163
-91.7063
-71.704
-55.5278
-42.5902
-32.3558
-24.3473
-18.1475
-13.3986
-9.79924
-7.0995
-5.0954
-3.62288
-2.55193
-1.78087
-1.23128
-0.843437
-0.57244
-0.384944
-0.256486
-0.169331
-0.110768
-0.0717976
-0.0461123
-0.029345
-0.0185037
-0.0115606
-0.00715627
-0.00438898
-0.00266681
-0.00160526
-0.000957194
-0.000565355
-0.000330729
-0.000191609
-0.000109928
-6.24463e-05
-3.51204e-05
-1.95533e-05
-1.07754e-05
-5.87695e-06
-3.17192e-06
-1.69395e-06
-8.94989e-07
-4.67789e-07
-2.4187e-07
-1.23701e-07
-6.26235e-08
-3.14906e-08
-1.58737e-08
-8.38141e-09
-5.38711e-09
-1786.09
-1768.41
-1733.57
-1682.6
-1616.97
-1538.53
-1449.43
-1352
-1248.67
-1141.86
-1033.91
-926.942
-822.874
-723.317
-629.571
-542.61
-463.089
-391.365
-327.528
-271.437
-222.77
-181.057
-145.733
-116.169
-91.7117
-71.7085
-55.5315
-42.5932
-32.3582
-24.3492
-18.1489
-13.3997
-9.80009
-7.10014
-5.09587
-3.62323
-2.55218
-1.78105
-1.23141
-0.843526
-0.572501
-0.384986
-0.256515
-0.16935
-0.110781
-0.0718059
-0.0461176
-0.0293484
-0.0185059
-0.0115619
-0.00715712
-0.00438951
-0.00266713
-0.00160545
-0.000957307
-0.000565421
-0.000330768
-0.000191632
-0.000109941
-6.24534e-05
-3.51244e-05
-1.95554e-05
-1.07766e-05
-5.87763e-06
-3.17229e-06
-1.6941e-06
-8.95088e-07
-4.67855e-07
-2.41897e-07
-1.23734e-07
-6.26312e-08
-3.14698e-08
-1.58836e-08
-8.37921e-09
-5.38381e-09
-1786.07
-1768.39
-1733.55
-1682.58
-1616.95
-1538.52
-1449.42
-1351.99
-1248.67
-1141.86
-1033.91
-926.947
-822.88
-723.325
-629.579
-542.619
-463.098
-391.373
-327.535
-271.445
-222.776
-181.063
-145.738
-116.173
-91.7154
-71.7116
-55.534
-42.5952
-32.3598
-24.3505
-18.1499
-13.4005
-9.80067
-7.10058
-5.09619
-3.62346
-2.55235
-1.78117
-1.23149
-0.843587
-0.572544
-0.385015
-0.256534
-0.169363
-0.11079
-0.0718116
-0.0461213
-0.0293508
-0.0185074
-0.0115629
-0.0071577
-0.00438986
-0.00266734
-0.00160559
-0.000957385
-0.000565466
-0.000330794
-0.000191647
-0.00010995
-6.24583e-05
-3.51271e-05
-1.95569e-05
-1.07774e-05
-5.87806e-06
-3.17253e-06
-1.69424e-06
-8.95129e-07
-4.67862e-07
-2.41923e-07
-1.23765e-07
-6.26476e-08
-3.14753e-08
-1.58869e-08
-8.36824e-09
-5.37942e-09
-1786.06
-1768.38
-1733.54
-1682.57
-1616.94
-1538.51
-1449.41
-1351.99
-1248.67
-1141.86
-1033.91
-926.95
-822.884
-723.329
-629.585
-542.624
-463.103
-391.379
-327.54
-271.449
-222.78
-181.067
-145.741
-116.176
-91.7178
-71.7137
-55.5357
-42.5966
-32.3609
-24.3513
-18.1506
-13.401
-9.80106
-7.10087
-5.09641
-3.62363
-2.55247
-1.78126
-1.23155
-0.843628
-0.572573
-0.385035
-0.256548
-0.169372