/*--------------------------------*- C++ -*----------------------------------*\
  =========                 |
  \\      /  F ield         | OpenFOAM: The Open Source CFD Toolbox
   \\    /   O peration     | Website:  https://openfoam.org
    \\  /    A nd           | Version:  10
     \\/     M anipulation  |
\*---------------------------------------------------------------------------*/
FoamFile
{
    format      ascii;
    class       volScalarField;
    location    "231";
    object      gradTx;
}
// * * * * * * * * * * * * * * * * * * * * * * * * * * * * * * * * * * * * * //

dimensions      [0 -1 0 1 0 0 0];

internalField   nonuniform List<scalar> 
11250
(
14289.4
8073.06
5259.56
3758.32
2843.41
2228.08
1784.16
1447.75
1183.92
972.045
799.154
656.609
538.367
440.001
358.134
290.1
233.728
187.21
149.016
117.838
92.5476
72.1726
55.8755
42.9378
32.7466
24.7825
18.6094
13.864
10.2466
7.51232
5.46323
3.94079
2.8194
2.00057
1.40787
0.982584
0.680089
0.466812
0.317754
0.214489
0.143574
0.0953009
0.062728
0.0409412
0.0264963
0.0170029
0.0108184
0.00682476
0.00426856
0.00264681
0.00162702
0.000991427
0.000598827
0.000358494
0.0002127
0.000125061
7.28629e-05
4.20607e-05
2.40542e-05
1.36271e-05
7.64657e-06
4.2495e-06
2.33869e-06
1.27444e-06
6.87624e-07
3.6728e-07
1.94215e-07
1.01638e-07
5.26373e-08
2.69531e-08
1.36368e-08
6.81181e-09
3.29175e-09
1.48837e-09
4.02826e-10
4085.39
4672.15
3950.52
3176.39
2549.26
2062.99
1683.7
1382.78
1139.94
941.23
777.002
640.376
526.301
430.939
351.28
284.892
229.76
184.184
146.71
116.083
91.2156
71.165
55.1164
42.3687
32.322
24.4676
18.3772
13.6938
10.1227
7.42272
5.39888
3.89491
2.78692
1.97775
1.39196
0.971571
0.672526
0.461658
0.31427
0.212152
0.142019
0.0942746
0.0620561
0.0405049
0.0262153
0.0168234
0.0107047
0.00675338
0.00422412
0.00261938
0.00161023
0.000981248
0.000592708
0.00035485
0.000210549
0.000123804
7.21345e-05
4.16429e-05
2.38168e-05
1.34936e-05
7.57227e-06
4.20855e-06
2.31633e-06
1.2624e-06
6.81175e-07
3.63861e-07
1.92394e-07
1.00706e-07
5.21676e-08
2.6727e-08
1.3515e-08
6.75803e-09
3.30822e-09
1.47739e-09
4.30266e-10
1466.02
2581.57
2697.2
2451.8
2119.63
1797.17
1511.86
1267.27
1059.71
884.026
735.365
609.584
503.255
413.541
338.066
274.818
222.064
178.303
142.22
112.661
88.6152
69.196
53.6318
41.2546
31.4904
23.8503
17.9218
13.3599
9.87949
7.24679
5.2725
3.80476
2.72309
1.93289
1.36066
0.94991
0.657647
0.451518
0.307412
0.207552
0.138958
0.0922537
0.0607328
0.0396455
0.0256617
0.0164698
0.0104807
0.0066127
0.00413651
0.00256529
0.00157713
0.000961167
0.000580636
0.000347657
0.000206304
0.000121321
7.0696e-05
4.08175e-05
2.33479e-05
1.32297e-05
7.42529e-06
4.12751e-06
2.27209e-06
1.23845e-06
6.68344e-07
3.57098e-07
1.88856e-07
9.88613e-08
5.12093e-08
2.6255e-08
1.33119e-08
6.65485e-09
3.24675e-09
1.43459e-09
4.20388e-10
663.811
1492.81
1808.04
1818.26
1685.58
1500.33
1306.16
1122.1
955.346
807.738
678.808
567.178
471.182
389.129
319.406
260.518
211.095
169.892
135.779
107.741
84.869
66.3545
51.4862
39.6425
30.2857
22.9553
17.2609
12.8751
9.52611
6.99101
5.08865
3.67357
2.63016
1.86755
1.31507
0.91834
0.635955
0.43673
0.29741
0.20084
0.13449
0.0893038
0.0588009
0.0383906
0.0248533
0.0159533
0.0101535
0.00640711
0.00400846
0.00248622
0.00152873
0.0009318
0.000562976
0.000337134
0.00020009
0.000117686
6.85898e-05
3.96087e-05
2.26608e-05
1.2843e-05
7.2098e-06
4.00863e-06
2.2072e-06
1.20339e-06
6.49604e-07
3.47165e-07
1.83648e-07
9.61491e-08
4.98132e-08
2.55405e-08
1.29398e-08
6.47265e-09
3.14906e-09
1.40495e-09
3.85264e-10
360.844
919.697
1226.94
1331.75
1309.21
1218.38
1097.01
966.799
839.364
720.481
612.685
516.754
432.538
359.406
296.495
242.842
197.462
159.39
127.708
101.556
80.1466
62.7644
48.7701
37.5983
28.7559
21.8173
16.4196
12.2572
9.07541
6.66452
4.85383
3.5059
2.51132
1.78395
1.25671
0.877909
0.608165
0.417777
0.284587
0.192233
0.128759
0.0855187
0.0563212
0.0367794
0.023815
0.0152898
0.00973304
0.00614293
0.00384387
0.00238457
0.00146649
0.000894025
0.000540255
0.00032359
0.000192091
0.000113005
6.58765e-05
3.80508e-05
2.17749e-05
1.23443e-05
6.93176e-06
3.8552e-06
2.12339e-06
1.15809e-06
6.25369e-07
3.34317e-07
1.76925e-07
9.26664e-08
4.80372e-08
2.46283e-08
1.24799e-08
6.22569e-09
3.01845e-09
1.36324e-09
3.87459e-10
221.316
599.984
851.21
976.593
1006.06
972.72
903.105
815.626
722.07
629.555
542.137
461.941
389.899
326.216
270.662
222.753
181.865
147.31
118.381
94.381
74.6506
58.5745
45.5924
35.2018
26.9592
20.4786
15.4286
11.5285
8.54323
6.27863
4.57602
3.30738
2.37052
1.68484
1.18748
0.829923
0.575164
0.395261
0.269346
0.181999
0.121942
0.081015
0.0533699
0.0348612
0.0225786
0.0144995
0.00923203
0.00582803
0.00364763
0.00226332
0.00139223
0.000848945
0.000513131
0.000307417
0.000182535
0.000107411
6.26325e-05
3.61875e-05
2.07149e-05
1.17471e-05
6.59869e-06
3.67128e-06
2.02286e-06
1.10369e-06
5.96253e-07
3.18915e-07
1.68849e-07
8.84866e-08
4.59046e-08
2.35658e-08
1.19827e-08
5.97543e-09
2.89112e-09
1.30726e-09
3.75385e-10
146.329
409.421
604.114
721.152
770.398
768.81
733.165
677.108
610.634
540.599
471.458
405.958
345.66
291.334
243.222
201.226
165.029
134.19
108.197
86.5128
68.6008
53.9474
42.0733
32.5413
24.9602
18.9864
14.3221
10.7137
7.94741
5.84608
4.26431
3.08442
2.21224
1.57334
1.10954
0.775868
0.537968
0.369868
0.252149
0.170446
0.114244
0.0759267
0.0500342
0.0326924
0.0211801
0.0136052
0.00866497
0.00547149
0.00342536
0.00212595
0.00130806
0.000797831
0.000482364
0.000289064
0.000171687
0.000101058
5.89463e-05
3.4069e-05
1.95091e-05
1.10674e-05
6.21933e-06
3.46165e-06
1.90818e-06
1.04163e-06
5.63024e-07
3.01304e-07
1.5961e-07
8.36999e-08
4.34525e-08
2.23453e-08
1.13834e-08
5.69554e-09
2.77368e-09
1.23372e-09
3.43554e-10
101.449
288.87
437.309
537.091
590.009
604.119
589.398
555.213
509.272
457.418
403.833
351.36
301.826
256.312
215.367
179.168
147.643
120.551
97.5514
78.247
62.2187
49.0485
38.3358
29.7078
22.8262
17.39
13.1362
9.83885
7.30678
5.38038
3.92831
2.84382
2.04128
1.4528
1.02521
0.717336
0.497664
0.342337
0.233493
0.157907
0.105884
0.0703982
0.0464082
0.0303338
0.0196586
0.0126319
0.00804755
0.00508313
0.00318317
0.00197621
0.00121628
0.000742067
0.000448784
0.000269023
0.000159835
9.41129e-05
5.49147e-05
3.17506e-05
1.81886e-05
1.03226e-05
5.80334e-06
3.23161e-06
1.78223e-06
9.73378e-07
5.26396e-07
2.81855e-07
1.49424e-07
7.84039e-08
4.07271e-08
2.09371e-08
1.0648e-08
5.35418e-09
2.63428e-09
1.16347e-09
3.17211e-10
72.5555
208.807
321.628
403.245
452.573
473.088
470.475
450.879
419.909
382.203
341.35
299.984
259.934
222.398
188.09
157.364
130.317
106.864
86.8044
69.8597
55.7139
44.036
34.4986
26.7901
20.623
15.738
11.9063
8.93001
6.64013
4.89505
3.57767
2.59244
1.86246
1.32659
0.936835
0.655946
0.45536
0.313419
0.213885
0.144719
0.0970864
0.0645776
0.0425887
0.0278481
0.0180544
0.0116052
0.00739597
0.00467312
0.00292735
0.00181797
0.00111925
0.000683085
0.000413248
0.000247804
0.000147279
8.67516e-05
5.06387e-05
2.92901e-05
1.67862e-05
9.53098e-06
5.36083e-06
2.98671e-06
1.64808e-06
9.00582e-07
4.87295e-07
2.61071e-07
1.385e-07
7.27303e-08
3.77965e-08
1.94278e-08
9.88844e-09
4.98538e-09
2.45098e-09
1.10969e-09
3.18309e-10
52.9914
153.571
239.432
304.792
347.787
369.653
373.517
363.294
342.917
315.906
285.173
252.993
221.047
190.514
162.163
136.442
113.555
93.5301
76.2698
61.5943
49.2737
39.053
30.6703
23.87
18.4117
14.0758
10.6662
8.01172
5.96533
4.403
3.22166
2.33687
1.68044
1.19799
0.846695
0.593272
0.412134
0.283847
0.19382
0.131214
0.0880721
0.0586099
0.0386706
0.0252969
0.016407
0.0105503
0.00672621
0.00425145
0.00266414
0.00165508
0.00101931
0.000622306
0.00037661
0.000225915
0.000134319
7.91484e-05
4.62192e-05
2.67452e-05
1.53346e-05
8.71088e-06
4.90201e-06
2.73254e-06
1.50868e-06
8.2491e-07
4.46646e-07
2.3944e-07
1.27088e-07
6.67922e-08
3.47319e-08
1.78813e-08
9.11901e-09
4.56828e-09
2.22048e-09
1.03066e-09
3.01845e-10
39.2612
114.334
179.828
231.551
267.647
288.318
295.217
290.787
277.726
258.623
235.755
210.996
185.807
161.268
138.129
116.867
97.7459
80.8647
66.2018
53.6522
43.0559
34.2218
26.9448
21.0189
16.2464
12.4438
9.44578
7.10613
5.29861
3.91601
2.86876
2.08318
1.49953
1.07001
0.756898
0.530775
0.368991
0.254308
0.17376
0.117704
0.0790477
0.0526317
0.0347431
0.0227381
0.0147539
0.00949122
0.00605338
0.00382764
0.00239945
0.00149118
0.000918703
0.000561087
0.000339685
0.000203841
0.000121242
7.14711e-05
4.17535e-05
2.41717e-05
1.38655e-05
7.8802e-06
4.43685e-06
2.4746e-06
1.36704e-06
7.47946e-07
4.05257e-07
2.17394e-07
1.15439e-07
6.07059e-08
3.16004e-08
1.62908e-08
8.28811e-09
4.14351e-09
2.02401e-09
9.05534e-10
2.54647e-10
29.3721
85.8377
135.894
176.523
206.128
224.477
232.396
231.385
223.268
209.913
193.05
174.178
154.514
135
116.323
98.949
83.1613
69.0992
56.7919
46.1889
37.185
29.6407
23.3987
18.2959
14.1721
10.8763
8.27065
6.23222
4.65393
3.44426
2.52635
1.83666
1.32349
0.945332
0.669314
0.469754
0.326826
0.225412
0.154121
0.104467
0.0701993
0.046766
0.0308871
0.0202244
0.0131288
0.0084495
0.00539124
0.00341032
0.00213867
0.00132962
0.000819472
0.00050067
0.000303222
0.00018203
0.000108311
6.38746e-05
3.73315e-05
2.16213e-05
1.24083e-05
7.05557e-06
3.97464e-06
2.21803e-06
1.22604e-06
6.71212e-07
3.63887e-07
1.9535e-07
1.03826e-07
5.46295e-08
2.84634e-08
1.4674e-08
7.45282e-09
3.73519e-09
1.82644e-09
7.99066e-10
2.29402e-10
22.1134
64.7966
103.097
134.84
158.741
174.414
182.235
183.114
178.271
169.032
156.694
142.422
127.204
111.833
96.909
82.8609
69.9671
58.3838
48.1705
39.3145
31.7515
25.3829
20.0903
15.7467
12.2242
9.40022
7.1613
5.40536
4.04271
2.99616
2.20055
1.60174
1.1555
0.82619
0.58552
0.411308
0.286399
0.197682
0.135257
0.0917417
0.0616866
0.0411189
0.0271721
0.017801
0.0115612
0.00744401
0.00475174
0.00300703
0.00188652
0.00117331
0.000723411
0.000442147
0.00026788
0.000160875
9.57615e-05
5.64964e-05
3.30332e-05
1.91403e-05
1.09896e-05
6.25192e-06
3.52374e-06
1.96748e-06
1.08817e-06
5.96093e-07
3.23373e-07
1.73735e-07
9.24249e-08
4.86475e-08
2.53616e-08
1.30715e-08
6.64498e-09
3.32359e-09
1.62338e-09
7.4638e-10
2.3489e-10
16.7119
49.0698
78.3802
103.072
122.141
135.186
142.341
144.152
141.427
135.104
126.137
115.418
103.731
91.7254
79.9102
68.662
58.2388
48.7974
40.4128
33.0966
26.8138
21.4972
17.0597
13.4036
10.4282
8.0354
6.13297
4.63712
3.47363
2.57816
1.8961
1.38186
0.998025
0.71436
0.506769
0.356318
0.248322
0.171536
0.117456
0.0797226
0.0536397
0.0357767
0.0236553
0.0155052
0.0100752
0.00649026
0.00414477
0.00262404
0.00164691
0.00102469
0.000632019
0.000386433
0.000234213
0.00014071
8.37901e-05
4.94532e-05
2.8927e-05
1.67682e-05
9.63202e-06
5.48219e-06
3.09143e-06
1.72702e-06
9.55713e-07
5.23863e-07
2.8439e-07
1.52878e-07
8.13664e-08
4.28642e-08
2.2342e-08
1.15107e-08
5.86896e-09
2.97564e-09
1.473e-09
6.8162e-10
2.00864e-10
12.653
37.2124
59.6255
78.7535
93.8261
104.479
110.726
112.889
111.501
107.219
100.741
92.7402
83.8274
74.5232
65.2484
56.324
47.9786
40.3595
33.5464
27.5654
22.4014
18.0107
14.3301
11.286
8.80014
6.79473
5.19579
3.93535
2.95266
2.19475
1.61635
1.17948
0.852872
0.611136
0.433986
0.305433
0.213048
0.147292
0.100932
0.0685566
0.0461578
0.0308056
0.0203803
0.0133659
0.00868953
0.0056003
0.00357805
0.00226622
0.00142291
0.000885663
0.000546475
0.000334253
0.000202661
0.000121798
7.25554e-05
4.28386e-05
2.50675e-05
1.45369e-05
8.35387e-06
4.75687e-06
2.6837e-06
1.49999e-06
8.30509e-07
4.55478e-07
2.47421e-07
1.33081e-07
7.08743e-08
3.73728e-08
1.94926e-08
1.00673e-08
5.14234e-09
2.60574e-09
1.28751e-09
6.02592e-10
1.67935e-10
9.58276
28.2195
45.3304
60.0872
71.9057
80.4775
85.761
87.9405
87.3684
84.5027
79.8482
73.9095
67.1557
59.9972
52.7746
45.7546
39.1334
33.043
27.5612
22.7207
18.5197
14.9311
11.9103
9.40251
7.34759
5.68472
4.35517
3.30441
2.48329
1.84864
1.36334
0.996151
0.721177
0.517349
0.367769
0.259083
0.180882
0.125159
0.0858339
0.0583441
0.0393088
0.0262514
0.0173777
0.011403
0.00741727
0.00478266
0.00305704
0.00193705
0.00121672
0.000757616
0.000467638
0.000286133
0.000173546
0.000104336
6.21745e-05
3.67222e-05
2.14962e-05
1.24705e-05
7.16914e-06
4.08392e-06
2.30505e-06
1.28895e-06
7.13999e-07
3.91757e-07
2.1292e-07
1.14601e-07
6.10791e-08
3.2225e-08
1.68407e-08
8.71508e-09
4.46072e-09
2.24243e-09
1.09652e-09
5.10392e-10
1.59155e-10
7.2506
21.3745
34.4061
45.7418
54.9419
61.7554
66.1198
68.1377
68.0405
66.1466
62.8201
58.435
53.3478
47.8778
42.2958
36.8188
31.6111
26.787
22.4177
18.5381
15.1543
12.2508
9.79679
7.75202
6.07095
4.70646
3.61246
2.74566
2.06673
1.54085
1.13796
0.832557
0.603477
0.433408
0.308425
0.217492
0.151985
0.105255
0.0722418
0.0491418
0.033132
0.0221407
0.0146654
0.00962866
0.00626637
0.00404252
0.00258511
0.00163871
0.00102973
0.000641416
0.000396052
0.000242413
0.000147076
8.84499e-05
5.27243e-05
3.11504e-05
1.82405e-05
1.05853e-05
6.08739e-06
3.46894e-06
1.95867e-06
1.0957e-06
6.07231e-07
3.33331e-07
1.81233e-07
9.75859e-08
5.20457e-08
2.74843e-08
1.43711e-08
7.4177e-09
3.79227e-09
1.93181e-09
9.45049e-10
4.02826e-10
1.10859e-10
5.47527
16.1552
26.0494
34.7177
41.8308
47.1899
50.7291
52.5027
52.6622
51.4287
49.0633
45.8415
42.0317
37.8792
33.5962
29.3567
25.2948
21.5071
18.0563
14.976
12.2766
9.95032
7.97657
6.32609
4.96476
3.85653
2.96557
2.25789
1.70231
1.27107
0.940038
0.688659
0.499786
0.35935
0.255998
0.180703
0.126395
0.0876095
0.0601795
0.0409677
0.0276404
0.018483
0.0122501
0.00804738
0.00523999
0.00338201
0.00216369
0.00137213
0.000862539
0.000537463
0.000331973
0.000203254
0.000123353
7.4204e-05
4.42445e-05
2.61474e-05
1.53151e-05
8.89005e-06
5.11398e-06
2.91512e-06
1.64649e-06
9.21364e-07
5.10785e-07
2.80519e-07
1.5258e-07
8.21962e-08
4.38696e-08
2.3197e-08
1.21265e-08
6.27288e-09
3.2226e-09
1.63655e-09
8.12237e-10
3.33676e-10
7.79308e-11
4.12309
12.1745
19.6591
26.2558
31.7192
35.8945
38.7211
40.2252
40.5058
39.716
38.0424
35.6868
32.8495
29.7171
26.454
23.1972
20.0546
17.106
14.4046
11.9812
9.84789
8.00192
6.42981
5.11067
4.01922
3.12812
2.40983
1.83789
1.38787
1.03784
0.768624
0.563822
0.40969
0.294909
0.210317
0.148608
0.104043
0.0721799
0.0496215
0.033806
0.0228247
0.0152728
0.0101286
0.00665743
0.00433716
0.00280062
0.00179251
0.00113719
0.000715108
0.000445741
0.000275402
0.000168663
0.000102386
6.16058e-05
3.6741e-05
2.17178e-05
1.27233e-05
7.38718e-06
4.25041e-06
2.42341e-06
1.36911e-06
7.66328e-07
4.24946e-07
2.33448e-07
1.27002e-07
6.84507e-08
3.6532e-08
1.93082e-08
1.01178e-08
5.2532e-09
2.7166e-09
1.34787e-09
6.62961e-10
2.94161e-10
6.80523e-11
3.09401
9.14157
14.7798
19.7744
23.9434
27.168
29.3961
30.6381
30.9585
30.4631
29.285
27.5709
25.4695
23.1213
20.6522
18.1689
15.7568
13.4803
11.3838
9.49422
7.82367
6.37249
5.13217
4.08801
3.22145
2.51199
1.93862
1.481
1.12013
0.838865
0.622125
0.456953
0.332442
0.239579
0.171041
0.120978
0.0847787
0.058867
0.0405025
0.0276145
0.0186575
0.0124926
0.00828979
0.00545184
0.00355354
0.00229567
0.00146993
0.000932886
0.000586831
0.000365892
0.000226126
0.000138518
8.41044e-05
5.06151e-05
3.01914e-05
1.78491e-05
1.04584e-05
6.07308e-06
3.49484e-06
1.99292e-06
1.12608e-06
6.30417e-07
3.49645e-07
1.92117e-07
1.04541e-07
5.63506e-08
3.00736e-08
1.59078e-08
8.32762e-09
4.32571e-09
2.20402e-09
1.10091e-09
5.54297e-10
2.45866e-10
7.02475e-11
2.31232
6.83565
11.0633
14.8246
17.9852
20.455
22.1909
23.1951
23.5093
23.2066
22.3814
21.1402
19.5923
17.8428
15.9872
14.1074
12.2703
10.5269
8.91365
7.45313
6.15668
5.0263
4.05685
3.23816
2.55674
1.99735
1.54414
1.18157
0.895047
0.671277
0.49852
0.366637
0.267059
0.192679
0.137706
0.0974971
0.0683883
0.0475278
0.0327275
0.0223305
0.0150981
0.0101158
0.00671661
0.00441962
0.00288215
0.00186276
0.0011932
0.000757528
0.000476667
0.000297283
0.000183766
0.000112591
6.8373e-05
4.11532e-05
2.45501e-05
1.45153e-05
8.50568e-06
4.93951e-06
2.84272e-06
1.62117e-06
9.16103e-07
5.12928e-07
2.84505e-07
1.56316e-07
8.50917e-08
4.58771e-08
2.45087e-08
1.29903e-08
6.79974e-09
3.52994e-09
1.78802e-09
9.14315e-10
4.55511e-10
1.97571e-10
7.24428e-11
1.72023
5.08766
8.24165
11.0583
13.4388
15.3153
16.6535
17.4513
17.7357
17.5569
16.982
16.0875
14.9535
13.6581
12.2729
10.8602
9.47167
8.14733
6.91616
5.79695
4.79967
3.92708
3.1763
2.54036
2.00958
1.57271
1.21791
0.933439
0.708155
0.531869
0.395523
0.291258
0.212407
0.153422
0.109765
0.0777922
0.0546174
0.0379905
0.0261814
0.0178774
0.0120957
0.00810935
0.00538753
0.00354694
0.00231415
0.00149629
0.000958815
0.000608916
0.000383259
0.000239081
0.000147816
9.05777e-05
5.50107e-05
3.31129e-05
1.97545e-05
1.16801e-05
6.84433e-06
3.97467e-06
2.28738e-06
1.30444e-06
7.371e-07
4.1269e-07
2.28907e-07
1.25768e-07
6.8454e-08
3.69173e-08
1.97352e-08
1.04383e-08
5.4804e-09
2.84173e-09
1.48069e-09
7.54063e-10
3.42457e-10
1.6135e-10
3.29285e-11
1.27336
3.76752
6.10793
8.20479
9.98585
11.4005
12.4219
13.0463
13.2909
13.1903
12.7918
12.1504
11.3243
10.371
9.3438
8.28977
7.2482
6.25008
5.31822
4.46779
3.7073
3.03968
2.46349
1.97403
1.56442
1.22645
0.951327
0.730258
0.55483
0.417295
0.310731
0.229105
0.167278
0.120959
0.0866306
0.0614568
0.0431882
0.0300665
0.0207371
0.0141704
0.00959413
0.00643628
0.00427844
0.0028182
0.00183954
0.00118989
0.000762735
0.000484532
0.000305042
0.000190324
0.000117687
7.2122e-05
4.38041e-05
2.63675e-05
1.57299e-05
9.30004e-06
5.44921e-06
3.16418e-06
1.82075e-06
1.03821e-06
5.86607e-07
3.2838e-07
1.8212e-07
1.00059e-07
5.44627e-08
2.93733e-08
1.56652e-08
8.26177e-09
4.329e-09
2.26438e-09
1.17116e-09
5.93811e-10
2.86478e-10
1.30616e-10
2.63428e-11
0.937526
2.77485
4.50169
6.05324
7.37687
8.43519
9.20747
9.68958
9.89254
9.84005
9.56533
9.10769
8.50929
7.81209
7.05551
6.27467
5.49922
4.75285
4.05324
3.41244
2.83747
2.33114
1.89288
1.51957
1.20637
0.947329
0.73599
0.565816
0.430509
0.324234
0.241747
0.178461
0.130452
0.0944333
0.0677027
0.0480757
0.0338154
0.0235614
0.0162633
0.0111214
0.00753486
0.00505789
0.00336403
0.00221698
0.00144773
0.000936797
0.00060069
0.00038169
0.000240345
0.000149979
9.27474e-05
5.68404e-05
3.45222e-05
2.07791e-05
1.23949e-05
7.32728e-06
4.29258e-06
2.49209e-06
1.4337e-06
8.17327e-07
4.61696e-07
2.58412e-07
1.43285e-07
7.87123e-08
4.28554e-08
2.30873e-08
1.2301e-08
6.4968e-09
3.40042e-09
1.76168e-09
9.00046e-10
4.54414e-10
2.44769e-10
1.28421e-10
5.26856e-11
0.686349
2.03205
3.29862
4.43947
5.41646
6.20216
6.78085
7.14862
7.31247
7.28858
7.10025
6.77543
6.34442
5.83771
5.2842
4.70986
4.13684
3.58305
3.06203
2.58317
2.15216
1.77147
1.44105
1.15888
0.921569
0.724845
0.564005
0.434232
0.330853
0.24951
0.186268
0.13767
0.100749
0.0730095
0.0523961
0.0372419
0.0262186
0.0182834
0.01263
0.00864299
0.00585953
0.00393564
0.00261901
0.00172681
0.0011281
0.000730225
0.000468365
0.000297674
0.000187471
0.000116996
7.23534e-05
4.43409e-05
2.69285e-05
1.62064e-05
9.66555e-06
5.71256e-06
3.34578e-06
1.94186e-06
1.1168e-06
6.36467e-07
3.59384e-07
2.01067e-07
1.11458e-07
6.12152e-08
3.32918e-08
1.79274e-08
9.57671e-09
5.07209e-09
2.65294e-09
1.35995e-09
7.16744e-10
3.94045e-10
2.09645e-10
1.08664e-10
3.18309e-11
0.499478
1.47919
2.40245
3.23589
3.95206
4.53094
4.96078
5.2382
5.36756
5.35993
5.23155
5.00222
4.69359
4.32766
3.92544
3.506
3.08573
2.67801
2.29308
1.93818
1.61778
1.33401
1.08708
0.875682
0.697481
0.549439
0.428153
0.330105
0.251856
0.19018
0.14215
0.105186
0.0770613
0.0559026
0.0401589
0.0285706
0.0201315
0.0140501
0.00971297
0.00665146
0.00451224
0.00303246
0.00201902
0.00133181
0.000870384
0.000563585
0.000361573
0.000229844
0.000144769
9.03513e-05
5.58749e-05
3.42396e-05
2.0791e-05
1.25102e-05
7.45923e-06
4.40724e-06
2.58038e-06
1.49706e-06
8.60651e-07
4.90265e-07
2.7671e-07
1.5473e-07
8.57316e-08
4.70274e-08
2.55591e-08
1.37707e-08
7.34087e-09
3.89215e-09
2.05254e-09
1.06359e-09
5.45516e-10
2.9965e-10
1.45983e-10
5.70761e-11
1.97571e-11
0.361239
1.07005
1.73877
2.34362
2.86492
3.28819
3.60475
3.8118
3.91205
3.91303
3.82603
3.665
3.44531
3.18274
2.89245
2.58832
2.28237
1.98451
1.70239
1.4415
1.20532
0.995591
0.812637
0.655655
0.523033
0.412628
0.322
0.2486
0.189919
0.143589
0.107454
0.0796019
0.0583811
0.0423947
0.0304847
0.0217077
0.0153088
0.0106928
0.00739749
0.00506925
0.00344102
0.00231383
0.00154131
0.00101713
0.000664968
0.0004307
0.00027638
0.000175714
0.000110683
6.90784e-05
4.27164e-05
2.61726e-05
1.58893e-05
9.55819e-06
5.69721e-06
3.36487e-06
1.9692e-06
1.14191e-06
6.56135e-07
3.73539e-07
2.10714e-07
1.1776e-07
6.51886e-08
3.57373e-08
1.94267e-08
1.04548e-08
5.56273e-09
2.93503e-09
1.54215e-09
7.91382e-10
3.9624e-10
1.80009e-10
9.21999e-11
5.26856e-11
3.62214e-11
0.25959
0.769115
1.2503
1.68627
2.06304
2.37019
2.60137
2.75434
2.83078
2.83579
2.77719
2.66474
2.50931
2.32213
2.11406
1.89513
1.67406
1.45813
1.253
1.06277
0.890109
0.736416
0.602031
0.48647
0.38864
0.307038
0.239929
0.18548
0.141877
0.107396
0.080462
0.0596719
0.0438101
0.0318453
0.0229205
0.0163359
0.0115301
0.00805967
0.00557985
0.00382621
0.00259879
0.00174843
0.00116522
0.000769253
0.000503081
0.000325929
0.000209188
0.00013301
8.37864e-05
5.22896e-05
3.23307e-05
1.98054e-05
1.20206e-05
7.2285e-06
4.30683e-06
2.54248e-06
1.48713e-06
8.61848e-07
4.94889e-07
2.8155e-07
1.58697e-07
8.86392e-08
4.90284e-08
2.6896e-08
1.45961e-08
7.83479e-09
4.17204e-09
2.20072e-09
1.15579e-09
6.01494e-10
3.00747e-10
1.1964e-10
6.69547e-11
3.95142e-11
7.68332e-12
0.185317
0.549164
0.893077
1.20517
1.47552
1.69672
1.86414
1.97607
2.03352
2.03993
2.00069
1.92261
1.81332
1.68076
1.53266
1.37619
1.21766
1.06233
0.914348
0.776765
0.651584
0.539898
0.44203
0.357698
0.286164
0.226386
0.177136
0.13711
0.105005
0.079578
0.0596869
0.044312
0.0325662
0.0236951
0.01707
0.0121766
0.00860137
0.00601701
0.00416859
0.0028603
0.00194386
0.00130847
0.000872407
0.000576159
0.000376914
0.000244246
0.000156785
9.96976e-05
6.28018e-05
3.919e-05
2.42271e-05
1.48375e-05
9.00241e-06
5.41133e-06
3.22258e-06
1.90137e-06
1.11145e-06
6.43684e-07
3.69336e-07
2.09947e-07
1.1823e-07
6.59789e-08
3.64804e-08
1.99931e-08
1.08291e-08
5.79871e-09
3.07882e-09
1.64313e-09
8.56142e-10
4.52218e-10
2.08547e-10
1.00981e-10
5.26856e-11
5.48809e-12
-1.4269e-11
0.131404
0.389466
0.633583
0.855425
1.04801
1.20609
1.32635
1.40747
1.45008
1.45649
1.43038
1.37648
1.30012
1.20686
1.10218
0.991164
0.878325
0.767448
0.661543
0.562838
0.472827
0.392344
0.321676
0.260662
0.208812
0.165406
0.129584
0.100424
0.0769992
0.0584194
0.0438643
0.0325987
0.0239814
0.0174651
0.0125931
0.00899064
0.00635583
0.00444941
0.00308464
0.00211785
0.00144009
0.00096984
0.000646902
0.00042738
0.000279663
0.000181262
0.000116369
7.40002e-05
4.66122e-05
2.90834e-05
1.79754e-05
1.10053e-05
6.67469e-06
4.01024e-06
2.3869e-06
1.40741e-06
8.2213e-07
4.75745e-07
2.72748e-07
1.54902e-07
8.71431e-08
4.85619e-08
2.68258e-08
1.4673e-08
7.94126e-09
4.24888e-09
2.25012e-09
1.17335e-09
5.90518e-10
3.227e-10
1.60252e-10
1.00981e-10
3.51238e-11
1.20738e-11
0
0.092534
0.274303
0.446374
0.602941
0.739126
0.851234
0.936906
0.99517
1.02639
1.0321
1.01484
0.977853
0.924835
0.859673
0.786203
0.708015
0.628302
0.549767
0.474572
0.40433
0.340136
0.282624
0.232026
0.188261
0.151004
0.119762
0.0939378
0.0728838
0.0559452
0.0424915
0.0319379
0.023759
0.017495
0.0127528
0.00920325
0.00657583
0.00465225
0.00325913
0.00226093
0.00155323
0.00105672
0.000711992
0.000475103
0.000313982
0.000205511
0.000133224
8.55364e-05
5.43937e-05
3.42594e-05
2.13722e-05
1.32059e-05
8.08236e-06
4.89974e-06
2.94227e-06
1.75015e-06
1.03123e-06
6.01918e-07
3.48011e-07
1.99322e-07
1.13096e-07
6.35663e-08
3.53872e-08
1.95069e-08
1.06491e-08
5.76578e-09
3.07223e-09
1.63106e-09
8.33092e-10
4.25876e-10
2.20621e-10
1.25128e-10
5.37833e-11
-3.29285e-12
-1.09762e-12
1.53666e-11
0.0647056
0.191837
0.312264
0.421965
0.517554
0.596448
0.656986
0.698454
0.721061
0.725838
0.714499
0.689269
0.652697
0.607477
0.556278
0.501614
0.445728
0.390531
0.337561
0.287976
0.24257
0.201813
0.165891
0.134767
0.108226
0.0859356
0.0674822
0.0524156
0.0402771
0.0306229
0.0230401
0.0171562
0.0126446
0.00922526
0.00666307
0.00476458
0.00337331
0.00236479
0.00164154
0.00112836
0.000768063
0.000517732
0.000345606
0.000228471
0.000149575
9.69774e-05
6.22683e-05
3.95962e-05
2.49364e-05
1.55529e-05
9.6072e-06
5.87756e-06
3.56136e-06
2.13731e-06
1.27044e-06
7.48016e-07
4.36232e-07
2.52003e-07
1.44192e-07
8.17418e-08
4.5898e-08
2.55273e-08
1.40418e-08
7.63064e-09
4.11826e-09
2.19633e-09
1.16018e-09
6.12471e-10
3.2709e-10
1.43788e-10
7.24428e-11
1.97571e-11
-6.5857e-12
-1.53666e-11
-6.5857e-12
0.0449242
0.133207
0.216883
0.293185
0.359778
0.414871
0.457301
0.486554
0.502747
0.506564
0.499163
0.482059
0.456997
0.425832
0.39041
0.352473
0.313589
0.275095
0.238077
0.203355
0.171501
0.142857
0.117568
0.0956214
0.0768779
0.0611118
0.0480411
0.0373545
0.0287333
0.0218678
0.0164686
0.0122743
0.00905449
0.00661154
0.00477911
0.00342
0.00242308
0.00169977
0.00118063
0.00081199
0.000552983
0.000372911
0.000249021
0.000164668
0.000107827
6.99183e-05
4.48956e-05
2.85474e-05
1.79755e-05
1.12087e-05
6.92138e-06
4.23254e-06
2.56321e-06
1.53727e-06
9.13112e-07
5.37162e-07
3.12964e-07
1.80629e-07
1.03274e-07
5.84844e-08
3.281e-08
1.82281e-08
1.00311e-08
5.44638e-09
2.94052e-09
1.58276e-09
8.30896e-10
4.4673e-10
2.305e-10
1.1964e-10
5.1588e-11
2.63428e-11
1.31714e-11
9.87856e-12
-3.07333e-11
0.0309651
0.0918265
0.149543
0.202224
0.248266
0.286441
0.315939
0.336394
0.347871
0.350821
0.346021
0.334497
0.317438
0.296109
0.271778
0.245646
0.218797
0.192161
0.166494
0.142376
0.120211
0.100247
0.0825936
0.0672495
0.0541258
0.0430712
0.033894
0.0263809
0.0203122
0.0154735
0.0116638
0.00870082
0.00642388
0.00469449
0.00339601
0.00243201
0.00172427
0.00121033
0.000841168
0.000578829
0.000394381
0.000266064
0.000177731
0.000117558
7.69926e-05
4.99295e-05
3.20609e-05
2.03847e-05
1.28335e-05
8.0002e-06
4.93829e-06
3.01839e-06
1.82687e-06
1.09491e-06
6.49841e-07
3.81916e-07
2.22305e-07
1.2817e-07
7.31924e-08
4.13846e-08
2.3196e-08
1.2863e-08
7.06866e-09
3.84605e-09
2.07999e-09
1.12616e-09
5.99299e-10
3.16114e-10
1.51471e-10
9.32975e-11
6.5857e-11
4.39047e-11
6.58571e-12
1.31714e-11
-7.68332e-12
0.0211874
0.0628376
0.102355
0.138455
0.170048
0.196293
0.216634
0.230815
0.238866
0.241086
0.237993
0.230278
0.218744
0.204249
0.187659
0.169792
0.151395
0.133106
0.115452
0.0988338
0.083537
0.0697375
0.0575173
0.0468804
0.0377702
0.0300861
0.0236988
0.0184632
0.0142292
0.0108493
0.0081853
0.00611116
0.00451558
0.00330251
0.00239082
0.00171336
0.00121556
0.000853774
0.000593699
0.000408748
0.000278623
0.000188042
0.000125653
8.31318e-05
5.4455e-05
3.53169e-05
2.26777e-05
1.44174e-05
9.07488e-06
5.65545e-06
3.48955e-06
2.13182e-06
1.2895e-06
7.72313e-07
4.57991e-07
2.68938e-07
1.56391e-07
9.0065e-08
5.13465e-08
2.89936e-08
1.62173e-08
8.99058e-09
4.94916e-09
2.69136e-09
1.42361e-09
7.71625e-10
4.31364e-10
2.10743e-10
1.04274e-10
5.1588e-11
3.51238e-11
3.18309e-11
1.4269e-11
-1.4269e-11
1.4269e-11
0.0143901
0.0426822
0.0695374
0.0940894
0.115602
0.133504
0.147418
0.157163
0.162755
0.164389
0.162409
0.157277
0.149531
0.139751
0.128521
0.116398
0.103887
0.0914289
0.0793818
0.0680238
0.0575531
0.0480937
0.0397053
0.032394
0.0261239
0.0208288
0.0164221
0.0128057
0.00987773
0.00753797
0.00569179
0.00425293
0.00314497
0.00230182
0.00166757
0.00119586
0.000848952
0.000596634
0.000415114
0.000285937
0.000194994
0.00013165
8.79971e-05
5.82322e-05
3.81505e-05
2.47443e-05
1.58884e-05
1.00999e-05
6.35599e-06
3.9598e-06
2.44227e-06
1.49124e-06
9.01444e-07
5.39481e-07
3.19634e-07
1.87521e-07
1.08935e-07
6.26586e-08
3.56901e-08
2.0127e-08
1.12363e-08
6.22788e-09
3.42566e-09
1.86814e-09
9.90051e-10
5.16978e-10
2.83185e-10
1.53666e-10
9.43951e-11
4.17095e-11
-1.09762e-12
1.09762e-12
5.48809e-12
-1.75619e-11
1.20738e-11
0.00970052
0.0287751
0.0468881
0.0634595
0.0779949
0.090111
0.0995508
0.106191
0.110037
0.111217
0.109958
0.106565
0.101399
0.0948471
0.0873014
0.079137
0.0706959
0.0622752
0.0541198
0.0464196
0.039311
0.0328804
0.0271705
0.0221875
0.0179091
0.0142918
0.0112779
0.00880183
0.00679502
0.0051897
0.00392176
0.00293261
0.00217023
0.00158954
0.00115234
0.000826912
0.00058739
0.000413046
0.000287532
0.00019815
0.000135184
9.13018e-05
6.10454e-05
4.04057e-05
2.64752e-05
1.71727e-05
1.10263e-05
7.00831e-06
4.40941e-06
2.74618e-06
1.69299e-06
1.03317e-06
6.24113e-07
3.73201e-07
2.20913e-07
1.29448e-07
7.51231e-08
4.31627e-08
2.45625e-08
1.38366e-08
7.70418e-09
4.2368e-09
2.31927e-09
1.24909e-09
6.79425e-10
3.36969e-10
1.69033e-10
1.10859e-10
8.34189e-11
5.70761e-11
2.08547e-11
-3.29285e-12
4.39047e-12
7.68332e-12
-1.09762e-12
0.00648999
0.019253
0.0313772
0.0424765
0.0522218
0.060357
0.0667094
0.0711949
0.0738155
0.0746531
0.0738567
0.0716285
0.0682068
0.0638492
0.0588167
0.05336
0.0477085
0.0420616
0.0365848
0.0314066
0.02662
0.0222847
0.0184306
0.0150633
0.0121689
0.00971906
0.00767575
0.00599537
0.00463208
0.00354048
0.00267748
0.00200363
0.0014838
0.00108752
0.000788916
0.000566473
0.000402626
0.000283277
0.000197295
0.000136026
9.28382e-05
6.27234e-05
4.19492e-05
2.77717e-05
1.81994e-05
1.18053e-05
7.57969e-06
4.817e-06
3.02998e-06
1.88644e-06
1.16244e-06
7.0898e-07
4.27998e-07
2.55728e-07
1.51252e-07
8.85547e-08
5.13246e-08
2.94666e-08
1.67431e-08
9.41866e-09
5.23564e-09
2.87466e-09
1.56301e-09
8.23213e-10
4.28071e-10
1.98669e-10
9.87856e-11
5.81737e-11
3.7319e-11
2.96357e-11
2.74404e-11
-5.48809e-12
1.20738e-11
3.07333e-11
7.68332e-12
0.00430906
0.0127841
0.0208375
0.0282145
0.0346973
0.0401162
0.0443562
0.0473605
0.049129
0.0497144
0.0492138
0.0477599
0.0455093
0.042632
0.0393006
0.0356815
0.0319269
0.02817
0.0245214
0.0210674
0.0178709
0.0149724
0.0123928
0.0101366
0.00819529
0.00655048
0.00517728
0.00404691
0.00312899
0.00239335
0.00181125
0.00135634
0.00100512
0.000737159
0.000535087
0.000384442
0.000273399
0.000192457
0.000134106
9.25005e-05
6.31564e-05
4.26838e-05
2.85544e-05
1.89077e-05
1.23921e-05
8.03863e-06
5.16106e-06
3.27945e-06
2.06236e-06
1.28355e-06
7.90578e-07
4.81891e-07
2.90709e-07
1.73564e-07
1.02567e-07
6.00046e-08
3.4744e-08
1.99196e-08
1.12846e-08
6.32447e-09
3.51786e-09
1.92303e-09
1.03396e-09
5.46614e-10
2.59038e-10
1.20738e-10
4.82952e-11
1.86595e-11
-9.87856e-12
-2.63428e-11
-1.31714e-11
8.78094e-12
1.86595e-11