/*--------------------------------*- C++ -*----------------------------------*\
  =========                 |
  \\      /  F ield         | OpenFOAM: The Open Source CFD Toolbox
   \\    /   O peration     | Website:  https://openfoam.org
    \\  /    A nd           | Version:  10
     \\/     M anipulation  |
\*---------------------------------------------------------------------------*/
FoamFile
{
    format      ascii;
    class       volScalarField;
    location    "700";
    object      gradTz;
}
// * * * * * * * * * * * * * * * * * * * * * * * * * * * * * * * * * * * * * //

dimensions      [0 -1 0 1 0 0 0];

internalField   nonuniform List<scalar> 
11250
(
-14335.3
-4131.03
-1511.23
-708.373
-404.564
-264.009
-187.827
-141.604
-111.237
-90.0922
-74.6949
-63.0736
-54.0386
-46.8365
-40.9712
-36.1056
-32.0043
-28.4991
-25.4674
-22.8185
-20.4839
-18.4114
-16.5605
-14.8995
-13.4031
-12.0512
-10.8271
-9.71717
-8.70994
-7.79564
-6.96587
-6.21326
-5.53128
-4.91409
-4.35639
-3.85332
-3.40043
-2.99358
-2.62892
-2.30286
-2.01206
-1.75338
-1.52389
-1.32087
-1.14176
-0.984222
-0.846053
-0.725235
-0.619908
-0.528365
-0.449047
-0.380534
-0.321539
-0.270898
-0.227567
-0.190607
-0.159182
-0.132549
-0.110051
-0.0911077
-0.0752113
-0.0619174
-0.0508398
-0.0416438
-0.0340416
-0.0277863
-0.0226677
-0.0185083
-0.0151593
-0.0124972
-0.0104217
-0.00885243
-0.00772756
-0.00700205
-0.00664651
-8210.13
-4808.56
-2716.68
-1626
-1050.37
-727.592
-533.463
-408.9
-324.44
-264.484
-220.269
-186.6
-160.255
-139.15
-121.897
-107.541
-95.4104
-85.0224
-76.0232
-68.1494
-61.202
-55.0288
-49.5112
-44.5564
-40.0902
-36.0531
-32.3962
-29.0792
-26.0682
-23.3344
-20.8526
-18.6012
-16.5608
-14.7139
-13.0448
-11.5391
-10.1833
-8.96534
-7.87355
-6.89728
-6.0265
-5.25186
-4.56461
-3.95659
-3.42018
-2.94833
-2.53448
-2.17259
-1.8571
-1.58288
-1.34528
-1.14004
-0.963311
-0.811606
-0.681793
-0.571066
-0.476921
-0.397131
-0.329727
-0.272973
-0.225347
-0.185518
-0.152328
-0.124776
-0.101998
-0.0832558
-0.0679196
-0.0554571
-0.0454225
-0.0374464
-0.0312275
-0.0265255
-0.023155
-0.0209812
-0.0199159
-5486.3
-4176.19
-2920.71
-2028.38
-1443.13
-1062.34
-809.357
-635.931
-512.991
-423.003
-355.179
-302.703
-261.144
-227.543
-199.874
-176.716
-157.055
-140.153
-125.464
-112.578
-101.183
-91.039
-81.9581
-73.7924
-66.4239
-59.7568
-53.7127
-48.2266
-43.2435
-38.7167
-34.6055
-30.8745
-27.4919
-24.4292
-21.6606
-19.1625
-16.9127
-14.8912
-13.0788
-11.458
-10.0121
-8.72568
-7.58427
-6.57436
-5.68332
-4.89946
-4.21191
-3.61065
-3.08643
-2.63078
-2.23595
-1.89489
-1.60118
-1.34906
-1.13331
-0.949273
-0.792793
-0.660169
-0.548131
-0.453793
-0.374625
-0.308416
-0.253242
-0.20744
-0.169575
-0.138417
-0.112921
-0.0922026
-0.0755201
-0.0622597
-0.0519206
-0.0441033
-0.0384997
-0.0348856
-0.0331146
-4072.24
-3488.81
-2761.26
-2123.34
-1631.11
-1268.97
-1005.4
-812.206
-668.342
-559.134
-474.544
-407.719
-353.935
-309.892
-273.253
-242.335
-215.91
-193.066
-173.121
-155.557
-139.976
-126.067
-113.588
-102.344
-92.1818
-82.9739
-74.6164
-67.0225
-60.1189
-53.8425
-48.1387
-42.9592
-38.2611
-34.0055
-30.1571
-26.6833
-23.554
-20.7414
-18.2192
-15.963
-13.95
-12.1588
-10.5692
-9.16251
-7.92126
-6.82918
-5.8712
-5.03335
-4.3028
-3.66776
-3.11744
-2.64203
-2.2326
-1.88112
-1.58034
-1.32375
-1.10558
-0.920657
-0.764431
-0.632882
-0.522483
-0.430152
-0.353209
-0.289333
-0.236523
-0.193068
-0.157509
-0.128612
-0.105344
-0.0868482
-0.0724271
-0.0615234
-0.0537074
-0.0486663
-0.046196
-3241.09
-2945.06
-2511.7
-2072.12
-1688.53
-1376.58
-1130.68
-938.769
-788.694
-670.335
-575.871
-499.459
-436.786
-384.679
-340.793
-303.382
-271.138
-243.07
-218.423
-196.611
-177.182
-159.778
-144.118
-129.973
-117.161
-105.531
-94.9589
-85.3399
-76.5852
-68.618
-61.3714
-54.786
-48.8086
-43.3912
-38.4895
-34.0631
-30.0741
-26.4875
-23.2702
-20.3915
-17.8224
-15.5358
-13.5062
-11.7098
-10.1244
-8.72936
-7.50542
-6.43484
-5.50126
-4.68964
-3.98623
-3.37851
-2.85511
-2.40575
-2.02117
-1.69309
-1.41409
-1.17761
-0.977821
-0.809578
-0.668377
-0.550282
-0.451863
-0.370156
-0.302603
-0.247014
-0.201524
-0.164556
-0.134788
-0.111125
-0.0926755
-0.0787252
-0.0687253
-0.0622756
-0.059115
-2705.34
-2538
-2267.73
-1964.31
-1673.75
-1417.59
-1201.46
-1023.01
-876.888
-757.244
-658.797
-577.157
-508.819
-451.043
-401.704
-359.158
-322.134
-289.645
-260.92
-235.356
-212.473
-191.891
-173.306
-156.471
-141.182
-127.274
-114.607
-103.064
-92.5434
-82.9575
-74.2294
-66.2905
-59.0788
-52.5381
-46.6165
-41.2661
-36.4421
-32.1028
-28.2089
-24.7236
-21.6122
-18.8421
-16.3828
-14.2056
-12.2837
-10.5922
-9.10801
-7.80955
-6.67709
-5.69245
-4.83899
-4.10154
-3.46635
-2.92096
-2.45416
-2.0559
-1.71721
-1.43011
-1.18753
-0.983244
-0.811786
-0.668377
-0.548857
-0.449626
-0.367582
-0.300065
-0.244813
-0.19991
-0.163751
-0.135009
-0.112597
-0.0956504
-0.0835027
-0.0756677
-0.0718283
-2336.14
-2233.11
-2056.15
-1842.89
-1623.85
-1417.89
-1233.91
-1074.34
-938.069
-822.474
-724.489
-641.184
-569.984
-508.725
-455.635
-409.285
-368.526
-332.442
-300.298
-271.507
-245.597
-222.184
-200.959
-181.666
-164.096
-148.072
-133.448
-120.096
-107.907
-96.7852
-86.6468
-77.4153
-69.0218
-61.4029
-54.5003
-48.2595
-42.6296
-37.5628
-33.0141
-28.9411
-25.3037
-22.0643
-19.1874
-16.6399
-14.3907
-12.4106
-10.6728
-9.15227
-7.82588
-6.67245
-5.67256
-4.80847
-4.06411
-3.42491
-2.87777
-2.41092
-2.01386
-1.67725
-1.39282
-1.15328
-0.952217
-0.784033
-0.643859
-0.527473
-0.431241
-0.352045
-0.287232
-0.234557
-0.192138
-0.158419
-0.132125
-0.112244
-0.0979916
-0.0887992
-0.0842946
-2069.06
-2001.22
-1880
-1726.39
-1560.05
-1395.42
-1241.22
-1101.67
-977.949
-869.525
-775
-692.675
-620.846
-557.947
-502.61
-453.672
-410.164
-371.283
-336.37
-304.883
-276.38
-250.496
-226.928
-205.427
-185.784
-167.82
-151.386
-136.351
-122.601
-110.036
-98.5665
-88.1104
-78.5935
-69.9472
-62.1073
-55.0141
-48.6112
-42.8455
-37.6667
-33.0274
-28.8826
-25.1899
-21.9095
-19.0038
-16.4375
-14.1779
-12.1942
-10.4582
-8.94357
-7.62622
-6.48404
-5.49686
-4.64633
-3.91588
-3.29055
-2.75694
-2.30305
-1.91823
-1.59303
-1.31913
-1.08921
-0.896875
-0.736561
-0.603446
-0.493375
-0.402786
-0.328645
-0.268386
-0.219859
-0.181282
-0.1512
-0.128453
-0.112147
-0.101629
-0.0964752
-1868.78
-1821.66
-1735.2
-1621.63
-1493.59
-1361.6
-1233.03
-1112.37
-1001.81
-902.026
-812.737
-733.178
-662.365
-599.276
-542.935
-492.461
-447.083
-406.139
-369.068
-335.396
-304.726
-276.727
-251.117
-227.661
-206.159
-186.437
-168.349
-151.764
-136.568
-122.658
-109.941
-98.3338
-87.7571
-78.1382
-69.4089
-61.5048
-54.3649
-47.9315
-42.1499
-36.9679
-32.3363
-28.2082
-24.5397
-21.289
-18.4173
-15.888
-13.6671
-11.723
-10.0265
-8.55063
-7.27081
-6.16448
-5.21116
-4.39231
-3.69121
-3.09287
-2.58387
-2.15228
-1.78752
-1.48027
-1.22234
-1.00655
-0.826681
-0.677314
-0.553797
-0.452135
-0.368928
-0.301297
-0.246831
-0.20353
-0.169764
-0.144231
-0.125927
-0.11412
-0.108334
-1714.44
-1680.26
-1616.38
-1530.21
-1430.03
-1323.32
-1215.98
-1112.08
-1014.1
-923.3
-840.101
-764.377
-695.698
-633.485
-577.112
-525.962
-479.464
-437.103
-398.426
-363.04
-330.606
-300.834
-273.474
-248.313
-225.165
-203.87
-184.285
-166.287
-149.762
-134.608
-120.734
-108.052
-96.4824
-85.9493
-76.3812
-67.7103
-59.872
-52.8046
-46.4493
-40.7502
-35.6538
-31.1096
-27.0696
-23.4886
-20.324
-17.5359
-15.087
-12.9429
-11.0713
-9.44292
-8.03051
-6.80935
-5.75691
-4.85279
-4.07857
-3.41774
-2.85551
-2.37873
-1.97574
-1.63626
-1.35123
-1.11276
-0.913963
-0.748869
-0.612336
-0.499955
-0.407968
-0.333197
-0.272978
-0.225102
-0.187767
-0.159533
-0.139293
-0.126238
-0.11984
-1592.98
-1567.27
-1518.58
-1451.58
-1371.79
-1284.56
-1194.44
-1104.88
-1018.3
-936.165
-859.275
-787.915
-722.049
-661.442
-605.754
-554.601
-507.594
-464.362
-424.56
-387.881
-354.049
-322.822
-293.989
-267.362
-242.777
-220.087
-199.164
-179.888
-162.153
-145.86
-130.918
-117.24
-104.747
-93.3595
-83.0055
-73.614
-65.1176
-57.4514
-50.5533
-44.3638
-38.8262
-33.8862
-29.4925
-25.5965
-22.1523
-19.1169
-16.4501
-14.1145
-12.0753
-10.3007
-8.76112
-7.42977
-6.28216
-5.29611
-4.45162
-3.73069
-3.11726
-2.59699
-2.1572
-1.78667
-1.47555
-1.21522
-0.998182
-0.817925
-0.668841
-0.546121
-0.445665
-0.364006
-0.298235
-0.245943
-0.205162
-0.174322
-0.152213
-0.137951
-0.130962
-1495.79
-1475.85
-1437.69
-1384.39
-1319.7
-1247.46
-1171.16
-1093.64
-1017.06
-942.904
-872.138
-805.288
-742.579
-684.029
-629.521
-578.863
-531.825
-488.165
-447.645
-410.037
-375.132
-342.74
-312.687
-284.819
-258.993
-235.083
-212.971
-192.552
-173.724
-156.394
-140.475
-125.882
-112.534
-100.354
-89.2679
-79.2032
-70.0902
-61.8616
-54.4526
-47.8007
-41.8461
-36.5316
-31.8027
-27.6078
-23.898
-20.6275
-17.7532
-15.2351
-13.0361
-11.1219
-9.46093
-8.02427
-6.78566
-5.72123
-4.80947
-4.031
-3.36851
-2.80656
-2.33147
-1.93116
-1.595
-1.31369
-1.07914
-0.884323
-0.723183
-0.590528
-0.481933
-0.393652
-0.322543
-0.266005
-0.22191
-0.188563
-0.164656
-0.149234
-0.141677
-1416.99
-1401.1
-1370.45
-1327.12
-1273.74
-1213.1
-1147.85
-1080.31
-1012.32
-945.299
-880.238
-817.79
-758.342
-702.085
-649.068
-599.253
-552.542
-508.804
-467.896
-429.667
-393.97
-360.667
-329.624
-300.718
-273.835
-248.867
-225.713
-204.278
-184.471
-166.205
-149.398
-133.967
-119.835
-106.924
-95.1598
-84.4695
-74.782
-66.028
-58.1405
-51.0548
-44.7082
-39.0411
-33.9961
-29.5188
-25.5579
-22.0647
-18.9937
-16.3026
-13.9519
-11.905
-10.1286
-8.59169
-7.26642
-6.12732
-5.15142
-4.31806
-3.60875
-3.00701
-2.49821
-2.06945
-1.70935
-1.40799
-1.15668
-0.94793
-0.775252
-0.633087
-0.516698
-0.422075
-0.345854
-0.285247
-0.237978
-0.202228
-0.176597
-0.160064
-0.151962
-1352.43
-1339.45
-1314.27
-1278.34
-1233.53
-1181.9
-1125.49
-1066.16
-1005.47
-944.703
-884.816
-826.509
-770.261
-716.374
-665.019
-616.271
-570.139
-526.587
-485.552
-446.953
-410.702
-376.708
-344.877
-315.119
-287.345
-261.469
-237.408
-215.078
-194.4
-175.296
-157.686
-141.495
-126.646
-113.065
-100.677
-89.4086
-79.1886
-69.9463
-61.6131
-54.1222
-47.409
-41.4113
-36.0695
-31.3269
-27.1295
-23.4264
-20.17
-17.3154
-14.8212
-12.6488
-10.763
-9.13113
-7.72368
-6.51371
-5.47691
-4.5914
-3.83759
-3.19801
-2.65715
-2.2013
-1.81841
-1.49794
-1.23067
-1.00864
-0.82496
-0.673726
-0.549903
-0.449228
-0.368128
-0.303638
-0.253337
-0.215294
-0.188017
-0.170422
-0.161799
-1299.07
-1288.24
-1267.12
-1236.76
-1198.52
-1153.95
-1104.62
-1052.02
-997.488
-942.128
-886.844
-832.335
-779.121
-727.572
-677.941
-630.387
-585.001
-541.824
-500.862
-462.093
-425.483
-390.984
-358.54
-328.092
-299.577
-272.931
-248.087
-224.976
-203.529
-183.677
-165.348
-148.47
-132.972
-118.779
-105.819
-94.0196
-83.3087
-73.6149
-64.8685
-57.0011
-49.9465
-43.6404
-38.0214
-33.0304
-28.6114
-24.7114
-21.2806
-18.2723
-15.643
-13.3524
-11.3634
-9.64197
-8.15689
-6.87994
-5.78555
-4.8507
-4.05476
-3.37933
-2.80807
-2.32654
-1.92204
-1.58343
-1.30101
-1.06637
-0.872242
-0.712391
-0.581501
-0.475075
-0.389335
-0.321151
-0.267967
-0.227742
-0.1989
-0.180294
-0.171176
-1254.66
-1245.44
-1227.4
-1201.29
-1168.14
-1129.13
-1085.48
-1038.42
-989.036
-938.313
-887.071
-835.982
-785.575
-736.259
-688.337
-642.03
-597.489
-554.816
-514.073
-475.29
-438.478
-403.628
-370.719
-339.722
-310.599
-283.305
-257.791
-234.002
-211.882
-191.368
-172.398
-154.904
-138.818
-124.071
-110.59
-98.3054
-87.144
-77.0348
-67.9072
-59.6917
-52.3206
-45.7282
-39.8512
-34.6288
-30.003
-25.9191
-22.3252
-19.1729
-16.417
-14.0154
-11.9296
-10.1238
-8.56574
-7.22574
-6.0771
-5.09573
-4.26006
-3.5508
-2.95085
-2.44506
-2.02014
-1.66439
-1.36764
-1.12107
-0.917052
-0.749043
-0.611463
-0.499588
-0.409453
-0.33777
-0.281853
-0.239559
-0.209233
-0.18967
-0.180082
-1217.5
-1209.5
-1193.81
-1171
-1141.83
-1107.23
-1068.17
-1025.64
-980.562
-933.791
-886.065
-838.014
-790.161
-742.927
-696.649
-651.585
-607.935
-565.846
-525.423
-486.742
-449.851
-414.775
-381.527
-350.102
-320.484
-292.651
-266.568
-242.197
-219.489
-198.394
-178.855
-160.811
-144.199
-128.951
-114.998
-102.271
-90.6989
-80.2093
-70.7315
-62.1955
-54.5325
-47.6755
-41.5595
-36.1224
-31.3046
-27.0495
-23.3037
-20.0171
-17.143
-14.6377
-12.4613
-10.5766
-8.95012
-7.551
-6.35145
-5.32642
-4.45341
-3.71236
-3.08542
-2.55682
-2.11266
-1.74077
-1.43052
-1.17271
-0.959365
-0.783662
-0.639771
-0.522754
-0.428471
-0.353484
-0.294987
-0.250739
-0.219011
-0.198543
-0.188512
-1186.25
-1179.2
-1165.34
-1145.09
-1119.07
-1087.99
-1052.64
-1013.84
-972.356
-928.939
-884.249
-838.872
-793.309
-747.986
-703.251
-659.392
-616.639
-575.174
-535.138
-496.642
-459.765
-424.564
-391.077
-359.325
-329.313
-301.035
-274.474
-249.603
-226.388
-204.784
-184.743
-166.211
-149.128
-133.431
-119.053
-105.926
-93.98
-83.1435
-73.3458
-64.5161
-56.5849
-49.4843
-43.1481
-37.5127
-32.5171
-28.1034
-24.2167
-20.8054
-17.8213
-15.2196
-12.9587
-11.0005
-9.31011
-7.85577
-6.60865
-5.54277
-4.63483
-3.86401
-3.21178
-2.66179
-2.1996
-1.81256
-1.48965
-1.22128
-0.999176
-0.816244
-0.666419
-0.544569
-0.446384
-0.368289
-0.307364
-0.261278
-0.228231
-0.206911
-0.196462
-1159.87
-1153.57
-1141.14
-1122.92
-1099.4
-1071.15
-1038.82
-1003.08
-964.597
-924.018
-881.938
-838.894
-795.367
-751.771
-708.462
-665.743
-623.865
-583.036
-543.425
-505.169
-468.376
-433.127
-399.484
-367.488
-337.165
-308.525
-281.565
-256.27
-232.617
-210.571
-190.091
-171.128
-153.626
-137.528
-122.768
-109.28
-96.9959
-85.8447
-75.7557
-66.6581
-58.4817
-51.1577
-44.6193
-38.8014
-33.6422
-29.0822
-25.0653
-21.5386
-18.4527
-15.7615
-13.4222
-11.3957
-9.646
-8.14029
-6.84887
-5.74494
-4.80443
-4.00583
-3.33001
-2.76004
-2.281
-1.87981
-1.54504
-1.26679
-1.0365
-0.846797
-0.691417
-0.565038
-0.463196
-0.382188
-0.318988
-0.271178
-0.236894
-0.214775
-0.203935
-1137.55
-1131.83
-1120.53
-1103.93
-1082.41
-1056.45
-1026.58
-993.364
-957.385
-919.204
-879.358
-838.341
-796.606
-754.557
-712.548
-670.889
-629.845
-589.642
-550.472
-512.491
-475.83
-440.592
-406.857
-374.687
-344.123
-315.19
-287.899
-262.248
-238.22
-215.792
-194.928
-175.585
-157.714
-141.258
-126.157
-112.346
-99.7568
-88.3213
-77.9684
-68.6273
-60.2276
-52.6999
-45.9764
-39.9915
-34.6821
-29.9876
-25.8509
-22.218
-19.0381
-16.2643
-13.8526
-11.7629
-9.95821
-8.40489
-7.07239
-5.93314
-4.96239
-4.13798
-3.44021
-2.85166
-2.35694
-1.94256
-1.59675
-1.3093
-1.07136
-0.875346
-0.714781
-0.584175
-0.47892
-0.395192
-0.329866
-0.280446
-0.245005
-0.22214
-0.210934
-1118.6
-1113.35
-1102.96
-1087.65
-1067.75
-1043.64
-1015.78
-984.659
-950.769
-914.612
-876.672
-837.407
-797.242
-756.566
-715.729
-675.041
-634.778
-595.178
-556.447
-518.759
-482.263
-447.078
-413.303
-381.013
-350.266
-321.1
-293.538
-267.586
-243.241
-220.483
-199.286
-179.611
-161.414
-144.642
-129.237
-115.136
-102.275
-90.5831
-79.9921
-70.4307
-61.8284
-54.1155
-47.2236
-41.0863
-35.6395
-30.822
-26.5755
-22.845
-19.5789
-16.729
-14.2507
-12.1027
-10.2473
-8.65006
-7.2796
-6.1077
-5.10896
-4.26065
-3.54257
-2.93678
-2.42752
-2.0009
-1.64485
-1.34885
-1.10381
-0.901928
-0.736542
-0.602005
-0.493574
-0.407314
-0.340009
-0.28909
-0.252573
-0.229013
-0.217466
-1102.5
-1097.62
-1087.96
-1073.69
-1055.1
-1032.51
-1006.3
-976.906
-944.76
-910.31
-873.995
-836.239
-797.441
-757.976
-718.185
-678.379
-638.837
-599.805
-561.501
-524.112
-487.799
-452.698
-418.92
-386.555
-355.672
-326.322
-298.538
-272.337
-247.722
-224.683
-203.197
-183.233
-164.75
-147.699
-132.025
-117.667
-104.561
-92.6408
-81.8357
-72.0758
-63.2906
-55.41
-48.3653
-42.0894
-36.5177
-31.588
-27.2413
-23.4216
-20.0765
-17.157
-14.6175
-12.4161
-10.5141
-8.87639
-7.47099
-6.26902
-5.24448
-4.37413
-3.63728
-3.01559
-2.49288
-2.05496
-1.68943
-1.38552
-1.1339
-0.926589
-0.756737
-0.618557
-0.507183
-0.418575
-0.349436
-0.297126
-0.25961
-0.235405
-0.223542
-1088.8
-1084.22
-1075.14
-1061.72
-1044.19
-1022.84
-997.996
-970.036
-939.348
-906.337
-871.404
-834.943
-797.331
-758.928
-720.066
-681.053
-642.168
-603.664
-565.766
-528.671
-492.551
-457.553
-423.8
-391.394
-360.414
-330.921
-302.958
-276.551
-251.709
-228.429
-206.695
-186.48
-167.747
-150.451
-134.539
-119.953
-106.631
-94.5057
-83.509
-73.5709
-64.621
-56.5893
-49.4065
-43.0052
-37.3202
-32.2886
-27.8507
-23.9499
-20.5328
-17.5497
-14.9543
-12.7039
-10.7593
-9.08456
-7.64713
-6.41755
-5.36931
-4.47871
-3.72461
-3.08828
-2.5532
-2.10487
-1.7306
-1.41939
-1.16172
-0.949387
-0.775414
-0.633869
-0.519776
-0.429
-0.358164
-0.304569
-0.266131
-0.241329
-0.229173
-1077.12
-1072.79
-1064.18
-1051.46
-1034.8
-1014.46
-990.743
-963.974
-934.506
-902.708
-868.948
-833.597
-797.011
-759.534
-721.491
-683.185
-644.895
-606.876
-569.358
-532.546
-496.62
-461.737
-428.029
-395.607
-364.561
-334.959
-306.852
-280.274
-255.242
-231.759
-209.812
-189.38
-170.43
-152.92
-136.799
-122.012
-108.497
-96.1896
-85.022
-74.9246
-65.8271
-57.6595
-50.3525
-43.8382
-38.0508
-32.927
-28.4066
-24.432
-20.9495
-17.9086
-15.2624
-12.9674
-10.9839
-9.27533
-7.80863
-6.55381
-5.4839
-4.57475
-3.80484
-3.1551
-2.60867
-2.15077
-1.76849
-1.45058
-1.18733
-0.97039
-0.792625
-0.647985
-0.531389
-0.438617
-0.366219
-0.31144
-0.272151
-0.246801
-0.234375
-1067.17
-1063.03
-1054.82
-1042.65
-1026.71
-1007.21
-984.423
-958.646
-930.199
-899.422
-866.659
-832.256
-796.554
-759.883
-722.559
-684.879
-647.122
-609.543
-572.377
-535.832
-500.097
-465.334
-431.684
-399.266
-368.176
-338.492
-310.272
-283.555
-258.365
-234.708
-212.58
-191.962
-172.823
-155.126
-138.822
-123.858
-110.173
-97.7045
-86.3851
-76.1457
-66.9165
-58.6274
-51.2089
-44.593
-38.7135
-33.5067
-28.9116
-24.8705
-21.3288
-18.2356
-15.5432
-13.2077
-11.1888
-9.44953
-7.95618
-6.67837
-5.5887
-4.66263
-3.87829
-3.21629
-2.65949
-2.19285
-1.80323
-1.47918
-1.21083
-0.98967
-0.80843
-0.660953
-0.542061
-0.447457
-0.373627
-0.317761
-0.277691
-0.251836
-0.239163
-1058.68
-1054.7
-1046.81
-1035.11
-1019.75
-1000.94
-978.929
-953.978
-926.387
-896.47
-864.552
-830.958
-796.016
-760.043
-723.346
-686.219
-648.936
-611.754
-574.909
-538.614
-503.061
-468.419
-434.835
-402.434
-371.32
-341.576
-313.267
-286.437
-261.115
-237.313
-215.03
-194.252
-174.95
-157.091
-140.627
-125.507
-111.673
-99.0626
-87.6088
-77.2434
-67.897
-59.4994
-51.9813
-45.2745
-39.3124
-34.031
-29.3689
-25.2678
-21.6728
-18.5323
-15.7982
-13.4261
-11.3752
-9.60803
-8.09051
-6.79183
-5.6842
-4.74276
-3.9453
-3.27213
-2.70589
-2.23128
-1.83497
-1.50533
-1.23232
-1.00731
-0.822893
-0.672823
-0.551834
-0.455556
-0.380415
-0.323555
-0.282771
-0.256455
-0.243555
-1051.44
-1047.6
-1039.97
-1028.64
-1013.77
-995.538
-974.164
-949.901
-923.027
-893.835
-862.632
-829.728
-795.438
-760.067
-723.916
-687.273
-650.411
-613.584
-577.029
-540.963
-505.582
-471.058
-437.544
-405.171
-374.046
-344.26
-315.881
-288.96
-263.529
-239.606
-217.192
-196.276
-176.835
-158.835
-142.232
-126.977
-113.012
-100.276
-88.7034
-78.2266
-68.7762
-60.2823
-52.6756
-45.8876
-39.8518
-34.5036
-29.7815
-25.6266
-21.9836
-18.8005
-16.0289
-13.6239
-11.5441
-9.75173
-8.21237
-6.89481
-5.77093
-4.81556
-4.0062
-3.32292
-2.7481
-2.26626
-1.86387
-1.52915
-1.25191
-1.02338
-0.836082
-0.683652
-0.560753
-0.462949
-0.386614
-0.328848
-0.287413
-0.260676
-0.24757
-1045.27
-1041.54
-1034.12
-1023.11
-1008.64
-990.88
-970.039
-946.351
-920.078
-891.496
-860.898
-828.582
-794.848
-759.997
-724.32
-688.1
-651.606
-615.095
-578.802
-542.945
-507.723
-473.312
-439.869
-407.529
-376.404
-346.589
-318.157
-291.162
-265.642
-241.617
-219.093
-198.06
-178.499
-160.377
-143.654
-128.281
-114.202
-101.356
-89.6791
-79.1041
-69.5619
-60.9828
-53.2974
-46.4373
-40.3358
-34.9281
-30.1523
-25.9494
-22.2635
-19.0423
-16.237
-13.8023
-11.6965
-9.88154
-8.32252
-6.98794
-5.84942
-4.88147
-4.06136
-3.36894
-2.78637
-2.29799
-1.8901
-1.55077
-1.26969
-1.03799
-0.848068
-0.693497
-0.568864
-0.469675
-0.392255
-0.333667
-0.291641
-0.264521
-0.251228
-1040.01
-1036.37
-1029.13
-1018.38
-1004.24
-986.873
-966.475
-943.268
-917.498
-889.43
-859.344
-827.526
-794.269
-759.863
-724.595
-688.743
-652.574
-616.341
-580.281
-544.613
-509.537
-475.233
-441.86
-409.556
-378.439
-348.605
-320.133
-293.08
-267.486
-243.377
-220.759
-199.628
-179.964
-161.738
-144.91
-129.434
-115.256
-102.314
-90.546
-79.8847
-70.2616
-61.6072
-53.8523
-46.9284
-40.7686
-35.3081
-30.4846
-26.2387
-22.5146
-19.2593
-16.4239
-13.9627
-11.8337
-9.99841
-8.42174
-7.07189
-5.92019
-4.94093
-4.11116
-3.4105
-2.82095
-2.32667
-1.91381
-1.57033
-1.28579
-1.05121
-0.858923
-0.702415
-0.576214
-0.475773
-0.397372
-0.338039
-0.295477
-0.268012
-0.254548
-1035.53
-1031.96
-1024.87
-1014.33
-1000.47
-983.431
-963.403
-940.597
-915.249
-887.613
-857.96
-826.565
-793.714
-759.69
-724.775
-689.242
-653.355
-617.367
-581.514
-546.015
-511.072
-476.866
-443.56
-411.294
-380.189
-350.346
-321.843
-294.744
-269.092
-244.912
-222.216
-201
-181.249
-162.933
-146.016
-130.452
-116.186
-103.161
-91.3135
-80.5766
-70.8826
-62.1621
-54.3459
-47.3657
-41.1543
-35.647
-30.7811
-26.4973
-22.7391
-19.4536
-16.5913
-14.1065
-11.9567
-10.1033
-8.5108
-7.14728
-5.98378
-4.99439
-4.15595
-3.4479
-2.85208
-2.3525
-1.93518
-1.58796
-1.3003
-1.06314
-0.868719
-0.710467
-0.582853
-0.481282
-0.401996
-0.341991
-0.298946
-0.271169
-0.257552
-1031.71
-1028.21
-1021.24
-1010.88
-997.246
-980.479
-960.759
-938.288
-913.294
-886.022
-856.734
-825.698
-793.193
-759.495
-724.883
-689.625
-653.984
-618.21
-582.539
-547.191
-512.367
-478.253
-445.009
-412.782
-381.692
-351.844
-323.321
-296.185
-270.484
-246.247
-223.485
-202.199
-182.373
-163.981
-146.987
-131.346
-117.006
-103.908
-91.9908
-81.188
-71.4318
-62.6534
-54.7834
-47.7536
-41.4969
-35.9482
-31.045
-26.7275
-22.9391
-19.6268
-16.7407
-14.2348
-12.0666
-10.197
-8.59047
-7.21475
-6.04073
-5.04229
-4.1961
-3.48145
-2.88001
-2.37568
-1.95437
-1.6038
-1.31335
-1.07386
-0.877529
-0.717711
-0.588828
-0.486242
-0.406161
-0.345552
-0.302073
-0.274015
-0.26026
-1028.47
-1025.02
-1018.15
-1007.94
-994.493
-977.953
-958.489
-936.299
-911.601
-884.635
-855.653
-824.921
-792.709
-759.291
-724.938
-689.917
-654.489
-618.902
-583.391
-548.176
-513.46
-479.427
-446.242
-414.052
-382.98
-353.132
-324.593
-297.429
-271.689
-247.404
-224.588
-203.242
-183.353
-164.896
-147.836
-132.129
-117.724
-104.564
-92.5864
-81.7263
-71.9161
-63.0869
-55.1699
-48.0967
-41.8001
-36.2151
-31.2789
-26.9317
-23.1168
-19.7807
-16.8735
-14.349
-12.1644
-10.2805
-8.66149
-7.27494
-6.09156
-5.08506
-4.23197
-3.51142
-2.90498
-2.39642
-1.97154
-1.61798
-1.32503
-1.08347
-0.885426
-0.724207
-0.594187
-0.490693
-0.409899
-0.34875
-0.304881
-0.276571
-0.262693
-1025.72
-1022.31
-1015.52
-1005.43
-992.145
-975.793
-956.544
-934.587
-910.138
-883.428
-854.706
-824.231
-792.268
-759.086
-724.955
-690.139
-654.894
-619.469
-584.097
-549
-514.378
-480.42
-447.289
-415.134
-384.08
-354.235
-325.686
-298.501
-272.73
-248.405
-225.544
-204.148
-184.205
-165.693
-148.576
-132.813
-118.353
-105.138
-93.1087
-82.1989
-72.3416
-63.4683
-55.5102
-48.399
-42.0675
-36.4507
-31.4856
-27.1123
-23.274
-19.9169
-16.9912
-14.4503
-12.2512
-10.3547
-8.72459
-7.32844
-6.13676
-5.12312
-4.2639
-3.53813
-2.92724
-2.41491
-1.98686
-1.63063
-1.33545
-1.09205
-0.89248
-0.730011
-0.598978
-0.494672
-0.413243
-0.35161
-0.307394
-0.278859
-0.264871
-1023.38
-1020.01
-1013.29
-1003.3
-990.146
-973.951
-954.88
-933.119
-908.877
-882.383
-853.879
-823.62
-791.868
-758.888
-724.946
-690.304
-655.218
-619.932
-584.682
-549.687
-515.15
-481.257
-448.176
-416.053
-385.018
-355.178
-326.623
-299.421
-273.625
-249.268
-226.369
-204.931
-184.944
-166.384
-149.22
-133.409
-118.901
-105.64
-93.5651
-82.6122
-72.7142
-63.8027
-55.8089
-48.6646
-42.3027
-36.658
-31.6677
-27.2715
-23.4126
-20.0372
-17.0952
-14.5398
-12.328
-10.4203
-8.78046
-7.37584
-6.17683
-5.15687
-4.29223
-3.56183
-2.947
-2.43134
-2.00047
-1.64188
-1.34473
-1.09968
-0.898758
-0.735179
-0.603245
-0.498218
-0.416223
-0.354161
-0.309635
-0.2809
-0.266814
-1021.4
-1018.06
-1011.4
-1001.5
-988.447
-972.382
-953.459
-931.862
-907.794
-881.48
-853.16
-823.083
-791.509
-758.7
-724.919
-690.427
-655.475
-620.311
-585.166
-550.26
-515.797
-481.963
-448.925
-416.833
-385.816
-355.982
-327.423
-300.209
-274.393
-250.01
-227.08
-205.607
-185.582
-166.983
-149.778
-133.926
-119.377
-106.076
-93.9626
-82.9727
-73.0395
-64.0949
-56.0701
-48.8971
-42.5087
-36.8398
-31.8274
-27.4114
-23.5345
-20.1431
-17.1867
-14.6187
-12.3957
-10.4781
-8.82976
-7.41768
-6.21222
-5.1867
-4.31728
-3.5828
-2.96449
-2.44588
-2.01253
-1.65185
-1.35295
-1.10645
-0.904329
-0.739765
-0.607033
-0.501367
-0.41887
-0.356426
-0.311627
-0.282714
-0.268541
-1019.73
-1016.41
-1009.8
-999.963
-987.005
-971.048
-952.25
-930.788
-906.865
-880.703
-852.536
-822.613
-791.19
-758.526
-724.881
-690.516
-655.68
-620.619
-585.565
-550.737
-516.339
-482.556
-449.558
-417.493
-386.493
-356.667
-328.106
-300.883
-275.051
-250.647
-227.691
-206.189
-186.132
-167.5
-150.26
-134.373
-119.789
-106.454
-94.3078
-83.2861
-73.3226
-64.3494
-56.2979
-49.1
-42.6887
-36.9988
-31.9672
-27.5338
-23.6413
-20.2359
-17.267
-14.6879
-12.4551
-10.529
-8.87311
-7.45451
-6.24338
-5.21297
-4.33936
-3.60128
-2.97992
-2.45872
-2.02317
-1.66065
-1.36022
-1.11244
-0.909253
-0.743821
-0.610384
-0.504153
-0.421213
-0.358433
-0.31339
-0.28432
-0.27007
-1018.31
-1015.01
-1008.44
-998.666
-985.783
-969.917
-951.221
-929.873
-906.072
-880.036
-851.998
-822.204
-790.907
-758.365
-724.837
-690.579
-655.843
-620.871
-585.895
-551.134
-516.791
-483.054
-450.09
-418.051
-387.066
-357.247
-328.686
-301.457
-275.613
-251.192
-228.215
-206.689
-186.605
-167.944
-150.676
-134.759
-120.146
-106.781
-94.6067
-83.5577
-73.5682
-64.5704
-56.4958
-49.2765
-42.8454
-37.1372
-32.0891
-27.6406
-23.7345
-20.3169
-17.3372
-14.7484
-12.5072
-10.5736
-8.91112
-7.4868
-6.27072
-5.23604
-4.35875
-3.61753
-2.99349
-2.47001
-2.03254
-1.6684
-1.36661
-1.11771
-0.913592
-0.747396
-0.613338
-0.50661
-0.42328
-0.360202
-0.314946
-0.285738
-0.27142
-1017.12
-1013.84
-1007.3
-997.571
-984.75
-968.959
-950.349
-929.095
-905.395
-879.465
-851.535
-821.85
-790.659
-758.22
-724.79
-690.623
-655.971
-621.074
-586.166
-551.462
-517.168
-483.47
-450.538
-418.52
-387.55
-357.739
-329.179
-301.945
-276.091
-251.656
-228.662
-207.116
-187.01
-168.326
-151.032
-135.091
-120.452
-107.064
-94.8646
-83.7923
-73.7806
-64.7616
-56.6673
-49.4295
-42.9813
-37.2575
-32.195
-27.7335
-23.8157
-20.3875
-17.3984
-14.8013
-12.5526
-10.6125
-8.94432
-7.51503
-6.29463
-5.25622
-4.37573
-3.63176
-3.00537
-2.4799
-2.04075
-1.6752
-1.37222
-1.12233
-0.917401
-0.750536
-0.615933
-0.508769
-0.425096
-0.361758
-0.316314
-0.286984
-0.272606
-1016.12
-1012.85
-1006.33
-996.648
-983.878
-968.15
-949.611
-928.436
-904.82
-878.978
-851.138
-821.543
-790.442
-758.09
-724.742
-690.653
-656.072
-621.24
-586.388
-551.734
-517.482
-483.819
-450.913
-418.915
-387.959
-358.154
-329.596
-302.358
-276.497
-252.051
-229.043
-207.48
-187.356
-168.652
-151.338
-135.375
-120.716
-107.306
-95.0865
-83.9944
-73.9636
-64.9267
-56.8154
-49.5618
-43.0989
-37.3616
-32.2868
-27.8141
-23.8861
-20.4489
-17.4516
-14.8472
-12.5921
-10.6463
-8.97323
-7.53962
-6.31548
-5.27382
-4.39054
-3.64417
-3.01575
-2.48855
-2.04793
-1.68114
-1.37713
-1.12638
-0.920735
-0.753284
-0.618205
-0.510659
-0.426686
-0.36312
-0.317512
-0.288076
-0.273646
-1015.27
-1012.01
-1005.52
-995.871
-983.144
-967.467
-948.987
-927.877
-904.332
-878.563
-850.799
-821.28
-790.254
-757.974
-724.696
-690.672
-656.151
-621.374
-586.571
-551.959
-517.743
-484.109
-451.227
-419.247
-388.302
-358.504
-329.948
-302.708
-276.841
-252.386
-229.367
-207.79
-187.651
-168.93
-151.599
-135.619
-120.941
-107.514
-95.2769
-84.1679
-74.1209
-65.0686
-56.9429
-49.6757
-43.2004
-37.4515
-32.3661
-27.8837
-23.947
-20.5019
-17.4976
-14.887
-12.6264
-10.6757
-8.99832
-7.56097
-6.33358
-5.28912
-4.40342
-3.65498
-3.02478
-2.49607
-2.05418
-1.68632
-1.38141
-1.12991
-0.923642
-0.75568
-0.620187
-0.512308
-0.428074
-0.364309
-0.318557
-0.289028
-0.274553
-1014.57
-1011.31
-1004.84
-995.218
-982.527
-966.892
-948.462
-927.406
-903.919
-878.211
-850.51
-821.054
-790.091
-757.872
-724.652
-690.683
-656.213
-621.482
-586.72
-552.145
-517.96
-484.351
-451.489
-419.524
-388.59
-358.799
-330.245
-303.004
-277.132
-252.67
-229.641
-208.054
-187.902
-169.167
-151.822
-135.826
-121.134
-107.691
-95.4396
-84.3164
-74.2557
-65.1904
-57.0523
-49.7736
-43.2875
-37.5288
-32.4343
-27.9437
-23.9995
-20.5477
-17.5373
-14.9213
-12.656
-10.7011
-9.02002
-7.57946
-6.34926
-5.30237
-4.41458
-3.66435
-3.03261
-2.5026
-2.05961
-1.69081
-1.38512
-1.13297
-0.926168
-0.757764
-0.621909
-0.513742
-0.429281
-0.365342
-0.319466
-0.289857
-0.275341
-1013.97
-1010.73
-1004.28
-994.671
-982.009
-966.41
-948.02
-927.009
-903.57
-877.914
-850.265
-820.861
-789.95
-757.782
-724.611
-690.688
-656.261
-621.569
-586.842
-552.298
-518.139
-484.552
-451.707
-419.756
-388.831
-359.046
-330.494
-303.252
-277.377
-252.91
-229.873
-208.276
-188.114
-169.368
-152.011
-136.002
-121.297
-107.842
-95.5784
-84.4431
-74.3708
-65.2944
-57.1459
-49.8574
-43.3622
-37.595
-32.4928
-27.9952
-24.0446
-20.587
-17.5715
-14.9509
-12.6814
-10.723
-9.03873
-7.5954
-6.3628
-5.31382
-4.42422
-3.67244
-3.03939
-2.50825
-2.0643
-1.69471
-1.38834
-1.13562
-0.928355
-0.759568
-0.623402
-0.514984
-0.430326
-0.366238
-0.320253
-0.290574
-0.276024
-1013.48
-1010.24
-1003.8
-994.214
-981.576
-966.006
-947.649
-926.676
-903.277
-877.662
-850.057
-820.697
-789.83
-757.704
-724.574
-690.69
-656.298
-621.639
-586.942
-552.424
-518.287
-484.719
-451.889
-419.949
-389.033
-359.252
-330.703
-303.461
-277.583
-253.111
-230.069
-208.464
-188.293
-169.538
-152.17
-136.152
-121.436
-107.971
-95.6964
-84.5509
-74.4689
-65.3831
-57.2257
-49.929
-43.426
-37.6517
-32.5429
-28.0393
-24.0833
-20.6207
-17.6008
-14.9763
-12.7033
-10.7418
-9.05482
-7.60911
-6.37444
-5.32367
-4.43252
-3.67941
-3.04522
-2.51312
-2.06835
-1.69806
-1.39112
-1.13791
-0.930243
-0.761125
-0.62469
-0.516056
-0.431228
-0.36701
-0.320933
-0.291193
-0.276613
-1013.06
-1009.83
-1003.4
-993.832
-981.214
-965.668
-947.339
-926.396
-903.031
-877.451