/*--------------------------------*- C++ -*----------------------------------*\
  =========                 |
  \\      /  F ield         | OpenFOAM: The Open Source CFD Toolbox
   \\    /   O peration     | Website:  https://openfoam.org
    \\  /    A nd           | Version:  10
     \\/     M anipulation  |
\*---------------------------------------------------------------------------*/
FoamFile
{
    format      ascii;
    class       volScalarField;
    location    "238";
    object      gradTz;
}
// * * * * * * * * * * * * * * * * * * * * * * * * * * * * * * * * * * * * * //

dimensions      [0 -1 0 1 0 0 0];

internalField   nonuniform List<scalar> 
11250
(
-14357.3
-4152.66
-1532.05
-728.003
-422.677
-280.322
-202.112
-153.696
-121.034
-97.5562
-79.8479
-65.9931
-54.85
-45.7054
-38.094
-31.7005
-26.3019
-21.7343
-17.8715
-14.6129
-11.8748
-9.58601
-7.68446
-6.11539
-4.83019
-3.78572
-2.94379
-2.27081
-1.7375
-1.31855
-0.992359
-0.740653
-0.548168
-0.4023
-0.29276
-0.211247
-0.151139
-0.107218
-0.0754155
-0.052596
-0.0363701
-0.0249365
-0.0169522
-0.0114266
-0.00763671
-0.00506053
-0.00332494
-0.00216604
-0.00139907
-0.000895977
-0.000568892
-0.00035812
-0.0002235
-0.000138281
-8.48133e-05
-5.15654e-05
-3.10758e-05
-1.85621e-05
-1.09886e-05
-6.44665e-06
-3.74774e-06
-2.15878e-06
-1.23203e-06
-6.96558e-07
-3.9008e-07
-2.16378e-07
-1.18891e-07
-6.47002e-08
-3.48603e-08
-1.85991e-08
-9.83795e-09
-5.19393e-09
-2.73746e-09
-1.51691e-09
-1.03396e-09
-8276.11
-4873.31
-2778.99
-1684.77
-1104.6
-776.431
-576.232
-445.104
-353.775
-286.836
-235.702
-195.347
-162.691
-135.771
-113.29
-94.3594
-78.3448
-64.7754
-53.2872
-43.5871
-35.4309
-28.6092
-22.9391
-18.2586
-14.4237
-11.3063
-8.79286
-6.78343
-5.19077
-3.93949
-2.96513
-2.21318
-1.6381
-1.20227
-0.874949
-0.631363
-0.451734
-0.320471
-0.225422
-0.157218
-0.108719
-0.0745431
-0.0506767
-0.0341592
-0.0228301
-0.0151288
-0.00994032
-0.00647576
-0.00418284
-0.00267877
-0.00170089
-0.00107073
-0.000668247
-0.000413455
-0.000253592
-0.000154184
-9.29199e-05
-5.55035e-05
-3.28582e-05
-1.92772e-05
-1.1207e-05
-6.45559e-06
-3.68427e-06
-2.08303e-06
-1.16664e-06
-6.47182e-07
-3.55558e-07
-1.9347e-07
-1.04266e-07
-5.56635e-08
-2.94271e-08
-1.54588e-08
-8.18713e-09
-4.58804e-09
-3.08431e-09
-5595.81
-4283.64
-3024.14
-2125.92
-1533.14
-1143.41
-880.354
-696.035
-561.696
-460.119
-380.815
-317.243
-265.211
-221.957
-185.611
-154.859
-128.75
-106.565
-87.7425
-71.8222
-58.4175
-47.1938
-37.8564
-30.1431
-23.8195
-18.6764
-14.5279
-11.2102
-8.57973
-6.51255
-4.90248
-3.65969
-2.70905
-1.98848
-1.44725
-1.04442
-0.74733
-0.530211
-0.372978
-0.260144
-0.179904
-0.123357
-0.0838658
-0.0565332
-0.037785
-0.02504
-0.016453
-0.0107189
-0.00692378
-0.00443426
-0.00281562
-0.00177252
-0.00110627
-0.000684487
-0.000419842
-0.00025527
-0.000153845
-9.18989e-05
-5.44061e-05
-3.192e-05
-1.85576e-05
-1.06903e-05
-6.10132e-06
-3.44974e-06
-1.93216e-06
-1.0719e-06
-5.88932e-07
-3.2046e-07
-1.727e-07
-9.21977e-08
-4.87562e-08
-2.56107e-08
-1.35676e-08
-7.59112e-09
-5.14453e-09
-4224.6
-3638.32
-2905.16
-2259.06
-1756.35
-1381.78
-1104.21
-895.859
-736.142
-610.814
-510.256
-427.995
-359.64
-302.168
-253.455
-211.968
-176.566
-146.368
-120.666
-98.8744
-80.4902
-65.0729
-52.2302
-41.61
-32.8957
-25.8029
-20.0784
-15.4977
-11.8643
-9.00784
-6.78227
-5.06389
-3.74912
-2.75231
-2.00345
-1.44599
-1.03478
-0.734226
-0.516541
-0.360307
-0.249192
-0.170879
-0.116182
-0.0783219
-0.052351
-0.0346947
-0.022798
-0.0148533
-0.00959481
-0.00614517
-0.00390217
-0.00245664
-0.00153331
-0.00094875
-0.000581957
-0.000353854
-0.000213269
-0.000127401
-7.54278e-05
-4.42557e-05
-2.57307e-05
-1.48232e-05
-8.46067e-06
-4.78406e-06
-2.67966e-06
-1.48665e-06
-8.16889e-07
-4.44546e-07
-2.39571e-07
-1.27877e-07
-6.76308e-08
-3.55595e-08
-1.88626e-08
-1.05437e-08
-7.11805e-09
-3435.38
-3135.71
-2695.2
-2245.2
-1848.27
-1520.46
-1256.71
-1045.49
-875.209
-736.303
-621.483
-525.391
-444.141
-374.909
-315.623
-264.731
-221.034
-183.58
-151.581
-124.368
-101.354
-82.0152
-65.8802
-52.5196
-41.5444
-32.6032
-25.381
-19.5981
-15.0084
-11.3984
-8.58449
-6.41102
-4.7475
-3.48592
-2.5379
-1.83201
-1.31122
-0.930494
-0.654697
-0.456726
-0.315908
-0.216649
-0.147314
-0.0993173
-0.0663895
-0.0440016
-0.0289155
-0.0188401
-0.0121709
-0.00779555
-0.00495043
-0.00311676
-0.00194542
-0.00120382
-0.000738453
-0.000449036
-0.000270651
-0.000161689
-9.5734e-05
-5.61736e-05
-3.26622e-05
-1.88177e-05
-1.07414e-05
-6.07421e-06
-3.4026e-06
-1.88794e-06
-1.03749e-06
-5.64624e-07
-3.04307e-07
-1.62458e-07
-8.59325e-08
-4.51779e-08
-2.39489e-08
-1.34118e-08
-9.04327e-09
-2940.39
-2768.66
-2489.74
-2173.72
-1867.02
-1591.7
-1353.99
-1152.2
-981.643
-837.152
-714.088
-608.646
-517.835
-439.341
-371.368
-312.504
-261.615
-217.757
-180.125
-148.01
-120.773
-97.8344
-78.6592
-62.7563
-49.6757
-39.0076
-30.3825
-23.4707
-17.9813
-13.6611
-10.2919
-7.68832
-5.69484
-4.18248
-3.04566
-2.19896
-1.57413
-1.11724
-0.786208
-0.548543
-0.379463
-0.260264
-0.176989
-0.119336
-0.0797782
-0.0528798
-0.0347526
-0.0226451
-0.01463
-0.00937127
-0.00595147
-0.00374725
-0.00233912
-0.00144753
-0.000888011
-0.000540014
-0.000325509
-0.000194476
-0.000115155
-6.75747e-05
-3.92946e-05
-2.26408e-05
-1.29249e-05
-7.30969e-06
-4.0951e-06
-2.27239e-06
-1.24889e-06
-6.79769e-07
-3.66419e-07
-1.95633e-07
-1.03499e-07
-5.44407e-08
-2.88531e-08
-1.61383e-08
-1.0895e-08
-2610.58
-2502.42
-2315.39
-2087.43
-1849.56
-1621.25
-1412.09
-1225.28
-1060.5
-915.911
-789.196
-678.109
-580.674
-495.224
-420.373
-354.961
-298
-248.624
-206.06
-169.599
-138.582
-112.394
-90.4572
-72.2325
-57.2203
-44.9618
-35.0406
-27.083
-20.7583
-15.7773
-11.8905
-8.88538
-6.58344
-4.83638
-3.52267
-2.54392
-1.82143
-1.293
-0.910038
-0.635037
-0.439358
-0.301384
-0.204977
-0.138222
-0.0924139
-0.0612612
-0.0402645
-0.026239
-0.0169534
-0.0108603
-0.00689768
-0.00434335
-0.00271142
-0.00167804
-0.0010295
-0.000626106
-0.000377433
-0.000225517
-0.000133547
-7.8374e-05
-4.55786e-05
-2.62642e-05
-1.49949e-05
-8.48132e-06
-4.75202e-06
-2.63729e-06
-1.44964e-06
-7.89112e-07
-4.25398e-07
-2.2715e-07
-1.20217e-07
-6.327e-08
-3.35311e-08
-1.87561e-08
-1.26632e-08
-2381.33
-2307.66
-2174.98
-2004.67
-1816.93
-1626.89
-1444.07
-1273.55
-1117.42
-976.021
-848.822
-734.898
-633.222
-542.797
-462.691
-392.052
-330.089
-276.062
-229.267
-189.024
-154.682
-125.609
-101.203
-80.8893
-64.1305
-50.4279
-39.3254
-30.4118
-23.3213
-17.7331
-13.3697
-9.99437
-7.4075
-5.44334
-3.9658
-2.86462
-2.0515
-1.45661
-1.02538
-0.715646
-0.495206
-0.339742
-0.231097
-0.155855
-0.104215
-0.0690916
-0.0454158
-0.0295988
-0.0191259
-0.0122532
-0.00778297
-0.00490121
-0.00305993
-0.00189389
-0.00116202
-0.000706759
-0.00042609
-0.000254612
-0.00015079
-8.85025e-05
-5.14742e-05
-2.96647e-05
-1.69383e-05
-9.58165e-06
-5.36924e-06
-2.98023e-06
-1.63838e-06
-8.9199e-07
-4.80925e-07
-2.56824e-07
-1.35959e-07
-7.15899e-08
-3.79644e-08
-2.12422e-08
-1.43239e-08
-2217.17
-2163.55
-2064.33
-1932.14
-1780.26
-1619.94
-1459.48
-1304.3
-1157.61
-1021.06
-895.341
-780.54
-676.437
-582.636
-498.653
-423.952
-357.963
-300.094
-249.734
-206.258
-169.038
-137.444
-110.862
-88.6964
-70.3802
-55.3838
-43.2188
-33.4424
-25.6588
-19.5196
-14.7229
-11.0101
-8.1631
-6.00044
-4.37292
-3.1595
-2.26321
-1.60728
-1.13167
-0.78997
-0.546727
-0.375148
-0.255217
-0.172144
-0.115122
-0.0763316
-0.0501804
-0.0327074
-0.0211367
-0.0135427
-0.00860286
-0.00541801
-0.00338288
-0.00209396
-0.00128489
-0.000781561
-0.00047123
-0.000281613
-0.000166798
-9.79078e-05
-5.69507e-05
-3.28247e-05
-1.87449e-05
-1.0605e-05
-5.94349e-06
-3.29943e-06
-1.81413e-06
-9.87847e-07
-5.32696e-07
-2.84531e-07
-1.50637e-07
-7.93073e-08
-4.20827e-08
-2.35779e-08
-1.58968e-08
-2097.1
-2055.8
-1977.92
-1871.33
-1744.98
-1607.21
-1464.87
-1323.09
-1185.45
-1054.31
-931.122
-816.707
-711.47
-615.523
-528.779
-451
-381.836
-320.852
-267.541
-221.345
-181.671
-147.907
-119.435
-95.6494
-75.9632
-59.8229
-46.7146
-36.1692
-27.7659
-21.1328
-15.9466
-11.9299
-8.8482
-6.50614
-4.74285
-3.4277
-2.45593
-1.74453
-1.22856
-0.857773
-0.593757
-0.407485
-0.277258
-0.187038
-0.125098
-0.0829567
-0.0545421
-0.0355543
-0.0229789
-0.0147245
-0.00935448
-0.00589194
-0.00367913
-0.00227754
-0.00139767
-0.000850242
-0.00051269
-0.00030642
-0.00018151
-0.000106555
-6.19877e-05
-3.57322e-05
-2.04079e-05
-1.15474e-05
-6.47257e-06
-3.59365e-06
-1.9762e-06
-1.0763e-06
-5.80516e-07
-3.10103e-07
-1.6419e-07
-8.64824e-08
-4.59024e-08
-2.57007e-08
-1.73852e-08
-2007.97
-1974.55
-1910.7
-1821.59
-1713.46
-1592.58
-1464.55
-1333.96
-1204.41
-1078.56
-958.328
-845.027
-739.523
-642.33
-553.693
-473.638
-402.02
-338.552
-282.835
-234.384
-192.649
-157.041
-126.951
-101.767
-80.891
-63.7522
-49.8166
-38.5943
-29.6436
-22.573
-17.0408
-12.7535
-9.46253
-6.96015
-5.07533
-3.669
-2.62947
-1.86824
-1.31596
-0.918975
-0.636237
-0.436712
-0.29719
-0.200513
-0.134129
-0.088957
-0.0584941
-0.0381348
-0.0246494
-0.0157965
-0.0100365
-0.00632215
-0.00394815
-0.00244431
-0.00150015
-0.000912672
-0.000550389
-0.000328985
-0.000194897
-0.000114427
-6.65746e-05
-3.83809e-05
-2.19235e-05
-1.24067e-05
-6.95522e-06
-3.86224e-06
-2.12423e-06
-1.1571e-06
-6.24199e-07
-3.33501e-07
-1.76643e-07
-9.30692e-08
-4.93664e-08
-2.76501e-08
-1.87374e-08
-1941.11
-1912.91
-1858.51
-1781.51
-1686.46
-1578.16
-1461.23
-1339.73
-1217.08
-1096.06
-978.817
-866.983
-761.75
-663.939
-574.06
-492.363
-418.88
-353.463
-295.813
-245.517
-202.074
-164.921
-133.462
-107.086
-85.1899
-67.19
-52.5377
-40.7266
-31.2981
-23.8444
-18.0085
-13.4831
-10.0074
-7.36333
-5.37095
-3.88377
-2.7841
-1.97856
-1.39397
-0.97364
-0.674207
-0.462853
-0.31503
-0.212581
-0.142221
-0.0943357
-0.0620385
-0.0404501
-0.0261488
-0.0167592
-0.0106493
-0.00670876
-0.00418998
-0.00259427
-0.00159234
-0.000968852
-0.000584326
-0.000349305
-0.000206957
-0.00012152
-7.07099e-05
-4.07699e-05
-2.32911e-05
-1.31824e-05
-7.39116e-06
-4.10497e-06
-2.25808e-06
-1.2302e-06
-6.63752e-07
-3.54713e-07
-1.87919e-07
-9.9015e-08
-5.25572e-08
-2.94447e-08
-1.99174e-08
-1890.61
-1865.94
-1818.04
-1749.55
-1663.92
-1564.98
-1456.58
-1342.32
-1225.4
-1108.58
-994.124
-883.86
-779.199
-681.185
-590.536
-507.683
-432.808
-365.882
-306.7
-254.916
-210.073
-171.641
-139.038
-111.659
-88.8978
-70.164
-54.898
-42.5806
-32.7398
-24.9544
-18.8548
-14.1222
-10.4854
-7.71755
-5.63098
-4.0729
-2.9204
-2.0759
-1.46286
-1.02196
-0.707795
-0.485993
-0.330831
-0.223276
-0.149397
-0.0991082
-0.0651849
-0.0425065
-0.0274811
-0.0176149
-0.0111941
-0.00705268
-0.00440519
-0.00272778
-0.00167444
-0.0010189
-0.00061457
-0.000367421
-0.000217712
-0.000127849
-7.4401e-05
-4.29031e-05
-2.45128e-05
-1.38757e-05
-7.78098e-06
-4.32208e-06
-2.3779e-06
-1.29569e-06
-6.99198e-07
-3.73748e-07
-1.9805e-07
-1.04363e-07
-5.54e-08
-3.10275e-08
-2.10084e-08
-1852.28
-1830.06
-1786.7
-1724.26
-1645.47
-1553.48
-1451.58
-1343
-1230.74
-1117.46
-1005.48
-896.737
-792.784
-694.827
-603.739
-520.093
-444.195
-376.117
-315.735
-262.762
-216.788
-177.309
-143.761
-115.546
-92.0605
-72.7084
-56.9229
-44.1751
-33.9824
-25.913
-19.5871
-14.6761
-10.9004
-8.02545
-5.8573
-4.2377
-3.03931
-2.1609
-1.52307
-1.06423
-0.737199
-0.506266
-0.344684
-0.232659
-0.155696
-0.1033
-0.0679497
-0.0443143
-0.0286529
-0.0183679
-0.0116737
-0.00735555
-0.00459479
-0.00284544
-0.00174683
-0.00106304
-0.000641253
-0.00038341
-0.000227209
-0.00013344
-7.76624e-05
-4.47889e-05
-2.55933e-05
-1.44891e-05
-8.12603e-06
-4.51438e-06
-2.4841e-06
-1.35377e-06
-7.30655e-07
-3.90642e-07
-2.07036e-07
-1.09111e-07
-5.7907e-08
-3.24313e-08
-2.20138e-08
-1823.12
-1802.62
-1762.48
-1704.37
-1630.56
-1543.73
-1446.78
-1342.62
-1234.07
-1123.71
-1013.86
-906.498
-803.284
-705.53
-614.225
-530.052
-453.413
-384.467
-323.154
-269.244
-222.364
-182.038
-147.718
-118.816
-94.7292
-74.8619
-58.6414
-45.5316
-35.042
-26.7322
-20.2139
-15.151
-11.2568
-8.29027
-6.05221
-4.37981
-3.14195
-2.23436
-1.57515
-1.10082
-0.762678
-0.523846
-0.356706
-0.240807
-0.161169
-0.106944
-0.0703548
-0.0458877
-0.0296732
-0.0190238
-0.0120917
-0.0076196
-0.00476015
-0.00294809
-0.00181
-0.00110158
-0.000664558
-0.000397379
-0.000235509
-0.000138327
-8.05153e-05
-4.6439e-05
-2.65391e-05
-1.50264e-05
-8.42841e-06
-4.68301e-06
-2.57724e-06
-1.40474e-06
-7.58298e-07
-4.05466e-07
-2.14886e-07
-1.13254e-07
-6.0145e-08
-3.37254e-08
-2.28776e-08
-1800.93
-1781.64
-1743.8
-1688.81
-1618.64
-1535.65
-1442.44
-1341.7
-1236.08
-1128.08
-1020
-913.855
-811.345
-713.865
-622.486
-537.973
-460.808
-391.213
-329.188
-274.546
-226.948
-185.943
-150.998
-121.536
-96.9575
-76.6655
-60.0845
-46.6736
-35.9361
-27.4248
-20.745
-15.5541
-11.5597
-8.51569
-6.21835
-4.50109
-3.22965
-2.29719
-1.61975
-1.13218
-0.784531
-0.538936
-0.367033
-0.24781
-0.165877
-0.11008
-0.0724259
-0.0472433
-0.0305527
-0.0195894
-0.0124523
-0.0078475
-0.00490292
-0.00303676
-0.00186459
-0.00113489
-0.000684709
-0.000409463
-0.00024269
-0.000142558
-8.29854e-05
-4.78684e-05
-2.73588e-05
-1.54921e-05
-8.69063e-06
-4.8293e-06
-2.65809e-06
-1.44901e-06
-7.82301e-07
-4.1836e-07
-2.21774e-07
-1.16909e-07
-6.20692e-08
-3.48065e-08
-2.36548e-08
-1784.03
-1765.61
-1729.43
-1676.71
-1609.21
-1529.07
-1438.68
-1340.55
-1237.22
-1131.11
-1024.49
-919.368
-817.495
-720.309
-628.943
-544.222
-466.688
-396.615
-334.049
-278.841
-230.679
-189.135
-153.691
-123.777
-98.7991
-78.1604
-61.2839
-47.6251
-36.6827
-28.0043
-21.1902
-15.8926
-11.8145
-8.7056
-6.35851
-4.60354
-3.30382
-2.35038
-1.65754
-1.15878
-0.803085
-0.551759
-0.375815
-0.25377
-0.169886
-0.112753
-0.0741915
-0.0483996
-0.0313033
-0.0200724
-0.0127604
-0.00804224
-0.00502497
-0.00311258
-0.00191128
-0.0011634
-0.000701958
-0.000419809
-0.000248841
-0.000146183
-8.51026e-05
-4.90939e-05
-2.80618e-05
-1.58917e-05
-8.91573e-06
-4.95492e-06
-2.72755e-06
-1.48705e-06
-8.02929e-07
-4.29453e-07
-2.27688e-07
-1.20054e-07
-6.37573e-08
-3.5756e-08
-2.43013e-08
-1771.19
-1753.4
-1718.41
-1667.35
-1601.81
-1523.79
-1435.51
-1339.38
-1237.82
-1133.2
-1027.75
-923.479
-822.159
-725.259
-633.953
-549.113
-471.323
-400.902
-337.929
-282.286
-233.687
-191.72
-155.88
-125.605
-100.306
-79.387
-62.2707
-48.4099
-37.2998
-28.4843
-21.5596
-16.174
-12.0267
-8.86397
-6.47555
-4.6892
-3.36592
-2.39496
-1.68925
-1.18112
-0.81868
-0.562546
-0.383208
-0.258791
-0.173265
-0.115007
-0.0756818
-0.0493761
-0.0319375
-0.0204806
-0.0130208
-0.00820698
-0.00512825
-0.00317677
-0.00195082
-0.00118754
-0.000716574
-0.000428578
-0.000254057
-0.000149257
-8.68987e-05
-5.01339e-05
-2.86586e-05
-1.62311e-05
-9.10696e-06
-5.06167e-06
-2.78658e-06
-1.51941e-06
-8.20523e-07
-4.38921e-07
-2.32707e-07
-1.22714e-07
-6.52182e-08
-3.65825e-08
-2.48116e-08
-1761.45
-1744.12
-1710
-1660.14
-1596.05
-1519.59
-1432.9
-1338.28
-1238.08
-1134.62
-1030.1
-926.529
-825.675
-729.036
-637.813
-552.911
-474.949
-404.275
-340.999
-285.026
-236.09
-193.792
-157.641
-127.081
-101.526
-80.3836
-63.0745
-49.0506
-37.8048
-28.878
-21.8632
-16.4056
-12.2016
-8.99471
-6.57231
-4.76011
-3.41738
-2.43195
-1.71558
-1.1997
-0.831658
-0.57153
-0.38937
-0.26298
-0.176086
-0.11689
-0.0769272
-0.0501925
-0.032468
-0.0208222
-0.0132389
-0.00834497
-0.00521479
-0.00323057
-0.00198397
-0.00120779
-0.000728834
-0.000435936
-0.000258434
-0.000151838
-8.8407e-05
-5.10074e-05
-2.916e-05
-1.65163e-05
-9.26771e-06
-5.15143e-06
-2.83625e-06
-1.54665e-06
-8.35319e-07
-4.46861e-07
-2.36961e-07
-1.24977e-07
-6.64355e-08
-3.72817e-08
-2.52639e-08
-1754.09
-1737.09
-1703.6
-1654.62
-1591.59
-1516.29
-1430.79
-1337.31
-1238.15
-1135.59
-1031.8
-928.781
-828.312
-731.9
-640.766
-555.839
-477.762
-406.907
-343.407
-287.185
-237.991
-195.439
-159.045
-128.262
-102.506
-81.1853
-63.7228
-49.5687
-38.2139
-29.1976
-22.1101
-16.5944
-12.3443
-9.10158
-6.65152
-4.81823
-3.45961
-2.46234
-1.73724
-1.21499
-0.84235
-0.578938
-0.394455
-0.266439
-0.178417
-0.118447
-0.0779577
-0.0508685
-0.0329074
-0.0211053
-0.0134197
-0.00845939
-0.00528658
-0.00327521
-0.00201149
-0.0012246
-0.000739016
-0.000442048
-0.000262071
-0.000153983
-8.96605e-05
-5.17336e-05
-2.95769e-05
-1.67535e-05
-9.40143e-06
-5.22613e-06
-2.8776e-06
-1.56929e-06
-8.47611e-07
-4.53491e-07
-2.40515e-07
-1.26885e-07
-6.74299e-08
-3.78469e-08
-2.56425e-08
-1748.55
-1731.79
-1698.75
-1650.42
-1588.16
-1513.72
-1429.11
-1336.48
-1238.11
-1136.23
-1033.01
-930.436
-830.279
-734.058
-643.01
-558.08
-479.927
-408.945
-345.281
-288.872
-239.482
-196.735
-160.155
-129.198
-103.284
-81.8243
-64.2408
-49.9835
-38.5423
-29.4545
-22.309
-16.7466
-12.4597
-9.18807
-6.71571
-4.8654
-3.49392
-2.48705
-1.75487
-1.22745
-0.851074
-0.584987
-0.398611
-0.269267
-0.180325
-0.119721
-0.0788019
-0.0514225
-0.0332677
-0.0213376
-0.0135681
-0.00855335
-0.00534554
-0.00331188
-0.0020341
-0.00123842
-0.000747386
-0.000447073
-0.000265061
-0.000155747
-9.06916e-05
-5.2331e-05
-2.99199e-05
-1.69487e-05
-9.51149e-06
-5.28762e-06
-2.91162e-06
-1.58796e-06
-8.57762e-07
-4.58961e-07
-2.43446e-07
-1.28398e-07
-6.82553e-08
-3.83266e-08
-2.5974e-08
-1744.39
-1727.8
-1695.1
-1647.24
-1585.55
-1511.74
-1427.78
-1335.79
-1238.02
-1136.66
-1033.88
-931.646
-831.737
-735.675
-644.704
-559.782
-481.582
-410.51
-346.726
-290.179
-240.642
-197.747
-161.024
-129.932
-103.897
-82.3287
-64.6506
-50.3125
-38.8032
-29.6591
-22.4676
-16.8683
-12.552
-9.2574
-6.76723
-4.9033
-3.52153
-2.50697
-1.76909
-1.23751
-0.858121
-0.589878
-0.401974
-0.271558
-0.181871
-0.120755
-0.0794869
-0.0518723
-0.0335604
-0.0215263
-0.0136887
-0.00862973
-0.00539349
-0.00334171
-0.0020525
-0.00124967
-0.000754198
-0.000451164
-0.000267495
-0.000157183
-9.15311e-05
-5.28174e-05
-3.01993e-05
-1.71076e-05
-9.6011e-06
-5.33767e-06
-2.93931e-06
-1.60316e-06
-8.66041e-07
-4.63427e-07
-2.45819e-07
-1.29678e-07
-6.89501e-08
-3.86943e-08
-2.62374e-08
-1741.29
-1724.82
-1692.37
-1644.84
-1583.57
-1510.23
-1426.75
-1335.24
-1237.9
-1136.95
-1034.49
-932.526
-832.813
-736.878
-645.974
-561.066
-482.837
-411.702
-347.831
-291.183
-241.536
-198.53
-161.698
-130.504
-104.375
-82.7232
-64.972
-50.5709
-39.0086
-29.8205
-22.5929
-16.9646
-12.6252
-9.31243
-6.80818
-4.93346
-3.54352
-2.52285
-1.78045
-1.24555
-0.86376
-0.593795
-0.404669
-0.273395
-0.183111
-0.121585
-0.0800372
-0.0522338
-0.0337957
-0.0216781
-0.0137857
-0.00869122
-0.0054321
-0.00336574
-0.00206732
-0.00125873
-0.000759686
-0.000454459
-0.000269457
-0.00015834
-9.22076e-05
-5.32094e-05
-3.04243e-05
-1.72357e-05
-9.67332e-06
-5.37801e-06
-2.96166e-06
-1.61543e-06
-8.7269e-07
-4.66986e-07
-2.47727e-07
-1.30723e-07
-6.95022e-08
-3.90192e-08
-2.64328e-08
-1738.99
-1722.61
-1690.33
-1643.05
-1582.08
-1509.08
-1425.95
-1334.79
-1237.79
-1137.13
-1034.93
-933.164
-833.601
-737.769
-646.921
-562.028
-483.782
-412.604
-348.671
-291.948
-242.22
-199.13
-162.216
-130.945
-104.745
-83.0289
-65.2215
-50.7721
-39.1688
-29.9466
-22.6911
-17.0401
-12.6826
-9.3557
-6.84043
-4.95724
-3.56088
-2.5354
-1.78943
-1.25191
-0.868228
-0.596901
-0.406808
-0.274854
-0.184097
-0.122245
-0.0804751
-0.0525216
-0.0339831
-0.0217991
-0.0138631
-0.00874023
-0.00546288
-0.0033849
-0.00207913
-0.00126595
-0.000764064
-0.000457088
-0.000271021
-0.000159262
-9.27471e-05
-5.3522e-05
-3.06038e-05
-1.73378e-05
-9.73087e-06
-5.41021e-06
-2.9795e-06
-1.62518e-06
-8.77966e-07
-4.69849e-07
-2.49268e-07
-1.31522e-07
-6.99336e-08
-3.92574e-08
-2.66084e-08
-1737.28
-1720.97
-1688.82
-1641.72
-1580.97
-1508.22
-1425.35
-1334.45
-1237.69
-1137.25
-1035.24
-933.623
-834.176
-738.423
-647.621
-562.744
-484.488
-413.28
-349.303
-292.526
-242.738
-199.586
-162.611
-131.282
-105.028
-83.2638
-65.4136
-50.9272
-39.2926
-30.0442
-22.7671
-17.0987
-12.7273
-9.38939
-6.86557
-4.97581
-3.57446
-2.54522
-1.79647
-1.2569
-0.871734
-0.599341
-0.408489
-0.276001
-0.184873
-0.122765
-0.0808201
-0.0527485
-0.0341309
-0.0218945
-0.0139241
-0.00877892
-0.00548718
-0.00340003
-0.00208847
-0.00127166
-0.000767521
-0.000459164
-0.000272257
-0.000159991
-9.31729e-05
-5.37686e-05
-3.07454e-05
-1.74183e-05
-9.7763e-06
-5.43559e-06
-2.99353e-06
-1.63289e-06
-8.82168e-07
-4.72087e-07
-2.50449e-07
-1.32148e-07
-7.02508e-08
-3.94583e-08
-2.67819e-08
-1736.03
-1719.77
-1687.71
-1640.73
-1580.15
-1507.57
-1424.89
-1334.18
-1237.6
-1137.32
-1035.45
-933.952
-834.593
-738.902
-648.135
-563.273
-485.012
-413.784
-349.775
-292.959
-243.128
-199.93
-162.91
-131.538
-105.243
-83.4425
-65.5601
-51.0458
-39.3874
-30.119
-22.8255
-17.1438
-12.7617
-9.41539
-6.88499
-4.99017
-3.58496
-2.55283
-1.80193
-1.26078
-0.87446
-0.601239
-0.409798
-0.276896
-0.185478
-0.123171
-0.0810894
-0.0529256
-0.0342464
-0.021969
-0.0139718
-0.00880917
-0.00550619
-0.00341186
-0.00209576
-0.00127612
-0.000770223
-0.000460786
-0.000273222
-0.00016056
-9.35056e-05
-5.39613e-05
-3.08559e-05
-1.74812e-05
-9.81173e-06
-5.45535e-06
-3.00447e-06
-1.63889e-06
-8.85424e-07
-4.73843e-07
-2.51365e-07
-1.32639e-07
-7.05439e-08
-3.96328e-08
-2.68839e-08
-1735.12
-1718.89
-1686.89
-1640.01
-1579.54
-1507.09
-1424.55
-1333.97
-1237.52
-1137.36
-1035.6
-934.186
-834.894
-739.249
-648.511
-563.66
-485.397
-414.156
-350.126
-293.281
-243.418
-200.187
-163.134
-131.729
-105.405
-83.5774
-65.6709
-51.1356
-39.4593
-30.1759
-22.87
-17.1782
-12.788
-9.43526
-6.89986
-5.00117
-3.59303
-2.55868
-1.80612
-1.26376
-0.876558
-0.602701
-0.410807
-0.277586
-0.185946
-0.123484
-0.0812975
-0.0530626
-0.0343357
-0.0220267
-0.0140087
-0.00883258
-0.0055209
-0.00342101
-0.00210141
-0.00127957
-0.000772315
-0.000462042
-0.000273969
-0.000161001
-9.37628e-05
-5.41102e-05
-3.09414e-05
-1.75298e-05
-9.83907e-06
-5.47062e-06
-3.01291e-06
-1.64349e-06
-8.87937e-07
-4.75215e-07
-2.52094e-07
-1.33019e-07
-7.07535e-08
-3.97338e-08
-2.6963e-08
-1734.45
-1718.25
-1686.3
-1639.49
-1579.1
-1506.74
-1424.3
-1333.82
-1237.46
-1137.39
-1035.7
-934.353
-835.109
-739.499
-648.783
-563.942
-485.679
-414.429
-350.383
-293.519
-243.633
-200.378
-163.3
-131.872
-105.526
-83.6782
-65.7539
-51.203
-39.5134
-30.2188
-22.9036
-17.2042
-12.8079
-9.45031
-6.91113
-5.00953
-3.59915
-2.56312
-1.80932
-1.26604
-0.878159
-0.603818
-0.411578
-0.278113
-0.186303
-0.123724
-0.0814569
-0.0531675
-0.0344042
-0.022071
-0.014037
-0.00885053
-0.00553218
-0.00342804
-0.00210575
-0.00128222
-0.000773918
-0.000463004
-0.000274541
-0.000161338
-9.39597e-05
-5.42242e-05
-3.10067e-05
-1.75669e-05
-9.85997e-06
-5.48228e-06
-3.01935e-06
-1.64702e-06
-8.89855e-07
-4.76242e-07
-2.52652e-07
-1.33309e-07
-7.08754e-08
-3.9804e-08
-2.70552e-08
-1733.97
-1717.79
-1685.87
-1639.11
-1578.77
-1506.48
-1424.11
-1333.7
-1237.42
-1137.41
-1035.77
-934.47
-835.263
-739.679
-648.98
-564.147
-485.884
-414.628
-350.571
-293.693
-243.791
-200.518
-163.423
-131.978
-105.615
-83.753
-65.8155
-51.2531
-39.5536
-30.2507
-22.9286
-17.2236
-12.8228
-9.4616
-6.91959
-5.01581
-3.60376
-2.56647
-1.81173
-1.26775
-0.879369
-0.604662
-0.412162
-0.278513
-0.186574
-0.123906
-0.0815778
-0.0532471
-0.0344561
-0.0221045
-0.0140585
-0.00886416
-0.00554074
-0.00343337
-0.00210903
-0.00128423
-0.000775135
-0.000463734
-0.000274975
-0.000161593
-9.41089e-05
-5.43104e-05
-3.10561e-05
-1.7595e-05
-9.8758e-06
-5.49109e-06
-3.0242e-06
-1.64966e-06
-8.91294e-07
-4.7703e-07
-2.53094e-07
-1.33534e-07
-7.09873e-08
-3.98786e-08
-2.70705e-08
-1733.63
-1717.46
-1685.56
-1638.83
-1578.54
-1506.3
-1423.97
-1333.62
-1237.38
-1137.42
-1035.82
-934.552
-835.371
-739.807
-649.12
-564.293
-486.031
-414.771
-350.707
-293.819
-243.905
-200.621
-163.513
-132.055
-105.681
-83.8079
-65.8609
-51.2901
-39.5834
-30.2744
-22.9472
-17.238
-12.8338
-9.47
-6.9259
-5.02049
-3.6072
-2.56898
-1.81353
-1.26904
-0.880275
-0.605295
-0.4126
-0.278812
-0.186777
-0.124042
-0.0816686
-0.053307
-0.0344951
-0.0221298
-0.0140747
-0.00887442
-0.00554718
-0.00343738
-0.00211151
-0.00128574
-0.000776049
-0.000464283
-0.000275301
-0.000161785
-9.42207e-05
-5.4375e-05
-3.10932e-05
-1.7616e-05
-9.88761e-06
-5.49768e-06
-3.02782e-06
-1.65164e-06
-8.92375e-07
-4.77614e-07
-2.53392e-07
-1.3368e-07
-7.10872e-08
-3.99346e-08
-2.70958e-08
-1733.39
-1717.22
-1685.34
-1638.64
-1578.37
-1506.16
-1423.87
-1333.56
-1237.35
-1137.42
-1035.85
-934.609
-835.448
-739.897
-649.22
-564.398
-486.136
-414.874
-350.805
-293.91
-243.988
-200.695
-163.578
-132.111
-105.729
-83.848
-65.894
-51.3171
-39.6052
-30.2917
-22.9608
-17.2486
-12.842
-9.47618
-6.93055
-5.02395
-3.60975
-2.57083
-1.81486
-1.26999
-0.880947
-0.605765
-0.412925
-0.279035
-0.186928
-0.124144
-0.0817362
-0.0533515
-0.0345242
-0.0221486
-0.0140867
-0.00888205
-0.00555198
-0.00344036
-0.00211335
-0.00128686
-0.00077673
-0.00046469
-0.000275543
-0.000161928
-9.43038e-05
-5.4423e-05
-3.11206e-05
-1.76316e-05
-9.89636e-06
-5.50255e-06
-3.03052e-06
-1.65314e-06
-8.93141e-07
-4.78003e-07
-2.53606e-07
-1.33812e-07
-7.1164e-08
-3.99708e-08
-2.71199e-08
-1733.21
-1717.05
-1685.19
-1638.5
-1578.25
-1506.07
-1423.8
-1333.51
-1237.33
-1137.42
-1035.88
-934.649
-835.501
-739.961
-649.29
-564.472
-486.211
-414.947
-350.875
-293.975
-244.047
-200.748
-163.624
-132.152
-105.763
-83.8769
-65.9179
-51.3367
-39.621
-30.3043
-22.9708
-17.2563
-12.8479
-9.4807
-6.93395
-5.02648
-3.61161
-2.57219
-1.81584
-1.27069
-0.881441
-0.60611
-0.413164
-0.279199
-0.187039
-0.124219
-0.081786
-0.0533844
-0.0345457
-0.0221625
-0.0140956
-0.00888769
-0.00555552
-0.00344257
-0.00211471
-0.00128769
-0.000777231
-0.000464991
-0.000275721
-0.000162033
-9.43649e-05
-5.44583e-05
-3.11408e-05
-1.7643e-05
-9.90277e-06
-5.50611e-06
-3.03247e-06
-1.6542e-06
-8.93725e-07
-4.78312e-07
-2.53777e-07
-1.33927e-07
-7.12123e-08
-3.99544e-08
-2.71331e-08
-1733.09
-1716.94
-1685.08
-1638.4
-1578.17
-1506
-1423.75
-1333.48
-1237.32
-1137.42
-1035.89
-934.676
-835.538
-740.005
-649.339
-564.524
-486.264
-414.999
-350.924
-294.021
-244.09
-200.786
-163.658
-132.181
-105.788
-83.8976
-65.9351
-51.3508
-39.6324
-30.3134
-22.9779
-17.2619
-12.8522
-9.48397
-6.93641
-5.02831
-3.61296
-2.57317
-1.81655
-1.27119
-0.8818
-0.606362
-0.413338
-0.279319
-0.187121
-0.124273
-0.0818225
-0.0534084
-0.0345614
-0.0221726
-0.0141021
-0.00889181
-0.00555811
-0.00344418
-0.0021157
-0.0012883
-0.000777597
-0.00046521
-0.000275851
-0.000162109
-9.44093e-05
-5.44839e-05
-3.11554e-05
-1.76513e-05
-9.9074e-06
-5.50868e-06
-3.03387e-06
-1.65495e-06
-8.94149e-07
-4.78557e-07
-2.539e-07
-1.33985e-07
-7.12453e-08
-3.99928e-08
-2.71122e-08
-1733.01
-1716.86
-1685
-1638.33
-1578.11
-1505.95
-1423.72
-1333.46
-1237.31
-1137.42
-1035.9
-934.695
-835.564
-740.036
-649.374
-564.56
-486.301
-415.035
-350.959
-294.054
-244.119
-200.812
-163.681
-132.201
-105.805
-83.9123
-65.9474
-51.3608
-39.6405
-30.3199
-22.983
-17.2659
-12.8553
-9.48632
-6.93818
-5.02963
-3.61394
-2.57388
-1.81707
-1.27156
-0.88206
-0.606543
-0.413464
-0.279405
-0.18718
-0.124313
-0.0818488
-0.0534258
-0.0345727
-0.0221799
-0.0141068
-0.00889479
-0.00555998
-0.00344534
-0.00211642
-0.00128873
-0.000777862
-0.000465368
-0.000275945
-0.000162164
-9.44414e-05
-5.45024e-05
-3.1166e-05
-1.76572e-05
-9.91072e-06
-5.51053e-06
-3.0349e-06
-1.65551e-06
-8.94444e-07
-4.78713e-07
-2.53993e-07
-1.34033e-07
-7.12551e-08
-4.00125e-08
-2.71276e-08
-1732.95
-1716.8
-1684.95
-1638.28
-1578.07
-1505.92
-1423.69
-1333.44
-1237.3
-1137.42
-1035.91
-934.707
-835.581
-740.057
-649.397
-564.585
-486.326
-415.06
-350.983
-294.076
-244.14
-200.831
-163.698
-132.215
-105.818
-83.9227
-65.956
-51.3679
-39.6462
-30.3244
-22.9866
-17.2687
-12.8575
-9.48798
-6.93944
-5.03057
-3.61463
-2.57439
-1.81743
-1.27182
-0.882245
-0.606674
-0.413555
-0.279467
-0.187222
-0.124341
-0.0818677
-0.0534383
-0.0345809
-0.0221852
-0.0141102
-0.00889693
-0.00556133
-0.00344618
-0.00211693
-0.00128905
-0.000778051
-0.000465482
-0.000276012
-0.000162203
-9.44642e-05
-5.45155e-05
-3.11735e-05
-1.76615e-05
-9.91308e-06
-5.51184e-06
-3.03563e-06
-1.65591e-06
-8.94656e-07
-4.78798e-07
-2.54026e-07
-1.34085e-07
-7.13045e-08
-4.00235e-08
-2.71265e-08
-1732.91
-1716.76
-1684.91
-1638.25
-1578.04
-1505.9
-1423.68
-1333.43
-1237.29
-1137.42
-1035.91
-934.716
-835.593
-740.072
-649.413
-564.602
-486.344
-415.078
-351
-294.092
-244.154
-200.844
-163.709
-132.225
-105.826
-83.9299
-65.962
-51.3729
-39.6502
-30.3277
-22.9892
-17.2707
-12.859
-9.48916
-6.94032
-5.03123
-3.61512
-2.57475
-1.81769
-1.27201
-0.882377
-0.606766
-0.413619
-0.279511
-0.187252
-0.124361
-0.0818811
-0.0534471
-0.0345867
-0.022189
-0.0141126
-0.00889846
-0.00556228
-0.00344677
-0.0021173
-0.00128927
-0.000778186
-0.000465562
-0.00027606
-0.000162231
-9.44804e-05
-5.45248e-05
-3.11788e-05
-1.76645e-05
-9.91477e-06
-5.51274e-06
-3.03614e-06
-1.65621e-06
-8.94806e-07
-4.78892e-07
-2.5407e-07
-1.34088e-07
-7.13199e-08
-4.00224e-08
-2.71287e-08
-1732.88
-1716.73
-1684.89
-1638.23
-1578.02
-1505.88
-1423.67
-1333.42
-1237.29
-1137.42
-1035.92
-934.722
-835.601
-740.082
-649.425
-564.614
-486.356
-415.09
-351.011
-294.103
-244.164
-200.853
-163.717
-132.232
-105.832
-83.935
-65.9662
-51.3763
-39.653
-30.3299
-22.991
-17.2721
-12.8601
-9.48998
-6.94094
-5.0317
-3.61546
-2.575
-1.81787
-1.27214
-0.882469
-0.606831
-0.413664
-0.279542
-0.187273
-0.124376
-0.0818906
-0.0534534
-0.0345907
-0.0221916
-0.0141143
-0.00889953
-0.00556295
-0.00344719
-0.00211755
-0.00128943
-0.00077828
-0.000465618
-0.000276093
-0.000162251
-9.44917e-05
-5.45313e-05
-3.11825e-05
-1.76665e-05
-9.91594e-06
-5.51339e-06
-3.03646e-06
-1.65637e-06
-8.94913e-07
-4.78968e-07
-2.54113e-07
-1.34103e-07
-7.13298e-08
-4.00224e-08
-2.71254e-08
-1732.86
-1716.71
-1684.87
-1638.21
-1578.01
-1505.87
-1423.66
-1333.41
-1237.28
-1137.42
-1035.92
-934.726
-835.607
-740.088
-649.432
-564.622
-486.364
-415.098
-351.019
-294.11
-244.171
-200.859
-163.722
-132.237
-105.836
-83.9384
-65.9691
-51.3787
-39.6549
-30.3314
-22.9922
-17.273
-12.8608
-9.49054
-6.94137
-5.03202
-3.6157
-2.57517
-1.818
-1.27223
-0.882533
-0.606876
-0.413695
-0.279564
-0.187287
-0.124385
-0.0818972
-0.0534577
-0.0345936
-0.0221934
-0.0141155
-0.00890027
-0.00556342
-0.00344748
-0.00211773
-0.00128954
-0.000778346
-0.000465658
-0.000276116
-0.000162264
-9.44996e-05
-5.45358e-05
-3.1185e-05