/*--------------------------------*- C++ -*----------------------------------*\
  =========                 |
  \\      /  F ield         | OpenFOAM: The Open Source CFD Toolbox
   \\    /   O peration     | Website:  https://openfoam.org
    \\  /    A nd           | Version:  10
     \\/     M anipulation  |
\*---------------------------------------------------------------------------*/
FoamFile
{
    format      ascii;
    class       volScalarField;
    location    "122";
    object      gradTz;
}
// * * * * * * * * * * * * * * * * * * * * * * * * * * * * * * * * * * * * * //

dimensions      [0 -1 0 1 0 0 0];

internalField   nonuniform List<scalar> 
11250
(
-14389
-4183.06
-1559.92
-752.322
-442.643
-295.422
-212.135
-158.716
-121.382
-93.7678
-72.6022
-56.0491
-42.9865
-32.6679
-24.5544
-18.2293
-13.3541
-9.64593
-6.86638
-4.81498
-3.32522
-2.2611
-1.51368
-0.997533
-0.647114
-0.413234
-0.259774
-0.160782
-0.097995
-0.0588271
-0.0347814
-0.020242
-0.0115765
-0.00648599
-0.00354362
-0.00187716
-0.000958251
-0.000468703
-0.000218624
-9.69093e-05
-4.0732e-05
-1.62155e-05
-6.11296e-06
-2.18324e-06
-7.39394e-07
-2.37741e-07
-7.26875e-08
-2.11577e-08
-5.86896e-09
-1.55752e-09
-4.11607e-10
-9.98832e-11
-2.08547e-11
-1.4269e-11
0
0
0
0
0
0
0
0
-2.08547e-11
-1.09762e-12
2.19523e-11
1.09762e-12
-1.09762e-12
0
1.09762e-12
-1.09762e-12
0
-5.48809e-12
-1.09762e-12
6.5857e-12
0
-8370.77
-4964.07
-2862.23
-1757.39
-1164.22
-821.53
-606.169
-460.104
-354.825
-275.532
-214.074
-165.66
-127.27
-96.8416
-72.8594
-54.1312
-39.6776
-28.6734
-20.4187
-14.3229
-9.89398
-6.72924
-4.50569
-2.96978
-1.9268
-1.23056
-0.773653
-0.478872
-0.291883
-0.175225
-0.103605
-0.0603011
-0.0344941
-0.0193342
-0.0105704
-0.00560484
-0.00286465
-0.00140316
-0.000655523
-0.000291052
-0.000122538
-4.8864e-05
-1.84512e-05
-6.60039e-06
-2.23881e-06
-7.20961e-07
-2.20763e-07
-6.43544e-08
-1.78934e-08
-4.75927e-09
-1.20628e-09
-3.05138e-10
-7.13451e-11
-5.48809e-12
0
0
-2.19523e-12
0
5.48809e-12
-1.09762e-12
-3.29285e-12
1.09762e-12
1.09762e-12
8.78094e-12
-1.09762e-12
-1.20738e-11
1.09762e-12
2.19523e-12
-1.09762e-12
-4.39047e-12
1.09762e-12
4.39047e-12
0
-8.78094e-12
8.78094e-12
-5752.14
-4433.54
-3161.61
-2245.86
-1631.62
-1217.91
-929.82
-720.836
-563.46
-441.481
-345.124
-268.239
-206.732
-157.679
-118.846
-88.4218
-64.8846
-46.9316
-33.4451
-23.4746
-16.2239
-11.0391
-7.39415
-4.87512
-3.16384
-2.02106
-1.27088
-0.786757
-0.479594
-0.287932
-0.170259
-0.099114
-0.0567195
-0.0318165
-0.0174166
-0.00925122
-0.00473888
-0.00232726
-0.00109036
-0.000485586
-0.000205072
-8.20285e-05
-3.10686e-05
-1.11469e-05
-3.79188e-06
-1.22452e-06
-3.75929e-07
-1.09882e-07
-3.06411e-08
-8.18274e-09
-2.10304e-09
-5.00514e-10
-9.7688e-11
-3.07333e-11
-1.53666e-11
-2.19523e-12
6.58571e-12
9.87856e-12
0
5.48809e-12
0
0
1.09762e-12
5.48809e-12
-1.09762e-12
-5.48809e-12
0
0
0
-1.09762e-11
0
1.20738e-11
1.09762e-12
-1.09762e-12
-1.09762e-12
-4440.5
-3845.33
-3095.03
-2424.72
-1892.39
-1484.71
-1172.58
-930.17
-738.64
-585.136
-461.02
-360.365
-278.913
-213.418
-161.257
-120.21
-88.3485
-63.9837
-45.644
-32.0642
-22.1763
-15.0984
-10.1183
-6.67419
-4.33305
-2.76886
-1.74158
-1.07839
-0.657472
-0.394773
-0.233469
-0.135947
-0.0778415
-0.0437101
-0.0239667
-0.01276
-0.00655541
-0.00323046
-0.00151931
-0.000679356
-0.0002881
-0.000115724
-4.40135e-05
-1.58561e-05
-5.41547e-06
-1.75566e-06
-5.41044e-07
-1.58743e-07
-4.44414e-08
-1.18784e-08
-3.02833e-09
-7.36501e-10
-1.58057e-10
-3.95142e-11
-1.4269e-11
0
3.29285e-12
1.09762e-12
-2.19523e-12
0
-1.09762e-12
0
-1.20738e-11
-1.09762e-12
1.4269e-11
1.09762e-12
0
0
-2.19524e-12
0
8.78094e-12
1.09762e-12
-9.87856e-12
0
0
-3708.03
-3397.14
-2935
-2454.45
-2020.12
-1650.52
-1343.14
-1088.92
-878.466
-703.976
-559.396
-440.059
-342.249
-262.864
-199.201
-148.842
-109.597
-79.4937
-56.78
-39.929
-27.6402
-18.8326
-12.6289
-8.33482
-5.41376
-3.46086
-2.1776
-1.34875
-0.82249
-0.493946
-0.292179
-0.170192
-0.0975136
-0.0548206
-0.0301143
-0.0160747
-0.00828592
-0.00409944
-0.00193657
-0.000870076
-0.000370821
-0.000149709
-5.723e-05
-2.07221e-05
-7.11293e-06
-2.31733e-06
-7.17583e-07
-2.11541e-07
-5.94755e-08
-1.59703e-08
-4.09411e-09
-1.00761e-09
-2.305e-10
-3.84166e-11
-1.09762e-12
0
-5.48809e-12
0
1.20738e-11
0
-8.78094e-12
0
2.19523e-12
1.09762e-12
5.48809e-12
-2.19523e-12
-4.39047e-12
1.09762e-12
2.19523e-12
-5.48809e-12
-2.19523e-12
4.39047e-12
0
-5.48809e-12
5.48809e-12
-3266.37
-3081.24
-2776.47
-2423.95
-2072.58
-1747.31
-1457.45
-1204.26
-985.686
-798.646
-639.986
-506.73
-396.093
-305.427
-232.188
-173.931
-128.336
-93.2439
-66.6955
-46.9574
-32.5382
-22.1888
-14.8905
-9.83365
-6.39082
-4.08742
-2.57288
-1.59412
-0.972391
-0.584108
-0.345599
-0.201385
-0.115464
-0.0649889
-0.0357671
-0.0191436
-0.0099027
-0.00492039
-0.00233584
-0.00105513
-0.000452264
-0.000183671
-7.06363e-05
-2.57312e-05
-8.88547e-06
-2.91205e-06
-9.07015e-07
-2.68886e-07
-7.60045e-08
-2.05222e-08
-5.296e-09
-1.31934e-09
-3.11723e-10
-5.81737e-11
0
0
-5.48809e-12
-6.58571e-12
6.5857e-12
4.39047e-12
-1.09762e-12
0
4.39047e-12
0
-5.48809e-12
1.09762e-12
0
0
0
-1.09762e-11
-2.19523e-12
4.39047e-12
1.09762e-12
4.39047e-12
3.29285e-12
-2986
-2862.42
-2645.64
-2375.68
-2086.4
-1800.6
-1531.41
-1285.43
-1065.35
-871.755
-704.027
-560.879
-440.572
-341.063
-260.103
-195.348
-144.447
-105.136
-75.3135
-53.0916
-36.8281
-25.1373
-16.8825
-11.1569
-7.25511
-4.64261
-2.92367
-1.81216
-1.10575
-0.664401
-0.393216
-0.229217
-0.131504
-0.0740982
-0.0408541
-0.0219252
-0.0113831
-0.00568198
-0.00271197
-0.00123245
-0.00053171
-0.000217408
-8.41952e-05
-3.08865e-05
-1.07406e-05
-3.54446e-06
-1.11153e-06
-3.31742e-07
-9.43732e-08
-2.56305e-08
-6.64827e-09
-1.63984e-09
-3.9624e-10
-8.67118e-11
-5.48809e-12
0
-2.19524e-12
0
2.19523e-12
2.19524e-12
0
1.09762e-12
-1.09762e-12
-1.09762e-12
1.09762e-12
-1.09762e-12
0
0
0
0
0
-4.39047e-12
-1.09762e-12
0
5.48809e-12
-2801.98
-2711.05
-2545.07
-2327.73
-2082.43
-1828.02
-1577.98
-1341.18
-1123.1
-926.783
-753.608
-603.723
-476.375
-370.144
-283.141
-213.185
-157.967
-115.179
-82.6306
-58.3236
-40.5013
-27.6704
-18.5989
-12.2999
-8.00333
-5.12418
-3.22846
-2.00191
-1.22196
-0.734448
-0.434791
-0.253534
-0.14553
-0.08208
-0.0453311
-0.0243929
-0.0127124
-0.0063768
-0.00306167
-0.00140074
-0.000608737
-0.000250816
-9.78976e-05
-3.61973e-05
-1.26862e-05
-4.21873e-06
-1.33291e-06
-4.00697e-07
-1.14788e-07
-3.13732e-08
-8.17725e-09
-2.05254e-09
-5.09295e-10
-1.03176e-10
-1.31714e-11
0
-5.48809e-12
0
8.78094e-12
0
2.19523e-12
0
3.29285e-12
0
0
-1.09762e-12
0
-1.20738e-11
0
1.31714e-11
1.09762e-12
-8.78094e-12
-8.78094e-12
4.39047e-12
1.09762e-11
-2678.64
-2606.1
-2470.38
-2286.66
-2071.68
-1840.8
-1606.63
-1378.77
-1164.13
-967.327
-791.141
-636.848
-504.526
-393.324
-301.71
-227.698
-169.053
-123.469
-88.7044
-62.6875
-43.5779
-29.7996
-20.0462
-13.2663
-8.63748
-5.5332
-3.48784
-2.16365
-1.32117
-0.794316
-0.470346
-0.274332
-0.157529
-0.0889173
-0.0491832
-0.0265353
-0.0138831
-0.00700039
-0.0033825
-0.00155879
-0.000682785
-0.000283652
-0.000111645
-4.16259e-05
-1.47086e-05
-4.93024e-06
-1.56962e-06
-4.75327e-07
-1.37148e-07
-3.7724e-08
-9.90271e-09
-2.48171e-09
-6.11373e-10
-1.43788e-10
-3.29285e-12
2.305e-11
-5.48809e-12
-2.41476e-11
0
1.09762e-12
1.09762e-12
-1.09762e-12
0
0
1.09762e-12
6.58571e-12
-1.09762e-12
-6.5857e-12
1.09762e-12
-1.09762e-12
0
1.09762e-12
0
-1.09762e-12
0
-2594.94
-2533.25
-2416.03
-2253.89
-2059.54
-1845.7
-1623.9
-1403.75
-1192.82
-996.661
-818.999
-661.931
-526.19
-411.402
-316.353
-239.248
-177.946
-130.163
-93.6375
-66.2494
-46.0999
-31.5517
-21.2409
-14.0664
-9.16384
-5.87348
-3.70407
-2.29875
-1.40417
-0.844453
-0.500132
-0.291746
-0.167567
-0.0946414
-0.0524214
-0.0283537
-0.0148923
-0.007549
-0.00367134
-0.00170448
-0.000752587
-0.000315247
-0.000125116
-4.70313e-05
-1.67505e-05
-5.65735e-06
-1.81412e-06
-5.53097e-07
-1.60598e-07
-4.44623e-08
-1.17357e-08
-2.97015e-09
-7.2772e-10
-1.55862e-10
-2.305e-11
8.78094e-12
0
-1.75619e-11
0
3.29285e-12
0
9.87856e-12
0
-9.87856e-12
0
1.64643e-11
1.09762e-12
-1.64643e-11
-1.09762e-12
2.19524e-12
5.48809e-12
-2.19524e-12
-5.48809e-12
0
0
-2537.78
-2482.69
-2377.01
-2228.85
-2048.41
-1846.65
-1634.1
-1420.14
-1212.6
-1017.55
-839.317
-680.572
-542.537
-425.216
-327.663
-248.25
-184.931
-135.456
-97.5606
-69.0964
-48.1245
-32.9636
-22.2071
-14.7153
-9.5919
-6.15088
-3.88074
-2.40935
-1.47222
-0.885605
-0.524578
-0.306022
-0.175783
-0.0993226
-0.055077
-0.0298575
-0.0157391
-0.00801815
-0.00392356
-0.00183435
-0.000816004
-0.000344437
-0.000137743
-5.21604e-05
-1.87084e-05
-6.36074e-06
-2.05242e-06
-6.29401e-07
-1.83725e-07
-5.11314e-08
-1.35753e-08
-3.43774e-09
-8.27604e-10
-1.8879e-10
-4.06118e-11
-4.39047e-12
-1.09762e-12
-2.19523e-12
-2.19523e-12
1.09762e-12
1.09762e-12
0
-1.09762e-12
-1.09762e-12
1.09762e-12
1.09762e-12
1.09762e-12
-1.09762e-12
0
0
1.09762e-12
-6.5857e-12
0
5.48809e-12
0
-2498.68
-2447.69
-2349.33
-2210.24
-2039.16
-1845.81
-1639.99
-1430.79
-1226.08
-1032.22
-853.903
-694.187
-554.649
-435.574
-336.229
-255.128
-190.308
-139.558
-100.618
-71.326
-49.717
-34.0785
-22.9726
-15.2311
-9.93308
-6.37254
-4.02224
-2.49812
-1.52694
-0.91872
-0.544242
-0.317482
-0.182358
-0.103059
-0.0571967
-0.0310637
-0.0164253
-0.00840376
-0.00413419
-0.0019445
-0.000870554
-0.000369854
-0.000148851
-5.67122e-05
-2.04586e-05
-6.99339e-06
-2.26786e-06
-6.98679e-07
-2.04798e-07
-5.72155e-08
-1.52514e-08
-3.8713e-09
-9.5383e-10
-2.305e-10
-4.06118e-11
-2.19523e-12
0
-1.09762e-12
-1.09762e-12
3.29285e-12
1.4269e-11
-2.19523e-12
-1.31714e-11
0
-9.87856e-12
-2.08547e-11
8.78094e-12
2.19523e-11
0
0
0
0
-2.19524e-12
-3.29285e-12
5.48809e-12
-2471.97
-2423.57
-2329.88
-2196.72
-2031.89
-1844.33
-1643.3
-1437.64
-1235.17
-1042.39
-864.219
-703.973
-563.469
-443.202
-342.597
-260.284
-194.368
-142.674
-102.953
-73.0378
-50.9452
-34.9417
-23.5673
-15.6331
-10.1997
-6.54625
-4.13341
-2.56801
-1.57009
-0.944852
-0.559746
-0.326492
-0.187503
-0.105966
-0.0588386
-0.031997
-0.0169579
-0.00870518
-0.00430031
-0.00203219
-0.000914366
-0.000390427
-0.000157903
-6.04424e-05
-2.18998e-05
-7.51642e-06
-2.44659e-06
-7.56329e-07
-2.22405e-07
-6.22997e-08
-1.66487e-08
-4.26205e-09
-1.06249e-09
-2.56842e-10
-5.26856e-11
-5.48809e-12
0
0
0
2.19524e-12
-2.19524e-12
6.5857e-12
0
-1.86595e-11
-4.39047e-12
9.87856e-12
3.29285e-12
3.29285e-12
1.09762e-12
0
-1.09762e-12
0
0
1.09762e-12
-1.09762e-12
-2453.8
-2407.05
-2316.37
-2187.07
-2026.4
-1842.79
-1645.11
-1442
-1241.24
-1049.36
-871.416
-710.899
-569.787
-448.722
-347.248
-264.079
-197.376
-144.997
-104.704
-74.3272
-51.8741
-35.597
-24.0204
-15.9403
-10.4042
-6.6798
-4.2191
-2.62201
-1.60349
-0.965085
-0.571733
-0.333432
-0.191439
-0.10817
-0.060071
-0.0326911
-0.0173518
-0.00892762
-0.00442304
-0.00209716
-0.000946948
-0.000405785
-0.000164685
-6.32462e-05
-2.29863e-05
-7.91175e-06
-2.58198e-06
-8.00084e-07
-2.35775e-07
-6.61743e-08
-1.77298e-08
-4.55731e-09
-1.13823e-09
-2.79892e-10
-5.81737e-11
-3.29285e-12
-8.78094e-12
-8.78094e-12
4.39047e-12
8.78094e-12
4.39047e-12
0
-1.20738e-11
-1.09762e-12
1.31714e-11
2.19523e-12
-2.19523e-12
-1.09762e-12
1.09762e-12
-1.09762e-12
-4.39047e-12
-7.68332e-12
3.29285e-12
1.31714e-11
-3.29285e-12
-2441.52
-2395.82
-2307.07
-2180.29
-2022.37
-1841.42
-1646.06
-1444.76
-1245.24
-1054.07
-876.368
-715.73
-574.243
-452.653
-350.587
-266.823
-199.566
-146.698
-105.992
-75.2802
-52.5635
-36.0852
-24.3591
-16.1707
-10.5579
-6.78055
-4.28393
-2.66297
-1.62886
-0.980463
-0.580828
-0.338673
-0.194386
-0.1098
-0.0609675
-0.0331873
-0.0176289
-0.00908226
-0.00450772
-0.00214182
-0.000969312
-0.000416327
-0.000169345
-6.51752e-05
-2.37348e-05
-8.18455e-06
-2.67555e-06
-8.30389e-07
-2.45057e-07
-6.88557e-08
-1.84619e-08
-4.7472e-09
-1.17226e-09
-2.93064e-10
-7.57356e-11
1.09762e-12
0
-5.48809e-12
1.09762e-12
0
-2.19524e-12
0
1.09762e-12
0
4.39047e-12
0
-4.39047e-12
-1.09762e-12
0
-4.39047e-12
4.39047e-12
5.48809e-12
-4.39047e-12
1.09762e-12
-1.09762e-12
-2433.27
-2388.25
-2300.74
-2175.6
-2019.5
-1840.32
-1646.54
-1446.49
-1247.86
-1057.22
-879.733
-719.051
-577.338
-455.407
-352.944
-268.773
-201.132
-147.92
-106.923
-75.9718
-53.0658
-36.4423
-24.6077
-16.3403
-10.6715
-6.85518
-4.3321
-2.69348
-1.64779
-0.991942
-0.587602
-0.342555
-0.196549
-0.110978
-0.0616015
-0.0335294
-0.017815
-0.00918382
-0.0045624
-0.00217034
-0.000983498
-0.00042299
-0.000172284
-6.63913e-05
-2.42068e-05
-8.35664e-06
-2.73465e-06
-8.49549e-07
-2.50931e-07
-7.05878e-08
-1.89646e-08
-4.8822e-09
-1.19091e-09
-2.86478e-10
-5.48809e-11
1.4269e-11
-1.09762e-12
0
5.48809e-12
1.09762e-12
-8.78094e-12
-1.09762e-12
5.48809e-12
8.78094e-12
0
-8.78094e-12
0
-4.39047e-12
0
-6.58571e-12
-1.09762e-12
9.87856e-12
9.87856e-12
1.09762e-12
-8.78094e-12
-2427.78
-2383.19
-2296.49
-2172.4
-2017.48
-1839.48
-1646.75
-1447.56
-1249.56
-1059.31
-881.989
-721.303
-579.455
-457.306
-354.581
-270.136
-202.232
-148.784
-107.584
-76.4648
-53.4253
-36.6987
-24.7867
-16.4629
-10.7538
-6.90945
-4.36723
-2.71579
-1.66166
-1.00035
-0.592556
-0.345378
-0.198104
-0.111811
-0.0620393
-0.0337583
-0.0179353
-0.00924729
-0.00459567
-0.00218736
-0.000991853
-0.000426882
-0.000173993
-6.70964e-05
-2.44801e-05
-8.45627e-06
-2.76885e-06
-8.60633e-07
-2.54354e-07
-7.15844e-08
-1.92346e-08
-4.95245e-09
-1.21616e-09
-2.74404e-10
-5.37833e-11
-3.29285e-12
6.5857e-12
8.78094e-12
-1.09762e-12
-8.78094e-12
0
0
-2.19523e-12
4.39047e-12
2.19523e-12
-5.48809e-12
-2.19523e-12
0
2.19523e-12
-6.5857e-12
-4.39047e-12
6.5857e-12
4.39047e-12
8.78094e-12
-7.68332e-12
-2424.16
-2379.84
-2293.65
-2170.25
-2016.09
-1838.86
-1646.83
-1448.22
-1250.65
-1060.67
-883.483
-722.809
-580.883
-458.596
-355.7
-271.074
-202.993
-149.385
-108.045
-76.8101
-53.678
-36.8795
-24.9135
-16.5499
-10.8124
-6.94821
-4.39239
-2.73181
-1.67164
-1.0064
-0.596106
-0.347389
-0.199201
-0.112388
-0.0623352
-0.0339078
-0.0180107
-0.00928545
-0.00461494
-0.00219693
-0.000996457
-0.000428998
-0.000174914
-6.74743e-05
-2.46261e-05
-8.50936e-06
-2.78708e-06
-8.66539e-07
-2.56174e-07
-7.21266e-08
-1.93631e-08
-4.95355e-09
-1.21945e-09
-3.05138e-10
-7.02475e-11
-1.09762e-12
-1.09762e-12
0
-1.09762e-12
0
0
1.09762e-12
-1.09762e-12
0
0
0
-1.09762e-12
0
1.09762e-12
-1.4269e-11
4.39047e-12
9.87856e-12
-3.29285e-12
4.39047e-12
-1.09762e-12
-2421.81
-2377.66
-2291.79
-2168.82
-2015.16
-1838.43
-1646.85
-1448.63
-1251.34
-1061.55
-884.46
-723.802
-581.832
-459.459
-356.453
-271.708
-203.51
-149.794
-108.361
-77.0478
-53.8526
-37.0049
-25.0016
-16.6106
-10.8534
-6.97542
-4.4101
-2.7431
-1.67866
-1.01065
-0.598595
-0.348789
-0.199957
-0.112779
-0.062531
-0.0340034
-0.0180569
-0.00930773
-0.00462569
-0.00220207
-0.000998855
-0.000430077
-0.000175377
-6.76627e-05
-2.46985e-05
-8.53561e-06
-2.79607e-06
-8.69437e-07
-2.57054e-07
-7.23912e-08
-1.94256e-08
-4.96562e-09
-1.23153e-09
-3.11723e-10
-6.69547e-11
1.09762e-12
-1.09762e-12
0
1.09762e-12
0
-3.29285e-12
0
3.29285e-12
0
1.09762e-12
8.78094e-12
0
-9.87856e-12
0
0
9.87856e-12
3.29285e-12
-1.4269e-11
-2.19523e-12
3.29285e-12
-2420.28
-2376.25
-2290.58
-2167.89
-2014.54
-1838.12
-1646.85
-1448.87
-1251.78
-1062.11
-885.09
-724.448
-582.454
-460.028
-356.952
-272.13
-203.856
-150.07
-108.574
-77.2086
-53.9711
-37.0903
-25.0619
-16.6522
-10.8817
-6.99418
-4.42233
-2.7509
-1.68352
-1.01358
-0.600297
-0.349739
-0.200464
-0.113038
-0.0626575
-0.0340633
-0.0180846
-0.00932048
-0.00463152
-0.00220473
-0.00100005
-0.000430599
-0.000175597
-6.77507e-05
-2.4732e-05
-8.5477e-06
-2.80021e-06
-8.70783e-07
-2.57487e-07
-7.25086e-08
-1.94454e-08
-4.96782e-09
-1.21506e-09
-2.9965e-10
-7.90285e-11
-2.305e-11
1.09762e-12
-1.09762e-12
2.19523e-12
-2.19523e-12
-1.09762e-11
3.29285e-12
7.68332e-12
-8.78094e-12
-1.09762e-11
9.87856e-12
9.87856e-12
5.48809e-12
-1.09762e-12
-4.39047e-12
0
-1.09762e-12
0
0
1.09762e-12
-2419.31
-2375.35
-2289.81
-2167.29
-2014.13
-1837.92
-1646.83
-1449.02
-1252.05
-1062.47
-885.492
-724.863
-582.856
-460.397
-357.278
-272.407
-204.084
-150.251
-108.715
-77.3156
-54.0503
-37.1475
-25.1023
-16.6803
-10.9007
-7.00691
-4.43064
-2.75619
-1.6868
-1.01555
-0.601432
-0.350366
-0.200794
-0.113204
-0.062737
-0.0340999
-0.018101
-0.00932765
-0.00463464
-0.00220608
-0.00100063
-0.000430842
-0.000175696
-6.77897e-05
-2.47466e-05
-8.55291e-06
-2.80195e-06
-8.71362e-07
-2.5766e-07
-7.25317e-08
-1.94575e-08
-4.99087e-09
-1.23811e-09
-3.07333e-10
-6.0369e-11
8.78094e-12
-4.39047e-12
-1.75619e-11
1.09762e-12
0
-1.09762e-11
-1.09762e-12
1.31714e-11
0
-2.19523e-12
0
1.09762e-12
-1.09762e-12
0
-2.19524e-12
-2.19523e-12
6.58571e-12
-3.29285e-12
-7.68332e-12
8.78094e-12
-2418.7
-2374.78
-2289.32
-2166.9
-2013.87
-1837.79
-1646.81
-1449.1
-1252.21
-1062.69
-885.744
-725.126
-583.111
-460.634
-357.487
-272.586
-204.232
-150.37
-108.807
-77.3856
-54.1021
-37.1851
-25.1291
-16.6989
-10.9135
-7.01541
-4.43619
-2.75973
-1.68898
-1.01684
-0.602172
-0.350769
-0.201003
-0.113307
-0.0627855
-0.0341217
-0.0181104
-0.00933161
-0.00463628
-0.00220675
-0.0010009
-0.000430951
-0.000175739
-6.78062e-05
-2.47527e-05
-8.55504e-06
-2.8027e-06
-8.71576e-07
-2.57693e-07
-7.25591e-08
-1.94673e-08
-5.00404e-09
-1.2458e-09
-2.9965e-10
-6.69547e-11
4.39047e-12
0
-9.87856e-12
0
0
0
0
-1.64643e-11
0
1.64643e-11
0
1.09762e-12
0
0
-1.31714e-11
0
1.20738e-11
-3.29285e-12
1.09762e-12
2.19524e-12
-2418.32
-2374.42
-2289.01
-2166.66
-2013.7
-1837.7
-1646.8
-1449.15
-1252.31
-1062.82
-885.901
-725.29
-583.272
-460.783
-357.62
-272.699
-204.326
-150.445
-108.866
-77.4305
-54.1356
-37.2094
-25.1464
-16.711
-10.9218
-7.02101
-4.43986
-2.76207
-1.69041
-1.01769
-0.602646
-0.351023
-0.201132
-0.11337
-0.0628143
-0.0341343
-0.0181157
-0.00933376
-0.00463713
-0.00220708
-0.00100103
-0.000431
-0.000175757
-6.78129e-05
-2.47551e-05
-8.55588e-06
-2.80296e-06
-8.71666e-07
-2.57728e-07
-7.25646e-08
-1.9475e-08
-4.99635e-09
-1.23701e-09
-3.02942e-10
-7.13451e-11
-7.68332e-12
-7.68332e-12
-1.09762e-12
7.68332e-12
1.09762e-12
0
0
0
-1.09762e-12
-4.39047e-12
1.20738e-11
4.39047e-12
-1.09762e-11
-2.19523e-12
-1.09762e-12
2.19523e-12
0
0
-1.09762e-11
1.20738e-11
-2418.09
-2374.2
-2288.82
-2166.51
-2013.6
-1837.64
-1646.79
-1449.18
-1252.37
-1062.91
-885.997
-725.391
-583.371
-460.876
-357.703
-272.771
-204.385
-150.493
-108.903
-77.4589
-54.1567
-37.2248
-25.1574
-16.7188
-10.9271
-7.02464
-4.44226
-2.76359
-1.69134
-1.01823
-0.602948
-0.351182
-0.201212
-0.113407
-0.0628311
-0.0341415
-0.0181186
-0.00933491
-0.00463756
-0.00220724
-0.00100109
-0.000431021
-0.000175765
-6.78156e-05
-2.4756e-05
-8.55618e-06
-2.80307e-06
-8.71704e-07
-2.57732e-07
-7.25811e-08
-1.94959e-08
-4.99196e-09
-1.23043e-09
-3.12821e-10
-6.0369e-11
2.19523e-12
7.68332e-12
1.09762e-12
-1.20738e-11
0
-1.09762e-12
-1.09762e-12
-2.19524e-12
0
1.75619e-11
0
-1.4269e-11
0
1.09762e-12
-5.48809e-12
-2.19523e-12
6.58571e-12
-1.09762e-12
-1.09762e-12
2.19524e-12
-2417.95
-2374.07
-2288.71
-2166.42
-2013.54
-1837.61
-1646.78
-1449.2
-1252.41
-1062.96
-886.055
-725.453
-583.432
-460.932
-357.754
-272.815
-204.421
-150.522
-108.927
-77.4765
-54.1698
-37.2344
-25.1643
-16.7237
-10.9305
-7.02698
-4.44381
-2.76459
-1.69195
-1.01858
-0.60314
-0.351281
-0.20126
-0.113429
-0.0628409
-0.0341456
-0.0181202
-0.00933552
-0.00463779
-0.00220732
-0.00100111
-0.000431031
-0.000175768
-6.78166e-05
-2.47563e-05
-8.5563e-06
-2.80311e-06
-8.71715e-07
-2.57733e-07
-7.25931e-08
-1.95134e-08
-5.00184e-09
-1.22384e-09
-3.0404e-10
-5.26856e-11
1.53666e-11
-2.19524e-12
-3.29285e-12
-5.48809e-12
2.19524e-12
1.09762e-12
-3.29285e-12
4.39047e-12
4.39047e-12
-4.39047e-12
-2.19524e-12
0
0
0
0
0
0
1.09762e-12
1.09762e-12
-2.19524e-12
-2417.86
-2373.99
-2288.64
-2166.37
-2013.5
-1837.59
-1646.78
-1449.21
-1252.43
-1062.99
-886.09
-725.49
-583.469
-460.967
-357.785
-272.841
-204.444
-150.54
-108.941
-77.4872
-54.1777
-37.2402
-25.1684
-16.7266
-10.9327
-7.02844
-4.4448
-2.76522
-1.69234
-1.01881
-0.603261
-0.351343
-0.20129
-0.113443
-0.0628465
-0.0341479
-0.0181211
-0.00933585
-0.0046379
-0.00220736
-0.00100113
-0.000431035
-0.000175769
-6.78171e-05
-2.47565e-05
-8.55634e-06
-2.80313e-06
-8.71701e-07
-2.57732e-07
-7.25942e-08
-1.95134e-08
-5.01501e-09
-1.22933e-09
-2.90869e-10
-5.70761e-11
-3.29285e-12
8.78094e-12
-2.19523e-12
-5.48809e-12
1.09762e-12
-2.19523e-12
0
2.19523e-12
-2.19523e-12
-2.19523e-12
4.39047e-12
1.09762e-12
-3.29285e-12
0
0
2.19523e-12
0
-2.19523e-12
-5.48809e-12
5.48809e-12
-2417.81
-2373.95
-2288.6
-2166.33
-2013.48
-1837.57
-1646.77
-1449.21
-1252.44
-1063
-886.111
-725.512
-583.491
-460.987
-357.803
-272.857
-204.457
-150.551
-108.949
-77.4936
-54.1824
-37.2436
-25.1709
-16.7284
-10.9339
-7.02935
-4.44542
-2.76563
-1.69259
-1.01895
-0.603338
-0.351381
-0.201308
-0.113451
-0.0628499
-0.0341492
-0.0181216
-0.00933602
-0.00463796
-0.00220738
-0.00100113
-0.000431037
-0.00017577
-6.78172e-05
-2.47565e-05
-8.55636e-06
-2.80311e-06
-8.71716e-07
-2.57769e-07
-7.26041e-08
-1.9508e-08
-4.99526e-09
-1.23262e-09
-2.89771e-10
-5.59785e-11
-1.09762e-11
0
-1.09762e-12
0
0
-2.19524e-12
0
-4.39047e-12
-1.09762e-12
5.48809e-12
1.09762e-12
0
2.19523e-12
-1.09762e-12
-6.58571e-12
0
2.19524e-12
-1.4269e-11
4.39047e-12
1.31714e-11
-2417.78
-2373.92
-2288.57
-2166.31
-2013.46
-1837.57
-1646.77
-1449.22
-1252.45
-1063.02
-886.123
-725.524
-583.503
-460.999
-357.814
-272.867
-204.465
-150.557
-108.954
-77.4972
-54.1851
-37.2455
-25.1723
-16.7294
-10.9347
-7.02989
-4.4458
-2.76587
-1.69274
-1.01904
-0.603385
-0.351405
-0.201319
-0.113455
-0.0628518
-0.0341499
-0.0181219
-0.00933612
-0.00463799
-0.00220739
-0.00100114
-0.000431038
-0.00017577
-6.78173e-05
-2.47565e-05
-8.55634e-06
-2.8031e-06
-8.71719e-07
-2.57772e-07
-7.26392e-08
-1.95091e-08
-4.99635e-09
-1.23811e-09
-2.91966e-10
-5.1588e-11
1.09762e-12
0
1.09762e-12
0
-2.19524e-12
0
-5.48809e-12
-1.75619e-11
4.39047e-12
1.86595e-11
0
-1.09762e-12
1.09762e-12
0
0
0
0
0
8.78094e-12
-8.78094e-12
-2417.77
-2373.9
-2288.56
-2166.3
-2013.45
-1837.56
-1646.77
-1449.22
-1252.46
-1063.02
-886.13
-725.532
-583.511
-461.006
-357.82
-272.872
-204.469
-150.561
-108.957
-77.4993
-54.1866
-37.2466
-25.1731
-16.73
-10.9351
-7.03019
-4.44602
-2.76602
-1.69283
-1.01909
-0.603413
-0.351419
-0.201325
-0.113458
-0.0628529
-0.0341504
-0.018122
-0.00933617
-0.00463801
-0.00220739
-0.00100114
-0.000431038
-0.00017577
-6.78173e-05
-2.47565e-05
-8.55635e-06
-2.80312e-06
-8.71727e-07
-2.57785e-07
-7.2637e-08
-1.95058e-08
-4.99306e-09
-1.22494e-09
-2.97454e-10
-6.36618e-11
-1.09762e-12
0
0
-1.09762e-12
0
1.09762e-12
-1.09762e-12
0
1.09762e-12
-3.29285e-12
0
3.29285e-12
9.87856e-12
3.29285e-12
-8.78094e-12
-2.41476e-11
-1.09762e-12
1.64643e-11
2.19523e-12
2.19523e-12
-2417.76
-2373.89
-2288.55
-2166.3
-2013.45
-1837.56
-1646.77
-1449.22
-1252.46
-1063.02
-886.135
-725.536
-583.515
-461.01
-357.824
-272.875
-204.472
-150.563
-108.958
-77.5005
-54.1874
-37.2471
-25.1735
-16.7303
-10.9353
-7.03036
-4.44613
-2.7661
-1.69288
-1.01912
-0.603428
-0.351426
-0.201329
-0.11346
-0.0628536
-0.0341506
-0.0181221
-0.0093362
-0.00463802
-0.0022074
-0.00100114
-0.000431038
-0.00017577
-6.78173e-05
-2.47565e-05
-8.55633e-06
-2.80312e-06
-8.7172e-07
-2.57754e-07
-7.26261e-08
-1.952e-08
-4.99416e-09
-1.22714e-09
-3.02942e-10
-5.92713e-11
8.78094e-12
-1.09762e-12
-9.87856e-12
0
-1.09762e-12
1.09762e-12
0
0
0
0
0
9.87856e-12
2.19523e-12
-9.87856e-12
-6.58571e-12
-1.09762e-12
5.48809e-12
0
0
0
-2417.75
-2373.89
-2288.55
-2166.29
-2013.45
-1837.56
-1646.77
-1449.22
-1252.46
-1063.03
-886.137
-725.539
-583.518
-461.013
-357.826
-272.877
-204.473
-150.564
-108.959
-77.501
-54.1878
-37.2474
-25.1737
-16.7305
-10.9354
-7.03045
-4.4462
-2.76614
-1.69291
-1.01913
-0.603437
-0.351431
-0.20133
-0.11346
-0.0628539
-0.0341507
-0.0181222
-0.00933621
-0.00463802
-0.0022074
-0.00100114
-0.000431038
-0.00017577
-6.78174e-05
-2.47565e-05
-8.55635e-06
-2.8031e-06
-8.7172e-07
-2.57764e-07
-7.26085e-08
-1.95178e-08
-5.01062e-09
-1.21506e-09
-2.71112e-10
-5.04904e-11
-1.09762e-12
-1.31714e-11
-9.87856e-12
1.20738e-11
-1.09762e-12
-4.39047e-12
-3.29285e-12
4.39047e-12
3.29285e-12
0
0
1.09762e-12
-1.09762e-12
7.68332e-12
1.09762e-12
-4.39047e-12
0
-2.19524e-12
0
-2.19524e-12
-2417.75
-2373.88
-2288.55
-2166.29
-2013.45
-1837.56
-1646.77
-1449.22
-1252.46
-1063.03
-886.138
-725.54
-583.519
-461.014
-357.827
-272.878
-204.474
-150.565
-108.959
-77.5013
-54.188
-37.2476
-25.1738
-16.7305
-10.9355
-7.03049
-4.44623
-2.76616
-1.69292
-1.01914
-0.603441
-0.351433
-0.201331
-0.113461
-0.062854
-0.0341508
-0.0181222
-0.00933622
-0.00463802
-0.0022074
-0.00100114
-0.000431038
-0.00017577
-6.78174e-05
-2.47566e-05
-8.55636e-06
-2.80311e-06
-8.71706e-07
-2.57758e-07
-7.26107e-08
-1.95167e-08
-5.00075e-09
-1.20738e-09
-2.71112e-10
-5.70761e-11
-4.39047e-12
-1.75619e-11
-9.87856e-12
5.48809e-12
5.48809e-12
1.20738e-11
4.39047e-12
-2.19523e-12
0
-7.68332e-12
0
1.4269e-11
0
-4.39047e-12
-7.68332e-12
-1.09762e-12
-1.09762e-12
0
1.64643e-11
-6.5857e-12
-2417.75
-2373.88
-2288.54
-2166.29
-2013.45
-1837.56
-1646.77
-1449.22
-1252.46
-1063.03
-886.139
-725.541
-583.52
-461.014
-357.827
-272.878
-204.474
-150.565
-108.96
-77.5015
-54.1881
-37.2476
-25.1738
-16.7306
-10.9355
-7.03051
-4.44624
-2.76617
-1.69293
-1.01914
-0.603443
-0.351434
-0.201332
-0.113461
-0.0628541
-0.0341508
-0.0181222
-0.00933622
-0.00463802
-0.0022074
-0.00100114
-0.000431038
-0.00017577
-6.78174e-05
-2.47566e-05
-8.55635e-06
-2.80311e-06
-8.71716e-07
-2.57777e-07
-7.26261e-08
-1.9486e-08
-4.98428e-09
-1.22165e-09
-2.88673e-10
-5.48809e-11
3.29285e-12
-1.09762e-11
-9.87856e-12
1.09762e-12
-5.48809e-12
1.09762e-12
1.31714e-11
-5.48809e-12
-1.09762e-12
6.5857e-12
0
1.09762e-12
0
-1.09762e-12
-1.31714e-11
0
6.58571e-12
-4.39047e-12
6.5857e-12
4.39047e-12
-2417.75
-2373.88
-2288.54
-2166.29
-2013.45
-1837.56
-1646.77
-1449.22
-1252.46
-1063.03
-886.139
-725.542
-583.52
-461.015
-357.828
-272.878
-204.475
-150.565
-108.96
-77.5015
-54.1881
-37.2477
-25.1738
-16.7306
-10.9355
-7.03051
-4.44625
-2.76618
-1.69293
-1.01915
-0.603444
-0.351434
-0.201332
-0.113461
-0.0628541
-0.0341508
-0.0181222
-0.00933622
-0.00463803
-0.0022074
-0.00100114
-0.000431038
-0.00017577
-6.78174e-05
-2.47566e-05
-8.55635e-06
-2.80312e-06
-8.71738e-07
-2.57752e-07
-7.25953e-08
-1.95003e-08
-5.00184e-09
-1.23701e-09
-2.86478e-10
-3.84166e-11
1.09762e-12
-1.75619e-11
8.78094e-12
1.31714e-11
-8.78094e-12
2.19524e-12
0
-2.19524e-12
-1.09762e-12
1.09762e-12
-3.29285e-12
4.39047e-12
4.39047e-12
1.09762e-12
-2.19524e-12
-5.48809e-12
1.09762e-12
1.09762e-12
-1.09762e-12
0
-2417.74
-2373.88
-2288.54
-2166.29
-2013.45
-1837.56
-1646.77
-1449.22
-1252.46
-1063.03
-886.14
-725.542
-583.52
-461.015
-357.828
-272.878
-204.475
-150.565
-108.96
-77.5016
-54.1882
-37.2477
-25.1738
-16.7306
-10.9355
-7.03052
-4.44625
-2.76618
-1.69293
-1.01915
-0.603444
-0.351434
-0.201332
-0.113461
-0.0628542
-0.0341508
-0.0181222
-0.00933622
-0.00463803
-0.0022074
-0.00100114
-0.000431038
-0.00017577
-6.78174e-05
-2.47565e-05
-8.55636e-06
-2.80312e-06
-8.71744e-07
-2.57777e-07
-7.25898e-08
-1.94816e-08
-4.98867e-09
-1.22933e-09
-2.94161e-10
-7.13451e-11
-7.68332e-12
9.87856e-12
0
3.29285e-12
-1.09762e-12
-2.19523e-12
-1.09762e-12
-5.48809e-12
-2.19523e-12
7.68332e-12
4.39047e-12
1.31714e-11
0
-1.31714e-11
8.78094e-12
1.31714e-11
-1.09762e-11
-1.09762e-11
-1.09762e-12
1.09762e-12
-2417.74
-2373.88
-2288.54
-2166.29
-2013.45
-1837.56
-1646.77
-1449.22
-1252.46
-1063.03
-886.14
-725.542
-583.52
-461.015
-357.828
-272.879
-204.475
-150.565
-108.96
-77.5016
-54.1882
-37.2477
-25.1738
-16.7306
-10.9355
-7.03052
-4.44625
-2.76618
-1.69293
-1.01915
-0.603444
-0.351434
-0.201332
-0.113461
-0.0628542
-0.0341508
-0.0181222
-0.00933622
-0.00463803
-0.0022074
-0.00100114
-0.000431038
-0.00017577
-6.78174e-05
-2.47566e-05
-8.55637e-06
-2.80312e-06
-8.71749e-07
-2.57784e-07
-7.25865e-08
-1.94761e-08
-4.98538e-09
-1.21726e-09
-3.15016e-10
-7.79308e-11
0
-8.78094e-12
-5.48809e-12
0
0
0
0
0
-3.29285e-12
0
4.39047e-12
0
-1.09762e-12
-8.78094e-12
-6.58571e-12
1.53666e-11
5.48809e-12
-8.78094e-12
0
3.29285e-12
-2417.74
-2373.88
-2288.54
-2166.29
-2013.45
-1837.56
-1646.77
-1449.22
-1252.46
-1063.03
-886.14
-725.542
-583.52
-461.015
-357.828
-272.879
-204.475
-150.565
-108.96
-77.5016
-54.1882
-37.2477
-25.1738
-16.7306
-10.9355
-7.03052
-4.44625
-2.76618
-1.69293
-1.01915
-0.603444
-0.351434
-0.201332
-0.113461
-0.0628542
-0.0341508
-0.0181222
-0.00933622
-0.00463803
-0.0022074
-0.00100114
-0.000431038
-0.00017577
-6.78174e-05
-2.47566e-05
-8.55639e-06
-2.80316e-06
-8.7173e-07
-2.57767e-07
-7.25832e-08
-1.94586e-08
-4.98867e-09
-1.24141e-09
-3.33676e-10
-8.67118e-11
1.4269e-11
0
-1.31714e-11
0
-1.09762e-12
-3.29285e-12
-1.09762e-12
4.39047e-12
0
0
0
0
1.09762e-12
-1.09762e-12
-7.68332e-12
1.09762e-12
7.68332e-12
-8.78094e-12
0
7.68332e-12
-2417.74
-2373.88
-2288.54
-2166.29
-2013.45
-1837.56
-1646.77
-1449.22
-1252.46
-1063.03
-886.14
-725.542
-583.52
-461.015
-357.828
-272.879
-204.475
-150.565
-108.96
-77.5016
-54.1882
-37.2477
-25.1738
-16.7306
-10.9355
-7.03052
-4.44625
-2.76618
-1.69293
-1.01915
-0.603444
-0.351434
-0.201332
-0.113461
-0.0628542
-0.0341508
-0.0181222
-0.00933622
-0.00463803
-0.0022074
-0.00100114
-0.000431038
-0.00017577
-6.78173e-05
-2.47566e-05
-8.5564e-06
-2.80314e-06
-8.71727e-07
-2.57763e-07
-7.2592e-08
-1.94761e-08
-4.99087e-09
-1.24689e-09
-3.227e-10
-9.00046e-11
0
4.39047e-12
0
5.48809e-12
0
-2.19523e-12
5.48809e-12
2.19523e-12
-4.39047e-12
0
-1.09762e-12
0
7.68332e-12
7.68332e-12
-6.5857e-12
-9.87856e-12
-7.68332e-12
-2.19523e-12
3.29285e-12
7.68332e-12
-2417.74
-2373.88
-2288.54
-2166.29
-2013.45
-1837.56
-1646.77
-1449.22
-1252.46
-1063.03
-886.14
-725.542
-583.52
-461.015
-357.828
-272.879
-204.475
-150.565
-108.96
-77.5016
-54.1882
-37.2477
-25.1738
-16.7306
-10.9355
-7.03052
-4.44625
-2.76618
-1.69293
-1.01915
-0.603444
-0.351434
-0.201332
-0.113461
-0.0628542
-0.0341508
-0.0181222
-0.00933622
-0.00463803
-0.0022074
-0.00100114
-0.000431038
-0.00017577
-6.78173e-05
-2.47566e-05
-8.55639e-06
-2.80313e-06
-8.71728e-07
-2.57771e-07
-7.26019e-08
-1.9486e-08