/*--------------------------------*- C++ -*----------------------------------*\
  =========                 |
  \\      /  F ield         | OpenFOAM: The Open Source CFD Toolbox
   \\    /   O peration     | Website:  https://openfoam.org
    \\  /    A nd           | Version:  10
     \\/     M anipulation  |
\*---------------------------------------------------------------------------*/
FoamFile
{
    format      ascii;
    class       volScalarField;
    location    "550";
    object      T;
}
// * * * * * * * * * * * * * * * * * * * * * * * * * * * * * * * * * * * * * //

dimensions      [0 0 0 1 0 0 0];

internalField   nonuniform List<scalar> 
11250
(
249.903
167.739
139.661
127.36
120.693
116.497
113.583
111.424
109.748
108.404
107.298
106.371
105.582
104.903
104.313
103.796
103.343
102.942
102.588
102.273
101.994
101.747
101.527
101.332
101.16
101.007
100.873
100.754
100.65
100.559
100.479
100.409
100.348
100.296
100.251
100.211
100.178
100.149
100.125
100.104
100.086
100.071
100.059
100.048
100.04
100.032
100.026
100.021
100.017
100.014
100.011
100.009
100.007
100.006
100.004
100.003
100.003
100.002
100.002
100.001
100.001
100.001
100.001
100
100
100
100
100
100
100
100
100
100
100
100
331.682
249.133
203.209
176.449
159.617
148.217
140.006
133.797
128.923
124.985
121.729
118.989
116.65
114.633
112.879
111.342
109.989
108.795
107.737
106.798
105.965
105.226
104.569
103.987
103.471
103.015
102.612
102.258
101.946
101.672
101.433
101.225
101.043
100.886
100.75
100.633
100.533
100.447
100.373
100.311
100.258
100.214
100.176
100.145
100.119
100.097
100.079
100.064
100.051
100.041
100.033
100.027
100.021
100.017
100.013
100.01
100.008
100.006
100.005
100.004
100.003
100.002
100.002
100.001
100.001
100.001
100.001
100
100
100
100
100
100
100
100
359.377
293.909
247.605
215.625
193.13
176.774
164.453
154.867
147.198
140.92
135.682
131.245
127.44
124.146
121.271
118.748
116.523
114.555
112.81
111.261
109.884
108.661
107.575
106.611
105.757
105.001
104.334
103.746
103.229
102.775
102.379
102.033
101.732
101.471
101.245
101.051
100.884
100.742
100.62
100.516
100.429
100.355
100.293
100.24
100.197
100.161
100.131
100.106
100.086
100.069
100.055
100.044
100.035
100.028
100.022
100.017
100.014
100.011
100.008
100.006
100.005
100.004
100.003
100.002
100.002
100.001
100.001
100.001
100.001
100
100
100
100
100
100
371.299
319.533
277.696
245.344
220.537
201.334
186.213
174.072
164.14
155.877
148.901
142.938
137.791
133.311
129.386
125.929
122.873
120.165
117.759
115.62
113.718
112.025
110.521
109.185
108.001
106.953
106.026
105.209
104.491
103.861
103.31
102.829
102.41
102.047
101.734
101.463
101.231
101.033
100.863
100.719
100.597
100.494
100.407
100.335
100.274
100.224
100.182
100.148
100.119
100.096
100.077
100.061
100.049
100.039
100.031
100.024
100.019
100.015
100.012
100.009
100.007
100.005
100.004
100.003
100.002
100.002
100.001
100.001
100.001
100.001
100
100
100
100
100
377.592
335.245
298.33
267.555
242.386
221.87
205.056
191.141
179.493
169.632
161.196
153.912
147.574
142.022
137.134
132.813
128.98
125.574
122.542
119.841
117.435
115.293
113.386
111.692
110.188
108.856
107.678
106.639
105.725
104.923
104.221
103.608
103.075
102.612
102.212
101.868
101.572
101.318
101.102
100.918
100.762
100.631
100.52
100.428
100.35
100.286
100.233
100.189
100.152
100.123
100.098
100.079
100.063
100.05
100.039
100.031
100.024
100.019
100.015
100.011
100.009
100.007
100.005
100.004
100.003
100.002
100.002
100.001
100.001
100.001
100
100
100
100
100
381.421
345.544
312.858
284.208
259.64
238.776
221.084
206.035
193.161
182.072
172.455
164.063
156.696
150.2
144.448
139.34
134.793
130.739
127.122
123.893
121.012
118.442
116.152
114.114
112.304
110.699
109.28
108.027
106.923
105.955
105.107
104.366
103.721
103.162
102.679
102.262
101.903
101.597
101.335
101.112
100.924
100.765
100.631
100.518
100.425
100.347
100.282
100.229
100.185
100.149
100.119
100.095
100.076
100.06
100.048
100.037
100.029
100.023
100.018
100.014
100.011
100.008
100.006
100.005
100.004
100.003
100.002
100.002
100.001
100.001
100.001
100
100
100
100
383.975
352.68
323.39
296.836
273.265
252.596
234.57
218.868
205.166
193.172
182.633
173.335
165.103
157.79
151.278
145.466
140.272
135.627
131.469
127.75
124.424
121.452
118.801
116.438
114.338
112.473
110.823
109.365
108.08
106.952
105.963
105.1
104.348
103.695
103.131
102.644
102.225
101.867
101.561
101.301
101.081
100.894
100.738
100.607
100.497
100.406
100.33
100.268
100.216
100.174
100.14
100.111
100.089
100.07
100.056
100.044
100.034
100.027
100.021
100.016
100.013
100.01
100.007
100.006
100.004
100.003
100.002
100.002
100.001
100.001
100.001
100
100
100
100
385.785
357.841
331.234
306.548
284.075
263.874
245.851
229.832
215.609
202.975
191.734
181.716
172.769
164.765
157.594
151.163
145.392
140.211
135.562
131.392
127.654
124.309
121.32
118.653
116.278
114.169
112.299
110.646
109.19
107.909
106.786
105.805
104.95
104.208
103.566
103.012
102.536
102.128
101.78
101.483
101.232
101.02
100.842
100.692
100.567
100.463
100.377
100.305
100.247
100.198
100.159
100.127
100.101
100.08
100.064
100.05
100.039
100.031
100.024
100.019
100.014
100.011
100.009
100.007
100.005
100.004
100.003
100.002
100.002
100.001
100.001
100.001
100
100
100
387.122
361.698
337.213
314.124
292.71
273.09
255.264
239.151
224.63
211.562
199.804
189.224
179.698
171.117
163.385
156.415
150.135
144.477
139.384
134.804
130.69
127.001
123.699
120.748
118.118
115.778
113.703
111.867
110.247
108.822
107.572
106.48
105.527
104.7
103.984
103.365
102.834
102.378
101.989
101.658
101.378
101.141
100.941
100.774
100.634
100.518
100.421
100.342
100.276
100.222
100.178
100.142
100.113
100.09
100.071
100.056
100.044
100.034
100.027
100.021
100.016
100.012
100.01
100.007
100.006
100.004
100.003
100.002
100.002
100.001
100.001
100.001
100
100
100
388.138
364.655
341.859
320.111
299.659
280.644
263.114
247.048
232.385
219.038
206.91
195.9
185.912
176.857
168.652
161.221
154.496
148.417
142.928
137.979
133.523
129.52
125.93
122.718
119.85
117.297
115.03
113.022
111.249
109.689
108.319
107.121
106.076
105.168
104.381
103.702
103.118
102.618
102.19
101.826
101.517
101.256
101.037
100.853
100.699
100.571
100.464
100.376
100.304
100.245
100.196
100.157
100.125
100.099
100.079
100.062
100.049
100.038
100.03
100.023
100.018
100.014
100.011
100.008
100.006
100.005
100.003
100.003
100.002
100.001
100.001
100.001
100
100
100
388.928
366.966
345.525
324.896
305.294
286.86
269.665
253.729
239.029
225.518
213.132
201.8
191.45
182.009
173.409
165.586
158.478
152.03
146.191
140.912
136.15
131.862
128.01
124.558
121.472
118.722
116.276
114.109
112.194
110.506
109.024
107.727
106.595
105.611
104.759
104.022
103.388
102.845
102.38
101.985
101.65
101.366
101.128
100.928
100.76
100.621
100.505
100.41
100.331
100.267
100.214
100.171
100.136
100.108
100.086
100.067
100.053
100.041
100.032
100.025
100.019
100.015
100.011
100.009
100.007
100.005
100.004
100.003
100.002
100.002
100.001
100.001
100.001
100
100
389.553
368.8
348.457
328.759
309.893
291.993
275.141
259.378
244.709
231.114
218.556
206.987
196.356
186.605
177.68
169.526
162.09
155.323
149.176
143.606
138.569
134.024
129.935
126.266
122.981
120.049
117.44
115.125
113.078
111.273
109.687
108.297
107.084
106.029
105.114
104.324
103.643
103.06
102.561
102.136
101.775
101.471
101.214
100.999
100.819
100.669
100.544
100.441
100.357
100.287
100.23
100.184
100.147
100.117
100.092
100.073
100.057
100.045
100.035
100.027
100.021
100.016
100.012
100.009
100.007
100.005
100.004
100.003
100.002
100.002
100.001
100.001
100.001
100
100
390.053
370.273
350.825
331.902
313.668
296.248
279.726
264.155
249.557
235.934
223.267
211.528
200.681
190.683
181.492
173.062
165.347
158.305
151.891
146.064
140.783
136.01
131.709
127.842
124.376
121.279
118.521
116.071
113.902
111.988
110.305
108.83
107.542
106.42
105.448
104.607
103.883
103.262
102.73
102.278
101.894
101.569
101.295
101.066
100.874
100.714
100.581
100.471
100.381
100.307
100.246
100.197
100.157
100.124
100.098
100.078
100.061
100.048
100.037
100.029
100.022
100.017
100.013
100.01
100.008
100.006
100.004
100.003
100.002
100.002
100.001
100.001
100.001
100
100
390.458
371.468
352.753
334.477
316.784
299.786
283.57
268.194
253.691
240.076
227.347
215.488
204.478
194.286
184.878
176.218
168.269
160.99
154.345
148.294
142.799
137.823
133.332
129.288
125.66
122.413
119.518
116.945
114.665
112.652
110.88
109.326
107.968
106.785
105.759
104.871
104.107
103.451
102.889
102.411
102.005
101.661
101.372
101.129
100.925
100.756
100.616
100.499
100.404
100.325
100.261
100.209
100.166
100.132
100.104
100.082
100.065
100.051
100.039
100.031
100.024
100.018
100.014
100.011
100.008
100.006
100.005
100.003
100.003
100.002
100.001
100.001
100.001
100
100
390.789
372.445
354.334
336.599
319.365
302.737
286.799
271.61
257.213
243.63
230.871
218.931
207.799
197.454
187.871
179.022
170.875
163.397
156.552
150.306
144.624
139.47
134.809
130.608
126.833
123.452
120.434
117.749
115.368
113.264
111.411
109.785
108.363
107.124
106.048
105.117
104.315
103.626
103.037
102.535
102.108
101.747
101.443
101.188
100.974
100.796
100.648
100.526
100.425
100.342
100.275
100.22
100.175
100.139
100.11
100.087
100.068
100.053
100.042
100.032
100.025
100.019
100.015
100.011
100.009
100.007
100.005
100.004
100.003
100.002
100.001
100.001
100.001
100
100
391.06
373.248
355.638
338.355
321.511
305.205
289.514
274.501
260.212
246.675
233.908
221.915
210.693
200.229
190.507
181.502
173.191
165.542
158.527
152.113
146.267
140.956
136.147
131.806
127.901
124.4
121.271
118.485
116.012
113.826
111.899
110.207
108.726
107.436
106.315
105.344
104.508
103.789
103.174
102.65
102.204
101.827
101.509
101.242
101.019
100.833
100.678
100.55
100.445
100.358
100.288
100.23
100.183
100.146
100.115
100.091
100.071
100.056
100.044
100.034
100.026
100.02
100.015
100.012
100.009
100.007
100.005
100.004
100.003
100.002
100.002
100.001
100.001
100
100
391.284
373.911
356.717
339.813
323.301
307.271
291.8
276.948
262.763
249.28
236.52
224.495
213.208
202.653
192.818
183.687
175.238
167.447
160.286
153.728
147.74
142.293
137.353
132.888
128.868
125.259
122.032
119.155
116.6
114.339
112.345
110.593
109.06
107.722
106.56
105.553
104.685
103.939
103.301
102.756
102.293
101.901
101.57
101.293
101.061
100.867
100.706
100.573
100.463
100.373
100.3
100.24
100.191
100.152
100.12
100.095
100.074
100.058
100.045
100.035
100.027
100.021
100.016
100.012
100.009
100.007
100.005
100.004
100.003
100.002
100.002
100.001
100.001
100
100
391.469
374.461
357.613
341.027
324.796
309.005
293.725
279.018
264.932
251.505
238.762
226.72
215.387
204.762
194.838
185.603
177.041
169.13
161.846
155.164
149.054
143.488
138.434
133.861
129.738
126.035
122.719
119.762
117.133
114.805
112.751
110.946
109.364
107.984
106.784
105.745
104.848
104.077
103.417
102.853
102.374
101.969
101.627
101.34
101.099
100.898
100.732
100.594
100.48
100.387
100.311
100.249
100.198
100.157
100.125
100.098
100.077
100.06
100.047
100.037
100.028
100.022
100.017
100.013
100.01
100.007
100.006
100.004
100.003
100.002
100.002
100.001
100.001
100
100
391.623
374.918
358.36
342.041
326.048
310.46
295.348
280.77
266.776
253.404
240.684
228.635
217.27
206.591
196.597
187.278
178.622
170.611
163.223
156.435
150.221
144.551
139.398
134.731
130.519
126.731
123.338
120.309
117.615
115.227
113.119
111.265
109.64
108.222
106.988
105.919
104.996
104.203
103.523
102.942
102.449
102.031
101.679
101.382
101.134
100.927
100.756
100.613
100.496
100.4
100.321
100.257
100.205
100.163
100.129
100.101
100.08
100.062
100.049
100.038
100.029
100.023
100.017
100.013
100.01
100.008
100.006
100.004
100.003
100.002
100.002
100.001
100.001
100
100
391.751
375.299
358.982
342.888
327.096
311.683
296.716
282.251
268.34
255.022
242.327
230.279
218.892
208.173
198.123
188.737
180.004
171.909
164.434
157.556
151.252
145.494
140.255
135.505
131.215
127.354
123.892
120.799
118.047
115.607
113.451
111.554
109.89
108.437
107.173
106.077
105.131
104.317
103.619
103.023
102.517
102.088
101.726
101.421
101.166
100.954
100.777
100.631
100.51
100.411
100.33
100.264
100.211
100.167
100.132
100.104
100.082
100.064
100.05
100.039
100.03
100.023
100.018
100.014
100.01
100.008
100.006
100.004
100.003
100.002
100.002
100.001
100.001
100
100
391.858
375.617
359.503
343.596
327.975
312.711
297.868
283.504
269.667
256.398
243.73
231.688
220.287
209.538
199.445
190.004
181.207
173.043
165.494
158.541
152.16
146.326
141.013
136.192
131.834
127.908
124.386
121.238
118.434
115.947
113.748
111.812
110.115
108.631
107.34
106.22
105.252
104.42
103.706
103.097
102.578
102.139
101.769
101.457
101.196
100.978
100.797
100.647
100.523
100.422
100.339
100.271
100.216
100.172
100.136
100.107
100.084
100.066
100.051
100.04
100.031
100.024
100.018
100.014
100.011
100.008
100.006
100.005
100.003
100.003
100.002
100.001
100.001
100
100
391.947
375.883
359.938
344.19
328.713
313.575
298.839
284.562
270.791
257.568
244.926
232.892
221.483
210.712
200.585
191.1
182.252
174.03
166.419
159.402
152.956
147.058
141.681
136.798
132.38
128.399
124.825
121.627
118.779
116.25
114.014
112.044
110.316
108.805
107.489
106.348
105.362
104.513
103.785
103.163
102.634
102.186
101.807
101.489
101.222
101
100.815
100.662
100.535
100.432
100.347
100.277
100.221
100.176
100.139
100.11
100.086
100.067
100.053
100.041
100.032
100.024
100.019
100.014
100.011
100.008
100.006
100.005
100.004
100.003
100.002
100.001
100.001
100
100
392.022
376.104
360.301
344.686
329.331
314.301
299.657
285.455
271.742
258.56
245.944
233.919
222.506
211.72
201.565
192.045
183.155
174.885
167.224
160.152
153.651
147.698
142.266
137.33
132.862
128.832
125.212
121.972
119.084
116.519
114.25
112.25
110.495
108.96
107.623
106.462
105.459
104.596
103.855
103.222
102.684
102.227
101.842
101.518
101.246
101.019
100.831
100.675
100.546
100.44
100.354
100.283
100.226
100.179
100.142
100.112
100.088
100.069
100.054
100.042
100.032
100.025
100.019
100.015
100.011
100.008
100.006
100.005
100.004
100.003
100.002
100.001
100.001
100
100
392.084
376.29
360.605
345.102
329.849
314.91
300.345
286.208
272.546
259.401
246.807
234.793
223.38
212.581
202.406
192.858
183.933
175.625
167.92
160.804
154.256
148.256
142.778
137.796
133.284
129.213
125.553
122.276
119.353
116.757
114.459
112.433
110.654
109.097
107.741
106.564
105.546
104.67
103.918
103.276
102.729
102.265
101.873
101.544
101.267
101.037
100.845
100.687
100.556
100.448
100.36
100.288
100.23
100.183
100.145
100.114
100.09
100.07
100.055
100.043
100.033
100.025
100.02
100.015
100.011
100.009
100.007
100.005
100.004
100.003
100.002
100.001
100.001
100.001
100
392.136
376.445
360.86
345.45
330.283
315.422
300.923
286.841
273.224
260.111
247.539
235.536
224.123
213.316
203.126
193.555
184.602
176.261
168.521
161.367
154.78
148.74
143.223
138.203
133.653
129.545
125.851
122.543
119.59
116.966
114.643
112.594
110.794
109.219
107.846
106.655
105.624
104.736
103.974
103.323
102.768
102.298
101.901
101.567
101.287
101.053
100.858
100.697
100.564
100.455
100.366
100.293
100.233
100.185
100.147
100.116
100.091
100.071
100.056
100.043
100.033
100.026
100.02
100.015
100.012
100.009
100.007
100.005
100.004
100.003
100.002
100.001
100.001
100.001
100
392.18
376.574
361.072
345.741
330.647
315.85
301.408
287.374
273.795
260.711
248.158
236.165
224.754
213.942
203.739
194.151
185.175
176.808
169.038
161.852
155.233
149.159
143.609
138.555
133.973
129.835
126.112
122.775
119.797
117.149
114.804
112.735
110.917
109.326
107.939
106.734
105.692
104.794
104.023
103.365
102.803
102.328
101.926
101.587
101.304
101.067
100.87
100.707
100.572
100.461
100.371
100.297
100.237
100.188
100.149
100.117
100.092
100.072
100.056
100.044
100.034
100.026
100.02
100.015
100.012
100.009
100.007
100.005
100.004
100.003
100.002
100.001
100.001
100.001
100
392.216
376.682
361.249
345.984
330.951
316.209
301.815
287.821
274.275
261.216
248.68
236.697
225.289
214.473
204.261
194.658
185.664
177.275
169.481
162.269
155.622
149.521
143.941
138.86
134.251
130.086
126.338
122.978
119.978
117.309
114.945
112.859
111.025
109.42
108.02
106.804
105.752
104.845
104.067
103.401
102.835
102.354
101.947
101.605
101.319
101.079
100.88
100.715
100.579
100.467
100.375
100.3
100.24
100.19
100.151
100.119
100.093
100.073
100.057
100.044
100.034
100.027
100.02
100.016
100.012
100.009
100.007
100.005
100.004
100.003
100.002
100.001
100.001
100.001
100
392.246
376.772
361.397
346.187
331.204
316.509
302.155
288.196
274.678
261.64
249.12
237.145
225.74
214.923
204.704
195.089
186.081
177.674
169.86
162.626
155.956
149.831
144.228
139.123
134.491
130.304
126.534
123.154
120.134
117.448
115.068
112.967
111.12
109.502
108.091
106.865
105.805
104.89
104.105
103.434
102.862
102.377
101.966
101.621
101.332
101.09
100.889
100.722
100.585
100.472
100.379
100.303
100.242
100.192
100.152
100.12
100.094
100.074
100.058
100.045
100.035
100.027
100.021
100.016
100.012
100.009
100.007
100.005
100.004
100.003
100.002
100.001
100.001
100.001
100
392.271
376.847
361.52
346.356
331.416
316.759
302.44
288.51
275.015
261.996
249.489
237.523
226.121
215.302
205.078
195.455
186.434
178.013
170.182
162.93
156.241
150.096
144.473
139.349
134.697
130.491
126.703
123.305
120.27
117.568
115.174
113.06
111.201
109.573
108.153
106.919
105.85
104.929
104.138
103.462
102.886
102.397
101.983
101.635
101.343
101.1
100.897
100.729
100.59
100.476
100.382
100.306
100.244
100.194
100.154
100.121
100.095
100.075
100.058
100.045
100.035
100.027
100.021
100.016
100.012
100.009
100.007
100.005
100.004
100.003
100.002
100.001
100.001
100.001
100
392.292
376.909
361.623
346.497
331.592
316.967
302.677
288.771
275.297
262.294
249.799
237.84
226.441
215.622
205.393
195.763
186.733
178.3
170.456
163.189
156.484
150.323
144.683
139.541
134.873
130.651
126.848
123.435
120.386
117.672
115.266
113.141
111.272
109.635
108.206
106.965
105.89
104.963
104.167
103.487
102.906
102.414
101.998
101.647
101.353
101.108
100.904
100.734
100.595
100.48
100.385
100.309
100.246
100.196
100.155
100.122
100.096
100.075
100.059
100.046
100.035
100.027
100.021
100.016
100.012
100.009
100.007
100.005
100.004
100.003
100.002
100.002
100.001
100.001
100
392.309
376.961
361.708
346.613
331.738
317.141
302.874
288.99
275.532
262.543
250.057
238.105
226.709
215.89
205.658
196.023
186.985
178.542
170.687
163.408
156.69
150.515
144.861
139.706
135.023
130.788
126.972
123.547
120.486
117.761
115.345
113.21
111.333
109.688
108.253
107.005
105.924
104.993
104.193
103.508
102.924
102.429
102.011
101.658
101.362
101.115
100.91
100.739
100.599
100.483
100.388
100.311
100.248
100.197
100.156
100.123
100.097
100.076
100.059
100.046
100.036
100.028
100.021
100.016
100.012
100.009
100.007
100.005
100.004
100.003
100.002
100.002
100.001
100.001
100
392.324
377.003
361.778
346.71
331.86
317.284
303.038
289.171
275.728
262.75
250.273
238.326
226.934
216.114
205.881
196.241
187.197
178.746
170.882
163.593
156.864
150.677
145.012
139.845
135.151
130.904
127.077
123.642
120.571
117.837
115.412
113.27
111.385
109.734
108.292
107.039
105.954
105.018
104.214
103.526
102.94
102.442
102.022
101.667
101.37
101.122
100.915
100.744
100.602
100.486
100.39
100.313
100.249
100.198
100.157
100.124
100.097
100.076
100.06
100.046
100.036
100.028
100.021
100.016
100.012
100.009
100.007
100.005
100.004
100.003
100.002
100.002
100.001
100.001
100
392.336
377.039
361.836
346.79
331.96
317.404
303.174
289.321
275.891
262.923
250.453
238.511
227.121
216.302
206.067
196.423
187.374
178.918
171.046
163.748
157.011
150.815
145.14
139.963
135.259
131.003
127.167
123.723
120.644
117.902
115.469
113.321
111.43
109.773
108.326
107.069
105.979
105.04
104.233
103.542
102.953
102.454
102.031
101.675
101.376
101.127
100.919
100.747
100.605
100.488
100.392
100.314
100.251
100.199
100.158
100.125
100.098
100.077
100.06
100.047
100.036
100.028
100.021
100.016
100.013
100.01
100.007
100.005
100.004
100.003
100.002
100.002
100.001
100.001
100
392.345
377.068
361.884
346.856
332.043
317.502
303.286
289.445
276.025
263.065
250.602
238.664
227.276
216.458
206.222
196.576
187.523
179.061
171.183
163.879
157.134
150.93
145.247
140.062
135.351
131.086
127.243
123.791
120.705
117.957
115.518
113.364
111.468
109.806
108.355
107.094
106.001
105.058
104.249
103.556
102.965
102.463
102.039
101.682
101.382
101.132
100.923
100.75
100.608
100.49
100.394
100.316
100.252
100.2
100.159
100.125
100.098
100.077
100.06
100.047
100.036
100.028
100.022
100.016
100.013
100.01
100.007
100.005
100.004
100.003
100.002
100.002
100.001
100.001
100
392.353
377.092
361.924
346.911
332.111
317.583
303.379
289.548
276.136
263.183
250.725
238.791
227.405
216.587
206.35
196.702
187.646
179.18
171.298
163.988
157.237
151.027
145.337
140.146
135.427
131.157
127.306
123.849
120.757
118.003
115.56
113.4
111.5
109.834
108.38
107.115
106.019
105.074
104.262
103.567
102.975
102.471
102.046
101.688
101.387
101.136
100.927
100.753
100.61
100.492
100.396
100.317
100.253
100.201
100.159
100.126
100.099
100.077
100.06
100.047
100.036
100.028
100.022
100.017
100.013
100.01
100.007
100.005
100.004
100.003
100.002
100.002
100.001
100.001
100
392.36
377.111
361.956
346.955
332.168
317.65
303.455
289.633
276.228
263.281
250.827
238.896
227.512
216.695
206.457
196.807
187.749
179.28
171.393
164.079
157.323
151.107
145.412
140.215
135.492
131.215
127.36
123.898
120.801
118.042
115.594
113.431
111.527
109.858
108.401
107.133
106.035
105.088
104.274
103.577
102.983
102.478
102.052
101.693
101.391
101.139
100.929
100.755
100.612
100.494
100.397
100.318
100.254
100.202
100.16
100.126
100.099
100.078
100.061
100.047
100.037
100.028
100.022
100.017
100.013
100.01
100.007
100.005
100.004
100.003
100.002
100.002
100.001
100.001
100
392.365
377.128
361.983
346.992
332.214
317.705
303.518
289.702
276.303
263.361
250.911
238.982
227.6
216.783
206.545
196.894
187.834
179.362
171.472
164.154
157.394
151.174
145.475
140.273
135.545
131.265
127.405
123.938
120.837
118.075
115.623
113.457
111.55
109.878
108.418
107.148
106.048
105.099
104.283
103.585
102.99
102.484
102.057
101.697
101.395
101.142
100.932
100.757
100.613
100.495
100.398
100.319
100.254
100.202
100.16
100.126
100.099
100.078
100.061
100.047
100.037
100.028
100.022
100.017
100.013
100.01
100.007
100.006
100.004
100.003
100.002
100.002
100.001
100.001
100
392.37
377.141
362.005
347.022
332.251
317.749
303.569
289.759
276.365
263.427
250.979
239.053
227.672
216.856
206.618
196.966
187.904
179.43
171.537
164.216
157.453
151.23
145.527
140.322
135.59
131.305
127.442
123.972
120.868
118.102
115.648
113.479
111.569
109.895
108.433
107.161
106.059
105.108
104.291
103.592
102.996
102.489
102.061
101.7
101.397
101.144
100.934
100.759
100.615
100.496
100.399
100.32
100.255
100.203
100.161
100.127
100.1
100.078
100.061
100.047
100.037
100.028
100.022
100.017
100.013
100.01
100.007
100.006
100.004
100.003
100.002
100.002
100.001
100.001
100
392.374
377.152
362.022
347.046
332.282
317.786
303.611
289.806
276.415
263.48
251.036
239.111
227.731
216.916
206.677
197.025
187.961
179.486
171.591
164.268
157.502
151.276
145.57
140.362
135.627
131.339
127.473
124
120.893
118.125
115.668
113.497
111.585
109.909
108.445
107.172
106.068
105.116
104.298
103.598
103.001
102.494
102.065
101.703
101.4
101.146
100.935
100.76
100.616
100.497
100.4
100.32
100.256
100.203
100.161
100.127
100.1
100.078
100.061
100.048
100.037
100.028
100.022
100.017
100.013
100.01
100.007
100.006
100.004
100.003
100.002
100.002
100.001
100.001
100
392.376
377.16
362.037
347.066
332.307
317.816
303.645
289.843
276.456
263.524
251.081
239.158
227.78
216.964
206.726
197.073
188.009
179.531
171.635
164.31
157.542
151.314
145.606
140.395
135.657
131.367
127.498
124.023
120.914
118.144
115.685
113.512
111.598
109.92
108.455
107.18
106.076
105.123
104.304
103.603
103.005
102.497
102.068
101.706
101.402
101.148
100.937
100.762
100.617
100.498
100.4
100.321
100.256
100.204
100.161
100.127
100.1
100.078
100.061
100.048
100.037
100.028
100.022
100.017
100.013
100.01
100.007
100.006
100.004
100.003
100.002
100.002
100.001
100.001
100
392.379
377.167
362.049
347.082
332.327
317.84
303.672
289.874
276.49
263.56
251.119
239.197
227.819
217.004
206.766
197.112
188.047
179.569
171.672
164.345
157.575
151.345
145.635
140.422
135.682
131.39
127.52
124.042
120.931
118.159
115.699
113.524
111.609
109.93
108.464
107.188
106.082
105.129
104.309
103.607
103.008
102.5
102.07
101.708
101.404
101.15
100.938
100.763
100.618
100.499
100.401
100.321
100.256
100.204
100.161
100.127
100.1
100.079
100.061
100.048
100.037
100.029
100.022
100.017
100.013
100.01
100.007
100.006
100.004
100.003
100.002
100.002
100.001
100.001
100
392.381
377.173
362.058
347.095
332.344
317.859
303.695
289.899
276.517
263.589
251.149
239.228
227.851
217.037
206.798
197.144
188.079
179.6
171.701
164.373
157.602
151.37
145.658
140.444
135.703
131.409
127.537
124.058
120.946
118.172
115.71
113.534
111.618
109.938
108.47
107.194
106.088
105.133
104.313
103.61
103.011
102.502
102.072
101.71
101.405
101.151
100.939
100.763
100.618
100.499
100.401
100.321
100.257
100.204
100.162
100.128
100.1
100.079
100.061
100.048
100.037
100.029
100.022
100.017
100.013
100.01
100.007
100.006
100.004
100.003
100.002
100.002
100.001
100.001
100
392.382
377.178
362.066
347.106
332.357
317.875
303.713
289.919
276.539
263.612
251.174
239.254
227.877
217.063
206.824
197.17
188.104
179.624
171.725
164.396
157.624
151.391
145.678
140.462
135.72
131.425
127.551
124.071
120.957
118.183
115.72
113.543
111.626
109.945
108.476
107.199
106.092
105.137
104.316
103.613
103.014
102.504
102.074
101.711
101.406
101.152
100.94
100.764
100.619
100.5
100.402
100.322
100.257
100.204
100.162
100.128
100.1
100.079
100.061
100.048
100.037
100.029
100.022
100.017
100.013
100.01
100.007
100.006
100.004
100.003
100.002
100.002
100.001
100.001
100
392.384
377.182
362.072
347.114
332.368
317.888
303.728
289.935
276.556
263.631
251.193
239.274
227.898
217.084
206.846
197.191
188.125
179.644
171.744
164.415
157.641
151.408
145.694
140.477
135.733
131.437
127.563
124.081
120.967
118.191
115.727
113.549
111.632
109.95
108.481
107.203
106.096
105.14
104.319
103.615
103.015
102.506
102.075
101.712
101.407
101.153
100.941
100.765
100.619
100.5
100.402
100.322
100.257
100.204
100.162
100.128
100.101
100.079
100.061
100.048
100.037
100.029
100.022
100.017
100.013
100.01
100.007
100.006
100.004
100.003
100.002
100.002
100.001
100.001
100
392.385
377.185
362.077
347.121
332.376
317.898
303.739
289.948
276.571
263.646
251.209
239.291
227.915
217.101
206.863
197.208
188.141
179.661
171.76
164.43
157.656
151.421
145.706
140.489
135.744
131.448
127.572
124.09
120.975
118.198
115.734
113.555
111.637
109.954
108.485
107.206
106.099
105.143
104.321
103.617
103.017
102.507
102.076
101.713
101.408
101.153
100.941
100.765
100.62
100.5
100.402
100.322
100.257
100.204
100.162
100.128
100.101
100.079
100.062
100.048
100.037
100.029
100.022
100.017
100.013
100.01
100.007
100.006
100.004
100.003
100.002
100.002
100.001
100.001
100
392.385
377.187
362.081
347.127
332.383
317.906
303.749
289.959
276.582
263.658
251.222
239.304
227.928
217.115
206.876
197.222
188.155
179.674
171.773
164.442
157.667
151.432
145.717
140.498
135.753
131.456
127.579
124.097
120.981
118.204
115.739
113.559
111.641
109.958
108.488
107.209
106.101
105.145
104.322
103.619
103.018
102.509
102.077
101.714
101.409
101.154
100.942
100.766
100.62
100.5
100.402
100.322
100.257
100.205
100.162
100.128
100.101
100.079
100.062
100.048
100.037
100.029
100.022
100.017
100.013
100.01
100.007
100.006
100.004
100.003
100.002
100.002
100.001
100.001
100
392.386
377.189
362.084
347.131
332.389
317.913
303.756
289.967
276.591
263.668
251.232
239.315
227.939
217.126
206.887
197.233
188.166
179.684
171.783
164.452
157.677
151.441
145.725
140.506
135.76
131.462
127.586
124.102
120.986
118.208
115.743
113.563
111.644
109.961
108.49
107.211
106.103
105.146
104.324
103.62
103.019
102.509
102.078
101.714
101.409
101.154
100.942
100.766
100.62
100.501
100.403
100.322
100.257
100.205
100.162
100.128
100.101
100.079
100.062
100.048
100.037
100.029
100.022
100.017
100.013
100.01
100.007
100.006
100.004
100.003
100.002
100.002
100.001
100.001
100
392.387
377.19
362.086
347.134
332.393
317.918
303.762
289.974
276.598
263.675
251.24
239.323
227.948
217.134
206.896
197.241
188.174
179.693
171.791
164.459
157.684
151.448
145.732
140.512
135.766
131.468
127.59
124.107
120.99
118.212
115.746
113.566
111.647
109.963
108.492
107.213
106.104
105.148
104.325
103.621
103.02
102.51
102.079
101.715
101.41
101.155
100.942
100.766
100.621
100.501
100.403
100.323
100.257
100.205
100.162
100.128
100.101
100.079
100.062
100.048
100.037
100.029
100.022
100.017
100.013
100.01
100.007
100.006
100.004
100.003
100.002
100.002
100.001
100.001
100
392.387
377.192
362.088
347.137
332.396
317.922
303.767
289.979
276.604
263.681
251.247
239.33
227.955
217.141
206.903
197.248
188.181
179.699
171.797
164.466
157.69
151.454
145.737
140.517
135.771
131.472
127.594
124.111
120.993
118.215
115.749
113.568
111.649
109.965
108.494
107.214
106.106
105.149
104.326
103.622
103.021
102.511
102.079
101.715
101.41
101.155
100.942
100.766
100.621
100.501
100.403
100.323
100.258
100.205
100.162
100.128
100.101
100.079
100.062
100.048
100.037
100.029
100.022
100.017
100.013
100.01
100.007
100.006
100.004
100.003
100.002
100.002
100.001
100.001
100
392.387
377.192
362.09
347.139
332.399
317.925
303.77
289.983
276.608
263.686
251.252
239.335
227.96
217.147
206.909
197.254
188.186
179.705
171.803
164.471
157.695
151.458
145.741
140.521
135.775
131.475
127.598
124.113
120.996
118.217
115.751
113.57
111.65
109.966
108.495
107.216
106.107
105.15
104.327
103.622
103.022
102.511
102.08
101.716
101.41
101.155
100.943
100.766
100.621
100.501
100.403
100.323
100.258
100.205
100.162
100.128
100.101
100.079
100.062
100.048
100.037
100.029
100.022
100.017
100.013
100.01
100.007
100.006
100.004
100.003
100.002
100.002
100.001
100.001
100
392.387
377.193
362.091
347.141
332.401
317.928
303.773
289.986
276.612
263.69
251.256
239.339
227.964
217.151
206.913
197.258
188.191