/*--------------------------------*- C++ -*----------------------------------*\
  =========                 |
  \\      /  F ield         | OpenFOAM: The Open Source CFD Toolbox
   \\    /   O peration     | Website:  https://openfoam.org
    \\  /    A nd           | Version:  10
     \\/     M anipulation  |
\*---------------------------------------------------------------------------*/
FoamFile
{
    format      ascii;
    class       volScalarField;
    location    "160";
    object      gradTx;
}
// * * * * * * * * * * * * * * * * * * * * * * * * * * * * * * * * * * * * * //

dimensions      [0 -1 0 1 0 0 0];

internalField   nonuniform List<scalar> 
11250
(
14274.1
8027.58
5185.54
3658.32
2720.78
2086.82
1628.66
1282.57
1013.57
800.811
630.894
494.646
385.405
298.086
228.662
173.85
130.933
97.6388
72.0678
52.6353
38.03
27.1771
19.206
13.4205
9.27166
6.33229
4.27514
2.85298
1.88186
1.22686
0.790504
0.503369
0.316747
0.196941
0.120976
0.0734034
0.0439821
0.0260159
0.0151854
0.00874244
0.00496151
0.00277396
0.00152687
0.000826827
0.000440178
0.000230218
0.00011821
5.95519e-05
2.94185e-05
1.42431e-05
6.75553e-06
3.1378e-06
1.42686e-06
6.35052e-07
2.76582e-07
1.1786e-07
4.91458e-08
2.00348e-08
7.98407e-09
3.11723e-09
1.17116e-09
4.28071e-10
1.48178e-10
8.78094e-12
9.87856e-12
-1.09762e-12
-1.09762e-12
0
1.09762e-12
0
-5.48809e-12
0
-7.68332e-12
0
-9.87856e-12
4070.23
4627.2
3877.37
3077.56
2428.07
1923.38
1530.02
1219.53
971.577
771.992
610.701
480.296
375.114
290.669
223.305
169.983
128.149
95.6421
70.6435
51.6259
37.3197
26.6813
18.8629
13.1852
9.11181
6.22476
4.20352
2.80578
1.85108
1.20701
0.777833
0.495375
0.311761
0.193869
0.119106
0.0722796
0.043316
0.0256266
0.0149614
0.00861561
0.00489094
0.00273543
0.00150624
0.000816014
0.000434637
0.000227445
0.000116857
5.89091e-05
2.91215e-05
1.41099e-05
6.69762e-06
3.11347e-06
1.41698e-06
6.3123e-07
2.75162e-07
1.17366e-07
4.89636e-08
1.99832e-08
7.9687e-09
3.11723e-09
1.18652e-09
4.43437e-10
1.53666e-10
8.78094e-11
2.41476e-11
2.19523e-12
-1.09762e-12
1.09762e-12
-1.09762e-12
0
-8.78094e-12
0
8.78094e-12
2.19523e-12
0
1451.22
2537.67
2625.75
2355.27
2001.26
1660.81
1361.75
1107.8
895.254
718.71
572.912
453.203
355.557
276.501
213.033
162.546
122.78
91.7842
67.887
49.6695
35.9415
25.7183
18.1958
12.7274
8.80059
6.01527
4.06394
2.71374
1.79103
1.16825
0.753094
0.479761
0.30202
0.187863
0.115449
0.070081
0.042012
0.0248642
0.0145224
0.00836685
0.00475241
0.00265969
0.00146564
0.000794705
0.000423698
0.00022196
0.000114174
5.7631e-05
2.8529e-05
1.38431e-05
6.58116e-06
3.06425e-06
1.39692e-06
6.23351e-07
2.7223e-07
1.16332e-07
4.86288e-08
1.99042e-08
7.972e-09
3.12382e-09
1.20299e-09
4.58804e-10
1.59155e-10
5.26856e-11
-2.19523e-12
2.19524e-12
3.29285e-12
2.19523e-12
0
0
3.29285e-12
8.78094e-12
0
-1.09762e-12
8.78094e-12
649.518
1450.44
1739.07
1725.08
1571.31
1368.7
1161.25
968.156
796.58
648.132
521.959
416.184
328.563
256.794
198.657
152.085
115.199
86.3192
63.9719
46.8845
33.976
24.3428
17.2417
12.0718
8.35445
5.7147
3.86351
2.58148
1.70468
1.11249
0.717481
0.457272
0.287982
0.179204
0.110173
0.0669074
0.0401284
0.023762
0.0138871
0.00800647
0.00455145
0.00254966
0.00140656
0.000763629
0.000407707
0.00021392
0.000110229
5.57438e-05
2.76503e-05
1.34453e-05
6.40636e-06
2.98981e-06
1.36624e-06
6.11159e-07
2.67594e-07
1.14652e-07
4.80778e-08
1.97176e-08
7.9259e-09
3.11943e-09
1.1997e-09
4.4234e-10
1.71228e-10
5.70761e-11
1.4269e-11
1.09762e-12
0
1.09762e-12
0
2.19524e-12
5.48809e-12
0
-1.09762e-12
-1.09762e-12
-5.48809e-12
347.209
879.275
1161.15
1242.86
1200.2
1092.8
958.751
819.916
687.872
568.178
463.003
372.649
296.416
233.09
181.228
139.323
105.902
79.5881
59.1326
43.432
31.5332
22.6295
16.0512
11.2525
7.79609
5.33806
3.61208
2.41541
1.59617
1.04236
0.672658
0.428947
0.270289
0.168283
0.103513
0.0628981
0.0377467
0.0223668
0.0130818
0.00754904
0.00429594
0.00240948
0.00133111
0.000723831
0.000387162
0.000203551
0.000105118
5.32871e-05
2.64996e-05
1.29208e-05
6.17393e-06
2.88983e-06
1.32455e-06
5.94326e-07
2.61019e-07
1.12201e-07
4.71943e-08
1.94048e-08
7.81174e-09
3.08431e-09
1.19201e-09
4.52218e-10
1.81107e-10
6.5857e-11
2.41476e-11
-1.09762e-12
-1.09762e-12
-3.29285e-12
0
-1.09762e-12
-9.87856e-12
-1.20738e-11
-7.68332e-12
-1.09762e-12
-1.09762e-12
208.461
561.871
789.176
892.775
903.269
854.301
772.726
677.107
579.196
485.906
400.95
326.003
261.479
207.035
161.894
125.059
95.4468
71.9798
53.6391
39.4985
28.7415
20.6664
14.684
10.3096
7.15249
4.90327
3.32144
2.22322
1.47045
0.961023
0.620627
0.396039
0.249715
0.155571
0.0957554
0.0582228
0.034966
0.0207358
0.012139
0.00701246
0.00399557
0.00224426
0.00124192
0.000676627
0.000362695
0.000191145
9.89716e-05
5.03139e-05
2.5097e-05
1.22761e-05
5.88541e-06
2.76429e-06
1.2715e-06
5.72585e-07
2.52372e-07
1.08874e-07
4.59748e-08
1.90031e-08
7.69101e-09
3.03162e-09
1.18104e-09
4.53316e-10
1.78912e-10
5.26856e-11
9.87856e-12
8.78094e-12
0
0
0
-2.19524e-12
4.39047e-12
1.09762e-12
-4.39047e-12
0
0
134.349
373.904
546.304
643.04
674.604
658.442
611.644
547.991
477.448
406.678
339.821
279.201
225.9
180.176
141.764
110.084
84.3954
63.8912
47.7703
35.2789
25.7362
18.5467
13.2038
9.28651
6.45269
4.42967
3.00437
2.01324
1.33293
0.87195
0.563583
0.359922
0.227111
0.141592
0.087214
0.053069
0.0318965
0.0189325
0.0110947
0.00641686
0.00366131
0.00205986
0.00114202
0.000623541
0.000335052
0.000177053
9.19456e-05
4.6891e-05
2.34689e-05
1.15206e-05
5.54365e-06
2.61368e-06
1.20689e-06
5.4563e-07
2.4146e-07
1.04569e-07
4.43426e-08
1.83983e-08
7.47038e-09
2.95149e-09
1.15908e-09
4.37949e-10
1.54764e-10
6.91499e-11
4.28071e-11
1.53666e-11
5.48809e-12
0
-1.20738e-11
1.09762e-12
1.31714e-11
2.19524e-12
0
-7.68332e-12
0
90.415
256.156
384.061
465.139
501.767
502.446
477.441
436.251
386.549
334.006
282.511
234.523
191.424
153.825
121.808
95.1105
73.2632
55.6928
41.7905
30.96
22.6481
16.3612
11.6732
8.22588
5.72558
3.93661
2.67367
1.79389
1.18905
0.778642
0.503753
0.321996
0.203349
0.126878
0.0782124
0.0476301
0.0286523
0.0170231
0.00998674
0.00578335
0.00330475
0.0018625
0.00103468
0.000566239
0.000305054
0.000161668
8.4222e-05
4.30985e-05
2.16488e-05
1.06674e-05
5.15325e-06
2.43936e-06
1.13099e-06
5.13411e-07
2.28161e-07
9.92433e-08
4.22583e-08
1.76058e-08
7.17293e-09
2.87137e-09
1.13055e-09
4.29168e-10
1.383e-10
5.37833e-11
1.75619e-11
-3.29285e-12
6.5857e-12
-1.09762e-12
0
1.09762e-12
-1.09762e-12
0
6.5857e-12
0
4.39047e-12
62.5096
179.023
273.147
337.733
372.224
380.503
368.519
342.534
308.127
269.781
230.819
193.523
159.322
128.985
102.8
80.7206
62.4843
47.7033
35.9306
26.7074
19.5948
14.1925
10.1495
7.1671
4.99795
3.44211
2.34137
1.57309
1.044
0.684428
0.443259
0.283599
0.17926
0.111943
0.0690629
0.0420935
0.0253442
0.0150724
0.00885214
0.00513291
0.00293751
0.00165847
0.000923238
0.000506449
0.000273574
0.000145418
7.60029e-05
3.90289e-05
1.96774e-05
9.73355e-06
4.72091e-06
2.24382e-06
1.04461e-06
4.76178e-07
2.12484e-07
9.28047e-08
3.96624e-08
1.65971e-08
6.79645e-09
2.73636e-09
1.07018e-09
4.20388e-10
1.66838e-10
3.84166e-11
-8.78094e-12
-8.78094e-12
9.87856e-12
2.19523e-12
1.31714e-11
-1.09762e-12
2.19523e-12
5.48809e-12
6.58571e-12
8.78094e-12
2.19524e-12
43.9504
126.766
195.799
245.829
275.466
286.313
281.734
265.748
242.266
214.666
185.622
157.093
130.4
106.338
85.2923
67.3498
52.3926
40.174
30.3768
22.657
16.6741
12.1101
8.68158
6.14402
4.29302
2.96192
2.018
1.35782
0.902331
0.59227
0.383998
0.245932
0.155595
0.0972503
0.0600489
0.0366303
0.0220741
0.0131401
0.00772555
0.00448524
0.00257061
0.00145382
0.00081095
0.000445888
0.000241497
0.000128745
6.75055e-05
3.47854e-05
1.76021e-05
8.74028e-06
4.25578e-06
2.03082e-06
9.4924e-07
4.34449e-07
1.94609e-07
8.53013e-08
3.65638e-08
1.53381e-08
6.29154e-09
2.51245e-09
9.82368e-10
3.81971e-10
1.60252e-10
4.82952e-11
1.31714e-11
1.09762e-12
-6.58571e-12
0
-1.09762e-12
0
1.09762e-12
0
-6.58571e-12
0
1.09762e-12
31.2178
90.4864
141.007
179.089
203.296
214.157
213.534
203.966
188.13
168.491
147.112
125.59
105.064
86.274
69.628
55.284
43.2177
33.2839
25.2654
18.9106
13.9606
10.1679
7.30775
5.18359
3.62943
2.50878
1.71218
1.15382
0.767838
0.504632
0.327555
0.210003
0.132991
0.0831951
0.0514129
0.0313874
0.0189301
0.0112784
0.00663743
0.00385785
0.00221399
0.00125412
0.000700857
0.000386191
0.000209683
0.000112094
5.89542e-05
3.04787e-05
1.54764e-05
7.71258e-06
3.76934e-06
1.80547e-06
8.47108e-07
3.8913e-07
1.74951e-07
7.69649e-08
3.30899e-08
1.39266e-08
5.71968e-09
2.29292e-09
9.04437e-10
3.55628e-10
1.30616e-10
6.14666e-11
4.06118e-11
7.68332e-12
-3.62214e-11
-1.09762e-12
0
0
-3.29285e-12
-5.48809e-12
0
-2.19523e-12
-3.29285e-12
22.2977
64.8628
101.748
130.375
149.52
159.233
160.527
154.987
144.417
130.577
115.012
98.9751
83.403
68.9376
55.9668
44.6744
35.0915
27.1423
20.6835
15.5353
11.5051
8.40348
6.05525
4.30523
3.02084
2.09214
1.43034
0.965436
0.643404
0.423407
0.275157
0.176597
0.111943
0.0700882
0.043347
0.0264826
0.0159834
0.00952979
0.00561294
0.00326545
0.00187611
0.00106415
0.000595648
0.000328839
0.000178934
9.5893e-05
5.05715e-05
2.62225e-05
1.33572e-05
6.67839e-06
3.27496e-06
1.57405e-06
7.4104e-07
3.41557e-07
1.54079e-07
6.79886e-08
2.93349e-08
1.23778e-08
5.09514e-09
2.06242e-09
8.23213e-10
3.24895e-10
1.37202e-10
6.80523e-11
2.19523e-11
0
-3.29285e-12
-1.09762e-12
0
1.09762e-12
0
0
4.39047e-12
0
1.09762e-12
15.9617
46.5569
73.4032
94.7072
109.506
117.663
119.715
116.645
109.657
99.9857
88.7641
76.9471
65.278
54.2891
44.3222
35.5602
28.062
21.7966
16.6733
12.5668
9.33597
6.83865
4.94053
3.52102
2.47593
1.71813
1.17675
0.79557
0.530984
0.349894
0.227656
0.146265
0.0928023
0.0581517
0.0359903
0.0220019
0.0132866
0.00792632
0.00467126
0.00271944
0.00156367
0.000887817
0.000497561
0.000275099
0.000149957
8.05285e-05
4.25664e-05
2.21274e-05
1.13018e-05
5.66678e-06
2.78707e-06
1.34355e-06
6.34409e-07
2.93279e-07
1.32658e-07
5.86863e-08
2.54e-08
1.07292e-08
4.43218e-09
1.77924e-09
7.05768e-10
2.70014e-10
1.09762e-10
4.71976e-11
1.09762e-11
2.52452e-11
2.305e-11
-2.19523e-12
0
0
-1.09762e-12
-4.39047e-12
-8.78094e-12
1.09762e-12
6.58571e-12
11.4226
33.3869
52.8478
68.5612
79.8004
86.3764
88.5634
86.9692
82.3905
75.6838
67.6656
59.0478
50.4037
42.1592
34.6013
27.8957
22.1116
17.2446
13.2404
10.0132
7.46206
5.48153
3.97039
2.83635
1.99882
1.38981
0.953618
0.64578
0.431656
0.284823
0.185539
0.11933
0.0757803
0.0475208
0.0294287
0.0179993
0.0108738
0.00648899
0.00382535
0.00222773
0.00128148
0.000728007
0.000408308
0.000225974
0.000123332
6.63293e-05
3.5122e-05
1.82934e-05
9.36364e-06
4.70579e-06
2.31998e-06
1.12114e-06
5.30717e-07
2.45949e-07
1.11503e-07
4.94444e-08
2.14431e-08
9.08059e-09
3.78129e-09
1.52788e-09
5.90518e-10
2.33793e-10
9.43951e-11
6.14666e-11
4.17095e-11
2.85381e-11
2.19523e-12
0
-1.09762e-12
-2.19523e-12
-6.5857e-12
4.39047e-12
0
0
0
8.15609
23.8785
37.9164
49.4085
57.8199
62.9674
64.9834
64.2422
61.2686
56.651
50.9697
44.746
38.4122
32.2998
26.6403
21.5759
17.1745
13.4465
10.3613
7.86182
5.8766
4.32895
3.14361
2.25103
1.58978
1.1076
0.761365
0.516444
0.345721
0.228425
0.148975
0.0959106
0.0609584
0.0382513
0.0236997
0.0144999
0.00876115
0.00522852
0.00308217
0.00179481
0.00103241
0.000586536
0.000329024
0.000182164
9.94805e-05
5.35468e-05
2.83841e-05
1.48033e-05
7.58859e-06
3.82009e-06
1.8867e-06
9.13457e-07
4.33227e-07
2.01158e-07
9.13679e-08
4.05943e-08
1.76266e-08
7.49453e-09
3.14028e-09
1.30177e-09
5.23564e-10
2.03059e-10
8.67118e-11
4.28071e-11
4.06118e-11
4.39047e-12
1.64643e-11
2.19523e-12
-4.39047e-12
0
-7.68332e-12
3.29285e-12
8.78094e-12
9.87856e-12
-3.29285e-12
5.80183
17.0084
27.0766
35.4112
41.6255
45.5633
47.2827
47.0132
45.0991
41.9417
37.9487
33.4959
28.9034
24.423
20.2362
16.4597
13.1544
10.3374
7.993
6.08421
4.5613
3.36923
2.45286
1.76051
1.24603
0.869826
0.599
0.40698
0.272848
0.180514
0.117862
0.0759526
0.0483101
0.0303312
0.0187989
0.0115029
0.00694971
0.00414637
0.00244324
0.00142201
0.000817502
0.000464189
0.000260272
0.000144053
7.86574e-05
4.23422e-05
2.24521e-05
1.17161e-05
6.01069e-06
3.02873e-06
1.49756e-06
7.25969e-07
3.4478e-07
1.60308e-07
7.29488e-08
3.24522e-08
1.41121e-08
6.02372e-09
2.52123e-09
1.04603e-09
4.35754e-10
1.82205e-10
7.02475e-11
1.31714e-11
1.86595e-11
7.68332e-12
1.97571e-11
-1.09762e-12
0
1.09762e-12
-4.39047e-12
-7.68332e-12
-2.19524e-12
2.19523e-12
5.48809e-12
4.10664
12.0519
19.2263
25.2199
29.7568
32.7125
34.1074
34.082
32.8612
30.7169
27.9326
24.7759
21.4797
18.2316
15.1706
12.389
9.93848
7.83768
6.08017
4.64239
3.49032
2.58499
1.88656
1.35715
0.962578
0.673268
0.464471
0.31609
0.212223
0.140585
0.0918927
0.0592701
0.0377243
0.0236951
0.0146885
0.00898694
0.00542772
0.00323635
0.00190543
0.00110788
0.00063619
0.000360808
0.000202068
0.000111717
6.0944e-05
3.27826e-05
1.73743e-05
9.064e-06
4.65005e-06
2.34362e-06
1.1593e-06
5.62376e-07
2.67324e-07
1.24422e-07
5.66788e-08
2.52672e-08
1.10223e-08
4.70768e-09
1.95595e-09
8.00163e-10
3.13919e-10
1.29519e-10
6.25642e-11
2.305e-11
3.29285e-12
-4.39047e-12
-8.78094e-12
-3.29285e-12
4.39047e-12
-1.09762e-12
-3.29285e-12
5.48809e-12
-3.29285e-12
-9.87856e-12
-1.09762e-12
2.88947
8.48746
13.5636
17.8365
21.1116
23.2938
24.3857
24.4728
23.7017
22.2553
20.329
18.1112
15.769
13.4397
11.2272
9.20297
7.40877
5.86218
4.5619
3.49337
2.63367
1.95555
1.43061
1.03144
0.73308
0.513729
0.355032
0.241999
0.16271
0.10792
0.0706144
0.045583
0.0290293
0.0182391
0.0113063
0.00691544
0.00417397
0.00248641
0.00146206
0.0008488
0.000486577
0.000275442
0.000153963
8.49598e-05
4.6264e-05
2.48457e-05
1.31494e-05
6.8521e-06
3.51226e-06
1.76912e-06
8.74827e-07
4.24346e-07
2.01741e-07
9.39319e-08
4.28126e-08
1.91293e-08
8.35067e-09
3.56726e-09
1.48069e-09
6.06982e-10
2.42573e-10
8.78094e-11
3.18309e-11
2.63428e-11
3.29285e-12
6.58571e-12
1.09762e-12
5.48809e-12
0
0
9.87856e-12
1.20738e-11
5.48809e-12
-5.48809e-12
-4.39047e-12
2.01935
5.93604
9.50017
12.5194
14.8579
16.4453
17.2765
17.4034
16.9213
15.9523
14.6302
13.086
11.4381
9.78535
8.20421
6.74837
5.45071
4.32641
3.37677
2.59307
1.96007
1.45899
1.06982
0.772989
0.550498
0.3865
0.267564
0.182662
0.122985
0.0816687
0.0534901
0.0345543
0.022016
0.0138348
0.00857463
0.00524181
0.00316092
0.00188049
0.00110391
0.00063958
0.000365791
0.000206541
0.00011514
6.33626e-05
3.4411e-05
1.84331e-05
9.73283e-06
5.06125e-06
2.58973e-06
1.30254e-06
6.43386e-07
3.11799e-07
1.48152e-07
6.89688e-08
3.14676e-08
1.40561e-08
6.15544e-09
2.64855e-09
1.1053e-09
4.48926e-10
1.75619e-10
4.50023e-11
3.29285e-12
1.20738e-11
-1.09762e-11
-5.48809e-12
-3.29285e-12
3.29285e-12
4.39047e-12
1.09762e-12
1.31714e-11
-4.39047e-12
3.29285e-12
-1.09762e-12
-1.09762e-12
1.4008
4.12038
6.60255
8.71663
10.3686
11.5075
12.1259
12.2551
11.9568
11.3123
10.4122
9.34664
8.19854
7.03814
5.92067
4.88577
3.95847
3.15123
2.46644
1.89905
1.43908
1.07373
0.789078
0.571338
0.407685
0.286753
0.198844
0.135953
0.0916578
0.0609352
0.0399468
0.0258223
0.0164583
0.0103426
0.00640798
0.00391434
0.00235762
0.0014003
0.000820312
0.000474076
0.000270351
0.000152162
8.45335e-05
4.63541e-05
2.50839e-05
1.339e-05
7.04675e-06
3.65337e-06
1.86427e-06
9.35465e-07
4.61165e-07
2.23123e-07
1.05877e-07
4.9238e-08
2.24507e-08
1.00278e-08
4.41572e-09
1.89339e-09
8.04554e-10
3.21602e-10
1.24031e-10
3.62214e-11
-5.48809e-12
-1.09762e-12
-1.64643e-11
-2.41476e-11
-1.97571e-11
-2.19523e-12
0
1.09762e-12
-4.39047e-12
-8.78094e-12
0
0
-5.48809e-12
0.963983
2.83705
4.55097
6.01747
7.17207
7.97858
8.42967
8.54417
8.36173
7.93611
7.32819
6.59961
5.80758
5.00137
4.22027
3.493
2.8382
2.26566
1.77799
1.37242
1.0425
0.779594
0.574149
0.416557
0.297803
0.209834
0.145742
0.0997919
0.067365
0.0448334
0.0294159
0.0190257
0.0121294
0.00762146
0.00471959
0.00288021
0.00173226
0.00102687
0.000600073
0.000345768
0.000196505
0.000110175
6.09537e-05
3.32781e-05
1.79278e-05
9.52771e-06
4.99275e-06
2.57808e-06
1.31075e-06
6.55576e-07
3.2224e-07
1.5553e-07
7.36183e-08
3.41633e-08
1.55324e-08
6.90182e-09
3.01845e-09
1.27872e-09
5.52102e-10
2.18426e-10
8.78094e-11
4.50023e-11
0
-2.52452e-11
-1.20738e-11
-4.39047e-12
-3.29285e-12
1.09762e-12
-4.39047e-12
0
-1.20738e-11
0
0
-3.29285e-12
2.19524e-12
0.657797
1.93683
3.10978
4.11738
4.91585
5.47987
5.80318
5.897
5.78676
5.50777
5.10064
4.60699
4.06597
3.51167
2.97164
2.46635
2.00938
1.60818
1.26516
0.978894
0.745259
0.558521
0.41218
0.299627
0.2146
0.151466
0.105367
0.0722486
0.048832
0.0325325
0.0213616
0.0138231
0.00881391
0.00553688
0.00342643
0.00208864
0.00125409
0.000741758
0.000432253
0.000248231
0.000140523
7.84406e-05
4.31879e-05
2.34582e-05
1.25707e-05
6.6451e-06
3.464e-06
1.77974e-06
9.00638e-07
4.48537e-07
2.19618e-07
1.05641e-07
4.98538e-08
2.30763e-08
1.04438e-08
4.61109e-09
1.99437e-09
8.3858e-10
3.39164e-10
1.33909e-10
4.71976e-11
1.4269e-11
-3.29285e-12
-2.41476e-11
-2.41476e-11
1.09762e-11
1.64643e-11
-1.09762e-12
2.19524e-12
-2.19524e-12
3.29285e-12
0
-2.19524e-12
3.29285e-12
-8.78094e-12
0.444913
1.31054
2.10589
2.79147
3.33783
3.72749
3.95551
4.02854
3.96279
3.78129
3.51092
3.17955
2.81363
2.43649
2.06718
1.72007
1.40485
1.12707
0.888734
0.689179
0.525819
0.394877
0.291985
0.21265
0.152573
0.107865
0.0751496
0.0515995
0.0349169
0.0232847
0.0153003
0.00990488
0.00631598
0.00396633
0.00245255
0.00149304
0.000894799
0.000527951
0.000306713
0.000175485
9.89124e-05
5.49436e-05
3.00878e-05
1.6248e-05
8.65416e-06
4.54646e-06
2.35544e-06
1.20297e-06
6.05298e-07
2.99863e-07
1.4611e-07
6.9961e-08
3.29077e-08
1.51581e-08
6.82608e-09
3.02394e-09
1.30397e-09
5.5759e-10
2.20621e-10
9.21999e-11
5.26856e-11
5.48809e-12
-9.87856e-12
-1.09762e-11
1.09762e-12
2.41476e-11
2.19523e-12
-2.19523e-12
0
1.09762e-12
4.39047e-12
-2.19523e-12
0
2.19523e-12
-1.09762e-12
0.298179
0.878632
1.41284
1.87472
2.2446
2.51061
2.66902
2.72375
2.68508
2.56792
2.38992
2.16954
1.92451
1.67057
1.42076
1.18497
0.970046
0.779979
0.616379
0.478983
0.366188
0.275534
0.20412
0.148924
0.107032
0.0757894
0.0528804
0.0363571
0.0246308
0.0164406
0.0108103
0.00700071
0.00446406
0.00280215
0.00173111
0.00105234
0.000629407
0.000370383
0.000214464
0.000122218
6.85681e-05
3.78864e-05
2.06251e-05
1.10669e-05
5.85483e-06
3.05441e-06
1.57132e-06
7.96942e-07
3.98337e-07
1.96095e-07
9.49834e-08
4.52295e-08
2.11522e-08
9.70733e-09
4.35425e-09
1.934e-09
8.21018e-10
3.49042e-10
1.33909e-10
4.71976e-11
2.19524e-11
1.31714e-11
1.09762e-12
4.39047e-12
2.96357e-11
1.09762e-12
-1.53666e-11
0
-1.09762e-12
1.09762e-12
1.09762e-12
1.09762e-12
0
1.09762e-12
1.31714e-11
0.197961
0.583506
0.938852
1.24689
1.49464
1.67412
1.78261
1.82241
1.79999
1.72496
1.60879
1.46361
1.30116
1.13197
0.9648
0.806425
0.661561
0.533042
0.422088
0.328645
0.251731
0.18976
0.140828
0.102922
0.074091
0.0525448
0.0367145
0.0252752
0.0171424
0.0114526
0.00753529
0.0048814
0.00311248
0.00195279
0.00120521
0.00073152
0.000436593
0.000256206
0.000147839
8.38982e-05
4.68394e-05
2.57356e-05
1.39225e-05
7.41937e-06
3.89637e-06
2.01715e-06
1.02958e-06
5.18119e-07
2.57006e-07
1.25599e-07
6.04359e-08
2.86017e-08
1.32943e-08
6.0819e-09
2.73197e-09
1.17884e-09
5.08197e-10
2.12938e-10
7.4638e-11
3.62214e-11
-4.39047e-12
2.19523e-12
6.58571e-12
1.53666e-11
1.09762e-12
-1.09762e-11
0
1.09762e-12
0
-1.09762e-12
7.68332e-12
3.29285e-12
0
3.29285e-12
-4.39047e-12
0.130163
0.38377
0.617813
0.821169
0.98534
1.10503
1.17832
1.20654
1.19374
1.14607
1.07092
0.976188
0.869564
0.758005
0.647354
0.542159
0.445633
0.359747
0.285396
0.222619
0.170821
0.128992
0.0958899
0.070194
0.0506102
0.035946
0.0251517
0.0173371
0.0117716
0.0078715
0.00518236
0.0033582
0.0021411
0.00134264
0.000827793
0.000501648
0.000298743
0.000174811
0.000100513
5.6796e-05
3.15485e-05
1.72336e-05
9.26221e-06
4.90033e-06
2.55346e-06
1.31106e-06
6.63499e-07
3.31047e-07
1.62806e-07
7.89022e-08
3.76724e-08
1.77112e-08
8.19262e-09
3.71104e-09
1.66399e-09
7.07963e-10
3.02942e-10
1.37202e-10
6.47594e-11
3.18309e-11
1.20738e-11
-1.09762e-12
9.87856e-12
-2.41476e-11
-2.19523e-11
-4.39047e-12
1.09762e-12
1.09762e-12
1.09762e-12
0
-7.68332e-12
0
-4.39047e-12
-1.4269e-11
-1.09762e-12
0.0847461
0.249924
0.402531
0.535399
0.64302
0.721915
0.770771
0.790341
0.783159
0.753108
0.704924
0.643694
0.574413
0.501623
0.429171
0.360074
0.29649
0.239764
0.190536
0.148874
0.114422
0.0865419
0.0644351
0.0472412
0.0341124
0.0242636
0.0170008
0.0117335
0.0079757
0.00533809
0.00351672
0.00227959
0.00145332
0.000910883
0.000561028
0.000339449
0.000201704
0.00011769
6.7427e-05
3.79354e-05
2.09643e-05
1.13843e-05
6.07766e-06
3.19162e-06
1.64963e-06
8.39664e-07
4.21124e-07
2.08164e-07
1.01422e-07
4.86936e-08
2.30236e-08
1.07446e-08
4.91733e-09
2.20511e-09
9.64806e-10
4.15997e-10
1.54764e-10
5.59785e-11
2.85381e-11
-3.29285e-12
5.48809e-12
-3.29285e-12
-1.4269e-11
-2.52452e-11
-2.19523e-12
-1.09762e-12
0
-3.29285e-12
1.09762e-12
-1.09762e-12
1.09762e-12
-2.19524e-12
0
0
1.31714e-11
0.0546278
0.161136
0.259636
0.345548
0.415338
0.466747
0.498889
0.512192
0.508225
0.489429
0.458807
0.419609
0.375042
0.328043
0.281114
0.236232
0.194825
0.157797
0.125591
0.0982782
0.075648
0.0573004
0.0427259
0.0313705
0.0226849
0.0161582
0.0113369
0.00783433
0.00533131
0.00357158
0.00235458
0.00152685
0.000973411
0.000609816
0.000375233
0.000226686
0.00013441
7.82039e-05
4.46462e-05
2.50108e-05
1.37516e-05
7.42354e-06
3.93655e-06
2.05172e-06
1.05171e-06
5.30563e-07
2.63584e-07
1.28995e-07
6.22338e-08
2.9572e-08
1.38475e-08
6.39582e-09
2.9043e-09
1.30616e-09
5.64175e-10
2.32695e-10
8.34189e-11
6.58571e-12
-1.4269e-11
-2.19524e-11
-2.305e-11
-5.48809e-12
-8.78094e-12
2.19524e-11
8.78094e-12
-4.39047e-12
-3.29285e-12
0
6.58571e-12
4.39047e-12
6.5857e-12
-1.97571e-11
2.19524e-12
1.09762e-11
0
0.0348594
0.102844
0.16577
0.22074
0.265505
0.298619
0.319492
0.328367
0.326209
0.31454
0.29525
0.270394
0.242012
0.211982
0.181913
0.153084
0.126426
0.102538
0.0817215
0.0640351
0.0493559
0.0374352
0.027951
0.0205503
0.0148808
0.0106138
0.0074568
0.00515958
0.00351521
0.00235727
0.00155521
0.00100895
0.000643287
0.000402856
0.000247671
0.000149409
8.84086e-05
5.12997e-05
2.91867e-05
1.62823e-05
8.90806e-06
4.78109e-06
2.51853e-06
1.30287e-06
6.62322e-07
3.31113e-07
1.62891e-07
7.88891e-08
3.76571e-08
1.77101e-08
8.21347e-09
3.72861e-09
1.69033e-09
7.44185e-10
3.15016e-10
1.30616e-10
4.71976e-11
-7.68332e-12
-2.19523e-11
-3.7319e-11
-4.28071e-11
-1.20738e-11
3.29285e-12
2.305e-11
2.19523e-12
-8.78094e-12
-5.48809e-12
1.31714e-11
0
1.09762e-12
-7.68332e-12
0
0
0
-7.68332e-12
0.022019
0.0649716
0.104757
0.139558
0.167959
0.189041
0.202422
0.208237
0.207077
0.199884
0.187836
0.172223
0.154329
0.135341
0.116282
0.0979703
0.0810057
0.0657765
0.0524835
0.0411723
0.0317709
0.0241258
0.0180353
0.0132765
0.00962604
0.00687481
0.00483627
0.00335065
0.00228553
0.00153427
0.00101309
0.000657614
0.000419364
0.000262564
0.000161304
9.71834e-05
5.73974e-05
3.32209e-05
1.884e-05
1.04686e-05
5.70021e-06
3.04241e-06
1.5924e-06
8.17774e-07
4.12324e-07
2.04259e-07
9.94979e-08
4.76937e-08
2.24979e-08
1.04592e-08
4.7922e-09
2.13596e-09
9.37365e-10
4.01728e-10
1.80009e-10
7.79308e-11
2.305e-11
-1.86595e-11
-2.19523e-11
-3.29285e-11
-3.95142e-11
-3.29285e-11
-1.20738e-11
-1.09762e-12
-5.48809e-12
0
1.09762e-12
0
-8.78094e-12
4.39047e-12
1.09762e-12
2.41476e-11
2.19524e-12
4.39047e-12
0
0.0137663
0.0406254
0.0655191
0.0873169
0.105137
0.118402
0.126869
0.130612
0.129991
0.125586
0.118125
0.108409
0.0972385
0.0853573
0.0734081
0.0619075
0.0512361
0.0416427
0.033258
0.0261148
0.0201711
0.0153325
0.0114739
0.00845571
0.00613799
0.00438911
0.00309159
0.00214465
0.0014647
0.000984355
0.000650588
0.000422591
0.000269579
0.000168771
0.000103626
6.23658e-05
3.67724e-05
2.12346e-05
1.20066e-05
6.64701e-06
3.60326e-06
1.91313e-06
9.95264e-07
5.07572e-07
2.53921e-07
1.24681e-07
6.01319e-08
2.85326e-08
1.32965e-08
6.10714e-09
2.75392e-09
1.21616e-09
5.1588e-10
2.40378e-10
1.07567e-10
4.82952e-11
1.86595e-11
-1.86595e-11
-2.74404e-11
-1.75619e-11
-1.20738e-11
-1.75619e-11
-1.86595e-11
-1.09762e-11
1.09762e-12
-1.4269e-11
1.09762e-12
-6.5857e-12
-1.09762e-12
-1.09762e-12
-2.19523e-12
0
-9.87856e-12
0
5.48809e-12
0.00851825
0.0251405
0.0405532
0.0540601
0.0651164
0.0733649
0.0786511
0.0810181
0.080683
0.0780005
0.0734174
0.0674265
0.0605225
0.0531658
0.0457558
0.0386145
0.0319805
0.0260103
0.0207875
0.0163342
0.0126258
0.00960472
0.00719373
0.0053065
0.00385603
0.00276051
0.00194683
0.00135224
0.000924681
0.000622167
0.000411631
0.000267589
0.000170783
0.00010693
6.56329e-05
3.94664e-05
2.32375e-05
1.33917e-05
7.55188e-06
4.16683e-06
2.24964e-06
1.18866e-06
6.14914e-07
3.11585e-07
1.54726e-07
7.53646e-08
3.60249e-08
1.69132e-08
7.81613e-09
3.53872e-09
1.57508e-09
7.14549e-10
3.12821e-10
1.44886e-10
4.93928e-11
3.18309e-11
1.53666e-11
8.78094e-12
0
1.09762e-11
1.09762e-11
9.87856e-12
-7.68332e-12
-3.40261e-11
-1.31714e-11
-2.63428e-11
0
1.09762e-12
2.19523e-12
-8.78094e-12
-1.31714e-11
-4.39047e-12
-6.5857e-12
-7.68332e-12
-1.09762e-12
0.00521644
0.0153966
0.0248386
0.0331173
0.0398996
0.0449665
0.0482223
0.0496918
0.0495061
0.0478804
0.0450871
0.0414266
0.0372016
0.0326942
0.0281497
0.0237663
0.0196913
0.0160218
0.01281
0.0100701
0.00778757
0.00592746
0.00444243
0.0032795
0.00238523
0.00170934
0.00120688
0.000839316
0.000574663
0.000387133
0.000256415
0.000166839
0.000106549
6.67313e-05
4.09535e-05
2.46111e-05
1.44743e-05
8.32729e-06
4.68511e-06
2.57743e-06
1.38649e-06
7.2941e-07
3.75403e-07
1.89085e-07
9.32821e-08
4.50846e-08
2.13948e-08
9.93893e-09
4.54194e-09
2.04376e-09
9.20901e-10
4.18192e-10
1.86595e-10
6.36618e-11
3.40261e-11
9.87856e-12
0
1.86595e-11
3.84166e-11
3.84166e-11
3.29285e-11
2.305e-11
1.53666e-11
-1.09762e-11
-6.5857e-12
4.39047e-12
-2.19524e-12
0
0
5.48809e-12
8.78094e-12
0
9.87856e-12
2.19523e-12
-6.58571e-12
0.00316126
0.00933079
0.0150535
0.020072
0.0241846
0.0272584
0.0292355
0.0301304
0.0300222
0.0290409
0.0273511
0.0251346
0.0225747
0.0198423
0.0170864
0.0144274
0.0119549
0.00972809
0.00777878
0.00611589
0.0047306
0.00360171
0.00270046
0.00199464
0.00145178
0.00104132
0.000735994
0.000512439
0.000351292
0.00023695
0.000157125
0.000102338
6.54071e-05
4.09827e-05
2.51532e-05
1.51103e-05
8.87918e-06
5.1013e-06
2.86456e-06
1.57189e-06
8.42908e-07
4.41746e-07
2.26322e-07
1.13383e-07
5.56097e-08
2.67006e-08
1.25644e-08
5.79652e-09
2.60574e-09
1.17774e-09
5.37833e-10
2.40378e-10
1.17445e-10
4.28071e-11
2.74404e-11
-1.31714e-11
-1.09762e-11
1.75619e-11
2.305e-11
9.87856e-12
2.41476e-11
9.87856e-12
8.78094e-12
2.19524e-12
2.19523e-12
1.4269e-11
0
1.20738e-11
0
0
2.08547e-11
9.87856e-12
6.58571e-12
4.39047e-12
0
0.00189572
0.00559525
0.0090264
0.0120346
0.0144989
0.0163398
0.0175227
0.0180566
0.0179893
0.0173988
0.0163839
0.0150537
0.0135181
0.0118797
0.0102276
0.00863406
0.00715273
0.00581907
0.00465206
0.00365694
0.00282833
0.00215339
0.00161477
0.00119309
0.000868818
0.000623624
0.000441173
0.000307498
0.000211049
0.00014253
9.4627e-05
6.16988e-05
3.94679e-05
2.47447e-05
1.51911e-05
9.12457e-06
5.35874e-06
3.0755e-06
1.72428e-06
9.44173e-07
5.04966e-07
2.63753e-07
1.34623e-07
6.71731e-08
3.27738e-08
1.56619e-08
7.31672e-09
3.38066e-09
1.518e-09
6.76132e-10
3.18309e-10
1.64643e-10
9.98832e-11
7.35404e-11
3.7319e-11
2.19523e-11
2.08547e-11
2.305e-11
1.09762e-12
-1.09762e-12
0
1.09762e-11
2.19523e-11
2.08547e-11
-8.78094e-12
9.87856e-12
1.97571e-11
0
-2.19523e-12
-1.31714e-11
-5.48809e-12
6.5857e-12
-1.09762e-12
-5.48809e-12
2.19523e-12
0.00112479
0.00331957
0.0053543
0.00713695
0.00859568
0.00968351
0.0103803
0.0106919
0.010647
0.0102925
0.00968725
0.00889614
0.00798439
0.00701278
0.00603409
0.00509097
0.00421504
0.00342713
0.00273828
0.00215144
0.00166324
0.00126593
0.000949147
0.000701318
0.000510843
0.000366861
0.000259722
0.000181198
0.000124501
8.41799e-05
5.59544e-05
3.65242e-05
2.33864e-05
1.46729e-05
9.01172e-06
5.41332e-06
3.17815e-06
1.82265e-06
1.02062e-06
5.57934e-07
2.97713e-07
1.55077e-07
7.88847e-08
3.92299e-08
1.90645e-08
9.06961e-09
4.20936e-09
1.91644e-09
8.82484e-10
3.95142e-10
2.01962e-10
1.20738e-10
7.57356e-11
4.71976e-11
9.87856e-12
2.41476e-11
2.85381e-11
2.19524e-11
1.86595e-11
1.20738e-11
5.48809e-12
1.64643e-11
2.52452e-11
2.41476e-11
8.78094e-12
0
-1.09762e-12
-1.20738e-11
1.09762e-12
0
-1.64643e-11
-9.87856e-12
1.09762e-12
-7.68332e-12
0
0.000660245
0.00194826
0.0031415
0.0041856
0.0050383
0.00567221
0.0060759
0.00625332
0.00622188
0.00600949
0.00565105
0.00518483
0.00464914
0.00407954
0.00350686
0.00295589
0.00244495
0.00198602
0.00158537
0.00124453
0.00096138
0.000731263
0.000548018
0.000404827
0.000294879
0.000211825
0.000150044
0.000104762
7.20519e-05
4.87709e-05
3.24554e-05
2.12089e-05
1.35936e-05
8.53571e-06
5.24533e-06
3.15167e-06
1.85016e-06
1.06055e-06
5.93367e-07
3.23965e-07
1.72547e-07
8.96808e-08
4.54578e-08
2.25198e-08
1.09136e-08
5.1621e-09
2.37305e-09
1.07786e-09
4.90635e-10
2.32695e-10
1.03176e-10
6.25642e-11
2.305e-11
2.19524e-12
-1.09762e-11
-1.97571e-11
3.29285e-12
1.53666e-11
2.52452e-11
1.86595e-11
1.09762e-12
-1.09762e-11
0
-2.19524e-12
1.97571e-11
-2.19524e-12
-1.75619e-11
-4.39047e-12
6.58571e-12
1.53666e-11
5.48809e-12
-5.48809e-12
-8.78094e-12
1.09762e-12
-4.39047e-12
0.000383357
0.00113096
0.0018228
0.00242703
0.00291903
0.00328308
0.00351288
0.00361117
0.00358853
0.00346156
0.0032508
0.00297862
0.00266727
0.00233732
0.00200647
0.00168893
0.0013951
0.00113172
0.00090224
0.000707396
0.000545835
0.000414775
0.000310592
0.00022931
0.000166984
0.000119954
8.49953e-05
5.93795e-05
4.0873e-05
2.76937e-05
1.84491e-05
1.20691e-05
7.74339e-06
4.86641e-06
2.99246e-06
1.79874e-06
1.05604e-06
6.05198e-07
3.38411e-07
1.84565e-07
9.81687e-08
5.09196e-08
2.57556e-08
1.27148e-08
6.13458e-09
2.88344e-09
1.33251e-09
6.16861e-10
2.71112e-10
1.35007e-10
4.28071e-11
1.09762e-11
4.39047e-12
-8.78094e-12
1.09762e-12
3.29285e-12
9.87856e-12
2.63428e-11
2.305e-11
2.63428e-11
5.48809e-12
-2.19523e-12
0
-9.87856e-12
-1.09762e-11
-1.20738e-11
-1.09762e-12
-1.09762e-12
0
6.5857e-12
8.78094e-12
-2.19523e-12
-4.39047e-12
8.78094e-12
0
0.000220134
0.000649221
0.00104572
0.00139111
0.0016712
0.0018771
0.00200547
0.00205824
0.00204185
0.00196616
0.00184316
0.00168581
0.00150689
0.00131811
0.00112952