/*--------------------------------*- C++ -*----------------------------------*\
  =========                 |
  \\      /  F ield         | OpenFOAM: The Open Source CFD Toolbox
   \\    /   O peration     | Website:  https://openfoam.org
    \\  /    A nd           | Version:  10
     \\/     M anipulation  |
\*---------------------------------------------------------------------------*/
FoamFile
{
    format      ascii;
    class       volScalarField;
    location    "242";
    object      T;
}
// * * * * * * * * * * * * * * * * * * * * * * * * * * * * * * * * * * * * * //

dimensions      [0 0 0 1 0 0 0];

internalField   nonuniform List<scalar> 
11250
(
249.78
167.372
139.057
126.531
119.656
115.27
112.19
109.888
108.097
106.664
105.497
104.534
103.735
103.069
102.512
102.047
101.661
101.34
101.075
100.857
100.678
100.534
100.417
100.324
100.249
100.191
100.145
100.109
100.082
100.061
100.045
100.033
100.024
100.017
100.012
100.009
100.006
100.004
100.003
100.002
100.001
100.001
100.001
100
100
100
100
100
100
100
100
100
100
100
100
100
100
100
100
100
100
100
100
100
100
100
100
100
100
100
100
100
100
100
100
331.314
248.034
201.402
173.968
156.511
144.545
135.834
129.201
123.981
119.777
116.337
113.491
111.122
109.143
107.488
106.106
104.954
103.998
103.207
102.557
102.026
101.594
101.246
100.967
100.745
100.57
100.433
100.326
100.244
100.181
100.133
100.097
100.071
100.051
100.036
100.026
100.018
100.013
100.009
100.006
100.004
100.003
100.002
100.001
100.001
100.001
100
100
100
100
100
100
100
100
100
100
100
100
100
100
100
100
100
100
100
100
100
100
100
100
100
100
100
100
100
358.765
292.086
244.606
211.509
187.976
170.679
157.531
147.24
138.996
132.278
126.734
122.122
118.266
115.034
112.325
110.058
108.166
106.593
105.292
104.221
103.345
102.633
102.059
101.598
101.232
100.942
100.716
100.539
100.403
100.299
100.221
100.161
100.117
100.084
100.06
100.043
100.03
100.021
100.014
100.01
100.007
100.005
100.003
100.002
100.001
100.001
100.001
100
100
100
100
100
100
100
100
100
100
100
100
100
100
100
100
100
100
100
100
100
100
100
100
100
100
100
100
370.448
316.997
273.525
239.619
213.368
192.858
176.584
163.463
152.732
143.856
136.454
130.248
125.028
120.635
116.941
113.84
111.247
109.088
107.299
105.826
104.619
103.637
102.845
102.209
101.703
101.303
100.99
100.746
100.558
100.414
100.305
100.223
100.162
100.116
100.083
100.059
100.041
100.029
100.02
100.014
100.009
100.006
100.004
100.003
100.002
100.001
100.001
100.001
100
100
100
100
100
100
100
100
100
100
100
100
100
100
100
100
100
100
100
100
100
100
100
100
100
100
100
376.507
332.012
293.013
260.257
233.248
211.066
192.783
177.617
164.951
154.309
145.33
137.734
131.303
125.862
121.268
117.4
114.156
111.45
109.204
107.351
105.832
104.595
103.595
102.793
102.154
101.649
101.253
100.945
100.707
100.525
100.387
100.283
100.205
100.148
100.105
100.075
100.052
100.037
100.025
100.017
100.012
100.008
100.005
100.004
100.002
100.002
100.001
100.001
100
100
100
100
100
100
100
100
100
100
100
100
100
100
100
100
100
100
100
100
100
100
100
100
100
100
100
380.109
341.635
306.428
275.384
248.592
225.711
206.244
189.682
175.575
163.542
153.268
144.497
137.018
130.655
125.257
120.696
116.861
113.653
110.985
108.781
106.971
105.496
104.303
103.344
102.58
101.976
101.502
101.133
100.848
100.63
100.464
100.339
100.246
100.177
100.127
100.09
100.063
100.044
100.03
100.021
100.014
100.01
100.006
100.004
100.003
100.002
100.001
100.001
100
100
100
100
100
100
100
100
100
100
100
100
100
100
100
100
100
100
100
100
100
100
100
100
100
100
100
382.445
348.119
315.888
286.54
260.374
237.352
217.253
199.786
184.645
171.548
160.24
150.5
142.135
134.977
128.876
123.702
119.338
115.678
112.628
110.103
108.028
106.334
104.961
103.858
102.978
102.282
101.735
101.309
100.98
100.728
100.537
100.393
100.285
100.205
100.147
100.104
100.073
100.051
100.035
100.024
100.016
100.011
100.007
100.005
100.003
100.002
100.001
100.001
100.001
100
100
100
100
100
100
100
100
100
100
100
100
100
100
100
100
100
100
100
100
100
100
100
100
100
100
384.045
352.655
322.705
294.842
269.417
246.541
226.161
208.134
192.274
178.384
166.269
155.746
146.647
138.816
132.112
126.404
121.575
117.515
114.123
111.311
108.995
107.102
105.567
104.332
103.345
102.564
101.95
101.472
101.103
100.82
100.604
100.442
100.321
100.231
100.165
100.117
100.082
100.057
100.04
100.027
100.019
100.013
100.008
100.006
100.004
100.002
100.002
100.001
100.001
100
100
100
100
100
100
100
100
100
100
100
100
100
100
100
100
100
100
100
100
100
100
100
100
100
100
385.182
355.918
327.706
301.075
276.371
253.768
233.313
214.962
198.615
184.145
171.411
160.266
150.568
142.179
134.965
128.801
123.569
119.158
115.466
112.399
109.869
107.798
106.117
104.762
103.68
102.822
102.148
101.622
101.215
100.903
100.666
100.488
100.354
100.255
100.182
100.129
100.091
100.063
100.044
100.03
100.02
100.014
100.009
100.006
100.004
100.003
100.002
100.001
100.001
100
100
100
100
100
100
100
100
100
100
100
100
100
100
100
100
100
100
100
100
100
100
100
100
100
100
386.01
358.312
331.427
305.793
281.73
259.441
239.025
220.501
203.833
188.946
175.744
164.113
153.935
145.087
137.448
130.898
125.322
120.61
116.657
113.367
110.649
108.421
106.61
105.15
103.982
103.055
102.326
101.757
101.317
100.98
100.723
100.529
100.384
100.277
100.198
100.14
100.099
100.069
100.048
100.033
100.022
100.015
100.01
100.007
100.004
100.003
100.002
100.001
100.001
100
100
100
100
100
100
100
100
100
100
100
100
100
100
100
100
100
100
100
100
100
100
100
100
100
100
386.623
360.095
334.224
309.384
285.87
263.887
243.566
224.965
208.091
192.909
179.357
167.35
156.791
147.572
139.583
132.712
126.847
121.878
117.702
114.219
111.337
108.973
107.048
105.494
104.251
103.263
102.485
101.878
101.409
101.048
100.773
100.566
100.411
100.296
100.212
100.15
100.106
100.074
100.051
100.035
100.024
100.016
100.011
100.007
100.005
100.003
100.002
100.001
100.001
100.001
100
100
100
100
100
100
100
100
100
100
100
100
100
100
100
100
100
100
100
100
100
100
100
100
100
387.082
361.435
336.343
312.132
289.072
267.368
247.163
228.542
211.54
196.152
182.342
170.047
159.188
149.672
141.399
134.263
128.157
122.972
118.606
114.959
111.938
109.455
107.432
105.797
104.487
103.446
102.626
101.986
101.49
101.109
100.818
100.6
100.436
100.314
100.225
100.159
100.112
100.078
100.054
100.037
100.025
100.017
100.011
100.008
100.005
100.003
100.002
100.001
100.001
100.001
100
100
100
100
100
100
100
100
100
100
100
100
100
100
100
100
100
100
100
100
100
100
100
100
100
387.429
362.45
337.957
314.24
291.55
270.088
250.003
231.394
214.316
198.786
184.786
172.272
161.18
151.429
142.927
135.575
129.27
123.906
119.382
115.596
112.456
109.873
107.765
106.061
104.694
103.607
102.75
102.08
101.561
101.162
100.858
100.629
100.457
100.329
100.236
100.167
100.118
100.082
100.057
100.039
100.027
100.018
100.012
100.008
100.005
100.003
100.002
100.001
100.001
100.001
100
100
100
100
100
100
100
100
100
100
100
100
100
100
100
100
100
100
100
100
100
100
100
100
100
387.692
363.223
339.19
315.861
293.469
272.211
252.237
233.656
216.537
200.909
186.771
174.092
162.82
152.884
144.2
136.673
130.206
124.695
120.039
116.138
112.898
110.23
108.051
106.287
104.872
103.745
102.856
102.161
101.623
101.208
100.893
100.654
100.476
100.343
100.245
100.174
100.123
100.086
100.059
100.041
100.028
100.019
100.013
100.008
100.006
100.004
100.002
100.002
100.001
100.001
100
100
100
100
100
100
100
100
100
100
100
100
100
100
100
100
100
100
100
100
100
100
100
100
100
387.892
363.812
340.134
317.107
294.953
273.863
253.988
235.442
218.303
202.61
188.371
175.569
164.158
154.078
145.249
137.584
130.985
125.354
120.59
116.594
113.272
110.532
108.294
106.48
105.023
103.863
102.948
102.231
101.676
101.248
100.922
100.676
100.492
100.355
100.254
100.18
100.127
100.089
100.061
100.042
100.029
100.019
100.013
100.009
100.006
100.004
100.002
100.002
100.001
100.001
100
100
100
100
100
100
100
100
100
100
100
100
100
100
100
100
100
100
100
100
100
100
100
100
100
388.045
364.261
340.856
318.064
296.099
275.145
255.355
236.846
219.699
203.962
189.652
176.757
165.242
155.049
146.107
138.331
131.628
125.9
121.048
116.974
113.584
110.786
108.498
106.643
105.151
103.964
103.025
102.291
101.721
101.282
100.948
100.695
100.505
100.365
100.261
100.185
100.13
100.091
100.063
100.043
100.03
100.02
100.013
100.009
100.006
100.004
100.002
100.002
100.001
100.001
100
100
100
100
100
100
100
100
100
100
100
100
100
100
100
100
100
100
100
100
100
100
100
100
100
388.161
364.605
341.408
318.799
296.981
276.138
256.419
237.943
220.796
205.031
190.67
177.706
166.111
155.832
146.802
138.939
132.152
126.347
121.425
117.288
113.842
110.996
108.667
106.778
105.259
104.047
103.09
102.341
101.759
101.311
100.969
100.711
100.517
100.373
100.267
100.19
100.134
100.093
100.065
100.044
100.03
100.02
100.014
100.009
100.006
100.004
100.003
100.002
100.001
100.001
100
100
100
100
100
100
100
100
100
100
100
100
100
100
100
100
100
100
100
100
100
100
100
100
100
388.25
364.866
341.83
319.361
297.659
276.903
257.243
238.797
221.654
205.87
191.473
178.459
166.804
156.459
147.36
139.429
132.577
126.71
121.732
117.544
114.054
111.169
108.807
106.89
105.347
104.117
103.144
102.382
101.79
101.335
100.987
100.724
100.527
100.38
100.272
100.193
100.136
100.095
100.066
100.045
100.031
100.021
100.014
100.009
100.006
100.004
100.003
100.002
100.001
100.001
100
100
100
100
100
100
100
100
100
100
100
100
100
100
100
100
100
100
100
100
100
100
100
100
100
388.317
365.065
342.151
319.79
298.178
277.491
257.878
239.458
222.321
206.526
192.102
179.051
167.351
156.956
147.805
139.821
132.918
127.003
121.979
117.752
114.225
111.31
108.921
106.981
105.42
104.174
103.189
102.417
101.817
101.355
101.002
100.735
100.535
100.386
100.277
100.196
100.138
100.097
100.067
100.046
100.031
100.021
100.014
100.009
100.006
100.004
100.003
100.002
100.001
100.001
100
100
100
100
100
100
100
100
100
100
100
100
100
100
100
100
100
100
100
100
100
100
100
100
100
388.368
365.216
342.395
320.116
298.574
277.941
258.365
239.966
222.836
207.034
192.592
179.514
167.78
157.347
148.156
140.131
133.188
127.236
122.178
117.918
114.364
111.424
109.013
107.055
105.479
104.22
103.225
102.445
101.838
101.371
101.014
100.744
100.542
100.391
100.28
100.199
100.14
100.098
100.068
100.047
100.032
100.022
100.014
100.01
100.006
100.004
100.003
100.002
100.001
100.001
100
100
100
100
100
100
100
100
100
100
100
100
100
100
100
100
100
100
100
100
100
100
100
100
100
388.407
365.33
342.58
320.364
298.874
278.283
258.736
240.356
223.231
207.425
192.97
179.873
168.114
157.653
148.431
140.375
133.402
127.42
122.335
118.051
114.474
111.514
109.087
107.115
105.526
104.258
103.254
102.467
101.855
101.384
101.024
100.752
100.547
100.395
100.283
100.201
100.142
100.099
100.069
100.047
100.032
100.022
100.015
100.01
100.006
100.004
100.003
100.002
100.001
100.001
100
100
100
100
100
100
100
100
100
100
100
100
100
100
100
100
100
100
100
100
100
100
100
100
100
388.435
365.415
342.718
320.55
299.101
278.542
259.019
240.652
223.533
207.725
193.261
180.149
168.372
157.889
148.645
140.565
133.569
127.564
122.458
118.155
114.561
111.586
109.146
107.162
105.564
104.288
103.277
102.485
101.869
101.395
101.032
100.757
100.551
100.398
100.285
100.203
100.143
100.1
100.069
100.048
100.032
100.022
100.015
100.01
100.006
100.004
100.003
100.002
100.001
100.001
100
100
100
100
100
100
100
100
100
100
100
100
100
100
100
100
100
100
100
100
100
100
100
100
100
388.457
365.479
342.823
320.69
299.272
278.737
259.231
240.876
223.762
207.953
193.483
180.361
168.57
158.072
148.81
140.712
133.698
127.677
122.554
118.236
114.629
111.642
109.192
107.199
105.594
104.311
103.296
102.499
101.88
101.403
101.038
100.762
100.555
100.401
100.287
100.204
100.144
100.1
100.07
100.048
100.033
100.022
100.015
100.01
100.007
100.004
100.003
100.002
100.001
100.001
100
100
100
100
100
100
100
100
100
100
100
100
100
100
100
100
100
100
100
100
100
100
100
100
100
388.473
365.527
342.9
320.795
299.399
278.883
259.391
241.044
223.935
208.125
193.651
180.521
168.72
158.211
148.936
140.825
133.798
127.763
122.629
118.299
114.682
111.686
109.228
107.228
105.617
104.33
103.31
102.511
101.889
101.409
101.043
100.766
100.558
100.403
100.289
100.205
100.145
100.101
100.07
100.048
100.033
100.022
100.015
100.01
100.007
100.004
100.003
100.002
100.001
100.001
100
100
100
100
100
100
100
100
100
100
100
100
100
100
100
100
100
100
100
100
100
100
100
100
100
388.485
365.563
342.958
320.872
299.494
278.992
259.51
241.17
224.064
208.254
193.777
180.642
168.834
158.316
149.031
140.911
133.873
127.829
122.686
118.348
114.722
111.72
109.255
107.251
105.635
104.344
103.322
102.52
101.896
101.415
101.047
100.769
100.56
100.404
100.29
100.206
100.145
100.101
100.07
100.048
100.033
100.022
100.015
100.01
100.007
100.004
100.003
100.002
100.001
100.001
100
100
100
100
100
100
100
100
100
100
100
100
100
100
100
100
100
100
100
100
100
100
100
100
100
388.494
365.589
343
320.93
299.564
279.072
259.599
241.264
224.16
208.35
193.872
180.733
168.92
158.395
149.104
140.976
133.931
127.879
122.729
118.384
114.753
111.745
109.276
107.268
105.649
104.355
103.33
102.526
101.901
101.419
101.05
100.771
100.562
100.406
100.291
100.207
100.146
100.102
100.071
100.049
100.033
100.022
100.015
100.01
100.007
100.004
100.003
100.002
100.001
100.001
100
100
100
100
100
100
100
100
100
100
100
100
100
100
100
100
100
100
100
100
100
100
100
100
100
388.501
365.608
343.032
320.972
299.616
279.131
259.664
241.333
224.231
208.422
193.942
180.8
168.983
158.454
149.158
141.024
133.974
127.917
122.761
118.412
114.777
111.765
109.293
107.281
105.659
104.363
103.337
102.531
101.905
101.422
101.052
100.773
100.563
100.407
100.291
100.207
100.146
100.102
100.071
100.049
100.033
100.022
100.015
100.01
100.007
100.004
100.003
100.002
100.001
100.001
100
100
100
100
100
100
100
100
100
100
100
100
100
100
100
100
100
100
100
100
100
100
100
100
100
388.505
365.622
343.054
321.003
299.653
279.175
259.712
241.384
224.283
208.474
193.993
180.85
169.03
158.498
149.197
141.061
134.006
127.945
122.786
118.433
114.794
111.78
109.305
107.291
105.667
104.37
103.342
102.535
101.908
101.424
101.054
100.774
100.564
100.407
100.292
100.207
100.146
100.102
100.071
100.049
100.033
100.023
100.015
100.01
100.007
100.004
100.003
100.002
100.001
100.001
100
100
100
100
100
100
100
100
100
100
100
100
100
100
100
100
100
100
100
100
100
100
100
100
100
388.509
365.632
343.071
321.025
299.681
279.206
259.746
241.42
224.321
208.512
194.031
180.886
169.065
158.53
149.227
141.087
134.03
127.966
122.804
118.448
114.807
111.791
109.314
107.298
105.673
104.374
103.346
102.538
101.91
101.426
101.056
100.775
100.565
100.408
100.292
100.208
100.146
100.102
100.071
100.049
100.033
100.023
100.015
100.01
100.007
100.004
100.003
100.002
100.001
100.001
100
100
100
100
100
100
100
100
100
100
100
100
100
100
100
100
100
100
100
100
100
100
100
100
100
388.511
365.64
343.083
321.041
299.7
279.229
259.771
241.447
224.349
208.54
194.058
180.913
169.09
158.553
149.248
141.107
134.047
127.981
122.817
118.46
114.817
111.799
109.32
107.304
105.678
104.378
103.349
102.54
101.912
101.427
101.057
100.776
100.565
100.408
100.293
100.208
100.147
100.102
100.071
100.049
100.033
100.023
100.015
100.01
100.007
100.004
100.003
100.002
100.001
100.001
100
100
100
100
100
100
100
100
100
100
100
100
100
100
100
100
100
100
100
100
100
100
100
100
100
388.513
365.645
343.091
321.052
299.715
279.245
259.789
241.466
224.368
208.56
194.078
180.932
169.108
158.57
149.264
141.121
134.06
127.992
122.827
118.468
114.824
111.804
109.325
107.308
105.681
104.38
103.351
102.542
101.913
101.428
101.057
100.776
100.566
100.409
100.293
100.208
100.147
100.103
100.071
100.049
100.033
100.023
100.015
100.01
100.007
100.004
100.003
100.002
100.001
100.001
100
100
100
100
100
100
100
100
100
100
100
100
100
100
100
100
100
100
100
100
100
100
100
100
100
388.514
365.648
343.097
321.061
299.725
279.257
259.802
241.48
224.382
208.574
194.092
180.946
169.121
158.582
149.275
141.131
134.069
128
122.834
118.474
114.829
111.809
109.329
107.311
105.683
104.382
103.352
102.543
101.914
101.429
101.058
100.777
100.566
100.409
100.293
100.208
100.147
100.103
100.071
100.049
100.033
100.023
100.015
100.01
100.007
100.004
100.003
100.002
100.001
100.001
100
100
100
100
100
100
100
100
100
100
100
100
100
100
100
100
100
100
100
100
100
100
100
100
100
388.515
365.651
343.101
321.066
299.732
279.265
259.811
241.489
224.392
208.584
194.102
180.955
169.13
158.591
149.283
141.138
134.075
128.006
122.839
118.478
114.833
111.812
109.331
107.313
105.685
104.384
103.353
102.544
101.915
101.429
101.058
100.777
100.566
100.409
100.293
100.208
100.147
100.103
100.071
100.049
100.033
100.023
100.015
100.01
100.007
100.004
100.003
100.002
100.001
100.001
100
100
100
100
100
100
100
100
100
100
100
100
100
100
100
100
100
100
100
100
100
100
100
100
100
388.516
365.653
343.104
321.07
299.737
279.271
259.817
241.496
224.4
208.592
194.109
180.962
169.137
158.597
149.289
141.143
134.08
128.01
122.842
118.482
114.835
111.814
109.333
107.314
105.686
104.385
103.354
102.545
101.915
101.43
101.058
100.777
100.566
100.409
100.293
100.208
100.147
100.103
100.071
100.049
100.033
100.023
100.015
100.01
100.007
100.004
100.003
100.002
100.001
100.001
100
100
100
100
100
100
100
100
100
100
100
100
100
100
100
100
100
100
100
100
100
100
100
100
100
388.516
365.654
343.107
321.073
299.74
279.275
259.822
241.501
224.404
208.597
194.114
180.967
169.141
158.601
149.293
141.147
134.083
128.013
122.845
118.484
114.837
111.816
109.334
107.315
105.687
104.385
103.355
102.545
101.915
101.43
101.059
100.777
100.566
100.409
100.293
100.208
100.147
100.103
100.071
100.049
100.033
100.023
100.015
100.01
100.007
100.004
100.003
100.002
100.001
100.001
100
100
100
100
100
100
100
100
100
100
100
100
100
100
100
100
100
100
100
100
100
100
100
100
100
388.516
365.655
343.108
321.075
299.743
279.277
259.825
241.504
224.408
208.6
194.117
180.97
169.144
158.604
149.296
141.149
134.085
128.015
122.846
118.485
114.838
111.817
109.335
107.316
105.688
104.386
103.355
102.546
101.916
101.43
101.059
100.778
100.566
100.409
100.293
100.208
100.147
100.103
100.071
100.049
100.033
100.023
100.015
100.01
100.007
100.004
100.003
100.002
100.001
100.001
100
100
100
100
100
100
100
100
100
100
100
100
100
100
100
100
100
100
100
100
100
100
100
100
100
388.517
365.656
343.109
321.076
299.744
279.279
259.827
241.507
224.41
208.602
194.12
180.973
169.147
158.606
149.298
141.151
134.087
128.017
122.848
118.486
114.839
111.817
109.336
107.317
105.688
104.386
103.355
102.546
101.916
101.43
101.059
100.778
100.566
100.409
100.293
100.208
100.147
100.103
100.071
100.049
100.033
100.023
100.015
100.01
100.007
100.004
100.003
100.002
100.001
100.001
100
100
100
100
100
100
100
100
100
100
100
100
100
100
100
100
100
100
100
100
100
100
100
100
100
388.517
365.656
343.11
321.077
299.745
279.281
259.828
241.508
224.412
208.604
194.121
180.974
169.148
158.608
149.299
141.152
134.088
128.018
122.849
118.487
114.84
111.818
109.336
107.317
105.688
104.387
103.355
102.546
101.916
101.43
101.059
100.778
100.567
100.409
100.293
100.208
100.147
100.103
100.071
100.049
100.033
100.023
100.015
100.01
100.007
100.004
100.003
100.002
100.001
100.001
100
100
100
100
100
100
100
100
100
100
100
100
100
100
100
100
100
100
100
100
100
100
100
100
100
388.517
365.656
343.11
321.078
299.746
279.282
259.829
241.509
224.413
208.605
194.122
180.975
169.149
158.609
149.3
141.153
134.089
128.018
122.849
118.487
114.84
111.818
109.337
107.317
105.688
104.387
103.356
102.546
101.916
101.43
101.059
100.778
100.567
100.409
100.293
100.208
100.147
100.103
100.071
100.049
100.033
100.023
100.015
100.01
100.007
100.004
100.003
100.002
100.001
100.001
100
100
100
100
100
100
100
100
100
100
100
100
100
100
100
100
100
100
100
100
100
100
100
100
100
388.517
365.657
343.11
321.078
299.747
279.282
259.83
241.51
224.414
208.606
194.123
180.976
169.15
158.609
149.3
141.154
134.089
128.019
122.85
118.488
114.841
111.819
109.337
107.317
105.689
104.387
103.356
102.546
101.916
101.43
101.059
100.778
100.567
100.409
100.293
100.208
100.147
100.103
100.071
100.049
100.033
100.023
100.015
100.01
100.007
100.004
100.003
100.002
100.001
100.001
100
100
100
100
100
100
100
100
100
100
100
100
100
100
100
100
100
100
100
100
100
100
100
100
100
388.517
365.657
343.111
321.079
299.747
279.283
259.831
241.51
224.414
208.606
194.124
180.976
169.15
158.61
149.301
141.154
134.09
128.019
122.85
118.488
114.841
111.819
109.337
107.317
105.689
104.387
103.356
102.546
101.916
101.43
101.059
100.778
100.567
100.409
100.293
100.208
100.147
100.103
100.071
100.049
100.033
100.023
100.015
100.01
100.007
100.004
100.003
100.002
100.001
100.001
100
100
100
100
100
100
100
100
100
100
100
100
100
100
100
100
100
100
100
100
100
100
100
100
100
388.517
365.657
343.111
321.079
299.747
279.283
259.831
241.511
224.414
208.607
194.124
180.977
169.151
158.61
149.301
141.154
134.09
128.019
122.85
118.488
114.841
111.819
109.337
107.318
105.689
104.387
103.356
102.546
101.916
101.43
101.059
100.778
100.567
100.409
100.293
100.208
100.147
100.103
100.071
100.049
100.033
100.023
100.015
100.01
100.007
100.004
100.003
100.002
100.001
100.001
100
100
100
100
100
100
100
100
100
100
100
100
100
100
100
100
100
100
100
100
100
100
100
100
100
388.517
365.657
343.111
321.079
299.747
279.283
259.831
241.511
224.415
208.607
194.124
180.977
169.151
158.61
149.301
141.154
134.09
128.019
122.85
118.488
114.841
111.819
109.337
107.318
105.689
104.387
103.356
102.546
101.916
101.43
101.059
100.778
100.567
100.409
100.293
100.208
100.147
100.103
100.071
100.049
100.033
100.023
100.015
100.01
100.007
100.004
100.003
100.002
100.001
100.001
100
100
100
100
100
100
100
100
100
100
100
100
100
100
100
100
100
100
100
100
100
100
100
100
100
388.517
365.657
343.111
321.079
299.747
279.283
259.831
241.511
224.415
208.607
194.124
180.977
169.151
158.61
149.301
141.155
134.09
128.019
122.85
118.488
114.841
111.819
109.337
107.318
105.689
104.387
103.356
102.546
101.916
101.43
101.059
100.778
100.567
100.409
100.293
100.208
100.147
100.103
100.071
100.049
100.033
100.023
100.015
100.01
100.007
100.004
100.003
100.002
100.001
100.001
100
100
100
100
100
100
100
100
100
100
100
100
100
100
100
100
100
100
100
100
100
100
100
100
100
388.517
365.657
343.111
321.079
299.747
279.283
259.831
241.511
224.415
208.607
194.125
180.977
169.151
158.611
149.301
141.155
134.09
128.019
122.85
118.488
114.841
111.819
109.337
107.318
105.689
104.387
103.356
102.546
101.916
101.43
101.059
100.778
100.567
100.409
100.293
100.208
100.147
100.103
100.071
100.049
100.033
100.023
100.015
100.01
100.007
100.004
100.003
100.002
100.001
100.001
100
100
100
100
100
100
100
100
100
100
100
100
100
100
100
100
100
100
100
100
100
100
100
100
100
388.517
365.657
343.111
321.079
299.747
279.283
259.831
241.511
224.415
208.607
194.125
180.977
169.151
158.611
149.301
141.155
134.09
128.019
122.85
118.488
114.841
111.819
109.337
107.318
105.689
104.387
103.356
102.546
101.916
101.43
101.059
100.778
100.567
100.409
100.293
100.208
100.147
100.103
100.071
100.049
100.033
100.023
100.015
100.01
100.007
100.004
100.003
100.002
100.001
100.001
100
100
100
100
100
100
100
100
100
100
100
100
100
100
100
100
100
100
100
100
100
100
100
100
100
388.517
365.657
343.111
321.079
299.747
279.283
259.831
241.511
224.415
208.607
194.125
180.977
169.151
158.611
149.301
141.155
134.09
128.019
122.85
118.488
114.841
111.819
109.337
107.318
105.689
104.387
103.356
102.546
101.916
101.43
101.059
100.778
100.567
100.409
100.293
100.208
100.147
100.103
100.071
100.049
100.033
100.023
100.015
100.01
100.007
100.004
100.003
100.002
100.001
100.001
100
100
100
100
100
100
100
100
100
100
100
100
100
100
100
100
100
100
100
100
100
100
100
100
100
388.517
365.657
343.111
321.079
299.748
279.283
259.831
241.511
224.415
208.607
194.125
180.977
169.151
158.611
149.301
141.155
134.09
128.019
122.85
118.488
114.841
111.819
109.337
107.318
105.689
104.387
103.356
102.546
101.916
101.43
101.059
100.778
100.567
100.409
100.293
100.208
100.147
100.103
100.071
100.049
100.033
100.023
100.015
100.01
100.007
100.004
100.003
100.002
100.001
100.001
100
100
100
100
100
100
100
100
100
100
100
100
100
100
100
100
100
100
100
100
100
100
100
100
100
388.517
365.657
343.111
321.079
299.748
279.283
259.831
241.511
224.415
208.607
194.125
180.977
169.151
158.611
149.301
141.155
134.09
128.019
122.85
118.488
114.841
111.819
109.337
107.318
105.689
104.387
103.356
102.546
101.916
101.43
101.059
100.778
100.567
100.409
100.293
100.208
100.147
100.103
100.071
100.049
100.033
100.023
100.015
100.01
100.007
100.004
100.003
100.002
100.001
100.001
100
100
100
100
100
100
100
100
100
100
100
100
100
100
100
100
100
100
100
100
100
100
100
100
100
388.517
365.657
343.111
321.079
299.748
279.283
259.831
241.511
224.415
208.607
194.125
180.977
169.151
158.611
149.301
141.155
134.09
128.019
122.85
118.488
114.841
111.819
109.337
107.318
105.689
104.387
103.356
102.546
101.916
101.43
101.059
100.778
100.567
100.409
100.293
100.208
100.147
100.103
100.071
100.049
100.033
100.023
100.015
100.01
100.007
100.004
100.003
100.002
100.001
100.001
100
100
100
100
100
100
100
100
100
100
100
100
100
100
100
100
100
100
100
100
100
100
100
100
100
388.517
365.657
343.111
321.079
299.748
279.283
259.831
241.511
224.415
208.607
194.125
180.977
169.151
158.611
149.302
141.155
134.09
128.019
122.85
118.488
114.841
111.819
109.337
107.318
105.689
104.387
103.356
102.546
101.916
101.43
101.059
100.778
100.567
100.409
100.293
100.208
100.147
100.103
100.071
100.049
100.033
100.023
100.015
100.01
100.007
100.004
100.003
100.002
100.001
100.001
100
100
100
100
100
100
100
100
100
100
100
100
100
100
100
100
100
100
100
100
100
100
100
100
100
388.517
365.657
343.111
321.079
299.748
279.283
259.831
241.511
224.415
208.607
194.125
180.977
169.151
158.611
149.302
141.155
134.09
128.019
122.85
118.488
114.841
111.819
109.337
107.318
105.689
104.387
103.356
102.546
101.916
101.43
101.059
100.778
100.567
100.409
100.293
100.208
100.147
100.103
100.071
100.049
100.033
100.023
100.015
100.01
100.007
100.004
100.003
100.002
100.001
100.001
100
100
100
100
100
100
100
100
100
100
100
100
100
100
100
100
100
100
100
100
100
100
100
100
100
388.517
365.657
343.111
321.079
299.748
279.283
259.831
241.511
224.415
208.607
194.125
180.977
169.151
158.611
149.302
141.155
134.09
128.019
122.85
118.488
114.841
111.819
109.337
107.318
105.689
104.387
103.356
102.546
101.916
101.43
101.059
100.778
100.567
100.409
100.293
100.208
100.147
100.103
100.071
100.049
100.033
100.023
100.015
100.01
100.007
100.004
100.003
100.002
100.001
100.001
100
100
100
100
100
100
100
100
100
100
100
100
100
100
100
100
100
100
100
100
100
100
100
100
100
388.517
365.657
343.111
321.079
299.748
279.283
259.831
241.511
224.415
208.607
194.125
180.977
169.151
158.611
149.302
141.155
134.09
128.019
122.85
118.488
114.841
111.819
109.337
107.318
105.689
104.387
103.356
102.546
101.916
101.43
101.059
100.778
100.567
100.409
100.293
100.208
100.147
100.103
100.071
100.049
100.033
100.023
100.015
100.01
100.007
100.004
100.003
100.002
100.001
100.001
100
100
100
100
100
100
100
100
100
100
100
100
100
100
100
100
100
100
100
100
100
100
100
100
100
388.517
365.657
343.111
321.079
299.748
279.283
259.831
241.511
224.415
208.607
194.125
180.977
169.151
158.611
149.302
141.155
134.09
128.019
122.85
118.488
114.841
111.819
109.337
107.318
105.689
104.387
103.356
102.546
101.916
101.43
101.059
100.778
100.567
100.409
100.293
100.208
100.147
100.103
100.071
100.049
100.033
100.023
100.015
100.01
100.007
100.004
100.003
100.002
100.001
100.001
100
100
100
100
100
100
100
100
100
100
100
100
100
100
100
100
100
100
100
100
100
100
100
100
100
388.517
365.657
343.111
321.079
299.748
279.283
259.831
241.511
224.415
208.607
194.125
180.977
169.151
158.611
149.302
141.155
134.09
128.019
122.85
118.488
114.841
111.819
109.337
107.318
105.689
104.387
103.356
102.546
101.916
101.43
101.059
100.778
100.567
100.409
100.293
100.208
100.147
100.103
100.071
100.049
100.033
100.023
100.015
100.01
100.007
100.004
100.003
100.002
100.001
100.001
100
100
100
100
100
100
100
100
100
100
100
100
100
100
100
100
100
100
100
100
100
100
100
100
100
388.517
365.657
343.111
321.079
299.748
279.283
259.831
241.511
224.415
208.607
194.125
180.977
169.151
158.611
149.302
141.155
134.09
128.019
122.85
118.488
114.841
111.819
109.337
107.318
105.689
104.387
103.356
102.546
101.916
101.43
101.059
100.778
100.567
100.409
100.293
100.208
100.147
100.103
100.071
100.049
100.033
100.023
100.015
100.01
100.007
100.004
100.003
100.002
100.001
100.001
100
100
100
100
100
100
100
100
100
100
100
100
100
100
100
100
100
100
100
100
100
100
100
100
100
388.517
365.657
343.111
321.079
299.748
279.283
259.831
241.511
224.415
208.607
194.125
180.977
169.151
158.611
149.302
141.155
134.09
128.019
122.85
118.488
114.841
111.819
109.337
107.318
105.689
104.387
103.356
102.546
101.916
101.43
101.059
100.778
100.567
100.409
100.293
100.208
100.147
100.103
100.071
100.049
100.033
100.023
100.015
100.01
100.007
100.004
100.003
100.002
100.001
100.001
100
100
100
100
100
100
100
100
100
100
100
100
100
100
100
100
100
100
100
100
100
100
100
100
100
388.517
365.657
343.111
321.079
299.748
279.283
259.831
241.511
224.415
208.607
194.125
180.977
169.151
158.611
149.302
141.155
134.09
128.019
122.85
118.488
114.841
111.819
109.337
107.318
105.689
104.387
103.356
102.546
101.916
101.43
101.059
100.778
100.567
100.409
100.293
100.208
100.147
100.103
100.071
100.049
100.033
100.023
100.015
100.01
100.007
100.004
100.003
100.002
100.001
100.001
100
100
100
100
100
100
100
100
100
100
100
100
100
100
100
100
100
100
100
100
100
100
100
100
100
388.517
365.657
343.111
321.079
299.748
279.283
259.831
241.511
224.415
208.607
194.125
180.977
169.151
158.611
149.302
141.155
134.09
128.019
122.85
118.488
114.841
111.819
109.337
107.318
105.689
104.387
103.356