/*--------------------------------*- C++ -*----------------------------------*\
  =========                 |
  \\      /  F ield         | OpenFOAM: The Open Source CFD Toolbox
   \\    /   O peration     | Website:  https://openfoam.org
    \\  /    A nd           | Version:  10
     \\/     M anipulation  |
\*---------------------------------------------------------------------------*/
FoamFile
{
    format      ascii;
    class       volScalarField;
    location    "385";
    object      gradTz;
}
// * * * * * * * * * * * * * * * * * * * * * * * * * * * * * * * * * * * * * //

dimensions      [0 -1 0 1 0 0 0];

internalField   nonuniform List<scalar> 
11250
(
-14344.6
-4140.2
-1520.15
-716.933
-412.653
-271.53
-194.696
-147.749
-116.604
-94.6407
-78.4016
-65.931
-56.0544
-48.0329
-41.3831
-35.7793
-30.9956
-26.8715
-23.2899
-20.1638
-17.4265
-15.0258
-12.9197
-11.0734
-9.45768
-8.04713
-6.81945
-5.75468
-4.83487
-4.04367
-3.3662
-2.78889
-2.29938
-1.88644
-1.53992
-1.25069
-1.0106
-0.812387
-0.649661
-0.516816
-0.408976
-0.321931
-0.25207
-0.196321
-0.152086
-0.117189
-0.0898162
-0.068468
-0.0519139
-0.0391507
-0.0293667
-0.0219093
-0.0162577
-0.011999
-0.00880824
-0.00643117
-0.00467034
-0.00337339
-0.0024235
-0.00173174
-0.00123079
-0.000870064
-0.00061177
-0.00042786
-0.000297649
-0.00020598
-0.000141817
-9.71758e-05
-6.63206e-05
-4.51614e-05
-3.0808e-05
-2.12436e-05
-1.50893e-05
-1.14374e-05
-9.74012e-06
-8237.97
-4836.02
-2743.41
-1651.64
-1074.6
-750.123
-554.039
-427.31
-340.517
-278.11
-231.373
-195.16
-166.294
-142.734
-123.131
-106.564
-92.3897
-80.1476
-69.5011
-60.1977
-52.0441
-44.8876
-38.6054
-33.0956
-28.2717
-24.0589
-20.3912
-17.2094
-14.4602
-12.095
-10.0694
-8.34312
-6.87916
-5.64407
-4.60755
-3.74234
-3.02405
-2.43103
-1.94415
-1.54665
-1.22396
-0.963483
-0.75442
-0.58758
-0.455198
-0.350757
-0.268832
-0.204938
-0.155391
-0.117189
-0.0879042
-0.0655826
-0.0486658
-0.0359183
-0.0263672
-0.0192517
-0.0139808
-0.0100984
-0.00725495
-0.00518414
-0.00368453
-0.00260467
-0.00183144
-0.00128088
-0.000891077
-0.00061665
-0.000424565
-0.000290922
-0.00019855
-0.000135204
-9.22334e-05
-6.35998e-05
-4.51749e-05
-3.42421e-05
-2.91609e-05
-5532.56
-4221.82
-2965.12
-2070.99
-1483.4
-1099.78
-843.55
-666.524
-539.708
-445.646
-373.632
-316.929
-271.182
-233.502
-201.928
-175.095
-152.038
-132.055
-114.629
-99.367
-85.9671
-74.1889
-63.837
-54.7488
-46.7856
-39.8263
-33.7639
-28.5021
-23.9538
-20.0393
-16.686
-13.8273
-11.4025
-9.35632
-7.63884
-6.20498
-5.01445
-4.03141
-3.22423
-2.56517
-2.0301
-1.59815
-1.25143
-0.974722
-0.755148
-0.581909
-0.446011
-0.340017
-0.25782
-0.194443
-0.145857
-0.108822
-0.0807536
-0.0596024
-0.0437543
-0.0319474
-0.023201
-0.0167585
-0.0120399
-0.00860344
-0.00611482
-0.00432276
-0.00303954
-0.00212583
-0.00147891
-0.00102346
-0.00070466
-0.000482854
-0.000329544
-0.000224408
-0.000153088
-0.000105563
-7.49824e-05
-5.68365e-05
-4.84029e-05
-4136.71
-3552.42
-2823.16
-2182.72
-1687.23
-1321.15
-1053.06
-854.848
-705.582
-590.697
-500.268
-427.552
-367.929
-318.202
-276.121
-240.082
-208.922
-181.783
-158.023
-137.148
-118.771
-102.585
-88.3333
-75.8036
-64.8116
-55.1958
-46.8121
-39.5304
-33.2322
-27.8088
-23.1608
-19.1968
-15.8333
-12.9942
-10.6106
-8.62007
-6.96702
-5.60183
-4.48067
-3.56512
-2.82171
-2.2215
-1.73967
-1.3551
-1.0499
-0.80909
-0.62017
-0.47281
-0.358528
-0.270407
-0.202847
-0.151347
-0.112315
-0.0828996
-0.0608588
-0.0444375
-0.0322725
-0.0233117
-0.0167484
-0.0119683
-0.00850654
-0.00601366
-0.00422858
-0.0029575
-0.00205752
-0.0014239
-0.000980386
-0.000671801
-0.000458506
-0.000312231
-0.000213003
-0.00014688
-0.000104332
-7.90844e-05
-6.73502e-05
-3323.49
-3026.36
-2590.81
-2148.02
-1760.27
-1443.28
-1191.6
-993.274
-836.296
-710.683
-608.756
-524.814
-454.681
-395.308
-344.466
-300.51
-262.215
-228.658
-199.132
-173.088
-150.086
-129.77
-111.843
-96.0534
-82.18
-70.0279
-59.4213
-50.2004
-42.2185
-35.3407
-29.4428
-24.4102
-20.1382
-16.5308
-13.501
-10.9702
-8.86793
-7.1313
-5.70479
-4.53967
-3.59344
-2.82936
-2.21591
-1.72621
-1.33754
-1.03083
-0.790188
-0.60247
-0.456876
-0.344601
-0.258518
-0.192894
-0.143153
-0.105666
-0.0775753
-0.0566457
-0.0411401
-0.0297181
-0.0213518
-0.0152583
-0.0108453
-0.00766724
-0.00539144
-0.00377091
-0.00262347
-0.00181561
-0.00125011
-0.000856645
-0.000584674
-0.000398157
-0.000271626
-0.000187309
-0.000133051
-0.000100856
-8.58926e-05
-2805.31
-2636.64
-2363.72
-2056.4
-1760.78
-1498.52
-1275.37
-1089.15
-934.65
-806.205
-698.705
-607.93
-530.542
-463.952
-406.173
-355.686
-311.32
-272.17
-237.527
-206.826
-179.607
-155.491
-134.155
-115.322
-98.7439
-84.2007
-71.4906
-60.4288
-50.8443
-42.5789
-35.486
-29.4302
-24.2867
-19.9415
-16.2905
-13.2396
-10.7045
-8.60976
-6.88863
-5.48254
-4.34037
-3.4179
-2.67715
-2.08574
-1.61628
-1.24577
-0.955032
-0.728211
-0.552271
-0.416582
-0.312538
-0.233215
-0.173086
-0.127768
-0.0938061
-0.0685007
-0.0497523
-0.0359407
-0.0258236
-0.0184547
-0.0131176
-0.00927403
-0.00652151
-0.00456145
-0.00317355
-0.00219636
-0.00151231
-0.00103635
-0.00070734
-0.000481703
-0.00032863
-0.000226623
-0.000160981
-0.00012203
-0.000103927
-2453.26
-2348.66
-2168.6
-1950.78
-1725.82
-1512.7
-1320.51
-1151.82
-1005.75
-879.844
-771.255
-677.251
-595.448
-523.864
-460.889
-405.235
-355.875
-311.987
-272.908
-238.098
-207.106
-179.551
-155.101
-133.466
-114.383
-97.6134
-82.9358
-70.1455
-59.0514
-49.4753
-41.251
-34.2243
-28.2525
-23.2048
-18.9615
-15.4143
-12.4656
-10.0283
-8.02512
-6.38815
-5.05812
-3.98369
-3.12074
-2.43164
-1.88454
-1.45269
-1.11377
-0.849327
-0.64418
-0.485949
-0.364607
-0.272088
-0.20195
-0.149084
-0.109463
-0.0799381
-0.0580623
-0.0419459
-0.0301398
-0.0215401
-0.0153114
-0.0108254
-0.00761276
-0.00532491
-0.00370483
-0.00256414
-0.0017656
-0.00120996
-0.000825858
-0.00056243
-0.000383715
-0.000264617
-0.000187976
-0.000142496
-0.000121359
-2202.84
-2133.2
-2008.44
-1849.62
-1676.52
-1503.72
-1340.14
-1190.18
-1055.26
-935.069
-828.434
-733.891
-649.953
-575.261
-508.633
-449.069
-395.736
-347.94
-305.105
-266.741
-232.432
-201.813
-174.56
-150.381
-129.007
-110.188
-93.6902
-79.2943
-66.7927
-55.9906
-46.7051
-38.7656
-32.0135
-26.3028
-21.4996
-17.4825
-14.1417
-11.3793
-9.10819
-7.2517
-5.74291
-4.52376
-3.54435
-2.7621
-2.14092
-1.65052
-1.26559
-0.965201
-0.732137
-0.552352
-0.414464
-0.309319
-0.229601
-0.169508
-0.124467
-0.0909012
-0.0660292
-0.047704
-0.034279
-0.0244995
-0.0174159
-0.0123139
-0.00865986
-0.00605757
-0.00421475
-0.00291716
-0.00200875
-0.00137663
-0.000939655
-0.000639949
-0.000436615
-0.000301108
-0.000213904
-0.000162157
-0.000138105
-2018.66
-1969.53
-1879.11
-1759.7
-1624.09
-1482.95
-1343.87
-1211.56
-1088.46
-975.482
-872.628
-779.38
-695.003
-618.703
-549.712
-487.332
-430.945
-380.013
-334.064
-292.684
-255.507
-222.2
-192.458
-165.998
-142.552
-121.869
-103.706
-87.8338
-74.0328
-62.0948
-51.8232
-43.0331
-35.5523
-29.221
-23.893
-19.4345
-15.7251
-12.6566
-10.1329
-8.06926
-6.3916
-5.03565
-3.94607
-3.07563
-2.38429
-1.83838
-1.40981
-1.07532
-0.81575
-0.615494
-0.461887
-0.344742
-0.255916
-0.18895
-0.138753
-0.101342
-0.0736178
-0.0531898
-0.0382232
-0.02732
-0.0194219
-0.0137329
-0.00965825
-0.00675624
-0.00470108
-0.00325389
-0.00224072
-0.00153566
-0.00104824
-0.000713925
-0.000487104
-0.000335939
-0.000238656
-0.000180926
-0.000154095
-1879.83
-1843.44
-1775.18
-1682.57
-1574.03
-1457.24
-1338.3
-1221.55
-1109.72
-1004.38
-906.215
-815.389
-731.745
-654.955
-584.625
-520.338
-461.691
-408.307
-359.831
-315.937
-276.319
-240.686
-208.763
-180.282
-154.986
-132.624
-112.953
-95.7372
-80.748
-67.7675
-56.5876
-47.0119
-38.8562
-31.9491
-26.1329
-21.2633
-17.2099
-13.8554
-11.0954
-8.83775
-7.00178
-5.51745
-4.32439
-3.37105
-2.61371
-2.01556
-1.54589
-1.17925
-0.894703
-0.675138
-0.506698
-0.378223
-0.280795
-0.207337
-0.152267
-0.11122
-0.0807997
-0.0583827
-0.0419576
-0.0299909
-0.0213219
-0.0150772
-0.0106042
-0.00741832
-0.005162
-0.00357308
-0.00246062
-0.00168644
-0.00115121
-0.000784083
-0.000534992
-0.000368979
-0.000262139
-0.000198736
-0.000169267
-1773.23
-1745.11
-1691.65
-1617.64
-1528.74
-1430.53
-1327.77
-1224.21
-1122.54
-1024.56
-931.363
-843.548
-761.374
-684.882
-613.983
-548.512
-488.264
-433.016
-382.533
-336.578
-294.912
-257.294
-223.481
-193.231
-166.3
-142.443
-121.42
-102.992
-86.9261
-72.997
-60.988
-50.6928
-41.9173
-34.4801
-28.2136
-22.9641
-18.5922
-14.9725
-11.993
-9.55502
-7.57171
-5.96777
-4.67822
-3.64751
-2.82851
-2.18153
-1.67343
-1.27671
-0.968761
-0.731106
-0.548761
-0.409662
-0.304165
-0.224613
-0.164969
-0.120507
-0.0875531
-0.063267
-0.0454708
-0.0325042
-0.0231101
-0.0163426
-0.0114948
-0.00804178
-0.0055961
-0.00387375
-0.0026678
-0.00182851
-0.00124824
-0.000850207
-0.000580133
-0.000400129
-0.00028428
-0.00021553
-0.000183575
-1690.22
-1667.68
-1624.39
-1563.52
-1489.01
-1404.93
-1315.01
-1222.38
-1129.54
-1038.29
-949.937
-865.34
-785.043
-709.36
-638.445
-572.342
-511.02
-454.397
-402.352
-354.735
-311.375
-272.083
-236.653
-204.871
-176.508
-151.333
-129.108
-109.597
-92.5651
-77.7806
-65.0209
-54.0723
-44.7322
-36.8109
-30.1322
-24.5342
-19.8697
-16.0059
-12.8243
-10.2198
-8.10035
-6.38576
-5.00687
-3.90446
-3.02828
-2.33597
-1.79216
-1.36748
-1.03777
-0.783279
-0.587988
-0.438992
-0.325974
-0.24074
-0.176829
-0.129182
-0.093863
-0.0678316
-0.0487548
-0.0348541
-0.0247824
-0.0175262
-0.0123281
-0.00862519
-0.0060024
-0.0041552
-0.00286177
-0.00196154
-0.00133912
-0.000912144
-0.000622421
-0.000429315
-0.000305029
-0.00023127
-0.000196986
-1624.91
-1606.23
-1570.09
-1518.68
-1454.8
-1381.49
-1301.69
-1218
-1132.63
-1047.33
-963.472
-882.052
-803.8
-729.224
-658.665
-592.334
-530.348
-472.746
-419.51
-370.574
-325.831
-285.143
-248.345
-215.247
-185.645
-159.317
-136.035
-115.565
-97.6724
-82.1229
-68.6893
-57.1519
-47.3017
-38.9417
-31.8886
-25.9734
-21.0421
-16.9553
-13.5887
-10.8317
-8.58731
-6.77111
-5.31006
-4.14167
-3.21281
-2.47871
-1.90195
-1.45146
-1.10165
-0.831595
-0.62433
-0.466176
-0.346195
-0.255698
-0.187834
-0.137233
-0.0997208
-0.0720704
-0.0518053
-0.0370374
-0.0263365
-0.0186265
-0.0131028
-0.00916772
-0.00638029
-0.00441703
-0.00304224
-0.00208534
-0.0014237
-0.0009698
-0.000661794
-0.000456492
-0.000324353
-0.000245931
-0.000209479
-1573.09
-1557.16
-1526.16
-1481.65
-1425.7
-1360.64
-1288.78
-1212.32
-1133.19
-1053.04
-973.202
-894.764
-818.562
-745.237
-675.264
-608.988
-546.643
-488.374
-434.251
-384.284
-338.426
-296.588
-258.641
-224.427
-193.759
-166.433
-142.228
-120.916
-102.263
-86.0354
-72.0014
-59.9377
-49.63
-40.8756
-33.485
-27.2833
-22.1103
-17.8214
-14.2867
-11.3909
-9.03281
-7.12393
-5.58788
-4.35917
-3.38212
-2.60977
-2.00282
-1.52865
-1.16039
-0.876048
-0.657781
-0.491208
-0.364822
-0.269483
-0.197978
-0.144657
-0.105124
-0.0759817
-0.0546209
-0.0390531
-0.0277717
-0.0196428
-0.0138185
-0.00966907
-0.00672958
-0.00465908
-0.00320912
-0.00219984
-0.00150193
-0.00102314
-0.000698225
-0.000481644
-0.00034224
-0.000259504
-0.000221046
-1531.74
-1517.8
-1490.55
-1451.15
-1401.17
-1342.43
-1276.82
-1206.18
-1132.2
-1056.4
-980.094
-904.363
-830.112
-758.07
-688.809
-622.772
-560.29
-501.592
-446.826
-396.066
-349.319
-306.542
-267.642
-232.487
-200.912
-172.728
-147.725
-125.679
-106.36
-89.5349
-74.9703
-62.4398
-51.7249
-42.6184
-34.9258
-28.4671
-23.077
-18.606
-14.9197
-11.8986
-9.43762
-7.4448
-5.84074
-4.55728
-3.53645
-2.7293
-2.09487
-1.59914
-1.21406
-0.916681
-0.688372
-0.514109
-0.381872
-0.282105
-0.20727
-0.15146
-0.110077
-0.079568
-0.0572033
-0.0409024
-0.0290887
-0.0205756
-0.0144756
-0.0101295
-0.00705041
-0.00488146
-0.00336246
-0.00230507
-0.00157386
-0.00107218
-0.000731728
-0.000504777
-0.000358694
-0.000271992
-0.00023169
-1498.6
-1486.12
-1461.64
-1426.06
-1380.62
-1326.76
-1266.05
-1200.07
-1130.31
-1058.17
-984.892
-911.559
-839.102
-768.303
-699.803
-634.118
-571.651
-512.703
-457.484
-406.122
-358.676
-315.14
-275.454
-239.514
-207.173
-178.258
-152.568
-129.888
-109.99
-92.6429
-77.6128
-64.6711
-53.5965
-44.1781
-36.2172
-29.5296
-23.9458
-19.312
-15.4899
-12.3565
-9.80299
-7.73466
-6.06935
-4.73654
-3.67618
-2.8376
-2.17833
-1.66308
-1.26277
-0.953583
-0.716167
-0.534928
-0.397377
-0.293588
-0.215728
-0.157654
-0.114589
-0.0828355
-0.0595568
-0.0425883
-0.0302898
-0.0214266
-0.0150752
-0.0105497
-0.00734329
-0.00508451
-0.00350251
-0.00240119
-0.00163956
-0.001117
-0.000762348
-0.000525925
-0.000373739
-0.000283412
-0.000241425
-1471.95
-1460.57
-1438.16
-1405.47
-1363.49
-1313.41
-1256.56
-1194.3
-1127.98
-1058.87
-988.164
-916.916
-846.067
-776.427
-708.685
-643.409
-581.058
-521.988
-466.46
-414.652
-366.661
-322.517
-282.19
-245.598
-212.615
-183.081
-156.806
-133.581
-113.184
-95.3841
-79.9485
-66.6473
-55.2572
-45.5643
-37.3667
-30.4767
-24.7213
-19.943
-16.0002
-12.7665
-10.1306
-7.99478
-6.27468
-4.89766
-3.80188
-2.93509
-2.2535
-1.72072
-1.30671
-0.98688
-0.74126
-0.553731
-0.411388
-0.303969
-0.223376
-0.163258
-0.118672
-0.0857938
-0.0616884
-0.0441157
-0.0313782
-0.0221979
-0.0156189
-0.0109308
-0.00760899
-0.00526876
-0.00362962
-0.00248845
-0.00169923
-0.0011577
-0.000790162
-0.000545139
-0.000387411
-0.000293792
-0.000250274
-1450.49
-1439.92
-1419.09
-1388.59
-1349.26
-1302.12
-1248.3
-1189.02
-1125.49
-1058.89
-990.337
-920.877
-851.439
-782.852
-715.83
-650.981
-588.807
-529.705
-473.979
-421.844
-373.433
-328.806
-287.959
-250.831
-217.314
-187.26
-160.489
-136.801
-115.975
-97.7854
-81.999
-68.3858
-56.7208
-46.788
-38.3832
-31.3154
-25.4088
-20.5031
-16.4536
-13.1314
-10.4223
-8.22668
-6.4579
-5.04155
-3.91422
-3.02228
-2.32078
-1.77233
-1.34607
-1.01673
-0.76377
-0.570607
-0.423968
-0.313295
-0.23025
-0.168297
-0.122344
-0.0884555
-0.0636069
-0.0454909
-0.0323585
-0.0228929
-0.0161088
-0.0112743
-0.00784854
-0.00543492
-0.00374427
-0.00256718
-0.00175307
-0.00119444
-0.000815274
-0.000562489
-0.000399759
-0.000303168
-0.000258268
-1433.17
-1423.22
-1403.59
-1374.78
-1337.5
-1292.65
-1241.22
-1184.31
-1123.03
-1058.48
-991.729
-923.784
-855.568
-787.914
-721.556
-657.128
-595.161
-536.087
-480.242
-427.873
-379.143
-334.136
-292.87
-255.305
-221.346
-190.857
-163.67
-139.589
-118.399
-99.875
-83.7873
-69.9049
-58.0021
-47.8612
-39.2759
-32.0531
-26.0145
-20.9971
-16.854
-13.4539
-10.6805
-8.43207
-6.62031
-5.16921
-4.01397
-3.09975
-2.3806
-1.81825
-1.38112
-1.04333
-0.783833
-0.585657
-0.435193
-0.32162
-0.236389
-0.172798
-0.125626
-0.0908354
-0.0653229
-0.0467213
-0.0332358
-0.023515
-0.0165476
-0.011582
-0.00806319
-0.00558384
-0.00384705
-0.00263778
-0.00180136
-0.0012274
-0.000837805
-0.00057806
-0.000410844
-0.000311587
-0.000265447
-1419.2
-1409.73
-1391.01
-1363.5
-1327.81
-1284.74
-1235.2
-1180.18
-1120.71
-1057.84
-992.573
-925.901
-858.728
-791.889
-726.128
-662.096
-600.348
-541.339
-485.433
-432.902
-383.93
-338.626
-297.026
-259.105
-224.783
-193.935
-166.399
-141.987
-120.489
-101.682
-85.3367
-71.2237
-59.1165
-48.7962
-40.0549
-32.6978
-26.5445
-21.43
-17.2053
-13.7371
-10.9074
-8.61281
-6.76336
-5.28175
-4.10197
-3.16816
-2.43346
-1.85885
-1.41213
-1.06687
-0.801604
-0.598994
-0.445146
-0.329004
-0.241837
-0.176795
-0.128542
-0.09295
-0.0668482
-0.0478153
-0.0340162
-0.0240686
-0.0169381
-0.011856
-0.00825434
-0.0057165
-0.00393863
-0.0027007
-0.00184441
-0.00125678
-0.0008579
-0.00059195
-0.000420734
-0.000319101
-0.000271855
-1407.93
-1398.82
-1380.81
-1354.3
-1319.85
-1278.18
-1230.12
-1176.61
-1118.6
-1057.08
-993.042
-927.428
-861.139
-795.001
-729.767
-666.098
-604.564
-545.643
-489.715
-437.073
-387.922
-342.388
-300.523
-262.315
-227.696
-196.551
-168.726
-144.038
-122.28
-103.234
-86.6706
-72.3614
-60.0795
-49.6055
-40.7304
-33.2576
-27.0053
-21.8068
-17.5115
-13.9843
-11.1057
-8.77084
-6.88856
-5.38033
-4.17911
-3.22817
-2.47986
-1.89453
-1.43939
-1.08758
-0.817245
-0.610739
-0.453915
-0.335513
-0.246641
-0.180321
-0.131115
-0.0948172
-0.0681955
-0.0487821
-0.0347061
-0.0245581
-0.0172835
-0.0120984
-0.00842352
-0.00583394
-0.00401973
-0.00275643
-0.00188255
-0.00128282
-0.000875712
-0.000604265
-0.000429504
-0.000325765
-0.000277539
-1398.84
-1390.02
-1372.55
-1346.81
-1313.33
-1272.75
-1225.87
-1173.55
-1116.71
-1056.3
-993.257
-928.521
-862.97
-797.431
-732.654
-669.309
-607.979
-549.153
-493.23
-440.517
-391.234
-345.523
-303.448
-265.01
-230.151
-198.763
-170.699
-145.78
-123.806
-104.559
-87.8117
-73.3365
-60.9065
-50.3017
-41.3122
-33.7406
-27.4034
-22.1328
-17.7766
-14.1986
-11.2778
-8.90814
-6.99743
-5.46613
-4.24631
-3.28049
-2.52035
-1.92567
-1.4632
-1.10568
-0.830925
-0.621018
-0.461593
-0.341216
-0.250852
-0.183413
-0.133372
-0.0964559
-0.0693784
-0.0496312
-0.0353121
-0.0249883
-0.0175872
-0.0123115
-0.00857234
-0.00593728
-0.00409111
-0.00280549
-0.00191613
-0.00130576
-0.000891404
-0.000615117
-0.000437235
-0.00033164
-0.000282551
-1391.53
-1382.92
-1365.88
-1340.74
-1308.01
-1268.29
-1222.34
-1170.97
-1115.06
-1055.53
-993.309
-929.293
-864.358
-799.322
-734.937
-671.877
-610.733
-552.005
-496.103
-443.346
-393.968
-348.122
-305.883
-267.261
-232.207
-200.621
-172.36
-147.252
-125.098
-105.683
-88.782
-74.1672
-61.6122
-50.8968
-41.8104
-34.1546
-27.7452
-22.413
-18.0048
-14.3832
-11.4262
-9.02668
-7.09152
-5.54033
-4.30449
-3.32581
-2.55545
-1.95268
-1.48387
-1.1214
-0.842816
-0.629957
-0.468274
-0.34618
-0.25452
-0.186107
-0.13534
-0.0978851
-0.0704105
-0.0503724
-0.0358413
-0.025364
-0.0178525
-0.0124979
-0.00870245
-0.00602765
-0.00415355
-0.00284842
-0.00194552
-0.00132584
-0.000905145
-0.000624622
-0.000444008
-0.000336788
-0.000286943
-1385.64
-1377.21
-1360.49
-1335.83
-1303.68
-1264.64
-1219.41
-1168.8
-1113.64
-1054.82
-993.258
-929.832
-865.404
-800.789
-736.737
-673.924
-612.947
-554.313
-498.44
-445.659
-396.214
-350.265
-307.898
-269.13
-233.92
-202.173
-173.752
-148.488
-126.186
-106.631
-89.602
-74.8705
-62.2108
-51.4023
-42.2342
-34.5074
-28.0368
-22.6524
-18.2
-14.5413
-11.5534
-9.12839
-7.17231
-5.60412
-4.35453
-3.36483
-2.58569
-1.97598
-1.50171
-1.13498
-0.853088
-0.637684
-0.474052
-0.350476
-0.257695
-0.18844
-0.137045
-0.099124
-0.0713055
-0.0510153
-0.0363006
-0.0256902
-0.0180829
-0.0126597
-0.00881552
-0.0061062
-0.00420784
-0.00288575
-0.0019711
-0.00134331
-0.000917105
-0.000632897
-0.000449906
-0.000341273
-0.00029077
-1380.93
-1372.62
-1356.16
-1331.86
-1300.17
-1261.66
-1217.01
-1166.99
-1112.42
-1054.18
-993.149
-930.202
-866.191
-801.925
-738.152
-675.55
-614.719
-556.172
-500.334
-447.543
-398.049
-352.023
-309.557
-270.674
-235.339
-203.462
-174.912
-149.52
-127.096
-107.426
-90.2909
-75.4625
-62.7154
-51.8292
-42.5927
-34.8062
-28.2841
-22.8556
-18.3659
-14.6758
-11.6617
-9.21511
-7.24128
-5.65861
-4.39732
-3.39822
-2.61158
-1.99594
-1.517
-1.14663
-0.861907
-0.644321
-0.479018
-0.35417
-0.260427
-0.190449
-0.138514
-0.100191
-0.072077
-0.0515697
-0.0366968
-0.0259717
-0.0182818
-0.0127995
-0.00891318
-0.00617407
-0.00425476
-0.00291803
-0.00199321
-0.00135842
-0.000927452
-0.000640058
-0.000455011
-0.000345155
-0.000294083
-1377.15
-1368.94
-1352.69
-1328.67
-1297.34
-1259.24
-1215.04
-1165.49
-1111.4
-1053.62
-993.011
-930.451
-866.781
-802.802
-739.261
-676.838
-616.133
-557.664
-501.861
-449.068
-399.543
-353.459
-310.916
-271.943
-236.508
-204.528
-175.872
-150.377
-127.852
-108.089
-90.8662
-75.9577
-63.1382
-52.1875
-42.8939
-35.0577
-28.4925
-23.0271
-18.5061
-14.7896
-11.7535
-9.28861
-7.29977
-5.70487
-4.43367
-3.42661
-2.63362
-2.01294
-1.53004
-1.15656
-0.869432
-0.649988
-0.48326
-0.357327
-0.262763
-0.192168
-0.13977
-0.101105
-0.0727378
-0.0520448
-0.0370364
-0.0262131
-0.0184525
-0.0129194
-0.00899701
-0.00623236
-0.00429506
-0.00294576
-0.00201221
-0.00137141
-0.000936349
-0.000646218
-0.000459403
-0.000348496
-0.000296935
-1374.13
-1366.01
-1349.9
-1326.11
-1295.06
-1257.29
-1213.44
-1164.26
-1110.54
-1053.12
-992.862
-930.615
-867.22
-803.477
-740.128
-677.854
-617.256
-558.856
-503.088
-450.299
-400.752
-354.625
-312.023
-272.98
-237.467
-205.403
-176.663
-151.084
-128.479
-108.638
-91.3438
-76.3696
-63.4905
-52.4864
-43.1457
-35.2681
-28.6671
-23.171
-18.6238
-14.8852
-11.8307
-9.35051
-7.34909
-5.74391
-4.46437
-3.45061
-2.65226
-2.02733
-1.54108
-1.16498
-0.875813
-0.654796
-0.486862
-0.36001
-0.264749
-0.193629
-0.14084
-0.101883
-0.0733005
-0.0524494
-0.0373258
-0.0264189
-0.018598
-0.0130217
-0.00906855
-0.0062821
-0.00432947
-0.00296945
-0.00202845
-0.00138252
-0.000943954
-0.000651484
-0.000463159
-0.000351354
-0.000299375
-1371.73
-1363.67
-1347.68
-1324.07
-1293.23
-1255.71
-1212.15
-1163.26
-1109.84
-1052.7
-992.715
-930.719
-867.547
-803.994
-740.804
-678.653
-618.146
-559.806
-504.07
-451.288
-401.726
-355.569
-312.922
-273.823
-238.249
-206.119
-177.31
-151.664
-128.994
-109.091
-91.7382
-76.7101
-63.7823
-52.7344
-43.3547
-35.4431
-28.8125
-23.2909
-18.722
-14.9651
-11.8953
-9.40234
-7.39042
-5.77665
-4.49015
-3.47077
-2.66793
-2.03943
-1.55037
-1.17207
-0.881193
-0.658852
-0.489902
-0.362274
-0.266426
-0.194864
-0.141744
-0.102541
-0.0737767
-0.0527921
-0.0375709
-0.0265933
-0.0187213
-0.0131085
-0.00912923
-0.00632431
-0.00435868
-0.00298955
-0.00204223
-0.00139195
-0.000950416
-0.000655959
-0.000466352
-0.000353784
-0.00030145
-1369.82
-1361.81
-1345.92
-1322.43
-1291.77
-1254.45
-1211.1
-1162.44
-1109.25
-1052.35
-992.578
-930.782
-867.789
-804.391
-741.328
-679.28
-618.849
-560.56
-504.852
-452.079
-402.508
-356.328
-313.647
-274.506
-238.883
-206.7
-177.838
-152.138
-129.415
-109.462
-92.0619
-76.9902
-64.0225
-52.9388
-43.5274
-35.5878
-28.9328
-23.3903
-18.8035
-15.0315
-11.949
-9.44548
-7.42485
-5.80395
-4.51165
-3.4876
-2.68102
-2.04956
-1.55815
-1.17801
-0.8857
-0.662252
-0.492451
-0.364175
-0.267835
-0.195902
-0.142504
-0.103095
-0.0741773
-0.0530804
-0.0377773
-0.0267402
-0.0188252
-0.0131816
-0.00918038
-0.00635991
-0.00438332
-0.00300652
-0.00205387
-0.00139991
-0.000955873
-0.00065974
-0.00046905
-0.000355838
-0.000303204
-1368.31
-1360.33
-1344.52
-1321.14
-1290.6
-1253.44
-1210.26
-1161.79
-1108.78
-1052.05
-992.454
-930.817
-867.967
-804.693
-741.735
-679.769
-619.401
-561.155
-505.472
-452.708
-403.133
-356.936
-314.229
-275.056
-239.394
-207.171
-178.266
-152.523
-129.757
-109.764
-92.3261
-77.2191
-64.2192
-53.1064
-43.6691
-35.7067
-29.0319
-23.4722
-18.8708
-15.0863
-11.9933
-9.48117
-7.45335
-5.82657
-4.52949
-3.50157
-2.6919
-2.05797
-1.56462
-1.18295
-0.889454
-0.665086
-0.494578
-0.365761
-0.269011
-0.196768
-0.143139
-0.103557
-0.0745123
-0.0533217
-0.03795
-0.0268631
-0.0189122
-0.0132428
-0.00922326
-0.00638975
-0.00440398
-0.00302075
-0.00206363
-0.00140659
-0.000960454
-0.000662914
-0.000471316
-0.000357563
-0.000304677
-1367.12
-1359.17
-1343.41
-1320.11
-1289.68
-1252.64
-1209.59
-1161.26
-1108.39
-1051.81
-992.345
-930.834
-868.098
-804.923
-742.048
-680.15
-619.833
-561.623
-505.962
-453.207
-403.63
-357.421
-314.695
-275.496
-239.805
-207.55
-178.611
-152.834
-130.035
-110.009
-92.5405
-77.4052
-64.3793
-53.2431
-43.7848
-35.8039
-29.113
-23.5393
-18.9259
-15.1313
-12.0298
-9.51051
-7.47682
-5.84521
-4.54419
-3.5131
-2.70088
-2.06492
-1.56997
-1.18704
-0.892562
-0.667433
-0.49634
-0.367076
-0.269986
-0.197487
-0.143666
-0.103942
-0.0747908
-0.0535223
-0.0380937
-0.0269654
-0.0189847
-0.0132938
-0.00925897
-0.00641462
-0.0044212
-0.00303262
-0.00207177
-0.00141216
-0.000964277
-0.000665564
-0.000473208
-0.000359005
-0.000305908
-1366.19
-1358.26
-1342.54
-1319.31
-1288.95
-1252
-1209.06
-1160.83
-1108.08
-1051.61
-992.251
-930.84
-868.193
-805.098
-742.29
-680.446
-620.171
-561.991
-506.348
-453.601
-404.023
-357.806
-315.065
-275.847
-240.133
-207.853
-178.888
-153.084
-130.258
-110.207
-92.7137
-77.5557
-64.5089
-53.3539
-43.8787
-35.8829
-29.1789
-23.594
-18.9709
-15.168
-12.0596
-9.53451
-7.49602
-5.86047
-4.55625
-3.52256
-2.70825
-2.07064
-1.57436
-1.19041
-0.895119
-0.669366
-0.497792
-0.36816
-0.27079
-0.198081
-0.144101
-0.104259
-0.0750209
-0.0536881
-0.0382125
-0.0270501
-0.0190447
-0.0133361
-0.00928855
-0.00643522
-0.00443547
-0.00304246
-0.00207853
-0.00141679
-0.000967448
-0.000667763
-0.000474779
-0.000360201
-0.000306931
-1365.45
-1357.54
-1341.86
-1318.67
-1288.38
-1251.5
-1208.64
-1160.5
-1107.83
-1051.45
-992.172
-930.838
-868.263
-805.229
-742.475
-680.674
-620.433
-562.277
-506.65
-453.91
-404.332
-358.11
-315.358
-276.125
-240.394
-208.094
-179.108
-153.283
-130.436
-110.365
-92.8527
-77.6766
-64.6133
-53.4432
-43.9545
-35.9467
-29.2322
-23.6382
-19.0073
-15.1978
-12.0838
-9.55401
-7.51164
-5.8729
-4.56607
-3.53027
-2.71427
-2.0753
-1.57795
-1.19316
-0.897212
-0.670948
-0.498981
-0.369048
-0.27145
-0.198568
-0.144459
-0.10452
-0.0752099
-0.0538244
-0.0383102
-0.0271197
-0.019094
-0.0133708
-0.0093129
-0.00645218
-0.00444722
-0.00305056
-0.00208409
-0.0014206
-0.000970063
-0.000669577
-0.000476075
-0.000361188
-0.000307774
-1364.88
-1356.98
-1341.32
-1318.17
-1287.93
-1251.11
-1208.31
-1160.23
-1107.63
-1051.32
-992.105
-930.833
-868.313
-805.329
-742.616
-680.851
-620.636
-562.5
-506.886
-454.152
-404.575
-358.349
-315.589
-276.345
-240.6
-208.285
-179.283
-153.442
-130.579
-110.491
-92.9636
-77.7733
-64.6969
-53.5147
-44.0154
-35.998
-29.2751
-23.6738
-19.0366
-15.2219
-12.1033
-9.56977
-7.52427
-5.88296
-4.57403
-3.53652
-2.71915
-2.07909
-1.58087
-1.19539
-0.898914
-0.672236
-0.499949
-0.369772
-0.271988
-0.198965
-0.14475
-0.104732
-0.0753642
-0.0539357
-0.03839
-0.0271766
-0.0191343
-0.0133993
-0.00933282
-0.00646607
-0.00445685
-0.0030572
-0.00208865
-0.00142372
-0.000972207
-0.000671064
-0.000477137
-0.000361998
-0.000308466
-1364.44
-1356.55
-1340.91
-1317.79
-1287.58
-1250.8
-1208.05
-1160.02
-1107.47
-1051.21
-992.051
-930.825
-868.349
-805.403
-742.724
-680.986
-620.793
-562.673
-507.069
-454.341
-404.765
-358.536
-315.77
-276.518
-240.763
-208.436
-179.422
-153.567
-130.691
-110.591
-93.0518
-77.8502
-64.7634
-53.5718
-44.0639
-36.039
-29.3094
-23.7023
-19.0602
-15.2411
-12.119
-9.58244
-7.53443
-5.89105
-4.58043
-3.54156
-2.72309
-2.08214
-1.58323
-1.1972
-0.90029
-0.673277
-0.500733
-0.370358
-0.272423
-0.199287
-0.144987
-0.104905
-0.0754894
-0.054026
-0.0384548
-0.0272228
-0.0191671
-0.0134224
-0.00934903
-0.00647737
-0.00446468
-0.00306261
-0.00209236
-0.00142627
-0.000973954
-0.000672277
-0.000478004
-0.000362659
-0.000309031
-1364.09
-1356.21
-1340.59
-1317.49
-1287.31
-1250.56
-1207.84
-1159.86
-1107.35
-1051.13
-992.006
-930.817
-868.375
-805.459
-742.806
-681.089
-620.914
-562.806
-507.21
-454.487
-404.913
-358.681
-315.912
-276.653
-240.89
-208.554
-179.53
-153.666
-130.78
-110.67
-93.1214
-77.9111
-64.816
-53.617
-44.1024
-36.0715
-29.3367
-23.725
-19.0789
-15.2565
-12.1315
-9.59255
-7.54255
-5.89753
-4.58556
-3.5456
-2.72624
-2.08459
-1.58512
-1.19865
-0.901396
-0.674115
-0.501363
-0.370829
-0.272774
-0.199546
-0.145177
-0.105044
-0.0755905
-0.054099
-0.0385072
-0.0272602
-0.0191936
-0.0134411
-0.00936214
-0.00648651
-0.00447102
-0.00306698
-0.00209537
-0.00142833
-0.000975369
-0.000673259
-0.000478706
-0.000363194
-0.000309489
-1363.83
-1355.95
-1340.34
-1317.26
-1287.1
-1250.37
-1207.69
-1159.73
-1107.25
-1051.06
-991.97
-930.81
-868.393
-805.501
-742.868
-681.168
-621.006
-562.908
-507.32
-454.6
-405.027
-358.794
-316.022
-276.758
-240.989
-208.646
-179.615
-153.743
-130.85
-110.732
-93.1761
-77.9589
-64.8575
-53.6527
-44.1328
-36.0972
-29.3583
-23.743
-19.0938
-15.2687
-12.1414
-9.60059
-7.54901
-5.90268
-4.58965
-3.54882
-2.72876
-2.08655
-1.58663
-1.19981
-0.90228
-0.674785
-0.501868
-0.371207
-0.273055
-0.199754
-0.14533
-0.105156
-0.0756716
-0.0541576
-0.0385492
-0.0272902
-0.0192149
-0.0134561
-0.00937268
-0.00649386
-0.00447613
-0.0030705
-0.00209779
-0.00142999
-0.000976509
-0.000674051
-0.000479272
-0.000363626
-0.000309858
-1363.62
-1355.75
-1340.15
-1317.08
-1286.94
-1250.23
-1207.56
-1159.63
-1107.18
-1051.01
-991.941
-930.802
-868.406
-805.532
-742.914
-681.228
-621.076
-562.986
-507.403
-454.687
-405.114
-358.881
-316.106
-276.839
-241.066
-208.718
-179.681
-153.803
-130.904
-110.781
-93.2189
-77.9963
-64.89
-53.6806
-44.1567
-36.1174
-29.3753
-23.7572
-19.1055
-15.2783
-12.1493
-9.60694
-7.55411
-5.90676
-4.59288
-3.55136
-2.73075
-2.0881
-1.58783
-1.20073
-0.902982
-0.675318
-0.502269
-0.371508
-0.273279
-0.19992
-0.145452
-0.105245
-0.0757363
-0.0542043
-0.0385828
-0.0273142
-0.0192319
-0.0134681
-0.0093811
-0.00649974
-0.00448021
-0.00307332
-0.00209973
-0.00143132
-0.000977422
-0.000674684
-0.000479726
-0.000363972
-0.000310154
-1363.47
-1355.6
-1340
-1316.94
-1286.81
-1250.12
-1207.47
-1159.55
-1107.12
-1050.97
-991.918
-930.796
-868.415
-805.555
-742.95
-681.273
-621.129
-563.046
-507.467
-454.753
-405.182
-358.948
-316.172
-276.902
-241.125
-208.774
-179.732
-153.85
-130.946
-110.818
-93.2521
-78.0255
-64.9153
-53.7025
-44.1753
-36.1332
-29.3885
-23.7682
-19.1147
-15.2859
-12.1554
-9.61192
-7.55813
-5.90996
-4.59543
-3.55337
-2.73233
-2.08932
-1.58878
-1.20146
-0.903537
-0.675738
-0.502586
-0.371746
-0.273456
-0.200051
-0.145548
-0.105315
-0.0757876
-0.0542414
-0.0386094
-0.0273332
-0.0192454
-0.0134776
-0.0093878
-0.00650441
-0.00448345
-0.00307556
-0.00210127
-0.00143237
-0.000978149
-0.000675189
-0.000480087
-0.000364247
-0.000310389
-1363.35
-1355.48
-1339.89
-1316.84
-1286.72
-1250.04
-1207.4
-1159.49
-1107.07
-1050.94
-991.899
-930.791
-868.421
-805.572
-742.976
-681.307
-621.17
-563.091
-507.516
-454.804
-405.233
-358.999
-316.222
-276.95
-241.171
-208.816
-179.772
-153.886
-130.978
-110.847
-93.2778
-78.048
-64.935
-53.7194
-44.1898
-36.1455
-29.3989
-23.7769
-19.1218
-15.2917
-12.1602
-9.61582
-7.56126
-5.91247
-4.59742
-3.55494
-2.73356
-2.09028
-1.58952
-1.20203
-0.903972
-0.676069
-0.502836
-0.371933
-0.273595
-0.200154
-0.145624
-0.105371
-0.075828
-0.0542706
-0.0386304
-0.0273482
-0.0192561
-0.0134852
-0.00939309
-0.00650811
-0.00448601
-0.00307733
-0.00210249
-0.00143321
-0.000978724
-0.000675589
-0.000480373
-0.000364466
-0.000310576
-1363.26
-1355.4
-1339.81
-1316.76
-1286.64
-1249.97
-1207.34
-1159.45
-1107.04
-1050.91
-991.885
-930.786
-868.426
-805.584
-742.995