/*--------------------------------*- C++ -*----------------------------------*\
  =========                 |
  \\      /  F ield         | OpenFOAM: The Open Source CFD Toolbox
   \\    /   O peration     | Website:  https://openfoam.org
    \\  /    A nd           | Version:  10
     \\/     M anipulation  |
\*---------------------------------------------------------------------------*/
FoamFile
{
    format      ascii;
    class       volScalarField;
    location    "278";
    object      T;
}
// * * * * * * * * * * * * * * * * * * * * * * * * * * * * * * * * * * * * * //

dimensions      [0 0 0 1 0 0 0];

internalField   nonuniform List<scalar> 
11250
(
249.809
167.457
139.196
126.72
119.891
115.546
112.499
110.224
108.452
107.031
105.869
104.905
104.099
103.42
102.846
102.361
101.952
101.607
101.316
101.073
100.87
100.702
100.563
100.449
100.355
100.28
100.219
100.17
100.132
100.101
100.077
100.058
100.044
100.033
100.024
100.018
100.013
100.01
100.007
100.005
100.004
100.002
100.002
100.001
100.001
100.001
100
100
100
100
100
100
100
100
100
100
100
100
100
100
100
100
100
100
100
100
100
100
100
100
100
100
100
100
100
331.399
248.288
201.817
174.535
157.216
145.369
136.759
130.205
125.043
120.876
117.451
114.601
112.21
110.193
108.488
107.045
105.826
104.796
103.93
103.205
102.599
102.097
101.681
101.341
101.062
100.837
100.655
100.509
100.393
100.302
100.23
100.174
100.131
100.098
100.073
100.054
100.039
100.029
100.021
100.015
100.011
100.007
100.005
100.004
100.003
100.002
100.001
100.001
100.001
100
100
100
100
100
100
100
100
100
100
100
100
100
100
100
100
100
100
100
100
100
100
100
100
100
100
358.907
292.506
245.295
212.449
189.143
172.045
159.063
148.904
140.757
134.099
128.581
123.961
120.068
116.774
113.982
111.615
109.61
107.916
106.49
105.294
104.295
103.466
102.78
102.217
101.757
101.384
101.083
100.843
100.651
100.5
100.381
100.289
100.217
100.162
100.12
100.089
100.065
100.047
100.034
100.024
100.017
100.012
100.009
100.006
100.004
100.003
100.002
100.001
100.001
100.001
100
100
100
100
100
100
100
100
100
100
100
100
100
100
100
100
100
100
100
100
100
100
100
100
100
370.645
317.581
274.481
240.923
214.988
194.754
178.712
165.774
155.176
146.384
139.017
132.801
127.53
123.051
119.241
116.001
113.252
110.925
108.963
107.315
105.938
104.793
103.846
103.068
102.432
101.917
101.5
101.167
100.902
100.693
100.528
100.4
100.301
100.225
100.167
100.123
100.09
100.066
100.047
100.034
100.024
100.017
100.012
100.008
100.006
100.004
100.003
100.002
100.001
100.001
100.001
100
100
100
100
100
100
100
100
100
100
100
100
100
100
100
100
100
100
100
100
100
100
100
100
376.756
332.754
294.228
261.916
235.308
213.476
195.488
180.556
168.058
157.522
148.588
140.979
134.484
128.934
124.192
120.147
116.705
113.785
111.319
109.244
107.509
106.064
104.869
103.885
103.081
102.429
101.902
101.48
101.144
100.878
100.67
100.508
100.382
100.286
100.212
100.156
100.114
100.083
100.06
100.043
100.031
100.022
100.015
100.011
100.007
100.005
100.003
100.002
100.002
100.001
100.001
100
100
100
100
100
100
100
100
100
100
100
100
100
100
100
100
100
100
100
100
100
100
100
100
380.41
342.53
307.893
277.383
251.075
228.617
209.504
193.224
179.321
167.415
157.195
148.409
140.852
134.356
128.781
124.007
119.932
116.467
113.534
111.063
108.992
107.267
105.838
104.661
103.698
102.916
102.284
101.778
101.375
101.056
100.806
100.61
100.459
100.343
100.255
100.188
100.138
100.1
100.072
100.052
100.037
100.026
100.018
100.013
100.009
100.006
100.004
100.003
100.002
100.001
100.001
100.001
100
100
100
100
100
100
100
100
100
100
100
100
100
100
100
100
100
100
100
100
100
100
100
382.794
349.159
317.591
288.864
263.26
240.729
221.043
203.902
188.999
176.05
164.805
155.047
146.592
139.279
132.973
127.551
122.908
118.95
115.591
112.757
110.377
108.392
106.746
105.389
104.278
103.374
102.645
102.059
101.593
101.224
100.934
100.708
100.533
100.398
100.296
100.218
100.16
100.116
100.084
100.06
100.043
100.03
100.021
100.015
100.01
100.007
100.005
100.003
100.002
100.001
100.001
100.001
100
100
100
100
100
100
100
100
100
100
100
100
100
100
100
100
100
100
100
100
100
100
100
384.441
353.832
324.633
297.472
272.684
250.365
230.451
212.794
197.203
183.481
171.437
160.894
151.692
143.687
136.75
130.762
125.617
121.219
117.478
114.314
111.655
109.432
107.587
106.065
104.817
103.801
102.98
102.321
101.796
101.38
101.054
100.799
100.602
100.45
100.334
100.246
100.181
100.131
100.095
100.068
100.048
100.034
100.024
100.017
100.012
100.008
100.005
100.004
100.002
100.002
100.001
100.001
100
100
100
100
100
100
100
100
100
100
100
100
100
100
100
100
100
100
100
100
100
100
100
385.621
357.224
329.845
303.993
279.995
258.01
238.073
220.132
204.083
189.8
177.144
165.977
156.166
147.583
140.11
133.635
128.053
123.267
119.188
115.731
112.82
110.384
108.358
106.685
105.313
104.195
103.29
102.564
101.985
101.526
101.165
100.884
100.666
100.498
100.37
100.273
100.2
100.145
100.105
100.075
100.054
100.038
100.027
100.019
100.013
100.009
100.006
100.004
100.003
100.002
100.001
100.001
100.001
100
100
100
100
100
100
100
100
100
100
100
100
100
100
100
100
100
100
100
100
100
100
386.489
359.738
333.762
308.978
285.686
264.072
244.221
226.144
209.802
195.119
182.002
170.347
160.045
150.987
143.065
136.175
130.218
125.096
120.721
117.005
113.871
111.244
109.057
107.249
105.764
104.554
103.574
102.786
102.157
101.659
101.267
100.961
100.724
100.542
100.403
100.297
100.218
100.158
100.114
100.082
100.059
100.041
100.029
100.02
100.014
100.01
100.007
100.004
100.003
100.002
100.001
100.001
100.001
100
100
100
100
100
100
100
100
100
100
100
100
100
100
100
100
100
100
100
100
100
100
387.139
361.63
336.74
312.816
290.132
268.876
249.164
231.045
214.522
199.56
186.1
174.067
163.374
153.928
145.635
138.398
132.121
126.712
122.079
118.139
114.809
112.014
109.684
107.756
106.171
104.878
103.83
102.987
102.314
101.78
101.36
101.032
100.778
100.582
100.433
100.319
100.234
100.17
100.123
100.088
100.063
100.045
100.031
100.022
100.015
100.01
100.007
100.005
100.003
100.002
100.001
100.001
100.001
100
100
100
100
100
100
100
100
100
100
100
100
100
100
100
100
100
100
100
100
100
100
387.632
363.072
339.024
315.789
293.613
272.684
253.128
235.021
218.393
203.239
189.527
177.204
166.203
156.446
147.848
140.322
133.777
128.123
123.271
119.137
115.637
112.696
110.241
108.207
106.534
105.167
104.059
103.167
102.454
101.889
101.444
101.096
100.826
100.618
100.46
100.339
100.249
100.181
100.131
100.094
100.067
100.047
100.033
100.023
100.016
100.011
100.008
100.005
100.003
100.002
100.002
100.001
100.001
100
100
100
100
100
100
100
100
100
100
100
100
100
100
100
100
100
100
100
100
100
100
388.009
364.178
340.787
318.101
296.345
275.701
256.301
238.234
221.552
206.268
192.372
179.828
168.586
158.58
149.736
141.972
135.204
129.344
124.307
120.007
116.362
113.294
110.731
108.605
106.855
105.424
104.262
103.327
102.579
101.986
101.518
101.153
100.869
100.651
100.484
100.357
100.262
100.191
100.138
100.099
100.071
100.05
100.035
100.024
100.017
100.012
100.008
100.005
100.004
100.002
100.002
100.001
100.001
100
100
100
100
100
100
100
100
100
100
100
100
100
100
100
100
100
100
100
100
100
100
388.3
365.032
342.154
319.904
298.492
278.089
258.833
240.821
224.115
208.746
194.717
182.007
170.578
160.375
151.331
143.374
136.422
130.391
125.198
120.758
116.99
113.814
111.158
108.953
107.135
105.648
104.441
103.468
102.689
102.071
101.584
101.203
100.908
100.68
100.506
100.373
100.274
100.199
100.144
100.104
100.074
100.052
100.037
100.026
100.018
100.012
100.008
100.006
100.004
100.003
100.002
100.001
100.001
100
100
100
100
100
100
100
100
100
100
100
100
100
100
100
100
100
100
100
100
100
100
388.525
365.694
343.217
321.313
300.178
279.979
260.851
242.896
226.187
210.763
196.638
183.803
172.229
161.871
152.669
144.555
137.452
131.281
125.958
121.401
117.528
114.262
111.527
109.254
107.379
105.844
104.597
103.591
102.786
102.146
101.642
101.248
100.941
100.705
100.525
100.388
100.284
100.207
100.15
100.108
100.077
100.054
100.038
100.027
100.018
100.013
100.009
100.006
100.004
100.003
100.002
100.001
100.001
100
100
100
100
100
100
100
100
100
100
100
100
100
100
100
100
100
100
100
100
100
100
388.699
366.208
344.045
322.415
301.502
281.47
262.453
244.555
227.853
212.394
198.201
185.274
173.589
163.109
153.781
145.541
138.316
132.029
126.6
121.946
117.986
114.643
111.841
109.511
107.588
106.012
104.731
103.697
102.869
102.211
101.692
101.286
100.971
100.727
100.541
100.4
100.293
100.214
100.155
100.111
100.079
100.056
100.039
100.028
100.019
100.013
100.009
100.006
100.004
100.003
100.002
100.001
100.001
100.001
100
100
100
100
100
100
100
100
100
100
100
100
100
100
100
100
100
100
100
100
100
388.835
366.608
344.69
323.275
302.542
282.646
263.722
245.876
229.186
213.707
199.467
186.47
174.7
164.126
154.698
146.358
139.035
132.654
127.138
122.404
118.373
114.966
112.108
109.73
107.766
106.155
104.845
103.788
102.94
102.267
101.735
101.319
100.996
100.746
100.555
100.41
100.301
100.219
100.159
100.114
100.081
100.058
100.04
100.028
100.02
100.013
100.009
100.006
100.004
100.003
100.002
100.001
100.001
100.001
100
100
100
100
100
100
100
100
100
100
100
100
100
100
100
100
100
100
100
100
100
388.94
366.918
345.192
323.947
303.355
283.571
264.724
246.923
230.249
214.759
200.485
187.436
175.603
164.955
155.45
147.029
139.628
133.172
127.584
122.785
118.695
115.236
112.332
109.914
107.916
106.277
104.942
103.865
103.001
102.314
101.772
101.347
101.017
100.763
100.568
100.42
100.308
100.224
100.162
100.117
100.083
100.059
100.041
100.029
100.02
100.014
100.009
100.006
100.004
100.003
100.002
100.001
100.001
100.001
100
100
100
100
100
100
100
100
100
100
100
100
100
100
100
100
100
100
100
100
100
389.021
367.159
345.582
324.47
303.991
284.295
265.513
247.751
231.092
215.597
201.299
188.213
176.331
165.627
156.061
147.577
140.113
133.597
127.953
123.101
118.963
115.46
112.519
110.068
108.041
106.378
105.024
103.93
103.052
102.354
101.803
101.371
101.036
100.776
100.578
100.427
100.314
100.229
100.165
100.119
100.085
100.06
100.042
100.029
100.02
100.014
100.01
100.007
100.004
100.003
100.002
100.001
100.001
100.001
100
100
100
100
100
100
100
100
100
100
100
100
100
100
100
100
100
100
100
100
100
389.084
367.346
345.885
324.877
304.486
284.862
266.131
248.402
231.758
216.261
201.947
188.833
176.914
166.167
156.554
148.021
140.508
133.944
128.254
123.359
119.182
115.645
112.673
110.195
108.145
106.463
105.092
103.984
103.095
102.388
101.829
101.391
101.051
100.788
100.587
100.434
100.319
100.232
100.168
100.121
100.086
100.061
100.043
100.03
100.021
100.014
100.01
100.007
100.004
100.003
100.002
100.001
100.001
100.001
100
100
100
100
100
100
100
100
100
100
100
100
100
100
100
100
100
100
100
100
100
389.133
367.49
346.119
325.192
304.871
285.302
266.614
248.912
232.281
216.784
202.46
189.326
177.379
166.599
156.949
148.378
140.826
134.224
128.498
123.57
119.362
115.797
112.8
110.3
108.231
106.532
105.148
104.029
103.13
102.416
101.851
101.408
101.064
100.798
100.594
100.439
100.323
100.235
100.17
100.122
100.087
100.062
100.043
100.03
100.021
100.015
100.01
100.007
100.005
100.003
100.002
100.001
100.001
100.001
100
100
100
100
100
100
100
100
100
100
100
100
100
100
100
100
100
100
100
100
100
389.171
367.601
346.3
325.436
305.169
285.644
266.989
249.309
232.69
217.194
202.863
189.714
177.747
166.942
157.264
148.663
141.081
134.449
128.694
123.739
119.507
115.919
112.902
110.385
108.301
106.589
105.194
104.065
103.16
102.438
101.869
101.422
101.074
100.806
100.6
100.444
100.326
100.238
100.172
100.124
100.088
100.063
100.044
100.031
100.021
100.015
100.01
100.007
100.005
100.003
100.002
100.001
100.001
100.001
100
100
100
100
100
100
100
100
100
100
100
100
100
100
100
100
100
100
100
100
100
389.199
367.687
346.439
325.623
305.399
285.908
267.279
249.617
233.008
217.514
203.178
190.018
178.036
167.212
157.512
148.889
141.284
134.629
128.851
123.875
119.623
116.018
112.985
110.454
108.358
106.635
105.231
104.095
103.183
102.457
101.883
101.433
101.083
100.812
100.605
100.448
100.329
100.24
100.173
100.125
100.089
100.063
100.044
100.031
100.021
100.015
100.01
100.007
100.005
100.003
100.002
100.001
100.001
100.001
100
100
100
100
100
100
100
100
100
100
100
100
100
100
100
100
100
100
100
100
100
389.221
367.752
346.545
325.767
305.575
286.112
267.503
249.855
233.254
217.762
203.423
190.256
178.262
167.424
157.708
149.067
141.444
134.771
128.976
123.983
119.716
116.096
113.051
110.509
108.403
106.672
105.261
104.119
103.202
102.472
101.895
101.442
101.09
100.818
100.609
100.451
100.331
100.241
100.175
100.126
100.09
100.064
100.045
100.031
100.022
100.015
100.01
100.007
100.005
100.003
100.002
100.001
100.001
100.001
100
100
100
100
100
100
100
100
100
100
100
100
100
100
100
100
100
100
100
100
100
389.238
367.802
346.626
325.876
305.709
286.267
267.674
250.038
233.443
217.954
203.612
190.44
178.437
167.588
157.86
149.206
141.569
134.882
129.074
124.069
119.789
116.159
113.104
110.553
108.439
106.702
105.285
104.138
103.218
102.484
101.904
101.45
101.095
100.822
100.612
100.453
100.333
100.243
100.176
100.126
100.09
100.064
100.045
100.031
100.022
100.015
100.01
100.007
100.005
100.003
100.002
100.001
100.001
100.001
100
100
100
100
100
100
100
100
100
100
100
100
100
100
100
100
100
100
100
100
100
389.251
367.84
346.688
325.96
305.812
286.385
267.805
250.178
233.588
218.101
203.758
190.581
178.573
167.716
157.978
149.314
141.667
134.969
129.151
124.135
119.846
116.208
113.145
110.587
108.468
106.725
105.304
104.154
103.23
102.494
101.912
101.455
101.1
100.825
100.615
100.455
100.334
100.244
100.176
100.127
100.091
100.064
100.045
100.032
100.022
100.015
100.01
100.007
100.005
100.003
100.002
100.001
100.001
100.001
100
100
100
100
100
100
100
100
100
100
100
100
100
100
100
100
100
100
100
100
100
389.261
367.868
346.734
326.023
305.889
286.475
267.904
250.284
233.698
218.212
203.869
190.69
178.676
167.814
158.069
149.398
141.742
135.037
129.21
124.187
119.891
116.246
113.177
110.614
108.49
106.744
105.319
104.166
103.239
102.501
101.918
101.46
101.104
100.828
100.617
100.457
100.335
100.245
100.177
100.127
100.091
100.064
100.045
100.032
100.022
100.015
100.01
100.007
100.005
100.003
100.002
100.001
100.001
100.001
100
100
100
100
100
100
100
100
100
100
100
100
100
100
100
100
100
100
100
100
100
389.268
367.89
346.769
326.07
305.948
286.543
267.979
250.364
233.782
218.297
203.953
190.772
178.756
167.889
158.139
149.462
141.8
135.088
129.256
124.227
119.926
116.276
113.202
110.635
108.507
106.758
105.331
104.175
103.247
102.507
101.923
101.464
101.106
100.83
100.619
100.458
100.336
100.245
100.178
100.128
100.091
100.065
100.045
100.032
100.022
100.015
100.01
100.007
100.005
100.003
100.002
100.001
100.001
100.001
100
100
100
100
100
100
100
100
100
100
100
100
100
100
100
100
100
100
100
100
100
389.273
367.906
346.795
326.106
305.991
286.593
268.036
250.424
233.845
218.361
204.017
190.834
178.815
167.945
158.192
149.51
141.844
135.128
129.291
124.258
119.952
116.298
113.222
110.651
108.521
106.769
105.34
104.182
103.253
102.512
101.926
101.466
101.109
100.832
100.62
100.459
100.337
100.246
100.178
100.128
100.091
100.065
100.046
100.032
100.022
100.015
100.01
100.007
100.005
100.003
100.002
100.001
100.001
100.001
100
100
100
100
100
100
100
100
100
100
100
100
100
100
100
100
100
100
100
100
100
389.277
367.918
346.815
326.132
306.024
286.631
268.078
250.469
233.892
218.409
204.065
190.881
178.861
167.988
158.232
149.547
141.877
135.158
129.317
124.281
119.973
116.316
113.236
110.664
108.531
106.777
105.346
104.188
103.257
102.516
101.929
101.469
101.11
100.833
100.621
100.46
100.338
100.246
100.178
100.128
100.092
100.065
100.046
100.032
100.022
100.015
100.01
100.007
100.005
100.003
100.002
100.001
100.001
100.001
100
100
100
100
100
100
100
100
100
100
100
100
100
100
100
100
100
100
100
100
100
389.28
367.927
346.829
326.152
306.048
286.659
268.109
250.503
233.927
218.445
204.1
190.916
178.894
168.02
158.262
149.575
141.903
135.181
129.338
124.299
119.988
116.329
113.248
110.673
108.539
106.784
105.352
104.192
103.261
102.518
101.931
101.47
101.112
100.834
100.622
100.46
100.338
100.247
100.179
100.128
100.092
100.065
100.046
100.032
100.022
100.015
100.01
100.007
100.005
100.003
100.002
100.001
100.001
100.001
100
100
100
100
100
100
100
100
100
100
100
100
100
100
100
100
100
100
100
100
100
389.282
367.933
346.84
326.166
306.066
286.68
268.132
250.527
233.952
218.471
204.127
190.942
178.919
168.044
158.284
149.595
141.921
135.197
129.353
124.312
119.999
116.339
113.256
110.68
108.545
106.789
105.356
104.195
103.263
102.52
101.933
101.472
101.113
100.835
100.622
100.461
100.338
100.247
100.179
100.129
100.092
100.065
100.046
100.032
100.022
100.015
100.01
100.007
100.005
100.003
100.002
100.001
100.001
100.001
100
100
100
100
100
100
100
100
100
100
100
100
100
100
100
100
100
100
100
100
100
389.284
367.938
346.848
326.177
306.079
286.695
268.149
250.546
233.971
218.491
204.146
190.961
178.938
168.061
158.3
149.61
141.935
135.21
129.364
124.322
120.008
116.346
113.262
110.686
108.549
106.793
105.359
104.198
103.265
102.522
101.934
101.473
101.113
100.836
100.623
100.461
100.339
100.247
100.179
100.129
100.092
100.065
100.046
100.032
100.022
100.015
100.01
100.007
100.005
100.003
100.002
100.001
100.001
100.001
100
100
100
100
100
100
100
100
100
100
100
100
100
100
100
100
100
100
100
100
100
389.285
367.941
346.853
326.184
306.089
286.706
268.161
250.559
233.985
218.505
204.161
190.975
178.951
168.074
158.313
149.622
141.945
135.219
129.372
124.329
120.014
116.352
113.267
110.689
108.553
106.795
105.361
104.2
103.267
102.523
101.935
101.473
101.114
100.836
100.623
100.461
100.339
100.247
100.179
100.129
100.092
100.065
100.046
100.032
100.022
100.015
100.01
100.007
100.005
100.003
100.002
100.001
100.001
100.001
100
100
100
100
100
100
100
100
100
100
100
100
100
100
100
100
100
100
100
100
100
389.286
367.944
346.857
326.19
306.095
286.714
268.17
250.568
233.995
218.515
204.171
190.985
178.961
168.084
158.321
149.63
141.953
135.226
129.378
124.334
120.019
116.356
113.27
110.692
108.555
106.797
105.363
104.201
103.268
102.524
101.936
101.474
101.114
100.836
100.623
100.461
100.339
100.247
100.179
100.129
100.092
100.065
100.046
100.032
100.022
100.015
100.01
100.007
100.005
100.003
100.002
100.001
100.001
100.001
100
100
100
100
100
100
100
100
100
100
100
100
100
100
100
100
100
100
100
100
100
389.287
367.946
346.86
326.194
306.1
286.72
268.176
250.575
234.003
218.523
204.178
190.993
178.968
168.09
158.328
149.636
141.958
135.231
129.382
124.338
120.022
116.359
113.273
110.695
108.557
106.799
105.364
104.202
103.269
102.525
101.936
101.474
101.115
100.837
100.624
100.461
100.339
100.247
100.179
100.129
100.092
100.065
100.046
100.032
100.022
100.015
100.01
100.007
100.005
100.003
100.002
100.001
100.001
100.001
100
100
100
100
100
100
100
100
100
100
100
100
100
100
100
100
100
100
100
100
100
389.287
367.947
346.862
326.197
306.104
286.724
268.181
250.58
234.008
218.528
204.184
190.998
178.973
168.095
158.332
149.64
141.962
135.234
129.386
124.341
120.025
116.361
113.275
110.696
108.558
106.8
105.365
104.203
103.269
102.525
101.936
101.475
101.115
100.837
100.624
100.462
100.339
100.247
100.179
100.129
100.092
100.065
100.046
100.032
100.022
100.015
100.01
100.007
100.005
100.003
100.002
100.001
100.001
100.001
100
100
100
100
100
100
100
100
100
100
100
100
100
100
100
100
100
100
100
100
100
389.287
367.948
346.864
326.199
306.106
286.727
268.184
250.584
234.012
218.532
204.188
191.002
178.977
168.099
158.336
149.643
141.965
135.237
129.388
124.343
120.027
116.362
113.276
110.697
108.559
106.801
105.365
104.203
103.27
102.525
101.937
101.475
101.115
100.837
100.624
100.462
100.339
100.247
100.179
100.129
100.092
100.065
100.046
100.032
100.022
100.015
100.01
100.007
100.005
100.003
100.002
100.001
100.001
100.001
100
100
100
100
100
100
100
100
100
100
100
100
100
100
100
100
100
100
100
100
100
389.288
367.949
346.865
326.2
306.108
286.729
268.186
250.586
234.014
218.534
204.19
191.004
178.98
168.101
158.338
149.645
141.967
135.239
129.39
124.345
120.028
116.363
113.277
110.698
108.56
106.801
105.366
104.204
103.27
102.526
101.937
101.475
101.115
100.837
100.624
100.462
100.339
100.247
100.179
100.129
100.092
100.065
100.046
100.032
100.022
100.015
100.01
100.007
100.005
100.003
100.002
100.001
100.001
100.001
100
100
100
100
100
100
100
100
100
100
100
100
100
100
100
100
100
100
100
100
100
389.288
367.949
346.866
326.201
306.109
286.73
268.188
250.588
234.016
218.536
204.192
191.006
178.982
168.103
158.34
149.647
141.969
135.24
129.391
124.346
120.029
116.364
113.278
110.699
108.56
106.802
105.366
104.204
103.27
102.526
101.937
101.475
101.115
100.837
100.624
100.462
100.339
100.247
100.179
100.129
100.092
100.065
100.046
100.032
100.022
100.015
100.01
100.007
100.005
100.003
100.002
100.001
100.001
100.001
100
100
100
100
100
100
100
100
100
100
100
100
100
100
100
100
100
100
100
100
100
389.288
367.949
346.866
326.202
306.11
286.731
268.189
250.589
234.017
218.538
204.193
191.008
178.983
168.104
158.341
149.648
141.97
135.241
129.392
124.346
120.029
116.365
113.278
110.699
108.561
106.802
105.366
104.204
103.27
102.526
101.937
101.475
101.115
100.837
100.624
100.462
100.339
100.247
100.179
100.129
100.092
100.065
100.046
100.032
100.022
100.015
100.01
100.007
100.005
100.003
100.002
100.001
100.001
100.001
100
100
100
100
100
100
100
100
100
100
100
100
100
100
100
100
100
100
100
100
100
389.288
367.949
346.867
326.202
306.111
286.732
268.19
250.59
234.018
218.538
204.194
191.008
178.984
168.105
158.342
149.649
141.97
135.242
129.392
124.347
120.03
116.365
113.278
110.699
108.561
106.802
105.367
104.204
103.27
102.526
101.937
101.475
101.115
100.837
100.624
100.462
100.339
100.247
100.179
100.129
100.092
100.065
100.046
100.032
100.022
100.015
100.01
100.007
100.005
100.003
100.002
100.001
100.001
100.001
100
100
100
100
100
100
100
100
100
100
100
100
100
100
100
100
100
100
100
100
100
389.288
367.95
346.867
326.203
306.111
286.732
268.19
250.591
234.019
218.539
204.195
191.009
178.984
168.106
158.342
149.649
141.971
135.242
129.392
124.347
120.03
116.365
113.279
110.699
108.561
106.802
105.367
104.204
103.271
102.526
101.937
101.475
101.115
100.837
100.624
100.462
100.339
100.247
100.179
100.129
100.092
100.065
100.046
100.032
100.022
100.015
100.01
100.007
100.005
100.003
100.002
100.001
100.001
100.001
100
100
100
100
100
100
100
100
100
100
100
100
100
100
100
100
100
100
100
100
100
389.288
367.95
346.867
326.203
306.112
286.733
268.191
250.591
234.019
218.54
204.195
191.01
178.985
168.106
158.343
149.65
141.971
135.242
129.393
124.348
120.03
116.366
113.279
110.7
108.561
106.802
105.367
104.204
103.271
102.526
101.937
101.475
101.115
100.837
100.624
100.462
100.339
100.247
100.179
100.129
100.092
100.065
100.046
100.032
100.022
100.015
100.01
100.007
100.005
100.003
100.002
100.001
100.001
100.001
100
100
100
100
100
100
100
100
100
100
100
100
100
100
100
100
100
100
100
100
100
389.288
367.95
346.867
326.203
306.112
286.733
268.191
250.591
234.02
218.54
204.196
191.01
178.985
168.106
158.343
149.65
141.971
135.243
129.393
124.348
120.031
116.366
113.279
110.7
108.561
106.802
105.367
104.204
103.271
102.526
101.937
101.475
101.115
100.837
100.624
100.462
100.339
100.247
100.179
100.129
100.092
100.065
100.046
100.032
100.022
100.015
100.01
100.007
100.005
100.003
100.002
100.001
100.001
100.001
100
100
100
100
100
100
100
100
100
100
100
100
100
100
100
100
100
100
100
100
100
389.288
367.95
346.867
326.203
306.112
286.733
268.191
250.592
234.02
218.54
204.196
191.01
178.985
168.107
158.343
149.65
141.971
135.243
129.393
124.348
120.031
116.366
113.279
110.7
108.561
106.802
105.367
104.205
103.271
102.526
101.937
101.475
101.115
100.837
100.624
100.462
100.339
100.247
100.179
100.129
100.092
100.065
100.046
100.032
100.022
100.015
100.01
100.007
100.005
100.003
100.002
100.001
100.001
100.001
100
100
100
100
100
100
100
100
100
100
100
100
100
100
100
100
100
100
100
100
100
389.288
367.95
346.867
326.203
306.112
286.733
268.191
250.592
234.02
218.54
204.196
191.01
178.985
168.107
158.343
149.65
141.972
135.243
129.393
124.348
120.031
116.366
113.279
110.7
108.561
106.802
105.367
104.205
103.271
102.526
101.937
101.475
101.115
100.837
100.624
100.462
100.339
100.247
100.179
100.129
100.092
100.065
100.046
100.032
100.022
100.015
100.01
100.007
100.005
100.003
100.002
100.001
100.001
100.001
100
100
100
100
100
100
100
100
100
100
100
100
100
100
100
100
100
100
100
100
100
389.288
367.95
346.867
326.203
306.112
286.733
268.191
250.592
234.02
218.54
204.196
191.01
178.985
168.107
158.343
149.65
141.972
135.243
129.393
124.348
120.031
116.366
113.279
110.7
108.561
106.802
105.367
104.205
103.271
102.526
101.937
101.475
101.115
100.837
100.624
100.462
100.339
100.247
100.179
100.129
100.092
100.065
100.046
100.032
100.022
100.015
100.01
100.007
100.005
100.003
100.002
100.001
100.001
100.001
100
100
100
100
100
100
100
100
100
100
100
100
100
100
100
100
100
100
100
100
100
389.288
367.95
346.867
326.203
306.112
286.733
268.191
250.592
234.02
218.54
204.196
191.01
178.985
168.107
158.343
149.65
141.972
135.243
129.393
124.348
120.031
116.366
113.279
110.7
108.561
106.802
105.367
104.205
103.271
102.526
101.937
101.475
101.115
100.837
100.624
100.462
100.339
100.247
100.179
100.129
100.092
100.065
100.046
100.032
100.022
100.015
100.01
100.007
100.005
100.003
100.002
100.001
100.001
100.001
100
100
100
100
100
100
100
100
100
100
100
100
100
100
100
100
100
100
100
100
100
389.288
367.95
346.867
326.203
306.112
286.733
268.191
250.592
234.02
218.54
204.196
191.01
178.986
168.107
158.343
149.65
141.972
135.243
129.393
124.348
120.031
116.366
113.279
110.7
108.561
106.802
105.367
104.205
103.271
102.526
101.937
101.475
101.115
100.837
100.624
100.462
100.339
100.247
100.179
100.129
100.092
100.065
100.046
100.032
100.022
100.015
100.01
100.007
100.005
100.003
100.002
100.001
100.001
100.001
100
100
100
100
100
100
100
100
100
100
100
100
100
100
100
100
100
100
100
100
100
389.288
367.95
346.867
326.203
306.112
286.733
268.192
250.592
234.02
218.54
204.196
191.01
178.986
168.107
158.343
149.65
141.972
135.243
129.393
124.348
120.031
116.366
113.279
110.7
108.561
106.802
105.367
104.205
103.271
102.526
101.937
101.475
101.115
100.837
100.624
100.462
100.339
100.247
100.179
100.129
100.092
100.065
100.046
100.032
100.022
100.015
100.01
100.007
100.005
100.003
100.002
100.001
100.001
100.001
100
100
100
100
100
100
100
100
100
100
100
100
100
100
100
100
100
100
100
100
100
389.288
367.95
346.867
326.203
306.112
286.733
268.192
250.592
234.02
218.54
204.196
191.01
178.986
168.107
158.343
149.65
141.972
135.243
129.393
124.348
120.031
116.366
113.279
110.7
108.561
106.802
105.367
104.205
103.271
102.526
101.937
101.475
101.115
100.837
100.624
100.462
100.339
100.247
100.179
100.129
100.092
100.065
100.046
100.032
100.022
100.015
100.01
100.007
100.005
100.003
100.002
100.001
100.001
100.001
100
100
100
100
100
100
100
100
100
100
100
100
100
100
100
100
100
100
100
100
100
389.288
367.95
346.867
326.203
306.112
286.733
268.192
250.592
234.02
218.54
204.196
191.01
178.986
168.107
158.343
149.65
141.972
135.243
129.393
124.348
120.031
116.366
113.279
110.7
108.561
106.802
105.367
104.205
103.271
102.526
101.937
101.475
101.115
100.837
100.624
100.462
100.339
100.247
100.179
100.129
100.092
100.065
100.046
100.032
100.022
100.015
100.01
100.007
100.005
100.003
100.002
100.001
100.001
100.001
100
100
100
100
100
100
100
100
100
100
100
100
100
100
100
100
100
100
100
100
100
389.288
367.95
346.867
326.203
306.112
286.733
268.192
250.592
234.02
218.54
204.196
191.01
178.986
168.107
158.343
149.65
141.972
135.243
129.393
124.348
120.031
116.366
113.279
110.7
108.561
106.802
105.367
104.205
103.271
102.526
101.937
101.475
101.115
100.837
100.624
100.462
100.339
100.247
100.179
100.129
100.092
100.065
100.046
100.032
100.022
100.015
100.01
100.007
100.005
100.003
100.002
100.001
100.001
100.001
100
100
100
100
100
100
100
100
100
100
100
100
100
100
100
100
100
100
100
100
100
389.288
367.95
346.867
326.203
306.112
286.733
268.192
250.592
234.02
218.54
204.196
191.01
178.986
168.107
158.343
149.65
141.972
135.243
129.393
124.348
120.031
116.366
113.279
110.7
108.561
106.802
105.367
104.205
103.271
102.526
101.937
101.475
101.115
100.837
100.624
100.462
100.339
100.247
100.179
100.129
100.092
100.065
100.046
100.032
100.022
100.015
100.01
100.007
100.005
100.003
100.002
100.001
100.001
100.001
100
100
100
100
100
100
100
100
100
100
100
100
100
100
100
100
100
100
100
100
100
389.288
367.95
346.867
326.203
306.112
286.733
268.192
250.592
234.02
218.54
204.196
191.01
178.986
168.107
158.343
149.65
141.972
135.243
129.393
124.348
120.031
116.366
113.279
110.7
108.561
106.802
105.367
104.205
103.271
102.526
101.937
101.475
101.115
100.837
100.624
100.462
100.339
100.247
100.179
100.129
100.092
100.065
100.046
100.032
100.022
100.015
100.01
100.007
100.005
100.003
100.002
100.001
100.001
100.001
100
100
100
100
100
100
100
100
100
100
100
100
100
100
100
100
100
100
100
100
100
389.288
367.95
346.867
326.203
306.112
286.733
268.192
250.592
234.02
218.54
204.196
191.01
178.986
168.107
158.343
149.65
141.972
135.243
129.393
124.348
120.031
116.366
113.279
110.7
108.561
106.802
105.367
104.205
103.271
102.526
101.937
101.475
101.115
100.837
100.624
100.462
100.339
100.247
100.179
100.129
100.092
100.065
100.046
100.032
100.022
100.015
100.01
100.007
100.005
100.003
100.002
100.001
100.001
100.001
100
100
100
100
100
100
100
100
100
100
100
100
100
100
100
100
100
100
100
100
100
389.288
367.95
346.867
326.203
306.112
286.733
268.192
250.592
234.02
218.54
204.196
191.01
178.986
168.107
158.343
149.65
141.972
135.243
129.393
124.348
120.031
116.366
113.279
110.7
108.561
106.802
105.367
104.205
103.271
102.526
101.937
101.475
101.115
100.837
100.624
100.462
100.339
100.247
100.179
100.129
100.092
100.065
100.046
100.032
100.022
100.015
100.01
100.007
100.005