/*--------------------------------*- C++ -*----------------------------------*\
  =========                 |
  \\      /  F ield         | OpenFOAM: The Open Source CFD Toolbox
   \\    /   O peration     | Website:  https://openfoam.org
    \\  /    A nd           | Version:  10
     \\/     M anipulation  |
\*---------------------------------------------------------------------------*/
FoamFile
{
    format      ascii;
    class       volScalarField;
    location    "432";
    object      gradTz;
}
// * * * * * * * * * * * * * * * * * * * * * * * * * * * * * * * * * * * * * //

dimensions      [0 -1 0 1 0 0 0];

internalField   nonuniform List<scalar> 
11250
(
-14342.4
-4137.99
-1518.02
-714.902
-410.759
-269.801
-193.154
-146.413
-115.487
-93.75
-77.7402
-65.4965
-55.8399
-48.0271
-41.5712
-36.1436
-31.5159
-27.5261
-24.0564
-21.0195
-18.3491
-15.9939
-13.9133
-12.0744
-10.4498
-9.01641
-7.75409
-6.64521
-5.67397
-4.82613
-4.0887
-3.44981
-2.89858
-2.42503
-2.02003
-1.67525
-1.38311
-1.13675
-0.930015
-0.757376
-0.613926
-0.495326
-0.397764
-0.317914
-0.252892
-0.200214
-0.157754
-0.123706
-0.0965426
-0.0749827
-0.0579581
-0.0445836
-0.0341305
-0.0260025
-0.0197147
-0.0148754
-0.0111699
-0.00834702
-0.00620748
-0.00459413
-0.00338372
-0.00248025
-0.00180929
-0.00131355
-0.000949154
-0.000682695
-0.000488904
-0.00034878
-0.000248132
-0.000176444
-0.000126002
-9.12247e-05
-6.81665e-05
-5.41562e-05
-4.75438e-05
-8231.24
-4829.41
-2737.01
-1645.56
-1068.93
-744.945
-549.422
-423.309
-337.171
-275.443
-229.393
-193.859
-165.651
-142.717
-123.695
-107.655
-93.9476
-82.1079
-71.7964
-62.7601
-54.8067
-47.7866
-41.5809
-36.0931
-31.2427
-26.9615
-23.1901
-19.8762
-16.973
-14.4381
-12.233
-10.3223
-8.67349
-7.25691
-6.04527
-5.01369
-4.13955
-3.40236
-2.78368
-2.26702
-1.83769
-1.48272
-1.19071
-0.951698
-0.757066
-0.59938
-0.472278
-0.370352
-0.289035
-0.224491
-0.173523
-0.133483
-0.102187
-0.0778529
-0.0590276
-0.0445388
-0.0334443
-0.0249924
-0.0185865
-0.0137559
-0.0101317
-0.00742653
-0.00541755
-0.00393319
-0.00284208
-0.00204423
-0.00146396
-0.00104438
-0.000743006
-0.000528348
-0.000377306
-0.000273168
-0.000204122
-0.00016217
-0.00014237
-5521.39
-4210.84
-2954.5
-2060.89
-1473.98
-1091.18
-835.883
-659.88
-534.151
-441.217
-370.343
-314.769
-270.115
-233.473
-202.863
-176.907
-154.625
-135.31
-118.44
-103.622
-90.5548
-79.0029
-68.7781
-59.7265
-51.7193
-44.6463
-38.4117
-32.9305
-28.1265
-23.9303
-20.2788
-17.1139
-14.3822
-12.0346
-10.0264
-8.31623
-6.86687
-5.64443
-4.61839
-3.76144
-3.04928
-2.46042
-1.97595
-1.57939
-1.25644
-0.994783
-0.783862
-0.614712
-0.479756
-0.372634
-0.28804
-0.221581
-0.169635
-0.129242
-0.0979923
-0.0739407
-0.0555234
-0.0414925
-0.0308578
-0.0228383
-0.0168215
-0.0123303
-0.00899492
-0.00653048
-0.00471892
-0.00339422
-0.00243077
-0.00173412
-0.00123372
-0.000877304
-0.000626509
-0.000453595
-0.000338948
-0.000269288
-0.000236412
-4121.15
-3537.12
-2808.36
-2168.66
-1674.12
-1309.18
-1042.39
-845.596
-697.846
-584.529
-495.688
-424.543
-366.444
-318.162
-277.424
-242.604
-212.524
-186.316
-163.33
-143.072
-125.159
-109.288
-95.2133
-82.7346
-71.6813
-61.9072
-53.2837
-45.6966
-39.0423
-33.2267
-28.1635
-23.7731
-19.9823
-16.7236
-13.935
-11.5598
-9.54639
-7.84784
-6.42194
-5.23085
-4.24086
-3.42215
-2.74852
-2.19706
-1.74793
-1.38399
-1.09061
-0.85531
-0.667564
-0.518529
-0.400832
-0.30836
-0.236079
-0.17987
-0.136384
-0.102912
-0.0772807
-0.0577533
-0.042952
-0.0317901
-0.0234155
-0.0171641
-0.0125214
-0.00909095
-0.00656923
-0.0047252
-0.00338401
-0.0024142
-0.00171758
-0.0012214
-0.00087225
-0.000631521
-0.00047191
-0.000374929
-0.000329159
-3303.64
-3006.83
-2571.93
-2130.07
-1743.53
-1428
-1177.97
-981.465
-826.421
-702.81
-602.91
-520.974
-452.785
-395.257
-346.129
-303.729
-266.813
-234.444
-205.907
-180.65
-158.24
-138.326
-120.625
-104.901
-90.949
-78.5947
-67.6821
-58.0713
-49.635
-42.2566
-35.8287
-30.2518
-25.4343
-21.2913
-17.7446
-14.7228
-12.1605
-9.99833
-8.18283
-6.66597
-5.40499
-4.36201
-3.50371
-2.80099
-2.22858
-1.76471
-1.39072
-1.09074
-0.851368
-0.661337
-0.511253
-0.393326
-0.301143
-0.229453
-0.173986
-0.131291
-0.0985956
-0.0736848
-0.0548023
-0.0405621
-0.0298775
-0.0219016
-0.0159779
-0.0116007
-0.00838304
-0.00602999
-0.00431855
-0.00308098
-0.00219201
-0.0015588
-0.00111322
-0.000806006
-0.000602307
-0.000478537
-0.000420123
-2781.27
-2612.98
-2340.84
-2034.65
-1740.51
-1480
-1258.86
-1074.84
-922.687
-796.669
-691.623
-603.279
-528.245
-463.889
-408.187
-359.585
-316.889
-279.178
-245.733
-215.986
-189.484
-165.855
-144.793
-126.038
-109.366
-94.5779
-81.4972
-69.9631
-59.8281
-50.9563
-43.2215
-36.5064
-30.7022
-25.708
-21.4309
-17.7853
-14.693
-12.0828
-9.89041
-8.05826
-6.53482
-5.2745
-4.23716
-3.3877
-2.69567
-2.13477
-1.6825
-1.31969
-1.03015
-0.800274
-0.618699
-0.476018
-0.364476
-0.277724
-0.210599
-0.158928
-0.119355
-0.0892029
-0.0663464
-0.0491084
-0.0361739
-0.026518
-0.0193463
-0.0140469
-0.010151
-0.00730189
-0.00522959
-0.00373104
-0.00265457
-0.00188779
-0.00134821
-0.000976162
-0.000729478
-0.000579587
-0.000508845
-2425.14
-2321
-2141.85
-1925.36
-1702.11
-1491.06
-1301.21
-1135.1
-991.76
-868.693
-762.974
-671.811
-592.762
-523.791
-463.243
-409.794
-362.387
-320.181
-282.503
-248.81
-218.655
-191.669
-167.54
-145.997
-126.803
-109.747
-94.6364
-81.2938
-69.5561
-59.271
-50.2961
-42.4985
-35.7541
-29.9477
-24.9724
-20.7297
-17.1294
-14.0893
-11.5352
-9.40001
-7.62416
-6.15467
-4.94491
-3.95407
-3.14671
-2.49224
-1.96444
-1.54098
-1.203
-0.934624
-0.722623
-0.556015
-0.425756
-0.324439
-0.246039
-0.185682
-0.139455
-0.104231
-0.0775271
-0.0573867
-0.0422737
-0.0309908
-0.0226103
-0.0164174
-0.0118644
-0.00853471
-0.00611273
-0.00436125
-0.00310304
-0.00220678
-0.00157606
-0.00114118
-0.000852815
-0.000677598
-0.000594902
-2170.79
-2101.68
-1977.95
-1820.65
-1649.5
-1479.05
-1318.14
-1171.12
-1039.32
-922.36
-818.997
-727.691
-646.891
-575.178
-511.316
-454.265
-403.157
-357.279
-316.04
-278.949
-245.594
-215.625
-188.737
-164.663
-143.162
-124.017
-107.026
-92.0003
-78.7652
-67.155
-57.0141
-48.196
-40.5634
-33.9879
-28.3504
-23.5406
-19.4573
-16.0079
-13.1088
-10.6845
-8.6676
-6.99819
-5.6235
-4.49734
-3.57953
-2.83539
-2.23517
-1.75355
-1.36908
-1.06375
-0.822534
-0.632943
-0.484699
-0.369383
-0.28014
-0.211432
-0.158804
-0.118699
-0.0882934
-0.0653594
-0.0481491
-0.0352997
-0.0257551
-0.0187016
-0.0135157
-0.00972292
-0.006964
-0.00496877
-0.00353542
-0.00251435
-0.00179579
-0.00130031
-0.00097177
-0.000772134
-0.000677913
-1982.84
-1934.3
-1845.03
-1727.32
-1593.89
-1455.37
-1319.29
-1190.25
-1070.64
-961.277
-862.079
-772.451
-691.581
-618.609
-552.71
-493.138
-439.24
-390.45
-346.285
-306.328
-270.218
-237.637
-208.303
-181.96
-158.374
-137.326
-118.611
-102.035
-87.4141
-74.5731
-63.3454
-53.5734
-45.1084
-37.8107
-31.5501
-26.2057
-21.6663
-17.83
-14.6044
-11.9062
-9.66058
-7.80137
-6.26999
-5.01517
-3.99227
-3.16276
-2.49356
-1.95649
-1.52769
-1.18712
-0.918012
-0.706478
-0.541058
-0.412365
-0.312762
-0.236069
-0.17732
-0.132548
-0.0986007
-0.0729935
-0.0537759
-0.0394269
-0.0287678
-0.0208901
-0.015098
-0.0108617
-0.00777992
-0.00555114
-0.00394994
-0.00280925
-0.00200649
-0.00145293
-0.00108586
-0.000862816
-0.000757544
-1840.41
-1804.66
-1737.68
-1646.93
-1540.8
-1426.9
-1311.25
-1198.1
-1090.11
-988.747
-894.606
-807.763
-727.978
-654.852
-587.924
-526.727
-470.819
-419.793
-373.281
-330.952
-292.507
-257.674
-226.199
-197.848
-172.397
-149.634
-129.356
-111.366
-95.4743
-81.4999
-69.2679
-58.6116
-49.3728
-41.4022
-34.5597
-28.7152
-23.7484
-19.549
-16.0165
-13.0604
-10.5995
-8.56128
-6.88201
-5.50564
-4.38341
-3.47314
-2.73864
-2.14906
-1.67826
-1.30427
-1.00871
-0.776353
-0.594626
-0.453232
-0.343786
-0.259505
-0.194938
-0.145727
-0.108412
-0.0802616
-0.0591338
-0.0433576
-0.0316374
-0.0229751
-0.0166057
-0.0119468
-0.00855759
-0.00610628
-0.00434512
-0.00309043
-0.0022074
-0.00159848
-0.00119469
-0.000949319
-0.000833511
-1730.39
-1702.98
-1650.9
-1578.91
-1492.63
-1397.55
-1298.37
-1198.73
-1101.23
-1007.57
-918.748
-835.261
-757.281
-684.769
-617.568
-555.455
-498.183
-445.497
-397.148
-352.894
-312.503
-275.754
-242.429
-212.32
-185.22
-160.928
-139.244
-119.975
-102.929
-87.9202
-74.7678
-63.2984
-53.346
-44.7531
-37.3713
-31.0623
-25.6978
-21.1599
-17.3411
-14.1441
-11.4815
-9.27569
-7.45775
-5.96732
-4.75178
-3.76561
-2.96969
-2.33069
-1.82033
-1.41484
-1.09435
-0.842355
-0.645243
-0.491858
-0.373117
-0.281669
-0.211604
-0.158197
-0.117697
-0.0871414
-0.0642066
-0.0470798
-0.0343554
-0.0249502
-0.0180342
-0.0129752
-0.00929463
-0.00663249
-0.00471977
-0.00335704
-0.00239793
-0.00173652
-0.00129792
-0.00103138
-0.000905583
-1644.16
-1622.37
-1580.56
-1521.87
-1450.18
-1369.47
-1283.39
-1194.98
-1106.62
-1020.02
-936.371
-856.428
-780.641
-709.238
-642.299
-579.807
-521.685
-467.818
-418.067
-372.279
-330.291
-291.933
-257.029
-225.397
-196.853
-171.21
-148.276
-127.86
-109.774
-93.8282
-79.8391
-67.6278
-57.0222
-47.8581
-39.9801
-33.2428
-27.5109
-22.6598
-18.5755
-15.1548
-12.3049
-9.9431
-7.99599
-6.39921
-5.09659
-4.03951
-3.18619
-2.50096
-1.95358
-1.5186
-1.17474
-0.904333
-0.692789
-0.528153
-0.400687
-0.302508
-0.227278
-0.169928
-0.126434
-0.0936166
-0.0689821
-0.0505846
-0.0369152
-0.0268107
-0.01938
-0.0139442
-0.00998925
-0.0071285
-0.00507297
-0.00360842
-0.00257761
-0.00186672
-0.00139529
-0.0011088
-0.000973583
-1575.81
-1557.94
-1523.38
-1474.29
-1413.41
-1343.7
-1267.99
-1188.79
-1108.2
-1027.86
-949.013
-872.553
-799.108
-729.094
-662.772
-600.29
-541.714
-487.049
-436.259
-389.272
-345.991
-306.299
-270.06
-237.124
-207.328
-180.501
-156.463
-135.03
-116.013
-99.2264
-84.4825
-71.5995
-60.4005
-50.7159
-42.3847
-35.2553
-29.1863
-24.0472
-19.7185
-16.0916
-13.0688
-10.5627
-8.49605
-6.80073
-5.41736
-4.29448
-3.38783
-2.65963
-2.0778
-1.61537
-1.24976
-0.962189
-0.73719
-0.562059
-0.42645
-0.321988
-0.241934
-0.1809
-0.134608
-0.0996762
-0.0734522
-0.053866
-0.0393123
-0.0285533
-0.0206408
-0.0148522
-0.0106402
-0.00759343
-0.00540409
-0.00384413
-0.00274611
-0.00198885
-0.00148664
-0.00118144
-0.00103739
-1521.17
-1506.09
-1476.76
-1434.71
-1381.93
-1320.67
-1253.14
-1181.43
-1107.36
-1032.44
-957.909
-884.717
-813.599
-745.098
-679.607
-617.402
-558.663
-503.501
-451.965
-404.059
-359.748
-318.963
-281.608
-247.564
-216.693
-188.839
-163.834
-141.503
-121.662
-104.125
-88.7054
-75.2185
-63.4843
-53.329
-44.5867
-37.1006
-30.7245
-25.3225
-20.7702
-16.9544
-13.7729
-11.1344
-8.95779
-7.17176
-5.71397
-4.53039
-3.57451
-2.8066
-2.19293
-1.7051
-1.31934
-1.01588
-0.778412
-0.59355
-0.450387
-0.340092
-0.255559
-0.191104
-0.142212
-0.105315
-0.0776127
-0.0569209
-0.0415444
-0.0301764
-0.0218154
-0.0156982
-0.0112469
-0.0080268
-0.00571279
-0.00406392
-0.00290326
-0.00210276
-0.00157186
-0.00124922
-0.00109693
-1477.19
-1464.15
-1438.65
-1401.83
-1355.18
-1300.44
-1239.38
-1173.73
-1105.06
-1034.77
-964.026
-893.806
-824.897
-757.923
-693.371
-631.611
-572.918
-517.484
-465.436
-416.842
-371.72
-330.05
-291.771
-256.796
-225.007
-196.268
-170.425
-147.308
-126.741
-108.541
-92.5204
-78.4946
-66.2811
-55.7028
-46.59
-38.7819
-32.1277
-26.4873
-21.7319
-17.7442
-14.4181
-11.6586
-9.38155
-7.51252
-5.98657
-4.74735
-3.7463
-2.94193
-2.299
-1.78782
-1.38351
-1.06542
-0.816461
-0.622628
-0.472498
-0.356822
-0.268154
-0.20054
-0.149245
-0.110531
-0.0814631
-0.0597488
-0.0436112
-0.0316796
-0.0229034
-0.0164821
-0.0118092
-0.00842851
-0.005999
-0.00426773
-0.00304901
-0.00220843
-0.00165093
-0.00131211
-0.00115219
-1441.62
-1430.08
-1407.44
-1374.55
-1332.58
-1282.9
-1226.94
-1166.17
-1101.96
-1035.57
-968.108
-900.531
-833.654
-768.149
-704.567
-643.35
-584.841
-529.302
-476.921
-427.822
-382.074
-339.694
-300.658
-264.904
-232.34
-202.846
-176.279
-152.48
-131.279
-112.495
-95.9446
-81.4412
-68.8012
-57.8454
-48.4011
-40.3041
-33.3999
-27.5447
-22.6059
-18.4626
-15.0055
-12.1364
-9.7681
-7.8236
-6.23562
-4.9457
-3.90346
-3.06581
-2.39615
-1.86361
-1.44235
-1.11086
-0.851378
-0.649323
-0.492806
-0.372193
-0.279731
-0.209215
-0.155714
-0.115331
-0.0850064
-0.0623519
-0.0455142
-0.0330641
-0.0239058
-0.0172043
-0.0123274
-0.0087988
-0.00626287
-0.00445567
-0.00318344
-0.00230592
-0.00172389
-0.00137016
-0.00120319
-1412.75
-1402.33
-1381.83
-1351.94
-1313.57
-1267.82
-1215.91
-1159.07
-1098.52
-1035.39
-970.723
-905.456
-840.404
-776.266
-713.635
-653.001
-594.763
-539.236
-486.659
-437.202
-390.974
-348.032
-308.38
-271.983
-238.768
-208.632
-181.445
-157.059
-135.307
-116.014
-98.9986
-84.0746
-71.0578
-59.7674
-50.0284
-41.6738
-34.5461
-28.4985
-23.3952
-19.1123
-15.5372
-12.5693
-10.1186
-8.10591
-6.4618
-5.12596
-4.04638
-3.17854
-2.4846
-1.93266
-1.49598
-1.1523
-0.883236
-0.673691
-0.511351
-0.386235
-0.29031
-0.217145
-0.161629
-0.119721
-0.0882489
-0.0647347
-0.0472566
-0.034332
-0.024824
-0.0178662
-0.0128023
-0.00913825
-0.00650482
-0.00462804
-0.00330675
-0.00239535
-0.00179084
-0.00142343
-0.00125
-1389.24
-1379.67
-1360.82
-1333.22
-1297.63
-1254.97
-1206.26
-1152.59
-1095.01
-1034.59
-972.294
-909.022
-845.581
-782.684
-720.949
-660.903
-602.983
-547.546
-494.872
-445.169
-398.583
-355.199
-315.051
-278.125
-244.368
-213.691
-185.978
-161.087
-138.86
-119.127
-101.706
-86.4137
-73.0661
-61.4808
-51.4814
-42.8986
-35.5726
-29.3538
-24.1039
-19.6961
-16.0156
-12.9591
-10.4345
-8.36058
-6.666
-5.28883
-4.1756
-3.28052
-2.56468
-1.99521
-1.54458
-1.18987
-0.912136
-0.695807
-0.528189
-0.39899
-0.299924
-0.224355
-0.167008
-0.123715
-0.0911993
-0.0669036
-0.0488431
-0.0354867
-0.0256604
-0.0184692
-0.0132351
-0.0094477
-0.00672543
-0.00478524
-0.00341924
-0.00247696
-0.00185194
-0.00147206
-0.00129274
-1370.07
-1361.16
-1343.56
-1317.73
-1284.3
-1244.07
-1197.91
-1146.77
-1091.63
-1033.45
-973.139
-911.569
-849.531
-787.74
-726.829
-667.348
-609.765
-554.467
-501.767
-451.904
-405.053
-361.327
-320.781
-283.424
-249.218
-218.088
-189.93
-164.61
-141.976
-121.862
-104.091
-88.4789
-74.8425
-62.9992
-52.771
-43.9874
-36.4863
-30.1161
-24.7362
-20.2177
-16.4434
-13.3081
-10.7176
-8.58897
-6.84929
-5.43513
-4.29175
-3.37226
-2.63675
-2.05154
-1.58838
-1.22375
-0.938205
-0.715765
-0.543391
-0.410511
-0.30861
-0.230871
-0.171873
-0.127328
-0.0938691
-0.0688667
-0.0502794
-0.0365325
-0.0264182
-0.0190157
-0.0136274
-0.00972825
-0.00692549
-0.00492782
-0.0035213
-0.00255102
-0.0019074
-0.00151621
-0.00133155
-1354.42
-1346.01
-1329.39
-1304.93
-1273.2
-1234.87
-1190.74
-1141.64
-1088.48
-1032.14
-973.489
-913.361
-852.53
-791.71
-731.541
-672.588
-615.339
-560.207
-507.528
-457.57
-410.528
-366.539
-325.678
-287.971
-253.395
-221.889
-193.356
-167.673
-144.693
-124.253
-106.18
-90.2914
-76.4046
-64.3366
-53.9089
-44.9495
-37.2949
-30.7916
-25.2973
-20.681
-16.8238
-13.6186
-10.9698
-8.79261
-7.01284
-5.56577
-4.39555
-3.4543
-2.70124
-2.10197
-1.62761
-1.25412
-0.961585
-0.733674
-0.557038
-0.420858
-0.316415
-0.236729
-0.176247
-0.130578
-0.0962714
-0.0706337
-0.0515728
-0.0374745
-0.0271008
-0.0195081
-0.013981
-0.0099812
-0.00710591
-0.00505644
-0.00361338
-0.00261785
-0.00195747
-0.00155607
-0.00136658
-1341.65
-1333.62
-1317.75
-1294.37
-1263.97
-1227.15
-1184.62
-1137.17
-1085.62
-1030.79
-973.513
-914.596
-854.796
-794.817
-735.304
-676.832
-619.903
-564.948
-512.323
-462.314
-415.138
-370.949
-329.841
-291.852
-256.974
-225.155
-196.31
-170.321
-147.047
-126.331
-107.999
-91.8729
-77.7702
-65.5079
-54.9071
-45.7948
-38.0063
-31.3867
-25.7921
-21.09
-17.1601
-13.8935
-11.1931
-8.97314
-7.15794
-5.68177
-4.48779
-3.52724
-2.75863
-2.14688
-1.66257
-1.28118
-0.982437
-0.749653
-0.569221
-0.430099
-0.323389
-0.241965
-0.180158
-0.133485
-0.0984211
-0.0722155
-0.0527308
-0.0383181
-0.0277125
-0.0199494
-0.0142981
-0.010208
-0.00726773
-0.00517183
-0.003696
-0.00267783
-0.00200241
-0.00159186
-0.00139805
-1331.21
-1323.5
-1308.21
-1285.67
-1256.31
-1220.69
-1179.45
-1133.32
-1083.06
-1029.47
-973.331
-915.427
-856.498
-797.242
-738.303
-680.261
-623.629
-568.85
-516.297
-466.27
-419.003
-374.664
-333.362
-295.147
-260.023
-227.948
-198.843
-172.598
-149.077
-128.125
-109.574
-93.2451
-78.9572
-66.5278
-55.7776
-46.5331
-38.6285
-31.9079
-26.226
-21.4492
-17.4556
-14.1352
-11.3898
-9.13225
-7.28595
-5.78419
-4.56928
-3.59174
-2.8094
-2.18663
-1.69353
-1.30518
-1.00093
-0.763831
-0.580036
-0.438306
-0.329585
-0.246619
-0.183636
-0.13607
-0.100334
-0.0736235
-0.053762
-0.0390696
-0.0282575
-0.0203428
-0.0145807
-0.0104103
-0.00741207
-0.00527478
-0.00376975
-0.00273138
-0.00204254
-0.00162382
-0.00142616
-1322.7
-1315.22
-1300.4
-1278.52
-1249.98
-1215.31
-1175.09
-1130.02
-1080.81
-1028.23
-973.029
-915.966
-857.769
-799.129
-740.685
-683.022
-626.659
-572.05
-519.577
-469.555
-422.228
-377.779
-336.325
-297.931
-262.608
-230.323
-201.004
-174.545
-150.817
-129.668
-110.93
-94.429
-79.9832
-67.4109
-56.5326
-47.1743
-39.1696
-32.3617
-26.6044
-21.7627
-17.7138
-14.3467
-11.5621
-9.27171
-7.39823
-5.87409
-4.64088
-3.64844
-2.85407
-2.22163
-1.72081
-1.32632
-1.01723
-0.776341
-0.589583
-0.445554
-0.335059
-0.250733
-0.186711
-0.138358
-0.102027
-0.07487
-0.0546753
-0.0397354
-0.0287404
-0.0206914
-0.0148313
-0.0105897
-0.00754012
-0.00536614
-0.0038352
-0.00277892
-0.00207818
-0.00165221
-0.00145113
-1315.76
-1308.47
-1294.01
-1272.65
-1244.76
-1210.84
-1171.44
-1127.22
-1078.86
-1027.1
-972.666
-916.299
-858.714
-800.592
-742.573
-685.24
-629.117
-574.665
-522.275
-472.271
-424.908
-380.378
-338.809
-300.272
-264.789
-232.333
-202.837
-176.202
-152.301
-130.986
-112.092
-95.4448
-80.8652
-68.1713
-57.1837
-47.7281
-39.6377
-32.7548
-26.9324
-22.0349
-17.9383
-14.5307
-11.712
-9.39324
-7.49617
-5.95258
-4.70343
-3.69802
-2.89314
-2.25227
-1.7447
-1.34485
-1.03153
-0.787317
-0.597963
-0.45192
-0.33987
-0.254349
-0.189416
-0.140371
-0.103517
-0.0759675
-0.0554796
-0.0403219
-0.029166
-0.0209988
-0.0150522
-0.0107479
-0.0076531
-0.00544676
-0.00389298
-0.00282091
-0.00210966
-0.0016773
-0.00147319
-1310.11
-1302.96
-1288.79
-1267.84
-1240.47
-1207.14
-1168.4
-1124.86
-1077.18
-1026.09
-972.282
-916.488
-859.411
-801.725
-744.065
-687.016
-631.104
-576.795
-524.486
-474.508
-427.126
-382.537
-340.88
-302.232
-266.62
-234.025
-204.384
-177.604
-153.56
-132.106
-113.081
-96.3117
-81.6192
-68.8224
-57.7421
-48.2038
-40.0402
-33.0933
-27.2153
-22.2698
-18.1322
-14.6899
-11.8419
-9.49856
-7.58112
-6.02071
-4.75776
-3.74111
-2.92714
-2.27894
-1.76551
-1.36101
-1.04401
-0.796894
-0.60528
-0.45748
-0.344073
-0.25751
-0.191782
-0.142131
-0.104821
-0.0769284
-0.0561841
-0.0408358
-0.0295391
-0.0212683
-0.015246
-0.0108867
-0.00775224
-0.00551753
-0.00394371
-0.00285777
-0.00213731
-0.00169934
-0.00149258
-1305.52
-1298.48
-1284.54
-1263.91
-1236.95
-1204.09
-1165.87
-1122.87
-1075.76
-1025.2
-971.902
-916.579
-859.921
-802.598
-745.241
-688.434
-632.706
-578.524
-526.291
-476.344
-428.954
-384.324
-342.599
-303.864
-268.15
-235.442
-205.684
-178.784
-154.622
-133.053
-113.919
-97.0476
-82.2604
-69.377
-58.2184
-48.6101
-40.3846
-33.3832
-27.4578
-22.4715
-18.2989
-14.8268
-11.9537
-9.58934
-7.65439
-6.07953
-4.80471
-3.77838
-2.95655
-2.30203
-1.78354
-1.37501
-1.05482
-0.805205
-0.611632
-0.46231
-0.347726
-0.260259
-0.193839
-0.143664
-0.105956
-0.0777652
-0.0567978
-0.0412837
-0.0298643
-0.0215033
-0.0154151
-0.0110078
-0.00783877
-0.00557931
-0.00398801
-0.00288998
-0.00216147
-0.0017186
-0.00150953
-1301.79
-1294.85
-1281.08
-1260.71
-1234.07
-1201.59
-1163.78
-1121.22
-1074.55
-1024.42
-971.544
-916.604
-860.292
-803.27
-746.167
-689.565
-633.993
-579.923
-527.76
-477.845
-430.454
-385.797
-344.021
-305.217
-269.422
-236.624
-206.771
-179.773
-155.514
-133.851
-114.626
-97.669
-82.8027
-69.8468
-58.6225
-48.9553
-40.6775
-33.6302
-27.6647
-22.6437
-18.4413
-14.9439
-12.0494
-9.66715
-7.71726
-6.13002
-4.84505
-3.81042
-2.98186
-2.32191
-1.79908
-1.38708
-1.06415
-0.812378
-0.617118
-0.466482
-0.350884
-0.262636
-0.195619
-0.14499
-0.106939
-0.07849
-0.0573295
-0.0416718
-0.0301462
-0.0217071
-0.0155617
-0.0111129
-0.00791388
-0.00563296
-0.00402649
-0.00291796
-0.00218247
-0.00173535
-0.00152426
-1298.78
-1291.9
-1278.27
-1258.1
-1231.72
-1199.54
-1162.06
-1119.85
-1073.53
-1023.76
-971.215
-916.589
-860.559
-803.786
-746.893
-690.463
-635.025
-581.051
-528.95
-479.067
-431.681
-387.004
-345.191
-306.334
-270.475
-237.605
-207.675
-180.598
-156.259
-134.518
-115.218
-98.1911
-83.259
-70.2427
-58.9636
-49.2471
-40.9254
-33.8394
-27.8402
-22.7899
-18.5624
-15.0436
-12.131
-9.73348
-7.77089
-6.17314
-4.87951
-3.83781
-3.00352
-2.33894
-1.81239
-1.39743
-1.07216
-0.818535
-0.621828
-0.470068
-0.353598
-0.26468
-0.19715
-0.146131
-0.107785
-0.0791143
-0.0577877
-0.0420064
-0.0303893
-0.0218829
-0.0156883
-0.0112037
-0.00797874
-0.00567929
-0.00405973
-0.00294214
-0.00220062
-0.00174982
-0.001537
-1296.34
-1289.52
-1276
-1255.99
-1229.81
-1197.87
-1160.65
-1118.72
-1072.68
-1023.19
-970.921
-916.549
-860.75
-804.18
-747.461
-691.174
-635.849
-581.958
-529.912
-480.059
-432.68
-387.992
-346.15
-307.253
-271.343
-238.415
-208.423
-181.282
-156.878
-135.074
-115.713
-98.6273
-83.641
-70.5746
-59.2499
-49.4924
-41.1341
-34.0158
-27.9882
-22.9134
-18.6648
-15.128
-12.2001
-9.78971
-7.8164
-6.20976
-4.90881
-3.86112
-3.02195
-2.35344
-1.82373
-1.40626
-1.07898
-0.823791
-0.625852
-0.473131
-0.355918
-0.266428
-0.198461
-0.147108
-0.10851
-0.0796493
-0.0581805
-0.0422933
-0.0305979
-0.0220337
-0.0157969
-0.0112815
-0.00803443
-0.00571909
-0.00408829
-0.00296292
-0.00221622
-0.00176227
-0.00154796
-1294.38
-1287.61
-1274.17
-1254.29
-1228.27
-1196.51
-1159.5
-1117.79
-1071.98
-1022.72
-970.663
-916.496
-860.884
-804.48
-747.905
-691.736
-636.505
-582.684
-530.687
-480.861
-433.49
-388.795
-346.933
-308.004
-272.055
-239.082
-209.04
-181.847
-157.39
-135.534
-116.123
-98.9901
-83.9591
-70.8515
-59.4891
-49.6975
-41.3088
-34.1636
-28.1125
-23.0171
-18.7509
-15.199
-12.2583
-9.83714
-7.85482
-6.24069
-4.93357
-3.88083
-3.03756
-2.36572
-1.83335
-1.41374
-1.08478
-0.828253
-0.62927
-0.475735
-0.357892
-0.267916
-0.199576
-0.14794
-0.109128
-0.0801051
-0.0585153
-0.042538
-0.0307758
-0.0221625
-0.0158896
-0.0113481
-0.008082
-0.0057531
-0.0041127
-0.00298069
-0.00222957
-0.00177292
-0.00155734
-1292.8
-1286.06
-1272.7
-1252.92
-1227.02
-1195.41
-1158.57
-1117.03
-1071.4
-1022.32
-970.44
-916.437
-860.977
-804.709
-748.25
-692.179
-637.026
-583.265
-531.308
-481.506
-434.145
-389.446
-347.569
-308.617
-272.636
-239.627
-209.545
-182.311
-157.812
-135.914
-116.462
-99.2903
-84.2227
-71.0812
-59.6878
-49.8681
-41.4543
-34.2869
-28.2162
-23.1038
-18.8229
-15.2584
-12.307
-9.87692
-7.88706
-6.26668
-4.9544
-3.89742
-3.0507
-2.37607
-1.84145
-1.42005
-1.08967
-0.832022
-0.632158
-0.477937
-0.359561
-0.269175
-0.200521
-0.148645
-0.109651
-0.0804914
-0.0587992
-0.0427455
-0.0309267
-0.0222717
-0.0159683
-0.0114045
-0.00812241
-0.005782
-0.00413346
-0.0029958
-0.00224092
-0.00178198
-0.00156531
-1291.54
-1284.83
-1271.52
-1251.81
-1226.02
-1194.52
-1157.81
-1116.42
-1070.93
-1021.99
-970.249
-916.379
-861.041
-804.882
-748.518
-692.527
-637.439
-583.727
-531.805
-482.024
-434.672
-389.971
-348.084
-309.113
-273.109
-240.071
-209.958
-182.69
-158.158
-136.226
-116.741
-99.5375
-84.4401
-71.2709
-59.8521
-50.0094
-41.5749
-34.3891
-28.3023
-23.1759
-18.8829
-15.308
-12.3477
-9.91011
-7.91399
-6.2884
-4.97181
-3.9113
-3.0617
-2.38474
-1.84825
-1.42535
-1.09378
-0.835188
-0.634585
-0.479788
-0.360965
-0.270234
-0.201316
-0.149239
-0.110092
-0.0808172
-0.0590386
-0.0429206
-0.0310541
-0.022364
-0.0160348
-0.0114523
-0.00815656
-0.00580643
-0.004151
-0.00300857
-0.00225052
-0.00178965
-0.00157207
-1290.53
-1283.84
-1270.57
-1250.93
-1225.21
-1193.81
-1157.2
-1115.91
-1070.54
-1021.72
-970.088
-916.323
-861.083
-805.012
-748.726
-692.8
-637.765
-584.093
-532.201
-482.438
-435.095
-390.394
-348.499
-309.515
-273.492
-240.432
-210.294
-183
-158.44
-136.481
-116.969
-99.7399
-84.6184
-71.4267
-59.9872
-50.1257
-41.6744
-34.4735
-28.3735
-23.2356
-18.9325
-15.349
-12.3814
-9.93767
-7.93637
-6.30646
-4.9863
-3.92286
-3.07087
-2.39197
-1.85392
-1.42977
-1.09721
-0.837833
-0.636614
-0.481336
-0.36214
-0.271121
-0.201982
-0.149736
-0.110461
-0.0810903
-0.0592394
-0.0430675
-0.031161
-0.0224414
-0.0160907
-0.0114924
-0.00818527
-0.00582697
-0.00416576
-0.00301933
-0.0022586
-0.00179611
-0.00157775
-1289.73
-1283.06
-1269.82
-1250.22
-1224.57
-1193.24
-1156.71
-1115.51
-1070.23
-1021.49
-969.953
-916.273
-861.111
-805.11
-748.886
-693.013
-638.021
-584.383
-532.515
-482.768
-435.432
-390.732
-348.832
-309.837
-273.8
-240.723
-210.565
-183.25
-158.669
-136.688
-117.155
-99.905
-84.7639
-71.554
-60.0977
-50.221
-41.7559
-34.5429
-28.432
-23.2846
-18.9734
-15.3828
-12.4093
-9.96041
-7.95485
-6.32139
-4.99829
-3.93243
-3.07846
-2.39797
-1.85862
-1.43345
-1.10006
-0.840031
-0.638302
-0.482624
-0.363118
-0.27186
-0.202536
-0.150151
-0.110769
-0.0813182
-0.059407
-0.0431902
-0.0312504
-0.0225061
-0.0161373
-0.0115259
-0.00820928
-0.00584415
-0.00417811
-0.00302832
-0.00226537
-0.00180151
-0.00158251
-1289.09
-1282.43
-1269.22
-1249.66
-1224.05
-1192.78
-1156.32
-1115.19
-1069.98
-1021.31
-969.841
-916.228
-861.128
-805.184
-749.009
-693.179
-638.222
-584.612
-532.763
-483.03
-435.701
-391.002
-349.098
-310.096
-274.048
-240.957
-210.784
-183.452
-158.853
-136.855
-117.305
-100.039
-84.8822
-71.6576
-60.1878
-50.2987
-41.8225
-34.5995
-28.4799
-23.3248
-19.0068
-15.4106
-12.4321
-9.9791
-7.97005
-6.33367
-5.00816
-3.94031
-3.08473
-2.40291
-1.86251
-1.43648
-1.10241
-0.841849
-0.639697
-0.48369
-0.363928
-0.272471
-0.202996
-0.150494
-0.111025
-0.0815072
-0.0595462
-0.043292
-0.0313245
-0.0225599
-0.0161761
-0.0115537
-0.00822924
-0.00585844
-0.00418839
-0.00303582
-0.00227101
-0.00180602
-0.00158648
-1288.58
-1281.94
-1268.75
-1249.22
-1223.65
-1192.42
-1156
-1114.93
-1069.77
-1021.16
-969.749
-916.188
-861.138
-805.239
-749.104
-693.308
-638.379
-584.791
-532.959
-483.237
-435.914
-391.217
-349.31
-310.302
-274.245
-241.144
-210.959
-183.614
-159.002
-136.99
-117.427
-100.147
-84.9778
-71.7414
-60.2608
-50.3617
-41.8765
-34.6455
-28.5188
-23.3575
-19.0341
-15.4332
-12.4508
-9.99437
-7.98247
-6.34372
-5.01624
-3.94678
-3.08986
-2.40697
-1.86569
-1.43897
-1.10434
-0.843344
-0.640846
-0.484568
-0.364594
-0.272975
-0.203375
-0.150778
-0.111236
-0.0816633
-0.059661
-0.0433761
-0.0313858
-0.0226043
-0.0162082
-0.0115768
-0.00824576
-0.00587027
-0.0041969
-0.00304202
-0.00227567
-0.00180975
-0.00158977
-1288.19
-1281.55
-1268.37
-1248.87
-1223.33
-1192.13
-1155.76
-1114.72
-1069.61
-1021.04
-969.674
-916.155
-861.144
-805.28
-749.177
-693.408
-638.502
-584.931
-533.113
-483.4
-436.082
-391.386
-349.478
-310.466
-274.403
-241.293
-211.099
-183.744
-159.121
-137.098
-117.524
-100.234
-85.0547
-71.809
-60.3196
-50.4126
-41.9202
-34.6827
-28.5503
-23.384
-19.0563
-15.4516
-12.4659
-10.0068
-7.99258
-6.35191
-5.02283
-3.95204
-3.09405
-2.41028
-1.8683
-1.441
-1.10593
-0.844566
-0.641786
-0.485286
-0.365141
-0.273389
-0.203686
-0.15101
-0.111409
-0.0817914
-0.0597554
-0.0434453
-0.0314362
-0.0226409
-0.0162346
-0.0115958
-0.00825935
-0.00588001
-0.0042039
-0.00304713
-0.00227952
-0.00181282
-0.00159248
-1287.87
-1281.24
-1268.08
-1248.59
-1223.07
-1191.91
-1155.56
-1114.56
-1069.48
-1020.95
-969.613
-916.126
-861.146
-805.311
-749.232
-693.485
-638.597
-585.041
-533.234
-483.528
-436.214
-391.52
-349.611
-310.596
-274.528
-241.412
-211.21
-183.847
-159.216
-137.184
-117.602
-100.303
-85.1162
-71.8631
-60.3668
-50.4535
-41.9553
-34.7127
-28.5757
-23.4053
-19.0741
-15.4664
-12.4781
-10.0168
-8.00076
-6.35854
-5.02816
-3.95632
-3.09745
-2.41297
-1.87041
-1.44266
-1.10721
-0.845562
-0.642551
-0.485872
-0.365586
-0.273726
-0.20394
-0.1512
-0.11155
-0.081896
-0.0598325
-0.0435018
-0.0314774
-0.0226708
-0.0162561
-0.0116113
-0.00827048
-0.00588798
-0.00420964
-0.00305132
-0.00228267
-0.00181534
-0.0015947
-1287.63
-1281
-1267.85
-1248.37
-1222.87
-1191.73
-1155.41
-1114.43
-1069.38
-1020.87
-969.563
-916.103
-861.146
-805.333
-749.275
-693.544
-638.67
-585.126
-533.327
-483.628
-436.318
-391.625
-349.715
-310.698
-274.626
-241.505
-211.298
-183.929
-159.291
-137.253
-117.664
-100.359
-85.1653
-71.9063
-60.4045
-50.4861
-41.9834
-34.7367
-28.596
-23.4225
-19.0885
-15.4783
-12.488
-10.0249
-8.00735
-6.36388
-5.03247
-3.95976
-3.1002
-2.41515
-1.87212
-1.444
-1.10825
-0.846367
-0.643171
-0.486346
-0.365947
-0.273999
-0.204145
-0.151354
-0.111665
-0.0819811
-0.0598951
-0.0435477
-0.0315109
-0.0226951
-0.0162737
-0.0116239
-0.00827955
-0.00589448
-0.00421432
-0.00305473
-0.00228524
-0.0018174
-0.00159651
-1287.44
-1280.82
-1267.67
-1248.21
-1222.72
-1191.59
-1155.28
-1114.33
-1069.3
-1020.81
-969.524
-916.083
-861.146
-805.35
-749.307
-693.59
-638.727
-585.192
-533.4
-483.706
-436.398
-391.707
-349.797
-310.778
-274.703
-241.579
-211.368
-183.993
-159.35
-137.307
-117.712
-100.403
-85.2042
-71.9405
-60.4344
-50.5121
-42.0058
-34.7558
-28.6123
-23.4362
-19.0999
-15.4878
-12.4959
-10.0314
-8.01263
-6.36816
-5.03592
-3.96253
-3.1024
-2.41689
-1.8735
-1.44507
-1.10909
-0.847016
-0.643671
-0.486729
-0.366239
-0.27422
-0.204312
-0.151479
-0.111758
-0.0820498
-0.0599458
-0.0435848
-0.031538
-0.0227148
-0.0162879
-0.0116342
-0.00828689
-0.00589975
-0.00421811
-0.0030575
-0.00228733
-0.00181907
-0.00159798
-1287.29
-1280.67
-1267.53
-1248.07
-1222.6
-1191.48
-1155.19
-1114.25
-1069.23
-1020.77
-969.493
-916.067
-861.144
-805.362
-749.331
-693.625
-638.771
-585.243
-533.457
-483.766
-436.461
-391.771
-349.861
-310.84
-274.764
-241.637
-211.422
-184.044
-159.397
-137.35
-117.751
-100.437
-85.2349
-71.9676
-60.4581
-50.5327
-42.0235
-34.771
-28.6251
-23.447
-19.109
-15.4954
-12.5021
-10.0365
-8.01684
-6.37158
-5.03868
-3.96474
-3.10416
-2.41829
-1.8746
-1.44593
-1.10976
-0.847536
-0.644071
-0.487035
-0.366472
-0.274397
-0.204445
-0.151579
-0.111832
-0.082105
-0.0599865
-0.0436147
-0.0315598
-0.0227306
-0.0162994
-0.0116424
-0.00829281
-0.00590399
-0.00422117
-0.00305973
-0.00228901