/*--------------------------------*- C++ -*----------------------------------*\
  =========                 |
  \\      /  F ield         | OpenFOAM: The Open Source CFD Toolbox
   \\    /   O peration     | Website:  https://openfoam.org
    \\  /    A nd           | Version:  10
     \\/     M anipulation  |
\*---------------------------------------------------------------------------*/
FoamFile
{
    format      ascii;
    class       volScalarField;
    location    "175";
    object      gradTz;
}
// * * * * * * * * * * * * * * * * * * * * * * * * * * * * * * * * * * * * * //

dimensions      [0 -1 0 1 0 0 0];

internalField   nonuniform List<scalar> 
11250
(
-14369.4
-4164.27
-1542.89
-737.745
-431.043
-287.112
-207.203
-157.047
-122.681
-97.6022
-78.4542
-63.3631
-51.2144
-41.3067
-33.1727
-26.4829
-20.9911
-16.5035
-12.8607
-9.92785
-7.58841
-5.74115
-4.29812
-3.18344
-2.33227
-1.68994
-1.21095
-0.858053
-0.60119
-0.416489
-0.285284
-0.19321
-0.129377
-0.0856557
-0.0560695
-0.036288
-0.0232196
-0.0146888
-0.00918599
-0.00567849
-0.00346934
-0.00209455
-0.0012493
-0.000735958
-0.000428065
-0.000245742
-0.000139183
-7.77392e-05
-4.28007e-05
-2.32176e-05
-1.24036e-05
-6.52298e-06
-3.37551e-06
-1.71815e-06
-8.599e-07
-4.23037e-07
-2.04514e-07
-9.71424e-08
-4.53283e-08
-2.07702e-08
-9.34072e-09
-4.11716e-09
-1.80339e-09
-7.77113e-10
-3.11723e-10
-1.33909e-10
-5.59785e-11
-1.86595e-11
1.09762e-12
-1.09762e-12
0
-5.48809e-12
-1.09762e-12
6.5857e-12
0
-8312.01
-4908.02
-2811.4
-1713.89
-1129.61
-796.726
-591.451
-455.122
-358.698
-286.974
-231.537
-187.487
-151.825
-122.624
-98.5808
-78.7645
-62.471
-49.1407
-38.31
-29.5836
-22.6188
-17.1167
-12.817
-9.49468
-6.95708
-5.04166
-3.61308
-2.5604
-1.79409
-1.24299
-0.851477
-0.576702
-0.386191
-0.255696
-0.167384
-0.108335
-0.0693233
-0.0438557
-0.0274273
-0.0169553
-0.0103595
-0.00625461
-0.00373074
-0.00219788
-0.00127846
-0.00073398
-0.000415741
-0.000232228
-0.000127869
-6.93713e-05
-3.70646e-05
-1.94946e-05
-1.00894e-05
-5.13627e-06
-2.57104e-06
-1.26505e-06
-6.11699e-07
-2.90606e-07
-1.356e-07
-6.21603e-08
-2.79838e-08
-1.23438e-08
-5.33662e-09
-2.26768e-09
-9.75782e-10
-4.30266e-10
-1.69033e-10
-5.92713e-11
-1.86595e-11
-4.39047e-12
1.09762e-12
4.39047e-12
0
-8.78094e-12
8.78094e-12
-5655.2
-4341.07
-3077.76
-2174.1
-1574.51
-1176.99
-905.535
-712.611
-569.842
-460.349
-373.926
-304.24
-247.235
-200.208
-161.276
-129.058
-102.487
-80.6978
-62.9625
-48.6528
-37.2191
-28.1785
-21.1084
-15.642
-11.4648
-8.31036
-5.95687
-4.22214
-2.95897
-2.05036
-1.40473
-0.951533
-0.637267
-0.421974
-0.276258
-0.178816
-0.114432
-0.0723982
-0.0452809
-0.0279943
-0.0171055
-0.0103284
-0.00616121
-0.00363009
-0.00211178
-0.00121256
-0.000686915
-0.000383766
-0.000211347
-0.000114683
-6.12881e-05
-3.22432e-05
-1.66919e-05
-8.49985e-06
-4.25602e-06
-2.0948e-06
-1.01325e-06
-4.81528e-07
-2.24769e-07
-1.03049e-07
-4.64084e-08
-2.05156e-08
-8.89399e-09
-3.76922e-09
-1.59923e-09
-6.82718e-10
-2.75502e-10
-1.13055e-10
-4.06118e-11
-1.64643e-11
0
1.20738e-11
1.09762e-12
-1.09762e-12
-1.09762e-12
-4306.84
-3717.85
-2979.42
-2325.77
-1813.65
-1428.28
-1139.08
-918.817
-747.426
-611.137
-500.72
-409.993
-334.751
-272.052
-219.759
-176.241
-140.199
-110.547
-86.3501
-66.7881
-51.1328
-38.7382
-29.035
-21.5263
-15.7842
-11.4455
-8.20673
-5.81841
-4.07868
-2.82686
-1.93709
-1.31237
-0.879068
-0.582168
-0.381183
-0.246761
-0.157931
-0.0999295
-0.0625067
-0.038648
-0.0236178
-0.0142622
-0.00850897
-0.00501408
-0.00291738
-0.00167542
-0.000949329
-0.000530496
-0.000292232
-0.00015862
-8.47963e-05
-4.46266e-05
-2.31115e-05
-1.17737e-05
-5.89786e-06
-2.90427e-06
-1.40546e-06
-6.68247e-07
-3.12109e-07
-1.43183e-07
-6.45158e-08
-2.8537e-08
-1.23998e-08
-5.29491e-09
-2.2106e-09
-9.05534e-10
-3.7319e-10
-1.63545e-10
-6.36618e-11
-5.48809e-12
8.78094e-12
1.09762e-12
-9.87856e-12
0
0
-3539.6
-3236.5
-2789.31
-2329.74
-1920.88
-1579.4
-1300.91
-1074.59
-889.517
-736.72
-609.406
-502.584
-412.604
-336.748
-272.923
-219.456
-174.946
-138.183
-108.09
-83.7016
-64.1449
-48.6367
-36.48
-27.0625
-19.8541
-14.4033
-10.3317
-7.32755
-5.13818
-3.56217
-2.44157
-1.65452
-1.10847
-0.734225
-0.480825
-0.311312
-0.199274
-0.126106
-0.0788907
-0.0487848
-0.0298165
-0.0180082
-0.0107456
-0.00633319
-0.00368564
-0.00211713
-0.00119992
-0.000670733
-0.000369609
-0.000200695
-0.000107333
-5.6513e-05
-2.92817e-05
-1.49248e-05
-7.48054e-06
-3.68579e-06
-1.78478e-06
-8.4915e-07
-3.96852e-07
-1.82186e-07
-8.21523e-08
-3.63586e-08
-1.58002e-08
-6.74925e-09
-2.83185e-09
-1.17994e-09
-4.91733e-10
-1.94278e-10
-6.14666e-11
-1.4269e-11
-2.19523e-12
4.39047e-12
0
-5.48809e-12
5.48809e-12
-3065.52
-2889.67
-2602.73
-2275.23
-1954.21
-1662.47
-1407.07
-1187.15
-998.832
-837.664
-699.597
-581.271
-479.979
-393.529
-320.104
-258.147
-206.279
-163.249
-127.904
-99.1782
-76.0918
-57.751
-43.352
-32.1833
-23.6255
-17.1485
-12.3067
-8.73191
-6.1252
-4.24784
-2.91239
-1.97409
-1.32289
-0.876439
-0.57407
-0.371752
-0.238002
-0.150639
-0.0942532
-0.058294
-0.0356342
-0.0215256
-0.0128469
-0.00757328
-0.00440838
-0.00253298
-0.00143606
-0.000803014
-0.000442679
-0.000240478
-0.000128672
-6.77847e-05
-3.51423e-05
-1.79231e-05
-8.98923e-06
-4.43222e-06
-2.14779e-06
-1.02264e-06
-4.7831e-07
-2.19751e-07
-9.91577e-08
-4.39332e-08
-1.91271e-08
-8.19591e-09
-3.43664e-09
-1.40495e-09
-5.83933e-10
-2.42573e-10
-7.4638e-11
-1.97571e-11
-2.19523e-12
4.39047e-12
1.09762e-12
4.39047e-12
3.29285e-12
-2755.39
-2642.46
-2446.15
-2204.91
-1950.47
-1703.15
-1473.52
-1265.73
-1080.41
-916.517
-772.44
-646.443
-536.875
-442.216
-361.053
-292.058
-233.962
-185.541
-145.621
-113.081
-86.8658
-65.9977
-49.5875
-36.8413
-27.0633
-19.6556
-14.1133
-10.0184
-7.03058
-4.87751
-3.34521
-2.26814
-1.52035
-1.0075
-0.660064
-0.427527
-0.273763
-0.173304
-0.108454
-0.0670888
-0.0410178
-0.0247825
-0.0147938
-0.00872306
-0.00507902
-0.00291921
-0.00165561
-0.000926143
-0.000510782
-0.000277611
-0.000148623
-7.83411e-05
-4.06415e-05
-2.07421e-05
-1.04108e-05
-5.13709e-06
-2.49136e-06
-1.18723e-06
-5.55808e-07
-2.55584e-07
-1.15427e-07
-5.11907e-08
-2.23047e-08
-9.55257e-09
-3.98984e-09
-1.66399e-09
-7.15647e-10
-2.74404e-10
-8.23213e-11
-1.86595e-11
-1.09762e-12
-4.39047e-12
-1.09762e-12
0
5.48809e-12
-2544.46
-2465.41
-2322.28
-2137.01
-1930.61
-1719.17
-1513.29
-1319.14
-1139.86
-976.722
-829.965
-699.242
-583.898
-483.095
-395.876
-321.197
-257.953
-204.998
-161.178
-125.35
-96.4145
-73.3333
-55.1518
-41.0093
-30.147
-21.9091
-15.7403
-11.1789
-7.84844
-5.44707
-3.73717
-2.53471
-1.69952
-1.12654
-0.738226
-0.478259
-0.306312
-0.193947
-0.121396
-0.0751086
-0.0459301
-0.0277562
-0.0165727
-0.00977442
-0.0056928
-0.00327305
-0.00185697
-0.00103922
-0.000573416
-0.000311817
-0.000167033
-8.81017e-05
-4.57367e-05
-2.33598e-05
-1.17339e-05
-5.79477e-06
-2.81277e-06
-1.34162e-06
-6.28663e-07
-2.89357e-07
-1.30807e-07
-5.80848e-08
-2.53209e-08
-1.08313e-08
-4.54414e-09
-1.89229e-09
-7.99066e-10
-3.29285e-10
-1.13055e-10
-1.97571e-11
-2.19523e-12
-8.78094e-12
-8.78094e-12
4.39047e-12
1.09762e-11
-2397.15
-2337.61
-2226.86
-2078.17
-1905.69
-1721.77
-1535.87
-1354.62
-1182.39
-1021.86
-874.556
-741.219
-622.032
-516.778
-424.943
-345.78
-278.372
-221.682
-174.601
-135.993
-104.736
-79.7514
-60.0368
-44.6795
-32.8694
-23.9033
-17.183
-12.2098
-8.57616
-5.95459
-4.08689
-2.77284
-1.85975
-1.23308
-0.808251
-0.523746
-0.335518
-0.212483
-0.133024
-0.0823193
-0.0503497
-0.0304335
-0.0181755
-0.0107225
-0.00624679
-0.00359275
-0.00203913
-0.00114165
-0.000630242
-0.000342904
-0.000183796
-9.70073e-05
-5.03958e-05
-2.57592e-05
-1.29496e-05
-6.40065e-06
-3.10965e-06
-1.48461e-06
-6.9634e-07
-3.2082e-07
-1.45197e-07
-6.45542e-08
-2.81791e-08
-1.20672e-08
-5.05782e-09
-2.08547e-09
-8.8468e-10
-3.74288e-10
-1.24031e-10
-2.74404e-11
0
1.09762e-12
0
-1.09762e-12
0
-2292.44
-2244.7
-2154.31
-2029.81
-1881.12
-1717.74
-1547.79
-1377.73
-1212.37
-1055.2
-908.589
-774.055
-652.444
-544.064
-448.793
-366.166
-295.458
-235.749
-185.992
-145.075
-111.87
-85.2771
-64.2578
-47.8608
-35.2359
-25.641
-18.4429
-13.1119
-9.21406
-6.40017
-4.39437
-2.98246
-2.00096
-1.32709
-0.870091
-0.563952
-0.361354
-0.228892
-0.143325
-0.0887117
-0.0542704
-0.0328103
-0.0195995
-0.0115655
-0.00673987
-0.00387761
-0.00220163
-0.00123316
-0.000681086
-0.000370768
-0.00019885
-0.000105022
-5.45982e-05
-2.79285e-05
-1.40516e-05
-6.95131e-06
-3.3802e-06
-1.61527e-06
-7.58347e-07
-3.49735e-07
-1.58421e-07
-7.04857e-08
-3.08277e-08
-1.32417e-08
-5.55833e-09
-2.27207e-09
-9.39561e-10
-4.21485e-10
-1.53666e-10
-2.08547e-11
4.39047e-12
-2.19524e-12
-5.48809e-12
0
0
-2217.13
-2176.82
-2099.57
-1991.29
-1859.25
-1710.95
-1553.36
-1392.49
-1233.26
-1079.54
-934.227
-799.382
-676.342
-565.831
-468.058
-382.807
-309.529
-247.421
-195.506
-152.703
-117.892
-89.9609
-67.8491
-50.5765
-37.2619
-27.1326
-19.5268
-13.8896
-9.76503
-6.78568
-4.66079
-3.16436
-2.12365
-1.40885
-0.923932
-0.598989
-0.383887
-0.243215
-0.152324
-0.0942995
-0.0577001
-0.0348909
-0.0208469
-0.0123046
-0.00717258
-0.00412786
-0.00234456
-0.00131375
-0.000725936
-0.000395389
-0.000212177
-0.000112132
-5.83348e-05
-2.98621e-05
-1.50363e-05
-7.44461e-06
-3.62322e-06
-1.73294e-06
-8.14354e-07
-3.75922e-07
-1.70445e-07
-7.59134e-08
-3.32161e-08
-1.42624e-08
-6.00836e-09
-2.4894e-09
-1.02078e-09
-4.32461e-10
-1.60252e-10
-2.96357e-11
-4.39047e-12
-6.5857e-12
0
5.48809e-12
0
-2162.59
-2127.09
-2058.51
-1961.22
-1840.84
-1703.51
-1555.29
-1401.73
-1247.66
-1097.13
-953.326
-818.677
-694.872
-582.953
-483.395
-396.19
-320.944
-256.961
-203.332
-159.013
-122.898
-93.8713
-70.8589
-52.8602
-38.9707
-28.3941
-20.4457
-14.5503
-10.2341
-7.11442
-4.88835
-3.31994
-2.22872
-1.47895
-0.970149
-0.629095
-0.403267
-0.255544
-0.160075
-0.0991161
-0.0606584
-0.0366868
-0.0219244
-0.0129435
-0.00754694
-0.00434457
-0.00246848
-0.00138372
-0.000764926
-0.000416829
-0.000223803
-0.000118346
-6.16078e-05
-3.15595e-05
-1.59028e-05
-7.87983e-06
-3.83818e-06
-1.83731e-06
-8.64149e-07
-3.99243e-07
-1.81174e-07
-8.07627e-08
-3.53718e-08
-1.51965e-08
-6.42765e-09
-2.69246e-09
-1.09542e-09
-4.52218e-10
-1.70131e-10
-3.29285e-11
-1.09762e-12
0
-2.19524e-12
-3.29285e-12
5.48809e-12
-2122.93
-2090.62
-2027.84
-1938.07
-1825.88
-1696.5
-1555.28
-1407.38
-1257.51
-1109.73
-967.415
-833.214
-709.068
-596.25
-495.442
-406.805
-330.073
-264.646
-209.676
-164.157
-126.999
-97.0884
-73.3446
-54.7527
-40.3912
-29.4455
-21.2136
-15.1036
-10.6276
-7.39079
-5.07997
-3.45114
-2.31746
-1.53823
-1.00927
-0.654603
-0.419702
-0.266007
-0.166659
-0.10321
-0.0631745
-0.0382152
-0.0228421
-0.013488
-0.00786622
-0.00452956
-0.00257435
-0.00144356
-0.00079832
-0.000435218
-0.000233792
-0.000123695
-6.44304e-05
-3.30265e-05
-1.66533e-05
-8.25764e-06
-4.02522e-06
-1.92834e-06
-9.07674e-07
-4.19691e-07
-1.90623e-07
-8.50335e-08
-3.72597e-08
-1.60559e-08
-6.79425e-09
-2.81978e-09
-1.15469e-09
-4.71976e-10
-1.69033e-10
-5.26856e-11
-1.86595e-11
0
0
1.09762e-12
-1.09762e-12
-2094.07
-2063.89
-2005.06
-1920.46
-1814.04
-1690.37
-1554.32
-1410.75
-1264.18
-1118.69
-977.716
-844.058
-719.822
-606.453
-504.785
-415.113
-337.276
-270.752
-214.747
-168.291
-130.31
-99.6977
-75.3683
-56.2988
-41.5552
-30.3095
-21.8461
-15.5605
-10.9532
-7.61987
-5.23907
-3.56025
-2.39135
-1.58766
-1.04193
-0.675919
-0.433448
-0.274766
-0.172174
-0.106642
-0.0652848
-0.0394978
-0.0236125
-0.0139454
-0.00813459
-0.00468515
-0.00266348
-0.00149398
-0.000826488
-0.000450748
-0.000242239
-0.000128226
-6.68254e-05
-3.42735e-05
-1.72926e-05
-8.58005e-06
-4.18518e-06
-2.00637e-06
-9.45079e-07
-4.37303e-07
-1.98745e-07
-8.87259e-08
-3.89072e-08
-1.67606e-08
-7.08732e-09
-2.9471e-09
-1.24031e-09
-5.10392e-10
-1.82205e-10
-5.92713e-11
-1.31714e-11
-8.78094e-12
3.29285e-12
1.31714e-11
-3.29285e-12
-2073.07
-2044.34
-1988.21
-1907.21
-1804.83
-1685.26
-1553.01
-1412.68
-1268.68
-1125.01
-985.188
-852.071
-727.885
-614.193
-511.945
-421.535
-342.886
-275.539
-218.747
-171.569
-132.948
-101.785
-76.9932
-57.5443
-42.4958
-31.0097
-22.36
-15.9325
-11.2189
-7.80713
-5.36936
-3.64974
-2.45204
-1.62831
-1.06881
-0.693488
-0.444788
-0.281998
-0.17673
-0.109478
-0.0670301
-0.040559
-0.0242502
-0.0143242
-0.00835692
-0.00481411
-0.00273738
-0.00153582
-0.000849879
-0.000463656
-0.000249268
-0.000132001
-6.88235e-05
-3.53155e-05
-1.78276e-05
-8.85038e-06
-4.31952e-06
-2.07199e-06
-9.76589e-07
-4.52203e-07
-2.05659e-07
-9.18464e-08
-4.02793e-08
-1.73654e-08
-7.37818e-09
-3.09199e-09
-1.29629e-09
-5.36735e-10
-1.95376e-10
-4.71976e-11
3.29285e-12
5.48809e-12
-4.39047e-12
1.09762e-12
-1.09762e-12
-2057.84
-2030.1
-1975.82
-1897.31
-1797.79
-1681.15
-1551.66
-1413.74
-1271.68
-1129.45
-990.566
-857.94
-733.87
-620.003
-517.369
-426.44
-347.201
-279.244
-221.861
-174.133
-135.021
-103.432
-78.28
-58.534
-43.2455
-31.5692
-22.7717
-16.2312
-11.4327
-7.95813
-5.4746
-3.72214
-2.50121
-1.66128
-1.09065
-0.707771
-0.454015
-0.287886
-0.180443
-0.111791
-0.0684536
-0.0414248
-0.0247706
-0.0146333
-0.0085384
-0.0049194
-0.00279774
-0.00157001
-0.000868997
-0.000474213
-0.000255021
-0.000135093
-7.04618e-05
-3.61708e-05
-1.82673e-05
-9.07286e-06
-4.43025e-06
-2.12616e-06
-1.00263e-06
-4.64502e-07
-2.11386e-07
-9.44719e-08
-4.14658e-08
-1.78725e-08
-7.58454e-09
-3.18858e-09
-1.33361e-09
-5.59785e-10
-2.12938e-10
-6.25642e-11
-2.19523e-12
9.87856e-12
9.87856e-12
1.09762e-12
-8.78094e-12
-2046.82
-2019.76
-1966.77
-1889.99
-1792.48
-1677.92
-1550.42
-1414.27
-1273.67
-1132.55
-994.408
-862.202
-738.271
-624.318
-521.434
-430.143
-350.481
-282.077
-224.254
-176.114
-136.629
-104.714
-79.2858
-59.3101
-43.8351
-32.0105
-23.0972
-16.4679
-11.6025
-8.07824
-5.55845
-3.77992
-2.54051
-1.68767
-1.10815
-0.719227
-0.461423
-0.292617
-0.183427
-0.113651
-0.0695985
-0.0421213
-0.0251893
-0.014882
-0.00868439
-0.00500409
-0.00284628
-0.0015975
-0.000884373
-0.000482705
-0.00025965
-0.000137582
-7.17813e-05
-3.68602e-05
-1.8622e-05
-9.25252e-06
-4.51975e-06
-2.17001e-06
-1.02376e-06
-4.74511e-07
-2.16025e-07
-9.65859e-08
-4.24251e-08
-1.83061e-08
-7.76455e-09
-3.26102e-09
-1.37092e-09
-5.66371e-10
-2.09645e-10
-7.02475e-11
-5.48809e-12
5.48809e-12
4.39047e-12
8.78094e-12
-7.68332e-12
-2038.9
-2012.3
-1960.19
-1884.62
-1788.52
-1675.43
-1549.37
-1414.5
-1274.98
-1134.69
-997.133
-865.272
-741.477
-627.491
-524.446
-432.908
-352.944
-284.217
-226.071
-177.624
-137.861
-105.7
-80.0616
-59.9106
-44.2926
-32.3538
-23.351
-16.653
-11.7355
-8.17252
-5.62439
-3.82542
-2.57151
-1.70851
-1.12198
-0.728293
-0.467289
-0.296366
-0.185793
-0.115126
-0.0705067
-0.0426737
-0.0255213
-0.0150792
-0.00880009
-0.00507118
-0.00288472
-0.00161925
-0.000896539
-0.000489422
-0.00026331
-0.00013955
-7.2825e-05
-3.74056e-05
-1.89027e-05
-9.39476e-06
-4.5907e-06
-2.20482e-06
-1.04053e-06
-4.82439e-07
-2.19714e-07
-9.82576e-08
-4.3177e-08
-1.86485e-08
-7.92041e-09
-3.31371e-09
-1.37861e-09
-5.81737e-10
-2.29402e-10
-8.23213e-11
3.29285e-12
9.87856e-12
-3.29285e-12
4.39047e-12
-1.09762e-12
-2033.22
-2006.95
-1955.45
-1880.72
-1785.6
-1673.55
-1548.51
-1414.57
-1275.83
-1136.17
-999.051
-867.464
-743.791
-629.802
-526.656
-434.948
-354.774
-285.815
-227.433
-178.762
-138.792
-106.448
-80.6524
-60.3693
-44.6431
-32.6176
-23.5465
-16.7957
-11.8383
-8.24555
-5.67555
-3.86079
-2.59563
-1.72475
-1.13278
-0.735372
-0.471874
-0.299298
-0.187644
-0.11628
-0.0712172
-0.0431059
-0.025781
-0.0152333
-0.00889045
-0.00512353
-0.00291469
-0.0016362
-0.000906009
-0.000494646
-0.000266155
-0.000141079
-7.36353e-05
-3.78289e-05
-1.91206e-05
-9.50517e-06
-4.64576e-06
-2.23181e-06
-1.05355e-06
-4.88615e-07
-2.22596e-07
-9.95934e-08
-4.37576e-08
-1.88955e-08
-8.03127e-09
-3.34883e-09
-1.38519e-09
-5.93811e-10
-2.51354e-10
-7.4638e-11
4.39047e-12
2.19524e-12
-1.4269e-11
-2.19523e-12
3.29285e-12
-2029.19
-2003.14
-1952.06
-1877.91
-1783.47
-1672.16
-1547.83
-1414.56
-1276.39
-1137.18
-1000.39
-869.017
-745.446
-631.468
-528.261
-436.439
-356.117
-286.994
-228.443
-179.609
-139.488
-107.009
-81.0967
-60.7153
-44.9082
-32.8175
-23.695
-16.9045
-11.9168
-8.30138
-5.71474
-3.88792
-2.61416
-1.73724
-1.14108
-0.740828
-0.47541
-0.301559
-0.189072
-0.11717
-0.0717656
-0.0434393
-0.0259811
-0.015352
-0.00895999
-0.00516378
-0.0029377
-0.0016492
-0.000913259
-0.000498641
-0.000268328
-0.000142245
-7.42528e-05
-3.81512e-05
-1.92864e-05
-9.58915e-06
-4.68761e-06
-2.25236e-06
-1.06349e-06
-4.93324e-07
-2.24799e-07
-1.00597e-07
-4.41956e-08
-1.90974e-08
-8.12017e-09
-3.38395e-09
-1.40605e-09
-5.76249e-10
-2.22816e-10
-6.91499e-11
-1.75619e-11
-1.4269e-11
0
0
1.09762e-12
-2026.34
-2000.44
-1949.65
-1875.9
-1781.93
-1671.13
-1547.31
-1414.5
-1276.74
-1137.86
-1001.32
-870.108
-746.62
-632.658
-529.414
-437.517
-357.093
-287.854
-229.183
-180.231
-140.001
-107.425
-81.4267
-60.973
-45.1062
-32.9672
-23.8065
-16.9862
-11.9759
-8.34353
-5.74436
-3.90846
-2.62821
-1.74673
-1.1474
-0.744978
-0.478101
-0.303282
-0.19016
-0.117849
-0.0721831
-0.0436929
-0.0261333
-0.0154421
-0.00901272
-0.00519425
-0.00295509
-0.00165901
-0.00091872
-0.000501644
-0.000269959
-0.000143119
-7.47147e-05
-3.8392e-05
-1.941e-05
-9.65171e-06
-4.71879e-06
-2.26765e-06
-1.07085e-06
-4.96823e-07
-2.2643e-07
-1.01359e-07
-4.45314e-08
-1.92336e-08
-8.18274e-09
-3.4092e-09
-1.39836e-09
-5.83933e-10
-2.40378e-10
-8.45165e-11
-1.86595e-11
6.58571e-12
-3.29285e-12
-7.68332e-12
8.78094e-12
-2024.34
-1998.54
-1947.95
-1874.47
-1780.83
-1670.38
-1546.92
-1414.44
-1276.97
-1138.32
-1001.96
-870.868
-747.445
-633.499
-530.234
-438.287
-357.794
-288.475
-229.719
-180.684
-140.376
-107.729
-81.6689
-61.1626
-45.2522
-33.0779
-23.8891
-17.047
-12.0199
-8.37493
-5.76648
-3.92382
-2.63873
-1.75383
-1.15214
-0.748093
-0.480122
-0.304576
-0.190978
-0.118358
-0.0724966
-0.0438833
-0.0262473
-0.0155096
-0.00905214
-0.00521698
-0.00296804
-0.00166629
-0.000922767
-0.000503865
-0.000271162
-0.000143762
-7.5054e-05
-3.85684e-05
-1.95005e-05
-9.69743e-06
-4.74151e-06
-2.27876e-06
-1.07621e-06
-4.99363e-07
-2.27595e-07
-1.01892e-07
-4.48069e-08
-1.93488e-08
-8.20359e-09
-3.40591e-09
-1.3819e-09
-5.74054e-10
-2.50257e-10
-1.1964e-10
-3.07333e-11
1.09762e-11
-3.29285e-12
1.09762e-12
2.19524e-12
-2022.95
-1997.22
-1946.77
-1873.47
-1780.06
-1669.85
-1546.63
-1414.38
-1277.11
-1138.64
-1002.4
-871.393
-748.019
-634.089
-530.812
-438.832
-358.292
-288.917
-230.103
-181.01
-140.646
-107.948
-81.8444
-61.3004
-45.3586
-33.1587
-23.9495
-17.0915
-12.0522
-8.39804
-5.78277
-3.93515
-2.6465
-1.75909
-1.15565
-0.750402
-0.481621
-0.305536
-0.191584
-0.118736
-0.072729
-0.0440242
-0.0263317
-0.0155594
-0.00908118
-0.00523369
-0.00297754
-0.00167162
-0.000925718
-0.000505479
-0.000272034
-0.000144227
-7.52985e-05
-3.86953e-05
-1.95655e-05
-9.73014e-06
-4.75775e-06
-2.2867e-06
-1.08001e-06
-5.01159e-07
-2.28442e-07
-1.02281e-07
-4.49628e-08
-1.94245e-08
-8.23762e-09
-3.39274e-09
-1.39617e-09
-5.96006e-10
-2.59038e-10
-9.87856e-11
-1.53666e-11
0
0
-1.09762e-11
1.20738e-11
-2021.98
-1996.31
-1945.94
-1872.78
-1779.51
-1669.47
-1546.42
-1414.33
-1277.2
-1138.84
-1002.7
-871.753
-748.415
-634.499
-531.215
-439.214
-358.643
-289.23
-230.375
-181.241
-140.838
-108.105
-81.9701
-61.3994
-45.4351
-33.2169
-23.9932
-17.1237
-12.0756
-8.41484
-5.79464
-3.94341
-2.65218
-1.76293
-1.15821
-0.752092
-0.482719
-0.306239
-0.192028
-0.119013
-0.0728989
-0.0441271
-0.0263932
-0.0155957
-0.00910227
-0.0052458
-0.0029844
-0.00167546
-0.000927837
-0.000506634
-0.000272655
-0.000144557
-7.54717e-05
-3.87849e-05
-1.96111e-05
-9.75308e-06
-4.7691e-06
-2.29223e-06
-1.08267e-06
-5.02393e-07
-2.29023e-07
-1.02568e-07
-4.51055e-08
-1.94651e-08
-8.23433e-09
-3.43774e-09
-1.43349e-09
-5.83933e-10
-2.25012e-10
-9.21999e-11
-2.52452e-11
6.58571e-12
-1.09762e-12
-1.09762e-12
2.19524e-12
-2021.33
-1995.68
-1945.38
-1872.3
-1779.14
-1669.21
-1546.27
-1414.29
-1277.26
-1138.98
-1002.9
-871.998
-748.686
-634.78
-531.494
-439.479
-358.887
-289.448
-230.565
-181.403
-140.974
-108.216
-82.0591
-61.4696
-45.4896
-33.2585
-24.0244
-17.1468
-12.0924
-8.42689
-5.80316
-3.94936
-2.65626
-1.7657
-1.16006
-0.753313
-0.483512
-0.306747
-0.192349
-0.119213
-0.0730215
-0.0442014
-0.0264375
-0.0156218
-0.00911739
-0.00525445
-0.00298929
-0.00167818
-0.000929336
-0.000507448
-0.000273092
-0.000144788
-7.55922e-05
-3.8847e-05
-1.96427e-05
-9.76888e-06
-4.77692e-06
-2.29603e-06
-1.08449e-06
-5.03249e-07
-2.29404e-07
-1.02736e-07
-4.51692e-08
-1.94794e-08
-8.27055e-09
-3.46189e-09
-1.42361e-09
-5.87225e-10
-2.54647e-10
-8.12237e-11
-1.09762e-12
0
1.09762e-12
1.09762e-12
-2.19524e-12
-2020.88
-1995.26
-1944.99
-1871.97
-1778.88
-1669.03
-1546.16
-1414.26
-1277.29
-1139.07
-1003.03
-872.162
-748.87
-634.971
-531.684
-439.66
-359.054
-289.599
-230.697
-181.516
-141.068
-108.294
-82.1214
-61.5188
-45.5278
-33.2877
-24.0464
-17.163
-12.1043
-8.43543
-5.80922
-3.95358
-2.65917
-1.76768
-1.16138
-0.754184
-0.484079
-0.30711
-0.192578
-0.119355
-0.0731089
-0.0442542
-0.0264689
-0.0156402
-0.00912807
-0.00526055
-0.00299272
-0.00168008
-0.000930379
-0.000508012
-0.000273393
-0.000144947
-7.56747e-05
-3.88893e-05
-1.96641e-05
-9.77956e-06
-4.78214e-06
-2.29858e-06
-1.0857e-06
-5.03824e-07
-2.29686e-07
-1.02845e-07
-4.52153e-08
-1.95277e-08
-8.28262e-09
-3.44323e-09
-1.41373e-09
-5.81737e-10
-2.49159e-10
-9.11023e-11
-1.20738e-11
0
-2.19523e-12
-5.48809e-12
5.48809e-12
-2020.58
-1994.97
-1944.74
-1871.75
-1778.7
-1668.9
-1546.09
-1414.23
-1277.31
-1139.13
-1003.12
-872.272
-748.993
-635.101
-531.813
-439.784
-359.169
-289.702
-230.788
-181.593
-141.133
-108.347
-82.1645
-61.5529
-45.5544
-33.3081
-24.0617
-17.1744
-12.1126
-8.44142
-5.81346
-3.95655
-2.66122
-1.76907
-1.16231
-0.754798
-0.484478
-0.307366
-0.19274
-0.119456
-0.0731704
-0.0442913
-0.026491
-0.0156531
-0.00913552
-0.00526479
-0.00299509
-0.0016814
-0.000931096
-0.000508398
-0.000273598
-0.000145054
-7.57302e-05
-3.89176e-05
-1.96783e-05
-9.78665e-06
-4.78561e-06
-2.30024e-06
-1.0865e-06
-5.04202e-07
-2.29851e-07
-1.02921e-07
-4.52723e-08
-1.95442e-08
-8.26945e-09
-3.4531e-09
-1.41154e-09
-5.60883e-10
-2.42573e-10
-1.08664e-10
-1.86595e-11
2.19524e-12
-1.4269e-11
4.39047e-12
1.31714e-11
-2020.38
-1994.78
-1944.56
-1871.6
-1778.59
-1668.82
-1546.04
-1414.22
-1277.33
-1139.17
-1003.18
-872.345
-749.075
-635.187
-531.899
-439.867
-359.246
-289.771
-230.849
-181.646
-141.177
-108.383
-82.1939
-61.5763
-45.5726
-33.322
-24.0722
-17.1823
-12.1184
-8.44555
-5.8164
-3.95861
-2.66264
-1.77003
-1.16296
-0.755225
-0.484756
-0.307544
-0.192852
-0.119525
-0.0732131
-0.044317
-0.0265063
-0.0156621
-0.00914066
-0.0052677
-0.00299672
-0.00168229
-0.000931582
-0.000508658
-0.000273735
-0.000145126
-7.5767e-05
-3.89363e-05
-1.96877e-05
-9.79128e-06
-4.78787e-06
-2.3013e-06
-1.087e-06
-5.04432e-07
-2.29956e-07
-1.0298e-07
-4.5291e-08
-1.95376e-08
-8.27055e-09
-3.45969e-09
-1.41812e-09
-5.6198e-10
-2.42573e-10
-9.54927e-11
-9.87856e-12
0
0
8.78094e-12
-8.78094e-12
-2020.25
-1994.66
-1944.45
-1871.51
-1778.51
-1668.76
-1546
-1414.2
-1277.33
-1139.19
-1003.22
-872.393
-749.129
-635.244
-531.956
-439.922
-359.297
-289.818
-230.89
-181.681
-141.207
-108.408
-82.2138
-61.5921
-45.585
-33.3315
-24.0794
-17.1876
-12.1223
-8.44838
-5.81841
-3.96002
-2.66361
-1.7707
-1.16341
-0.755519
-0.484947
-0.307666
-0.192929
-0.119573
-0.0732424
-0.0443346
-0.0265167
-0.0156681
-0.00914414
-0.00526967
-0.00299781
-0.00168289
-0.000931906
-0.000508831
-0.000273826
-0.000145173
-7.57911e-05
-3.89485e-05
-1.96937e-05
-9.79425e-06
-4.78931e-06
-2.302e-06
-1.08732e-06
-5.04584e-07
-2.3001e-07
-1.02989e-07
-4.52745e-08
-1.95409e-08
-8.31006e-09
-3.46847e-09
-1.40276e-09
-5.49906e-10
-2.305e-10
-1.00981e-10
-4.71976e-11
-1.09762e-12
1.64643e-11
2.19523e-12
2.19523e-12
-2020.16
-1994.57
-1944.37
-1871.44
-1778.46
-1668.72
-1545.98
-1414.2
-1277.34
-1139.2
-1003.24
-872.424
-749.164
-635.281
-531.994
-439.958
-359.331
-289.849
-230.917
-181.704
-141.227
-108.424
-82.2271
-61.6027
-45.5933
-33.3379
-24.0842
-17.1912
-12.1249
-8.45029
-5.81977
-3.96097
-2.66427
-1.77115
-1.16371
-0.755718
-0.485076
-0.307749
-0.192982
-0.119606
-0.0732623
-0.0443466
-0.0265237
-0.0156722
-0.00914649
-0.00527099
-0.00299855
-0.00168329
-0.00093212
-0.000508944
-0.000273885
-0.000145203
-7.58066e-05
-3.89562e-05
-1.96976e-05
-9.79612e-06
-4.79022e-06
-2.30243e-06
-1.08752e-06
-5.04685e-07
-2.30038e-07
-1.02989e-07
-4.52811e-08
-1.95497e-08
-8.30896e-09
-3.46847e-09
-1.39068e-09
-5.46614e-10
-2.35988e-10
-1.05371e-10
-2.63428e-11
5.48809e-12
0
0
0
-2020.11
-1994.52
-1944.32
-1871.4
-1778.42
-1668.7
-1545.97
-1414.19
-1277.34
-1139.21
-1003.26
-872.443
-749.187
-635.305
-532.018
-439.982
-359.353
-289.869
-230.935
-181.72
-141.24
-108.435
-82.2358
-61.6097
-45.5987
-33.3421
-24.0874
-17.1936
-12.1267
-8.45156
-5.82068
-3.96161
-2.66472
-1.77145
-1.16391
-0.755852
-0.485163
-0.307805
-0.193017
-0.119628
-0.0732756
-0.0443545
-0.0265284
-0.015675
-0.00914804
-0.00527186
-0.00299903
-0.00168355
-0.00093226
-0.000509018
-0.000273923
-0.000145223
-7.58164e-05
-3.89611e-05
-1.97e-05
-9.79729e-06
-4.79081e-06
-2.30271e-06
-1.08764e-06
-5.04745e-07
-2.30074e-07
-1.02987e-07
-4.52625e-08
-1.95486e-08
-8.31445e-09
-3.46408e-09
-1.40824e-09
-5.71859e-10
-2.09645e-10
-7.35404e-11
-2.63428e-11
0
-2.19524e-12
0
-2.19524e-12
-2020.07
-1994.49
-1944.29
-1871.37
-1778.4
-1668.68
-1545.96
-1414.19
-1277.34
-1139.22
-1003.27
-872.456
-749.202
-635.321
-532.034
-439.997
-359.368
-289.882
-230.946
-181.73
-141.248
-108.442
-82.2416
-61.6142
-45.6023
-33.3449
-24.0895
-17.1952
-12.1278
-8.4524
-5.82128
-3.96203
-2.66501
-1.77165
-1.16404
-0.75594
-0.485221
-0.307842
-0.19304
-0.119642
-0.0732844
-0.0443598
-0.0265315
-0.0156767
-0.00914906
-0.00527243
-0.00299934
-0.00168372
-0.00093235
-0.000509065
-0.000273947
-0.000145235
-7.58226e-05
-3.89642e-05
-1.97015e-05
-9.798e-06
-4.79115e-06
-2.30289e-06
-1.08772e-06
-5.0476e-07
-2.30078e-07
-1.0301e-07
-4.52855e-08
-1.95354e-08
-8.30896e-09
-3.46847e-09
-1.39727e-09
-5.64175e-10
-2.305e-10
-8.34189e-11
-8.78094e-12
-2.19523e-12
0
1.64643e-11
-6.5857e-12
-2020.05
-1994.46
-1944.27
-1871.36
-1778.39
-1668.67
-1545.95
-1414.18
-1277.34
-1139.22
-1003.27
-872.464
-749.211
-635.331
-532.044
-440.007
-359.377
-289.89
-230.954
-181.736
-141.254
-108.447
-82.2452
-61.6172
-45.6046
-33.3467
-24.0909
-17.1962
-12.1286
-8.45294
-5.82167
-3.96231
-2.6652
-1.77178
-1.16413
-0.755998
-0.485259
-0.307866
-0.193055
-0.119652
-0.0732901
-0.0443632
-0.0265335
-0.0156779
-0.00914972
-0.00527279
-0.00299954
-0.00168383
-0.000932407
-0.000509095
-0.000273963
-0.000145243
-7.58264e-05
-3.89661e-05
-1.97024e-05
-9.79843e-06
-4.79135e-06
-2.30298e-06
-1.08776e-06
-5.04787e-07
-2.30102e-07
-1.03021e-07
-4.53086e-08
-1.95563e-08
-8.29909e-09
-3.4564e-09
-1.38519e-09
-5.45516e-10
-2.3489e-10
-9.65903e-11
-6.5857e-12
5.48809e-12
-4.39047e-12
6.5857e-12
4.39047e-12
-2020.03
-1994.45
-1944.26
-1871.35
-1778.38
-1668.67
-1545.95
-1414.18
-1277.34
-1139.23
-1003.28
-872.469
-749.217
-635.337
-532.05
-440.013
-359.383
-289.895
-230.959
-181.74
-141.257
-108.45
-82.2476
-61.619
-45.6061
-33.3478
-24.0918
-17.1968
-12.1291
-8.45329
-5.82191
-3.96248
-2.66532
-1.77186
-1.16419
-0.756035
-0.485283
-0.307882
-0.193065
-0.119658
-0.0732938
-0.0443654
-0.0265348
-0.0156787
-0.00915014
-0.00527303
-0.00299967
-0.0016839
-0.000932444
-0.000509114
-0.000273972
-0.000145248
-7.58288e-05
-3.89672e-05
-1.97029e-05
-9.79871e-06
-4.79146e-06
-2.30299e-06
-1.08777e-06
-5.04794e-07
-2.30107e-07
-1.03036e-07
-4.53217e-08
-1.95573e-08
-8.28921e-09
-3.46408e-09
-1.39507e-09
-5.54297e-10
-2.32695e-10
-8.56142e-11
-1.64643e-11
1.09762e-12
1.09762e-12
-1.09762e-12
0
-2020.02
-1994.44
-1944.25
-1871.34
-1778.37
-1668.66
-1545.94
-1414.18
-1277.34
-1139.23
-1003.28
-872.472
-749.22
-635.341
-532.054
-440.017
-359.386
-289.899
-230.962
-181.743
-141.259
-108.451
-82.2491
-61.6202
-45.607
-33.3485
-24.0923
-17.1972
-12.1294
-8.45351
-5.82207
-3.96259
-2.6654
-1.77191
-1.16422
-0.756059
-0.485299
-0.307892
-0.193071
-0.119662
-0.0732962
-0.0443668
-0.0265357
-0.0156791
-0.0091504
-0.00527318
-0.00299975
-0.00168394
-0.000932466
-0.000509125
-0.000273978
-0.000145251
-7.58302e-05
-3.89679e-05
-1.97033e-05
-9.79887e-06
-4.79151e-06
-2.30303e-06
-1.0878e-06
-5.04804e-07
-2.30113e-07
-1.03039e-07
-4.53151e-08
-1.95563e-08
-8.28482e-09
-3.4575e-09
-1.39946e-09
-5.71859e-10
-2.38183e-10
-6.0369e-11
2.19523e-12
-1.09762e-11
-1.09762e-11
-1.09762e-12
1.09762e-12
-2020.02
-1994.44
-1944.25
-1871.33
-1778.37
-1668.66
-1545.94
-1414.18
-1277.34
-1139.23
-1003.28
-872.474
-749.222
-635.343
-532.057
-440.019
-359.388
-289.901
-230.963
-181.744
-141.261
-108.453
-82.25
-61.621
-45.6076
-33.349
-24.0927
-17.1975
-12.1295
-8.45365
-5.82217
-3.96266
-2.66545
-1.77195
-1.16425
-0.756074
-0.485308
-0.307898
-0.193075
-0.119664
-0.0732976
-0.0443677
-0.0265362
-0.0156794
-0.00915057
-0.00527327
-0.0029998
-0.00168397
-0.00093248
-0.000509132
-0.000273982
-0.000145252
-7.58311e-05
-3.89683e-05
-1.97035e-05
-9.79896e-06
-4.79157e-06
-2.30306e-06
-1.08781e-06
-5.04804e-07
-2.30102e-07
-1.03021e-07
-4.53118e-08
-1.95881e-08
-8.30677e-09
-3.43005e-09
-1.40605e-09
-5.94909e-10
-2.35988e-10
-7.57356e-11
-1.09762e-12
5.48809e-12
-8.78094e-12
0
3.29285e-12
-2020.01
-1994.43
-1944.25
-1871.33
-1778.37
-1668.66
-1545.94
-1414.18
-1277.34
-1139.23
-1003.28
-872.476
-749.224
-635.345
-532.058
-440.021
-359.39
-289.902
-230.964
-181.745
-141.261
-108.453
-82.2505
-61.6214
-45.608
-33.3493
-24.0929
-17.1976
-12.1297
-8.45373
-5.82223
-3.96271
-2.66547
-1.77197
-1.16426
-0.756083
-0.485314
-0.307902
-0.193078
-0.119665
-0.0732986
-0.0443683
-0.0265365
-0.0156796
-0.00915067
-0.00527332
-0.00299983
-0.00168398
-0.000932488
-0.000509137
-0.000273984
-0.000145253
-7.58317e-05
-3.89686e-05
-1.97036e-05
-9.79899e-06
-4.79158e-06
-2.30307e-06
-1.08783e-06
-5.04822e-07
-2.30109e-07
-1.03023e-07
-4.53129e-08
-1.95749e-08
-8.30896e-09
-3.44871e-09
-1.3841e-09
-5.69663e-10
-2.3489e-10
-9.43951e-11
-2.19523e-11
7.68332e-12
-8.78094e-12
0
7.68332e-12
-2020.01
-1994.43
-1944.24
-1871.33