/*--------------------------------*- C++ -*----------------------------------*\
  =========                 |
  \\      /  F ield         | OpenFOAM: The Open Source CFD Toolbox
   \\    /   O peration     | Website:  https://openfoam.org
    \\  /    A nd           | Version:  10
     \\/     M anipulation  |
\*---------------------------------------------------------------------------*/
FoamFile
{
    format      ascii;
    class       volScalarField;
    location    "175";
    object      T;
}
// * * * * * * * * * * * * * * * * * * * * * * * * * * * * * * * * * * * * * //

dimensions      [0 0 0 1 0 0 0];

internalField   nonuniform List<scalar> 
11250
(
249.696
167.121
138.648
125.978
118.975
114.483
111.319
108.958
107.131
105.686
104.528
103.594
102.839
102.228
101.737
101.344
101.031
100.784
100.591
100.441
100.326
100.239
100.173
100.124
100.088
100.062
100.043
100.03
100.02
100.014
100.009
100.006
100.004
100.003
100.002
100.001
100.001
100
100
100
100
100
100
100
100
100
100
100
100
100
100
100
100
100
100
100
100
100
100
100
100
100
100
100
100
100
100
100
100
100
100
100
100
100
100
331.061
247.285
200.181
172.315
154.477
142.192
133.231
126.42
121.094
116.854
113.442
110.68
108.442
106.631
105.172
104.003
103.072
102.337
101.761
101.315
100.972
100.712
100.516
100.37
100.263
100.185
100.128
100.088
100.06
100.04
100.027
100.018
100.012
100.007
100.005
100.003
100.002
100.001
100.001
100
100
100
100
100
100
100
100
100
100
100
100
100
100
100
100
100
100
100
100
100
100
100
100
100
100
100
100
100
100
100
100
100
100
100
100
358.348
290.847
242.586
208.773
184.61
166.786
153.224
142.638
134.221
127.443
121.945
117.471
113.832
110.878
108.493
106.578
105.051
103.845
102.899
102.166
101.602
101.173
100.85
100.61
100.433
100.305
100.212
100.146
100.099
100.067
100.044
100.029
100.019
100.012
100.008
100.005
100.003
100.002
100.001
100.001
100
100
100
100
100
100
100
100
100
100
100
100
100
100
100
100
100
100
100
100
100
100
100
100
100
100
100
100
100
100
100
100
100
100
100
369.87
315.281
270.727
235.83
208.707
187.466
170.62
157.091
146.118
137.159
129.821
123.807
118.888
114.88
111.633
109.02
106.933
105.281
103.985
102.978
102.204
101.615
101.171
100.841
100.597
100.42
100.292
100.201
100.137
100.092
100.061
100.04
100.026
100.017
100.011
100.007
100.004
100.003
100.002
100.001
100.001
100
100
100
100
100
100
100
100
100
100
100
100
100
100
100
100
100
100
100
100
100
100
100
100
100
100
100
100
100
100
100
100
100
100
375.774
329.837
289.467
255.455
227.341
204.232
185.223
169.541
156.568
145.821
136.922
129.57
123.52
118.567
114.54
111.289
108.687
106.624
105.003
103.741
102.771
102.031
101.474
101.058
100.752
100.529
100.368
100.253
100.172
100.116
100.077
100.051
100.033
100.021
100.014
100.009
100.005
100.003
100.002
100.001
100.001
100
100
100
100
100
100
100
100
100
100
100
100
100
100
100
100
100
100
100
100
100
100
100
100
100
100
100
100
100
100
100
100
100
100
379.229
339.024
302.171
269.618
241.498
217.506
197.166
179.984
165.508
153.348
143.171
134.692
127.67
121.893
117.176
113.357
110.292
107.856
105.939
104.445
103.294
102.416
101.754
101.26
100.896
100.63
100.438
100.302
100.206
100.139
100.092
100.061
100.04
100.026
100.016
100.01
100.006
100.004
100.002
100.001
100.001
100.001
100
100
100
100
100
100
100
100
100
100
100
100
100
100
100
100
100
100
100
100
100
100
100
100
100
100
100
100
100
100
100
100
100
381.426
345.097
310.961
279.866
252.163
227.854
206.746
188.56
172.993
159.749
148.552
139.15
131.314
124.834
119.521
115.206
111.733
108.967
106.785
105.084
103.77
102.767
102.01
101.445
101.028
100.723
100.503
100.347
100.236
100.159
100.106
100.07
100.046
100.029
100.019
100.012
100.007
100.005
100.003
100.002
100.001
100.001
100
100
100
100
100
100
100
100
100
100
100
100
100
100
100
100
100
100
100
100
100
100
100
100
100
100
100
100
100
100
100
100
100
382.898
349.25
317.153
287.323
260.166
235.84
214.322
195.485
179.145
165.089
153.099
142.957
134.453
127.386
121.57
116.829
113.005
109.951
107.538
105.653
104.195
103.082
102.24
101.611
101.146
100.807
100.562
100.387
100.264
100.178
100.119
100.078
100.051
100.033
100.021
100.013
100.008
100.005
100.003
100.002
100.001
100.001
100
100
100
100
100
100
100
100
100
100
100
100
100
100
100
100
100
100
100
100
100
100
100
100
100
100
100
100
100
100
100
100
100
383.916
352.16
321.58
292.777
266.162
241.959
220.248
201.002
184.125
169.472
156.875
146.151
137.109
129.563
123.329
118.231
114.108
110.808
108.196
106.152
104.57
103.359
102.443
101.758
101.252
100.882
100.614
100.423
100.289
100.195
100.13
100.086
100.056
100.036
100.023
100.015
100.009
100.006
100.003
100.002
100.001
100.001
100
100
100
100
100
100
100
100
100
100
100
100
100
100
100
100
100
100
100
100
100
100
100
100
100
100
100
100
100
100
100
100
100
384.635
354.233
324.776
296.785
270.648
246.622
224.842
205.347
188.102
173.017
159.964
148.788
139.322
131.39
124.814
119.422
115.049
111.543
108.763
106.583
104.894
103.6
102.62
101.887
101.344
100.947
100.66
100.455
100.31
100.209
100.14
100.092
100.06
100.039
100.025
100.016
100.01
100.006
100.004
100.002
100.001
100.001
100
100
100
100
100
100
100
100
100
100
100
100
100
100
100
100
100
100
100
100
100
100
100
100
100
100
100
100
100
100
100
100
100
385.15
355.726
327.102
299.737
274.001
250.157
228.375
208.735
191.242
175.848
162.455
150.935
141.138
132.899
126.049
120.418
115.841
112.164
109.243
106.95
105.171
103.806
102.772
101.997
101.423
101.003
100.7
100.483
100.329
100.222
100.148
100.098
100.064
100.041
100.026
100.017
100.01
100.006
100.004
100.002
100.001
100.001
100
100
100
100
100
100
100
100
100
100
100
100
100
100
100
100
100
100
100
100
100
100
100
100
100
100
100
100
100
100
100
100
100
385.523
356.808
328.8
301.915
276.501
252.826
231.074
211.352
193.695
178.081
164.438
152.659
142.607
134.129
127.061
121.238
116.496
112.68
109.644
107.257
105.403
103.98
102.9
102.091
101.491
101.051
100.733
100.506
100.345
100.233
100.156
100.103
100.067
100.043
100.028
100.018
100.011
100.007
100.004
100.002
100.001
100.001
100.001
100
100
100
100
100
100
100
100
100
100
100
100
100
100
100
100
100
100
100
100
100
100
100
100
100
100
100
100
100
100
100
100
385.792
357.596
330.043
303.52
278.361
254.83
233.121
213.356
195.591
179.822
165.998
154.025
143.779
135.116
127.879
121.904
117.031
113.102
109.974
107.511
105.596
104.124
103.007
102.169
101.547
101.092
100.762
100.526
100.359
100.242
100.162
100.107
100.07
100.045
100.029
100.018
100.011
100.007
100.004
100.003
100.002
100.001
100.001
100
100
100
100
100
100
100
100
100
100
100
100
100
100
100
100
100
100
100
100
100
100
100
100
100
100
100
100
100
100
100
100
385.989
358.17
330.952
304.701
279.739
256.327
234.663
214.878
197.043
181.167
167.211
155.094
144.703
135.899
128.531
122.438
117.461
113.444
110.241
107.718
105.753
104.243
103.095
102.233
101.593
101.125
100.785
100.542
100.37
100.25
100.167
100.11
100.072
100.047
100.03
100.019
100.012
100.007
100.004
100.003
100.002
100.001
100.001
100
100
100
100
100
100
100
100
100
100
100
100
100
100
100
100
100
100
100
100
100
100
100
100
100
100
100
100
100
100
100
100
386.131
358.587
331.615
305.568
280.756
257.439
235.816
216.026
198.145
182.194
168.144
155.923
145.422
136.512
129.044
122.86
117.803
113.717
110.455
107.883
105.88
104.338
103.166
102.285
101.631
101.152
100.804
100.556
100.38
100.256
100.171
100.113
100.074
100.048
100.031
100.019
100.012
100.007
100.005
100.003
100.002
100.001
100.001
100
100
100
100
100
100
100
100
100
100
100
100
100
100
100
100
100
100
100
100
100
100
100
100
100
100
100
100
100
100
100
100
386.234
358.89
332.098
306.201
281.503
258.26
236.673
216.883
198.973
182.971
168.854
156.556
145.976
136.986
129.443
123.19
118.071
113.931
110.624
108.015
105.981
104.414
103.223
102.327
101.662
101.174
100.82
100.566
100.387
100.262
100.175
100.116
100.076
100.049
100.031
100.02
100.012
100.008
100.005
100.003
100.002
100.001
100.001
100
100
100
100
100
100
100
100
100
100
100
100
100
100
100
100
100
100
100
100
100
100
100
100
100
100
100
100
100
100
100
100
386.309
359.109
332.449
306.662
282.049
258.863
237.304
217.518
199.59
183.553
169.389
157.036
146.397
137.349
129.749
123.444
118.278
114.098
110.756
108.118
106.06
104.474
103.267
102.36
101.686
101.191
100.832
100.575
100.393
100.266
100.178
100.117
100.077
100.05
100.032
100.02
100.013
100.008
100.005
100.003
100.002
100.001
100.001
100
100
100
100
100
100
100
100
100
100
100
100
100
100
100
100
100
100
100
100
100
100
100
100
100
100
100
100
100
100
100
100
386.363
359.267
332.701
306.995
282.444
259.301
237.766
217.985
200.046
183.985
169.788
157.395
146.714
137.622
129.981
123.637
118.437
114.225
110.857
108.197
106.121
104.521
103.302
102.386
101.704
101.204
100.842
100.582
100.398
100.269
100.18
100.119
100.078
100.05
100.032
100.02
100.013
100.008
100.005
100.003
100.002
100.001
100.001
100
100
100
100
100
100
100
100
100
100
100
100
100
100
100
100
100
100
100
100
100
100
100
100
100
100
100
100
100
100
100
100
386.401
359.38
332.882
307.234
282.73
259.619
238.102
218.325
200.38
184.303
170.082
157.661
146.949
137.827
130.155
123.783
118.556
114.322
110.934
108.257
106.167
104.556
103.329
102.405
101.719
101.215
100.849
100.587
100.401
100.271
100.181
100.12
100.078
100.051
100.032
100.021
100.013
100.008
100.005
100.003
100.002
100.001
100.001
100
100
100
100
100
100
100
100
100
100
100
100
100
100
100
100
100
100
100
100
100
100
100
100
100
100
100
100
100
100
100
100
386.428
359.46
333.011
307.405
282.934
259.846
238.343
218.571
200.621
184.534
170.297
157.856
147.123
137.978
130.284
123.891
118.645
114.394
110.992
108.303
106.203
104.583
103.349
102.42
101.73
101.223
100.855
100.591
100.404
100.273
100.183
100.121
100.079
100.051
100.033
100.021
100.013
100.008
100.005
100.003
100.002
100.001
100.001
100
100
100
100
100
100
100
100
100
100
100
100
100
100
100
100
100
100
100
100
100
100
100
100
100
100
100
100
100
100
100
100
386.448
359.517
333.102
307.526
283.079
260.008
238.515
218.747
200.795
184.7
170.452
157.998
147.249
138.088
130.378
123.97
118.711
114.448
111.035
108.336
106.229
104.603
103.364
102.432
101.738
101.229
100.859
100.594
100.406
100.275
100.184
100.121
100.079
100.051
100.033
100.021
100.013
100.008
100.005
100.003
100.002
100.001
100.001
100
100
100
100
100
100
100
100
100
100
100
100
100
100
100
100
100
100
100
100
100
100
100
100
100
100
100
100
100
100
100
100
386.461
359.557
333.166
307.611
283.181
260.122
238.637
218.871
200.919
184.819
170.563
158.1
147.34
138.168
130.447
124.028
118.759
114.487
111.066
108.361
106.248
104.618
103.375
102.44
101.744
101.233
100.862
100.596
100.408
100.276
100.184
100.122
100.08
100.052
100.033
100.021
100.013
100.008
100.005
100.003
100.002
100.001
100.001
100
100
100
100
100
100
100
100
100
100
100
100
100
100
100
100
100
100
100
100
100
100
100
100
100
100
100
100
100
100
100
100
386.47
359.584
333.211
307.671
283.252
260.202
238.722
218.959
201.006
184.903
170.642
158.172
147.405
138.225
130.496
124.07
118.794
114.515
111.089
108.379
106.262
104.629
103.384
102.446
101.749
101.237
100.865
100.598
100.409
100.277
100.185
100.122
100.08
100.052
100.033
100.021
100.013
100.008
100.005
100.003
100.002
100.001
100.001
100
100
100
100
100
100
100
100
100
100
100
100
100
100
100
100
100
100
100
100
100
100
100
100
100
100
100
100
100
100
100
100
386.477
359.604
333.242
307.712
283.301
260.258
238.782
219.02
201.066
184.961
170.697
158.223
147.451
138.265
130.531
124.099
118.818
114.535
111.105
108.392
106.272
104.636
103.389
102.451
101.752
101.239
100.866
100.599
100.41
100.277
100.185
100.123
100.08
100.052
100.033
100.021
100.013
100.008
100.005
100.003
100.002
100.001
100.001
100
100
100
100
100
100
100
100
100
100
100
100
100
100
100
100
100
100
100
100
100
100
100
100
100
100
100
100
100
100
100
100
386.481
359.617
333.263
307.74
283.335
260.296
238.823
219.062
201.108
185.002
170.736
158.258
147.482
138.293
130.555
124.12
118.835
114.55
111.117
108.401
106.279
104.642
103.394
102.454
101.755
101.241
100.868
100.6
100.41
100.278
100.186
100.123
100.08
100.052
100.033
100.021
100.013
100.008
100.005
100.003
100.002
100.001
100.001
100
100
100
100
100
100
100
100
100
100
100
100
100
100
100
100
100
100
100
100
100
100
100
100
100
100
100
100
100
100
100
100
386.484
359.626
333.277
307.759
283.358
260.322
238.851
219.091
201.137
185.03
170.762
158.282
147.504
138.313
130.572
124.134
118.848
114.56
111.125
108.408
106.284
104.646
103.397
102.456
101.756
101.242
100.868
100.601
100.411
100.278
100.186
100.123
100.08
100.052
100.033
100.021
100.013
100.008
100.005
100.003
100.002
100.001
100.001
100
100
100
100
100
100
100
100
100
100
100
100
100
100
100
100
100
100
100
100
100
100
100
100
100
100
100
100
100
100
100
100
386.486
359.631
333.287
307.772
283.374
260.34
238.87
219.111
201.157
185.049
170.78
158.299
147.519
138.326
130.583
124.144
118.856
114.566
111.13
108.412
106.288
104.649
103.399
102.457
101.757
101.243
100.869
100.601
100.411
100.278
100.186
100.123
100.08
100.052
100.033
100.021
100.013
100.008
100.005
100.003
100.002
100.001
100.001
100
100
100
100
100
100
100
100
100
100
100
100
100
100
100
100
100
100
100
100
100
100
100
100
100
100
100
100
100
100
100
100
386.488
359.635
333.294
307.78
283.384
260.351
238.882
219.124
201.17
185.062
170.792
158.31
147.53
138.335
130.591
124.151
118.861
114.571
111.134
108.415
106.29
104.65
103.4
102.459
101.758
101.243
100.87
100.601
100.411
100.278
100.186
100.123
100.081
100.052
100.033
100.021
100.013
100.008
100.005
100.003
100.002
100.001
100.001
100
100
100
100
100
100
100
100
100
100
100
100
100
100
100
100
100
100
100
100
100
100
100
100
100
100
100
100
100
100
100
100
386.489
359.638
333.298
307.786
283.391
260.359
238.891
219.132
201.179
185.07
170.8
158.318
147.536
138.341
130.597
124.155
118.865
114.574
111.137
108.417
106.292
104.652
103.401
102.459
101.759
101.244
100.87
100.602
100.411
100.278
100.186
100.123
100.081
100.052
100.033
100.021
100.013
100.008
100.005
100.003
100.002
100.001
100.001
100
100
100
100
100
100
100
100
100
100
100
100
100
100
100
100
100
100
100
100
100
100
100
100
100
100
100
100
100
100
100
100
386.489
359.64
333.301
307.79
283.395
260.364
238.896
219.138
201.184
185.076
170.805
158.323
147.541
138.345
130.6
124.158
118.868
114.576
111.138
108.419
106.293
104.652
103.402
102.46
101.759
101.244
100.87
100.602
100.412
100.278
100.186
100.123
100.081
100.052
100.033
100.021
100.013
100.008
100.005
100.003
100.002
100.001
100.001
100
100
100
100
100
100
100
100
100
100
100
100
100
100
100
100
100
100
100
100
100
100
100
100
100
100
100
100
100
100
100
100
386.49
359.641
333.302
307.792
283.398
260.368
238.9
219.142
201.188
185.079
170.809
158.326
147.544
138.348
130.602
124.16
118.869
114.578
111.14
108.419
106.294
104.653
103.402
102.46
101.759
101.244
100.87
100.602
100.412
100.278
100.186
100.123
100.081
100.052
100.033
100.021
100.013
100.008
100.005
100.003
100.002
100.001
100.001
100
100
100
100
100
100
100
100
100
100
100
100
100
100
100
100
100
100
100
100
100
100
100
100
100
100
100
100
100
100
100
100
386.49
359.642
333.304
307.794
283.4
260.37
238.902
219.144
201.19
185.082
170.811
158.328
147.546
138.349
130.604
124.162
118.871
114.579
111.14
108.42
106.294
104.653
103.402
102.46
101.759
101.244
100.87
100.602
100.412
100.278
100.186
100.123
100.081
100.052
100.033
100.021
100.013
100.008
100.005
100.003
100.002
100.001
100.001
100
100
100
100
100
100
100
100
100
100
100
100
100
100
100
100
100
100
100
100
100
100
100
100
100
100
100
100
100
100
100
100
386.49
359.642
333.304
307.795
283.401
260.371
238.903
219.146
201.192
185.083
170.813
158.329
147.547
138.35
130.605
124.163
118.871
114.579
111.141
108.42
106.295
104.654
103.403
102.46
101.759
101.244
100.87
100.602
100.412
100.278
100.186
100.123
100.081
100.052
100.033
100.021
100.013
100.008
100.005
100.003
100.002
100.001
100.001
100
100
100
100
100
100
100
100
100
100
100
100
100
100
100
100
100
100
100
100
100
100
100
100
100
100
100
100
100
100
100
100
386.49
359.642
333.305
307.795
283.402
260.372
238.904
219.147
201.193
185.084
170.814
158.33
147.548
138.351
130.605
124.163
118.872
114.58
111.141
108.421
106.295
104.654
103.403
102.461
101.76
101.244
100.87
100.602
100.412
100.278
100.186
100.123
100.081
100.052
100.033
100.021
100.013
100.008
100.005
100.003
100.002
100.001
100.001
100
100
100
100
100
100
100
100
100
100
100
100
100
100
100
100
100
100
100
100
100
100
100
100
100
100
100
100
100
100
100
100
386.49
359.643
333.305
307.796
283.403
260.373
238.905
219.147
201.194
185.085
170.814
158.331
147.548
138.352
130.606
124.163
118.872
114.58
111.141
108.421
106.295
104.654
103.403
102.461
101.76
101.244
100.87
100.602
100.412
100.278
100.186
100.123
100.081
100.052
100.033
100.021
100.013
100.008
100.005
100.003
100.002
100.001
100.001
100
100
100
100
100
100
100
100
100
100
100
100
100
100
100
100
100
100
100
100
100
100
100
100
100
100
100
100
100
100
100
100
386.49
359.643
333.305
307.796
283.403
260.373
238.905
219.148
201.194
185.085
170.814
158.331
147.548
138.352
130.606
124.164
118.872
114.58
111.141
108.421
106.295
104.654
103.403
102.461
101.76
101.244
100.87
100.602
100.412
100.278
100.186
100.123
100.081
100.052
100.033
100.021
100.013
100.008
100.005
100.003
100.002
100.001
100.001
100
100
100
100
100
100
100
100
100
100
100
100
100
100
100
100
100
100
100
100
100
100
100
100
100
100
100
100
100
100
100
100
386.49
359.643
333.305
307.796
283.403
260.373
238.906
219.148
201.194
185.085
170.815
158.331
147.549
138.352
130.606
124.164
118.872
114.58
111.142
108.421
106.295
104.654
103.403
102.461
101.76
101.244
100.87
100.602
100.412
100.278
100.186
100.123
100.081
100.052
100.033
100.021
100.013
100.008
100.005
100.003
100.002
100.001
100.001
100
100
100
100
100
100
100
100
100
100
100
100
100
100
100
100
100
100
100
100
100
100
100
100
100
100
100
100
100
100
100
100
386.49
359.643
333.305
307.796
283.403
260.373
238.906
219.148
201.194
185.086
170.815
158.331
147.549
138.352
130.606
124.164
118.872
114.58
111.142
108.421
106.295
104.654
103.403
102.461
101.76
101.244
100.87
100.602
100.412
100.278
100.186
100.123
100.081
100.052
100.033
100.021
100.013
100.008
100.005
100.003
100.002
100.001
100.001
100
100
100
100
100
100
100
100
100
100
100
100
100
100
100
100
100
100
100
100
100
100
100
100
100
100
100
100
100
100
100
100
386.49
359.643
333.305
307.796
283.403
260.373
238.906
219.148
201.194
185.086
170.815
158.331
147.549
138.352
130.606
124.164
118.872
114.58
111.142
108.421
106.295
104.654
103.403
102.461
101.76
101.244
100.87
100.602
100.412
100.279
100.186
100.123
100.081
100.052
100.033
100.021
100.013
100.008
100.005
100.003
100.002
100.001
100.001
100
100
100
100
100
100
100
100
100
100
100
100
100
100
100
100
100
100
100
100
100
100
100
100
100
100
100
100
100
100
100
100
386.49
359.643
333.305
307.796
283.403
260.373
238.906
219.148
201.194
185.086
170.815
158.331
147.549
138.352
130.606
124.164
118.872
114.58
111.142
108.421
106.295
104.654
103.403
102.461
101.76
101.244
100.87
100.602
100.412
100.279
100.186
100.123
100.081
100.052
100.033
100.021
100.013
100.008
100.005
100.003
100.002
100.001
100.001
100
100
100
100
100
100
100
100
100
100
100
100
100
100
100
100
100
100
100
100
100
100
100
100
100
100
100
100
100
100
100
100
386.49
359.643
333.305
307.796
283.403
260.373
238.906
219.148
201.194
185.086
170.815
158.332
147.549
138.352
130.606
124.164
118.872
114.58
111.142
108.421
106.295
104.654
103.403
102.461
101.76
101.244
100.87
100.602
100.412
100.279
100.186
100.123
100.081
100.052
100.033
100.021
100.013
100.008
100.005
100.003
100.002
100.001
100.001
100
100
100
100
100
100
100
100
100
100
100
100
100
100
100
100
100
100
100
100
100
100
100
100
100
100
100
100
100
100
100
100
386.49
359.643
333.305
307.796
283.403
260.373
238.906
219.148
201.194
185.086
170.815
158.332
147.549
138.352
130.606
124.164
118.872
114.58
111.142
108.421
106.295
104.654
103.403
102.461
101.76
101.244
100.87
100.602
100.412
100.279
100.186
100.123
100.081
100.052
100.033
100.021
100.013
100.008
100.005
100.003
100.002
100.001
100.001
100
100
100
100
100
100
100
100
100
100
100
100
100
100
100
100
100
100
100
100
100
100
100
100
100
100
100
100
100
100
100
100
386.49
359.643
333.305
307.796
283.403
260.373
238.906
219.148
201.194
185.086
170.815
158.332
147.549
138.352
130.606
124.164
118.872
114.58
111.142
108.421
106.295
104.654
103.403
102.461
101.76
101.244
100.87
100.602
100.412
100.279
100.186
100.123
100.081
100.052
100.033
100.021
100.013
100.008
100.005
100.003
100.002
100.001
100.001
100
100
100
100
100
100
100
100
100
100
100
100
100
100
100
100
100
100
100
100
100
100
100
100
100
100
100
100
100
100
100
100
386.49
359.643
333.305
307.796
283.403
260.373
238.906
219.148
201.194
185.086
170.815
158.332
147.549
138.352
130.606
124.164
118.872
114.58
111.142
108.421
106.295
104.654
103.403
102.461
101.76
101.244
100.87
100.602
100.412
100.279
100.186
100.123
100.081
100.052
100.033
100.021
100.013
100.008
100.005
100.003
100.002
100.001
100.001
100
100
100
100
100
100
100
100
100
100
100
100
100
100
100
100
100
100
100
100
100
100
100
100
100
100
100
100
100
100
100
100
386.49
359.643
333.305
307.796
283.403
260.373
238.906
219.148
201.194
185.086
170.815
158.332
147.549
138.352
130.606
124.164
118.872
114.58
111.142
108.421
106.295
104.654
103.403
102.461
101.76
101.244
100.87
100.602
100.412
100.279
100.186
100.123
100.081
100.052
100.033
100.021
100.013
100.008
100.005
100.003
100.002
100.001
100.001
100
100
100
100
100
100
100
100
100
100
100
100
100
100
100
100
100
100
100
100
100
100
100
100
100
100
100
100
100
100
100
100
386.49
359.643
333.305
307.796
283.403
260.373
238.906
219.148
201.194
185.086
170.815
158.332
147.549
138.352
130.606
124.164
118.872
114.58
111.142
108.421
106.295
104.654
103.403
102.461
101.76
101.244
100.87
100.602
100.412
100.279
100.186
100.123
100.081
100.052
100.033
100.021
100.013
100.008
100.005
100.003
100.002
100.001
100.001
100
100
100
100
100
100
100
100
100
100
100
100
100
100
100
100
100
100
100
100
100
100
100
100
100
100
100
100
100
100
100
100
386.49
359.643
333.305
307.796
283.403
260.373
238.906
219.148
201.194
185.086
170.815
158.332
147.549
138.352
130.606
124.164
118.872
114.58
111.142
108.421
106.295
104.654
103.403
102.461
101.76
101.244
100.87
100.602
100.412
100.279
100.186
100.123
100.081
100.052
100.033
100.021
100.013
100.008
100.005
100.003
100.002
100.001
100.001
100
100
100
100
100
100
100
100
100
100
100
100
100
100
100
100
100
100
100
100
100
100
100
100
100
100
100
100
100
100
100
100
386.49
359.643
333.305
307.796
283.403
260.373
238.906
219.148
201.194
185.086
170.815
158.332
147.549
138.352
130.606
124.164
118.872
114.58
111.142
108.421
106.295
104.654
103.403
102.461
101.76
101.244
100.87
100.602
100.412
100.279
100.186
100.123
100.081
100.052
100.033
100.021
100.013
100.008
100.005
100.003
100.002
100.001
100.001
100
100
100
100
100
100
100
100
100
100
100
100
100
100
100
100
100
100
100
100
100
100
100
100
100
100
100
100
100
100
100
100
386.49
359.643
333.305
307.796
283.403
260.373
238.906
219.148
201.194
185.086
170.815
158.332
147.549
138.352
130.606
124.164
118.872
114.58
111.142
108.421
106.295
104.654
103.403
102.461
101.76
101.244
100.87
100.602
100.412
100.279
100.186
100.123
100.081
100.052
100.033
100.021
100.013
100.008
100.005
100.003
100.002
100.001
100.001
100
100
100
100
100
100
100
100
100
100
100
100
100
100
100
100
100
100
100
100
100
100
100
100
100
100
100
100
100
100
100
100
386.49
359.643
333.305
307.796
283.403
260.373
238.906
219.148
201.194
185.086
170.815
158.332
147.549
138.352
130.606
124.164
118.872
114.58
111.142
108.421
106.295
104.654
103.403
102.461
101.76
101.244
100.87
100.602
100.412
100.279
100.186
100.123
100.081
100.052
100.033
100.021
100.013
100.008
100.005
100.003
100.002
100.001
100.001
100
100
100
100
100
100
100
100
100
100
100
100
100
100
100
100
100
100
100
100
100
100
100
100
100
100
100
100
100
100
100
100
386.49
359.643
333.305
307.796
283.403
260.373
238.906
219.148
201.194
185.086
170.815
158.332
147.549
138.352
130.606
124.164
118.872
114.58
111.142
108.421
106.295
104.654
103.403
102.461
101.76
101.244
100.87
100.602
100.412
100.279
100.186
100.123
100.081
100.052
100.033
100.021
100.013
100.008
100.005
100.003
100.002
100.001
100.001
100
100
100
100
100
100
100
100
100
100
100
100
100
100
100
100
100
100
100
100
100
100
100
100
100
100
100
100
100
100
100
100
386.49
359.643
333.305
307.796
283.403
260.373
238.906
219.148
201.194
185.086
170.815
158.332
147.549
138.352
130.606
124.164
118.872
114.58
111.142
108.421
106.295
104.654
103.403
102.461
101.76
101.244
100.87
100.602
100.412
100.279
100.186
100.123
100.081
100.052
100.033
100.021
100.013
100.008
100.005
100.003
100.002
100.001
100.001
100
100
100
100
100
100
100
100
100
100
100
100
100
100
100
100
100
100
100
100
100
100
100
100
100
100
100
100
100
100
100
100
386.49
359.643
333.305
307.796
283.403
260.373
238.906
219.148
201.194
185.086
170.815
158.332
147.549
138.352
130.606
124.164
118.872
114.58
111.142
108.421
106.295
104.654
103.403
102.461
101.76
101.244
100.87
100.602
100.412
100.279
100.186
100.123
100.081
100.052
100.033
100.021
100.013
100.008
100.005
100.003
100.002
100.001
100.001
100
100
100
100
100
100
100
100
100
100
100
100
100
100
100
100
100
100
100
100
100
100
100
100
100
100
100
100
100
100
100
100
386.49
359.643
333.305
307.796
283.403
260.373
238.906
219.148
201.194
185.086
170.815
158.332
147.549
138.352
130.606
124.164
118.872
114.58
111.142
108.421
106.295
104.654
103.403
102.461
101.76
101.244
100.87
100.602
100.412
100.279
100.186
100.123
100.081
100.052
100.033
100.021
100.013
100.008
100.005
100.003
100.002
100.001
100.001
100
100
100
100
100
100
100
100
100
100
100
100
100
100
100
100
100
100
100
100
100
100
100
100
100
100
100
100
100
100
100
100
386.49
359.643
333.305
307.796
283.403
260.373
238.906
219.148
201.194
185.086
170.815
158.332
147.549
138.352
130.606
124.164
118.872
114.58
111.142
108.421
106.295
104.654
103.403
102.461
101.76
101.244
100.87
100.602
100.412
100.279
100.186
100.123
100.081
100.052
100.033
100.021
100.013
100.008
100.005
100.003
100.002
100.001
100.001
100
100
100
100
100
100
100
100
100
100
100
100
100
100
100
100
100
100
100
100
100
100
100
100
100
100
100
100
100
100
100
100
386.49
359.643
333.305
307.796
283.403
260.373
238.906
219.148
201.194
185.086
170.815
158.332
147.549
138.352
130.606
124.164
118.872
114.58
111.142
108.421
106.295
104.654
103.403
102.461
101.76
101.244
100.87
100.602
100.412
100.279
100.186
100.123
100.081
100.052
100.033
100.021
100.013
100.008
100.005
100.003
100.002
100.001
100.001
100
100
100
100
100
100
100
100
100
100
100
100
100
100
100
100
100
100
100
100
100
100
100
100
100
100
100
100
100
100
100
100
386.49
359.643
333.305
307.796
283.403
260.373
238.906
219.148
201.194
185.086
170.815
158.332
147.549
138.352
130.606
124.164
118.872
114.58
111.142
108.421
106.295
104.654
103.403
102.461
101.76
101.244
100.87
100.602
100.412
100.279
100.186
100.123
100.081
100.052
100.033
100.021
100.013
100.008
100.005
100.003
100.002
100.001
100.001
100
100
100
100
100
100
100
100
100
100
100
100
100
100
100
100
100
100
100
100
100
100
100
100
100
100
100
100
100
100
100
100
386.49
359.643
333.305
307.796
283.403
260.373
238.906
219.148
201.194
185.086
170.815
158.332
147.549
138.352
130.606
124.164
118.872
114.58
111.142
108.421
106.295
104.654
103.403
102.461
101.76
101.244
100.87
100.602
100.412
100.279
100.186
100.123
100.081
100.052
100.033
100.021
100.013
100.008
100.005
100.003
100.002
100.001
100.001
100
100
100
100
100
100
100
100
100
100
100
100
100
100
100
100
100
100
100
100
100
100
100
100
100
100
100
100
100
100
100
100
386.49
359.643
333.305
307.796
283.403
260.373
238.906
219.148
201.194
185.086
170.815
158.332
147.549
138.352
130.606
124.164
118.872
114.58
111.142
108.421
106.295
104.654
103.403
102.461
101.76
101.244
100.87
100.602
100.412
100.279
100.186
100.123
100.081
100.052
100.033
100.021
100.013
100.008
100.005
100.003
100.002
100.001
100.001
100
100
100
100
100
100
100
100
100
100
100
100
100
100
100
100
100
100
100
100
100
100
100
100
100
100
100
100
100
100
100
100
386.49
359.643
333.305
307.796
283.403
260.373
238.906
219.148
201.194
185.086
170.815
158.332
147.549
138.352
130.606
124.164
118.872
114.58
111.142
108.421
106.295
104.654
103.403
102.461
101.76
101.244
100.87
100.602
100.412
100.279
100.186
100.123
100.081
100.052
100.033
100.021
100.013
100.008
100.005
100.003
100.002
100.001
100.001
100
100
100
100
100
100
100
100
100
100
100
100
100
100
100
100
100
100
100
100
100
100
100
100
100
100
100
100
100
100
100
100
386.49
359.643
333.305
307.796
283.403
260.373
238.906
219.148
201.194
185.086
170.815
158.332
147.549
138.352
130.606
124.164
118.872
114.58
111.142
108.421
106.295
104.654
103.403
102.461
101.76
101.244
100.87
100.602
100.412
100.279
100.186
100.123
100.081
100.052
100.033
100.021
100.013
100.008
100.005
100.003
100.002
100.001
100.001
100
100
100
100
100
100
100
100
100
100
100
100
100
100
100
100
100
100
100
100
100
100
100
100
100
100
100
100
100
100
100
100
386.49
359.643
333.305
307.796
283.403
260.373
238.906
219.148
201.194
185.086
170.815
158.332
147.549
138.352
130.606
124.164
118.872
114.58
111.142
108.421
106.295
104.654
103.403
102.461
101.76
101.244
100.87
100.602
100.412
100.279
100.186
100.123
100.081
100.052
100.033
100.021
100.013
100.008
100.005
100.003
100.002
100.001
100.001
100
100
100
100
100
100
100
100
100
100
100
100
100
100
100
100
100
100
100
100
100
100
100
100
100
100
100
100
100
100
100
100
386.49
359.643
333.305
307.796
283.403
260.373
238.906
219.148
201.194
185.086
170.815
158.332
147.549
138.352
130.606
124.164
118.872
114.58
111.142
108.421
106.295
104.654
103.403
102.461
101.76
101.244
100.87
100.602
100.412
100.279
100.186
100.123
100.081
100.052
100.033
100.021
100.013
100.008
100.005
100.003
100.002
100.001
100.001
100
100
100
100
100
100
100
100
100
100
100
100
100
100
100
100
100
100
100
100
100
100
100
100