/*--------------------------------*- C++ -*----------------------------------*\
  =========                 |
  \\      /  F ield         | OpenFOAM: The Open Source CFD Toolbox
   \\    /   O peration     | Website:  https://openfoam.org
    \\  /    A nd           | Version:  10
     \\/     M anipulation  |
\*---------------------------------------------------------------------------*/
FoamFile
{
    format      ascii;
    class       volScalarField;
    location    "1050";
    object      gradTz;
}
// * * * * * * * * * * * * * * * * * * * * * * * * * * * * * * * * * * * * * //

dimensions      [0 -1 0 1 0 0 0];

internalField   nonuniform List<scalar> 
11250
(
-14331.5
-4127.28
-1507.53
-704.764
-401.071
-260.658
-184.643
-138.608
-108.45
-87.5308
-72.3732
-61.003
-52.2276
-45.2904
-39.6926
-35.0941
-31.2566
-28.0095
-25.2278
-22.8184
-20.7111
-18.8518
-17.1988
-15.7191
-14.3867
-13.1808
-12.0845
-11.084
-10.1682
-9.32753
-8.55432
-7.84194
-7.18478
-6.57802
-6.01748
-5.49952
-5.0209
-4.57875
-4.17048
-3.79374
-3.44637
-3.1264
-2.832
-2.56145
-2.31315
-2.0856
-1.87738
-1.68715
-1.51365
-1.35568
-1.21211
-1.08186
-0.963931
-0.857364
-0.761261
-0.674779
-0.597125
-0.527561
-0.465395
-0.409985
-0.360738
-0.317105
-0.278581
-0.244708
-0.215064
-0.189273
-0.166996
-0.14793
-0.131813
-0.118414
-0.107541
-0.0990321
-0.0927611
-0.0886329
-0.0865843
-8198.78
-4797.3
-2705.6
-1615.18
-1039.9
-717.549
-523.919
-399.922
-316.087
-256.807
-213.31
-180.394
-154.826
-134.516
-118.064
-104.509
-93.1694
-83.555
-75.3049
-68.1491
-61.883
-56.3489
-51.4244
-47.0131
-43.0384
-39.4389
-36.165
-33.1762
-30.439
-27.9259
-25.6138
-23.483
-21.5169
-19.7013
-18.0237
-16.4733
-15.0405
-13.7167
-12.4942
-11.366
-10.3257
-9.36735
-8.48553
-7.6751
-6.9313
-6.2496
-5.6258
-5.05586
-4.53603
-4.0627
-3.6325
-3.24222
-2.88884
-2.5695
-2.28151
-2.02235
-1.78964
-1.58116
-1.39486
-1.2288
-1.08121
-0.950438
-0.834982
-0.733459
-0.644614
-0.567315
-0.500545
-0.443402
-0.395094
-0.354936
-0.322345
-0.296843
-0.278048
-0.265674
-0.259534
-5467.42
-4157.45
-2902.28
-2010.38
-1425.71
-1045.63
-793.479
-620.994
-499.093
-410.229
-343.601
-292.377
-252.113
-219.833
-193.497
-171.671
-153.326
-137.712
-124.269
-112.578
-102.316
-93.2351
-85.1408
-77.8795
-71.3286
-65.3896
-59.9827
-55.0425
-50.5151
-46.3557
-42.5266
-38.9963
-35.7374
-32.7268
-29.9442
-27.3718
-24.9938
-22.7962
-20.7664
-18.8928
-17.1649
-15.5729
-14.1078
-12.7611
-11.5251
-10.3921
-9.35522
-8.40783
-7.54364
-6.75673
-6.04146
-5.39254
-4.80493
-4.2739
-3.79498
-3.36398
-2.97696
-2.63023
-2.32036
-2.04416
-1.79867
-1.58115
-1.3891
-1.22022
-1.07243
-0.943845
-0.832772
-0.737711
-0.657347
-0.59054
-0.536323
-0.493897
-0.462628
-0.442043
-0.431828
-4045.87
-3462.65
-2735.52
-2098.2
-1606.78
-1245.63
-983.234
-791.349
-648.936
-541.298
-458.377
-393.301
-341.324
-299.126
-264.35
-235.291
-210.703
-189.656
-171.452
-155.556
-141.557
-129.133
-118.031
-108.051
-99.0298
-90.8387
-83.3709
-76.5394
-70.272
-64.5087
-59.1988
-54.2996
-49.7744
-45.5915
-41.7235
-38.1461
-34.8378
-31.7794
-28.9536
-26.3446
-23.9379
-21.7199
-19.6784
-17.8015
-16.0785
-14.499
-13.0532
-11.7321
-10.5268
-9.42925
-8.4315
-7.52621
-6.7064
-5.96547
-5.29721
-4.69576
-4.15566
-3.67177
-3.2393
-2.85379
-2.51114
-2.20752
-1.93943
-1.70369
-1.49738
-1.31787
-1.16281
-1.03009
-0.917896
-0.824623
-0.748928
-0.689694
-0.646036
-0.617296
-0.603035
-3207.31
-2911.54
-2478.71
-2039.92
-1657.37
-1346.69
-1102.28
-912.046
-763.831
-647.483
-555.158
-480.986
-420.628
-370.885
-329.384
-294.356
-264.466
-238.701
-216.283
-196.608
-179.206
-163.705
-149.81
-137.283
-125.934
-115.607
-106.175
-97.5324
-89.593
-82.2832
-75.5414
-69.3151
-63.5594
-58.2352
-53.3085
-48.7494
-44.5312
-40.6298
-37.0237
-33.6929
-30.6193
-27.7861
-25.1775
-22.7788
-20.5762
-18.5566
-16.7078
-15.018
-13.4762
-12.072
-10.7953
-9.63683
-8.58762
-7.63926
-6.78385
-6.0139
-5.32243
-4.70288
-4.14912
-3.65548
-3.21668
-2.82785
-2.48452
-2.18259
-1.91834
-1.68842
-1.48979
-1.3198
-1.17608
-1.05659
-0.959627
-0.883745
-0.827818
-0.791
-0.77273
-2664.22
-2497.21
-2227.59
-1925.13
-1635.83
-1381.21
-1166.89
-990.49
-846.632
-729.435
-633.59
-554.676
-489.156
-434.256
-387.82
-348.173
-314.013
-284.326
-258.315
-235.351
-214.935
-196.669
-180.232
-165.365
-151.856
-139.534
-128.255
-117.9
-108.372
-99.5858
-91.4722
-83.9705
-77.0286
-70.6015
-64.6496
-59.1379
-54.035
-49.3129
-44.9459
-40.9106
-37.1854
-33.7502
-30.5864
-27.6762
-25.0033
-22.5519
-20.3073
-18.2553
-16.3828
-14.677
-13.1259
-11.7182
-10.4431
-9.2905
-8.2507
-7.31471
-6.47403
-5.72073
-5.04738
-4.44708
-3.91343
-3.44053
-3.02293
-2.65567
-2.33424
-2.05454
-1.81291
-1.6061
-1.43125
-1.28588
-1.1679
-1.07558
-1.00753
-0.962732
-0.940503
-2287.8
-2185.15
-2008.96
-1796.83
-1579.27
-1375.12
-1193.27
-1036.1
-902.497
-789.779
-694.853
-614.753
-546.865
-488.987
-439.311
-396.369
-358.977
-326.187
-297.233
-271.499
-248.489
-227.799
-209.099
-192.121
-176.644
-162.484
-149.491
-137.536
-126.514
-116.333
-106.918
-98.2003
-90.1242
-82.6391
-75.7011
-69.2708
-63.3132
-57.7965
-52.6918
-47.9723
-43.6134
-39.5922
-35.8872
-32.4781
-29.3459
-26.4725
-23.8408
-21.4344
-19.2379
-17.2366
-15.4165
-13.7644
-12.2678
-10.9146
-9.69376
-8.59467
-7.60739
-6.72263
-5.9317
-5.22652
-4.59958
-4.04397
-3.5533
-3.12176
-2.74403
-2.41533
-2.13136
-1.88829
-1.68278
-1.51192
-1.37325
-1.26473
-1.18474
-1.13209
-1.10596
-2013.63
-1946.22
-1825.87
-1673.56
-1508.92
-1346.37
-1194.61
-1057.82
-937.152
-832.027
-741.011
-662.361
-594.33
-535.309
-483.886
-438.857
-399.21
-364.107
-332.852
-304.872
-279.695
-256.932
-236.261
-217.415
-200.172
-184.346
-169.783
-156.351
-143.94
-132.454
-121.813
-111.947
-102.795
-94.3021
-86.4219
-79.1116
-72.3331
-66.0516
-60.2353
-54.8547
-49.8827
-45.2936
-41.0635
-37.1697
-33.5909
-30.3068
-27.2979
-24.546
-22.0335
-19.7438
-17.6609
-15.77
-14.0566
-12.5073
-11.1092
-9.85045
-8.71958
-7.70602
-6.79986
-5.99185
-5.27343
-4.63669
-4.07433
-3.5797
-3.14673
-2.76993
-2.44438
-2.16572
-1.9301
-1.7342
-1.5752
-1.45077
-1.35905
-1.29867
-1.26871
-1806.39
-1759.76
-1674.29
-1562.17
-1436.05
-1306.39
-1180.57
-1063.02
-955.893
-859.82
-774.479
-699.056
-632.518
-573.794
-521.858
-475.782
-434.751
-398.059
-365.104
-335.379
-308.454
-283.968
-261.619
-241.151
-222.35
-205.035
-189.053
-174.273
-160.583
-147.888
-136.105
-125.162
-114.996
-105.55
-96.776
-88.6279
-81.0656
-74.052
-67.553
-61.537
-55.9745
-50.8376
-46.1003
-41.7377
-37.7265
-34.0441
-30.6694
-27.5819
-24.7622
-22.1919
-19.8533
-17.7296
-15.8051
-14.0645
-12.4936
-11.0789
-9.80787
-8.66851
-7.64975
-6.74124
-5.93338
-5.21729
-4.5848
-4.02844
-3.54139
-3.11751
-2.75126
-2.43774
-2.17263
-1.95221
-1.7733
-1.63328
-1.53007
-1.46212
-1.42841
-1645.24
-1611.61
-1548.82
-1464.27
-1366.2
-1262.1
-1157.8
-1057.34
-963.167
-876.488
-797.668
-726.531
-662.593
-605.22
-553.732
-507.461
-465.783
-428.137
-394.026
-363.017
-334.736
-308.86
-285.117
-263.27
-243.119
-224.493
-207.244
-191.248
-176.394
-162.589
-149.75
-137.805
-126.691
-116.351
-106.733
-97.7921
-89.4856
-81.775
-74.6245
-68.0007
-61.8721
-56.2093
-50.9842
-46.1701
-41.7418
-37.675
-33.9465
-30.5343
-27.4171
-24.5748
-21.9881
-19.6387
-17.509
-15.5825
-13.8435
-12.2773
-10.8697
-9.60788
-8.47943
-7.47298
-6.57792
-5.78446
-5.08357
-4.46698
-3.92716
-3.45732
-3.05133
-2.70377
-2.40986
-2.16548
-1.96712
-1.81187
-1.69743
-1.62209
-1.58471
-1517.14
-1492.04
-1444.54
-1379.31
-1301.85
-1217.47
-1130.68
-1044.9
-962.481
-884.862
-812.77
-746.437
-685.766
-630.463
-580.128
-534.321
-492.597
-454.531
-419.734
-387.851
-358.569
-331.614
-306.743
-283.748
-262.448
-242.684
-224.321
-207.239
-191.336
-176.521
-162.714
-149.845
-137.851
-126.676
-116.268
-106.581
-97.5721
-89.2014
-81.4322
-74.2298
-67.5612
-61.3956
-55.7034
-50.4563
-45.6274
-41.1908
-37.1217
-33.3965
-29.9922
-26.8873
-24.0608
-21.4929
-19.1646
-17.058
-15.1561
-13.4428
-11.9029
-10.5221
-9.28712
-8.18551
-7.20571
-6.33702
-5.56959
-4.89441
-4.30324
-3.78865
-3.34397
-2.96326
-2.64131
-2.37359
-2.15627
-1.98619
-1.86081
-1.77826
-1.7373
-1413.5
-1394.21
-1357.35
-1305.97
-1243.8
-1174.66
-1101.97
-1028.55
-956.49
-887.232
-821.672
-760.276
-703.204
-650.408
-601.709
-556.851
-515.545
-477.492
-442.402
-409.999
-380.032
-352.274
-326.521
-302.594
-280.333
-259.598
-240.265
-222.227
-205.388
-189.662
-174.976
-161.26
-148.455
-136.506
-125.362
-114.977
-105.308
-96.3157
-87.9618
-80.2111
-73.0298
-66.3857
-60.248
-54.5873
-49.3751
-44.5842
-40.1884
-36.1625
-32.4822
-29.1245
-26.0669
-23.2884
-20.7685
-18.4881
-16.4288
-14.5733
-12.9052
-11.4094
-10.0712
-8.87744
-7.8155
-6.87388
-6.04193
-5.30989
-4.66889
-4.11088
-3.62863
-3.21573
-2.86653
-2.57614
-2.34041
-2.1559
-2.01989
-1.93034
-1.8859
-1328.44
-1313.25
-1284
-1242.73
-1192.07
-1134.75
-1073.4
-1010.26
-947.141
-885.388
-825.929
-769.349
-715.966
-665.901
-619.135
-575.561
-535.017
-497.313
-462.247
-429.618
-399.236
-370.919
-344.504
-319.84
-296.793
-275.242
-255.079
-236.207
-218.54
-202.002
-186.521
-172.036
-158.488
-145.826
-134
-122.966
-112.681
-103.106
-94.202
-85.9343
-78.2681
-71.1705
-64.6098
-58.5555
-52.978
-47.849
-43.1408
-38.8272
-34.8825
-31.2822
-28.0029
-25.0219
-22.3178
-19.87
-17.6591
-15.6665
-13.875
-12.268
-10.8303
-9.54751
-8.40621
-7.39409
-6.49973
-5.7127
-5.02347
-4.42342
-3.9048
-3.46072
-3.08513
-2.77277
-2.5192
-2.32072
-2.1744
-2.07806
-2.03026
-1257.82
-1245.59
-1221.9
-1188.18
-1146.27
-1098.19
-1045.94
-991.314
-935.831
-880.69
-826.787
-774.749
-724.981
-677.709
-633.031
-590.951
-551.408
-514.302
-479.508
-446.894
-416.32
-387.654
-360.767
-335.541
-311.867
-289.642
-268.777
-249.187
-230.796
-213.537
-197.346
-182.166
-167.943
-154.628
-142.175
-130.54
-119.682
-109.563
-100.145
-91.3914
-83.2687
-75.7431
-68.7824
-62.355
-56.4308
-50.9801
-45.9745
-41.3865
-37.1893
-33.3572
-29.8656
-26.6907
-23.81
-21.2016
-18.8451
-16.7209
-14.8106
-13.0968
-11.5632
-10.1947
-8.97689
-7.8968
-6.94227
-6.10219
-5.36642
-4.72579
-4.17204
-3.69785
-3.29676
-2.96318
-2.69236
-2.48037
-2.32409
-2.22119
-2.17013
-1198.62
-1188.58
-1169.05
-1141.03
-1105.87
-1065.06
-1020.15
-972.554
-923.541
-874.155
-825.225
-777.372
-731.036
-686.511
-643.969
-603.494
-565.104
-528.771
-494.436
-462.022
-431.439
-402.598
-375.404
-349.769
-325.607
-302.838
-281.387
-261.186
-242.169
-224.278
-207.456
-191.652
-176.819
-162.909
-149.881
-137.693
-126.306
-115.682
-105.784
-96.5771
-88.0264
-80.0986
-72.7609
-65.9814
-59.7291
-53.9737
-48.6859
-43.837
-39.3995
-35.3466
-31.6526
-28.2926
-25.243
-22.481
-19.9852
-17.7349
-15.7107
-13.8945
-12.2689
-10.818
-9.52673
-8.38132
-7.36892
-6.4778
-5.69725
-5.01755
-4.42998
-3.92679
-3.50113
-3.1471
-2.85965
-2.63464
-2.46876
-2.35953
-2.30533
-1148.58
-1140.2
-1123.83
-1100.2
-1070.3
-1035.27
-996.282
-954.494
-910.943
-866.529
-821.996
-777.934
-734.791
-692.891
-652.455
-613.622
-576.468
-541.022
-507.277
-475.204
-444.758
-415.882
-388.519
-362.604
-338.078
-314.879
-292.95
-272.234
-252.681
-234.238
-216.86
-200.502
-185.12
-170.673
-157.121
-144.427
-132.552
-121.461
-111.118
-101.489
-92.5383
-84.2338
-76.5423
-69.4316
-62.8701
-56.8271
-51.2723
-46.1765
-41.5111
-37.2484
-33.3619
-29.8258
-26.6153
-23.7069
-21.0781
-18.7073
-16.5744
-14.6601
-12.9465
-11.4167
-10.0551
-8.84706
-7.77917
-6.83909
-6.01555
-5.29834
-4.6783
-4.14724
-3.69798
-3.32429
-3.02086
-2.78334
-2.60822
-2.49291
-2.43568
-1106.02
-1098.91
-1084.97
-1064.76
-1039
-1008.58
-974.423
-937.438
-898.49
-858.347
-817.671
-777.004
-736.783
-697.343
-658.93
-621.722
-585.835
-551.339
-518.272
-486.642
-456.44
-427.644
-400.222
-374.139
-349.353
-325.824
-303.51
-282.369
-262.359
-243.442
-225.578
-208.728
-192.856
-177.924
-163.898
-150.742
-138.421
-126.901
-116.147
-106.125
-96.8033
-88.1476
-80.1253
-72.7041
-65.8523
-59.5386
-53.7322
-48.4032
-43.5224
-39.0612
-34.9923
-31.289
-27.9258
-24.8782
-22.1228
-19.6374
-17.4007
-15.393
-13.5954
-11.9903
-10.5614
-9.29356
-8.17261
-7.18569
-6.32101
-5.56789
-4.91674
-4.35898
-3.8871
-3.49457
-3.17583
-2.9263
-2.74232
-2.62118
-2.56105
-1069.59
-1063.47
-1051.45
-1033.92
-1011.47
-984.77
-954.546
-921.543
-886.473
-849.991
-812.676
-775.025
-737.448
-700.278
-663.773
-628.133
-593.503
-559.983
-527.644
-496.525
-466.648
-438.018
-410.629
-384.467
-359.511
-335.738
-313.121
-291.632
-271.24
-251.916
-233.629
-216.348
-200.041
-184.676
-170.222
-156.647
-143.918
-132.004
-120.872
-110.489
-100.822
-91.8402
-83.5097
-75.7987
-68.6752
-62.1076
-56.0649
-50.5165
-45.4326
-40.7842
-36.5429
-32.6816
-29.1738
-25.9942
-23.1188
-20.5244
-18.1893
-16.0926
-14.2151
-12.5384
-11.0454
-9.7205
-8.54895
-7.51733
-6.61338
-5.82598
-5.14511
-4.56185
-4.06835
-3.6578
-3.32441
-3.0634
-2.87096
-2.74423
-2.68134
-1038.28
-1032.94
-1022.42
-1007.05
-987.247
-963.559
-936.567
-906.874
-875.073
-841.722
-807.328
-772.337
-737.132
-702.033
-667.303
-633.15
-599.737
-567.19
-535.601
-505.035
-475.538
-447.138
-419.851
-393.683
-368.631
-344.687
-321.839
-300.07
-279.362
-259.694
-241.042
-223.384
-206.692
-190.941
-176.103
-162.15
-149.051
-136.778
-125.299
-114.583
-104.598
-95.3138
-86.6971
-78.7163
-71.3393
-64.5345
-58.2705
-52.5164
-47.2418
-42.4172
-38.0136
-34.0032
-30.3588
-27.0546
-24.0657
-21.3682
-18.9397
-16.7588
-14.8054
-13.0606
-11.5068
-10.1277
-8.90799
-7.83385
-6.89252
-6.07247
-5.36328
-4.75572
-4.24161
-3.81388
-3.46653
-3.19457
-2.99404
-2.86199
-2.79645
-1011.25
-1006.53
-997.225
-983.57
-965.919
-944.693
-920.366
-893.434
-864.393
-833.719
-801.854
-769.201
-736.109
-702.885
-669.785
-637.023
-604.771
-573.171
-542.331
-512.338
-483.256
-455.132
-428
-401.883
-376.795
-352.741
-329.722
-307.733
-286.766
-266.809
-247.846
-229.859
-212.831
-196.737
-181.556
-167.262
-153.829
-141.229
-129.433
-118.412
-108.135
-98.5715
-89.6901
-81.459
-73.8464
-66.8206
-60.3501
-54.4036
-48.9505
-43.9606
-39.4046
-35.254
-31.4812
-28.0595
-24.9634
-22.1686
-19.6519
-17.3914
-15.3662
-13.557
-11.9456
-10.515
-9.24965
-8.13516
-7.15834
-6.30727
-5.57119
-4.94052
-4.40682
-3.96276
-3.60212
-3.31974
-3.11152
-2.9744
-2.90635
-987.844
-983.625
-975.289
-963.032
-947.132
-927.93
-905.812
-881.19
-854.481
-826.095
-796.419
-765.812
-734.595
-703.056
-671.441
-639.964
-608.804
-578.11
-548.005
-518.587
-489.938
-462.119
-435.181
-409.159
-384.082
-359.969
-336.83
-314.673
-293.497
-273.299
-254.071
-235.802
-218.479
-202.083
-186.597
-171.998
-158.263
-145.367
-133.283
-121.983
-111.438
-101.618
-92.4925
-84.03
-76.199
-68.968
-62.3053
-56.1795
-50.5596
-45.4153
-40.7166
-36.4346
-32.5412
-29.0091
-25.8124
-22.926
-20.3262
-17.9905
-15.8976
-14.0275
-12.3616
-10.8825
-9.57394
-8.42125
-7.41084
-6.53039
-5.76882
-5.11625
-4.56397
-4.10442
-3.73117
-3.4389
-3.22339
-3.08146
-3.01101
-967.508
-963.696
-956.153
-945.038
-930.575
-913.044
-892.765
-870.082
-845.349
-818.92
-791.136
-762.316
-732.755
-702.721
-672.452
-642.154
-612.009
-582.171
-552.771
-523.92
-495.708
-468.212
-441.492
-415.599
-390.571
-366.438
-343.222
-320.939
-299.598
-279.202
-259.751
-241.24
-223.66
-207
-191.243
-176.372
-162.366
-149.203
-136.857
-125.304
-114.514
-104.459
-95.1089
-86.4332
-78.4005
-70.9794
-64.1384
-57.846
-52.071
-46.7826
-41.9508
-37.546
-33.5396
-29.9042
-26.613
-23.6406
-20.9627
-18.5564
-16.3998
-14.4724
-12.7552
-11.2302
-9.88095
-8.69222
-7.65007
-6.74186
-5.9562
-5.28292
-4.71307
-4.23886
-3.85368
-3.55206
-3.32963
-3.18315
-3.11045
-949.802
-946.322
-939.429
-929.252
-915.977
-899.834
-881.091
-860.04
-836.985
-812.231
-786.08
-758.819
-730.717
-702.024
-672.964
-643.74
-614.53
-585.492
-556.762
-528.458
-500.679
-473.512
-447.027
-421.285
-396.334
-372.214
-348.956
-326.583
-305.113
-284.557
-264.92
-246.203
-228.402
-211.509
-195.514
-180.401
-166.152
-152.749
-140.168
-128.384
-117.371
-107.101
-97.5451
-88.6733
-80.4548
-72.8584
-65.8525
-59.4057
-53.4867
-48.0644
-43.1086
-38.5893
-34.4777
-30.7456
-27.3661
-24.3132
-21.5622
-19.0896
-16.8732
-14.892
-13.1265
-11.5585
-10.1709
-8.9482
-7.87616
-6.9418
-6.13343
-5.44062
-4.85419
-4.36615
-3.96971
-3.65925
-3.43031
-3.27952
-3.20468
-934.354
-931.148
-924.79
-915.39
-903.099
-888.115
-870.661
-850.988
-829.359
-806.04
-781.3
-755.397
-728.578
-701.073
-673.098
-644.845
-616.492
-588.195
-560.094
-532.311
-504.953
-478.113
-451.872
-426.295
-401.442
-377.36
-354.087
-331.655
-310.088
-289.403
-269.612
-250.72
-232.728
-215.634
-199.429
-184.101
-169.637
-156.018
-143.224
-131.232
-120.016
-109.551
-99.8072
-90.7559
-82.3668
-74.6089
-67.4509
-60.8615
-54.8092
-49.2629
-44.1919
-39.5662
-35.3566
-31.5345
-28.0726
-24.9446
-22.1252
-19.5907
-17.3183
-15.2867
-13.476
-11.8675
-10.444
-9.18942
-8.08931
-7.13036
-6.30063
-5.58946
-4.98742
-4.48636
-4.07933
-3.76055
-3.52546
-3.37063
-3.29378
-920.853
-917.873
-911.961
-903.205
-891.737
-877.723
-861.354
-842.848
-822.433
-800.346
-776.824
-752.103
-726.409
-699.957
-672.949
-645.572
-617.998
-590.382
-562.866
-535.575
-508.62
-482.101
-456.103
-430.701
-405.96
-381.934
-358.669
-336.202
-314.564
-293.778
-273.86
-254.821
-236.666
-219.397
-203.008
-187.492
-172.836
-159.025
-146.04
-133.859
-122.46
-111.817
-101.902
-92.6869
-84.1415
-76.2354
-68.9376
-62.2167
-56.0414
-50.3804
-45.2029
-40.4786
-36.178
-32.2723
-28.7337
-25.5357
-22.6527
-20.0604
-17.7357
-15.6571
-13.8041
-12.1578
-10.7006
-9.41617
-8.28974
-7.30775
-6.458
-5.72958
-5.11291
-4.59963
-4.18264
-3.85605
-3.61519
-3.45655
-3.3778
-909.038
-906.247
-900.705
-892.489
-881.71
-868.51
-853.059
-835.543
-816.164
-795.134
-772.666
-748.973
-724.265
-698.742
-672.595
-646.003
-619.134
-592.142
-565.166
-538.334
-511.761
-485.551
-459.793
-434.569
-409.949
-385.993
-362.752
-340.27
-318.583
-297.718
-277.697
-258.536
-240.243
-222.822
-206.273
-190.591
-175.765
-161.782
-148.626
-136.277
-124.712
-113.908
-103.837
-94.4726
-85.7845
-77.7428
-70.3168
-63.4751
-57.1866
-51.4198
-46.144
-41.3285
-36.9437
-32.9605
-29.3509
-26.0879
-23.1456
-20.4995
-18.1262
-16.0037
-14.1113
-12.4297
-10.9411
-9.62879
-8.47777
-7.47423
-6.60573
-5.86119
-5.23081
-4.70608
-4.27976
-3.94586
-3.69958
-3.53738
-3.45686
-898.688
-896.055
-890.823
-883.058
-872.859
-860.347
-845.672
-828.998
-810.506
-790.384
-768.826
-746.028
-722.182
-697.478
-672.095
-646.207
-619.973
-593.547
-567.067
-540.661
-514.447
-488.53
-463.006
-437.959
-413.464
-389.587
-366.383
-343.902
-322.183
-301.259
-281.156
-261.893
-243.482
-225.932
-209.244
-193.416
-178.44
-164.305
-150.996
-138.495
-126.782
-115.832
-105.62
-96.1198
-87.3017
-79.1363
-71.5929
-64.6406
-58.2481
-52.3841
-47.0177
-42.1182
-37.6556
-33.6008
-29.9254
-26.6022
-23.6051
-20.9091
-18.4906
-16.3273
-14.3983
-12.6839
-11.1659
-9.82766
-8.65371
-7.63007
-6.74409
-5.98449
-5.34131
-4.80589
-4.37086
-4.03011
-3.77878
-3.61324
-3.53107
-889.612
-887.112
-882.141
-874.757
-865.046
-853.117
-839.101
-823.145
-805.411
-786.07
-765.3
-743.279
-720.189
-696.205
-671.499
-646.237
-620.575
-594.661
-568.633
-542.619
-516.739
-491.099
-465.799
-440.925
-416.557
-392.764
-369.607
-347.138
-325.402
-304.435
-284.267
-264.92
-246.411
-228.749
-211.941
-195.985
-180.877
-166.607
-153.162
-140.526
-128.679
-117.598
-107.259
-97.6355
-88.6993
-80.4211
-72.7707
-65.7173
-59.2296
-53.2765
-47.8269
-42.8501
-38.3159
-34.1951
-30.459
-27.0802
-24.0323
-21.2902
-18.8298
-16.6287
-14.6657
-12.9208
-11.3756
-10.0132
-8.81796
-7.77561
-6.87336
-6.09973
-5.44463
-4.89924
-4.45609
-4.10896
-3.85292
-3.68427
-3.60056
-881.65
-879.261
-874.51
-867.448
-858.15
-846.715
-833.26
-817.917
-800.834
-782.166
-762.076
-740.732
-718.301
-694.951
-670.844
-646.138
-620.987
-595.535
-569.918
-544.265
-518.693
-493.312
-468.223
-443.516
-419.273
-395.568
-372.464
-350.017
-328.275
-307.278
-287.059
-267.644
-249.052
-231.296
-214.384
-198.317
-183.093
-168.703
-155.138
-142.381
-130.414
-119.215
-108.761
-99.0266
-89.9835
-81.6029
-73.8552
-66.7095
-60.1349
-54.1003
-48.5745
-43.5267
-38.9268
-34.7452
-30.9533
-27.5233
-24.4286
-21.6438
-19.1448
-16.9087
-14.9142
-13.1411
-11.5707
-10.1859
-8.9709
-7.9112
-6.99383
-6.20719
-5.541
-4.98635
-4.53565
-4.18259
-3.92216
-3.75062
-3.66547
-874.662
-872.367
-867.802
-861.012
-852.065
-841.05
-828.073
-813.255
-796.73
-778.642
-759.142
-738.385
-716.531
-693.736
-670.157
-645.946
-621.252
-596.215
-570.97
-545.644
-520.355
-495.215
-470.324
-445.777
-421.656
-398.039
-374.991
-352.572
-330.833
-309.817
-289.56
-270.09
-251.429
-233.593
-216.591
-200.428
-185.102
-170.608
-156.935
-144.071
-131.996
-120.692
-110.135
-100.3
-91.1605
-82.6873
-74.8512
-67.6216
-60.9679
-54.8588
-49.2634
-44.1508
-39.4906
-35.2534
-31.4101
-27.933
-24.7952
-21.9712
-19.4365
-17.1682
-15.1446
-13.3455
-11.7518
-10.3463
-9.11298
-8.03721
-7.10585
-6.30713
-5.63067
-5.06744
-4.60973
-4.25117
-3.98667
-3.81244
-3.72596
-868.526
-866.312
-861.904
-855.345
-846.697
-836.04
-823.472
-809.103
-793.057
-775.469
-756.479
-736.234
-714.882
-692.575
-669.462
-645.689
-621.401
-596.736
-571.826
-546.797
-521.768
-496.849
-472.144
-447.747
-423.744
-400.213
-377.224
-354.838
-333.108
-312.082
-291.796
-272.282
-253.564
-235.66
-218.581
-202.335
-186.92
-172.334
-158.567
-145.607
-133.437
-122.038
-111.389
-101.464
-92.2369
-83.6799
-75.7637
-68.4581
-61.7325
-55.5557
-49.8968
-44.7249
-40.0097
-35.7215
-31.8312
-28.3109
-25.1336
-22.2735
-19.7061
-17.4082
-15.3578
-13.5346
-11.9195
-10.4949
-9.24466
-8.15404
-7.20974
-6.39987
-5.71392
-5.14274
-4.67855
-4.3149
-4.04663
-3.86992
-3.7822
-863.139
-860.992
-856.718
-850.356
-841.962
-831.611
-819.392
-805.409
-789.776
-772.62
-754.071
-734.27
-713.357
-691.477
-668.774
-645.389
-621.462
-597.129
-572.52
-547.76
-522.967
-498.251
-473.718
-449.461
-425.57
-402.123
-379.193
-356.842
-335.128
-314.097
-293.791
-274.242
-255.477
-237.516
-220.373
-204.054
-188.562
-173.895
-160.044
-147
-134.745
-123.263
-112.53
-102.524
-93.2189
-84.5864
-76.5979
-69.2234
-62.4325
-56.1943
-50.4776
-45.2519
-40.4865
-36.1518
-32.2185
-28.6587
-25.4452
-22.5521
-19.9546
-17.6294
-15.5545
-13.7092
-12.0744
-10.6322
-9.36639
-8.2621
-7.30589
-6.48573
-5.79101
-5.2125
-4.74233
-4.37398
-4.10224
-3.92323
-3.83437
-858.409
-856.32
-852.16
-845.965
-837.789
-827.699
-815.78
-802.127
-786.85
-770.066
-751.9
-732.485
-711.955
-690.449
-668.105
-645.062
-621.456
-597.419
-573.08
-548.562
-523.982
-499.453
-475.077
-450.951
-427.165
-403.799
-380.926
-358.613
-336.917
-315.888
-295.568
-275.992
-257.189
-239.181
-221.981
-205.6
-190.041
-175.303
-161.38
-148.26
-135.931
-124.373
-113.567
-103.488
-94.1126
-85.4122
-77.3585
-69.9219
-63.0721
-56.7781
-51.0091
-45.7344
-40.9234
-36.5463
-32.5739
-28.978
-25.7315
-22.8081
-20.1832
-17.8331
-15.7356
-13.8701
-12.2171
-10.7588
-9.47867
-8.36182
-7.39464
-6.56502
-5.86224
-5.27698
-4.8013
-4.42862
-4.15368
-3.97255
-3.88264
-854.256
-852.216
-848.154
-842.103
-834.112
-824.246
-812.583
-799.215
-784.244
-767.782
-749.947
-730.867
-710.671
-689.492
-667.465
-644.723
-621.401
-597.627
-573.529
-549.228
-524.842
-500.481
-476.25
-452.245
-428.556
-405.267
-382.451
-360.176
-338.501
-317.477
-297.148
-277.552
-258.718
-240.67
-223.423
-206.988
-191.372
-176.572
-162.584
-149.399
-137.002
-125.378
-114.506
-104.363
-94.9242
-86.1629
-78.0506
-70.558
-63.6549
-57.3106
-51.4943
-46.1751
-41.3227
-36.9071
-32.8992
-29.2705
-25.9938
-23.0429
-20.3928
-18.02
-15.9019
-14.0178
-12.3483
-10.8752
-9.58199
-8.45361
-7.47638
-6.63807
-5.92789
-5.33644
-4.8557
-4.47904
-4.20115
-4.01809
-3.92721
-850.611
-848.614
-844.635
-838.706
-830.874
-821.199
-809.757
-796.634
-781.927
-765.743
-748.195
-729.407
-709.501
-688.608
-666.858
-644.382
-621.31
-597.77
-573.886
-549.78
-525.568
-501.36
-477.26
-453.367
-429.769
-406.552
-383.79
-361.553
-339.899
-318.884
-298.551
-278.94
-260.081
-241.999
-224.712
-208.232
-192.565
-177.712
-163.668
-150.424
-137.969
-126.286
-115.355
-105.155
-95.6596
-86.8437
-78.6788
-71.1359
-64.1849
-57.7952
-51.9361
-46.5768
-41.6869
-37.2365
-33.1962
-29.5377
-26.2337
-23.2577
-20.5848
-18.1911
-16.0543
-14.1533
-12.4686
-10.982
-9.67684
-8.53792
-7.55149
-6.70523
-5.98827
-5.39114
-4.90577
-4.52545
-4.24487
-4.06002
-3.96826
-847.414
-845.453
-841.545
-835.721
-828.024
-818.515
-807.262
-794.349
-779.87
-763.926
-746.627
-728.091
-708.439
-687.796
-666.289
-644.046
-621.195
-597.862
-574.169
-550.237
-526.181
-502.111
-478.131
-454.338
-430.825
-407.675
-384.965
-362.763
-341.133
-320.127
-299.794
-280.172
-261.293
-243.184
-225.864
-209.345
-193.634
-178.734
-164.641
-151.347
-138.84
-127.104
-116.122
-105.87
-96.3244
-87.4597
-79.2478
-71.6598
-64.6657
-58.2352
-52.3375
-46.942
-42.0183
-37.5363
-33.4668
-29.7813
-26.4524
-23.4537
-20.76
-18.3475
-16.1936
-14.2772
-12.5787
-11.0798
-9.76371
-8.61517
-7.62033
-6.76682
-6.04366
-5.44134
-4.95173
-4.56808
-4.28503
-4.09855
-4.00598
-844.61
-842.68
-838.833
-833.098
-825.519
-816.15
-805.061
-792.329
-778.046
-762.309
-745.227
-726.91
-707.479
-687.054
-665.759
-643.722
-621.065
-597.914
-574.391
-550.614
-526.698
-502.751
-478.879
-455.179
-431.743
-408.655
-385.993
-363.827
-342.219
-321.226
-300.894
-281.264
-262.37
-244.238
-226.89
-210.337
-194.589
-179.649
-165.513
-152.174
-139.622
-127.84
-116.811
-106.514
-96.9241
-88.0159
-79.762
-72.1336
-65.1009
-58.6338
-52.7015
-47.2734
-42.3191
-37.8087
-33.7128
-30.0029
-26.6515
-23.6322
-20.9197
-18.49
-16.3207
-14.3903
-12.6792
-11.1691
-9.84309
-8.68579
-7.6833
-6.82317
-6.09436
-5.48731
-4.99384
-4.60715
-4.32184
-4.13388
-4.04056
-842.153
-840.249
-836.454
-830.797
-823.318
-814.07
-803.121
-790.545
-776.431
-760.875
-743.978
-725.852
-706.613
-686.378
-665.27
-643.411
-620.926
-597.937
-574.564
-550.924
-527.132
-503.297
-479.522
-455.906
-432.54
-409.509
-386.892
-364.76
-343.174
-322.193
-301.865
-282.23
-263.324
-245.175
-227.802
-211.221
-195.442
-180.466
-166.292
-152.915
-140.322
-128.501
-117.431
-107.093
-97.4638
-88.517
-80.2256
-72.5612
-65.494
-58.994
-53.0307
-47.5733
-42.5916
-38.0556
-33.9359
-30.204
-26.8323
-23.7944
-21.0648
-18.6197
-16.4363
-14.4932
-12.7708
-11.2505
-9.91545
-8.7502
-7.74076
-6.8746
-6.14067
-5.52931
-5.03232
-4.64286
-4.3555
-4.16618
-4.0722
-840.001
-838.12
-834.37
-828.778
-821.385
-812.242
-801.413
-788.972
-775.004
-759.602
-742.868
-724.907
-705.834
-685.765
-664.819
-643.118
-620.784
-597.937
-574.696
-551.178
-527.497
-503.761
-480.074
-456.533
-433.231
-410.253
-387.678
-365.577
-344.013
-323.045
-302.721
-283.084
-264.169
-246.004
-228.612
-212.008
-196.2
-181.194
-166.989
-153.577
-140.95
-129.092
-117.987
-107.613
-97.9486
-88.9675
-80.6428
-72.9462
-65.8483
-59.3189
-53.3277
-47.8442
-42.8379
-38.2788
-34.1377
-30.386
-26.9961
-23.9414
-21.1965
-18.7373
-16.5412
-14.5867
-12.854
-11.3245
-9.98127
-8.80881
-7.79306
-6.92145
-6.18286
-5.5676
-5.06741
-4.67543
-4.38621
-4.19566
-4.10106
-838.118
-836.256
-832.544
-827.01
-819.69
-810.637
-799.911
-787.586
-773.745
-758.477
-741.882
-724.065
-705.136
-685.212
-664.408
-642.844
-620.642
-597.92
-574.796
-551.386
-527.804
-504.156
-480.547
-457.074
-433.83
-410.9
-388.363
-366.291
-344.749
-323.793
-303.475
-283.837
-264.915
-246.739
-229.33
-212.705
-196.874
-181.842
-167.609
-154.167
-141.509
-129.62
-118.484
-108.079
-98.3832
-89.3716
-81.0173
-73.2921
-66.1668
-59.6113
-53.5953
-48.0883
-43.0599
-38.4803
-34.32
-30.5505
-27.1441
-24.0743
-21.3156
-18.8438
-16.6363
-14.6714
-12.9294
-11.3916
-10.041
-8.86203
-7.84057
-6.96403
-6.22121
-5.60241
-5.09933
-4.70507
-4.41417
-4.2225
-4.12735
-836.471
-834.625
-830.947
-825.461
-818.205
-809.229
-798.592
-786.367
-772.634
-757.482
-741.008
-723.315
-704.513
-684.713
-664.033
-642.59
-620.503
-597.891
-574.87
-551.556
-528.06
-504.491
-480.952
-457.54
-434.348
-411.462
-388.96
-366.915
-345.393
-324.45
-304.138
-284.5
-265.574
-247.387
-229.965
-213.323
-197.472
-182.418
-168.16
-154.693
-142.008
-130.092
-118.927
-108.495
-98.7718
-89.7333
-81.3528
-73.6023
-66.4526
-59.8738
-53.8357
-48.3077
-43.2597
-38.6616
-34.4842
-30.6987
-27.2776
-24.1942
-21.4231
-18.94
-16.7222
-14.748
-12.9976
-11.4523
-10.0951
-8.91023
-7.88363
-7.00262
-6.256
-5.634
-5.1283
-4.73199
-4.43956
-4.24688
-4.15123
-835.032
-833.201
-829.55
-824.106
-816.905
-807.995
-797.435
-785.296
-771.657
-756.605
-740.235
-722.65
-703.957
-684.266
-663.694
-642.356
-620.37
-597.854
-574.923
-551.694
-528.275
-504.776
-481.299
-457.942
-434.797
-411.949
-389.48
-367.46
-345.955
-325.025
-304.719
-285.083
-266.153
-247.959
-230.526
-213.87
-198.002
-182.928
-168.649
-155.16
-142.452
-130.511
-119.323
-108.866
-99.1186
-90.0564
-81.6527
-73.8798
-66.7084
-60.109
-54.0512
-48.5046
-43.439
-38.8245
-34.6317
-30.832
-27.3978
-24.3022
-21.52
-19.0267
-16.7996
-14.8171
-13.0592
-11.5072
-10.1439
-8.95379
-7.92256
-7.03753
-6.28748
-5.6626
-5.15454
-4.75637
-4.46256
-4.26898
-4.17287
-833.776
-831.957
-828.331
-822.922
-815.768
-806.915
-796.421
-784.356
-770.798
-755.832
-739.553
-722.061
-703.462
-683.867
-663.388
-642.141
-620.244
-597.812
-574.961
-551.805
-528.455
-505.017
-481.595
-458.287
-435.183
-412.372
-389.931
-367.934
-346.447
-325.528
-305.229
-285.595
-266.663
-248.463
-231.02
-214.352
-198.47
-183.38
-169.082
-155.574
-142.845
-130.884
-119.674
-109.196
-99.4275
-90.3444
-81.9203
-74.1275
-66.9371
-60.3193
-54.244
-48.6809
-43.5997
-38.9705
-34.7641
-30.9517
-27.5056
-24.3992
-21.607
-19.1047
-16.8693
-14.8794
-13.1147
-11.5566
-10.188
-8.99308
-7.95768
-7.06905
-6.3159
-5.68843
-5.17825
-4.77841
-4.48336
-4.28896
-4.19245
-832.68
-830.872
-827.267
-821.889
-814.775
-805.971
-795.534
-783.533
-770.044
-755.153
-738.952
-721.54
-703.023
-683.51
-663.112
-641.946
-620.125
-597.767
-574.986
-551.895
-528.604
-505.221
-481.848
-458.583
-435.517
-412.737
-390.323
-368.347
-346.875
-325.967
-305.675
-286.043
-267.11
-248.906
-231.455
-214.777
-198.882
-183.778
-169.465
-155.94
-143.194
-131.214
-119.986
-109.489
-99.7021
-90.6006
-82.1585
-74.3482
-67.1409
-60.5069
-54.4161
-48.8383
-43.7433
-39.1011
-34.8825
-31.0588
-27.6022
-24.4862
-21.6851
-19.1746
-16.9319
-14.9352
-13.1645
-11.601
-10.2276
-9.02842
-7.98929
-7.09742
-6.34151