/*--------------------------------*- C++ -*----------------------------------*\
  =========                 |
  \\      /  F ield         | OpenFOAM: The Open Source CFD Toolbox
   \\    /   O peration     | Website:  https://openfoam.org
    \\  /    A nd           | Version:  10
     \\/     M anipulation  |
\*---------------------------------------------------------------------------*/
FoamFile
{
    format      ascii;
    class       volScalarField;
    location    "439";
    object      gradTx;
}
// * * * * * * * * * * * * * * * * * * * * * * * * * * * * * * * * * * * * * //

dimensions      [0 -1 0 1 0 0 0];

internalField   nonuniform List<scalar> 
11250
(
14305.8
8121.77
5339.56
3867.87
2980.16
2389.18
1966.33
1647.43
1397.34
1195.38
1028.65
888.638
769.561
667.305
578.867
501.988
434.924
376.295
324.987
280.076
240.789
206.461
176.518
150.456
127.83
108.241
91.335
76.7926
64.3274
53.6821
44.6258
36.9517
30.4754
25.0325
20.4775
16.682
13.5332
10.9324
8.79382
7.0433
5.6169
4.45993
3.52583
2.77514
2.17466
1.69658
1.31772
1.01891
0.784336
0.601063
0.458547
0.348248
0.263288
0.198156
0.148462
0.110727
0.0822079
0.0607573
0.0446997
0.0327364
0.0238656
0.0173193
0.012511
0.00899612
0.00643863
0.00458629
0.0032506
0.00229133
0.00160463
0.00111386
0.000762495
0.000508786
0.00032158
0.00017712
5.64896e-05
4101.63
4720.5
4029.94
3285.13
2685.01
2222.91
1864.55
1581
1351.8
1162.95
1004.83
870.73
755.831
656.613
570.435
495.27
429.528
371.933
321.442
277.185
238.423
204.522
174.927
149.149
126.756
107.36
90.6122
76.2005
63.8432
53.2868
44.3038
36.6901
30.2633
24.8611
20.3394
16.571
13.4443
10.8615
8.73743
6.9986
5.58161
4.43217
3.50407
2.75816
2.16145
1.68635
1.30983
1.01285
0.779699
0.59753
0.455867
0.346223
0.261765
0.197015
0.147611
0.110095
0.0817406
0.0604133
0.0444476
0.0325523
0.0237319
0.0172225
0.0124414
0.00894619
0.00640299
0.00456098
0.0032327
0.00227874
0.00159584
0.00110777
0.000758335
0.000506015
0.000319832
0.000176158
5.61835e-05
1482.03
2629.22
2775.45
2558.96
2253.41
1954.76
1690.08
1462.61
1268.5
1102.54
959.913
836.627
729.496
635.991
554.101
482.211
419.009
363.41
314.503
271.515
233.779
200.71
171.795
146.575
124.641
105.622
89.1859
75.0315
62.8867
52.5057
43.6673
36.1727
29.8438
24.522
20.066
16.3514
13.2684
10.721
8.62573
6.91007
5.5117
4.37717
3.46096
2.7245
2.13528
1.66608
1.29419
1.00083
0.770506
0.590525
0.450552
0.342207
0.258744
0.194752
0.145923
0.108841
0.0808133
0.0597306
0.0439471
0.0321871
0.0234665
0.0170306
0.0123031
0.00884706
0.00633224
0.00451071
0.00319717
0.00225375
0.00157838
0.00109567
0.000750072
0.000500511
0.000316358
0.000174247
5.55744e-05
679.463
1539.42
1884.59
1923.08
1816.44
1654.5
1480.51
1313.21
1159.63
1021.54
898.522
789.347
692.58
606.831
530.845
463.516
403.882
351.107
304.456
263.285
227.021
195.154
167.223
142.812
121.544
103.075
87.094
73.3157
61.4817
51.3576
42.7313
35.4114
29.2264
24.0226
19.6633
16.0277
13.0091
10.514
8.46099
6.77946
5.40853
4.29598
3.39732
2.6748
2.09663
1.63613
1.27109
0.98308
0.756922
0.580174
0.442696
0.336272
0.254277
0.191406
0.143427
0.106987
0.0794422
0.058721
0.043207
0.0316469
0.023074
0.0167466
0.0120986
0.0087004
0.00622756
0.00443634
0.00314458
0.00221678
0.00155254
0.00107778
0.000737843
0.000492365
0.000311216
0.000171418
5.46726e-05
376.043
964.959
1301.28
1433.55
1436.29
1368.11
1266.34
1152.42
1037.78
928.16
826.122
732.592
647.644
570.942
501.965
440.13
384.847
335.547
291.696
252.796
218.384
188.035
161.352
137.97
117.553
99.7887
84.3909
71.0959
59.6624
49.8696
41.5171
34.4233
28.4244
23.3736
19.1398
15.6067
12.6716
10.2444
8.24643
6.60931
5.27409
4.19016
3.31434
2.60999
2.04621
1.59707
1.24094
0.959911
0.739189
0.566659
0.432439
0.32852
0.248444
0.187035
0.140166
0.104564
0.0776506
0.0574017
0.0422397
0.0309409
0.0225609
0.0163753
0.0118312
0.00850865
0.00609068
0.00433909
0.00307582
0.00216842
0.00151875
0.00105437
0.000721848
0.000481709
0.00030449
0.000167717
5.34928e-05
235.968
643.616
922.868
1074.73
1128.57
1117.07
1066.37
994.603
913.406
829.834
747.988
670.128
597.402
530.298
468.916
413.136
362.717
317.35
276.699
240.415
208.152
179.574
154.355
132.187
112.776
95.8479
81.1446
68.4265
57.4717
48.076
40.0522
33.23
27.4551
22.5886
18.5061
15.0968
12.2627
9.91765
7.98622
6.40286
5.11091
4.06167
3.21356
2.53125
1.98494
1.54958
1.20429
0.931734
0.71762
0.550216
0.419958
0.319086
0.241343
0.181714
0.136195
0.101614
0.0754685
0.0557946
0.0410613
0.0300806
0.0219357
0.0159229
0.0115053
0.00827494
0.00592384
0.00422054
0.00299199
0.00210946
0.00147755
0.00102582
0.000702342
0.000468714
0.000296287
0.000163203
5.20538e-05
160.35
451.177
672.693
815.072
887.661
906.977
889.442
848.44
793.813
732.358
668.573
605.332
544.404
486.828
433.161
383.653
338.351
297.179
259.978
226.543
196.64
170.02
146.429
125.617
107.337
91.3516
77.4338
65.3701
54.9598
46.0166
38.3682
31.8568
26.3387
21.6837
17.775
14.5081
11.7903
9.53992
7.68528
6.16398
4.922
3.91286
3.09679
2.43999
1.9139
1.4945
1.16176
0.899037
0.692584
0.531127
0.405464
0.308128
0.233095
0.175531
0.131581
0.0981856
0.0729318
0.0539262
0.0396911
0.0290802
0.0212085
0.0153967
0.0111262
0.00800302
0.0057297
0.00408258
0.00289443
0.00204083
0.00142958
0.000992591
0.000679633
0.000453584
0.000286736
0.000157947
5.03782e-05
114.771
328.543
502.469
626.331
701.435
735.416
737.915
718.053
683.388
639.71
591.239
540.94
490.835
442.258
396.06
352.747
312.59
275.695
242.058
211.596
184.176
159.635
137.784
118.43
101.37
86.4066
73.3441
61.9952
52.1816
43.7354
36.5004
30.3319
25.0976
20.6768
16.9607
13.8519
11.2633
9.11824
7.3491
5.89698
4.71075
3.74637
2.96609
2.3378
1.83432
1.43278
1.11409
0.862372
0.664501
0.509708
0.389197
0.295827
0.223833
0.168587
0.126398
0.0943334
0.0700814
0.0518262
0.0381509
0.0279555
0.0203908
0.0148049
0.0106997
0.00769716
0.0055113
0.00392736
0.00278465
0.00196361
0.00137561
0.000955189
0.000654072
0.000436553
0.000275983
0.00015203
4.84918e-05
85.122
246.231
383.095
487.432
557.694
596.965
610.611
604.545
584.234
554.266
518.265
478.978
438.419
398.023
358.786
321.373
286.203
253.521
223.438
195.976
171.087
148.68
128.63
110.793
95.0118
81.1235
68.9646
58.3736
49.1947
41.2789
34.4859
28.6851
23.7555
19.5867
16.0784
13.1402
10.6913
8.66016
6.98365
5.60654
4.48082
3.56505
2.82368
2.2264
1.74752
1.36544
1.06206
0.822338
0.633828
0.486307
0.37142
0.28238
0.213705
0.160992
0.120727
0.0901182
0.0669617
0.0495275
0.0364646
0.0267238
0.0194953
0.0141566
0.0102326
0.00736202
0.00527197
0.00375723
0.00266432
0.00187895
0.00131643
0.000914179
0.000626041
0.000417874
0.000264191
0.00014554
4.64228e-05
64.7607
188.622
297.003
383.646
446.255
485.7
504.807
507.275
496.905
477.168
451.009
420.807
388.414
355.233
322.294
290.335
259.863
231.21
204.576
180.057
157.678
137.406
119.171
102.874
88.397
75.612
64.3841
54.5774
46.0574
38.694
32.3628
26.9468
22.337
18.4332
15.1436
12.3854
10.0841
8.17353
6.59512
5.29753
4.23602
3.37189
2.67188
2.10759
1.65492
1.29356
1.0065
0.779568
0.601046
0.461288
0.352407
0.267994
0.202867
0.152863
0.114656
0.0856041
0.06362
0.0470646
0.0346574
0.0254038
0.0185352
0.0134616
0.00973161
0.00700256
0.00501522
0.00357471
0.00253519
0.00178809
0.00125291
0.000870157
0.00059595
0.000397821
0.000251529
0.000138571
4.4201e-05
50.2059
146.929
233.368
304.888
359.233
396.263
417.354
424.746
421.016
408.705
390.12
367.232
341.66
314.689
287.312
260.276
234.123
209.236
185.869
164.173
144.226
126.043
109.597
94.828
81.6542
69.977
59.6887
50.6767
42.8269
36.0271
30.1684
25.1473
20.8666
17.2358
14.1722
11.6001
9.45174
7.66624
6.18975
4.97488
3.98023
3.16993
2.51307
1.98322
1.55792
1.21823
0.948243
0.734708
0.566648
0.435025
0.332443
0.252883
0.191479
0.144318
0.108273
0.0808568
0.0601048
0.0444733
0.0327556
0.0240142
0.0175245
0.0127296
0.00920396
0.00662389
0.00474472
0.00338238
0.00239911
0.00169233
0.00118595
0.000823743
0.000564219
0.000376673
0.000238175
0.000131221
4.18576e-05
39.4785
115.937
185.336
244.25
290.715
324.183
345.223
355.151
355.675
348.619
335.743
318.63
298.644
276.916
254.356
231.676
209.418
187.981
167.649
148.609
130.972
114.793
100.077
86.7978
74.9014
64.3163
54.9588
46.7374
39.5571
33.3222
27.9387
23.3159
19.3676
16.0136
13.1792
10.7966
8.80397
7.14608
5.77372
4.64346
3.71729
2.96217
2.34958
1.85511
1.45795
1.14055
0.88814
0.688403
0.531126
0.407894
0.311809
0.23726
0.179701
0.135478
0.101667
0.0759424
0.056465
0.0417893
0.0307853
0.0225743
0.0164769
0.0119708
0.00865684
0.00623118
0.00446414
0.00318284
0.00225791
0.00159294
0.00111644
0.000775562
0.000531277
0.000354714
0.000224308
0.000123588
3.9424e-05
31.3808
92.3979
148.437
196.953
236.322
265.871
285.741
296.671
299.776
296.343
287.69
275.064
259.583
242.213
223.757
204.87
186.066
167.739
150.18
133.595
118.119
103.83
90.7602
78.9077
68.2431
58.7173
50.267
42.8199
36.2978
30.6204
25.7072
21.4797
17.8624
14.7844
12.1794
9.98643
8.15012
6.62049
5.35293
4.30796
3.45088
2.7515
2.18369
1.72503
1.35639
1.06159
0.827008
0.641281
0.494962
0.380258
0.290784
0.221334
0.167691
0.126461
0.0949264
0.0709259
0.0527483
0.039048
0.0287724
0.0211028
0.015406
0.0111951
0.00809736
0.00582952
0.0041771
0.00297868
0.0021134
0.00149122
0.00104529
0.000726232
0.000497544
0.000332227
0.000210106
0.00011577
3.69313e-05
25.1513
74.2055
119.672
159.643
192.807
218.5
236.644
247.629
252.167
251.158
245.577
236.388
224.494
210.699
195.697
180.068
164.285
148.72
133.659
119.312
105.826
93.2945
81.7679
71.2628
61.769
53.2557
45.6773
38.9775
33.0934
27.9582
23.5041
19.6636
16.3712
13.5648
11.1859
9.18042
7.49884
6.09639
4.93292
3.97276
3.18449
2.54068
2.01756
1.59466
1.25453
0.982342
0.765627
0.593942
0.458611
0.352468
0.269632
0.205304
0.155597
0.117377
0.0881343
0.0658696
0.049001
0.0362833
0.0267417
0.0196179
0.0143252
0.0104118
0.00753237
0.00542381
0.0038871
0.00277237
0.00196736
0.00138839
0.00097336
0.000676349
0.000463428
0.000309481
0.000195739
0.00010786
3.44093e-05
20.2859
59.9467
96.9745
129.926
157.754
179.859
196.061
206.541
211.746
212.298
208.911
202.325
193.255
182.363
170.234
157.373
144.201
131.061
118.223
105.891
94.2149
83.2964
73.1977
63.9485
55.5531
47.9952
41.2436
35.2558
29.9821
25.3678
21.356
17.8895
14.9121
12.3696
10.2109
8.38829
6.85799
5.5801
4.51873
3.64187
2.92128
2.3322
1.85314
1.46555
1.15358
0.903759
0.704719
0.546942
0.422502
0.324849
0.248599
0.189359
0.143562
0.108334
0.0813697
0.060832
0.0452663
0.0335269
0.0247166
0.0181367
0.0132467
0.00963013
0.00696834
0.0050187
0.00359747
0.00256627
0.00182143
0.00128562
0.000901458
0.000626481
0.000429317
0.000286735
0.00018137
9.99497e-05
3.18868e-05
16.4397
48.6431
78.8849
106.064
129.35
148.22
162.462
172.133
177.506
179.008
177.159
172.521
165.656
157.099
147.34
136.808
125.872
114.839
103.957
93.4183
83.37
73.9154
65.1227
57.0306
49.6535
42.9864
37.0098
31.6926
26.996
22.8759
19.2855
16.1763
13.5005
11.2114
9.26468
7.61856
6.23448
5.07719
4.11483
3.31889
2.66412
2.12833
1.69222
1.33909
1.05464
0.826682
0.644942
0.500786
0.387022
0.297696
0.227912
0.173668
0.131714
0.0994279
0.0747047
0.0558667
0.041584
0.0308083
0.0227185
0.0166749
0.012182
0.00885821
0.00641123
0.00461845
0.00331125
0.00236256
0.00167716
0.001184
0.000830345
0.00057715
0.000395568
0.000264228
0.000167151
9.21203e-05
2.93901e-05
13.3693
39.5999
64.3508
86.7759
106.216
122.23
134.603
143.324
148.554
150.582
149.786
146.589
141.431
134.741
126.921
118.333
109.295
100.076
90.8995
81.9428
73.3438
65.204
57.5936
50.5562
44.1132
38.268
33.0099
28.3172
24.1604
20.5045
17.3108
14.5393
12.1493
10.1011
8.35619
6.87846
5.6342
4.59243
3.72507
3.00689
2.41546
1.93103
1.53635
1.2165
0.958648
0.751856
0.586872
0.455921
0.352514
0.271273
0.20777
0.158384
0.120168
0.0907446
0.068204
0.051022
0.0379897
0.0281538
0.0207669
0.0152466
0.0111414
0.00810355
0.00586642
0.00422694
0.00303121
0.0021632
0.00153594
0.00108451
0.000760705
0.000528833
0.000362507
0.000242176
0.000153217
8.44477e-05
2.69433e-05
10.8993
32.3119
52.5968
71.0996
87.2968
100.822
111.475
119.207
124.109
126.376
126.278
124.136
120.289
115.081
108.839
101.863
94.4248
86.7565
79.055
71.4808
64.1608
57.1912
50.6411
44.5559
38.9614
33.8669
29.2684
25.1516
21.4946
18.27
15.4464
12.9908
10.8689
9.04713
7.49253
6.17389
5.06197
4.12976
3.35265
2.70845
2.17737
1.74193
1.38684
1.09882
0.866429
0.679917
0.531006
0.412731
0.319275
0.245807
0.188348
0.143637
0.109023
0.0823592
0.0619236
0.0463396
0.0345145
0.0255863
0.0188786
0.0138642
0.010134
0.00737268
0.00533864
0.00384757
0.00275978
0.00196992
0.00139899
0.000988008
0.000693145
0.000481949
0.000330421
0.000220771
0.000139691
7.69986e-05
2.45677e-05
8.90012
26.4043
43.0419
58.3036
71.7739
83.1509
92.2546
99.0229
103.499
105.813
106.16
104.779
101.934
97.8961
92.9295
87.2836
81.1846
74.8323
68.3976
62.0228
55.8225
49.8857
44.2782
39.0452
34.2146
29.7995
25.8009
22.2103
19.0119
16.1843
13.7026
11.5396
9.66691
8.05607
6.67916
5.5094
4.52158
3.6923
3.00011
2.42563
1.95152
1.56239
1.24475
0.986882
0.778648
0.61139
0.477751
0.371534
0.287549
0.221487
0.169789
0.129539
0.0983622
0.0743348
0.055911
0.0418548
0.0311847
0.0231252
0.017068
0.0125382
0.00916729
0.0066712
0.00483193
0.00348324
0.00249904
0.00178421
0.00126737
0.000895238
0.000628183
0.000436859
0.000299557
0.000200178
0.000126675
6.98304e-05
2.22815e-05
7.27426
21.5941
35.2433
47.8239
59.0053
68.5406
76.2732
82.1363
86.1453
88.3855
88.9968
88.1581
86.0726
82.9537
79.0147
74.4593
69.4762
64.2342
58.8803
53.5389
48.3118
43.2797
38.5036
34.0271
29.8785
26.0732
22.6156
19.5015
16.7199
14.2547
12.086
10.1917
8.54851
7.13245
5.91997
4.8883
4.0158
3.28233
2.66934
2.16
1.73917
1.39341
1.11091
0.881353
0.695824
0.546683
0.427431
0.33258
0.257532
0.198462
0.152209
0.116178
0.0882537
0.0667222
0.0502043
0.0375965
0.0280216
0.0207865
0.0153468
0.0112772
0.00824769
0.00600366
0.00434958
0.00313632
0.00225069
0.00160728
0.00114195
0.000806812
0.000566248
0.000393862
0.000270119
0.000180533
0.000114258
6.29907e-05
2.01e-05
5.94726
17.6641
28.8591
39.2199
48.4836
56.4486
62.9815
68.0172
71.5545
73.6483
74.3984
73.9387
72.4251
70.0254
66.9104
63.2459
59.1878
54.8776
50.4406
45.984
41.5971
37.3519
33.3039
29.4939
25.9496
22.6872
19.7135
17.0275
14.6218
12.4845
10.6
8.95046
7.51673
6.27897
5.21738
4.31266
3.54642
2.9014
2.36164
1.91261
1.5412
1.23573
0.9859
0.782702
0.618335
0.486098
0.380281
0.296056
0.229369
0.176847
0.135696
0.103621
0.0787483
0.0595603
0.0448329
0.0335866
0.0250419
0.0185825
0.013724
0.0100878
0.00738008
0.00537364
0.00389421
0.00280871
0.0020161
0.00144009
0.0010234
0.000723214
0.000507682
0.000353193
0.000242271
0.000161946
0.000102507
5.65174e-05
1.80353e-05
4.86136
14.4454
23.6216
32.144
39.8031
46.4354
51.9284
56.2219
59.3057
61.2138
62.0175
61.8166
60.7308
58.8915
56.4349
53.4953
50.2007
46.669
43.0056
39.3022
35.6364
32.0712
28.6565
25.4297
22.4168
19.6344
17.0903
14.7859
12.7165
10.8736
9.245
7.81656
6.57259
5.49673
4.57244
3.78352
3.11438
2.55033
2.07773
1.6841
1.35814
1.08978
0.870084
0.691228
0.546425
0.429832
0.336461
0.262087
0.20316
0.156719
0.120309
0.0919131
0.0698816
0.0528762
0.0398176
0.0298407
0.0222571
0.0165218
0.0122062
0.00897507
0.00656801
0.00478375
0.00346771
0.00250177
0.00179624
0.00128337
0.00091224
0.000644804
0.000452736
0.000315031
0.000216133
0.000144497
9.14742e-05
5.04391e-05
1.60964e-05
3.97118
11.8049
19.3187
26.3186
32.6376
38.1431
42.7414
46.3787
49.0401
50.7462
51.5473
51.5178
50.7495
49.3452
47.413
45.0612
42.3944
39.5099
36.4962
33.4308
30.3802
27.3993
24.5321
21.8121
19.2635
16.9022
14.7369
12.7701
10.9995
9.41887
8.01907
6.78879
5.71536
4.78536
3.98507
3.30093
2.71982
2.22932
1.81782
1.47467
1.19021
0.955756
0.763629
0.607074
0.480215
0.377985
0.296052
0.23074
0.178958
0.13812
0.106083
0.081083
0.0616751
0.0466866
0.0351709
0.0263687
0.0196748
0.0146102
0.0107975
0.00794191
0.00581376
0.00423568
0.0030713
0.0022164
0.00159177
0.00113757
0.0008088
0.000571822
0.000401581
0.000279492
0.000191787
0.000128241
8.11943e-05
4.47751e-05
1.42896e-05
3.24069
9.63672
15.7811
21.5206
26.7221
31.2783
35.1117
38.1753
40.4527
41.9551
42.7181
42.7973
42.2627
41.1947
39.6789
37.8023
35.6498
33.3016
30.831
28.3033
25.7749
23.2931
20.8962
18.6141
16.4685
14.4745
12.6407
10.9706
9.46344
8.11491
6.91811
5.86416
4.94288
4.14331
3.45415
2.86411
2.36222
1.93801
1.58169
1.2842
1.03731
0.833611
0.666522
0.530242
0.419715
0.330572
0.259071
0.202033
0.156779
0.121065
0.0930305
0.07114
0.0541366
0.040998
0.0308983
0.0231745
0.0172981
0.0128499
0.00949998
0.00698986
0.00511847
0.00373026
0.00270562
0.00195306
0.00140302
0.00100294
0.00071326
0.000504395
0.000354308
0.000246643
0.000169278
0.000113209
7.16869e-05
3.9536e-05
1.26183e-05
2.64097
7.85574
12.8723
17.5692
21.8405
25.5996
28.7826
31.3494
33.2834
34.5901
35.2945
35.4378
35.0737
34.2648
33.0787
31.585
29.8525
27.9468
25.9283
23.8517
21.7644
19.7067
17.7117
15.8056
14.0077
12.3319
10.7864
9.3754
8.09898
6.95438
5.93647
5.03832
4.25181
3.56804
2.97776
2.47162
2.04049
1.67561
1.36874
1.11223
0.899123
0.723114
0.578594
0.460611
0.36484
0.287533
0.225477
0.175937
0.136603
0.105541
0.0811417
0.0620785
0.0472626
0.035808
0.0269982
0.0202575
0.0151266
0.011241
0.00831345
0.00611892
0.00448217
0.00326757
0.00237073
0.00171181
0.00123006
0.000879532
0.000625655
0.000442551
0.000310937
0.000216498
0.000148618
9.94093e-05
6.29572e-05
3.4725e-05
1.10833e-05
2.14869
6.39312
10.4812
14.3167
17.8153
20.9072
23.5401
25.68
27.3113
28.4358
29.0711
29.2476
29.0065
28.3963
27.4706
26.2847
24.8942
23.3522
21.7087
20.0088
18.2923
16.5932
14.9398
13.3548
11.8551
10.4533
9.15716
7.97081
6.8952
5.9286
5.06727
4.30585
3.63789
3.05624
2.55332
2.12146
1.75309
1.44093
1.17806
0.958093
0.775135
0.623871
0.499548
0.39796
0.315424
0.248745
0.195179
0.152384
0.118381
0.0915103
0.0703906
0.0538794
0.0410393
0.0311068
0.0234636
0.0176127
0.0131568
0.00978085
0.00723618
0.00532786
0.003904
0.00284698
0.00206621
0.00149237
0.00107268
0.000767207
0.000545894
0.000386228
0.000271428
0.00018903
0.000129788
8.68295e-05
5.4998e-05
3.0338e-05
9.68366e-06
1.74484
5.19275
8.5172
11.6421
14.5001
17.0352
19.2048
20.9805
22.348
23.307
23.8696
24.0584
23.9048
23.4467
22.7259
21.7868
20.6737
19.43
18.0962
16.7096
15.3034
13.906
12.5415
11.2291
9.9839
8.81669
7.73475
6.74213
5.84017
5.02797
4.3028
3.66058
3.09624
2.60401
2.17776
1.81122
1.49814
1.23249
1.00853
0.820891
0.664658
0.535359
0.428985
0.341983
0.271235
0.214034
0.168044
0.131274
0.102038
0.0789193
0.0607364
0.0465124
0.0354446
0.0268782
0.0202827
0.0152312
0.0113823
0.00846492
0.0062649
0.00461434
0.00338231
0.00246733
0.00179124
0.00129415
0.000930469
0.000665678
0.000473777
0.000335289
0.000235686
0.000164175
0.000112745
7.54409e-05
4.77914e-05
2.63655e-05
8.41613e-06
1.41387
4.20864
6.90595
9.4455
11.7737
13.8458
15.627
17.0937
18.2335
19.0448
19.5356
19.723
19.6309
19.2885
18.7288
17.9869
17.0984
16.0982
15.0193
13.8923
12.7446
11.5999
10.4784
9.39651
8.36708
7.39964
6.5007
5.67412
4.92144
4.24231
3.63483
3.09588
2.62149
2.20708
1.84768
1.5382
1.2735
1.04862
0.858802
0.699595
0.566892
0.456955
0.366422
0.29231
0.231991
0.183182
0.143908
0.112485
0.087482
0.0676972
0.0521264
0.0399384
0.0304492
0.0231005
0.0174396
0.0131016
0.00979479
0.00728707
0.00539515
0.00397515
0.00291477
0.00212697
0.00154463
0.00111631
0.000802841
0.00057453
0.000409014
0.00028953
0.00020357
0.000141835
9.74236e-05
6.52008e-05
4.13104e-05
2.27925e-05
7.27596e-06
1.143
3.403
5.58605
7.64446
9.53564
11.2237
12.6807
13.8869
14.8318
15.513
15.9361
16.1135
16.0635
15.8089
15.3754
14.7908
14.0835
13.2816
12.4118
11.499
10.5658
9.63176
8.71376
7.82562
6.9783
6.18004
5.43659
4.7515
4.12639
3.56129
3.05488
2.60485
2.20808
1.86095
1.55947
1.2995
1.07687
0.887488
0.727451
0.593074
0.48095
0.387967
0.311325
0.248526
0.197372
0.155944
0.122584
0.0958724
0.0746036
0.0577621
0.0444992
0.0341113
0.0260188
0.0197483
0.0149154
0.01121
0.00838396
0.00623986
0.00462154
0.00340637
0.00249857
0.00182386
0.00132493
0.000957826
0.000689062
0.000493247
0.000351243
0.000248699
0.000174904
0.00012189
8.37416e-05
5.60543e-05
3.55206e-05
1.96001e-05
6.25721e-06
0.921699
2.74459
4.50679
6.17057
7.70215
9.07287
10.2601
11.248
12.0273
12.5954
12.9562
13.1188
13.0971
12.9087
12.5739
12.1144
11.5529
10.9119
10.213
9.47629
8.72025
7.96108
7.2127
6.48667
5.79226
5.13652
4.52445
3.95926
3.44255
2.97458
2.55449
2.18055
1.85035
1.56104
1.30942
1.09215
0.905856
0.747197
0.612967
0.500136
0.405893
0.327662
0.263119
0.210186
0.167032
0.132055
0.103868
0.0812814
0.0632846
0.0490244
0.0377871
0.0289803
0.0221156
0.0167934
0.0126891
0.00954076
0.00713844
0.00531493
0.00393797
0.00290357
0.00213051
0.00155571
0.00113049
0.000817514
0.000588295
0.000421236
0.000300045
0.000212504
0.000149486
0.000104201
7.16033e-05
4.79382e-05
3.03822e-05
1.67665e-05
5.35292e-06
0.741253
2.2076
3.62612
4.96702
6.20353
7.31283
8.27677
9.08235
9.72184
10.1928
10.4975
10.6429
10.6395
10.501
10.243
9.88283
9.43838
8.92756
8.36775
7.77527
7.16506
6.55039
5.94274
5.35171
4.78505
4.24874
3.74711
3.28298
2.85786
2.47217
2.12535
1.81615
1.54271
1.30278
1.09382
0.913165
0.758068
0.625824
0.513817
0.419566
0.340762
0.275284
0.221212
0.176829
0.140615
0.111238
0.0875465
0.0685486
0.0534005
0.0413894
0.0319185
0.0244914
0.0186988
0.0142053
0.0107383
0.00807736
0.00604596
0.00450328
0.00333784
0.00246197
0.00180711
0.00132
0.000959521
0.000694093
0.000499629
0.00035785
0.000254966
0.000180625
0.000127092
8.86114e-05
6.09039e-05
4.07825e-05
2.5851e-05
1.42675e-05
4.55536e-06
0.594449
1.77064
2.90918
3.98658
4.98168
5.87635
6.65606
7.31027
7.83254
8.22056
8.47584
8.60342
8.61132
8.51001
8.3118
8.03021
7.67938
7.27358
6.8267
6.35187
5.86117
5.36542
4.874
4.39485
3.93442
3.49771
3.08841
2.709
2.36086
2.04447
1.75952
1.50508
1.27974
1.08174
0.909081
0.759612
0.631139
0.52147
0.428482
0.350155
0.284599
0.230078
0.185013
0.147991
0.117757
0.0932133
0.0734041
0.0575078
0.0448241
0.0347604
0.02682
0.0205894
0.0157271
0.0119531
0.0090397
0.00680255
0.00509382
0.00379557
0.00281435
0.0020766
0.00152477
0.00111414
0.000810143
0.000586219
0.000422105
0.000302413
0.000215527
0.000152725
0.000107488
7.49607e-05
5.15327e-05
3.45138e-05
2.18808e-05
1.20776e-05
3.85638e-06
0.475309
1.41594
2.32699
3.18997
3.98817
4.70723
5.33555
5.86465
6.2892
6.60712
6.81933
6.92952
6.9438
6.87023
6.71836
6.49879
6.22267
5.9013
5.54576
5.16655
4.77342
4.37512
3.9793
3.59245
3.2199
2.86583
2.53336
2.2246
1.94082
1.68249
1.44947
1.24109
1.05629
0.893696
0.751725
0.628676
0.522787
0.432297
0.355489
0.290725
0.236468
0.191302
0.153936
0.123213
0.0981036
0.0777033
0.061226
0.0479941
0.037429
0.0290409
0.0224183
0.0172186
0.0131585
0.0100055
0.00757006
0.00569902
0.00426921
0.00318237
0.00236056
0.00174239
0.00127983
0.00093548
0.000680449
0.000492527
0.000354749
0.00025423
0.000181238
0.000128462
9.04345e-05
6.30825e-05
4.33762e-05
2.90566e-05
1.84239e-05
1.01707e-05
3.24764e-06
0.378878
1.1288
1.85553
2.54452
3.18263
3.75851
4.26293
4.68908
5.03262
5.2917
5.46686
5.5608
5.57814
5.52509
5.40906
5.23832
5.02164
4.76795
4.48602
4.18426
3.87047
3.55169
3.23413
2.92309
2.62292
2.33709
2.06821
1.81808
1.5878
1.37785
1.1882
1.01836
0.86753
0.734653
0.618489
0.517687
0.430846
0.356553
0.293428
0.240148
0.19547
0.158244
0.127421
0.102055
0.0813081
0.0644391
0.0508039
0.0398467
0.0310919
0.0241365
0.0186417
0.0143249
0.0109522
0.00833161
0.00630636
0.00474965
0.00355947
0.00265434
0.00196963
0.00145437
0.00106864
0.000781377
0.000568542
0.000411655
0.00029659
0.000212612
0.000151611
0.000107491
7.56907e-05
5.28106e-05
3.63209e-05
2.43351e-05
1.54325e-05
8.52025e-06
2.72081e-06
0.30105
0.897021
1.47483
2.02309
2.53147
2.99101
3.39443
3.73627
4.013
4.22304
4.36665
4.44582
4.46406
4.42611
4.33772
4.20532
4.0358
3.83616
3.61337
3.3741
3.12456
2.87041
2.61666
2.36759
2.12676
1.89701
1.68051
1.47878
1.29276
1.12292
0.969276
0.831499
0.708985
0.600918
0.50633
0.424158
0.353288
0.292596
0.240974
0.197362
0.160757
0.13023
0.104932
0.0840973
0.0670419
0.0531641
0.0419387
0.0329117
0.0256943
0.0199567
0.0154211
0.0118558
0.00906865
0.00690181
0.00522638
0.0039379
0.00295232
0.00220244
0.00163491
0.00120765
0.000887669
0.000649272
0.000472575
0.000342277
0.000246679
0.000176885
0.00012617
8.94772e-05
6.3022e-05
4.39819e-05
3.02555e-05
2.02751e-05
1.28598e-05
7.10063e-06
2.26763e-06
0.238423
0.710485
1.16836
1.60315
2.00675
2.37213
2.69354
2.96663
3.18855
3.35796
3.47497
3.54104
3.55879
3.53188
3.46474
3.36238
3.23015
3.07357
2.89811
2.70906
2.51136
2.30953
2.10757
1.90894
1.71652
1.53265
1.35908
1.19711
1.04753
0.910758
0.786863
0.675618
0.576574
0.489105
0.412457
0.345797
0.288244
0.238906
0.196901
0.16138
0.131539
0.106632
0.0859733
0.0689456
0.0549962
0.0436374
0.034443
0.0270441
0.0211246
0.0164158
0.0126912
0.00976167
0.00747028
0.00568788
0.00430898
0.00324802
0.00243608
0.00181803
0.00135006
0.000997602
0.000733531
0.000536711
0.000390774
0.000283119
0.000204105
0.000146399
0.000104454
7.40968e-05
5.22023e-05
3.64397e-05
2.50726e-05
1.6805e-05
1.06605e-05
5.88694e-06
1.88015e-06
0.188188
0.560837
0.922433
1.26603
1.58531
1.87475
2.12983
2.3471
2.52428
2.66026
2.75503
2.80966
2.82613
2.80724
2.7564
2.67748
2.57466
2.45225
2.31455
2.16573
2.00969
1.85002
1.68992
1.53217
1.37908
1.23254
1.094
0.964522
0.844782
0.735147
0.635701
0.546299
0.466606
0.396144
0.334332
0.280516
0.234006
0.194094
0.160083
0.131295
0.107089
0.0868678
0.0700827
0.0562367
0.0448853
0.0356353
0.0281425
0.022109
0.0172787
0.0134339
0.010391
0.00799618
0.006122
0.00466335
0.00353434
0.00266521
0.00199976
0.00149298
0.00110909
0.000819839
0.000603032
0.000441376
0.000321465
0.000232977
0.000168008
0.000120543
8.603e-05
6.10435e-05
4.3017e-05
3.0035e-05
2.06703e-05
1.3857e-05
8.79179e-06
4.85554e-06
1.55082e-06
0.148024
0.441177
0.725741
0.996313
1.24796
1.47639
1.67804
1.8502
1.99105
2.09965
2.17597
2.22077
2.23556
2.22244
2.18405
2.12339
2.04369
1.94832
1.84063
1.7239
1.6012
1.47538
1.34898
1.2242
1.10291
0.986628
0.87653
0.773482
0.678057
0.590571
0.511117
0.439602
0.375779
0.319287
0.269676
0.226439
0.189034
0.156905
0.1295
0.106284
0.0867462
0.0704113
0.0568412
0.0456387
0.0364477
0.0289529
0.0228777
0.0179825
0.0140609
0.0109376
0.00846417
0.00651649
0.00499138
0.00380378
0.00288409
0.00217575
0.00163316
0.00121975
0.000906454
0.000670288
0.000493201
0.000361108
0.000263089
0.00019073
0.000137583
9.87423e-05
7.04908e-05
5.00308e-05
3.52654e-05
2.46286e-05
1.69533e-05
1.13673e-05
7.2133e-06
3.98423e-06
1.2726e-06
0.116022
0.345821
0.568964
0.78126
0.97888
1.15847
1.31726
1.45312
1.56459
1.65092
1.71204
1.7485
1.76143
1.75245
1.72356
1.67707
1.61549
1.54143
1.45751
1.36629
1.27018
1.17142
1.07202
0.97373
0.878035
0.786152
0.699034
0.617383
0.541675
0.472179
0.408988
0.352045
0.30117
0.256091
0.216462
0.18189
0.151952
0.126214
0.104241
0.0856092
0.0699169
0.0567865
0.0458701
0.0368516
0.029447
0.0234047
0.0185037
0.014552
0.0113843
0.00885989
0.00685957
0.00528356
0.00404881
0.00308681
0.00234145
0.00176711
0.00132694
0.000991422
0.000737044
0.00054521
0.000401306
0.000293923
0.00021421
0.000155342
0.00011209
8.04692e-05
5.74619e-05
4.07944e-05
2.87621e-05
2.00916e-05
1.38332e-05
9.27707e-06
5.88781e-06
3.25245e-06
1.03893e-06
0.0906109
0.270099
0.444443
0.610402
0.765011
0.905668
1.03021
1.13698
1.22482
1.29313
1.34181
1.37128
1.38236
1.3763
1.35462
1.31911
1.27168
1.21437
1.14921
1.07819
1.00319
0.925981
0.848128
0.77102
0.695835
0.623542
0.554906
0.490494
0.430695
0.375738
0.32571
0.280579
0.240214
0.204411
0.172905
0.145393
0.121547
0.101027
0.0834936
0.0686146
0.0560726
0.04557
0.0368316
0.0296072
0.0236716
0.0188246
0.0148905
0.0117165
0.00917061
0.00714051
0.00553098
0.00426215
0.00326754
0.00249224
0.00189123
0.0014279
0.00107264
0.000801724
0.000596237
0.000441207
0.000324865
0.000238015
0.00017352
0.000125873
9.08532e-05
6.52422e-05
4.66014e-05
3.30928e-05
2.3338e-05
1.63065e-05
1.12295e-05
7.53237e-06
4.78124e-06
2.64147e-06
8.43795e-07
0.0705065
0.210184
0.345898
0.47515
0.595651
0.705388
0.802687
0.886246
0.955166
1.00896
1.04754
1.07118
1.08054
1.07652
1.06031
1.03326
0.996863
0.952668
0.902254
0.847163
0.788869
0.728738
0.668008
0.607767
0.548944
0.492307
0.438465
0.387875
0.340853
0.297589
0.258161
0.222555
0.190678
0.162374
0.137444
0.115654
0.0967505
0.0804699
0.066547
0.0547223
0.044747
0.0363874
0.0294269
0.0236683
0.0189337
0.0150649
0.0119227
0.00938602
0.00735015
0.00572577
0.00443718
0.00342081
0.00262368
0.00200199
0.00151983
0.00114794
0.000862669
0.000645026
0.000479875
0.000355225
0.000261644
0.000191759
0.000139842
0.000101474
7.32642e-05
5.26264e-05
3.76005e-05
2.67081e-05
1.884e-05
1.31668e-05
9.06931e-06
6.0845e-06
3.86279e-06
2.13429e-06
6.81815e-07
0.0546589
0.162951
0.268199
0.368483
0.462039
0.54732
0.623027
0.688154
0.741996
0.784164
0.814574
0.833434
0.841216
0.838619
0.826536
0.806001
0.778156
0.744195
0.705332
0.662762
0.617624
0.570983
0.523802
0.476932
0.431103
0.38692
0.344866
0.305306
0.268494
0.234588
0.203656
0.175693
0.150634
0.128364
0.108729
0.0915527
0.0766386
0.0637831
0.0527803
0.0434283
0.035533
0.0289115
0.0233944
0.0188266
0.0150686
0.0119959
0.0094987
0.00748143
0.0058615
0.00456825
0.00354177
0.00273171
0.00209605
0.00160006
0.00121519
0.000918203
0.000690285
0.000516324
0.000384263
0.000284547
0.000209656
0.000153707
0.000112128
8.13885e-05
5.87796e-05
4.2234e-05
3.01835e-05
2.14454e-05
1.51314e-05
1.05774e-05
7.2873e-06
4.88988e-06
3.10484e-06
1.7157e-06
5.48127e-07
0.0422135
0.125856
0.207167
0.284676
0.357033
0.423045
0.481716
0.532266
0.574147
0.60705
0.630903
0.645852
0.652248
0.65062
0.641643
0.626105
0.604876
0.578872
0.549025
0.516254
0.481441
0.445406
0.4089
0.372584
0.337029
0.302709
0.270004
0.239204
0.210514
0.18406
0.159902
0.138042
0.118434
0.100992
0.0856006
0.0721244
0.0604135
0.0503108
0.0416573
0.0342965
0.0280777
0.0228584
0.0185066
0.0149013
0.0119331
0.0095046
0.00752978
0.00593354
0.00465097
0.00362647
0.00281287
0.00217047
0.00166611
0.00127238
0.000966714
0.000730737
0.000549559
0.000411212
0.000306144
0.000226778
0.000167147
0.000122581
8.94499e-05
6.49473e-05
4.69193e-05
3.37217e-05
2.41065e-05
1.71321e-05
1.20911e-05