/*--------------------------------*- C++ -*----------------------------------*\
  =========                 |
  \\      /  F ield         | OpenFOAM: The Open Source CFD Toolbox
   \\    /   O peration     | Website:  https://openfoam.org
    \\  /    A nd           | Version:  10
     \\/     M anipulation  |
\*---------------------------------------------------------------------------*/
FoamFile
{
    format      ascii;
    class       volScalarField;
    location    "30";
    object      gradTz;
}
// * * * * * * * * * * * * * * * * * * * * * * * * * * * * * * * * * * * * * //

dimensions      [0 -1 0 1 0 0 0];

internalField   nonuniform List<scalar> 
11250
(
-14587.1
-4354.05
-1683.67
-819.799
-456.277
-266.019
-154.326
-86.8156
-46.7767
-24.0033
-11.7039
-5.4197
-2.38452
-0.997749
-0.397519
-0.151
-0.0547576
-0.0189797
-0.00629507
-0.00199991
-0.000609121
-0.000177999
-4.99415e-05
-1.34622e-05
-3.48866e-06
-8.69688e-07
-2.08694e-07
-4.82447e-08
-1.0749e-08
-2.30939e-09
-4.74171e-10
-9.00046e-11
-1.53666e-11
1.09762e-12
0
0
0
0
0
0
4.39047e-12
0
-3.29285e-12
0
-1.09762e-12
0
0
2.19524e-12
0
-1.09762e-12
0
1.31714e-11
0
-1.4269e-11
0
0
0
0
0
0
0
0
-2.08547e-11
-1.09762e-12
2.19523e-11
1.09762e-12
-1.09762e-12
0
1.09762e-12
-1.09762e-12
0
-5.48809e-12
-1.09762e-12
6.5857e-12
0
-8955.73
-5469.2
-3228.06
-1957.28
-1205.22
-735.389
-435.971
-248.045
-134.518
-69.3076
-33.8852
-15.7211
-6.92657
-2.90137
-1.15693
-0.439774
-0.159569
-0.0553364
-0.0183618
-0.00583579
-0.0017781
-0.000519787
-0.000145888
-3.93386e-05
-1.01977e-05
-2.54299e-06
-6.10402e-07
-1.41136e-07
-3.14566e-08
-6.76242e-09
-1.39617e-09
-2.55745e-10
-4.17095e-11
-9.87856e-12
-3.29285e-12
8.78094e-12
4.39047e-12
0
-4.39047e-12
-8.78094e-12
6.5857e-12
9.87856e-12
-8.78094e-12
-5.48809e-12
6.5857e-12
5.48809e-12
-6.5857e-12
2.19523e-12
3.29285e-12
0
0
0
0
0
0
0
-2.19523e-12
0
5.48809e-12
-1.09762e-12
-3.29285e-12
1.09762e-12
1.09762e-12
8.78094e-12
-1.09762e-12
-1.20738e-11
1.09762e-12
2.19523e-12
-1.09762e-12
-4.39047e-12
1.09762e-12
4.39047e-12
0
-8.78094e-12
8.78094e-12
-6697.61
-5250.46
-3754.14
-2570.87
-1700.15
-1080.82
-656.342
-378.931
-207.43
-107.545
-52.81
-24.5792
-10.8552
-4.55538
-1.81915
-0.692326
-0.251459
-0.0872789
-0.0289833
-0.00921801
-0.00281044
-0.000822071
-0.000230864
-6.22879e-05
-1.61557e-05
-4.0309e-06
-9.68077e-07
-2.23929e-07
-4.99229e-08
-1.07457e-08
-2.21499e-09
-4.2368e-10
-8.34189e-11
-1.09762e-12
-1.09762e-12
-8.78094e-12
-1.09762e-12
7.68332e-12
1.09762e-12
0
1.09762e-12
-1.09762e-12
0
1.09762e-12
0
0
0
0
0
-1.64643e-11
1.09762e-12
1.53666e-11
8.78094e-12
-1.31714e-11
-1.53666e-11
-2.19523e-12
6.58571e-12
9.87856e-12
0
5.48809e-12
0
0
1.09762e-12
5.48809e-12
-1.09762e-12
-5.48809e-12
0
0
0
-1.09762e-11
0
1.20738e-11
1.09762e-12
-1.09762e-12
-1.09762e-12
-5707
-4940.55
-3891.07
-2863.71
-1988.46
-1305.12
-809.288
-473.787
-261.841
-136.671
-67.4421
-31.5045
-13.953
-5.86837
-2.34769
-0.894805
-0.325411
-0.113071
-0.037585
-0.0119645
-0.00365085
-0.00106875
-0.000300368
-8.11008e-05
-2.10507e-05
-5.25596e-06
-1.26315e-06
-2.924e-07
-6.52281e-08
-1.40374e-08
-2.92186e-09
-5.76249e-10
-9.87856e-11
3.29285e-12
0
-8.78094e-12
0
-3.29285e-12
1.09762e-12
1.09762e-12
1.09762e-12
1.09762e-12
1.09762e-12
-2.19523e-12
9.87856e-12
0
-8.78094e-12
0
-1.09762e-12
0
0
3.29285e-12
1.09762e-11
-4.39047e-12
-1.09762e-11
0
3.29285e-12
1.09762e-12
-2.19523e-12
0
-1.09762e-12
0
-1.20738e-11
-1.09762e-12
1.4269e-11
1.09762e-12
0
0
-2.19524e-12
0
8.78094e-12
1.09762e-12
-9.87856e-12
0
0
-5248.4
-4730.55
-3906.6
-2993.69
-2143.26
-1438.09
-905.83
-536.28
-298.793
-156.897
-77.7735
-36.4576
-16.191
-6.82469
-2.73523
-1.0441
-0.380204
-0.132263
-0.0440104
-0.0140234
-0.00428305
-0.00125492
-0.000352995
-9.53904e-05
-2.47803e-05
-6.19224e-06
-1.48938e-06
-3.45028e-07
-7.70297e-08
-1.65905e-08
-3.44103e-09
-6.78328e-10
-1.25128e-10
-1.09762e-11
-1.09762e-12
0
0
0
-1.09762e-12
0
-1.09762e-12
1.09762e-12
0
0
-1.09762e-12
1.09762e-12
0
1.09762e-12
-2.19523e-12
0
1.09762e-12
0
0
0
0
0
-5.48809e-12
0
1.20738e-11
0
-8.78094e-12
0
2.19523e-12
1.09762e-12
5.48809e-12
-2.19523e-12
-4.39047e-12
1.09762e-12
2.19523e-12
-5.48809e-12
-2.19523e-12
4.39047e-12
0
-5.48809e-12
5.48809e-12
-5031.32
-4610.73
-3894.04
-3048.54
-2221.64
-1511.5
-962.186
-574.219
-321.884
-169.815
-84.4852
-39.7186
-17.6804
-7.46679
-2.99737
-1.14573
-0.417712
-0.145466
-0.0484516
-0.0154528
-0.00472381
-0.00138526
-0.000389989
-0.000105476
-2.74233e-05
-6.85841e-06
-1.65097e-06
-3.82791e-07
-8.55088e-08
-1.84016e-08
-3.82081e-09
-7.65039e-10
-1.55862e-10
-2.85381e-11
0
0
-2.08547e-11
0
2.08547e-11
5.48809e-12
-1.09762e-12
4.39047e-12
1.09762e-12
-9.87856e-12
-1.09762e-12
-4.39047e-12
1.09762e-12
4.39047e-12
4.39047e-12
8.78094e-12
-3.29285e-12
-9.87856e-12
0
0
2.19524e-12
0
-5.48809e-12
-6.58571e-12
6.5857e-12
4.39047e-12
-1.09762e-12
0
4.39047e-12
0
-5.48809e-12
1.09762e-12
0
0
0
-1.09762e-11
-2.19523e-12
4.39047e-12
1.09762e-12
4.39047e-12
3.29285e-12
-4928.64
-4547.79
-3880.57
-3070.74
-2259.49
-1549.69
-992.941
-595.652
-335.276
-177.462
-88.5233
-41.7066
-18.5983
-7.86611
-3.16166
-1.20986
-0.441523
-0.153895
-0.0513016
-0.0163748
-0.0050095
-0.00147016
-0.000414205
-0.000112111
-2.91705e-05
-7.30094e-06
-1.75886e-06
-4.08096e-07
-9.12537e-08
-1.9666e-08
-4.08643e-09
-8.21018e-10
-1.36105e-10
-9.87856e-12
-3.29285e-12
0
0
1.09762e-11
1.31714e-11
-1.09762e-11
-1.31714e-11
-9.87856e-12
0
9.87856e-12
0
0
1.09762e-12
-2.19524e-12
-3.29285e-12
-5.48809e-12
1.09762e-12
7.68332e-12
-3.29285e-12
-1.09762e-12
4.39047e-12
0
-2.19524e-12
0
2.19523e-12
2.19524e-12
0
1.09762e-12
-1.09762e-12
-1.09762e-12
1.09762e-12
-1.09762e-12
0
0
0
0
0
-4.39047e-12
-1.09762e-12
0
5.48809e-12
-4880.87
-4516.58
-3871.62
-3079.39
-2277.02
-1568.53
-1008.74
-606.998
-342.532
-181.683
-90.7862
-42.8347
-19.1247
-8.09716
-3.25746
-1.24752
-0.455593
-0.158905
-0.0530054
-0.016929
-0.00518221
-0.00152177
-0.000429009
-0.00011619
-3.02507e-05
-7.57606e-06
-1.82627e-06
-4.24021e-07
-9.48824e-08
-2.04574e-08
-4.26534e-09
-8.55044e-10
-1.40495e-10
-2.08547e-11
0
4.39047e-12
0
0
1.09762e-12
-5.48809e-12
1.09762e-12
6.5857e-12
-9.87856e-12
-6.5857e-12
9.87856e-12
6.5857e-12
-1.09762e-12
0
-1.09762e-12
0
1.09762e-12
-1.09762e-12
-1.09762e-12
1.09762e-12
-7.68332e-12
0
-5.48809e-12
0
8.78094e-12
0
2.19523e-12
0
3.29285e-12
0
0
-1.09762e-12
0
-1.20738e-11
0
1.31714e-11
1.09762e-12
-8.78094e-12
-8.78094e-12
4.39047e-12
1.09762e-11
-4859.22
-4501.83
-3866.63
-3082.63
-2284.82
-1577.38
-1016.42
-612.654
-346.223
-183.866
-91.973
-43.4332
-19.4068
-8.22205
-3.30965
-1.26817
-0.463361
-0.161688
-0.0539574
-0.0172406
-0.00527987
-0.00155113
-0.000437481
-0.000118538
-3.08765e-05
-7.73641e-06
-1.86579e-06
-4.33403e-07
-9.70338e-08
-2.09371e-08
-4.34876e-09
-8.6163e-10
-1.54764e-10
-2.85381e-11
-9.87856e-12
-8.78094e-12
-9.87856e-12
9.87856e-12
8.78094e-12
0
0
0
0
-4.39047e-12
-9.87856e-12
5.48809e-12
8.78094e-12
0
-6.58571e-12
-1.09762e-12
5.48809e-12
2.19524e-12
0
0
5.48809e-12
2.305e-11
-5.48809e-12
-2.41476e-11
0
1.09762e-12
1.09762e-12
-1.09762e-12
0
0
1.09762e-12
6.58571e-12
-1.09762e-12
-6.5857e-12
1.09762e-12
-1.09762e-12
0
1.09762e-12
0
-1.09762e-12
0
-4849.73
-4495.18
-3864.13
-3083.8
-2288.17
-1581.35
-1019.96
-615.319
-347.993
-184.929
-92.5579
-43.7314
-19.5486
-8.28537
-3.3363
-1.27879
-0.467381
-0.163138
-0.0544562
-0.0174048
-0.00533165
-0.00156679
-0.00044203
-0.000119807
-3.12167e-05
-7.82413e-06
-1.88754e-06
-4.38581e-07
-9.8217e-08
-2.12213e-08
-4.44755e-09
-8.96753e-10
-1.47081e-10
-1.20738e-11
-3.29285e-12
-1.09762e-12
0
0
-3.29285e-12
1.09762e-12
4.39047e-12
-1.09762e-12
0
-3.29285e-12
0
3.29285e-12
0
1.09762e-12
-1.20738e-11
-2.19523e-12
1.31714e-11
1.09762e-12
-4.39047e-12
1.09762e-12
3.29285e-12
1.4269e-11
0
-1.75619e-11
0
3.29285e-12
0
9.87856e-12
0
-9.87856e-12
0
1.64643e-11
1.09762e-12
-1.64643e-11
-1.09762e-12
2.19524e-12
5.48809e-12
-2.19524e-12
-5.48809e-12
0
0
-4845.71
-4492.31
-3862.97
-3084.21
-2289.54
-1583.05
-1021.51
-616.51
-348.797
-185.417
-92.8297
-43.8714
-19.6158
-8.31558
-3.34911
-1.28393
-0.469337
-0.163847
-0.0547018
-0.0174861
-0.00535746
-0.00157465
-0.000444324
-0.000120451
-3.13904e-05
-7.86918e-06
-1.89879e-06
-4.41287e-07
-9.88481e-08
-2.13618e-08
-4.47938e-09
-9.18706e-10
-1.67935e-10
5.48809e-12
1.75619e-11
0
-1.09762e-12
-1.09762e-12
-5.48809e-12
-4.39047e-12
5.48809e-12
5.48809e-12
2.19523e-12
-1.09762e-12
0
0
-4.39047e-12
0
2.19523e-12
-3.29285e-12
0
3.29285e-12
2.19523e-12
1.09762e-12
0
2.19523e-12
-1.09762e-12
-2.19523e-12
-2.19523e-12
1.09762e-12
1.09762e-12
0
-1.09762e-12
-1.09762e-12
1.09762e-12
1.09762e-12
1.09762e-12
-1.09762e-12
0
0
1.09762e-12
-6.5857e-12
0
5.48809e-12
0
-4844.08
-4491.13
-3862.46
-3084.34
-2290.09
-1583.74
-1022.16
-617.016
-349.142
-185.63
-92.9493
-43.9335
-19.6458
-8.32919
-3.35492
-1.28627
-0.470235
-0.164174
-0.0548158
-0.0175241
-0.00536957
-0.00157835
-0.000445414
-0.000120759
-3.14738e-05
-7.89093e-06
-1.90427e-06
-4.42613e-07
-9.91555e-08
-2.14365e-08
-4.48047e-09
-9.05534e-10
-1.72326e-10
-1.09762e-12
2.19523e-12
-1.64643e-11
-1.4269e-11
-8.78094e-12
1.4269e-11
2.52452e-11
0
-1.53666e-11
1.09762e-12
0
-1.09762e-12
-1.09762e-12
-5.48809e-12
0
4.39047e-12
1.09762e-12
0
0
0
1.09762e-12
1.09762e-12
-2.19523e-12
0
-1.09762e-12
-1.09762e-12
3.29285e-12
1.4269e-11
-2.19523e-12
-1.31714e-11
0
-9.87856e-12
-2.08547e-11
8.78094e-12
2.19523e-11
0
0
0
0
-2.19524e-12
-3.29285e-12
5.48809e-12
-4843.44
-4490.66
-3862.25
-3084.38
-2290.3
-1584.01
-1022.42
-617.22
-349.284
-185.718
-92.9992
-43.9596
-19.6585
-8.335
-3.35741
-1.28729
-0.470625
-0.164317
-0.0548658
-0.0175408
-0.00537494
-0.00158
-0.000445901
-0.000120897
-3.15115e-05
-7.90082e-06
-1.90677e-06
-4.43236e-07
-9.9308e-08
-2.14573e-08
-4.49255e-09
-8.98949e-10
-1.54764e-10
-2.52452e-11
-9.87856e-12
-3.29285e-12
0
1.09762e-12
0
2.19524e-12
0
3.29285e-12
8.78094e-12
-5.48809e-12
-7.68332e-12
1.09762e-12
5.48809e-12
-1.09762e-12
-6.58571e-12
0
2.19524e-12
1.09762e-12
-2.19523e-12
-1.09762e-12
0
0
0
0
0
2.19524e-12
-2.19524e-12
6.5857e-12
0
-1.86595e-11
-4.39047e-12
9.87856e-12
3.29285e-12
3.29285e-12
1.09762e-12
0
-1.09762e-12
0
0
1.09762e-12
-1.09762e-12
-4843.2
-4490.48
-3862.17
-3084.39
-2290.37
-1584.12
-1022.52
-617.299
-349.339
-185.753
-93.019
-43.97
-19.6636
-8.33735
-3.35843
-1.2877
-0.470785
-0.164377
-0.0548866
-0.0175478
-0.00537719
-0.0015807
-0.000446107
-0.000120956
-3.15276e-05
-7.90505e-06
-1.90784e-06
-4.43518e-07
-9.93871e-08
-2.14672e-08
-4.47499e-09
-9.06632e-10
-1.70131e-10
-2.63428e-11
0
1.64643e-11
3.29285e-12
-1.09762e-11
-2.19523e-12
-6.5857e-12
0
5.48809e-12
-2.19523e-12
0
2.19523e-12
-2.19523e-12
1.09762e-12
3.29285e-12
-1.09762e-12
0
1.09762e-12
0
-2.19523e-12
1.09762e-12
0
-1.09762e-12
-8.78094e-12
-8.78094e-12
4.39047e-12
8.78094e-12
4.39047e-12
0
-1.20738e-11
-1.09762e-12
1.31714e-11
2.19523e-12
-2.19523e-12
-1.09762e-12
1.09762e-12
-1.09762e-12
-4.39047e-12
-7.68332e-12
3.29285e-12
1.31714e-11
-3.29285e-12
-4843.12
-4490.41
-3862.14
-3084.4
-2290.4
-1584.15
-1022.55
-617.328
-349.359
-185.766
-93.0265
-43.974
-19.6656
-8.33826
-3.35882
-1.28786
-0.470848
-0.1644
-0.0548948
-0.0175506
-0.00537808
-0.00158098
-0.00044619
-0.000120979
-3.1534e-05
-7.90674e-06
-1.90827e-06
-4.43626e-07
-9.94178e-08
-2.14694e-08
-4.46401e-09
-8.97851e-10
-1.74521e-10
-2.74404e-11
0
1.09762e-12
0
0
0
0
-8.78094e-12
-1.09762e-12
9.87856e-12
-4.39047e-12
-5.48809e-12
5.48809e-12
4.39047e-12
0
0
0
0
0
2.19523e-12
0
-2.19524e-12
5.48809e-12
0
-5.48809e-12
1.09762e-12
0
-2.19524e-12
0
1.09762e-12
0
4.39047e-12
0
-4.39047e-12
-1.09762e-12
0
-4.39047e-12
4.39047e-12
5.48809e-12
-4.39047e-12
1.09762e-12
-1.09762e-12
-4843.09
-4490.39
-3862.13
-3084.4
-2290.41
-1584.17
-1022.57
-617.338
-349.367
-185.77
-93.0292
-43.9755
-19.6663
-8.3386
-3.35897
-1.28792
-0.470871
-0.164409
-0.0548979
-0.0175516
-0.00537842
-0.00158108
-0.000446221
-0.000120988
-3.15365e-05
-7.90739e-06
-1.90844e-06
-4.43652e-07
-9.94123e-08
-2.14672e-08
-4.46401e-09
-9.15413e-10
-1.74521e-10
-1.31714e-11
0
-8.78094e-12
5.48809e-12
0
-5.48809e-12
7.68332e-12
1.09762e-12
-1.4269e-11
0
1.4269e-11
-5.48809e-12
2.19524e-12
5.48809e-12
-7.68332e-12
0
6.5857e-12
-3.29285e-12
-9.87856e-12
3.29285e-12
-5.48809e-12
-2.19524e-12
1.53666e-11
-1.09762e-12
0
5.48809e-12
1.09762e-12
-8.78094e-12
-1.09762e-12
5.48809e-12
8.78094e-12
0
-8.78094e-12
0
-4.39047e-12
0
-6.58571e-12
-1.09762e-12
9.87856e-12
9.87856e-12
1.09762e-12
-8.78094e-12
-4843.08
-4490.38
-3862.13
-3084.4
-2290.41
-1584.17
-1022.57
-617.342
-349.369
-185.772
-93.0301
-43.976
-19.6666
-8.33872
-3.35902
-1.28794
-0.47088
-0.164412
-0.054899
-0.017552
-0.00537854
-0.00158112
-0.000446232
-0.000120991
-3.15374e-05
-7.90765e-06
-1.90849e-06
-4.43664e-07
-9.94156e-08
-2.14584e-08
-4.46511e-09
-9.14315e-10
-1.844e-10
-1.97571e-11
1.09762e-11
2.19523e-12
5.48809e-12
0
-5.48809e-12
0
-1.09762e-12
1.09762e-12
1.09762e-12
-1.09762e-12
0
0
3.29285e-12
0
-4.39047e-12
0
1.09762e-12
0
-1.09762e-12
1.09762e-12
-4.39047e-12
-1.09762e-12
6.5857e-12
8.78094e-12
-1.09762e-12
-8.78094e-12
0
0
-2.19523e-12
4.39047e-12
2.19523e-12
-5.48809e-12
-2.19523e-12
0
2.19523e-12
-6.5857e-12
-4.39047e-12
6.5857e-12
4.39047e-12
8.78094e-12
-7.68332e-12
-4843.08
-4490.38
-3862.13
-3084.4
-2290.41
-1584.17
-1022.57
-617.343
-349.37
-185.772
-93.0304
-43.9762
-19.6667
-8.33876
-3.35904
-1.28795
-0.470883
-0.164413
-0.0548994
-0.0175521
-0.00537858
-0.00158113
-0.000446236
-0.000120992
-3.15377e-05
-7.9077e-06
-1.9085e-06
-4.43682e-07
-9.94112e-08
-2.14683e-08
-4.49365e-09
-9.1212e-10
-1.53666e-10
-1.09762e-12
1.09762e-12
-9.87856e-12
0
4.39047e-12
-4.39047e-12
0
-4.39047e-12
0
1.4269e-11
-1.53666e-11
-4.39047e-12
1.4269e-11
0
1.09762e-12
0
-1.09762e-12
1.09762e-12
0
-1.09762e-12
0
2.19524e-12
0
-1.09762e-12
0
-1.09762e-12
0
0
1.09762e-12
-1.09762e-12
0
0
0
-1.09762e-12
0
1.09762e-12
-1.4269e-11
4.39047e-12
9.87856e-12
-3.29285e-12
4.39047e-12
-1.09762e-12
-4843.07
-4490.38
-3862.13
-3084.4
-2290.41
-1584.17
-1022.57
-617.343
-349.37
-185.773
-93.0306
-43.9762
-19.6667
-8.33877
-3.35905
-1.28795
-0.470884
-0.164413
-0.0548995
-0.0175522
-0.0053786
-0.00158114
-0.000446237
-0.000120993
-3.15378e-05
-7.90774e-06
-1.90852e-06
-4.4367e-07
-9.9386e-08
-2.14683e-08
-4.49694e-09
-9.06632e-10
-1.55862e-10
-1.31714e-11
0
0
0
-1.09762e-12
1.09762e-12
1.09762e-12
0
1.09762e-12
-1.09762e-12
-1.64643e-11
0
1.53666e-11
0
0
1.09762e-12
-1.09762e-12
1.09762e-12
0
-1.09762e-12
-1.09762e-12
0
1.09762e-12
-1.09762e-12
0
1.09762e-12
0
-3.29285e-12
0
3.29285e-12
0
1.09762e-12
8.78094e-12
0
-9.87856e-12
0
0
9.87856e-12
3.29285e-12
-1.4269e-11
-2.19523e-12
3.29285e-12
-4843.07
-4490.38
-3862.13
-3084.4
-2290.41
-1584.17
-1022.57
-617.344
-349.37
-185.773
-93.0306
-43.9762
-19.6667
-8.33877
-3.35905
-1.28796
-0.470884
-0.164413
-0.0548995
-0.0175522
-0.0053786
-0.00158114
-0.000446237
-0.000120993
-3.15378e-05
-7.90776e-06
-1.90852e-06
-4.43664e-07
-9.9398e-08
-2.14518e-08
-4.47169e-09
-9.14315e-10
-1.69033e-10
-1.4269e-11
-1.09762e-12
0
0
0
0
0
5.48809e-12
-1.09762e-12
-5.48809e-12
1.09762e-12
1.09762e-12
1.09762e-11
-1.09762e-12
-2.19523e-12
0
-8.78094e-12
0
0
0
1.09762e-12
1.09762e-12
-2.19523e-12
1.09762e-12
-1.09762e-12
2.19523e-12
-2.19523e-12
-1.09762e-11
3.29285e-12
7.68332e-12
-8.78094e-12
-1.09762e-11
9.87856e-12
9.87856e-12
5.48809e-12
-1.09762e-12
-4.39047e-12
0
-1.09762e-12
0
0
1.09762e-12
-4843.07
-4490.38
-3862.13
-3084.4
-2290.41
-1584.17
-1022.57
-617.344
-349.37
-185.773
-93.0306
-43.9762
-19.6667
-8.33878
-3.35905
-1.28796
-0.470884
-0.164413
-0.0548995
-0.0175522
-0.0053786
-0.00158114
-0.000446238
-0.000120993
-3.15378e-05
-7.90776e-06
-1.90853e-06
-4.4367e-07
-9.94057e-08
-2.14639e-08
-4.4695e-09
-8.91265e-10
-1.6135e-10
-1.75619e-11
0
0
-7.68332e-12
0
8.78094e-12
0
5.48809e-12
0
-6.58571e-12
0
-9.87856e-12
2.19524e-12
8.78094e-12
-1.09762e-12
-8.78094e-12
1.09762e-12
7.68332e-12
0
0
1.09762e-12
2.19524e-12
1.86595e-11
-4.39047e-12
-1.75619e-11
1.09762e-12
0
-1.09762e-11
-1.09762e-12
1.31714e-11
0
-2.19523e-12
0
1.09762e-12
-1.09762e-12
0
-2.19524e-12
-2.19523e-12
6.58571e-12
-3.29285e-12
-7.68332e-12
8.78094e-12
-4843.07
-4490.38
-3862.13
-3084.4
-2290.41
-1584.17
-1022.57
-617.344
-349.37
-185.773
-93.0306
-43.9762
-19.6667
-8.33878
-3.35905
-1.28796
-0.470884
-0.164413
-0.0548996
-0.0175522
-0.0053786
-0.00158114
-0.000446238
-0.000120993
-3.15378e-05
-7.90776e-06
-1.90852e-06
-4.43661e-07
-9.94123e-08
-2.14804e-08
-4.4695e-09
-8.86875e-10
-1.55862e-10
-9.87856e-12
-1.09762e-12
-4.39047e-12
-6.58571e-12
5.48809e-12
5.48809e-12
1.09762e-12
6.5857e-12
-1.09762e-12
-6.58571e-12
-4.39047e-12
0
4.39047e-12
-3.29285e-12
2.19524e-12
3.29285e-12
-2.19523e-12
2.19524e-12
0
1.09762e-12
0
-3.29285e-12
9.87856e-12
0
-9.87856e-12
0
0
0
0
-1.64643e-11
0
1.64643e-11
0
1.09762e-12
0
0
-1.31714e-11
0
1.20738e-11
-3.29285e-12
1.09762e-12
2.19524e-12
-4843.07
-4490.38
-3862.13
-3084.4
-2290.41
-1584.17
-1022.57
-617.344
-349.37
-185.773
-93.0306
-43.9762
-19.6667
-8.33878
-3.35905
-1.28796
-0.470884
-0.164413
-0.0548996
-0.0175522
-0.0053786
-0.00158114
-0.000446238
-0.000120993
-3.15378e-05
-7.90775e-06
-1.90853e-06
-4.43675e-07
-9.94189e-08
-2.14815e-08
-4.46291e-09
-8.62727e-10
-1.53666e-10
-2.63428e-11
0
1.09762e-12
0
0
0
-1.09762e-12
-1.09762e-12
3.29285e-12
-2.19523e-12
-3.29285e-12
2.19523e-12
1.09762e-12
0
0
0
0
1.09762e-12
0
-1.09762e-12
1.09762e-12
0
-1.09762e-12
-7.68332e-12
-1.09762e-12
7.68332e-12
1.09762e-12
0
0
0
-1.09762e-12
-4.39047e-12
1.20738e-11
4.39047e-12
-1.09762e-11
-2.19523e-12
-1.09762e-12
2.19523e-12
0
0
-1.09762e-11
1.20738e-11
-4843.07
-4490.38
-3862.13
-3084.4
-2290.41
-1584.17
-1022.57
-617.344
-349.37
-185.773
-93.0306
-43.9762
-19.6667
-8.33878
-3.35905
-1.28796
-0.470884
-0.164413
-0.0548996
-0.0175522
-0.0053786
-0.00158114
-0.000446238
-0.000120993
-3.15379e-05
-7.90777e-06
-1.90853e-06
-4.43669e-07
-9.94057e-08
-2.14848e-08
-4.47279e-09
-8.75899e-10
-1.48178e-10
-1.31714e-11
-1.09762e-12
-8.78094e-12
0
0
0
0
0
1.09762e-12
0
-1.09762e-12
0
1.09762e-12
-3.29285e-12
-1.09762e-12
4.39047e-12
0
0
5.48809e-12
0
-7.68332e-12
3.29285e-12
2.19523e-12
7.68332e-12
1.09762e-12
-1.20738e-11
0
-1.09762e-12
-1.09762e-12
-2.19524e-12
0
1.75619e-11
0
-1.4269e-11
0
1.09762e-12
-5.48809e-12
-2.19523e-12
6.58571e-12
-1.09762e-12
-1.09762e-12
2.19524e-12
-4843.07
-4490.38
-3862.13
-3084.4
-2290.41
-1584.17
-1022.57
-617.344
-349.37
-185.773
-93.0306
-43.9762
-19.6667
-8.33878
-3.35905
-1.28796
-0.470884
-0.164413
-0.0548996
-0.0175522
-0.0053786
-0.00158114
-0.000446238
-0.000120993
-3.15378e-05
-7.90776e-06
-1.90855e-06
-4.43657e-07
-9.94046e-08
-2.14881e-08
-4.47499e-09
-8.86875e-10
-1.48178e-10
-7.68332e-12
-4.39047e-12
-2.19524e-12
4.39047e-12
-2.19524e-12
2.19524e-12
0
1.09762e-12
-1.09762e-12
-3.29285e-12
2.19523e-12
-2.19524e-12
-1.09762e-12
-3.29285e-12
-1.09762e-12
6.58571e-12
-5.48809e-12
-8.78094e-12
5.48809e-12
8.78094e-12
-1.31714e-11
6.58571e-12
1.53666e-11
-2.19524e-12
-3.29285e-12
-5.48809e-12
2.19524e-12
1.09762e-12
-3.29285e-12
4.39047e-12
4.39047e-12
-4.39047e-12
-2.19524e-12
0
0
0
0
0
0
1.09762e-12
1.09762e-12
-2.19524e-12
-4843.07
-4490.38
-3862.13
-3084.4
-2290.41
-1584.17
-1022.57
-617.344
-349.37
-185.773
-93.0306
-43.9762
-19.6667
-8.33878
-3.35905
-1.28796
-0.470884
-0.164413
-0.0548996
-0.0175522
-0.0053786
-0.00158114
-0.000446238
-0.000120993
-3.15378e-05
-7.90776e-06
-1.90854e-06
-4.4369e-07
-9.94266e-08
-2.14782e-08
-4.46072e-09
-8.79192e-10
-1.53666e-10
-1.64643e-11
1.09762e-12
1.09762e-11
1.09762e-12
-9.87856e-12
-1.09762e-12
0
-1.09762e-12
-1.09762e-12
0
0
1.75619e-11
1.09762e-12
-2.08547e-11
0
3.29285e-12
0
-2.19523e-12
-1.09762e-12
3.29285e-12
0
0
0
8.78094e-12
-2.19523e-12
-5.48809e-12
1.09762e-12
-2.19523e-12
0
2.19523e-12
-2.19523e-12
-2.19523e-12
4.39047e-12
1.09762e-12
-3.29285e-12
0
0
2.19523e-12
0
-2.19523e-12
-5.48809e-12
5.48809e-12
-4843.07
-4490.38
-3862.13
-3084.4
-2290.41
-1584.17
-1022.57
-617.344
-349.37
-185.773
-93.0306
-43.9762
-19.6667
-8.33878
-3.35905
-1.28796
-0.470884
-0.164413
-0.0548996
-0.0175522
-0.0053786
-0.00158114
-0.000446238
-0.000120993
-3.15379e-05
-7.90776e-06
-1.90851e-06
-4.43676e-07
-9.9431e-08
-2.1476e-08
-4.4684e-09
-8.93461e-10
-1.59155e-10
-1.20738e-11
-4.39047e-12
0
-4.39047e-12
-5.48809e-12
5.48809e-12
0
1.09762e-12
-1.09762e-12
0
0
1.09762e-12
0
3.29285e-12
0
-4.39047e-12
0
0
0
0
0
0
2.19523e-12
0
-1.09762e-12
0
0
-2.19524e-12
0
-4.39047e-12
-1.09762e-12
5.48809e-12
1.09762e-12
0
2.19523e-12
-1.09762e-12
-6.58571e-12
0
2.19524e-12
-1.4269e-11
4.39047e-12
1.31714e-11
-4843.07
-4490.38
-3862.13
-3084.4
-2290.41
-1584.17
-1022.57
-617.344
-349.37
-185.773
-93.0306
-43.9762
-19.6667
-8.33878
-3.35905
-1.28796
-0.470884
-0.164413
-0.0548996
-0.0175522
-0.0053786
-0.00158114
-0.000446238
-0.000120993
-3.15379e-05
-7.90775e-06
-1.90851e-06
-4.43655e-07
-9.94134e-08
-2.14968e-08
-4.48377e-09
-8.90168e-10
-1.49276e-10
-1.64643e-11
-7.68332e-12
-1.09762e-12
-1.31714e-11
-1.09762e-12
1.31714e-11
2.19524e-12
5.48809e-12
-1.09762e-12
-6.58571e-12
-4.39047e-12
0
5.48809e-12
0
8.78094e-12
2.19524e-12
-1.20738e-11
0
-5.48809e-12
-1.09762e-12
5.48809e-12
0
2.19523e-12
0
1.09762e-12
0
-2.19524e-12
0
-5.48809e-12
-1.75619e-11
4.39047e-12
1.86595e-11
0
-1.09762e-12
1.09762e-12
0
0
0
0
0
8.78094e-12
-8.78094e-12
-4843.07
-4490.38
-3862.13
-3084.4
-2290.41
-1584.17
-1022.57
-617.344
-349.37
-185.773
-93.0306
-43.9762
-19.6667
-8.33878
-3.35905
-1.28796
-0.470884
-0.164413
-0.0548996
-0.0175522
-0.0053786
-0.00158114
-0.000446238
-0.000120993
-3.15379e-05
-7.90775e-06
-1.90851e-06
-4.43656e-07
-9.93882e-08
-2.14562e-08
-4.48267e-09
-9.05534e-10
-1.6574e-10
-1.97571e-11
0
-1.09762e-12
-1.09762e-12
-7.68332e-12
1.09762e-12
8.78094e-12
-1.09762e-12
-1.09762e-12
0
1.09762e-12
1.09762e-12
6.5857e-12
0
1.09762e-12
-2.19523e-12
-8.78094e-12
2.19523e-12
1.09762e-12
2.19523e-12
-1.09762e-12
-2.19523e-12
0
0
0
-1.09762e-12
0
1.09762e-12
-1.09762e-12
0
1.09762e-12
-3.29285e-12
0
3.29285e-12
9.87856e-12
3.29285e-12
-8.78094e-12
-2.41476e-11
-1.09762e-12
1.64643e-11
2.19523e-12
2.19523e-12
-4843.07
-4490.38
-3862.13
-3084.4
-2290.41
-1584.17
-1022.57
-617.344
-349.37
-185.773
-93.0306
-43.9762
-19.6667
-8.33878
-3.35905
-1.28796
-0.470884
-0.164413
-0.0548996
-0.0175522
-0.0053786
-0.00158114
-0.000446238
-0.000120993
-3.15379e-05
-7.90775e-06
-1.9085e-06
-4.43649e-07
-9.93849e-08
-2.14738e-08
-4.47828e-09
-8.87973e-10
-1.60252e-10
-1.86595e-11
0
-6.58571e-12
-4.39047e-12
3.29285e-12
3.29285e-12
4.39047e-12
-3.29285e-12
-2.19524e-12
1.09762e-12
-3.29285e-12
-2.19524e-12
2.305e-11
-1.09762e-12
-1.64643e-11
0
-1.09762e-12
0
1.4269e-11
0
-1.53666e-11
0
1.20738e-11
-1.09762e-12
-9.87856e-12
0
-1.09762e-12
1.09762e-12
0
0
0
0
0
9.87856e-12
2.19523e-12
-9.87856e-12
-6.58571e-12
-1.09762e-12
5.48809e-12
0
0
0
-4843.07
-4490.38
-3862.13
-3084.4
-2290.41
-1584.17
-1022.57
-617.344
-349.37
-185.773
-93.0306
-43.9762
-19.6667
-8.33878
-3.35905
-1.28796
-0.470884
-0.164413
-0.0548996
-0.0175522
-0.0053786
-0.00158114
-0.000446238
-0.000120993
-3.15379e-05
-7.90777e-06
-1.90852e-06
-4.43652e-07
-9.9398e-08
-2.14683e-08
-4.46291e-09
-8.76996e-10
-1.51471e-10
-1.97571e-11
-2.19523e-12
-2.19524e-12
-1.09762e-12
0
1.09762e-12
0
-1.09762e-12
0
0
0
0
9.87856e-12
0
-9.87856e-12
0
-2.19523e-12
-9.87856e-12
1.09762e-12
1.09762e-11
1.09762e-12
2.19524e-12
8.78094e-12
-1.31714e-11
-9.87856e-12
1.20738e-11
-1.09762e-12
-4.39047e-12
-3.29285e-12
4.39047e-12
3.29285e-12
0
0
1.09762e-12
-1.09762e-12
7.68332e-12
1.09762e-12
-4.39047e-12
0
-2.19524e-12
0
-2.19524e-12
-4843.07
-4490.38
-3862.13
-3084.4
-2290.41
-1584.17
-1022.57
-617.344
-349.37
-185.773
-93.0306
-43.9762
-19.6667
-8.33878
-3.35905
-1.28796
-0.470884
-0.164413
-0.0548996
-0.0175522
-0.0053786
-0.00158114
-0.000446238
-0.000120993
-3.15379e-05
-7.90775e-06
-1.90851e-06
-4.43664e-07
-9.94035e-08
-2.14782e-08
-4.48267e-09
-8.67118e-10
-1.40495e-10
-3.40261e-11
0
5.48809e-12
1.09762e-12
0
0
-6.5857e-12
0
6.5857e-12
0
-6.5857e-12
0
5.48809e-12
-1.09762e-12
1.09762e-12
0
-5.48809e-12
-3.29285e-12
3.29285e-12
7.68332e-12
0
-2.19523e-12
0
-1.75619e-11
-9.87856e-12
5.48809e-12
5.48809e-12
1.20738e-11
4.39047e-12
-2.19523e-12
0
-7.68332e-12
0
1.4269e-11
0
-4.39047e-12
-7.68332e-12
-1.09762e-12
-1.09762e-12
0
1.64643e-11
-6.5857e-12
-4843.07
-4490.38
-3862.13
-3084.4
-2290.41
-1584.17
-1022.57
-617.344
-349.37
-185.773
-93.0306
-43.9762
-19.6667
-8.33878
-3.35905
-1.28796
-0.470884
-0.164413
-0.0548996
-0.0175522
-0.0053786
-0.00158114
-0.000446238
-0.000120993
-3.15379e-05
-7.90775e-06
-1.9085e-06
-4.43656e-07
-9.94123e-08
-2.15056e-08
-4.50133e-09
-8.91265e-10
-1.20738e-10
6.58571e-12
0
0
-1.20738e-11
-1.09762e-12
1.31714e-11
0
3.29285e-12
4.39047e-12
0
-7.68332e-12
-1.09762e-12
1.09762e-12
0
0
-2.19524e-12
-2.19523e-12
4.39047e-12
1.09762e-12
-1.09762e-12
-1.09762e-12
8.78094e-12
3.29285e-12
-1.09762e-11
-9.87856e-12
1.09762e-12
-5.48809e-12
1.09762e-12
1.31714e-11
-5.48809e-12
-1.09762e-12
6.5857e-12
0
1.09762e-12
0
-1.09762e-12
-1.31714e-11
0
6.58571e-12
-4.39047e-12
6.5857e-12
4.39047e-12
-4843.07
-4490.38
-3862.13
-3084.4
-2290.41
-1584.17
-1022.57
-617.344
-349.37
-185.773
-93.0306
-43.9762
-19.6667
-8.33878
-3.35905
-1.28796
-0.470884
-0.164413
-0.0548996
-0.0175522
-0.0053786
-0.00158114
-0.000446238
-0.000120993
-3.15379e-05
-7.90776e-06
-1.90853e-06
-4.43657e-07
-9.94112e-08
-2.14946e-08
-4.49035e-09
-8.94558e-10
-1.24031e-10
-3.29285e-12
-1.09762e-12
3.29285e-12
-9.87856e-12
-7.68332e-12
9.87856e-12
5.48809e-12
0
3.29285e-12
-4.39047e-12
0
-4.39047e-12
0
-5.48809e-12
-1.09762e-12
1.31714e-11
-2.19523e-12
-4.39047e-12
3.29285e-12
-7.68332e-12
1.09762e-12
1.53666e-11
1.09762e-12
-1.75619e-11
8.78094e-12
1.31714e-11
-8.78094e-12
2.19524e-12
0
-2.19524e-12
-1.09762e-12
1.09762e-12
-3.29285e-12
4.39047e-12
4.39047e-12
1.09762e-12
-2.19524e-12
-5.48809e-12
1.09762e-12
1.09762e-12
-1.09762e-12
0
-4843.07
-4490.38
-3862.13
-3084.4
-2290.41
-1584.17
-1022.57
-617.344
-349.37
-185.773
-93.0306
-43.9762
-19.6667
-8.33878
-3.35905
-1.28796
-0.470884
-0.164413
-0.0548996
-0.0175522
-0.0053786
-0.00158114
-0.000446238
-0.000120993
-3.15378e-05
-7.90773e-06
-1.90852e-06
-4.43666e-07
-9.94211e-08
-2.14957e-08
-4.47938e-09
-8.81387e-10
-1.47081e-10
-2.19523e-11
1.09762e-12
1.09762e-12
0
7.68332e-12
-5.48809e-12
-8.78094e-12
5.48809e-12
8.78094e-12
-1.4269e-11
-8.78094e-12
1.53666e-11
1.09762e-12
-2.19523e-12
1.09762e-12
-9.87856e-12
0
1.4269e-11
0
-7.68332e-12
1.09762e-12
-1.09762e-11
-1.09762e-12
9.87856e-12
0
3.29285e-12
-1.09762e-12
-2.19523e-12
-1.09762e-12
-5.48809e-12
-2.19523e-12
7.68332e-12
4.39047e-12
1.31714e-11
0
-1.31714e-11
8.78094e-12
1.31714e-11
-1.09762e-11
-1.09762e-11
-1.09762e-12
1.09762e-12
-4843.07
-4490.38
-3862.13
-3084.4
-2290.41
-1584.17
-1022.57
-617.344
-349.37
-185.773
-93.0306
-43.9762
-19.6667
-8.33878
-3.35905
-1.28796
-0.470884
-0.164413
-0.0548996
-0.0175522
-0.0053786
-0.00158114
-0.000446238
-0.000120993
-3.15378e-05
-7.90774e-06
-1.9085e-06
-4.43653e-07
-9.94233e-08
-2.14979e-08
-4.48926e-09
-9.01144e-10
-1.60252e-10
-8.78094e-12
-2.19523e-12
-8.78094e-12
-1.09762e-12
-1.09762e-12
1.09762e-12
8.78094e-12
-4.39047e-12
-4.39047e-12
9.87856e-12
-5.48809e-12
-4.39047e-12
9.87856e-12
9.87856e-12
-1.09762e-11
-1.4269e-11
0
7.68332e-12
1.4269e-11
7.68332e-12
-1.4269e-11
0
4.39047e-12
-8.78094e-12
-5.48809e-12
0
0
0
0
0
-3.29285e-12
0
4.39047e-12
0
-1.09762e-12
-8.78094e-12
-6.58571e-12
1.53666e-11
5.48809e-12
-8.78094e-12
0
3.29285e-12
-4843.07
-4490.38
-3862.13
-3084.4
-2290.41
-1584.17
-1022.57
-617.344
-349.37
-185.773
-93.0306
-43.9762
-19.6667
-8.33878
-3.35905
-1.28796
-0.470884
-0.164413
-0.0548996
-0.0175522
-0.0053786
-0.00158114
-0.000446238
-0.000120993
-3.15378e-05
-7.90774e-06
-1.90851e-06
-4.43669e-07
-9.94233e-08
-2.15045e-08
-4.49584e-09
-8.92363e-10
-1.40495e-10
-2.19524e-11
-1.75619e-11
-1.09762e-12
4.39047e-12
-1.09762e-12
2.19524e-12
0
0
5.48809e-12
5.48809e-12
-6.5857e-12
-3.29285e-12
1.09762e-12
-1.09762e-12
0
0
-1.09762e-12
8.78094e-12
1.4269e-11
-8.78094e-12
-1.53666e-11
0
1.53666e-11
0
-1.31714e-11
0
-1.09762e-12
-3.29285e-12
-1.09762e-12
4.39047e-12
0
0
0
0
1.09762e-12
-1.09762e-12
-7.68332e-12
1.09762e-12
7.68332e-12
-8.78094e-12
0
7.68332e-12
-4843.07
-4490.38
-3862.13
-3084.4
-2290.41
-1584.17
-1022.57
-617.344
-349.37
-185.773
-93.0306
-43.9762
-19.6667
-8.33878
-3.35905
-1.28796
-0.470884
-0.164413
-0.0548996
-0.0175522
-0.0053786
-0.00158114
-0.000446238
-0.000120993
-3.15378e-05
-7.90773e-06
-1.90852e-06
-4.43668e-07
-9.93991e-08
-2.14881e-08
-4.50462e-09
-9.18706e-10
-1.6135e-10
-8.78094e-12
0
0
-1.09762e-12
2.19523e-12
1.31714e-11
0
-7.68332e-12
-9.87856e-12
-5.48809e-12
9.87856e-12
0
-1.09762e-12
1.09762e-12
-1.09762e-12
0
0
1.09762e-12
0
0
-1.09762e-12
-9.87856e-12
0
4.39047e-12
0
5.48809e-12
0
-2.19523e-12
5.48809e-12
2.19523e-12
-4.39047e-12
0
-1.09762e-12
0
7.68332e-12
7.68332e-12
-6.5857e-12
-9.87856e-12
-7.68332e-12
-2.19523e-12
3.29285e-12
7.68332e-12
-4843.07
-4490.38
-3862.13
-3084.4
-2290.41
-1584.17
-1022.57
-617.344
-349.37
-185.773
-93.0306
-43.9762
-19.6667
-8.33878
-3.35905
-1.28796
-0.470884
-0.164413
-0.0548996
-0.0175522
-0.0053786
-0.00158114
-0.000446238
-0.000120993
-3.15378e-05
-7.90773e-06
-1.90853e-06
-4.43671e-07
-9.94013e-08
-2.14815e-08
-4.48267e-09
-9.09925e-10
-1.76716e-10
-2.08547e-11
0
1.09762e-12
0
0
0
-1.09762e-12
0
1.09762e-12
0
0
1.09762e-12
-1.09762e-12
3.29285e-12
0
-2.19524e-12
0
3.29285e-12
2.19524e-12
-7.68332e-12
-2.19524e-12
3.29285e-12
-1.09762e-12
-1.09762e-12
1.09762e-12
1.09762e-12
0
-1.09762e-12
1.09762e-12
-1.09762e-12
0
-4.39047e-12
0
4.39047e-12
1.09762e-12
4.39047e-12
0
-5.48809e-12
-4.39047e-12
1.09762e-12
4.39047e-12
0
-4843.07
-4490.38
-3862.13
-3084.4
-2290.41
-1584.17
-1022.57
-617.344
-349.37
-185.773
-93.0306
-43.9762
-19.6667
-8.33878
-3.35905
-1.28796
-0.470884
-0.164413
-0.0548996
-0.0175522
-0.0053786
-0.00158114
-0.000446238
-0.000120993
-3.15378e-05
-7.90773e-06
-1.90852e-06
-4.43672e-07
-9.93991e-08
-2.14859e-08