/*--------------------------------*- C++ -*----------------------------------*\
  =========                 |
  \\      /  F ield         | OpenFOAM: The Open Source CFD Toolbox
   \\    /   O peration     | Website:  https://openfoam.org
    \\  /    A nd           | Version:  10
     \\/     M anipulation  |
\*---------------------------------------------------------------------------*/
FoamFile
{
    format      ascii;
    class       volScalarField;
    location    "353";
    object      T;
}
// * * * * * * * * * * * * * * * * * * * * * * * * * * * * * * * * * * * * * //

dimensions      [0 0 0 1 0 0 0];

internalField   nonuniform List<scalar> 
11250
(
249.849
167.578
139.395
126.993
120.232
115.948
112.954
110.723
108.986
107.591
106.445
105.489
104.68
103.992
103.402
102.896
102.459
102.083
101.759
101.481
101.242
101.038
100.864
100.716
100.59
100.485
100.396
100.322
100.261
100.21
100.168
100.134
100.107
100.084
100.066
100.052
100.04
100.031
100.024
100.018
100.014
100.01
100.008
100.006
100.004
100.003
100.002
100.002
100.001
100.001
100.001
100
100
100
100
100
100
100
100
100
100
100
100
100
100
100
100
100
100
100
100
100
100
100
100
331.521
248.651
202.413
175.352
158.236
146.572
138.121
131.7
126.643
122.552
119.175
116.346
113.95
111.906
110.153
108.644
107.344
106.223
105.257
104.426
103.713
103.103
102.582
102.14
101.765
101.45
101.185
100.964
100.78
100.629
100.504
100.402
100.319
100.252
100.197
100.154
100.12
100.093
100.071
100.054
100.041
100.031
100.023
100.018
100.013
100.01
100.007
100.005
100.004
100.003
100.002
100.001
100.001
100.001
100
100
100
100
100
100
100
100
100
100
100
100
100
100
100
100
100
100
100
100
100
359.109
293.108
246.283
213.803
190.835
174.041
161.323
151.383
143.41
136.879
131.44
126.856
122.956
119.616
116.743
114.266
112.128
110.282
108.69
107.32
106.143
105.134
104.274
103.543
102.923
102.401
101.963
101.597
101.293
101.042
100.835
100.666
100.528
100.417
100.327
100.256
100.199
100.153
100.118
100.09
100.068
100.052
100.039
100.029
100.022
100.016
100.012
100.009
100.006
100.005
100.003
100.002
100.002
100.001
100.001
100.001
100
100
100
100
100
100
100
100
100
100
100
100
100
100
100
100
100
100
100
370.925
318.417
275.855
242.806
217.341
197.528
181.852
169.22
158.864
150.248
142.992
136.825
131.544
127.001
123.079
119.687
116.752
114.214
112.021
110.131
108.506
107.113
105.923
104.911
104.054
103.331
102.724
102.216
101.795
101.446
101.159
100.925
100.734
100.579
100.455
100.355
100.276
100.213
100.164
100.125
100.095
100.072
100.054
100.04
100.03
100.022
100.016
100.012
100.009
100.006
100.005
100.003
100.002
100.002
100.001
100.001
100.001
100
100
100
100
100
100
100
100
100
100
100
100
100
100
100
100
100
100
377.114
333.819
295.979
264.314
238.305
217.01
199.488
184.945
172.755
162.444
153.651
146.105
139.597
133.965
129.081
124.842
121.163
117.974
115.214
112.831
110.78
109.019
107.514
106.233
105.147
104.23
103.46
102.816
102.281
101.838
101.474
101.176
100.933
100.737
100.578
100.452
100.351
100.271
100.208
100.159
100.121
100.092
100.069
100.051
100.038
100.028
100.021
100.015
100.011
100.008
100.006
100.004
100.003
100.002
100.001
100.001
100.001
100
100
100
100
100
100
100
100
100
100
100
100
100
100
100
100
100
100
380.842
343.817
310.008
280.28
254.695
232.886
214.336
198.526
184.995
173.36
163.312
154.601
147.028
140.434
134.687
129.679
125.319
121.528
118.241
115.396
112.944
110.837
109.034
107.497
106.193
105.092
104.167
103.393
102.749
102.216
101.777
101.418
101.125
100.889
100.698
100.545
100.424
100.327
100.252
100.192
100.146
100.111
100.083
100.062
100.046
100.034
100.025
100.018
100.013
100.01
100.007
100.005
100.004
100.002
100.002
100.001
100.001
100.001
100
100
100
100
100
100
100
100
100
100
100
100
100
100
100
100
100
383.298
350.659
320.056
292.241
267.479
245.704
226.675
210.082
195.613
182.98
171.935
162.264
153.791
146.364
139.857
134.163
129.187
124.849
121.077
117.808
114.984
112.554
110.472
108.695
107.186
105.911
104.839
103.941
103.194
102.576
102.066
101.649
101.309
101.034
100.812
100.635
100.493
100.381
100.293
100.224
100.17
100.129
100.097
100.072
100.054
100.04
100.029
100.021
100.016
100.011
100.008
100.006
100.004
100.003
100.002
100.001
100.001
100.001
100
100
100
100
100
100
100
100
100
100
100
100
100
100
100
100
100
385.013
355.536
327.432
301.308
277.476
256.014
236.847
219.812
204.714
191.351
179.533
169.089
159.867
151.733
144.568
138.271
132.748
127.918
123.708
120.051
116.886
114.159
111.819
109.82
108.12
106.683
105.473
104.459
103.616
102.916
102.34
101.868
101.483
101.172
100.921
100.719
100.559
100.432
100.332
100.254
100.193
100.146
100.11
100.082
100.061
100.045
100.033
100.024
100.018
100.013
100.009
100.007
100.005
100.003
100.002
100.002
100.001
100.001
100.001
100
100
100
100
100
100
100
100
100
100
100
100
100
100
100
100
386.258
359.12
332.961
308.263
285.329
264.3
245.193
227.944
212.443
198.56
186.157
175.1
165.266
156.539
148.814
141.994
135.991
130.726
126.124
122.117
118.644
115.646
113.069
110.866
108.991
107.403
106.065
104.944
104.01
103.236
102.597
102.074
101.647
101.302
101.023
100.799
100.621
100.481
100.369
100.283
100.215
100.163
100.122
100.091
100.068
100.05
100.037
100.027
100.02
100.014
100.01
100.007
100.005
100.004
100.003
100.002
100.001
100.001
100.001
100
100
100
100
100
100
100
100
100
100
100
100
100
100
100
100
387.187
361.816
337.176
313.655
291.53
270.963
252.021
234.704
218.962
204.718
191.878
180.344
170.017
160.8
152.602
145.335
138.916
133.269
128.321
124.003
120.253
117.01
114.22
111.83
109.795
108.069
106.614
105.395
104.377
103.533
102.837
102.266
101.8
101.423
101.118
100.874
100.68
100.526
100.404
100.309
100.235
100.178
100.134
100.1
100.074
100.055
100.041
100.03
100.022
100.016
100.011
100.008
100.006
100.004
100.003
100.002
100.001
100.001
100.001
100
100
100
100
100
100
100
100
100
100
100
100
100
100
100
100
387.894
363.878
340.432
317.875
296.452
276.329
257.601
240.303
224.429
209.941
196.781
184.879
174.159
164.543
155.951
148.305
141.53
135.552
130.3
125.708
121.712
118.251
115.269
112.712
110.531
108.681
107.119
105.809
104.715
103.808
103.059
102.444
101.942
101.535
101.207
100.944
100.734
100.568
100.437
100.334
100.254
100.192
100.145
100.108
100.081
100.06
100.044
100.032
100.023
100.017
100.012
100.009
100.006
100.004
100.003
100.002
100.001
100.001
100.001
100
100
100
100
100
100
100
100
100
100
100
100
100
100
100
100
388.439
365.476
342.975
321.202
300.376
280.658
262.155
244.927
228.994
214.347
200.956
188.773
177.744
167.803
158.886
150.923
143.845
137.583
132.069
127.237
123.025
119.371
116.218
113.511
111.2
109.237
107.58
106.187
105.025
104.059
103.262
102.607
102.072
101.639
101.289
101.008
100.784
100.607
100.467
100.357
100.272
100.206
100.155
100.116
100.086
100.064
100.047
100.034
100.025
100.018
100.013
100.009
100.007
100.005
100.003
100.002
100.002
100.001
100.001
100.001
100
100
100
100
100
100
100
100
100
100
100
100
100
100
100
388.865
366.728
344.976
323.84
303.515
284.155
265.871
248.737
232.791
218.045
204.489
192.095
180.823
170.623
161.439
153.213
145.879
139.375
133.635
128.596
124.196
120.372
117.069
114.23
111.803
109.74
107.996
106.53
105.305
104.287
103.446
102.755
102.191
101.733
101.363
101.067
100.83
100.642
100.494
100.378
100.288
100.218
100.164
100.123
100.091
100.068
100.05
100.036
100.026
100.019
100.014
100.01
100.007
100.005
100.003
100.002
100.002
100.001
100.001
100.001
100
100
100
100
100
100
100
100
100
100
100
100
100
100
100
389.2
367.714
346.561
325.942
306.034
286.983
268.901
251.87
235.939
221.136
207.464
194.912
183.451
173.044
163.644
155.199
147.653
140.944
135.012
129.795
125.231
121.261
117.826
114.87
112.342
110.19
108.37
106.839
105.558
104.493
103.613
102.89
102.299
101.819
101.431
101.12
100.871
100.674
100.519
100.397
100.302
100.229
100.172
100.129
100.096
100.071
100.052
100.038
100.028
100.02
100.014
100.01
100.007
100.005
100.004
100.003
100.002
100.001
100.001
100.001
100
100
100
100
100
100
100
100
100
100
100
100
100
100
100
389.466
368.497
347.821
327.621
308.059
289.271
271.37
254.441
238.541
223.708
209.957
197.287
185.68
175.109
165.535
156.911
149.188
142.308
136.213
130.844
126.141
122.044
118.495
115.438
112.82
110.59
108.703
107.114
105.784
104.678
103.763
103.01
102.395
101.896
101.492
101.168
100.909
100.704
100.542
100.415
100.316
100.239
100.18
100.135
100.1
100.074
100.055
100.04
100.029
100.021
100.015
100.011
100.008
100.005
100.004
100.003
100.002
100.001
100.001
100.001
100
100
100
100
100
100
100
100
100
100
100
100
100
100
100
389.676
369.119
348.827
328.967
309.688
291.123
273.38
256.546
240.685
225.841
212.037
199.28
187.561
176.86
167.146
158.377
150.507
143.485
137.254
131.756
126.934
122.728
119.081
115.936
113.24
110.943
108.997
107.357
105.984
104.841
103.896
103.118
102.481
101.964
101.546
101.211
100.942
100.73
100.562
100.43
100.328
100.248
100.187
100.14
100.104
100.077
100.057
100.041
100.03
100.022
100.016
100.011
100.008
100.006
100.004
100.003
100.002
100.001
100.001
100.001
100
100
100
100
100
100
100
100
100
100
100
100
100
100
100
389.844
369.616
349.631
330.046
311.001
292.621
275.014
258.267
242.448
227.604
213.765
200.944
189.14
178.337
168.51
159.623
151.634
144.493
138.148
132.543
127.62
123.322
119.591
116.371
113.608
111.252
109.255
107.571
106.161
104.986
104.013
103.213
102.558
102.025
101.595
101.249
100.972
100.753
100.58
100.444
100.338
100.256
100.193
100.144
100.107
100.08
100.059
100.043
100.031
100.023
100.016
100.012
100.008
100.006
100.004
100.003
100.002
100.001
100.001
100.001
100
100
100
100
100
100
100
100
100
100
100
100
100
100
100
389.978
370.012
350.275
330.912
312.057
293.832
276.341
259.671
243.892
229.055
215.194
202.327
190.458
179.576
169.659
160.677
152.59
145.352
138.913
133.217
128.21
123.833
120.031
116.747
113.928
111.521
109.48
107.758
106.315
105.112
104.116
103.296
102.625
102.079
101.637
101.282
100.999
100.774
100.596
100.456
100.348
100.263
100.198
100.148
100.111
100.082
100.06
100.044
100.032
100.023
100.017
100.012
100.009
100.006
100.004
100.003
100.002
100.001
100.001
100.001
100
100
100
100
100
100
100
100
100
100
100
100
100
100
100
390.086
370.33
350.791
331.607
312.908
294.809
277.415
260.813
245.071
230.245
216.371
203.471
191.553
180.608
170.621
161.563
153.396
146.079
139.561
133.791
128.713
124.271
120.409
117.071
114.203
111.753
109.674
107.92
106.449
105.222
104.206
103.369
102.683
102.125
101.674
101.312
101.022
100.792
100.61
100.467
100.356
100.269
100.203
100.152
100.113
100.084
100.062
100.045
100.033
100.024
100.017
100.012
100.009
100.006
100.004
100.003
100.002
100.001
100.001
100.001
100
100
100
100
100
100
100
100
100
100
100
100
100
100
100
390.171
370.583
351.203
332.164
313.591
295.597
278.285
261.739
246.032
231.218
217.337
204.414
192.458
181.466
171.422
162.303
154.072
146.69
140.109
134.277
129.14
124.644
120.731
117.347
114.438
111.952
109.841
108.059
106.564
105.317
104.283
103.431
102.734
102.166
101.707
101.337
101.042
100.807
100.622
100.476
100.363
100.275
100.207
100.155
100.116
100.086
100.063
100.046
100.034
100.024
100.018
100.013
100.009
100.006
100.004
100.003
100.002
100.001
100.001
100.001
100
100
100
100
100
100
100
100
100
100
100
100
100
100
100
390.239
370.786
351.533
332.611
314.139
296.231
278.986
262.489
246.812
232.011
218.127
205.187
193.203
182.173
172.086
162.918
154.636
147.201
140.567
134.685
129.5
124.958
121.003
117.581
114.638
112.122
109.984
108.178
106.663
105.398
104.35
103.486
102.778
102.201
101.735
101.359
101.059
100.821
100.633
100.485
100.369
100.28
100.211
100.158
100.118
100.087
100.064
100.047
100.034
100.025
100.018
100.013
100.009
100.006
100.005
100.003
100.002
100.002
100.001
100.001
100
100
100
100
100
100
100
100
100
100
100
100
100
100
100
390.294
370.947
351.796
332.967
314.579
296.74
279.55
263.094
247.443
232.654
218.77
205.818
193.813
182.755
172.633
163.426
155.103
147.625
140.949
135.025
129.801
125.222
121.233
117.779
114.807
112.265
110.105
108.279
106.747
105.467
104.406
103.532
102.815
102.231
101.758
101.378
101.074
100.833
100.642
100.492
100.375
100.284
100.214
100.16
100.119
100.088
100.065
100.048
100.035
100.025
100.018
100.013
100.009
100.007
100.005
100.003
100.002
100.002
100.001
100.001
100
100
100
100
100
100
100
100
100
100
100
100
100
100
100
390.337
371.076
352.006
333.252
314.93
297.148
280.003
263.58
247.952
233.174
219.291
206.331
194.31
183.23
173.081
163.843
155.488
147.976
141.266
135.308
130.052
125.442
121.424
117.944
114.949
112.386
110.206
108.365
106.818
105.526
104.454
103.571
102.847
102.257
101.779
101.394
101.087
100.842
100.649
100.498
100.379
100.287
100.217
100.162
100.121
100.09
100.066
100.048
100.035
100.025
100.018
100.013
100.009
100.007
100.005
100.003
100.002
100.002
100.001
100.001
100.001
100
100
100
100
100
100
100
100
100
100
100
100
100
100
390.372
371.178
352.173
333.479
315.21
297.473
280.365
263.97
248.36
233.593
219.712
206.747
194.714
183.617
173.447
164.185
155.803
148.265
141.527
135.542
130.259
125.624
121.583
118.082
115.067
112.487
110.292
108.436
106.877
105.575
104.495
103.604
102.873
102.278
101.796
101.408
101.098
100.851
100.656
100.503
100.383
100.29
100.219
100.164
100.122
100.091
100.067
100.049
100.036
100.026
100.019
100.013
100.009
100.007
100.005
100.003
100.002
100.002
100.001
100.001
100.001
100
100
100
100
100
100
100
100
100
100
100
100
100
100
390.399
371.259
352.306
333.659
315.432
297.732
280.654
264.282
248.688
233.929
220.05
207.081
195.04
183.93
173.743
164.463
156.06
148.5
141.74
135.734
130.429
125.775
121.715
118.196
115.165
112.57
110.362
108.495
106.927
105.616
104.529
103.631
102.896
102.296
101.81
101.42
101.107
100.858
100.661
100.507
100.387
100.293
100.221
100.165
100.123
100.091
100.067
100.049
100.036
100.026
100.019
100.013
100.01
100.007
100.005
100.003
100.002
100.002
100.001
100.001
100.001
100
100
100
100
100
100
100
100
100
100
100
100
100
100
390.42
371.323
352.41
333.801
315.609
297.938
280.883
264.53
248.949
234.197
220.321
207.35
195.302
184.182
173.983
164.688
156.269
148.691
141.914
135.89
130.569
125.898
121.823
118.29
115.246
112.639
110.421
108.545
106.968
105.65
104.557
103.654
102.914
102.311
101.822
101.429
101.114
100.864
100.666
100.511
100.389
100.295
100.222
100.167
100.124
100.092
100.068
100.05
100.036
100.026
100.019
100.014
100.01
100.007
100.005
100.003
100.002
100.002
100.001
100.001
100.001
100
100
100
100
100
100
100
100
100
100
100
100
100
100
390.437
371.374
352.493
333.914
315.748
298.1
281.065
264.727
249.156
234.411
220.537
207.564
195.512
184.384
174.175
164.869
156.437
148.846
142.055
136.017
130.682
125.998
121.91
118.366
115.311
112.695
110.469
108.585
107.001
105.678
104.58
103.673
102.93
102.324
101.832
101.437
101.121
100.869
100.67
100.514
100.392
100.297
100.224
100.168
100.125
100.093
100.068
100.05
100.036
100.026
100.019
100.014
100.01
100.007
100.005
100.003
100.002
100.002
100.001
100.001
100.001
100
100
100
100
100
100
100
100
100
100
100
100
100
100
390.451
371.413
352.558
334.002
315.857
298.228
281.208
264.882
249.32
234.58
220.708
207.735
195.679
184.545
174.329
165.013
156.572
148.97
142.168
136.119
130.773
126.079
121.982
118.428
115.365
112.741
110.508
108.618
107.029
105.701
104.599
103.689
102.942
102.334
101.841
101.444
101.126
100.873
100.673
100.516
100.394
100.298
100.225
100.169
100.126
100.093
100.069
100.05
100.037
100.027
100.019
100.014
100.01
100.007
100.005
100.003
100.002
100.002
100.001
100.001
100.001
100
100
100
100
100
100
100
100
100
100
100
100
100
100
390.461
371.444
352.609
334.071
315.943
298.329
281.321
265.004
249.449
234.714
220.843
207.869
195.811
184.674
174.452
165.129
156.68
149.07
142.259
136.201
130.847
126.144
122.039
118.478
115.408
112.778
110.539
108.645
107.052
105.72
104.614
103.701
102.953
102.342
101.847
101.449
101.13
100.876
100.676
100.518
100.395
100.3
100.226
100.169
100.126
100.093
100.069
100.05
100.037
100.027
100.019
100.014
100.01
100.007
100.005
100.003
100.002
100.002
100.001
100.001
100.001
100
100
100
100
100
100
100
100
100
100
100
100
100
100
390.469
371.468
352.648
334.125
316.01
298.407
281.409
265.1
249.55
234.818
220.95
207.976
195.915
184.775
174.548
165.22
156.765
149.149
142.331
136.267
130.906
126.196
122.085
118.518
115.443
112.808
110.565
108.666
107.07
105.735
104.627
103.712
102.961
102.349
101.853
101.453
101.134
100.879
100.678
100.52
100.396
100.301
100.227
100.17
100.127
100.094
100.069
100.051
100.037
100.027
100.019
100.014
100.01
100.007
100.005
100.003
100.002
100.002
100.001
100.001
100.001
100
100
100
100
100
100
100
100
100
100
100
100
100
100
390.476
371.487
352.679
334.167
316.063
298.468
281.478
265.175
249.629
234.9
221.033
208.059
195.997
184.854
174.625
165.292
156.832
149.211
142.388
136.319
130.952
126.238
122.122
118.55
115.471
112.832
110.585
108.684
107.084
105.747
104.637
103.72
102.968
102.354
101.857
101.457
101.136
100.881
100.68
100.521
100.397
100.301
100.227
100.17
100.127
100.094
100.069
100.051
100.037
100.027
100.019
100.014
100.01
100.007
100.005
100.003
100.002
100.002
100.001
100.001
100.001
100
100
100
100
100
100
100
100
100
100
100
100
100
100
390.481
371.502
352.703
334.2
316.103
298.516
281.531
265.233
249.691
234.964
221.098
208.124
196.061
184.917
174.684
165.349
156.885
149.26
142.433
136.359
130.989
126.271
122.151
118.576
115.493
112.851
110.602
108.697
107.096
105.757
104.645
103.727
102.973
102.359
101.861
101.46
101.139
100.883
100.681
100.522
100.398
100.302
100.228
100.171
100.127
100.094
100.069
100.051
100.037
100.027
100.019
100.014
100.01
100.007
100.005
100.003
100.002
100.002
100.001
100.001
100.001
100
100
100
100
100
100
100
100
100
100
100
100
100
100
390.484
371.513
352.721
334.225
316.134
298.552
281.572
265.277
249.738
235.014
221.148
208.174
196.111
184.965
174.731
165.393
156.927
149.299
142.469
136.392
131.018
126.297
122.174
118.596
115.511
112.866
110.614
108.708
107.105
105.765
104.651
103.732
102.977
102.362
101.864
101.462
101.14
100.885
100.682
100.523
100.399
100.302
100.228
100.171
100.127
100.094
100.07
100.051
100.037
100.027
100.019
100.014
100.01
100.007
100.005
100.003
100.002
100.002
100.001
100.001
100.001
100
100
100
100
100
100
100
100
100
100
100
100
100
100
390.487
371.522
352.735
334.244
316.158
298.58
281.604
265.312
249.775
235.052
221.187
208.213
196.15
185.002
174.767
165.428
156.959
149.329
142.496
136.417
131.041
126.317
122.192
118.612
115.524
112.878
110.625
108.717
107.112
105.771
104.656
103.736
102.981
102.365
101.866
101.464
101.142
100.886
100.683
100.524
100.399
100.303
100.228
100.171
100.128
100.095
100.07
100.051
100.037
100.027
100.019
100.014
100.01
100.007
100.005
100.003
100.002
100.002
100.001
100.001
100.001
100
100
100
100
100
100
100
100
100
100
100
100
100
100
390.489
371.528
352.746
334.259
316.177
298.602
281.628
265.338
249.803
235.081
221.217
208.243
196.179
185.031
174.795
165.454
156.984
149.352
142.518
136.436
131.058
126.332
122.205
118.624
115.535
112.887
110.632
108.724
107.118
105.776
104.66
103.739
102.984
102.367
101.868
101.465
101.143
100.887
100.684
100.524
100.4
100.303
100.229
100.171
100.128
100.095
100.07
100.051
100.037
100.027
100.019
100.014
100.01
100.007
100.005
100.003
100.002
100.002
100.001
100.001
100.001
100
100
100
100
100
100
100
100
100
100
100
100
100
100
390.491
371.533
352.754
334.27
316.191
298.618
281.647
265.359
249.825
235.103
221.24
208.266
196.202
185.054
174.816
165.474
157.003
149.37
142.534
136.451
131.072
126.345
122.216
118.633
115.543
112.895
110.639
108.729
107.122
105.779
104.663
103.742
102.986
102.369
101.869
101.466
101.144
100.887
100.684
100.525
100.4
100.303
100.229
100.172
100.128
100.095
100.07
100.051
100.037
100.027
100.019
100.014
100.01
100.007
100.005
100.003
100.002
100.002
100.001
100.001
100.001
100
100
100
100
100
100
100
100
100
100
100
100
100
100
390.492
371.537
352.761
334.279
316.201
298.631
281.661
265.374
249.841
235.12
221.257
208.284
196.219
185.07
174.832
165.49
157.018
149.383
142.547
136.463
131.082
126.354
122.225
118.641
115.55
112.9
110.643
108.733
107.126
105.782
104.666
103.744
102.987
102.37
101.87
101.467
101.145
100.888
100.685
100.525
100.401
100.304
100.229
100.172
100.128
100.095
100.07
100.051
100.037
100.027
100.019
100.014
100.01
100.007
100.005
100.003
100.002
100.002
100.001
100.001
100.001
100
100
100
100
100
100
100
100
100
100
100
100
100
100
390.493
371.54
352.765
334.285
316.209
298.64
281.671
265.386
249.853
235.133
221.27
208.297
196.232
185.083
174.845
165.502
157.029
149.394
142.556
136.471
131.09
126.361
122.231
118.646
115.554
112.904
110.647
108.736
107.128
105.784
104.668
103.745
102.989
102.371
101.871
101.468
101.145
100.888
100.685
100.525
100.401
100.304
100.229
100.172
100.128
100.095
100.07
100.051
100.037
100.027
100.019
100.014
100.01
100.007
100.005
100.003
100.002
100.002
100.001
100.001
100.001
100
100
100
100
100
100
100
100
100
100
100
100
100
100
390.494
371.542
352.769
334.29
316.215
298.647
281.679
265.394
249.863
235.143
221.28
208.307
196.242
185.093
174.854
165.511
157.037
149.402
142.563
136.478
131.096
126.367
122.236
118.651
115.558
112.908
110.65
108.738
107.131
105.786
104.669
103.747
102.99
102.372
101.872
101.468
101.145
100.889
100.685
100.526
100.401
100.304
100.229
100.172
100.128
100.095
100.07
100.051
100.037
100.027
100.019
100.014
100.01
100.007
100.005
100.003
100.002
100.002
100.001
100.001
100.001
100
100
100
100
100
100
100
100
100
100
100
100
100
100
390.495
371.544
352.772
334.294
316.22
298.653
281.685
265.401
249.87
235.15
221.288
208.315
196.25
185.1
174.861
165.517
157.044
149.408
142.569
136.483
131.101
126.371
122.239
118.654
115.561
112.91
110.652
108.74
107.132
105.787
104.67
103.747
102.99
102.373
101.872
101.469
101.146
100.889
100.686
100.526
100.401
100.304
100.229
100.172
100.128
100.095
100.07
100.051
100.037
100.027
100.019
100.014
100.01
100.007
100.005
100.003
100.002
100.002
100.001
100.001
100.001
100
100
100
100
100
100
100
100
100
100
100
100
100
100
390.495
371.545
352.773
334.296
316.223
298.657
281.69
265.406
249.875
235.156
221.293
208.32
196.255
185.106
174.867
165.522
157.049
149.412
142.573
136.487
131.104
126.374
122.242
118.656
115.563
112.912
110.654
108.742
107.133
105.788
104.671
103.748
102.991
102.373
101.872
101.469
101.146
100.889
100.686
100.526
100.401
100.304
100.229
100.172
100.128
100.095
100.07
100.051
100.037
100.027
100.02
100.014
100.01
100.007
100.005
100.003
100.002
100.002
100.001
100.001
100.001
100
100
100
100
100
100
100
100
100
100
100
100
100
100
390.495
371.546
352.775
334.298
316.226
298.659
281.693
265.409
249.879
235.16
221.297
208.324
196.259
185.11
174.87
165.526
157.052
149.415
142.576
136.49
131.107
126.376
122.244
118.658
115.565
112.913
110.655
108.743
107.134
105.789
104.672
103.749
102.991
102.373
101.873
101.469
101.146
100.889
100.686
100.526
100.401
100.304
100.229
100.172
100.128
100.095
100.07
100.051
100.037
100.027
100.02
100.014
100.01
100.007
100.005
100.003
100.002
100.002
100.001
100.001
100.001
100
100
100
100
100
100
100
100
100
100
100
100
100
100
390.495
371.546
352.776
334.3
316.227
298.662
281.696
265.412
249.881
235.162
221.3
208.327
196.262
185.113
174.873
165.529
157.055
149.418
142.578
136.492
131.109
126.378
122.246
118.659
115.566
112.914
110.656
108.743
107.135
105.79
104.672
103.749
102.992
102.374
101.873
101.469
101.146
100.889
100.686
100.526
100.401
100.304
100.229
100.172
100.128
100.095
100.07
100.051
100.037
100.027
100.02
100.014
100.01
100.007
100.005
100.003
100.002
100.002
100.001
100.001
100.001
100
100
100
100
100
100
100
100
100
100
100
100
100
100
390.496
371.547
352.777
334.301
316.229
298.663
281.697
265.414
249.883
235.165
221.303
208.33
196.265
185.115
174.875
165.531
157.057
149.42
142.58
136.493
131.11
126.379
122.247
118.66
115.567
112.915
110.656
108.744
107.135
105.79
104.672
103.749
102.992
102.374
101.873
101.47
101.146
100.889
100.686
100.526
100.401
100.304
100.229
100.172
100.128
100.095
100.07
100.051
100.037
100.027
100.02
100.014
100.01
100.007
100.005
100.003
100.002
100.002
100.001
100.001
100.001
100
100
100
100
100
100
100
100
100
100
100
100
100
100
390.496
371.547
352.777
334.302
316.23
298.664
281.699
265.415
249.885
235.166
221.304
208.331
196.266
185.117
174.877
165.532
157.058
149.421
142.581
136.494
131.111
126.38
122.248
118.661
115.568
112.916
110.657
108.744
107.136
105.79
104.673
103.75
102.992
102.374
101.873
101.47
101.147
100.889
100.686
100.526
100.401
100.304
100.229
100.172
100.128
100.095
100.07
100.051
100.037
100.027
100.02
100.014
100.01
100.007
100.005
100.003
100.002
100.002
100.001
100.001
100.001
100
100
100
100
100
100
100
100
100
100
100
100
100
100
390.496
371.547
352.778
334.302
316.23
298.665
281.7
265.416
249.886
235.167
221.305
208.332
196.268
185.118
174.878
165.534
157.059
149.422
142.582
136.495
131.112
126.381
122.248
118.662
115.568
112.916
110.657
108.745
107.136
105.791
104.673
103.75
102.992
102.374
101.873
101.47
101.147
100.889
100.686
100.526
100.401
100.304
100.229
100.172
100.128
100.095
100.07
100.051
100.037
100.027
100.02
100.014
100.01
100.007
100.005
100.003
100.002
100.002
100.001
100.001
100.001
100
100
100
100
100
100
100
100
100
100
100
100
100
100
390.496
371.548
352.778
334.303
316.231
298.666
281.7
265.417
249.887
235.168
221.306
208.333
196.268
185.119
174.879
165.534
157.06
149.423
142.583
136.496
131.112
126.381
122.249
118.662
115.568
112.916
110.657
108.745
107.136
105.791
104.673
103.75
102.992
102.374
101.873
101.47
101.147
100.889
100.686
100.526
100.401
100.304
100.229
100.172
100.128
100.095
100.07
100.051
100.037
100.027
100.02
100.014
100.01
100.007
100.005
100.003
100.002
100.002
100.001
100.001
100.001
100
100
100
100
100
100
100
100
100
100
100
100
100
100
390.496
371.548
352.778
334.303
316.231
298.666
281.701
265.418
249.887
235.169
221.307
208.334
196.269
185.119
174.88
165.535
157.06
149.423
142.583
136.496
131.113
126.381
122.249
118.662
115.569
112.917
110.658
108.745
107.136
105.791
104.673
103.75
102.992
102.374
101.873
101.47
101.147
100.89
100.686
100.526
100.401
100.304
100.229
100.172
100.128
100.095
100.07
100.051
100.037
100.027
100.02
100.014
100.01
100.007
100.005
100.003
100.002
100.002
100.001
100.001
100.001
100
100
100
100
100
100
100
100
100
100
100
100
100
100
390.496
371.548
352.778
334.303
316.232
298.666
281.701
265.418
249.888
235.169
221.307
208.334
196.269
185.12
174.88
165.535
157.061
149.423
142.584
136.497
131.113
126.382
122.249
118.663
115.569
112.917
110.658
108.745
107.136
105.791
104.673
103.75
102.992
102.374
101.873
101.47
101.147
100.89
100.686
100.526
100.401
100.304
100.229
100.172
100.128
100.095
100.07
100.051
100.037
100.027
100.02
100.014
100.01
100.007
100.005
100.003
100.002
100.002
100.001
100.001
100.001
100
100
100
100
100
100
100
100
100
100
100
100
100
100
390.496
371.548
352.778
334.303
316.232
298.667
281.701
265.418
249.888
235.17
221.308
208.335
196.27
185.12
174.88
165.536
157.061
149.424
142.584
136.497
131.113
126.382
122.249
118.663
115.569
112.917
110.658
108.745
107.136
105.791
104.673
103.75
102.992
102.374
101.873
101.47
101.147
100.89
100.686
100.526
100.401
100.304
100.229
100.172
100.128
100.095
100.07
100.051
100.037
100.027
100.02
100.014
100.01
100.007
100.005
100.003
100.002
100.002
100.001
100.001
100.001
100
100
100
100
100
100
100
100
100
100
100
100
100
100
390.496
371.548
352.779
334.303
316.232
298.667
281.701
265.418
249.888
235.17
221.308
208.335
196.27
185.12
174.881
165.536
157.061
149.424
142.584
136.497
131.114
126.382
122.25
118.663
115.569
112.917
110.658
108.745
107.136
105.791
104.673
103.75
102.992
102.374
101.873
101.47
101.147
100.89
100.686
100.526
100.401
100.304
100.229
100.172
100.128
100.095
100.07
100.051
100.037
100.027
100.02
100.014
100.01
100.007
100.005
100.003
100.002
100.002
100.001
100.001
100.001
100
100
100
100
100
100
100
100
100
100
100
100
100
100
390.496
371.548
352.779
334.303
316.232
298.667
281.702
265.418
249.888
235.17
221.308
208.335
196.27
185.12
174.881
165.536
157.061
149.424
142.584
136.497
131.114
126.382
122.25
118.663
115.569
112.917
110.658
108.745
107.136
105.791
104.673
103.75
102.992
102.374
101.873
101.47
101.147
100.89
100.686
100.526
100.401
100.304
100.229
100.172
100.128
100.095
100.07
100.051
100.037
100.027
100.02
100.014
100.01
100.007
100.005
100.003
100.002
100.002
100.001
100.001
100.001
100
100
100
100
100
100
100
100
100
100
100
100
100
100
390.496
371.548
352.779
334.303
316.232
298.667
281.702
265.419
249.889
235.17
221.308
208.335
196.27
185.12
174.881
165.536
157.061
149.424
142.584
136.497
131.114
126.382
122.25
118.663
115.569
112.917
110.658
108.745
107.136
105.791
104.673
103.75
102.992
102.374
101.873
101.47
101.147
100.89
100.686
100.526
100.401
100.304
100.229
100.172
100.128
100.095
100.07
100.051
100.037
100.027
100.02
100.014
100.01
100.007
100.005
100.003
100.002
100.002
100.001
100.001
100.001
100
100
100
100
100
100
100
100
100
100
100
100
100
100
390.496
371.548
352.779
334.303
316.232
298.667
281.702
265.419
249.889
235.17
221.308
208.335
196.27
185.121
174.881
165.536
157.062
149.424
142.584
136.497
131.114
126.382
122.25
118.663
115.569
112.917
110.658
108.746
107.136
105.791
104.673
103.75
102.992
102.374
101.873
101.47
101.147
100.89
100.686
100.526
100.401
100.304
100.229
100.172
100.128
100.095
100.07
100.051
100.037
100.027
100.02
100.014
100.01
100.007
100.005
100.003
100.002
100.002
100.001
100.001
100.001
100
100
100
100
100
100
100
100
100
100
100
100
100
100
390.496
371.548
352.779
334.303
316.232
298.667
281.702
265.419
249.889
235.17
221.308
208.335
196.27
185.121
174.881
165.536
157.062
149.424
142.584
136.497
131.114
126.382
122.25
118.663
115.569
112.917
110.658
108.746
107.136
105.791
104.673
103.75
102.992
102.374
101.873
101.47
101.147
100.89
100.686
100.526
100.401
100.304
100.229
100.172
100.128
100.095
100.07
100.051
100.037
100.027
100.02
100.014
100.01
100.007
100.005
100.003
100.002
100.002
100.001
100.001
100.001
100
100
100
100
100
100
100
100
100
100
100
100
100
100