/*--------------------------------*- C++ -*----------------------------------*\
  =========                 |
  \\      /  F ield         | OpenFOAM: The Open Source CFD Toolbox
   \\    /   O peration     | Website:  https://openfoam.org
    \\  /    A nd           | Version:  10
     \\/     M anipulation  |
\*---------------------------------------------------------------------------*/
FoamFile
{
    format      ascii;
    class       volScalarField;
    location    "162";
    object      T;
}
// * * * * * * * * * * * * * * * * * * * * * * * * * * * * * * * * * * * * * //

dimensions      [0 0 0 1 0 0 0];

internalField   nonuniform List<scalar> 
11250
(
249.671
167.049
138.531
125.819
118.782
114.262
111.078
108.705
106.873
105.431
104.281
103.36
102.622
102.031
101.561
101.19
100.898
100.672
100.497
100.364
100.264
100.189
100.134
100.094
100.065
100.045
100.03
100.02
100.013
100.009
100.006
100.004
100.002
100.001
100.001
100.001
100
100
100
100
100
100
100
100
100
100
100
100
100
100
100
100
100
100
100
100
100
100
100
100
100
100
100
100
100
100
100
100
100
100
100
100
100
100
100
330.988
247.069
199.829
171.842
153.901
141.533
132.512
125.664
120.325
116.091
112.703
109.981
107.794
106.043
104.647
103.542
102.675
102.001
101.481
101.085
100.787
100.564
100.4
100.281
100.195
100.134
100.091
100.061
100.04
100.026
100.017
100.011
100.007
100.004
100.003
100.002
100.001
100.001
100
100
100
100
100
100
100
100
100
100
100
100
100
100
100
100
100
100
100
100
100
100
100
100
100
100
100
100
100
100
100
100
100
100
100
100
100
358.227
290.489
242.005
207.992
183.658
165.697
152.036
141.39
132.949
126.182
120.725
116.317
112.762
109.906
107.625
105.817
104.396
103.29
102.437
101.786
101.295
100.929
100.659
100.463
100.321
100.22
100.149
100.1
100.066
100.043
100.028
100.018
100.011
100.007
100.004
100.003
100.002
100.001
100.001
100
100
100
100
100
100
100
100
100
100
100
100
100
100
100
100
100
100
100
100
100
100
100
100
100
100
100
100
100
100
100
100
100
100
100
100
369.703
314.786
269.925
234.75
207.391
185.962
168.978
155.366
144.36
135.417
128.135
122.211
117.409
113.536
110.434
107.969
106.028
104.514
103.346
102.454
101.781
101.278
100.907
100.636
100.442
100.303
100.206
100.138
100.091
100.06
100.039
100.025
100.016
100.01
100.006
100.004
100.002
100.001
100.001
100
100
100
100
100
100
100
100
100
100
100
100
100
100
100
100
100
100
100
100
100
100
100
100
100
100
100
100
100
100
100
100
100
100
100
100
375.563
329.212
288.453
254.091
225.678
202.331
183.149
167.361
154.347
143.619
134.791
127.554
121.651
116.869
113.025
109.961
107.544
105.655
104.195
103.079
102.235
101.605
101.14
100.8
100.555
100.381
100.259
100.173
100.115
100.075
100.049
100.031
100.02
100.012
100.008
100.005
100.003
100.002
100.001
100.001
100
100
100
100
100
100
100
100
100
100
100
100
100
100
100
100
100
100
100
100
100
100
100
100
100
100
100
100
100
100
100
100
100
100
100
378.976
338.276
300.957
267.986
239.509
215.231
194.684
177.375
162.851
150.713
140.621
132.28
125.434
119.861
115.363
111.768
108.924
106.697
104.972
103.652
102.653
101.906
101.354
100.951
100.661
100.454
100.308
100.207
100.137
100.09
100.058
100.037
100.024
100.015
100.009
100.006
100.003
100.002
100.001
100.001
100
100
100
100
100
100
100
100
100
100
100
100
100
100
100
100
100
100
100
100
100
100
100
100
100
100
100
100
100
100
100
100
100
100
100
381.135
344.235
309.562
277.985
249.87
225.231
203.885
185.553
169.929
156.712
145.614
136.37
128.737
122.491
117.432
113.374
110.156
107.63
105.671
104.169
103.031
102.179
101.549
101.089
100.756
100.52
100.353
100.237
100.157
100.103
100.067
100.043
100.027
100.017
100.01
100.006
100.004
100.002
100.001
100.001
100
100
100
100
100
100
100
100
100
100
100
100
100
100
100
100
100
100
100
100
100
100
100
100
100
100
100
100
100
100
100
100
100
100
100
382.571
348.283
315.584
285.212
257.594
232.899
211.114
192.113
175.709
161.683
149.803
139.838
131.562
124.759
119.226
114.776
111.235
108.452
106.289
104.627
103.367
102.423
101.723
101.212
100.842
100.579
100.393
100.264
100.175
100.115
100.074
100.048
100.03
100.019
100.012
100.007
100.004
100.003
100.002
100.001
100.001
100
100
100
100
100
100
100
100
100
100
100
100
100
100
100
100
100
100
100
100
100
100
100
100
100
100
100
100
100
100
100
100
100
100
383.557
351.099
319.857
290.46
263.337
238.73
216.725
197.299
180.352
165.732
153.256
142.726
133.935
126.678
120.755
115.976
112.165
109.162
106.824
105.026
103.66
102.635
101.876
101.32
100.918
100.631
100.429
100.288
100.191
100.125
100.081
100.052
100.033
100.021
100.013
100.008
100.005
100.003
100.002
100.001
100.001
100
100
100
100
100
100
100
100
100
100
100
100
100
100
100
100
100
100
100
100
100
100
100
100
100
100
100
100
100
100
100
100
100
100
384.248
353.087
322.916
294.283
267.598
243.135
221.038
201.349
184.029
168.978
156.056
145.09
135.895
128.275
122.035
116.987
112.952
109.766
107.281
105.368
103.912
102.819
102.007
101.413
100.983
100.676
100.46
100.309
100.205
100.135
100.087
100.056
100.035
100.022
100.014
100.008
100.005
100.003
100.002
100.001
100.001
100
100
100
100
100
100
100
100
100
100
100
100
100
100
100
100
100
100
100
100
100
100
100
100
100
100
100
100
100
100
100
100
100
100
384.738
354.505
325.12
297.072
270.752
246.443
224.323
204.476
186.903
171.546
158.292
146.996
137.487
129.581
123.089
117.824
113.606
110.27
107.665
105.655
104.125
102.974
102.119
101.493
101.039
100.715
100.486
100.327
100.217
100.142
100.092
100.059
100.038
100.024
100.015
100.009
100.005
100.003
100.002
100.001
100.001
100
100
100
100
100
100
100
100
100
100
100
100
100
100
100
100
100
100
100
100
100
100
100
100
100
100
100
100
100
100
100
100
100
100
385.088
355.522
326.713
299.108
273.08
248.914
226.806
206.866
189.125
173.55
160.054
148.51
138.762
130.634
123.943
118.506
114.142
110.685
107.982
105.893
104.301
103.103
102.213
101.559
101.086
100.748
100.509
100.342
100.227
100.149
100.097
100.062
100.039
100.025
100.015
100.009
100.006
100.003
100.002
100.001
100.001
100
100
100
100
100
100
100
100
100
100
100
100
100
100
100
100
100
100
100
100
100
100
100
100
100
100
100
100
100
100
100
100
100
100
385.339
356.254
327.865
300.592
274.791
250.748
228.668
208.676
190.822
175.095
161.424
149.696
139.767
131.47
124.626
119.053
114.575
111.022
108.239
106.088
104.446
103.209
102.29
101.614
101.125
100.775
100.527
100.355
100.236
100.155
100.1
100.064
100.041
100.026
100.016
100.01
100.006
100.003
100.002
100.001
100.001
100
100
100
100
100
100
100
100
100
100
100
100
100
100
100
100
100
100
100
100
100
100
100
100
100
100
100
100
100
100
100
100
100
100
385.519
356.781
328.698
301.67
276.044
252.102
230.053
210.033
192.106
176.273
162.475
150.613
140.55
132.124
125.163
119.487
114.919
111.29
108.445
106.244
104.563
103.295
102.352
101.659
101.156
100.797
100.542
100.365
100.243
100.159
100.103
100.066
100.042
100.026
100.016
100.01
100.006
100.004
100.002
100.001
100.001
100
100
100
100
100
100
100
100
100
100
100
100
100
100
100
100
100
100
100
100
100
100
100
100
100
100
100
100
100
100
100
100
100
100
385.648
357.158
329.297
302.45
276.956
253.093
231.075
211.042
193.068
177.16
163.274
151.313
141.151
132.63
125.58
119.825
115.188
111.501
108.608
106.368
104.656
103.364
102.402
101.695
101.182
100.814
100.555
100.373
100.248
100.163
100.106
100.068
100.043
100.027
100.017
100.01
100.006
100.004
100.002
100.001
100.001
100
100
100
100
100
100
100
100
100
100
100
100
100
100
100
100
100
100
100
100
100
100
100
100
100
100
100
100
100
100
100
100
100
100
385.741
357.429
329.727
303.012
277.616
253.815
231.823
211.785
193.78
177.822
163.872
151.842
141.606
133.015
125.899
120.085
115.396
111.665
108.735
106.465
104.728
103.418
102.441
101.723
101.202
100.828
100.564
100.38
100.253
100.166
100.108
100.069
100.044
100.028
100.017
100.01
100.006
100.004
100.002
100.001
100.001
100
100
100
100
100
100
100
100
100
100
100
100
100
100
100
100
100
100
100
100
100
100
100
100
100
100
100
100
100
100
100
100
100
100
385.806
357.621
330.034
303.414
278.09
254.336
232.366
212.328
194.303
178.311
164.316
152.236
141.948
133.305
126.141
120.282
115.554
111.79
108.832
106.539
104.784
103.459
102.472
101.745
101.217
100.839
100.572
100.385
100.256
100.168
100.109
100.07
100.045
100.028
100.017
100.011
100.006
100.004
100.002
100.001
100.001
100
100
100
100
100
100
100
100
100
100
100
100
100
100
100
100
100
100
100
100
100
100
100
100
100
100
100
100
100
100
100
100
100
100
385.853
357.758
330.252
303.701
278.429
254.71
232.757
212.72
194.682
178.667
164.642
152.526
142.2
133.52
126.321
120.43
115.673
111.884
108.906
106.596
104.827
103.491
102.495
101.762
101.229
100.848
100.578
100.389
100.259
100.17
100.111
100.071
100.045
100.028
100.017
100.011
100.006
100.004
100.002
100.001
100.001
100
100
100
100
100
100
100
100
100
100
100
100
100
100
100
100
100
100
100
100
100
100
100
100
100
100
100
100
100
100
100
100
100
100
385.885
357.853
330.405
303.903
278.669
254.975
233.036
213.001
194.955
178.924
164.878
152.737
142.385
133.678
126.454
120.539
115.762
111.955
108.961
106.638
104.859
103.515
102.512
101.775
101.239
100.854
100.582
100.392
100.261
100.172
100.111
100.072
100.045
100.028
100.018
100.011
100.007
100.004
100.002
100.001
100.001
100
100
100
100
100
100
100
100
100
100
100
100
100
100
100
100
100
100
100
100
100
100
100
100
100
100
100
100
100
100
100
100
100
100
385.908
357.92
330.513
304.045
278.837
255.162
233.233
213.2
195.149
179.108
165.047
152.889
142.519
133.793
126.55
120.619
115.827
112.006
109.001
106.669
104.883
103.533
102.525
101.784
101.245
100.859
100.585
100.394
100.262
100.173
100.112
100.072
100.046
100.029
100.018
100.011
100.007
100.004
100.002
100.001
100.001
100
100
100
100
100
100
100
100
100
100
100
100
100
100
100
100
100
100
100
100
100
100
100
100
100
100
100
100
100
100
100
100
100
100
385.924
357.967
330.587
304.143
278.955
255.293
233.371
213.34
195.286
179.238
165.167
152.997
142.614
133.875
126.62
120.676
115.873
112.044
109.031
106.692
104.9
103.546
102.535
101.791
101.25
100.863
100.588
100.396
100.264
100.173
100.113
100.072
100.046
100.029
100.018
100.011
100.007
100.004
100.002
100.001
100.001
100
100
100
100
100
100
100
100
100
100
100
100
100
100
100
100
100
100
100
100
100
100
100
100
100
100
100
100
100
100
100
100
100
100
385.935
357.999
330.638
304.211
279.036
255.383
233.467
213.437
195.382
179.329
165.251
153.073
142.681
133.933
126.669
120.717
115.907
112.071
109.052
106.708
104.913
103.555
102.542
101.796
101.254
100.865
100.59
100.397
100.264
100.174
100.113
100.073
100.046
100.029
100.018
100.011
100.007
100.004
100.002
100.001
100.001
100
100
100
100
100
100
100
100
100
100
100
100
100
100
100
100
100
100
100
100
100
100
100
100
100
100
100
100
100
100
100
100
100
100
385.942
358.021
330.673
304.257
279.091
255.445
233.532
213.504
195.448
179.392
165.31
153.126
142.728
133.974
126.703
120.746
115.93
112.089
109.067
106.72
104.921
103.562
102.547
101.8
101.257
100.867
100.591
100.398
100.265
100.174
100.113
100.073
100.046
100.029
100.018
100.011
100.007
100.004
100.002
100.001
100.001
100
100
100
100
100
100
100
100
100
100
100
100
100
100
100
100
100
100
100
100
100
100
100
100
100
100
100
100
100
100
100
100
100
100
385.947
358.035
330.697
304.289
279.129
255.487
233.577
213.549
195.493
179.435
165.35
153.163
142.761
134.002
126.727
120.766
115.947
112.103
109.077
106.728
104.928
103.566
102.551
101.802
101.258
100.868
100.592
100.399
100.265
100.175
100.113
100.073
100.046
100.029
100.018
100.011
100.007
100.004
100.002
100.001
100.001
100
100
100
100
100
100
100
100
100
100
100
100
100
100
100
100
100
100
100
100
100
100
100
100
100
100
100
100
100
100
100
100
100
100
385.95
358.045
330.713
304.31
279.154
255.516
233.607
213.58
195.523
179.464
165.377
153.187
142.783
134.021
126.744
120.78
115.958
112.112
109.085
106.734
104.932
103.57
102.553
101.804
101.26
100.869
100.593
100.399
100.266
100.175
100.114
100.073
100.046
100.029
100.018
100.011
100.007
100.004
100.002
100.001
100.001
100
100
100
100
100
100
100
100
100
100
100
100
100
100
100
100
100
100
100
100
100
100
100
100
100
100
100
100
100
100
100
100
100
100
385.953
358.052
330.723
304.324
279.171
255.534
233.627
213.601
195.544
179.484
165.395
153.204
142.798
134.034
126.755
120.789
115.966
112.118
109.09
106.737
104.935
103.572
102.555
101.805
101.261
100.87
100.593
100.4
100.266
100.175
100.114
100.073
100.046
100.029
100.018
100.011
100.007
100.004
100.002
100.001
100.001
100
100
100
100
100
100
100
100
100
100
100
100
100
100
100
100
100
100
100
100
100
100
100
100
100
100
100
100
100
100
100
100
100
100
385.954
358.056
330.73
304.333
279.182
255.547
233.64
213.614
195.557
179.497
165.408
153.215
142.807
134.043
126.762
120.796
115.971
112.122
109.093
106.74
104.937
103.573
102.556
101.806
101.261
100.87
100.593
100.4
100.266
100.175
100.114
100.073
100.046
100.029
100.018
100.011
100.007
100.004
100.002
100.001
100.001
100
100
100
100
100
100
100
100
100
100
100
100
100
100
100
100
100
100
100
100
100
100
100
100
100
100
100
100
100
100
100
100
100
100
385.955
358.059
330.735
304.339
279.189
255.555
233.649
213.623
195.566
179.505
165.416
153.223
142.814
134.049
126.767
120.8
115.974
112.125
109.095
106.742
104.938
103.574
102.557
101.807
101.262
100.871
100.594
100.4
100.266
100.175
100.114
100.073
100.046
100.029
100.018
100.011
100.007
100.004
100.002
100.001
100.001
100
100
100
100
100
100
100
100
100
100
100
100
100
100
100
100
100
100
100
100
100
100
100
100
100
100
100
100
100
100
100
100
100
100
385.956
358.06
330.738
304.343
279.194
255.56
233.655
213.629
195.571
179.511
165.421
153.227
142.818
134.053
126.771
120.802
115.977
112.127
109.097
106.743
104.939
103.575
102.557
101.807
101.262
100.871
100.594
100.4
100.266
100.175
100.114
100.073
100.046
100.029
100.018
100.011
100.007
100.004
100.002
100.001
100.001
100
100
100
100
100
100
100
100
100
100
100
100
100
100
100
100
100
100
100
100
100
100
100
100
100
100
100
100
100
100
100
100
100
100
385.956
358.062
330.739
304.345
279.196
255.563
233.658
213.633
195.575
179.514
165.424
153.23
142.821
134.055
126.773
120.804
115.978
112.128
109.097
106.744
104.94
103.576
102.557
101.807
101.262
100.871
100.594
100.4
100.266
100.175
100.114
100.073
100.046
100.029
100.018
100.011
100.007
100.004
100.002
100.001
100.001
100
100
100
100
100
100
100
100
100
100
100
100
100
100
100
100
100
100
100
100
100
100
100
100
100
100
100
100
100
100
100
100
100
100
385.956
358.062
330.741
304.347
279.198
255.565
233.661
213.635
195.577
179.517
165.426
153.232
142.823
134.057
126.774
120.805
115.979
112.129
109.098
106.744
104.94
103.576
102.558
101.808
101.262
100.871
100.594
100.4
100.266
100.175
100.114
100.073
100.046
100.029
100.018
100.011
100.007
100.004
100.002
100.001
100.001
100
100
100
100
100
100
100
100
100
100
100
100
100
100
100
100
100
100
100
100
100
100
100
100
100
100
100
100
100
100
100
100
100
100
385.956
358.063
330.741
304.348
279.199
255.567
233.662
213.636
195.579
179.518
165.428
153.233
142.824
134.058
126.775
120.806
115.98
112.129
109.098
106.745
104.94
103.576
102.558
101.808
101.262
100.871
100.594
100.4
100.266
100.175
100.114
100.073
100.046
100.029
100.018
100.011
100.007
100.004
100.002
100.001
100.001
100
100
100
100
100
100
100
100
100
100
100
100
100
100
100
100
100
100
100
100
100
100
100
100
100
100
100
100
100
100
100
100
100
100
385.957
358.063
330.742
304.348
279.2
255.568
233.663
213.637
195.58
179.519
165.428
153.234
142.824
134.058
126.775
120.806
115.98
112.13
109.099
106.745
104.941
103.576
102.558
101.808
101.262
100.871
100.594
100.4
100.266
100.175
100.114
100.073
100.046
100.029
100.018
100.011
100.007
100.004
100.002
100.001
100.001
100
100
100
100
100
100
100
100
100
100
100
100
100
100
100
100
100
100
100
100
100
100
100
100
100
100
100
100
100
100
100
100
100
100
385.957
358.063
330.742
304.349
279.201
255.568
233.663
213.638
195.58
179.519
165.429
153.235
142.825
134.058
126.776
120.807
115.98
112.13
109.099
106.745
104.941
103.576
102.558
101.808
101.262
100.871
100.594
100.4
100.266
100.175
100.114
100.073
100.046
100.029
100.018
100.011
100.007
100.004
100.002
100.001
100.001
100
100
100
100
100
100
100
100
100
100
100
100
100
100
100
100
100
100
100
100
100
100
100
100
100
100
100
100
100
100
100
100
100
100
385.957
358.063
330.742
304.349
279.201
255.568
233.664
213.638
195.581
179.52
165.429
153.235
142.825
134.059
126.776
120.807
115.98
112.13
109.099
106.745
104.941
103.576
102.558
101.808
101.262
100.871
100.594
100.4
100.266
100.175
100.114
100.073
100.046
100.029
100.018
100.011
100.007
100.004
100.002
100.001
100.001
100
100
100
100
100
100
100
100
100
100
100
100
100
100
100
100
100
100
100
100
100
100
100
100
100
100
100
100
100
100
100
100
100
100
385.957
358.063
330.742
304.349
279.201
255.569
233.664
213.638
195.581
179.52
165.429
153.235
142.825
134.059
126.776
120.807
115.98
112.13
109.099
106.745
104.941
103.576
102.558
101.808
101.262
100.871
100.594
100.4
100.266
100.175
100.114
100.073
100.046
100.029
100.018
100.011
100.007
100.004
100.002
100.001
100.001
100
100
100
100
100
100
100
100
100
100
100
100
100
100
100
100
100
100
100
100
100
100
100
100
100
100
100
100
100
100
100
100
100
100
385.957
358.063
330.742
304.349
279.201
255.569
233.664
213.638
195.581
179.52
165.429
153.235
142.825
134.059
126.776
120.807
115.98
112.13
109.099
106.745
104.941
103.576
102.558
101.808
101.262
100.871
100.594
100.4
100.266
100.175
100.114
100.073
100.046
100.029
100.018
100.011
100.007
100.004
100.002
100.001
100.001
100
100
100
100
100
100
100
100
100
100
100
100
100
100
100
100
100
100
100
100
100
100
100
100
100
100
100
100
100
100
100
100
100
100
385.957
358.063
330.742
304.349
279.201
255.569
233.664
213.639
195.581
179.52
165.429
153.235
142.825
134.059
126.776
120.807
115.98
112.13
109.099
106.745
104.941
103.576
102.558
101.808
101.262
100.871
100.594
100.4
100.266
100.175
100.114
100.073
100.046
100.029
100.018
100.011
100.007
100.004
100.002
100.001
100.001
100
100
100
100
100
100
100
100
100
100
100
100
100
100
100
100
100
100
100
100
100
100
100
100
100
100
100
100
100
100
100
100
100
100
385.957
358.063
330.742
304.349
279.201
255.569
233.664
213.639
195.581
179.52
165.43
153.235
142.825
134.059
126.776
120.807
115.98
112.13
109.099
106.745
104.941
103.576
102.558
101.808
101.262
100.871
100.594
100.4
100.266
100.175
100.114
100.073
100.046
100.029
100.018
100.011
100.007
100.004
100.002
100.001
100.001
100
100
100
100
100
100
100
100
100
100
100
100
100
100
100
100
100
100
100
100
100
100
100
100
100
100
100
100
100
100
100
100
100
100
385.957
358.063
330.742
304.349
279.201
255.569
233.664
213.639
195.581
179.52
165.43
153.235
142.825
134.059
126.776
120.807
115.98
112.13
109.099
106.745
104.941
103.576
102.558
101.808
101.262
100.871
100.594
100.4
100.266
100.175
100.114
100.073
100.046
100.029
100.018
100.011
100.007
100.004
100.002
100.001
100.001
100
100
100
100
100
100
100
100
100
100
100
100
100
100
100
100
100
100
100
100
100
100
100
100
100
100
100
100
100
100
100
100
100
100
385.957
358.063
330.742
304.349
279.201
255.569
233.664
213.639
195.581
179.52
165.43
153.235
142.825
134.059
126.776
120.807
115.98
112.13
109.099
106.745
104.941
103.576
102.558
101.808
101.262
100.871
100.594
100.4
100.266
100.175
100.114
100.073
100.046
100.029
100.018
100.011
100.007
100.004
100.002
100.001
100.001
100
100
100
100
100
100
100
100
100
100
100
100
100
100
100
100
100
100
100
100
100
100
100
100
100
100
100
100
100
100
100
100
100
100
385.957
358.063
330.742
304.349
279.201
255.569
233.664
213.639
195.581
179.52
165.43
153.235
142.826
134.059
126.776
120.807
115.98
112.13
109.099
106.745
104.941
103.576
102.558
101.808
101.262
100.871
100.594
100.4
100.266
100.175
100.114
100.073
100.046
100.029
100.018
100.011
100.007
100.004
100.002
100.001
100.001
100
100
100
100
100
100
100
100
100
100
100
100
100
100
100
100
100
100
100
100
100
100
100
100
100
100
100
100
100
100
100
100
100
100
385.957
358.063
330.742
304.349
279.201
255.569
233.664
213.639
195.581
179.52
165.43
153.235
142.826
134.059
126.776
120.807
115.98
112.13
109.099
106.745
104.941
103.576
102.558
101.808
101.262
100.871
100.594
100.4
100.266
100.175
100.114
100.073
100.046
100.029
100.018
100.011
100.007
100.004
100.002
100.001
100.001
100
100
100
100
100
100
100
100
100
100
100
100
100
100
100
100
100
100
100
100
100
100
100
100
100
100
100
100
100
100
100
100
100
100
385.957
358.063
330.742
304.349
279.201
255.569
233.664
213.639
195.581
179.52
165.43
153.235
142.826
134.059
126.776
120.807
115.98
112.13
109.099
106.745
104.941
103.576
102.558
101.808
101.262
100.871
100.594
100.4
100.266
100.175
100.114
100.073
100.046
100.029
100.018
100.011
100.007
100.004
100.002
100.001
100.001
100
100
100
100
100
100
100
100
100
100
100
100
100
100
100
100
100
100
100
100
100
100
100
100
100
100
100
100
100
100
100
100
100
100
385.957
358.063
330.742
304.349
279.201
255.569
233.664
213.639
195.581
179.52
165.43
153.235
142.826
134.059
126.776
120.807
115.98
112.13
109.099
106.745
104.941
103.576
102.558
101.808
101.262
100.871
100.594
100.4
100.266
100.175
100.114
100.073
100.046
100.029
100.018
100.011
100.007
100.004
100.002
100.001
100.001
100
100
100
100
100
100
100
100
100
100
100
100
100
100
100
100
100
100
100
100
100
100
100
100
100
100
100
100
100
100
100
100
100
100
385.957
358.063
330.742
304.349
279.201
255.569
233.664
213.639
195.581
179.52
165.43
153.235
142.826
134.059
126.776
120.807
115.98
112.13
109.099
106.745
104.941
103.576
102.558
101.808
101.262
100.871
100.594
100.4
100.266
100.175
100.114
100.073
100.046
100.029
100.018
100.011
100.007
100.004
100.002
100.001
100.001
100
100
100
100
100
100
100
100
100
100
100
100
100
100
100
100
100
100
100
100
100
100
100
100
100
100
100
100
100
100
100
100
100
100
385.957
358.063
330.742
304.349
279.201
255.569
233.664
213.639
195.581
179.52
165.43
153.235
142.826
134.059
126.776
120.807
115.98
112.13
109.099
106.745
104.941
103.576
102.558
101.808
101.262
100.871
100.594
100.4
100.266
100.175
100.114
100.073
100.046
100.029
100.018
100.011
100.007
100.004
100.002
100.001
100.001
100
100
100
100
100
100
100
100
100
100
100
100
100
100
100
100
100
100
100
100
100
100
100
100
100
100
100
100
100
100
100
100
100
100
385.957
358.063
330.742
304.349
279.201
255.569
233.664
213.639
195.581
179.52
165.43
153.235
142.826
134.059
126.776
120.807
115.98
112.13
109.099
106.745
104.941
103.576
102.558
101.808
101.262
100.871
100.594
100.4
100.266
100.175
100.114
100.073
100.046
100.029
100.018
100.011
100.007
100.004
100.002
100.001
100.001
100
100
100
100
100
100
100
100
100
100
100
100
100
100
100
100
100
100
100
100
100
100
100
100
100
100
100
100
100
100
100
100
100
100
385.957
358.063
330.742
304.349
279.201
255.569
233.664
213.639
195.581
179.52
165.43
153.235
142.826
134.059
126.776
120.807
115.98
112.13
109.099
106.745
104.941
103.576
102.558
101.808
101.262
100.871
100.594
100.4
100.266
100.175
100.114
100.073
100.046
100.029
100.018
100.011
100.007
100.004
100.002
100.001
100.001
100
100
100
100
100
100
100
100
100
100
100
100
100
100
100
100
100
100
100
100
100
100
100
100
100
100
100
100
100
100
100
100
100
100
385.957
358.063
330.742
304.349
279.201
255.569
233.664
213.639
195.581
179.52
165.43
153.235
142.826
134.059
126.776
120.807
115.98
112.13
109.099
106.745
104.941
103.576
102.558
101.808
101.262
100.871
100.594
100.4
100.266
100.175
100.114
100.073
100.046
100.029
100.018
100.011
100.007
100.004
100.002
100.001
100.001
100
100
100
100
100
100
100
100
100
100
100
100
100
100
100
100
100
100
100
100
100
100
100
100
100
100
100
100
100
100
100
100
100
100
385.957
358.063
330.742
304.349
279.201
255.569
233.664
213.639
195.581
179.52
165.43
153.235
142.826
134.059
126.776
120.807
115.98
112.13
109.099
106.745
104.941
103.576
102.558
101.808
101.262
100.871
100.594
100.4
100.266
100.175
100.114
100.073
100.046
100.029
100.018
100.011
100.007
100.004
100.002
100.001
100.001
100
100
100
100
100
100
100
100
100
100
100
100
100
100
100
100
100
100
100
100
100
100
100
100
100
100
100
100
100
100
100
100
100
100
385.957
358.063
330.742
304.349
279.201
255.569
233.664
213.639
195.581
179.52
165.43
153.235
142.826
134.059
126.776
120.807
115.98
112.13
109.099
106.745
104.941
103.576
102.558
101.808
101.262
100.871
100.594
100.4
100.266
100.175
100.114
100.073
100.046
100.029
100.018
100.011
100.007
100.004
100.002
100.001
100.001
100
100
100
100
100
100
100
100
100
100
100
100
100
100
100
100
100
100
100
100
100
100
100
100
100
100
100
100
100
100
100
100
100
100
385.957
358.063
330.742
304.349
279.201
255.569
233.664
213.639
195.581
179.52
165.43
153.235
142.826
134.059
126.776
120.807
115.98
112.13
109.099
106.745
104.941
103.576
102.558
101.808
101.262
100.871
100.594
100.4
100.266
100.175
100.114
100.073
100.046
100.029
100.018
100.011
100.007
100.004
100.002
100.001
100.001
100
100
100
100
100
100
100
100
100
100
100
100
100
100
100
100
100
100
100
100
100
100
100
100
100
100
100
100
100
100
100
100
100
100
385.957
358.063
330.742
304.349
279.201
255.569
233.664
213.639
195.581
179.52
165.43
153.235
142.826
134.059
126.776
120.807
115.98
112.13
109.099
106.745
104.941
103.576
102.558
101.808
101.262
100.871
100.594
100.4
100.266
100.175
100.114
100.073
100.046
100.029
100.018
100.011
100.007
100.004
100.002
100.001
100.001
100
100
100
100
100
100
100
100
100
100
100
100
100
100
100
100
100
100
100
100
100
100
100
100
100
100
100
100
100
100
100
100
100
100
385.957
358.063
330.742
304.349
279.201
255.569
233.664
213.639
195.581
179.52
165.43
153.235
142.826
134.059
126.776
120.807
115.98
112.13
109.099
106.745
104.941
103.576
102.558
101.808
101.262
100.871
100.594
100.4
100.266
100.175
100.114
100.073
100.046
100.029
100.018
100.011
100.007
100.004
100.002
100.001
100.001
100
100
100
100
100
100
100
100
100
100
100
100
100
100
100
100
100
100
100
100
100
100
100
100
100
100
100
100
100
100
100
100
100
100
385.957
358.063
330.742
304.349
279.201
255.569
233.664
213.639
195.581
179.52
165.43
153.235
142.826
134.059
126.776
120.807
115.98
112.13
109.099
106.745
104.941
103.576
102.558
101.808
101.262
100.871
100.594
100.4
100.266
100.175
100.114
100.073
100.046
100.029
100.018
100.011
100.007
100.004
100.002
100.001
100.001
100
100
100
100
100
100
100
100
100
100
100
100
100
100
100
100
100
100
100
100
100
100
100
100
100
100
100
100
100
100
100
100
100
100
385.957
358.063
330.742
304.349
279.201
255.569
233.664
213.639
195.581
179.52
165.43
153.235
142.826
134.059
126.776
120.807
115.98
112.13
109.099
106.745
104.941
103.576
102.558
101.808
101.262
100.871
100.594
100.4
100.266
100.175
100.114
100.073
100.046
100.029
100.018
100.011
100.007
100.004
100.002
100.001
100.001
100
100
100
100
100
100
100
100
100
100
100
100
100
100
100
100
100
100
100
100
100
100
100
100
100
100
100
100
100
100
100
100
100
100
385.957
358.063
330.742
304.349
279.201
255.569
233.664
213.639
195.581
179.52
165.43
153.235
142.826
134.059
126.776
120.807
115.98
112.13
109.099
106.745
104.941
103.576
102.558
101.808
101.262
100.871
100.594
100.4
100.266
100.175
100.114
100.073
100.046
100.029
100.018
100.011
100.007
100.004
100.002
100.001
100.001
100
100
100
100
100
100
100
100
100
100
100
100
100
100
100
100
100
100
100
100
100
100
100
100
100
100
100
100
100
100
100
100
100
100
385.957
358.063
330.742
304.349
279.201
255.569
233.664
213.639
195.581
179.52
165.43
153.235
142.826
134.059
126.776
120.807
115.98
112.13
109.099
106.745
104.941
103.576
102.558
101.808
101.262
100.871
100.594
100.4
100.266
100.175
100.114
100.073
100.046
100.029
100.018
100.011
100.007
100.004
100.002
100.001
100.001
100
100
100
100
100
100
100
100
100
100
100
100
100
100
100
100
100
100
100
100
100
100
100
100
100
100
100
100
100
100
100
100
100
100
385.957
358.063
330.742
304.349
279.201
255.569
233.664
213.639
195.581
179.52
165.43
153.235
142.826
134.059
126.776
120.807
115.98
112.13
109.099
106.745
104.941
103.576
102.558
101.808
101.262
100.871
100.594
100.4
100.266
100.175
100.114
100.073
100.046
100.029
100.018
100.011
100.007
100.004
100.002
100.001
100.001
100
100
100
100
100
100
100
100
100
100
100
100
100
100
100
100
100
100
100
100
100
100
100
100
100
100
100
100
100
100
100
100
100
100
385.957
358.063
330.742
304.349
279.201
255.569
233.664
213.639
195.581
179.52
165.43
153.235
142.826
134.059
126.776
120.807
115.98
112.13
109.099
106.745
104.941
103.576
102.558
101.808
101.262
100.871
100.594
100.4
100.266
100.175
100.114
100.073
100.046
100.029
100.018
100.011
100.007
100.004
100.002
100.001
100.001
100
100
100
100
100
100
100
100
100
100
100
100
100
100
100
100
100
100
100
100
100
100
100
100
100
100
100
100
100
100
100
100
100
100
385.957
358.063
330.742
304.349
279.201
255.569
233.664
213.639
195.581
179.52
165.43
153.235
142.826
134.059
126.776
120.807
115.98
112.13
109.099
106.745
104.941
103.576
102.558
101.808
101.262
100.871
100.594
100.4
100.266
100.175
100.114
100.073
100.046
100.029
100.018
100.011
100.007
100.004
100.002
100.001
100.001
100
100
100
100
100
100
100
100
100
100
100
100
100
100
100
100
100
100
100
100
100
100
100
100
100
100
100
100
100
100
100
100
100
100
385.957
358.063
330.742
304.349
279.201
255.569
233.664
213.639
195.581
179.52
165.43
153.235
142.826
134.059
126.776
120.807
115.98
112.13
109.099
106.745
104.941
103.576
102.558
101.808
101.262
100.871
100.594
100.4
100.266
100.175
100.114
100.073
100.046
100.029
100.018
100.011
100.007
100.004
100.002
100.001
100.001
100
100
100
100
100
100
100
100
100
100
100
100
100
100
100
100
100
100
100
100
100
100
100
100
100
100
100
100
100
100
100
100
100
100
385.957
358.063
330.742
304.349
279.201
255.569
233.664
213.639
195.581
179.52
165.43
153.235
142.826
134.059
126.776
120.807
115.98
112.13
109.099
106.745
104.941
103.576
102.558
101.808
101.262
100.871
100.594
100.4
100.266
100.175
100.114
100.073
100.046
100.029
100.018
100.011
100.007
100.004
100.002
100.001
100.001
100
100
100
100
100
100
100
100
100
100
100
100
100
100
100
100
100
100
100
100
100
100
100
100
100
100
100
100
100
100
100
100
100
100