/*--------------------------------*- C++ -*----------------------------------*\
  =========                 |
  \\      /  F ield         | OpenFOAM: The Open Source CFD Toolbox
   \\    /   O peration     | Website:  https://openfoam.org
    \\  /    A nd           | Version:  10
     \\/     M anipulation  |
\*---------------------------------------------------------------------------*/
FoamFile
{
    format      ascii;
    class       volScalarField;
    location    "105";
    object      gradTx;
}
// * * * * * * * * * * * * * * * * * * * * * * * * * * * * * * * * * * * * * //

dimensions      [0 -1 0 1 0 0 0];

internalField   nonuniform List<scalar> 
11250
(
14247.9
7950.4
5061.39
3493.53
2523.42
1866.02
1393.96
1043.18
777.848
575.776
422.004
305.685
218.54
154.043
106.972
73.1407
49.2161
32.5807
21.2131
13.5818
8.55139
5.29553
3.22424
1.92897
1.1339
0.65569
0.374355
0.211566
0.117696
0.0624109
0.0303171
0.0128204
0.00456439
0.00135915
0.000341685
7.36259e-05
1.38142e-05
2.28978e-06
3.39579e-07
4.55358e-08
5.57151e-09
6.45399e-10
5.1588e-11
-5.48809e-12
-5.48809e-12
1.09762e-12
0
-4.39047e-12
2.19524e-12
0
1.09762e-12
0
1.4269e-11
0
1.09762e-12
0
1.09762e-12
-2.19524e-12
0
2.19524e-12
0
1.09762e-12
0
-2.19524e-11
9.87856e-12
-1.09762e-12
-1.09762e-12
0
1.09762e-12
0
-5.48809e-12
0
-7.68332e-12
0
-9.87856e-12
4044.5
4551.36
3755.39
2915.64
2234.14
1706.43
1299.39
984.295
739.932
550.843
405.408
294.58
211.106
149.083
103.682
70.9763
47.8072
31.6754
20.6392
13.2223
8.32846
5.15826
3.1404
1.87872
1.10464
0.639298
0.3644
0.20409
0.112065
0.05993
0.0305933
0.0140567
0.00547567
0.00176777
0.000475407
0.000108215
2.12256e-05
3.64744e-06
5.57091e-07
7.65665e-08
9.56244e-09
1.1042e-09
1.18543e-10
6.5857e-12
0
0
-1.09762e-12
0
-2.19523e-12
0
-1.75619e-11
0
-1.4269e-11
8.78094e-12
-1.31714e-11
-6.5857e-12
-1.4269e-11
0
-4.39047e-12
0
0
-1.09762e-12
0
2.41476e-11
5.48809e-12
0
-1.09762e-12
1.09762e-12
-1.09762e-12
0
-8.78094e-12
0
8.78094e-12
2.19523e-12
0
1426.38
2464.46
2507.99
2198.95
1814.03
1451.33
1139.06
880.652
671.552
505.125
374.622
273.804
197.111
139.701
97.4379
66.8582
45.1208
29.9446
19.5386
12.5318
7.90069
4.89588
2.98137
1.78444
1.05004
0.607578
0.345001
0.191121
0.103472
0.0558108
0.0300304
0.0153401
0.00670398
0.00238364
0.000690497
0.000166258
3.40322e-05
6.0432e-06
9.46898e-07
1.32783e-07
1.68627e-08
1.95156e-09
2.16231e-10
3.51238e-11
5.48809e-12
7.68332e-12
1.09762e-12
5.48809e-12
0
0
1.09762e-12
-1.09762e-12
4.39047e-12
8.78094e-12
0
-2.19523e-12
0
4.39047e-12
0
-2.19524e-12
0
0
0
-1.4269e-11
-1.09762e-11
2.19524e-12
3.29285e-12
2.19523e-12
0
0
3.29285e-12
8.78094e-12
0
-1.09762e-12
8.78094e-12
625.954
1380.99
1627.36
1576.78
1393.68
1169.95
949.949
752.598
584.27
445.399
333.718
245.851
178.1
126.864
88.847
61.1689
41.3966
27.5367
18.0026
11.5665
7.30309
4.53082
2.76181
1.65519
0.975418
0.563998
0.31933
0.176738
0.0960277
0.0523988
0.0291166
0.0161622
0.00770899
0.00292957
0.000889184
0.000221213
4.6353e-05
8.37346e-06
1.32906e-06
1.88238e-07
2.4096e-08
2.79453e-09
3.00747e-10
3.18309e-11
0
0
0
1.09762e-12
0
0
1.53666e-11
0
1.09762e-12
-8.78094e-12
1.31714e-11
5.48809e-12
1.4269e-11
-4.39047e-12
5.48809e-12
6.58571e-12
0
-2.19523e-12
0
-1.09762e-12
-4.39047e-12
3.29285e-12
0
1.09762e-12
0
2.19524e-12
5.48809e-12
0
-1.09762e-12
-1.09762e-12
-5.48809e-12
325.245
814.539
1057.01
1104.61
1034.59
907.487
761.715
618.883
489.838
379.046
287.359
213.683
155.963
111.776
78.6762
54.395
36.9419
24.6453
16.152
10.4004
6.57989
4.08972
2.49755
1.49939
0.884921
0.511972
0.29029
0.162492
0.0902405
0.0501698
0.028249
0.0158581
0.00762941
0.00291838
0.000890611
0.000222654
4.68728e-05
8.50626e-06
1.35635e-06
1.92994e-07
2.48182e-08
2.89442e-09
3.227e-10
2.74404e-11
-1.09762e-12
-1.09762e-11
-4.39047e-12
-2.19523e-12
1.09762e-12
3.29285e-12
8.78094e-12
1.09762e-12
-5.48809e-12
-9.87856e-12
0
5.48809e-12
1.09762e-12
-8.78094e-12
-5.48809e-12
0
0
0
0
1.86595e-11
0
-1.09762e-12
-1.09762e-12
-3.29285e-12
0
-1.09762e-12
-9.87856e-12
-1.20738e-11
-7.68332e-12
-1.09762e-12
-1.09762e-12
188.34
502.569
693.776
766.117
751.531
684.493
592.149
492.836
397.64
312.475
239.851
180.164
132.59
95.6764
67.7303
47.0542
32.0878
21.4809
14.1197
9.11593
5.78157
3.6021
2.20469
1.3256
0.782855
0.453465
0.258301
0.146472
0.082751
0.0465412
0.0261741
0.014006
0.00638707
0.00235877
0.000707528
0.000176077
3.721e-05
6.81637e-06
1.10119e-06
1.59121e-07
2.07977e-08
2.48391e-09
2.68916e-10
2.305e-11
3.29285e-12
1.09762e-12
0
1.09762e-12
-2.19524e-12
-2.19523e-12
-6.58571e-12
-1.09762e-12
0
-3.29285e-12
-1.09762e-12
0
-1.09762e-12
2.19524e-12
1.09762e-12
-6.58571e-12
1.09762e-12
2.19523e-12
1.09762e-12
0
-1.09762e-12
-4.39047e-12
0
0
0
-2.19524e-12
4.39047e-12
1.09762e-12
-4.39047e-12
0
0
116.234
320.512
460.408
528.992
537.959
505.502
448.977
381.965
313.832
250.347
194.566
147.666
109.614
79.6725
56.7475
39.6308
27.1471
18.2441
12.0332
7.79278
4.95616
3.09544
1.89867
1.14343
0.675836
0.392157
0.224507
0.127895
0.072133
0.0402318
0.0221241
0.011215
0.00495744
0.00185242
0.000579841
0.000152964
3.4458e-05
6.72895e-06
1.15571e-06
1.7686e-07
2.43836e-08
3.08321e-09
3.47945e-10
1.97571e-11
-3.29285e-12
2.19524e-12
5.48809e-12
1.09762e-12
-1.09762e-12
-4.39047e-12
-9.87856e-12
0
0
-1.09762e-12
0
-9.87856e-12
-1.09762e-12
-7.68332e-12
4.39047e-12
-4.39047e-12
0
-2.19523e-12
1.09762e-12
-5.48809e-12
2.19523e-12
2.19524e-12
0
0
-1.20738e-11
1.09762e-12
1.31714e-11
2.19524e-12
0
-7.68332e-12
0
74.3837
208.905
308.042
364.196
380.807
367.04
333.396
289.197
241.594
195.466
153.747
117.88
88.2651
64.6301
46.3251
32.5283
22.387
15.1078
10.0017
6.49819
4.14385
2.59333
1.59307
0.960772
0.568939
0.331087
0.190055
0.107752
0.0602507
0.0332084
0.0175857
0.00875892
0.00432434
0.00194512
0.000727654
0.000221547
5.56755e-05
1.18103e-05
2.16053e-06
3.47125e-07
4.97374e-08
6.43643e-09
7.62844e-10
7.90285e-11
-6.5857e-12
-9.87856e-12
0
-1.09762e-12
1.09762e-12
-3.29285e-12
5.48809e-12
0
0
4.39047e-12
1.09762e-12
4.39047e-12
2.305e-11
3.29285e-12
-3.29285e-12
0
0
0
-3.29285e-12
0
0
0
7.68332e-12
-1.09762e-12
0
1.09762e-12
-1.09762e-12
0
6.5857e-12
0
4.39047e-12
48.5634
137.917
207.009
249.9
266.959
262.644
243.112
214.476
181.861
149.063
118.578
91.8078
69.3259
51.1349
36.8852
26.0425
18.0096
12.2058
8.11095
5.28622
3.37922
2.11874
1.30328
0.787028
0.467111
0.272706
0.156385
0.0875983
0.0481729
0.0260282
0.0135403
0.00753177
0.00508559
0.00294356
0.00127125
0.000418795
0.000110074
2.39797e-05
4.45861e-06
7.23569e-07
1.04288e-07
1.3515e-08
1.58386e-09
1.85497e-10
1.4269e-11
0
-3.29285e-12
0
0
-1.20738e-11
-2.19524e-12
0
-1.09762e-12
-3.29285e-12
0
8.78094e-12
1.4269e-11
1.4269e-11
-4.39047e-12
4.39047e-12
-1.09762e-12
2.19523e-12
8.78094e-12
0
-1.09762e-12
0
1.4269e-11
2.19523e-12
1.31714e-11
-1.09762e-12
2.19523e-12
5.48809e-12
6.58571e-12
8.78094e-12
2.19524e-12
32.0226
91.6069
139.223
170.685
185.392
185.442
174.376
156.09
134.108
111.222
89.4025
69.8571
53.1785
39.5045
28.6743
20.3563
14.1457
9.62852
6.42205
4.19818
2.69023
1.69056
1.04237
0.630823
0.375472
0.220436
0.126802
0.0705805
0.037936
0.0195699
0.0101972
0.00705059
0.0063859
0.00420792
0.00191056
0.000642704
0.000170482
3.72819e-05
6.93983e-06
1.12591e-06
1.62096e-07
2.09919e-08
2.4894e-09
2.78795e-10
4.39047e-11
1.09762e-11
-1.09762e-12
-4.39047e-12
1.09762e-12
4.39047e-12
-2.19524e-12
-1.09762e-12
0
0
0
-5.48809e-12
-1.97571e-11
-1.09762e-12
2.19523e-12
-1.09762e-12
-1.09762e-12
0
1.09762e-12
-1.09762e-12
-1.09762e-12
-1.09762e-12
-6.58571e-12
0
-1.09762e-12
0
1.09762e-12
0
-6.58571e-12
0
1.09762e-12
21.1858
60.9135
93.4159
115.868
127.499
129.254
123.148
111.614
97.0076
81.3032
65.9758
51.9932
39.883
29.8307
21.7849
15.5493
10.8577
7.42268
4.96983
3.25953
2.09417
1.31908
0.81577
0.495455
0.296161
0.175541
0.102472
0.0579802
0.0312348
0.015429
0.00779391
0.00593851
0.00598227
0.00408953
0.00188163
0.000636696
0.00016941
3.7117e-05
6.91817e-06
1.12356e-06
1.61927e-07
2.10073e-08
2.50037e-09
2.85381e-10
5.04904e-11
0
3.29285e-12
-5.48809e-12
-1.09762e-12
1.20738e-11
2.19523e-12
0
2.19523e-12
4.39047e-12
2.19523e-12
1.09762e-12
-1.4269e-11
0
4.39047e-12
-1.09762e-12
3.29285e-12
1.4269e-11
-8.78094e-12
0
0
-9.87856e-12
-3.7319e-11
-1.09762e-12
0
0
-3.29285e-12
-5.48809e-12
0
-2.19523e-12
-3.29285e-12
13.999
40.3978
62.3723
78.0586
86.7829
88.9421
85.6745
78.4801
68.898
58.2852
47.7044
37.8903
29.2732
22.0375
16.1884
11.6156
8.1492
5.59502
3.76136
2.47608
1.5959
1.00803
0.625453
0.381351
0.228311
0.135476
0.0797251
0.0458342
0.0248049
0.0118102
0.00547124
0.00379125
0.00370454
0.00252956
0.00116789
0.000396857
0.000106057
2.33388e-05
4.36914e-06
7.12664e-07
1.0316e-07
1.34491e-08
1.60472e-09
1.85497e-10
1.64643e-11
0
0
1.20738e-11
1.09762e-12
2.19523e-12
4.39047e-12
4.39047e-12
0
1.09762e-12
-1.09762e-12
-1.09762e-12
-3.29285e-12
0
-1.09762e-12
2.19524e-12
0
-1.09762e-12
5.48809e-12
0
-1.09762e-11
-5.48809e-12
-2.19524e-12
-1.09762e-12
0
1.09762e-12
0
0
4.39047e-12
0
1.09762e-12
9.20823
26.6461
41.3526
52.1164
58.4212
60.4127
58.7302
54.289
48.0789
41.0108
33.8265
27.0607
21.0449
15.9395
11.7739
8.49031
5.98291
4.12404
2.78325
1.8393
1.1902
0.754442
0.469083
0.285994
0.17017
0.0991762
0.057
0.0320604
0.0167763
0.00758055
0.00317195
0.00184219
0.00163024
0.00109229
0.000504053
0.000171959
4.61996e-05
1.0226e-05
1.92593e-06
3.16062e-07
4.60154e-08
6.03141e-09
6.95889e-10
5.37833e-11
-1.31714e-11
0
-1.09762e-12
4.39047e-12
0
1.09762e-12
0
1.09762e-12
0
0
-1.09762e-12
0
1.09762e-12
-8.78094e-12
-7.68332e-12
-3.29285e-12
-1.09762e-12
-1.4269e-11
1.09762e-12
-1.20738e-11
-1.09762e-12
1.09762e-11
2.305e-11
-2.19523e-12
0
0
-1.09762e-12
-4.39047e-12
-8.78094e-12
1.09762e-12
6.58571e-12
6.01453
17.4416
27.1776
34.4438
38.8701
40.4934
39.671
36.9572
32.9797
28.3389
23.5384
18.9539
14.8298
11.295
8.38587
6.07535
4.29884
2.97374
2.01328
1.33484
0.866923
0.551346
0.343247
0.209013
0.123859
0.070826
0.0387648
0.0201908
0.00965496
0.00400875
0.00150638
0.00071915
0.000551822
0.000357531
0.000164331
5.6251e-05
1.5198e-05
3.38578e-06
6.42009e-07
1.06094e-07
1.55565e-08
2.04486e-09
2.26109e-10
7.68332e-12
-1.86595e-11
-6.5857e-12
-1.09762e-12
-6.5857e-12
0
-1.09762e-12
0
-2.19523e-12
-1.09762e-12
1.09762e-12
0
0
4.39047e-12
0
1.09762e-12
0
-1.09762e-12
-1.09762e-12
-6.5857e-12
0
1.20738e-11
8.78094e-12
2.19523e-12
0
-1.09762e-12
-2.19523e-12
-6.5857e-12
4.39047e-12
0
0
0
3.89379
11.3109
17.6817
22.5108
25.5436
26.7745
26.4027
24.7611
22.2432
19.238
16.0802
13.026
10.2487
7.84606
5.85306
4.25934
3.02607
2.10021
1.42515
0.946994
0.61676
0.393734
0.246378
0.151149
0.0907955
0.0526203
0.0284167
0.0137163
0.00578071
0.00209915
0.000680524
0.000253968
0.00015575
9.45864e-05
4.29573e-05
1.47229e-05
3.9984e-06
8.96586e-07
1.71194e-07
2.84887e-08
4.21595e-09
5.69663e-10
7.4638e-11
2.19523e-11
1.09762e-12
-5.48809e-12
4.39047e-12
0
-5.48809e-12
-1.09762e-12
0
-3.29285e-12
-8.78094e-12
0
-1.4269e-11
-1.09762e-12
0
7.68332e-12
8.78094e-12
6.58571e-12
1.09762e-12
-4.39047e-12
0
1.31714e-11
9.87856e-12
0
-1.09762e-12
2.19523e-12
-4.39047e-12
0
-7.68332e-12
3.29285e-12
8.78094e-12
9.87856e-12
-3.29285e-12
2.49534
7.25813
11.3756
14.5352
16.5684
17.4569
17.3101
16.3271
14.7519
12.8327
10.7874
8.78612
6.94821
5.34465
4.005
2.92675
2.08744
1.45365
0.98907
0.658991
0.430516
0.27614
0.173861
0.107831
0.0665329
0.040521
0.0230802
0.0111134
0.00436289
0.00141152
0.000390955
0.000107497
4.32504e-05
2.19087e-05
9.49584e-06
3.22522e-06
8.77422e-07
1.97784e-07
3.80204e-08
6.37826e-09
9.56025e-10
1.4269e-10
2.85381e-11
7.68332e-12
2.41476e-11
5.48809e-12
1.09762e-12
2.19524e-12
-1.09762e-12
0
1.09762e-12
-1.09762e-12
0
-2.19524e-12
0
-4.39047e-12
-4.39047e-12
0
8.78094e-12
-1.09762e-12
0
1.09762e-12
0
-2.19524e-12
5.48809e-12
-4.39047e-12
-1.09762e-12
-1.09762e-12
0
1.09762e-12
-4.39047e-12
-7.68332e-12
-2.19524e-12
2.19523e-12
5.48809e-12
1.58129
4.60384
7.22993
9.2652
10.6012
11.2185
11.1765
10.5938
9.62075
8.41247
7.10812
5.81815
4.62262
3.57146
2.68722
1.97114
1.41089
0.985977
0.673604
0.450799
0.296084
0.191262
0.121127
0.075589
0.0474774
0.0298824
0.0177306
0.00867612
0.0033507
0.00103785
0.000266765
6.09295e-05
1.54384e-05
5.22535e-06
1.92406e-06
6.2125e-07
1.66781e-07
3.7566e-08
7.25854e-09
1.22494e-09
1.85497e-10
1.20738e-11
9.87856e-12
5.48809e-12
-7.68332e-12
1.20738e-11
-5.48809e-12
0
7.68332e-12
0
-1.09762e-12
4.39047e-12
8.78094e-12
0
1.4269e-11
2.19523e-12
1.09762e-12
3.29285e-12
0
-2.19523e-12
-2.19523e-12
5.48809e-12
1.09762e-12
0
-9.87856e-12
-1.09762e-12
0
-3.29285e-12
4.39047e-12
-1.09762e-12
-3.29285e-12
5.48809e-12
-3.29285e-12
-9.87856e-12
-1.09762e-12
0.989748
2.88354
4.53543
5.82652
6.68844
7.10411
7.10568
6.7645
6.17097
5.42065
4.60109
3.78289
3.01865
2.34208
1.76918
1.30297
0.936666
0.657621
0.451585
0.303688
0.200467
0.129934
0.0824077
0.0511892
0.0315575
0.0191168
0.0109442
0.00523226
0.00198547
0.000604086
0.0001516
3.26289e-05
6.6223e-06
1.50091e-06
4.04805e-07
1.1308e-07
2.87236e-08
6.35301e-09
1.20848e-09
2.09645e-10
2.85381e-11
1.75619e-11
2.19524e-12
-1.09762e-12
-2.52452e-11
-2.19524e-12
0
-3.29285e-12
1.09762e-12
0
0
0
0
-1.09762e-12
-2.19524e-12
5.48809e-12
-1.09762e-12
-2.19524e-12
-9.87856e-12
0
0
-4.39047e-12
0
2.19524e-12
-4.39047e-12
1.09762e-12
8.78094e-12
4.39047e-12
0
0
9.87856e-12
1.20738e-11
5.48809e-12
-5.48809e-12
-4.39047e-12
0.611332
1.78224
2.80716
3.61406
4.16049
4.43292
4.44951
4.25256
3.89506
3.43477
2.92663
2.41541
1.93499
1.50697
1.14263
0.845478
0.611265
0.43197
0.298164
0.201003
0.132081
0.0842951
0.0527157
0.0323685
0.0190124
0.0104839
0.0054323
0.00243226
0.000889985
0.000265242
6.56299e-05
1.38476e-05
2.60956e-06
4.80153e-07
9.59899e-08
2.12345e-08
4.76805e-09
1.00103e-09
1.90985e-10
4.39047e-11
1.09762e-11
2.96357e-11
-2.19524e-12
-7.68332e-12
2.08547e-11
-2.19524e-12
1.31714e-11
0
6.58571e-12
1.09762e-12
0
0
0
0
1.09762e-12
-2.19523e-12
-1.09762e-12
-1.09762e-12
-1.09762e-12
2.19524e-12
-1.09762e-12
-8.78094e-12
-1.09762e-12
0
-8.78094e-12
-9.87856e-12
0
2.19523e-12
4.39047e-12
1.09762e-12
1.31714e-11
-4.39047e-12
3.29285e-12
-1.09762e-12
-1.09762e-12
0.37231
1.08639
1.71388
2.21092
2.5512
2.72575
2.7451
2.63311
2.42055
2.14169
1.83066
1.5155
1.2175
0.950182
0.722031
0.536312
0.389771
0.276845
0.191496
0.128888
0.0839081
0.052575
0.0325763
0.0203776
0.0115425
0.00566215
0.0025021
0.000984439
0.000332132
9.4473e-05
2.27584e-05
4.71449e-06
8.61624e-07
1.45424e-07
2.43177e-08
4.30376e-09
8.07846e-10
1.41593e-10
4.50023e-11
1.4269e-11
2.19523e-12
4.39047e-12
-1.09762e-12
2.19523e-12
9.87856e-12
-7.68332e-12
1.09762e-12
1.09762e-12
-2.19523e-12
-8.78094e-12
0
-1.09762e-12
0
1.09762e-12
3.29285e-12
3.29285e-12
1.86595e-11
0
2.19523e-12
0
0
-6.5857e-12
-1.09762e-12
3.29285e-12
0
-1.09762e-12
-7.68332e-12
0
0
1.09762e-12
-4.39047e-12
-8.78094e-12
0
0
-5.48809e-12
0.223329
0.652554
1.0318
1.33374
1.5416
1.65093
1.66797
1.60508
1.48017
1.31379
1.12618
0.934363
0.751671
0.586641
0.445523
0.331153
0.241302
0.171653
0.118951
0.0801801
0.0527653
0.0336812
0.0211054
0.0134509
0.0074009
0.00329382
0.00123738
0.000408666
0.000119679
3.08665e-05
6.9801e-06
1.38824e-06
2.45588e-07
3.95505e-08
6.0358e-09
9.09925e-10
1.30616e-10
6.58571e-12
1.09762e-12
-1.09762e-12
1.97571e-11
5.48809e-12
2.08547e-11
9.87856e-12
-1.97571e-11
-3.29285e-12
-1.09762e-11
-4.39047e-12
-4.39047e-12
0
0
2.19524e-12
-1.09762e-12
2.19524e-12
-1.09762e-12
-1.09762e-12
9.87856e-12
0
0
-2.19524e-12
3.29285e-12
8.78094e-12
0
-1.86595e-11
8.78094e-12
1.09762e-11
0
1.09762e-12
-4.39047e-12
0
-1.20738e-11
0
0
-3.29285e-12
2.19524e-12
0.131684
0.385799
0.612326
0.79319
0.917328
0.983613
0.99596
0.960909
0.888884
0.791786
0.680651
0.565746
0.455775
0.355932
0.269996
0.200076
0.145446
0.103458
0.0723901
0.0494079
0.0333257
0.0221475
0.0141375
0.00870883
0.00450496
0.00185073
0.000621169
0.000178095
4.5062e-05
1.0225e-05
2.09169e-06
3.86446e-07
6.47309e-08
9.93783e-09
1.44007e-09
1.99766e-10
3.62214e-11
1.4269e-11
-2.19524e-12
-7.68332e-12
8.78094e-12
-1.53666e-11
5.48809e-12
-2.19523e-12
-1.09762e-12
9.87856e-12
-1.09762e-12
0
0
7.68332e-12
0
1.09762e-12
0
1.09762e-12
-1.09762e-12
-2.19523e-12
-1.86595e-11
-7.68332e-12
-1.09762e-12
0
-1.09762e-12
1.09762e-11
1.09762e-12
-2.19524e-12
-1.09762e-12
-4.39047e-12
9.87856e-12
-1.09762e-12
2.19524e-12
-2.19524e-12
3.29285e-12
0
-2.19524e-12
3.29285e-12
-8.78094e-12
0.0761953
0.22417
0.357792
0.464715
0.537427
0.576341
0.583892
0.564202
0.52339
0.467803
0.403351
0.336407
0.272087
0.213509
0.162672
0.120538
0.0871282
0.0618247
0.0437665
0.0305109
0.020811
0.014485
0.0100681
0.00611711
0.00293277
0.00110096
0.000334502
8.55617e-05
1.90653e-05
3.79678e-06
6.8729e-07
1.14196e-07
1.7529e-08
2.4883e-09
3.41359e-10
5.1588e-11
2.41476e-11
1.64643e-11
5.48809e-12
0
-2.08547e-11
-1.75619e-11
-1.4269e-11
-1.53666e-11
2.19523e-12
2.19523e-12
2.19523e-12
0
-1.09762e-12
2.19523e-12
1.09762e-12
-2.19523e-12
7.68332e-12
-3.29285e-12
-2.19523e-12
5.48809e-12
-7.68332e-12
1.20738e-11
1.09762e-12
0
1.09762e-12
-2.19523e-12
-1.09762e-12
1.31714e-11
0
1.31714e-11
0
-2.19523e-12
0
1.09762e-12
4.39047e-12
-2.19523e-12
0
2.19523e-12
-1.09762e-12
0.0435939
0.128265
0.205129
0.267067
0.309327
0.332432
0.33744
0.326366
0.302838
0.270732
0.234454
0.197491
0.161395
0.128108
0.0988494
0.0737569
0.05285
0.0366779
0.0255142
0.018068
0.0126955
0.00998676
0.00842968
0.00540217
0.00249382
0.000871668
0.000243208
5.65048e-05
1.12973e-05
1.99486e-06
3.17562e-07
4.62975e-08
6.23776e-09
7.74918e-10
9.21999e-11
1.31714e-11
9.87856e-12
1.31714e-11
4.39047e-12
9.87856e-12
-1.20738e-11
2.19524e-12
-1.31714e-11
-8.78094e-12
7.68332e-12
-2.19524e-12
-1.09762e-12
-5.48809e-12
-2.19524e-12
2.19523e-12
-7.68332e-12
-7.68332e-12
-1.09762e-12
0
-1.31714e-11
6.5857e-12
1.09762e-12
1.09762e-11
0
-1.09762e-12
1.09762e-12
0
-1.09762e-12
4.39047e-12
3.29285e-12
4.39047e-12
-9.87856e-12
0
-1.09762e-12
1.09762e-12
1.09762e-12
1.09762e-12
0
1.09762e-12
1.31714e-11
0.0248164
0.0725148
0.115152
0.149968
0.174809
0.189089
0.1929
0.186849
0.173032
0.154479
0.134568
0.114766
0.0951279
0.0767675
0.0598746
0.0443332
0.0308252
0.0201498
0.0131292
0.00918897
0.00689376
0.00651655
0.00656818
0.00443982
0.0020468
0.000699455
0.000188858
4.2145e-05
8.0304e-06
1.33895e-06
1.99142e-07
2.68367e-08
3.30273e-09
3.67702e-10
5.37833e-11
2.63428e-11
1.86595e-11
1.09762e-11
2.305e-11
2.85381e-11
2.74404e-11
1.20738e-11
-6.58571e-12
-2.19523e-12
6.58571e-12
1.53666e-11
-1.09762e-12
1.09762e-12
0
-1.09762e-12
-1.09762e-12
-3.29285e-12
-7.68332e-12
1.09762e-12
1.09762e-12
-4.39047e-12
0
-3.29285e-12
-2.19523e-12
2.19524e-12
-1.09762e-12
2.19523e-12
0
6.58571e-12
-2.19523e-12
-1.31714e-11
2.19524e-12
1.09762e-12
0
-1.09762e-12
7.68332e-12
3.29285e-12
0
3.29285e-12
-4.39047e-12
0.0136505
0.0400158
0.0636854
0.083674
0.0993711
0.108387
0.110293
0.106266
0.0981574
0.0878929
0.0762882
0.0642217
0.0531234
0.0436143
0.0344056
0.0245813
0.0159558
0.00951409
0.0056333
0.00379257
0.00304914
0.00335169
0.00372505
0.002592
0.0012032
0.000410757
0.000110375
2.44483e-05
4.61203e-06
7.59056e-07
1.11032e-07
1.46576e-08
1.77704e-09
2.12938e-10
4.39047e-11
8.78094e-12
1.09762e-12
-1.09762e-11
4.39047e-12
4.39047e-12
2.305e-11
2.41476e-11
1.86595e-11
1.53666e-11
7.68332e-12
9.87856e-12
1.09762e-12
9.87856e-12
1.09762e-12
-2.19523e-12
7.68332e-12
6.5857e-12
2.19523e-12
-2.19523e-12
1.4269e-11
-6.5857e-12
-1.09762e-12
-3.29285e-12
1.09762e-12
2.19523e-12
-1.09762e-12
-2.19523e-12
2.19523e-12
-1.20738e-11
-3.29285e-12
-1.09762e-12
0
1.09762e-12
1.09762e-12
0
-7.68332e-12
0
-4.39047e-12
-1.4269e-11
-1.09762e-12
0.0072359
0.0218988
0.0361569
0.048661
0.0590519
0.0645283
0.0647088
0.0614424
0.0564819
0.0502319
0.0418119
0.0328743
0.0261132
0.0217564
0.017692
0.0121897
0.00722852
0.0038458
0.00202537
0.00127654
0.00107844
0.00131258
0.00153493
0.00108583
0.000507895
0.000174211
4.69731e-05
1.04313e-05
1.97135e-06
3.24761e-07
4.75038e-08
6.2663e-09
7.62844e-10
1.08664e-10
1.53666e-11
-7.68332e-12
-1.20738e-11
-2.19524e-11
-2.52452e-11
-1.86595e-11
-1.31714e-11
3.29285e-12
1.64643e-11
1.09762e-11
-9.87856e-12
-1.97571e-11
1.09762e-12
1.09762e-12
1.09762e-11
0
-1.09762e-12
3.29285e-12
-6.5857e-12
0
-2.19524e-12
0
0
-7.68332e-12
4.39047e-12
-3.29285e-12
0
-1.09762e-12
-5.48809e-12
-2.08547e-11
2.19523e-12
0
-2.19524e-12
-3.29285e-12
1.09762e-12
-1.09762e-12
1.09762e-12
-2.19524e-12
0
0
1.31714e-11
0.00388023
0.0123757
0.0216431
0.0296672
0.0356057
0.0384877
0.0383283
0.0360014
0.0329662
0.0287605
0.0219925
0.0152325
0.0109893
0.0090537
0.00759485
0.00511962
0.00280944
0.00134049
0.000624128
0.000359556
0.000310483
0.000403121
0.000484684
0.00034663
0.000163338
5.63868e-05
1.52955e-05
3.41625e-06
6.4916e-07
1.07512e-07
1.58101e-08
2.09974e-09
2.5355e-10
2.19524e-11
-1.4269e-11
2.19524e-12
-1.97571e-11
2.19524e-12
-1.75619e-11
-8.78094e-12
-2.41476e-11
-2.19524e-11
-1.86595e-11
-1.20738e-11
-7.68332e-12
2.19524e-12
6.5857e-12
-2.19524e-12
8.78094e-12
-2.19523e-12
-1.09762e-12
1.09762e-12
0
3.29285e-12
0
-1.09762e-12
0
0
-1.09762e-12
0
0
3.29285e-12
-1.09762e-12
7.68332e-12
0
-1.09762e-12
0
0
6.58571e-12
4.39047e-12
6.5857e-12
-1.97571e-11
2.19524e-12
1.09762e-11
0
0.00208674
0.00683879
0.0122771
0.0167914
0.0193177
0.020544
0.0206498
0.0192637
0.0176952
0.0154239
0.0109155
0.00654645
0.00406088
0.00313912
0.00265767
0.00176832
0.000919528
0.000402643
0.000167637
8.6995e-05
7.46747e-05
0.000100772
0.00012308
8.87417e-05
4.21155e-05
1.46412e-05
3.99941e-06
8.99482e-07
1.72087e-07
2.86928e-08
4.24778e-09
5.65273e-10
6.5857e-11
-1.09762e-11
-1.97571e-11
-1.4269e-11
-2.63428e-11
0
-3.29285e-12
-4.39047e-12
-4.39047e-12
-9.87856e-12
-1.20738e-11
2.19523e-12
0
2.19523e-12
1.75619e-11
0
-1.09762e-11
0
2.19523e-12
0
2.08547e-11
0
0
0
8.78094e-12
0
-1.09762e-12
-2.19523e-12
-1.09762e-12
1.09762e-12
4.39047e-12
1.86595e-11
1.09762e-12
0
-1.09762e-12
1.31714e-11
0
1.09762e-12
-7.68332e-12
0
0
0
-7.68332e-12
0.00135853
0.00406965
0.00641623
0.00807375
0.00864867
0.00898264
0.00913176
0.00847354
0.0078344
0.00692102
0.00469308
0.00252929
0.00133966
0.000924747
0.000766176
0.000503785
0.000252945
0.0001042
3.96089e-05
1.84618e-05
1.53727e-05
2.11638e-05
2.6078e-05
1.89271e-05
9.0449e-06
3.16721e-06
8.71568e-07
1.97472e-07
3.8061e-08
6.36947e-09
9.31877e-10
1.14152e-10
7.68332e-12
-5.48809e-12
-8.78094e-12
-6.58571e-12
-1.20738e-11
-7.68332e-12
7.68332e-12
-1.09762e-12
-4.39047e-12
4.39047e-12
-2.19524e-12
1.09762e-12
-7.68332e-12
-8.78094e-12
2.19523e-12
0
-7.68332e-12
2.19523e-12
-2.19524e-12
-1.31714e-11
-1.09762e-12
-2.19524e-12
1.09762e-12
3.29285e-12
7.68332e-12
-1.20738e-11
-1.09762e-12
2.19524e-12
-1.09762e-12
-5.48809e-12
-3.29285e-12
0
0
2.19524e-12
1.09762e-12
0
-8.78094e-12
4.39047e-12
1.09762e-12
2.41476e-11
2.19524e-12
4.39047e-12
0
0.00157566
0.0039469
0.00428709
0.0038622
0.00336471
0.00321692
0.00324028
0.00298308
0.00277367
0.0024893
0.0016578
0.000838941
0.000391826
0.000236095
0.000185979
0.000120463
5.90888e-05
2.335e-05
8.28231e-06
3.48962e-06
2.7648e-06
3.82932e-06
4.73972e-06
3.4596e-06
1.6645e-06
5.87129e-07
1.62801e-07
3.71763e-08
7.21793e-09
1.21177e-09
1.77814e-10
6.5857e-12
5.48809e-12
2.19524e-12
-1.97571e-11
3.29285e-12
1.31714e-11
-3.29285e-12
1.09762e-11
8.78094e-12
-1.97571e-11
-4.39047e-12
1.09762e-12
-7.68332e-12
0
0
-1.86595e-11
0
-1.09762e-12
-1.09762e-12
-4.39047e-12
-5.48809e-12
-1.4269e-11
2.19524e-12
2.19524e-12
0
-8.78094e-12
-1.64643e-11
-8.78094e-12
-1.20738e-11
-3.29285e-12
-1.09762e-12
1.09762e-12
-2.19524e-12
-1.09762e-12
-1.09762e-11
1.09762e-12
-6.5857e-12
-1.09762e-12
-1.09762e-12
-2.19523e-12
0
-9.87856e-12
0
5.48809e-12
0.00218076
0.00507666
0.00434906
0.0026085
0.00147078
0.00104823
0.000956077
0.000856399
0.000796395
0.000724006
0.000479366
0.000234549
0.000100429
5.30095e-05
3.88595e-05
2.46712e-05
1.19005e-05
4.57265e-06
1.54168e-06
5.94132e-07
4.41788e-07
6.08881e-07
7.54803e-07
5.53736e-07
2.68189e-07
9.52941e-08
2.66469e-08
6.14666e-09
1.22275e-09
2.12938e-10
2.41476e-11
-2.19523e-11
-2.08547e-11
4.39047e-12
-1.09762e-11
-5.48809e-12
5.48809e-12
-1.31714e-11
-2.08547e-11
-7.68332e-12
2.19523e-12
-1.09762e-12
1.31714e-11
1.53666e-11
0
-1.09762e-12
-9.87856e-12
-1.09762e-12
1.09762e-12
-4.39047e-12
1.09762e-12
1.31714e-11
1.09762e-12
0
-3.29285e-12
6.5857e-12
-7.68332e-12
7.68332e-12
-8.78094e-12
-2.19523e-12
-1.31714e-11
5.48809e-12
4.39047e-12
-7.68332e-12
1.09762e-12
-1.09762e-12
-1.09762e-12
1.09762e-12
2.19523e-12
-8.78094e-12
-1.31714e-11
-4.39047e-12
-6.5857e-12
-7.68332e-12
-1.09762e-12
0.00212172
0.00486325
0.00392281
0.00200672
0.000824892
0.00037513
0.000255043
0.000208331
0.000190554
0.000174476
0.000115449
5.55281e-05
2.24716e-05
1.05753e-05
7.12414e-06
4.40946e-06
2.09867e-06
7.91139e-07
2.5716e-07
9.18958e-08
6.35784e-08
8.64198e-08
1.07082e-07
7.89253e-08
3.84759e-08
1.37795e-08
3.88008e-09
8.95656e-10
1.87693e-10
2.63428e-11
5.48809e-12
-8.78094e-12
-1.97571e-11
2.19524e-12
-4.39047e-12
-1.75619e-11
-1.64643e-11
-2.305e-11
-2.74404e-11
-1.64643e-11
-1.09762e-12
-4.39047e-12
0
-8.78094e-12
6.58571e-12
-9.87856e-12
0
-1.31714e-11
-1.09762e-12
1.09762e-12
0
1.09762e-12
-1.09762e-12
-1.31714e-11
-1.09762e-12
4.39047e-12
0
4.39047e-12
1.86595e-11
1.31714e-11
4.39047e-12
2.19523e-12
0
2.19524e-12
0
1.09762e-11
-2.19524e-12
0
0
5.48809e-12
8.78094e-12
0
9.87856e-12
2.19523e-12
-6.58571e-12
0.00130402
0.00297774
0.00237476
0.00116843
0.000430317
0.000146715
6.72651e-05
4.50313e-05
3.91027e-05
3.57271e-05
2.36613e-05
1.12885e-05
4.40787e-06
1.88967e-06
1.16421e-06
6.98977e-07
3.2872e-07
1.22282e-07
3.8736e-08
1.29815e-08
8.32982e-09
1.11024e-08
1.37038e-08
1.01398e-08
4.97001e-09
1.81656e-09
5.14783e-10
1.24031e-10
2.19523e-11
3.29285e-12
1.31714e-11
1.97571e-11
1.97571e-11
-8.78094e-12
1.20738e-11
-3.29285e-12
1.4269e-11
1.31714e-11
2.08547e-11
0
1.20738e-11
3.29285e-12
2.19524e-12
-1.86595e-11
4.39047e-12
2.19524e-12
0
0
-2.19524e-12
-4.39047e-12
1.09762e-12
3.29285e-12
0
-2.19524e-12
2.19524e-12
-2.305e-11
-1.09762e-12
0
7.68332e-12
1.09762e-12
1.4269e-11
-2.19523e-12
-1.09762e-12
-1.09762e-12
-4.39047e-12
1.09762e-12
-1.09762e-12
1.20738e-11
0
0
2.08547e-11
9.87856e-12
6.58571e-12
4.39047e-12
0
0.000555439
0.00126661
0.00100989
0.00049307
0.000175869
5.30078e-05
1.78929e-05
9.05796e-06
7.07325e-06
6.35643e-06
4.21002e-06
2.00198e-06
7.64396e-07
3.0452e-07
1.71738e-07
9.96044e-08
4.63041e-08
1.70877e-08
5.32125e-09
1.69033e-09
1.0131e-09
1.30946e-09
1.60033e-09
1.18872e-09
5.93811e-10
2.25012e-10
7.4638e-11
4.93928e-11
2.08547e-11
2.19523e-11
1.4269e-11
2.74404e-11
1.97571e-11
1.09762e-12
3.29285e-11
9.87856e-12
1.53666e-11
2.85381e-11
1.09762e-11
-1.20738e-11
2.74404e-11
0
1.75619e-11
2.19523e-11
7.68332e-12
1.4269e-11
9.87856e-12
2.305e-11
2.19523e-12
-6.5857e-12
4.39047e-12
6.5857e-12
1.53666e-11
2.08547e-11
1.09762e-12
5.48809e-12
4.39047e-12
1.4269e-11
-1.09762e-11
0
0
-2.19523e-12
-1.09762e-12
0
-3.29285e-12
0
4.39047e-12
-4.39047e-12
-2.19523e-12
-1.31714e-11
-5.48809e-12
6.5857e-12
-1.09762e-12
-5.48809e-12
2.19523e-12
0.000178141
0.000405962
0.000324647
0.000158702
5.61796e-05
1.61474e-05
4.56037e-06
1.74679e-06
1.1567e-06
1.00151e-06
6.61541e-07
3.14292e-07
1.18345e-07
4.45314e-08
2.3095e-08
1.28882e-08
5.92604e-09
2.18426e-09
6.51985e-10
2.12938e-10
1.20738e-10
1.24031e-10
1.70131e-10
1.41593e-10
8.12237e-11
2.63428e-11
2.305e-11
1.64643e-11
9.87856e-12
8.78094e-12
3.29285e-12
4.39047e-12
6.58571e-12
1.53666e-11
-2.19523e-12
-8.78094e-12
-1.09762e-11
5.48809e-12
-1.20738e-11
-2.19524e-12
-3.29285e-12
-2.19524e-12
3.29285e-12
2.41476e-11
1.20738e-11
8.78094e-12
2.19523e-12
-1.09762e-12
1.09762e-12
8.78094e-12
1.09762e-12
4.39047e-12
1.4269e-11
1.09762e-12
-2.19524e-12
1.4269e-11
1.31714e-11
2.19524e-12
2.19523e-12
0
0
-2.19523e-12
2.19524e-12
8.78094e-12
3.29285e-12
-1.09762e-12
0
-1.20738e-11
1.09762e-12
0
-1.64643e-11
-9.87856e-12
1.09762e-12
-7.68332e-12
0
4.55909e-05
0.000103863
8.3404e-05
4.09483e-05
1.45093e-05
4.09977e-06
1.05582e-06
3.24458e-07
1.74943e-07
1.42133e-07
9.32382e-08
4.43141e-08
1.65806e-08
6.00836e-09
2.90539e-09
1.5652e-09
7.26623e-10
2.62331e-10
8.23213e-11
8.78094e-12
1.09762e-11
1.31714e-11
1.53666e-11
2.08547e-11
8.78094e-12
9.87856e-12
7.68332e-12
-1.31714e-11
-8.78094e-12
1.09762e-11
6.58571e-12
-4.39047e-12
-1.75619e-11
-6.58571e-12
-1.64643e-11
-2.19524e-12
-1.31714e-11
4.39047e-12
1.09762e-11
2.85381e-11
-1.09762e-12
4.39047e-12
-2.52452e-11
-3.29285e-12
5.48809e-12
-1.09762e-12
-1.09762e-11
-7.68332e-12
0
5.48809e-12
0
-2.19524e-12
-1.4269e-11
-8.78094e-12
0
-2.08547e-11
-4.39047e-12
-4.39047e-12
1.09762e-12
0
0
-2.19523e-12
4.39047e-12
0
5.48809e-12
0
-1.09762e-12
0
6.58571e-12
1.53666e-11
5.48809e-12
-5.48809e-12
-8.78094e-12
1.09762e-12
-4.39047e-12
9.69662e-06
2.20882e-05
1.78198e-05
8.79777e-06
3.13087e-06
8.80827e-07
2.16654e-07
5.72034e-08
2.48566e-08
1.83719e-08
1.18828e-08
5.63846e-09
2.08767e-09
7.29916e-10
3.21602e-10
1.75619e-10
7.35404e-11
1.53666e-11
1.31714e-11
-1.64643e-11
-2.85381e-11
-7.68332e-12
1.09762e-11
-9.87856e-12
-5.48809e-12
6.5857e-12
-6.5857e-12
-1.4269e-11
0
1.20738e-11
1.31714e-11
2.08547e-11
-5.48809e-12
-1.64643e-11
-7.68332e-12
1.20738e-11
6.5857e-12
6.5857e-12
1.4269e-11
1.53666e-11
3.29285e-12
-3.29285e-12
-1.31714e-11
-8.78094e-12
4.39047e-12
-8.78094e-12
-2.19523e-12
4.39047e-12
-1.09762e-12
2.19523e-12
-1.09762e-12
-4.39047e-12
-1.09762e-11
-3.29285e-12
2.19523e-12
0
-1.4269e-11
-1.09762e-12
-1.09762e-12
0
-1.09762e-12
4.39047e-12
0
-1.09762e-12
0
-4.39047e-12
-1.09762e-12
-1.09762e-12
0
6.5857e-12
8.78094e-12
-2.19523e-12
-4.39047e-12
8.78094e-12
0
1.76507e-06
4.0209e-06
3.25971e-06
1.61925e-06
5.7952e-07
1.63211e-07
3.92135e-08
9.34512e-09
3.27968e-09
2.14255e-09
1.34568e-09
6.24544e-10
1.98669e-10
4.28071e-11
7.68332e-12
4.39047e-12
-1.4269e-11
-5.48809e-12
-1.09762e-11
2.19523e-12
-2.305e-11
-1.31714e-11
3.29285e-12
-2.19524e-11
-5.48809e-12
-1.09762e-12
-5.48809e-12
-2.19524e-12
-7.68332e-12
-6.58571e-12
-1.09762e-11
1.97571e-11
3.07333e-11
-1.09762e-11
-8.78094e-12
-7.68332e-12
1.09762e-12
-5.48809e-12
1.20738e-11
-4.39047e-12
-4.39047e-12
3.29285e-12
2.52452e-11
9.87856e-12