/*--------------------------------*- C++ -*----------------------------------*\
  =========                 |
  \\      /  F ield         | OpenFOAM: The Open Source CFD Toolbox
   \\    /   O peration     | Website:  https://openfoam.org
    \\  /    A nd           | Version:  10
     \\/     M anipulation  |
\*---------------------------------------------------------------------------*/
FoamFile
{
    format      ascii;
    class       volScalarField;
    location    "455";
    object      gradTz;
}
// * * * * * * * * * * * * * * * * * * * * * * * * * * * * * * * * * * * * * //

dimensions      [0 -1 0 1 0 0 0];

internalField   nonuniform List<scalar> 
11250
(
-14341.4
-4137.08
-1517.13
-714.054
-409.964
-269.069
-192.494
-145.833
-114.992
-93.344
-77.4249
-65.272
-55.7044
-47.9771
-41.6018
-36.2486
-31.6883
-27.758
-24.3394
-21.345
-18.7085
-16.3788
-14.3156
-12.4865
-10.8648
-9.42804
-8.15701
-7.03485
-6.0466
-5.1788
-4.41926
-3.7568
-3.1812
-2.68304
-2.25369
-1.88521
-1.57036
-1.30253
-1.07574
-0.884587
-0.724219
-0.590312
-0.479033
-0.386999
-0.311248
-0.2492
-0.198621
-0.157592
-0.124471
-0.0978639
-0.0765941
-0.0596736
-0.0462787
-0.0357264
-0.0274539
-0.0210003
-0.0159902
-0.0121195
-0.00914368
-0.00686693
-0.00513348
-0.00382007
-0.00282976
-0.00208672
-0.00153194
-0.00111983
-0.000815305
-0.000591581
-0.000428325
-0.000310231
-0.000225897
-0.000166955
-0.000127412
-0.000103162
-9.16496e-05
-8228.45
-4826.66
-2734.34
-1643.02
-1066.55
-742.751
-547.445
-421.57
-335.689
-274.227
-228.448
-193.187
-165.245
-142.567
-123.786
-107.969
-94.4639
-82.8024
-72.644
-63.7351
-55.8832
-48.9393
-42.7857
-37.3272
-32.4855
-28.1943
-24.3968
-21.0431
-18.089
-15.4943
-13.223
-11.2417
-9.51992
-8.02965
-6.74507
-5.64252
-4.70037
-3.89887
-3.22014
-2.64802
-2.16802
-1.76721
-1.43411
-1.15861
-0.931844
-0.746092
-0.594673
-0.471839
-0.372679
-0.29302
-0.229338
-0.178677
-0.138571
-0.106976
-0.0822065
-0.0628829
-0.047881
-0.036291
-0.0273804
-0.0205629
-0.0153722
-0.0114393
-0.00847387
-0.00624882
-0.00458754
-0.00335344
-0.00244153
-0.00177157
-0.00128269
-0.000929041
-0.000676492
-0.000499982
-0.000381563
-0.000308945
-0.000274469
-5516.76
-4206.28
-2950.08
-2056.67
-1470.02
-1087.54
-832.599
-656.992
-531.688
-439.196
-368.775
-313.652
-269.441
-233.224
-203.015
-177.429
-155.483
-136.464
-119.848
-105.242
-92.343
-80.9178
-70.7794
-61.7766
-53.7836
-46.6941
-40.4162
-34.869
-29.9803
-25.6849
-21.9233
-18.6412
-15.7882
-13.3182
-11.1888
-9.36078
-7.79845
-6.46919
-5.34338
-4.39432
-3.59799
-2.93297
-2.38026
-1.92309
-1.54677
-1.23849
-0.987174
-0.783293
-0.618699
-0.486468
-0.380755
-0.296654
-0.230072
-0.177618
-0.136495
-0.104412
-0.0795045
-0.0602608
-0.0454656
-0.0341456
-0.0255267
-0.0189961
-0.0140718
-0.010377
-0.00761833
-0.00556899
-0.00405465
-0.00294208
-0.0021302
-0.00154291
-0.0011235
-0.000830362
-0.0006337
-0.0005131
-0.000455845
-4114.71
-3530.77
-2802.2
-2162.78
-1668.6
-1304.1
-1037.81
-841.574
-694.414
-581.715
-493.504
-422.988
-365.505
-317.815
-277.635
-243.331
-213.718
-187.923
-165.292
-145.329
-127.65
-111.955
-98.0011
-85.5903
-74.557
-64.7599
-56.0761
-48.3969
-41.6246
-35.6708
-30.4543
-25.9006
-21.9409
-18.5117
-15.5543
-13.0149
-10.8441
-8.99675
-7.43188
-6.11246
-5.00522
-4.08044
-3.31174
-2.67585
-2.15236
-1.72348
-1.37383
-1.09015
-0.861116
-0.677105
-0.529987
-0.412939
-0.32027
-0.24726
-0.190019
-0.14536
-0.110687
-0.0838982
-0.0633011
-0.0475416
-0.0355421
-0.0264497
-0.0195938
-0.0144493
-0.0106082
-0.00775474
-0.00564613
-0.00409694
-0.00296642
-0.00214861
-0.00156458
-0.00115638
-0.000882515
-0.000714573
-0.000634842
-3295.41
-2998.72
-2564.06
-2122.57
-1736.49
-1421.52
-1172.13
-976.327
-822.038
-699.216
-600.12
-518.987
-451.585
-394.814
-346.399
-304.658
-268.338
-236.496
-208.412
-183.532
-161.421
-141.733
-124.186
-108.548
-94.6218
-82.2383
-71.2486
-61.5202
-52.9332
-45.3782
-38.7545
-32.9691
-27.9359
-23.575
-19.8128
-16.5813
-13.8179
-11.4657
-9.47274
-7.79199
-6.38125
-5.20279
-4.22307
-3.41251
-2.74513
-2.19831
-1.75245
-1.39068
-1.09858
-0.863874
-0.676213
-0.526898
-0.408674
-0.315526
-0.242492
-0.185508
-0.141263
-0.107078
-0.0807929
-0.0606806
-0.0453661
-0.0337615
-0.025011
-0.0184447
-0.0135418
-0.00989945
-0.00720783
-0.00523025
-0.00378708
-0.00274308
-0.0019975
-0.00147638
-0.00112675
-0.000912347
-0.000810558
-2771.28
-2603.15
-2331.3
-2025.56
-1731.97
-1472.14
-1251.78
-1068.61
-917.375
-792.312
-688.241
-600.87
-526.791
-463.352
-408.515
-360.711
-318.739
-281.666
-248.77
-219.479
-193.34
-169.985
-149.109
-130.46
-113.818
-98.9946
-85.8204
-74.1438
-63.8262
-54.7403
-46.7682
-39.8002
-33.7346
-28.4764
-23.938
-20.0382
-16.7021
-13.8615
-11.454
-9.42321
-7.71824
-6.2937
-5.10917
-4.12899
-3.32183
-2.66039
-2.121
-1.68329
-1.32982
-1.04579
-0.818665
-0.637935
-0.494827
-0.382062
-0.293642
-0.224649
-0.171077
-0.129683
-0.0978527
-0.0734963
-0.0549494
-0.0408949
-0.0302964
-0.0223432
-0.0164046
-0.0119925
-0.00873205
-0.00633644
-0.00458816
-0.0033234
-0.00242015
-0.00178881
-0.00136523
-0.00110547
-0.000982143
-2413.46
-2309.49
-2130.69
-1914.71
-1692.12
-1481.86
-1292.92
-1127.81
-985.543
-863.594
-759.016
-668.993
-591.06
-523.162
-463.627
-411.112
-364.551
-323.092
-286.057
-252.897
-223.168
-196.502
-172.591
-151.171
-132.014
-114.916
-99.6957
-86.1864
-74.235
-63.6993
-54.4467
-46.3532
-39.3029
-33.1875
-27.9063
-23.3661
-19.4807
-16.171
-13.3651
-10.9974
-9.0091
-7.34742
-5.96541
-4.82159
-3.8795
-3.10736
-2.4776
-1.96649
-1.5537
-1.22195
-0.956642
-0.745506
-0.578306
-0.446546
-0.343224
-0.262596
-0.199986
-0.151604
-0.114399
-0.0859281
-0.0642467
-0.0478162
-0.0354253
-0.0261267
-0.0191831
-0.0140242
-0.0102117
-0.00741038
-0.00536594
-0.0038869
-0.00283057
-0.00209223
-0.00159684
-0.00129304
-0.00114881
-2157.47
-2088.55
-1965.22
-1808.5
-1638.1
-1468.56
-1308.68
-1162.8
-1032.23
-916.543
-814.481
-724.476
-644.95
-574.461
-511.754
-455.769
-405.626
-360.601
-320.094
-283.613
-250.743
-221.139
-194.499
-170.566
-149.106
-129.914
-112.797
-97.5819
-84.103
-72.207
-61.7493
-52.5936
-44.6119
-37.684
-31.6976
-26.5484
-22.1397
-18.3828
-15.1964
-12.5069
-10.2476
-8.35891
-6.78773
-5.48703
-4.41553
-3.53715
-2.82062
-2.23898
-1.76917
-1.39155
-1.08951
-0.849123
-0.658735
-0.508688
-0.391014
-0.299179
-0.22786
-0.172745
-0.130359
-0.0979209
-0.0732171
-0.054495
-0.0403752
-0.0297785
-0.0218652
-0.0159857
-0.0116404
-0.00844742
-0.00611708
-0.00443115
-0.00322702
-0.00238534
-0.00182061
-0.00147428
-0.00130986
-1967.94
-1919.62
-1830.79
-1713.72
-1581.14
-1443.63
-1308.7
-1180.95
-1062.7
-954.769
-857.027
-768.853
-689.409
-617.807
-553.2
-494.821
-442.002
-394.167
-350.821
-311.546
-275.979
-243.806
-214.75
-188.564
-165.024
-143.923
-125.069
-108.28
-93.3864
-80.2256
-68.6434
-58.4938
-49.6381
-41.9461
-35.2952
-29.571
-24.6676
-20.4872
-16.9402
-13.9452
-11.4284
-9.32387
-7.57263
-6.12252
-4.92765
-3.94794
-3.1486
-2.49964
-1.97536
-1.55388
-1.21673
-0.948361
-0.735786
-0.568234
-0.436818
-0.33425
-0.254588
-0.19302
-0.145668
-0.109427
-0.0818247
-0.0609047
-0.0451263
-0.0332842
-0.0244404
-0.0178692
-0.0130124
-0.00944346
-0.00683861
-0.004954
-0.00360792
-0.00266699
-0.00203566
-0.00164847
-0.00146464
-1823.99
-1788.48
-1721.99
-1631.96
-1526.75
-1413.96
-1299.59
-1187.85
-1081.37
-981.576
-889.039
-803.799
-725.585
-653.968
-588.463
-528.581
-473.863
-423.887
-378.278
-336.701
-298.855
-264.471
-233.303
-205.125
-179.725
-156.903
-136.471
-118.246
-102.055
-87.7278
-75.1053
-64.0329
-54.3638
-45.9586
-38.6861
-32.4231
-27.0553
-22.4767
-18.5901
-15.307
-12.5473
-10.2388
-8.31728
-6.72574
-5.41403
-4.33827
-3.46039
-2.74752
-2.17151
-1.70838
-1.33785
-1.04287
-0.809183
-0.624972
-0.480474
-0.367684
-0.280075
-0.212358
-0.160272
-0.120405
-0.0900392
-0.0670227
-0.049662
-0.0366315
-0.0268996
-0.0196681
-0.014323
-0.010395
-0.00752801
-0.00545363
-0.00397196
-0.0029362
-0.00224123
-0.001815
-0.00161264
-1712.52
-1685.37
-1633.82
-1562.61
-1477.35
-1383.48
-1285.68
-1187.58
-1091.72
-999.77
-912.691
-830.948
-754.676
-683.808
-618.154
-557.472
-501.495
-449.952
-402.586
-359.149
-319.41
-283.15
-250.159
-220.238
-193.193
-168.837
-146.987
-127.462
-110.089
-94.6968
-81.1195
-69.1973
-58.7766
-49.7109
-41.8612
-35.0969
-29.296
-24.3455
-20.1414
-16.5886
-13.6009
-11.101
-9.01947
-7.29492
-5.87321
-4.70696
-3.75503
-2.98187
-2.35704
-1.85456
-1.45249
-1.13235
-0.878705
-0.678732
-0.521851
-0.39938
-0.304243
-0.2307
-0.174127
-0.130823
-0.0978356
-0.0728305
-0.0539685
-0.0398102
-0.0292353
-0.0213769
-0.0155682
-0.0112993
-0.00818321
-0.00592854
-0.00431802
-0.00319216
-0.0024367
-0.00197337
-0.00175339
-1624.92
-1603.42
-1562.18
-1504.33
-1433.72
-1354.31
-1269.73
-1182.97
-1096.38
-1011.62
-929.848
-851.783
-777.837
-708.202
-642.931
-581.98
-525.251
-472.615
-423.923
-379.015
-337.728
-299.897
-265.352
-233.923
-205.439
-179.726
-156.612
-135.922
-117.484
-101.125
-86.6785
-73.9797
-62.8699
-53.1966
-44.8148
-37.5873
-31.3855
-26.0901
-21.5909
-17.7871
-14.5871
-11.9086
-9.67767
-7.82878
-6.30416
-5.05318
-4.03186
-3.20217
-2.53151
-1.9921
-1.5604
-1.21661
-0.944188
-0.729384
-0.560848
-0.429263
-0.327034
-0.248001
-0.1872
-0.140654
-0.105195
-0.078314
-0.0580354
-0.0428126
-0.0314419
-0.0229916
-0.0167449
-0.0121539
-0.00880258
-0.00637755
-0.00464527
-0.00343424
-0.00262161
-0.00212319
-0.00188656
-1555.27
-1537.71
-1503.76
-1455.56
-1395.84
-1327.52
-1253.41
-1175.98
-1097.27
-1018.9
-942.052
-867.596
-796.114
-727.988
-663.446
-602.609
-545.52
-492.169
-442.508
-396.461
-353.929
-314.799
-278.943
-246.224
-216.492
-189.591
-165.361
-143.634
-124.242
-107.015
-91.7824
-78.379
-66.6418
-56.4139
-47.5449
-39.8922
-33.3217
-27.7085
-22.9369
-18.9011
-15.5046
-12.6606
-10.291
-8.32657
-6.70624
-5.37641
-4.29044
-3.40806
-2.69466
-2.12076
-1.66138
-1.2955
-1.00552
-0.776843
-0.597398
-0.45728
-0.348409
-0.264232
-0.199467
-0.149882
-0.112105
-0.0834633
-0.0618552
-0.0456332
-0.0335153
-0.0245091
-0.017851
-0.0129574
-0.00938498
-0.00679983
-0.00495309
-0.00366198
-0.00279559
-0.00226419
-0.00201188
-1499.41
-1484.66
-1455.97
-1414.87
-1363.32
-1303.53
-1237.7
-1167.86
-1095.78
-1022.95
-950.535
-879.466
-810.428
-743.927
-680.321
-619.857
-562.694
-508.924
-458.584
-411.674
-368.156
-327.966
-291.018
-257.203
-226.399
-198.467
-173.259
-150.617
-130.378
-112.375
-96.4377
-82.3997
-70.0954
-59.3645
-50.0525
-42.0122
-35.1049
-29.2007
-24.1794
-19.9304
-16.3531
-13.3565
-10.8591
-8.788
-7.07922
-5.67642
-4.5306
-3.59938
-2.84634
-2.24044
-1.75536
-1.36894
-1.06264
-0.821063
-0.631467
-0.483403
-0.368345
-0.279375
-0.210916
-0.158497
-0.118556
-0.0882727
-0.0654237
-0.0482689
-0.0354531
-0.0259276
-0.0188852
-0.0137088
-0.00992972
-0.00719488
-0.0052411
-0.00387511
-0.00295843
-0.00239617
-0.00212921
-1454.3
-1441.59
-1416.78
-1380.95
-1335.6
-1282.41
-1223.13
-1159.44
-1092.87
-1024.77
-956.266
-888.281
-821.56
-756.691
-694.122
-634.195
-577.16
-523.191
-472.402
-424.854
-380.567
-339.523
-301.672
-266.938
-235.22
-206.4
-180.342
-156.899
-135.913
-117.222
-100.657
-86.051
-73.2377
-62.0537
-52.3415
-43.9502
-36.7371
-30.5682
-25.3192
-20.8757
-17.1331
-13.9969
-11.3822
-9.21325
-7.42319
-5.95329
-4.75238
-3.77615
-2.98657
-2.35114
-1.84233
-1.43694
-1.11556
-0.862038
-0.663047
-0.507627
-0.386839
-0.293427
-0.221542
-0.166495
-0.124548
-0.0927404
-0.0687395
-0.0507184
-0.0372545
-0.0272466
-0.019847
-0.0144078
-0.0104365
-0.00756249
-0.00550916
-0.00407351
-0.00311005
-0.00251908
-0.00223849
-1417.67
-1406.49
-1384.55
-1352.71
-1312.1
-1264.04
-1209.94
-1151.23
-1089.22
-1025.12
-959.99
-894.751
-830.163
-766.859
-705.353
-646.053
-589.278
-535.272
-484.208
-436.205
-391.329
-349.604
-311.016
-275.515
-243.025
-213.445
-186.654
-162.514
-140.874
-121.577
-104.457
-89.3465
-76.079
-64.4896
-54.4183
-45.7111
-38.2221
-31.814
-26.3588
-21.7388
-17.846
-14.5827
-11.8611
-9.60289
-7.7386
-6.20735
-4.95601
-3.93857
-3.11548
-2.45296
-1.92236
-1.49954
-1.16429
-0.899796
-0.692159
-0.529967
-0.4039
-0.306394
-0.231352
-0.173881
-0.130083
-0.0968684
-0.071804
-0.0529829
-0.0389203
-0.0284665
-0.0207368
-0.0150545
-0.0109056
-0.00790277
-0.00575735
-0.00425724
-0.00325048
-0.00263294
-0.00233973
-1387.82
-1377.77
-1358.02
-1329.21
-1292.25
-1248.19
-1198.22
-1143.52
-1085.25
-1024.5
-962.273
-899.44
-836.771
-774.924
-714.453
-655.814
-599.382
-545.449
-494.243
-445.926
-400.607
-358.347
-319.161
-283.026
-249.889
-219.664
-192.244
-167.502
-145.294
-125.467
-107.858
-92.3027
-78.6328
-66.6829
-56.2912
-47.3016
-39.5653
-32.9422
-27.3015
-22.5222
-18.4937
-15.1155
-12.2971
-9.95788
-8.02618
-6.43916
-5.14193
-4.08696
-3.23333
-2.54609
-1.99561
-1.55687
-1.20894
-0.934399
-0.718851
-0.550457
-0.419554
-0.318297
-0.240359
-0.180664
-0.135168
-0.100662
-0.0746212
-0.0550652
-0.0404523
-0.0295888
-0.0215555
-0.0156497
-0.0113374
-0.0082161
-0.00598592
-0.00442649
-0.00337987
-0.00273787
-0.00243303
-1363.41
-1354.23
-1336.14
-1309.67
-1275.54
-1234.63
-1187.93
-1136.47
-1081.27
-1023.31
-963.54
-902.788
-841.817
-781.293
-721.797
-663.818
-607.769
-553.984
-502.73
-454.209
-408.564
-365.887
-326.221
-289.567
-255.89
-225.122
-197.166
-171.907
-149.208
-128.92
-110.885
-94.939
-80.9147
-68.6461
-57.9704
-48.7297
-40.7731
-33.958
-28.1512
-23.2292
-19.0789
-15.5973
-12.6918
-10.2795
-8.28691
-6.64948
-5.31074
-4.22177
-3.34046
-2.63081
-2.06227
-1.60906
-1.24961
-0.965938
-0.743189
-0.569149
-0.43384
-0.329163
-0.248585
-0.186862
-0.139815
-0.10413
-0.0771972
-0.0569697
-0.041854
-0.0306158
-0.022305
-0.0161947
-0.0117328
-0.0085031
-0.00619533
-0.00458158
-0.00349846
-0.00283406
-0.00251857
-1343.42
-1334.9
-1318.1
-1293.43
-1261.51
-1223.08
-1178.99
-1130.14
-1077.44
-1021.81
-964.105
-905.136
-845.647
-786.305
-727.704
-670.356
-614.703
-561.11
-509.875
-461.232
-415.353
-372.356
-332.308
-295.232
-261.108
-229.884
-201.476
-175.775
-152.654
-131.969
-113.563
-97.2763
-82.9417
-70.3932
-59.4673
-50.0046
-41.8528
-34.8674
-28.9128
-23.8636
-19.6045
-16.0305
-13.0469
-10.5691
-8.52196
-6.83923
-5.46315
-4.34357
-3.43731
-2.70744
-2.1226
-1.65633
-1.28646
-0.994528
-0.765262
-0.586107
-0.446806
-0.33903
-0.256057
-0.192493
-0.144039
-0.107283
-0.0795401
-0.0587024
-0.0431295
-0.0315507
-0.0229873
-0.016691
-0.012093
-0.0087646
-0.00638619
-0.00472296
-0.0036066
-0.00292178
-0.0025966
-1327.02
-1319.02
-1303.21
-1279.95
-1249.76
-1213.29
-1171.28
-1124.54
-1073.89
-1020.18
-964.201
-906.746
-848.536
-790.234
-732.439
-675.68
-620.416
-567.037
-515.866
-467.16
-421.118
-377.878
-337.53
-300.111
-265.62
-234.017
-205.228
-179.153
-155.672
-134.644
-115.919
-99.3369
-84.7321
-71.9392
-60.794
-51.1364
-42.8128
-35.6769
-29.5916
-24.4298
-20.0741
-16.4179
-13.3648
-10.8286
-8.7327
-7.00949
-5.60001
-4.45302
-3.5244
-2.77639
-2.17692
-1.69891
-1.31967
-1.02031
-0.785173
-0.601411
-0.458513
-0.347941
-0.262807
-0.197583
-0.147858
-0.110135
-0.0816597
-0.0602704
-0.0442842
-0.0323972
-0.0236054
-0.0171407
-0.0124194
-0.00900162
-0.00655922
-0.00485116
-0.00370468
-0.00300136
-0.00266739
-1313.56
-1305.96
-1290.92
-1268.76
-1239.94
-1205.03
-1164.69
-1119.65
-1070.67
-1018.52
-963.994
-907.817
-850.702
-793.305
-736.225
-680.002
-625.107
-571.948
-520.867
-472.143
-425.991
-382.571
-341.987
-304.294
-269.503
-237.585
-208.477
-182.087
-158.299
-136.98
-117.981
-101.143
-86.3048
-73.2996
-61.9634
-52.1356
-43.6613
-36.3934
-30.1933
-24.9321
-20.4912
-16.7623
-13.6478
-11.0598
-8.9206
-7.16142
-5.72222
-4.55082
-3.60227
-2.83808
-2.22554
-1.73705
-1.34944
-1.04342
-0.803036
-0.615148
-0.469025
-0.355947
-0.268874
-0.202159
-0.151292
-0.112701
-0.0835673
-0.061682
-0.045324
-0.0331597
-0.0241622
-0.0175459
-0.0127137
-0.00921534
-0.00671528
-0.00496682
-0.00379318
-0.00307319
-0.00273129
-1302.51
-1295.22
-1280.79
-1259.51
-1231.76
-1198.09
-1159.08
-1115.41
-1067.78
-1016.94
-963.603
-908.5
-852.315
-795.696
-739.244
-683.499
-628.946
-576.003
-525.028
-476.314
-430.093
-386.54
-345.773
-307.861
-272.826
-240.649
-211.276
-184.621
-160.575
-139.008
-119.774
-102.718
-87.6787
-74.49
-62.9884
-53.0127
-44.4074
-37.0242
-30.7236
-25.3754
-20.8597
-17.067
-13.8982
-11.2647
-9.08722
-7.29625
-5.83076
-4.63775
-3.67153
-2.89298
-2.26885
-1.77103
-1.37597
-1.06404
-0.818976
-0.627412
-0.478414
-0.3631
-0.274298
-0.206251
-0.154365
-0.114997
-0.085275
-0.0629461
-0.0462554
-0.0338429
-0.0246613
-0.0179092
-0.0129775
-0.00940705
-0.00685529
-0.00507062
-0.00387263
-0.00313768
-0.00278867
-1293.45
-1286.41
-1272.45
-1251.85
-1224.96
-1192.27
-1154.33
-1111.76
-1065.24
-1015.46
-963.114
-908.906
-853.506
-797.553
-741.644
-686.323
-632.079
-579.341
-528.476
-479.792
-433.532
-389.883
-348.976
-310.89
-275.658
-243.269
-213.676
-186.8
-162.536
-140.759
-121.327
-104.085
-88.8724
-75.5263
-63.8821
-53.7786
-45.0597
-37.5766
-31.1885
-25.7644
-21.1834
-17.3349
-14.1188
-11.4452
-9.23418
-7.41527
-5.92664
-4.71459
-3.7328
-2.94158
-2.3072
-1.80115
-1.3995
-1.08233
-0.833126
-0.638304
-0.486756
-0.369458
-0.27912
-0.209891
-0.157099
-0.117041
-0.0867957
-0.0640722
-0.0470853
-0.0344518
-0.0251063
-0.0182332
-0.0132129
-0.00957811
-0.00698027
-0.0051633
-0.00394358
-0.00319528
-0.00283994
-1286.01
-1279.17
-1265.59
-1245.53
-1219.32
-1187.41
-1150.33
-1108.66
-1063.03
-1014.11
-962.584
-909.12
-854.378
-798.99
-743.548
-688.596
-634.628
-582.078
-531.324
-482.68
-436.402
-392.686
-351.672
-313.45
-278.059
-245.496
-215.722
-188.663
-164.218
-142.264
-122.663
-105.263
-89.9043
-76.4235
-64.6571
-54.4437
-45.6271
-38.0576
-31.5939
-26.1041
-21.4664
-17.5693
-14.3118
-11.6034
-9.3631
-7.51976
-6.01088
-4.78216
-3.78671
-2.98437
-2.34099
-1.8277
-1.42026
-1.09847
-0.84562
-0.647925
-0.494129
-0.37508
-0.283386
-0.213112
-0.15952
-0.118851
-0.0881429
-0.06507
-0.047821
-0.0349918
-0.025501
-0.0185207
-0.0134218
-0.00972997
-0.00709124
-0.00524561
-0.00400662
-0.00324647
-0.0028855
-1279.93
-1273.23
-1259.95
-1240.32
-1214.65
-1183.37
-1146.97
-1106.02
-1061.12
-1012.91
-962.051
-909.203
-855.011
-800.099
-745.054
-690.421
-636.696
-584.317
-533.668
-485.071
-438.789
-395.027
-353.933
-315.603
-280.085
-247.382
-217.459
-190.248
-165.652
-143.551
-123.809
-106.275
-90.7915
-77.1962
-65.3256
-55.0184
-46.118
-38.4743
-31.9455
-26.399
-21.7123
-17.7733
-14.48
-11.7413
-9.47558
-7.61101
-6.08451
-4.84125
-3.83389
-3.02185
-2.37061
-1.85098
-1.43847
-1.11265
-0.856593
-0.656379
-0.50061
-0.380025
-0.28714
-0.215947
-0.161651
-0.120446
-0.08933
-0.0659497
-0.0484698
-0.0354682
-0.0258492
-0.0187744
-0.0136063
-0.00986407
-0.00718927
-0.00531834
-0.00406233
-0.00329173
-0.00292578
-1274.94
-1268.37
-1255.33
-1236.04
-1210.8
-1180.02
-1144.17
-1103.8
-1059.48
-1011.85
-961.54
-909.2
-855.465
-800.952
-746.243
-691.884
-638.369
-586.143
-535.591
-487.043
-440.766
-396.974
-355.82
-317.407
-281.787
-248.971
-218.927
-191.591
-166.869
-144.646
-124.785
-107.139
-91.5505
-77.8584
-65.8994
-55.5123
-46.5404
-38.8333
-32.2488
-26.6538
-21.925
-17.9498
-14.6258
-11.8609
-9.57322
-7.69028
-6.14852
-4.89266
-3.87497
-3.0545
-2.39642
-1.87129
-1.45436
-1.12502
-0.86618
-0.663769
-0.506279
-0.384351
-0.290425
-0.21843
-0.163518
-0.121843
-0.0903708
-0.0667211
-0.0490389
-0.0358861
-0.0261549
-0.0189972
-0.0137683
-0.0099819
-0.00727543
-0.00538228
-0.00411132
-0.00333153
-0.00296122
-1270.88
-1264.4
-1251.55
-1232.52
-1207.63
-1177.25
-1141.84
-1101.93
-1058.09
-1010.93
-961.065
-909.143
-855.786
-801.605
-747.18
-693.052
-639.719
-587.626
-537.163
-488.663
-442.399
-398.587
-357.389
-318.911
-283.212
-250.304
-220.162
-192.723
-167.898
-145.572
-125.613
-107.873
-92.1965
-78.4229
-66.3893
-55.9346
-46.9021
-39.1411
-32.5092
-26.8727
-22.108
-18.1018
-14.7514
-11.9641
-9.65753
-7.75878
-6.20387
-4.93716
-3.91054
-3.08279
-2.41881
-1.88891
-1.46816
-1.13577
-0.874513
-0.670196
-0.51121
-0.388116
-0.293286
-0.220593
-0.165145
-0.123061
-0.0912784
-0.0673941
-0.0495356
-0.0362511
-0.0264219
-0.0191918
-0.0139098
-0.0100849
-0.00735075
-0.0054382
-0.00415418
-0.00336636
-0.00299223
-1267.56
-1261.16
-1248.46
-1229.65
-1205.03
-1174.96
-1139.91
-1100.37
-1056.92
-1010.13
-960.636
-909.055
-856.01
-802.104
-747.915
-693.984
-640.806
-588.829
-538.445
-489.989
-443.74
-399.919
-358.688
-320.161
-284.398
-251.417
-221.195
-193.673
-168.763
-146.353
-126.311
-108.493
-92.7436
-78.9017
-66.8054
-56.2939
-47.2102
-39.4037
-32.7315
-27.0598
-22.2646
-18.2321
-14.8591
-12.0526
-9.72994
-7.81766
-6.2515
-4.97547
-3.94119
-3.10719
-2.43812
-1.90412
-1.48008
-1.14506
-0.881718
-0.675755
-0.515478
-0.391377
-0.295765
-0.222468
-0.166556
-0.124118
-0.0920659
-0.0679783
-0.0499669
-0.036568
-0.0266539
-0.019361
-0.0140329
-0.0101744
-0.00741628
-0.00548685
-0.00419148
-0.00339668
-0.00301923
-1264.87
-1258.52
-1245.94
-1227.3
-1202.9
-1173.09
-1138.32
-1099.08
-1055.93
-1009.45
-960.254
-908.952
-856.162
-802.484
-748.492
-694.725
-641.678
-589.801
-539.486
-491.072
-444.84
-401.013
-359.76
-321.194
-285.382
-252.343
-222.056
-194.466
-169.486
-147.007
-126.898
-109.016
-93.2047
-79.3059
-67.1572
-56.5979
-47.4713
-39.6265
-32.9204
-27.219
-22.3978
-18.343
-14.9509
-12.1282
-9.79182
-7.86802
-6.29226
-5.00828
-3.96746
-3.12811
-2.4547
-1.91718
-1.49032
-1.15305
-0.887915
-0.68054
-0.519153
-0.394185
-0.2979
-0.224084
-0.167773
-0.12503
-0.0927457
-0.0684827
-0.0503394
-0.0368419
-0.0268543
-0.0195072
-0.0141393
-0.0102519
-0.00747298
-0.00552897
-0.00422378
-0.00342295
-0.00304263
-1262.68
-1256.38
-1243.89
-1225.39
-1201.16
-1171.55
-1137.01
-1098.01
-1055.11
-1008.88
-959.919
-908.844
-856.263
-802.773
-748.943
-695.312
-642.376
-590.583
-540.329
-491.953
-445.737
-401.91
-360.64
-322.046
-286.194
-253.109
-222.77
-195.125
-170.089
-147.553
-127.389
-109.453
-93.5915
-79.6454
-67.4531
-56.8541
-47.6915
-39.8146
-33.08
-27.3536
-22.5108
-18.4371
-15.0289
-12.1925
-9.84442
-7.91087
-6.32696
-5.03623
-3.98986
-3.14596
-2.46885
-1.92834
-1.49907
-1.15988
-0.893218
-0.684636
-0.522301
-0.396592
-0.299732
-0.22547
-0.168817
-0.125812
-0.0933295
-0.068916
-0.0506595
-0.0370773
-0.0270268
-0.019633
-0.0142309
-0.0103186
-0.0075218
-0.00556525
-0.00425161
-0.00344558
-0.00306279
-1260.91
-1254.65
-1242.23
-1223.84
-1199.74
-1170.3
-1135.93
-1097.13
-1054.43
-1008.4
-959.63
-908.739
-856.328
-802.99
-749.294
-695.777
-642.934
-591.212
-541.009
-492.666
-446.467
-402.641
-361.36
-322.744
-286.863
-253.74
-223.36
-195.671
-170.589
-148.007
-127.797
-109.817
-93.9143
-79.9292
-67.7008
-57.0687
-47.8763
-39.9726
-33.2143
-27.467
-22.6059
-18.5165
-15.0947
-12.2467
-9.88891
-7.94714
-6.35636
-5.05993
-4.00886
-3.16111
-2.48087
-1.93782
-1.50651
-1.16569
-0.897733
-0.688125
-0.524984
-0.398645
-0.301293
-0.226653
-0.169709
-0.126481
-0.0938282
-0.0692863
-0.0509332
-0.0372786
-0.0271743
-0.0197407
-0.0143093
-0.0103757
-0.00756362
-0.00559633
-0.00427546
-0.00346498
-0.00308007
-1259.48
-1253.25
-1240.89
-1222.58
-1198.6
-1169.28
-1135.06
-1096.41
-1053.86
-1007.99
-959.383
-908.64
-856.367
-803.154
-749.568
-696.144
-643.377
-591.716
-541.557
-493.243
-447.059
-403.236
-361.947
-323.315
-287.41
-254.259
-223.846
-196.12
-171.002
-148.382
-128.135
-110.12
-94.1824
-80.1652
-67.907
-57.2477
-48.0306
-40.1047
-33.3267
-27.562
-22.6857
-18.5832
-15.15
-12.2924
-9.92636
-7.97768
-6.38114
-5.07993
-4.0249
-3.17391
-2.49103
-1.94584
-1.51281
-1.17061
-0.901557
-0.691082
-0.527259
-0.400385
-0.302619
-0.227657
-0.170466
-0.127049
-0.0942522
-0.0696013
-0.051166
-0.03745
-0.0272998
-0.0198324
-0.0143761
-0.0104244
-0.00759926
-0.00562283
-0.0042958
-0.00348153
-0.00309482
-1258.33
-1252.12
-1239.81
-1221.57
-1197.67
-1168.45
-1134.35
-1095.82
-1053.4
-1007.66
-959.173
-908.55
-856.389
-803.277
-749.78
-696.433
-643.729
-592.118
-541.996
-493.707
-447.537
-403.718
-362.424
-323.779
-287.856
-254.682
-224.243
-196.489
-171.341
-148.691
-128.414
-110.369
-94.4041
-80.3607
-68.0781
-57.3963
-48.1588
-40.2146
-33.4203
-27.6412
-22.7523
-18.6388
-15.1963
-12.3306
-9.95771
-8.00328
-6.40192
-5.0967
-4.03837
-3.18467
-2.49957
-1.95259
-1.51811
-1.17476
-0.90478
-0.693575
-0.529177
-0.401855
-0.303738
-0.228505
-0.171106
-0.127529
-0.0946107
-0.0698677
-0.0513631
-0.037595
-0.0274061
-0.01991
-0.0144327
-0.0104656
-0.00762949
-0.00564531
-0.00431306
-0.00349558
-0.00310734
-1257.4
-1251.22
-1238.94
-1220.75
-1196.92
-1167.79
-1133.77
-1095.34
-1053.02
-1007.38
-958.997
-908.47
-856.399
-803.369
-749.945
-696.66
-644.008
-592.438
-542.347
-494.079
-447.921
-404.106
-362.81
-324.156
-288.219
-255.027
-224.567
-196.791
-171.618
-148.944
-128.643
-110.574
-94.5866
-80.5217
-68.2192
-57.519
-48.2648
-40.3056
-33.4978
-27.7069
-22.8076
-18.6851
-15.2347
-12.3624
-9.98383
-8.02462
-6.41926
-5.11071
-4.04963
-3.19366
-2.50671
-1.95824
-1.52255
-1.17823
-0.907483
-0.695667
-0.530788
-0.403088
-0.304679
-0.229218
-0.171644
-0.127933
-0.0949124
-0.070092
-0.051529
-0.0377172
-0.0274957
-0.0199755
-0.0144804
-0.0105004
-0.00765499
-0.00566429
-0.00432763
-0.00350745
-0.00311792
-1256.66
-1250.49
-1238.24
-1220.1
-1196.32
-1167.25
-1133.3
-1094.95
-1052.71
-1007.15
-958.85
-908.4
-856.401
-803.437
-750.071
-696.837
-644.228
-592.692
-542.627
-494.377
-448.23
-404.418
-363.12
-324.46
-288.512
-255.306
-224.83
-197.036
-171.844
-149.15
-128.83
-110.742
-94.7361
-80.6538
-68.335
-57.6199
-48.3521
-40.3805
-33.5618
-27.7611
-22.8533
-18.7233
-15.2665
-12.3887
-10.0055
-8.04233
-6.43366
-5.12235
-4.05898
-3.20114
-2.51266
-1.96294
-1.52626
-1.18113
-0.909737
-0.697412
-0.532133
-0.404119
-0.305465
-0.229815
-0.172094
-0.128271
-0.095165
-0.0702798
-0.051668
-0.0378196
-0.0275709
-0.0200304
-0.0145204
-0.0105296
-0.0076764
-0.00568022
-0.00433987
-0.00351741
-0.0031268
-1256.07
-1249.91
-1237.69
-1219.58
-1195.84
-1166.82
-1132.93
-1094.64
-1052.47
-1006.97
-958.728
-908.34
-856.399
-803.487
-750.169
-696.976
-644.401
-592.893
-542.849
-494.614
-448.476
-404.669
-363.37
-324.705
-288.749
-255.532
-225.043
-197.234
-172.027
-149.318
-128.982
-110.879
-94.8579
-80.7616
-68.4297
-57.7025
-48.4235
-40.442
-33.6143
-27.8056
-22.8908
-18.7548
-15.2928
-12.4104
-10.0234
-8.05695
-6.44555
-5.13197
-4.06672
-3.20733
-2.51759
-1.96684
-1.52932
-1.18353
-0.911609
-0.698862
-0.53325
-0.404976
-0.306118
-0.230311
-0.172468
-0.128552
-0.0953754
-0.0704363
-0.0517839
-0.037905
-0.0276335
-0.0200762
-0.0145538
-0.010554
-0.00769428
-0.00569353
-0.0043501
-0.00352574
-0.00313423
-1255.6
-1249.45
-1237.25
-1219.16
-1195.46
-1166.48
-1132.63
-1094.39
-1052.26
-1006.82
-958.629
-908.289
-856.393
-803.524
-750.244
-697.084
-644.537
-593.051
-543.025
-494.802
-448.672
-404.868
-363.569
-324.9
-288.938
-255.713
-225.214
-197.394
-172.175
-149.454
-129.105
-110.99
-94.9568
-80.8492
-68.5067
-57.7697
-48.4818
-40.4921
-33.6571
-27.8421
-22.9216
-18.7806
-15.3142
-12.4282
-10.038
-8.06896
-6.45533
-5.13988
-4.07309
-3.21243
-2.52165
-1.97006
-1.53186
-1.18551
-0.913154
-0.700061
-0.534174
-0.405685
-0.306659
-0.230721
-0.172778
-0.128785
-0.0955498
-0.0705661
-0.05188
-0.0379759
-0.0276855
-0.0201142
-0.0145816
-0.0105742
-0.00770914
-0.00570459
-0.00435861
-0.00353268
-0.00314041
-1255.23
-1249.09
-1236.89
-1218.83
-1195.15
-1166.2
-1132.39
-1094.18
-1052.1
-1006.7
-958.547
-908.246
-856.387
-803.551
-750.301
-697.168
-644.643
-593.176
-543.163
-494.951
-448.827
-405.027
-363.728
-325.057
-289.09
-255.858
-225.351
-197.523
-172.294
-149.563
-129.204
-111.079
-95.0367
-80.9201
-68.5691
-57.8242
-48.5291
-40.5328
-33.692
-27.8717
-22.9466
-18.8016
-15.3318
-12.4427
-10.05
-8.07877
-6.46333
-5.14636
-4.07831
-3.21661
-2.52498
-1.9727
-1.53394
-1.18714
-0.914425
-0.701046
-0.534934
-0.406268
-0.307104
-0.23106
-0.173034
-0.128978
-0.0956936
-0.0706732
-0.0519594
-0.0380344
-0.0277285
-0.0201457
-0.0146045
-0.010591
-0.00772142
-0.00571375
-0.00436565
-0.00353841
-0.00314553
-1254.94
-1248.8
-1236.62
-1218.57
-1194.91
-1165.98
-1132.2
-1094.02
-1051.97
-1006.6
-958.481
-908.211
-856.38
-803.571
-750.345
-697.232
-644.726
-593.273
-543.272
-495.068
-448.95
-405.152
-363.854
-325.181
-289.21
-255.974
-225.461
-197.625
-172.389
-149.65
-129.284
-111.151
-95.101
-80.9772
-68.6194
-57.8682
-48.5673
-40.5658
-33.7202
-27.8957
-22.9669
-18.8186
-15.346
-12.4545
-10.0597
-8.08676
-6.46984
-5.15164
-4.08257
-3.22002
-2.5277
-1.97485
-1.53563
-1.18847
-0.915464
-0.701852
-0.535556
-0.406746
-0.307469
-0.231337
-0.173244
-0.129135
-0.0958116
-0.0707611
-0.0520245
-0.0380824
-0.0277638
-0.0201715
-0.0146234
-0.0106048
-0.00773153
-0.00572128
-0.00437144
-0.00354314
-0.00314974
-1254.7
-1248.57
-1236.4
-1218.36
-1194.72
-1165.81
-1132.05
-1093.9
-1051.87
-1006.52
-958.427
-908.181
-856.373
-803.586
-750.378
-697.283
-644.79
-593.349
-543.358
-495.16
-449.047
-405.251
-363.953
-325.279
-289.306
-256.066
-225.548
-197.707
-172.465
-149.72
-129.347
-111.208
-95.1525
-81.0229
-68.6597
-57.9035
-48.5979
-40.5923
-33.7429
-27.915
-22.9832
-18.8324
-15.3575
-12.4641
-10.0676
-8.09322
-6.47511
-5.15592
-4.08602
-3.22279
-2.5299
-1.9766
-1.53702
-1.18956
-0.916309
-0.702508
-0.536063
-0.407135
-0.307767
-0.231563
-0.173415
-0.129264
-0.095908
-0.0708329
-0.0520777
-0.0381217
-0.0277926
-0.0201926
-0.0146388
-0.010616
-0.00773981
-0.00572745
-0.00437619
-0.00354701
-0.0031532
-1254.52
-1248.39
-1236.23
-1218.2
-1194.57
-1165.68
-1131.93
-1093.8
-1051.79
-1006.46
-958.384
-908.157
-856.367
-803.596
-750.404
-697.321
-644.84
-593.409
-543.424
-495.233
-449.123
-405.329
-364.031
-325.356
-289.382
-256.138
-225.617
-197.772
-172.526
-149.775
-129.398
-111.254
-95.1935
-81.0594
-68.6919
-57.9317
-48.6225
-40.6135
-33.7611
-27.9305
-22.9964
-18.8434
-15.3667
-12.4718
-10.074
-8.09843
-6.47936
-5.15937
-4.0888
-3.22503
-2.53169
-1.97801
-1.53813
-1.19043
-0.916994
-0.70304
-0.536474
-0.40745
-0.308008
-0.231747
-0.173554
-0.129369
-0.0959863
-0.0708913
-0.052121
-0.0381537
-0.0278161
-0.0202098
-0.0146514
-0.0106252
-0.00774656
-0.00573248
-0.00438006
-0.00355016
-0.00315602
-1254.38
-1248.25
-1236.09
-1218.07
-1194.45
-1165.57
-1131.84
-1093.72
-1051.72
-1006.41
-958.35
-908.137
-856.361
-803.603
-750.423
-697.351
-644.879
-593.455
-543.476
-495.289