/*--------------------------------*- C++ -*----------------------------------*\
  =========                 |
  \\      /  F ield         | OpenFOAM: The Open Source CFD Toolbox
   \\    /   O peration     | Website:  https://openfoam.org
    \\  /    A nd           | Version:  10
     \\/     M anipulation  |
\*---------------------------------------------------------------------------*/
FoamFile
{
    format      ascii;
    class       volScalarField;
    location    "352";
    object      T;
}
// * * * * * * * * * * * * * * * * * * * * * * * * * * * * * * * * * * * * * //

dimensions      [0 0 0 1 0 0 0];

internalField   nonuniform List<scalar> 
11250
(
249.849
167.577
139.393
126.99
120.229
115.944
112.949
110.718
108.98
107.585
106.439
105.482
104.674
103.985
103.396
102.889
102.453
102.077
101.754
101.476
101.238
101.034
100.86
100.712
100.587
100.482
100.394
100.32
100.259
100.209
100.167
100.133
100.106
100.083
100.065
100.051
100.04
100.031
100.023
100.018
100.014
100.01
100.008
100.006
100.004
100.003
100.002
100.002
100.001
100.001
100.001
100
100
100
100
100
100
100
100
100
100
100
100
100
100
100
100
100
100
100
100
100
100
100
100
331.519
248.647
202.407
175.343
158.225
146.559
138.106
131.684
126.625
122.533
119.156
116.326
113.931
111.887
110.134
108.625
107.326
106.206
105.241
104.411
103.699
103.09
102.57
102.129
101.756
101.441
101.178
100.958
100.775
100.624
100.5
100.398
100.316
100.249
100.195
100.152
100.118
100.091
100.07
100.054
100.041
100.031
100.023
100.017
100.013
100.009
100.007
100.005
100.004
100.003
100.002
100.001
100.001
100.001
100
100
100
100
100
100
100
100
100
100
100
100
100
100
100
100
100
100
100
100
100
359.107
293.102
246.273
213.789
190.817
174.02
161.298
151.357
143.381
136.848
131.409
126.824
122.923
119.583
116.712
114.236
112.099
110.254
108.664
107.295
106.119
105.113
104.255
103.525
102.908
102.387
101.951
101.587
101.284
101.034
100.828
100.66
100.523
100.413
100.324
100.253
100.196
100.151
100.116
100.089
100.067
100.051
100.038
100.029
100.021
100.016
100.012
100.008
100.006
100.004
100.003
100.002
100.002
100.001
100.001
100.001
100
100
100
100
100
100
100
100
100
100
100
100
100
100
100
100
100
100
100
370.922
318.408
275.841
242.786
217.316
197.499
181.819
169.183
158.824
150.205
142.948
136.78
131.499
126.956
123.035
119.644
116.711
114.175
111.984
110.096
108.474
107.083
105.896
104.887
104.032
103.311
102.706
102.201
101.782
101.435
101.15
100.917
100.727
100.573
100.45
100.351
100.273
100.21
100.162
100.123
100.094
100.071
100.053
100.04
100.03
100.022
100.016
100.012
100.009
100.006
100.004
100.003
100.002
100.002
100.001
100.001
100.001
100
100
100
100
100
100
100
100
100
100
100
100
100
100
100
100
100
100
377.11
333.808
295.96
264.289
238.273
216.972
199.445
184.897
172.704
162.39
153.595
146.048
139.539
133.907
129.024
124.787
121.111
117.924
115.167
112.787
110.739
108.981
107.48
106.202
105.119
104.205
103.438
102.797
102.265
101.824
101.462
101.166
100.924
100.729
100.572
100.447
100.347
100.268
100.206
100.157
100.119
100.09
100.068
100.051
100.038
100.028
100.02
100.015
100.011
100.008
100.006
100.004
100.003
100.002
100.001
100.001
100.001
100
100
100
100
100
100
100
100
100
100
100
100
100
100
100
100
100
100
380.837
343.803
309.986
280.25
254.656
232.84
214.284
198.469
184.933
173.295
163.244
154.531
146.959
140.365
134.619
129.613
125.255
121.468
118.183
115.343
112.895
110.792
108.992
107.46
106.16
105.062
104.14
103.37
102.729
102.199
101.762
101.405
101.115
100.88
100.69
100.539
100.419
100.323
100.248
100.19
100.144
100.109
100.082
100.061
100.045
100.034
100.025
100.018
100.013
100.009
100.007
100.005
100.003
100.002
100.002
100.001
100.001
100.001
100
100
100
100
100
100
100
100
100
100
100
100
100
100
100
100
100
383.293
350.643
320.03
292.205
267.434
245.651
226.615
210.015
195.541
182.904
171.856
162.184
153.709
146.283
139.778
134.085
129.113
124.778
121.01
117.745
114.926
112.501
110.423
108.651
107.147
105.876
104.808
103.915
103.171
102.556
102.049
101.634
101.297
101.024
100.803
100.627
100.487
100.376
100.289
100.221
100.168
100.127
100.095
100.071
100.053
100.039
100.029
100.021
100.015
100.011
100.008
100.006
100.004
100.003
100.002
100.001
100.001
100.001
100
100
100
100
100
100
100
100
100
100
100
100
100
100
100
100
100
385.007
355.518
327.402
301.267
277.424
255.954
236.778
219.736
204.632
191.264
179.443
168.998
159.775
151.641
144.478
138.183
132.663
127.838
123.632
119.98
116.82
114.098
111.763
109.77
108.076
106.643
105.438
104.429
103.589
102.893
102.321
101.852
101.469
101.16
100.911
100.711
100.553
100.427
100.328
100.251
100.19
100.144
100.108
100.081
100.06
100.044
100.033
100.024
100.017
100.013
100.009
100.006
100.005
100.003
100.002
100.002
100.001
100.001
100.001
100
100
100
100
100
100
100
100
100
100
100
100
100
100
100
100
386.251
359.1
332.928
308.217
285.272
264.232
245.116
227.859
212.352
198.463
186.056
174.998
165.163
156.437
148.713
141.896
135.897
130.636
126.039
122.038
118.57
115.578
113.008
110.81
108.941
107.359
106.026
104.91
103.981
103.21
102.576
102.056
101.632
101.288
101.012
100.79
100.614
100.474
100.365
100.279
100.212
100.16
100.12
100.09
100.067
100.049
100.036
100.027
100.019
100.014
100.01
100.007
100.005
100.004
100.003
100.002
100.001
100.001
100.001
100
100
100
100
100
100
100
100
100
100
100
100
100
100
100
100
387.179
361.793
337.139
313.605
291.467
270.888
251.937
234.611
218.862
204.611
191.767
180.231
169.903
160.687
152.491
145.227
138.812
133.17
128.228
123.916
120.172
116.936
114.152
111.769
109.74
108.021
106.572
105.357
104.345
103.505
102.813
102.246
101.783
101.408
101.106
100.864
100.672
100.519
100.399
100.305
100.232
100.175
100.132
100.098
100.073
100.054
100.04
100.029
100.021
100.015
100.011
100.008
100.006
100.004
100.003
100.002
100.001
100.001
100.001
100
100
100
100
100
100
100
100
100
100
100
100
100
100
100
100
387.886
363.854
340.393
317.821
296.384
276.249
257.509
240.202
224.32
209.826
196.662
184.757
174.036
164.421
155.831
148.188
141.417
135.445
130.199
125.614
121.625
118.171
115.196
112.646
110.472
108.628
107.073
105.768
104.68
103.777
103.032
102.422
101.924
101.52
101.194
100.933
100.725
100.561
100.431
100.329
100.25
100.189
100.142
100.106
100.079
100.058
100.043
100.031
100.023
100.017
100.012
100.008
100.006
100.004
100.003
100.002
100.001
100.001
100.001
100
100
100
100
100
100
100
100
100
100
100
100
100
100
100
100
388.431
365.451
342.932
321.144
300.303
280.572
262.057
244.819
228.877
214.224
200.828
188.642
177.612
167.672
158.757
150.798
143.724
137.468
131.96
127.136
122.931
119.285
116.139
113.44
111.136
109.181
107.53
106.144
104.987
104.026
103.234
102.583
102.052
101.622
101.275
100.996
100.775
100.599
100.46
100.352
100.268
100.202
100.152
100.114
100.085
100.063
100.046
100.034
100.024
100.018
100.013
100.009
100.006
100.005
100.003
100.002
100.002
100.001
100.001
100.001
100
100
100
100
100
100
100
100
100
100
100
100
100
100
100
388.856
366.7
344.931
323.778
303.438
284.063
265.767
248.622
232.667
217.914
204.353
191.956
180.683
170.483
161.302
153.079
145.751
139.253
133.52
128.489
124.096
120.281
116.985
114.154
111.735
109.68
107.943
106.484
105.265
104.253
103.417
102.73
102.17
101.715
101.348
101.054
100.82
100.634
100.487
100.373
100.283
100.214
100.161
100.121
100.09
100.066
100.049
100.036
100.026
100.019
100.013
100.01
100.007
100.005
100.003
100.002
100.002
100.001
100.001
100.001
100
100
100
100
100
100
100
100
100
100
100
100
100
100
100
389.191
367.685
346.513
325.876
305.952
286.886
268.791
251.748
235.808
220.997
207.321
194.765
183.303
172.897
163.5
155.059
147.517
140.815
134.891
129.682
125.126
121.165
117.738
114.791
112.27
110.127
108.314
106.79
105.516
104.457
103.582
102.863
102.276
101.8
101.415
101.107
100.861
100.666
100.512
100.392
100.298
100.225
100.169
100.127
100.094
100.07
100.051
100.037
100.027
100.02
100.014
100.01
100.007
100.005
100.004
100.002
100.002
100.001
100.001
100.001
100
100
100
100
100
100
100
100
100
100
100
100
100
100
100
389.456
368.466
347.772
327.553
307.973
289.17
271.255
254.313
238.404
223.563
209.807
197.133
185.526
174.955
165.383
156.764
149.046
142.173
136.086
130.726
126.031
121.943
118.403
115.354
112.745
110.524
108.644
107.062
105.74
104.639
103.73
102.982
102.372
101.876
101.475
101.154
100.898
100.695
100.534
100.409
100.311
100.235
100.177
100.132
100.098
100.073
100.054
100.039
100.028
100.021
100.015
100.011
100.008
100.005
100.004
100.003
100.002
100.001
100.001
100.001
100
100
100
100
100
100
100
100
100
100
100
100
100
100
100
389.666
369.088
348.775
328.896
309.599
291.017
273.26
256.413
240.542
225.69
211.88
199.12
187.4
176.7
166.988
158.224
150.36
143.344
137.121
131.632
126.819
122.623
118.985
115.849
113.163
110.874
108.936
107.304
105.938
104.802
103.862
103.089
102.457
101.944
101.529
101.196
100.931
100.72
100.554
100.424
100.323
100.244
100.184
100.137
100.102
100.076
100.056
100.041
100.03
100.021
100.015
100.011
100.008
100.006
100.004
100.003
100.002
100.001
100.001
100.001
100
100
100
100
100
100
100
100
100
100
100
100
100
100
100
389.833
369.583
349.578
329.972
310.908
292.512
274.89
258.13
242.3
227.447
213.602
200.778
188.973
178.171
168.347
159.465
151.481
144.348
138.011
132.415
127.501
123.213
119.491
116.281
113.528
111.181
109.192
107.516
106.113
104.944
103.978
103.183
102.532
102.004
101.577
101.234
100.96
100.743
100.572
100.438
100.333
100.252
100.19
100.142
100.106
100.078
100.057
100.042
100.031
100.022
100.016
100.011
100.008
100.006
100.004
100.003
100.002
100.001
100.001
100.001
100
100
100
100
100
100
100
100
100
100
100
100
100
100
100
389.967
369.979
350.22
330.836
311.962
293.719
276.212
259.529
243.739
228.893
215.026
202.156
190.285
179.404
169.491
160.513
152.433
145.202
138.771
133.085
128.087
123.721
119.928
116.654
113.844
111.447
109.415
107.701
106.265
105.07
104.08
103.265
102.599
102.057
101.619
101.267
100.986
100.763
100.588
100.45
100.342
100.259
100.195
100.146
100.109
100.08
100.059
100.043
100.031
100.023
100.016
100.012
100.008
100.006
100.004
100.003
100.002
100.001
100.001
100.001
100
100
100
100
100
100
100
100
100
100
100
100
100
100
100
390.074
370.295
350.734
331.529
312.81
294.693
277.283
260.667
244.914
230.079
216.199
203.296
191.376
180.432
170.448
161.394
153.235
145.925
139.416
133.655
128.587
124.156
120.304
116.975
114.117
111.678
109.607
107.861
106.398
105.178
104.168
103.337
102.656
102.103
101.656
101.296
101.009
100.781
100.601
100.46
100.35
100.265
100.2
100.149
100.111
100.082
100.061
100.044
100.032
100.023
100.017
100.012
100.009
100.006
100.004
100.003
100.002
100.001
100.001
100.001
100
100
100
100
100
100
100
100
100
100
100
100
100
100
100
390.159
370.548
351.145
332.084
313.491
295.479
278.15
261.59
245.871
231.049
217.161
204.234
192.277
181.285
171.245
162.13
153.907
146.532
139.96
134.137
129.011
124.525
120.623
117.25
114.351
111.875
109.773
107.999
106.512
105.272
104.245
103.399
102.706
102.143
101.688
101.321
101.029
100.797
100.613
100.47
100.358
100.271
100.204
100.152
100.113
100.084
100.062
100.045
100.033
100.024
100.017
100.012
100.009
100.006
100.004
100.003
100.002
100.001
100.001
100.001
100
100
100
100
100
100
100
100
100
100
100
100
100
100
100
390.227
370.75
351.474
332.529
314.037
296.11
278.848
262.337
246.648
231.838
217.948
205.004
193.018
181.989
171.905
162.742
154.467
147.04
140.415
134.543
129.368
124.837
120.893
117.482
114.549
112.043
109.914
108.117
106.61
105.352
104.311
103.452
102.749
102.178
101.715
101.343
101.046
100.81
100.624
100.478
100.364
100.275
100.207
100.155
100.115
100.085
100.063
100.046
100.033
100.024
100.017
100.012
100.009
100.006
100.004
100.003
100.002
100.001
100.001
100.001
100
100
100
100
100
100
100
100
100
100
100
100
100
100
100
390.281
370.91
351.736
332.884
314.475
296.617
279.41
262.939
247.276
232.478
218.587
205.631
193.625
182.568
172.449
163.247
154.931
147.462
140.795
134.881
129.667
125.099
121.121
117.678
114.716
112.185
110.034
108.217
106.693
105.421
104.367
103.498
102.786
102.207
101.739
101.362
101.061
100.822
100.633
100.485
100.369
100.279
100.21
100.157
100.117
100.087
100.064
100.047
100.034
100.025
100.018
100.013
100.009
100.006
100.004
100.003
100.002
100.002
100.001
100.001
100
100
100
100
100
100
100
100
100
100
100
100
100
100
100
390.325
371.039
351.945
333.168
314.824
297.023
279.861
263.423
247.782
232.995
219.106
206.142
194.119
183.04
172.894
163.662
155.313
147.81
141.109
135.162
129.916
125.317
121.311
117.842
114.857
112.304
110.134
108.301
106.763
105.479
104.414
103.536
102.817
102.232
101.759
101.378
101.073
100.831
100.64
100.49
100.373
100.283
100.213
100.159
100.119
100.088
100.065
100.047
100.034
100.025
100.018
100.013
100.009
100.006
100.005
100.003
100.002
100.002
100.001
100.001
100
100
100
100
100
100
100
100
100
100
100
100
100
100
100
390.359
371.14
352.111
333.393
315.103
297.346
280.221
263.811
248.189
233.412
219.524
206.555
194.52
183.424
173.258
164.001
155.626
148.096
141.368
135.393
130.121
125.498
121.468
117.978
114.974
112.404
110.218
108.372
106.821
105.527
104.454
103.569
102.844
102.253
101.776
101.391
101.084
100.84
100.647
100.495
100.377
100.286
100.215
100.161
100.12
100.089
100.065
100.048
100.035
100.025
100.018
100.013
100.009
100.007
100.005
100.003
100.002
100.002
100.001
100.001
100
100
100
100
100
100
100
100
100
100
100
100
100
100
100
390.386
371.221
352.243
333.572
315.324
297.604
280.508
264.121
248.514
233.746
219.86
206.887
194.844
183.735
173.552
164.277
155.881
148.33
141.58
135.583
130.29
125.647
121.598
118.091
115.071
112.486
110.288
108.431
106.87
105.568
104.487
103.596
102.866
102.271
101.79
101.402
101.093
100.847
100.652
100.5
100.381
100.288
100.217
100.163
100.121
100.09
100.066
100.048
100.035
100.025
100.018
100.013
100.009
100.007
100.005
100.003
100.002
100.002
100.001
100.001
100
100
100
100
100
100
100
100
100
100
100
100
100
100
100
390.407
371.285
352.347
333.714
315.499
297.808
280.736
264.368
248.774
234.012
220.129
207.154
195.104
183.986
173.79
164.5
156.088
148.519
141.752
135.738
130.428
125.769
121.705
118.183
115.15
112.554
110.346
108.479
106.911
105.601
104.515
103.619
102.884
102.286
101.802
101.412
101.1
100.852
100.657
100.503
100.383
100.29
100.219
100.164
100.122
100.09
100.066
100.049
100.035
100.026
100.018
100.013
100.009
100.007
100.005
100.003
100.002
100.002
100.001
100.001
100.001
100
100
100
100
100
100
100
100
100
100
100
100
100
100
390.424
371.335
352.429
333.826
315.638
297.97
280.917
264.563
248.979
234.225
220.343
207.367
195.313
184.186
173.981
164.679
156.255
148.673
141.891
135.864
130.54
125.868
121.792
118.259
115.216
112.61
110.393
108.519
106.944
105.629
104.538
103.637
102.899
102.298
101.811
101.42
101.106
100.857
100.661
100.506
100.386
100.292
100.22
100.165
100.123
100.091
100.067
100.049
100.036
100.026
100.019
100.013
100.009
100.007
100.005
100.003
100.002
100.002
100.001
100.001
100.001
100
100
100
100
100
100
100
100
100
100
100
100
100
100
390.438
371.374
352.493
333.914
315.747
298.097
281.059
264.717
249.142
234.393
220.513
207.536
195.478
184.346
174.134
164.823
156.389
148.796
142.004
135.965
130.631
125.948
121.863
118.32
115.269
112.656
110.432
108.552
106.972
105.652
104.556
103.653
102.912
102.308
101.819
101.426
101.111
100.861
100.664
100.509
100.387
100.294
100.221
100.166
100.123
100.091
100.067
100.049
100.036
100.026
100.019
100.013
100.009
100.007
100.005
100.003
100.002
100.002
100.001
100.001
100.001
100
100
100
100
100
100
100
100
100
100
100
100
100
100
390.448
371.405
352.544
333.982
315.832
298.197
281.171
264.838
249.27
234.525
220.648
207.67
195.61
184.473
174.255
164.938
156.495
148.894
142.093
136.047
130.704
126.013
121.919
118.37
115.311
112.692
110.463
108.578
106.994
105.67
104.572
103.665
102.922
102.316
101.826
101.431
101.116
100.865
100.666
100.511
100.389
100.295
100.222
100.166
100.124
100.092
100.067
100.049
100.036
100.026
100.019
100.013
100.01
100.007
100.005
100.003
100.002
100.002
100.001
100.001
100.001
100
100
100
100
100
100
100
100
100
100
100
100
100
100
390.456
371.429
352.583
334.036
315.898
298.275
281.258
264.933
249.371
234.629
220.753
207.775
195.713
184.574
174.351
165.028
156.58
148.973
142.165
136.111
130.762
126.064
121.965
118.41
115.346
112.722
110.488
108.599
107.012
105.685
104.584
103.675
102.93
102.323
101.831
101.436
101.119
100.867
100.668
100.512
100.39
100.296
100.223
100.167
100.124
100.092
100.068
100.05
100.036
100.026
100.019
100.013
100.01
100.007
100.005
100.003
100.002
100.002
100.001
100.001
100.001
100
100
100
100
100
100
100
100
100
100
100
100
100
100
390.462
371.448
352.614
334.078
315.95
298.335
281.327
265.007
249.449
234.71
220.836
207.858
195.794
184.652
174.426
165.1
156.647
149.034
142.222
136.163
130.808
126.105
122.001
118.441
115.373
112.745
110.509
108.617
107.026
105.697
104.594
103.683
102.937
102.329
101.836
101.439
101.122
100.869
100.67
100.514
100.391
100.296
100.223
100.167
100.125
100.092
100.068
100.05
100.036
100.026
100.019
100.013
100.01
100.007
100.005
100.003
100.002
100.002
100.001
100.001
100.001
100
100
100
100
100
100
100
100
100
100
100
100
100
100
390.467
371.462
352.637
334.11
315.99
298.382
281.379
265.065
249.51
234.773
220.9
207.922
195.858
184.714
174.485
165.156
156.699
149.083
142.266
136.203
130.844
126.138
122.03
118.466
115.395
112.764
110.525
108.63
107.037
105.707
104.602
103.69
102.942
102.333
101.839
101.442
101.124
100.871
100.671
100.515
100.392
100.297
100.224
100.168
100.125
100.092
100.068
100.05
100.036
100.026
100.019
100.014
100.01
100.007
100.005
100.003
100.002
100.002
100.001
100.001
100.001
100
100
100
100
100
100
100
100
100
100
100
100
100
100
390.471
371.473
352.656
334.135
316.021
298.419
281.42
265.109
249.557
234.822
220.95
207.972
195.907
184.762
174.531
165.199
156.74
149.121
142.301
136.235
130.873
126.163
122.052
118.486
115.412
112.779
110.537
108.641
107.046
105.714
104.608
103.695
102.946
102.336
101.842
101.444
101.126
100.873
100.673
100.515
100.393
100.298
100.224
100.168
100.125
100.093
100.068
100.05
100.036
100.026
100.019
100.014
100.01
100.007
100.005
100.003
100.002
100.002
100.001
100.001
100.001
100
100
100
100
100
100
100
100
100
100
100
100
100
100
390.474
371.482
352.67
334.154
316.045
298.446
281.452
265.144
249.594
234.86
220.988
208.01
195.945
184.799
174.567
165.233
156.772
149.15
142.328
136.259
130.895
126.183
122.07
118.502
115.426
112.791
110.547
108.649
107.054
105.72
104.613
103.699
102.95
102.339
101.844
101.446
101.127
100.874
100.673
100.516
100.393
100.298
100.224
100.168
100.125
100.093
100.068
100.05
100.036
100.026
100.019
100.014
100.01
100.007
100.005
100.003
100.002
100.002
100.001
100.001
100.001
100
100
100
100
100
100
100
100
100
100
100
100
100
100
390.476
371.488
352.68
334.169
316.063
298.468
281.476
265.17
249.621
234.889
221.018
208.04
195.974
184.828
174.594
165.259
156.797
149.173
142.349
136.279
130.912
126.199
122.083
118.514
115.436
112.8
110.555
108.656
107.059
105.725
104.617
103.702
102.952
102.341
101.846
101.447
101.128
100.875
100.674
100.517
100.394
100.298
100.225
100.168
100.125
100.093
100.068
100.05
100.036
100.026
100.019
100.014
100.01
100.007
100.005
100.003
100.002
100.002
100.001
100.001
100.001
100
100
100
100
100
100
100
100
100
100
100
100
100
100
390.478
371.493
352.688
334.18
316.077
298.484
281.494
265.19
249.643
234.911
221.041
208.063
195.997
184.85
174.616
165.279
156.816
149.191
142.365
136.293
130.926
126.21
122.094
118.523
115.444
112.807
110.561
108.661
107.063
105.728
104.62
103.705
102.954
102.343
101.847
101.448
101.129
100.875
100.675
100.517
100.394
100.299
100.225
100.168
100.126
100.093
100.068
100.05
100.036
100.026
100.019
100.014
100.01
100.007
100.005
100.003
100.002
100.002
100.001
100.001
100.001
100
100
100
100
100
100
100
100
100
100
100
100
100
100
390.479
371.497
352.695
334.188
316.088
298.496
281.508
265.205
249.659
234.928
221.058
208.08
196.014
184.866
174.632
165.295
156.83
149.204
142.378
136.305
130.936
126.22
122.102
118.53
115.451
112.812
110.566
108.665
107.067
105.731
104.622
103.707
102.956
102.344
101.848
101.449
101.13
100.876
100.675
100.517
100.394
100.299
100.225
100.169
100.126
100.093
100.068
100.05
100.037
100.026
100.019
100.014
100.01
100.007
100.005
100.003
100.002
100.002
100.001
100.001
100.001
100
100
100
100
100
100
100
100
100
100
100
100
100
100
390.48
371.5
352.699
334.194
316.095
298.506
281.518
265.216
249.671
234.941
221.071
208.093
196.027
184.879
174.644
165.306
156.841
149.215
142.387
136.313
130.944
126.227
122.108
118.536
115.455
112.816
110.569
108.668
107.069
105.733
104.624
103.708
102.957
102.345
101.849
101.45
101.13
100.876
100.675
100.518
100.394
100.299
100.225
100.169
100.126
100.093
100.069
100.05
100.037
100.026
100.019
100.014
100.01
100.007
100.005
100.003
100.002
100.002
100.001
100.001
100.001
100
100
100
100
100
100
100
100
100
100
100
100
100
100
390.481
371.502
352.703
334.199
316.101
298.512
281.526
265.225
249.68
234.95
221.08
208.103
196.037
184.888
174.653
165.315
156.849
149.222
142.394
136.32
130.95
126.232
122.113
118.54
115.459
112.82
110.572
108.67
107.071
105.735
104.625
103.709
102.958
102.346
101.85
101.45
101.131
100.877
100.676
100.518
100.395
100.299
100.225
100.169
100.126
100.093
100.069
100.05
100.037
100.026
100.019
100.014
100.01
100.007
100.005
100.003
100.002
100.002
100.001
100.001
100.001
100
100
100
100
100
100
100
100
100
100
100
100
100
100
390.481
371.503
352.705
334.203
316.106
298.518
281.532
265.231
249.687
234.957
221.088
208.11
196.044
184.896
174.66
165.322
156.856
149.228
142.4
136.325
130.954
126.236
122.117
118.543
115.462
112.822
110.574
108.672
107.073
105.736
104.626
103.71
102.959
102.346
101.85
101.451
101.131
100.877
100.676
100.518
100.395
100.299
100.225
100.169
100.126
100.093
100.069
100.05
100.037
100.026
100.019
100.014
100.01
100.007
100.005
100.003
100.002
100.002
100.001
100.001
100.001
100
100
100
100
100
100
100
100
100
100
100
100
100
100
390.481
371.505
352.707
334.205
316.109
298.522
281.536
265.236
249.692
234.963
221.093
208.116
196.049
184.901
174.665
165.327
156.86
149.233
142.404
136.329
130.958
126.239
122.12
118.545
115.464
112.824
110.576
108.674
107.074
105.737
104.627
103.711
102.96
102.347
101.851
101.451
101.131
100.877
100.676
100.518
100.395
100.299
100.225
100.169
100.126
100.093
100.069
100.05
100.037
100.026
100.019
100.014
100.01
100.007
100.005
100.003
100.002
100.002
100.001
100.001
100.001
100
100
100
100
100
100
100
100
100
100
100
100
100
100
390.482
371.505
352.709
334.207
316.112
298.524
281.539
265.24
249.696
234.967
221.097
208.12
196.054
184.905
174.669
165.33
156.864
149.236
142.407
136.331
130.96
126.241
122.122
118.547
115.466
112.825
110.577
108.675
107.075
105.738
104.628
103.712
102.96
102.347
101.851
101.451
101.131
100.877
100.676
100.518
100.395
100.299
100.225
100.169
100.126
100.093
100.069
100.05
100.037
100.026
100.019
100.014
100.01
100.007
100.005
100.003
100.002
100.002
100.001
100.001
100.001
100
100
100
100
100
100
100
100
100
100
100
100
100
100
390.482
371.506
352.71
334.209
316.113
298.527
281.542
265.242
249.699
234.97
221.1
208.123
196.056
184.908
174.672
165.333
156.866
149.238
142.409
136.333
130.962
126.243
122.123
118.549
115.467
112.826
110.578
108.675
107.076
105.739
104.628
103.712
102.96
102.348
101.851
101.451
101.132
100.877
100.676
100.518
100.395
100.299
100.225
100.169
100.126
100.093
100.069
100.05
100.037
100.026
100.019
100.014
100.01
100.007
100.005
100.003
100.002
100.002
100.001
100.001
100.001
100
100
100
100
100
100
100
100
100
100
100
100
100
100
390.482
371.507
352.71
334.21
316.115
298.528
281.544
265.244
249.701
234.972
221.102
208.125
196.059
184.91
174.674
165.335
156.868
149.24
142.411
136.335
130.963
126.244
122.124
118.55
115.468
112.827
110.578
108.676
107.076
105.739
104.629
103.712
102.96
102.348
101.851
101.452
101.132
100.877
100.676
100.518
100.395
100.299
100.226
100.169
100.126
100.093
100.069
100.05
100.037
100.026
100.019
100.014
100.01
100.007
100.005
100.003
100.002
100.002
100.001
100.001
100.001
100
100
100
100
100
100
100
100
100
100
100
100
100
100
390.482
371.507
352.711
334.211
316.116
298.529
281.545
265.246
249.702
234.973
221.104
208.127
196.06
184.912
174.676
165.337
156.87
149.241
142.412
136.336
130.964
126.245
122.125
118.55
115.468
112.827
110.579
108.676
107.076
105.739
104.629
103.712
102.961
102.348
101.851
101.452
101.132
100.877
100.676
100.518
100.395
100.299
100.226
100.169
100.126
100.093
100.069
100.05
100.037
100.026
100.019
100.014
100.01
100.007
100.005
100.003
100.002
100.002
100.001
100.001
100.001
100
100
100
100
100
100
100
100
100
100
100
100
100
100
390.482
371.507
352.711
334.211
316.116
298.53
281.546
265.247
249.703
234.974
221.105
208.128
196.061
184.913
174.677
165.338
156.871
149.242
142.413
136.337
130.965
126.246
122.126
118.551
115.469
112.828
110.579
108.677
107.077
105.74
104.629
103.713
102.961
102.348
101.851
101.452
101.132
100.877
100.676
100.518
100.395
100.299
100.226
100.169
100.126
100.093
100.069
100.05
100.037
100.026
100.019
100.014
100.01
100.007
100.005
100.003
100.002
100.002
100.001
100.001
100.001
100
100
100
100
100
100
100
100
100
100
100
100
100
100
390.482
371.507
352.712
334.211
316.117
298.531
281.546
265.247
249.704
234.975
221.106
208.129
196.062
184.914
174.677
165.338
156.871
149.243
142.414
136.338
130.966
126.246
122.126
118.551
115.469
112.828
110.58
108.677
107.077
105.74
104.629
103.713
102.961
102.348
101.852
101.452
101.132
100.877
100.676
100.518
100.395
100.299
100.226
100.169
100.126
100.093
100.069
100.05
100.037
100.026
100.019
100.014
100.01
100.007
100.005
100.003
100.002
100.002
100.001
100.001
100.001
100
100
100
100
100
100
100
100
100
100
100
100
100
100
390.482
371.507
352.712
334.212
316.117
298.531
281.547
265.248
249.705
234.976
221.107
208.129
196.063
184.914
174.678
165.339
156.872
149.244
142.414
136.338
130.966
126.247
122.126
118.551
115.469
112.828
110.58
108.677
107.077
105.74
104.629
103.713
102.961
102.348
101.852
101.452
101.132
100.877
100.676
100.518
100.395
100.299
100.226
100.169
100.126
100.093
100.069
100.05
100.037
100.026
100.019
100.014
100.01
100.007
100.005
100.003
100.002
100.002
100.001
100.001
100.001
100
100
100
100
100
100
100
100
100
100
100
100
100
100
390.482
371.508
352.712
334.212
316.117
298.531
281.547
265.248
249.705
234.976
221.107
208.13
196.063
184.915
174.678
165.339
156.872
149.244
142.414
136.338
130.966
126.247
122.127
118.552
115.469
112.829
110.58
108.677
107.077
105.74
104.629
103.713
102.961
102.348
101.852
101.452
101.132
100.877
100.676
100.518
100.395
100.299
100.226
100.169
100.126
100.093
100.069
100.05
100.037
100.026
100.019
100.014
100.01
100.007
100.005
100.003
100.002
100.002
100.001
100.001
100.001
100
100
100
100
100
100
100
100
100
100
100
100
100
100
390.482
371.508
352.712
334.212
316.118
298.532
281.548
265.248
249.705
234.976
221.107
208.13
196.064
184.915
174.679
165.34
156.873
149.244
142.415
136.338
130.967
126.247
122.127
118.552
115.47
112.829
110.58
108.677
107.077
105.74
104.629
103.713
102.961
102.348
101.852
101.452
101.132
100.877
100.676
100.518
100.395
100.299
100.226
100.169
100.126
100.093
100.069
100.05
100.037
100.026
100.019
100.014
100.01
100.007
100.005
100.003
100.002
100.002
100.001
100.001
100.001
100
100
100
100
100
100
100
100
100
100
100
100
100
100
390.482
371.508
352.712
334.212
316.118
298.532
281.548
265.249
249.705
234.977
221.108
208.13
196.064
184.915
174.679
165.34
156.873
149.244
142.415
136.339
130.967
126.247
122.127
118.552
115.47
112.829
110.58
108.677
107.077
105.74
104.629
103.713
102.961
102.348
101.852
101.452
101.132
100.877
100.676
100.518
100.395
100.299
100.226
100.169
100.126
100.093
100.069
100.05
100.037
100.026
100.019
100.014
100.01
100.007
100.005
100.003
100.002
100.002
100.001
100.001
100.001
100
100
100
100
100
100
100
100
100
100
100
100
100
100
390.482
371.508
352.712
334.212
316.118
298.532
281.548
265.249
249.706
234.977
221.108
208.13
196.064
184.915
174.679
165.34
156.873
149.244
142.415
136.339
130.967
126.247
122.127
118.552
115.47
112.829
110.58
108.677
107.077
105.74
104.629
103.713
102.961
102.348
101.852
101.452
101.132
100.878
100.676
100.518
100.395
100.299
100.226
100.169
100.126
100.093
100.069
100.05
100.037
100.026
100.019
100.014
100.01
100.007
100.005
100.003
100.002
100.002
100.001
100.001
100.001
100
100
100
100
100
100
100
100
100
100
100
100
100
100
390.483
371.508
352.712
334.212
316.118
298.532
281.548
265.249
249.706
234.977
221.108
208.131
196.064
184.915
174.679
165.34
156.873
149.245
142.415
136.339
130.967
126.247
122.127
118.552
115.47
112.829
110.58
108.677
107.077
105.74
104.629
103.713
102.961
102.348
101.852
101.452
101.132
100.878
100.676
100.518
100.395
100.299
100.226
100.169
100.126
100.093
100.069
100.05
100.037
100.026
100.019
100.014
100.01
100.007
100.005
100.003
100.002
100.002
100.001
100.001
100.001
100
100
100
100
100
100
100
100
100
100
100
100
100
100
390.483
371.508
352.712
334.212
316.118
298.532
281.548
265.249
249.706
234.977
221.108
208.131
196.064
184.915
174.679
165.34
156.873
149.245
142.415
136.339
130.967
126.247
122.127
118.552
115.47
112.829
110.58
108.677
107.077
105.74
104.63
103.713
102.961
102.348
101.852
101.452
101.132
100.878
100.676
100.518
100.395
100.299
100.226
100.169
100.126
100.093
100.069
100.05
100.037
100.026
100.019
100.014
100.01
100.007
100.005
100.003
100.002
100.002
100.001
100.001
100.001
100
100
100
100
100
100
100
100
100
100
100
100
100
100
390.483
371.508
352.712
334.212
316.118
298.532
281.548
265.249
249.706
234.977
221.108
208.131
196.064
184.915
174.679
165.34
156.873
149.245
142.415
136.339
130.967
126.247
122.127
118.552
115.47
112.829
110.58
108.677
107.077
105.74
104.63
103.713
102.961
102.348
101.852
101.452
101.132
100.878
100.676
100.518
100.395
100.299
100.226
100.169
100.126
100.093
100.069
100.05
100.037
100.026
100.019
100.014
100.01
100.007
100.005
100.003
100.002
100.002
100.001
100.001
100.001
100
100
100
100
100
100
100
100
100
100