/*--------------------------------*- C++ -*----------------------------------*\
  =========                 |
  \\      /  F ield         | OpenFOAM: The Open Source CFD Toolbox
   \\    /   O peration     | Website:  https://openfoam.org
    \\  /    A nd           | Version:  10
     \\/     M anipulation  |
\*---------------------------------------------------------------------------*/
FoamFile
{
    format      ascii;
    class       volScalarField;
    location    "107";
    object      gradTz;
}
// * * * * * * * * * * * * * * * * * * * * * * * * * * * * * * * * * * * * * //

dimensions      [0 -1 0 1 0 0 0];

internalField   nonuniform List<scalar> 
11250
(
-14398.2
-4191.63
-1567.49
-758.496
-447.171
-298.192
-213.175
-158.18
-119.517
-90.8797
-69.0197
-52.0903
-38.9327
-28.7472
-20.9344
-15.0169
-10.6018
-7.36177
-5.02556
-3.37148
-2.22223
-1.43925
-0.916158
-0.573073
-0.351962
-0.212062
-0.125451
-0.0732169
-0.0425134
-0.0246171
-0.0139732
-0.00750996
-0.00366459
-0.00157206
-0.000584348
-0.000188104
-5.28062e-05
-1.30573e-05
-2.87387e-06
-5.68665e-07
-1.02078e-07
-1.67727e-08
-2.54318e-09
-3.56726e-10
-4.60999e-11
0
0
2.19524e-12
0
-1.09762e-12
0
1.31714e-11
0
-1.4269e-11
0
0
0
0
0
0
0
0
-2.08547e-11
-1.09762e-12
2.19523e-11
1.09762e-12
-1.09762e-12
0
1.09762e-12
-1.09762e-12
0
-5.48809e-12
-1.09762e-12
6.5857e-12
0
-8397.92
-4989.63
-2884.79
-1775.8
-1177.72
-829.786
-609.272
-458.508
-349.266
-266.925
-203.397
-153.861
-115.188
-85.1569
-62.0708
-44.5572
-31.4744
-21.8652
-14.932
-10.0207
-6.60689
-4.28004
-2.72486
-1.70449
-1.04685
-0.630921
-0.373519
-0.218034
-0.12625
-0.0726882
-0.0411457
-0.0222625
-0.0110467
-0.00484569
-0.00184352
-0.000606421
-0.000173527
-4.36212e-05
-9.73714e-06
-1.95004e-06
-3.53661e-07
-5.85809e-08
-8.95546e-09
-1.27763e-09
-1.48178e-10
1.09762e-12
-6.5857e-12
2.19523e-12
3.29285e-12
0
0
0
0
0
0
0
-2.19523e-12
0
5.48809e-12
-1.09762e-12
-3.29285e-12
1.09762e-12
1.09762e-12
8.78094e-12
-1.09762e-12
-1.20738e-11
1.09762e-12
2.19523e-12
-1.09762e-12
-4.39047e-12
1.09762e-12
4.39047e-12
0
-8.78094e-12
8.78094e-12
-5796.8
-4475.59
-3198.71
-2276.14
-1653.83
-1231.49
-934.924
-718.21
-554.316
-427.322
-327.56
-248.829
-186.856
-138.457
-101.098
-72.6714
-51.3885
-35.73
-24.4179
-16.3968
-10.8166
-7.01019
-4.46419
-2.79281
-1.71556
-1.03457
-0.613167
-0.357962
-0.206424
-0.117838
-0.0663662
-0.0362353
-0.0184563
-0.00839195
-0.00331404
-0.00112795
-0.000332391
-8.5649e-05
-1.95171e-05
-3.97641e-06
-7.31619e-07
-1.22654e-07
-1.89087e-08
-2.69136e-09
-3.5014e-10
-3.7319e-11
0
0
0
-1.64643e-11
1.09762e-12
1.53666e-11
8.78094e-12
-1.31714e-11
-1.53666e-11
-2.19523e-12
6.58571e-12
9.87856e-12
0
5.48809e-12
0
0
1.09762e-12
5.48809e-12
-1.09762e-12
-5.48809e-12
0
0
0
-1.09762e-11
0
1.20738e-11
1.09762e-12
-1.09762e-12
-1.09762e-12
-4501.82
-3903.08
-3145.98
-2466.3
-1922.89
-1503.36
-1179.58
-926.564
-726.084
-565.692
-436.9
-333.709
-251.617
-187.021
-136.885
-98.5799
-69.8133
-48.5992
-33.2457
-22.3435
-14.7502
-9.56538
-6.09391
-3.81343
-2.34348
-1.41435
-0.838955
-0.489571
-0.28124
-0.159373
-0.0893279
-0.0491889
-0.0257518
-0.0121691
-0.00499808
-0.00176123
-0.000534238
-0.000140944
-3.27377e-05
-6.7747e-06
-1.2625e-06
-2.13887e-07
-3.32282e-08
-4.76915e-09
-6.25642e-10
-7.57356e-11
-1.4269e-11
0
-1.09762e-12
0
0
3.29285e-12
1.09762e-11
-4.39047e-12
-1.09762e-11
0
3.29285e-12
1.09762e-12
-2.19523e-12
0
-1.09762e-12
0
-1.20738e-11
-1.09762e-12
1.4269e-11
1.09762e-12
0
0
-2.19524e-12
0
8.78094e-12
1.09762e-12
-9.87856e-12
0
0
-3784.91
-3469.55
-2998.88
-2506.58
-2058.35
-1673.91
-1351.93
-1084.4
-862.726
-679.6
-529.157
-406.64
-308.027
-229.768
-168.644
-121.723
-86.358
-60.2045
-41.2342
-27.7401
-18.3287
-11.8947
-7.58215
-4.74693
-2.91885
-1.76292
-1.0461
-0.610019
-0.349645
-0.19743
-0.110465
-0.0613174
-0.0328465
-0.0160073
-0.00677423
-0.00244828
-0.00075791
-0.000203215
-4.78166e-05
-9.99938e-06
-1.87961e-06
-3.2075e-07
-5.01084e-08
-7.22562e-09
-9.7688e-10
-1.13055e-10
-5.48809e-12
1.09762e-12
-2.19523e-12
0
1.09762e-12
0
0
0
0
0
-5.48809e-12
0
1.20738e-11
0
-8.78094e-12
0
2.19523e-12
1.09762e-12
5.48809e-12
-2.19523e-12
-4.39047e-12
1.09762e-12
2.19523e-12
-5.48809e-12
-2.19523e-12
4.39047e-12
0
-5.48809e-12
5.48809e-12
-3357.49
-3167.05
-2852.19
-2485.74
-2117.89
-1775.03
-1467.87
-1198.91
-967.034
-769.757
-604.147
-467.121
-355.532
-266.199
-195.968
-141.786
-100.791
-70.3804
-48.2681
-32.5082
-21.4996
-13.964
-8.90749
-5.58019
-3.43342
-2.07487
-1.23123
-0.717498
-0.410967
-0.23203
-0.130071
-0.0727341
-0.0395088
-0.0195713
-0.00840775
-0.00307725
-0.000962645
-0.000260403
-6.17448e-05
-1.30006e-05
-2.45901e-06
-4.22036e-07
-6.6295e-08
-9.62611e-09
-1.29519e-09
-1.60252e-10
-1.31714e-11
4.39047e-12
4.39047e-12
8.78094e-12
-3.29285e-12
-9.87856e-12
0
0
2.19524e-12
0
-5.48809e-12
-6.58571e-12
6.5857e-12
4.39047e-12
-1.09762e-12
0
4.39047e-12
0
-5.48809e-12
1.09762e-12
0
0
0
-1.09762e-11
-2.19523e-12
4.39047e-12
1.09762e-12
4.39047e-12
3.29285e-12
-3089.91
-2960.27
-2731.98
-2446.14
-2138.08
-1832.21
-1543.3
-1279.33
-1044.09
-838.816
-663.163
-515.715
-394.322
-296.33
-218.8
-158.692
-113.036
-79.0633
-54.2985
-36.6123
-24.2384
-15.7569
-10.0591
-6.30618
-3.88256
-2.34724
-1.39282
-0.811508
-0.464991
-0.262878
-0.147782
-0.0830355
-0.0453616
-0.0226081
-0.00977806
-0.00360566
-0.00113716
-0.000310278
-7.42347e-05
-1.57751e-05
-3.01184e-06
-5.21825e-07
-8.27571e-08
-1.21034e-08
-1.63655e-09
-1.97571e-10
-1.86595e-11
-2.19524e-12
-3.29285e-12
-5.48809e-12
1.09762e-12
7.68332e-12
-3.29285e-12
-1.09762e-12
4.39047e-12
0
-2.19524e-12
0
2.19523e-12
2.19524e-12
0
1.09762e-12
-1.09762e-12
-1.09762e-12
1.09762e-12
-1.09762e-12
0
0
0
0
0
-4.39047e-12
-1.09762e-12
0
5.48809e-12
-2917.14
-2819.5
-2640.76
-2405.83
-2139.71
-1863.06
-1591.16
-1334.43
-1099.53
-890.282
-708.322
-553.671
-425.117
-320.567
-237.362
-172.556
-123.151
-86.28
-59.3365
-40.0565
-26.5459
-17.2727
-11.0356
-6.92318
-4.26492
-2.5794
-1.53089
-0.892217
-0.511604
-0.289588
-0.163039
-0.0916613
-0.0500893
-0.0250681
-0.010948
-0.00409506
-0.00131383
-0.00036524
-8.90886e-05
-1.93023e-05
-3.75643e-06
-6.63076e-07
-1.07106e-07
-1.5967e-08
-2.18097e-09
-2.56842e-10
-3.07333e-11
0
-1.09762e-12
0
1.09762e-12
-1.09762e-12
-1.09762e-12
1.09762e-12
-7.68332e-12
0
-5.48809e-12
0
8.78094e-12
0
2.19523e-12
0
3.29285e-12
0
0
-1.09762e-12
0
-1.20738e-11
0
1.31714e-11
1.09762e-12
-8.78094e-12
-8.78094e-12
4.39047e-12
1.09762e-11
-2803.51
-2723.7
-2574.15
-2371.34
-2133.78
-1878.8
-1620.92
-1371.45
-1138.58
-927.751
-742.038
-582.577
-448.946
-339.565
-252.068
-183.639
-131.298
-92.1284
-63.4417
-42.8766
-28.4433
-18.5234
-11.8435
-7.43459
-4.58225
-2.77252
-1.6463
-0.960022
-0.550799
-0.311915
-0.175466
-0.0983103
-0.0536759
-0.0271591
-0.0121454
-0.00468842
-0.00155707
-0.000448089
-0.000112969
-2.5243e-05
-5.05413e-06
-9.15664e-07
-1.51427e-07
-2.30456e-08
-3.24126e-09
-3.98435e-10
-3.29285e-11
0
-6.58571e-12
-1.09762e-12
5.48809e-12
2.19524e-12
0
0
5.48809e-12
2.305e-11
-5.48809e-12
-2.41476e-11
0
1.09762e-12
1.09762e-12
-1.09762e-12
0
0
1.09762e-12
6.58571e-12
-1.09762e-12
-6.5857e-12
1.09762e-12
-1.09762e-12
0
1.09762e-12
0
-1.09762e-12
0
-2728.03
-2658.58
-2526.62
-2344.15
-2125.74
-1886.21
-1639.14
-1395.95
-1165.59
-954.483
-766.667
-604.089
-466.951
-354.102
-263.44
-192.284
-137.7
-96.7543
-66.7072
-45.131
-29.9664
-19.5308
-12.4958
-7.84836
-4.8394
-2.92949
-1.74071
-1.01589
-0.583111
-0.329973
-0.184899
-0.102869
-0.0562161
-0.0290921
-0.0135535
-0.0054895
-0.00191088
-0.000573733
-0.000150088
-3.46175e-05
-7.12151e-06
-1.32048e-06
-2.22738e-07
-3.44674e-08
-4.91294e-09
-6.39911e-10
-7.57356e-11
1.09762e-12
-1.20738e-11
-2.19523e-12
1.31714e-11
1.09762e-12
-4.39047e-12
1.09762e-12
3.29285e-12
1.4269e-11
0
-1.75619e-11
0
3.29285e-12
0
9.87856e-12
0
-9.87856e-12
0
1.64643e-11
1.09762e-12
-1.64643e-11
-1.09762e-12
2.19524e-12
5.48809e-12
-2.19524e-12
-5.48809e-12
0
0
-2677.7
-2614.46
-2493.28
-2323.74
-2118.01
-1889.24
-1650.12
-1411.95
-1183.99
-973.216
-784.305
-619.765
-480.26
-364.976
-272.032
-198.873
-142.616
-100.329
-69.2448
-46.8916
-31.1608
-20.3233
-13.0104
-8.17539
-5.04295
-3.05402
-1.81608
-1.06101
-0.60953
-0.344605
-0.19203
-0.105885
-0.0579878
-0.0308627
-0.0150516
-0.00639614
-0.0023225
-0.000721916
-0.000194185
-4.57992e-05
-9.59302e-06
-1.805e-06
-3.08151e-07
-4.8158e-08
-6.94024e-09
-9.34072e-10
-1.1964e-10
-6.5857e-12
2.19523e-12
-3.29285e-12
0
3.29285e-12
2.19523e-12
1.09762e-12
0
2.19523e-12
-1.09762e-12
-2.19523e-12
-2.19523e-12
1.09762e-12
1.09762e-12
0
-1.09762e-12
-1.09762e-12
1.09762e-12
1.09762e-12
1.09762e-12
-1.09762e-12
0
0
1.09762e-12
-6.5857e-12
0
5.48809e-12
0
-2644.16
-2584.7
-2470.22
-2308.91
-2111.53
-1890.1
-1656.66
-1422.27
-1196.34
-986.13
-796.707
-630.965
-489.895
-372.936
-278.383
-203.784
-146.306
-103.029
-71.1724
-48.2356
-32.0766
-20.933
-13.4073
-8.42834
-5.20077
-3.1507
-1.87477
-1.09652
-0.63073
-0.356504
-0.197723
-0.108136
-0.0592586
-0.0322093
-0.0162334
-0.00712322
-0.00265548
-0.000842442
-0.000230192
-5.49583e-05
-1.16229e-05
-2.20396e-06
-3.78652e-07
-5.94788e-08
-8.61739e-09
-1.17226e-09
-1.48178e-10
-9.87856e-12
4.39047e-12
1.09762e-12
0
0
0
1.09762e-12
1.09762e-12
-2.19523e-12
0
-1.09762e-12
-1.09762e-12
3.29285e-12
1.4269e-11
-2.19523e-12
-1.31714e-11
0
-9.87856e-12
-2.08547e-11
8.78094e-12
2.19523e-11
0
0
0
0
-2.19524e-12
-3.29285e-12
5.48809e-12
-2621.9
-2564.77
-2454.47
-2298.41
-2106.47
-1889.98
-1660.49
-1428.87
-1204.52
-994.897
-805.28
-638.82
-496.734
-378.647
-282.981
-207.367
-149.017
-105.024
-72.6043
-49.2388
-32.7631
-21.3919
-13.7073
-8.62042
-5.3212
-3.22462
-1.91953
-1.12356
-0.646938
-0.365642
-0.202114
-0.109868
-0.0601256
-0.0330192
-0.0169234
-0.00754618
-0.00284952
-0.000912902
-0.000251318
-6.03519e-05
-1.28227e-05
-2.44064e-06
-4.20632e-07
-6.62676e-08
-9.61513e-09
-1.2908e-09
-1.60252e-10
-1.64643e-11
-6.58571e-12
0
2.19524e-12
1.09762e-12
-2.19523e-12
-1.09762e-12
0
0
0
0
0
2.19524e-12
-2.19524e-12
6.5857e-12
0
-1.86595e-11
-4.39047e-12
9.87856e-12
3.29285e-12
3.29285e-12
1.09762e-12
0
-1.09762e-12
0
0
1.09762e-12
-1.09762e-12
-2607.21
-2551.53
-2443.86
-2291.12
-2102.72
-1889.5
-1662.7
-1433.04
-1209.88
-1000.76
-811.109
-644.232
-501.5
-382.664
-286.243
-209.929
-150.967
-106.468
-73.6454
-49.9712
-33.2664
-21.7299
-13.9294
-8.76342
-5.41143
-3.2803
-1.95316
-1.14353
-0.65856
-0.371974
-0.205098
-0.111041
-0.0606426
-0.0334134
-0.0172368
-0.00773519
-0.00293606
-0.000944389
-0.000260791
-6.27804e-05
-1.33653e-05
-2.54817e-06
-4.39816e-07
-6.93595e-08
-1.00619e-08
-1.35117e-09
-1.56959e-10
-2.19523e-12
-1.09762e-12
0
1.09762e-12
0
-2.19523e-12
1.09762e-12
0
-1.09762e-12
-8.78094e-12
-8.78094e-12
4.39047e-12
8.78094e-12
4.39047e-12
0
-1.20738e-11
-1.09762e-12
1.31714e-11
2.19523e-12
-2.19523e-12
-1.09762e-12
1.09762e-12
-1.09762e-12
-4.39047e-12
-7.68332e-12
3.29285e-12
1.31714e-11
-3.29285e-12
-2597.61
-2542.82
-2436.79
-2286.17
-2100.04
-1888.96
-1663.97
-1435.65
-1213.34
-1004.63
-815.01
-647.898
-504.762
-385.439
-288.513
-211.724
-152.343
-107.493
-74.3871
-50.4948
-33.6273
-21.9732
-14.0898
-8.86711
-5.47728
-3.32145
-1.97834
-1.1584
-0.666854
-0.376203
-0.206979
-0.111753
-0.0609183
-0.0335778
-0.0173535
-0.00780349
-0.00296712
-0.000955695
-0.000264203
-6.36587e-05
-1.35625e-05
-2.58742e-06
-4.4683e-07
-7.05219e-08
-1.02594e-08
-1.35995e-09
-1.43788e-10
-5.48809e-12
0
0
0
0
2.19523e-12
0
-2.19524e-12
5.48809e-12
0
-5.48809e-12
1.09762e-12
0
-2.19524e-12
0
1.09762e-12
0
4.39047e-12
0
-4.39047e-12
-1.09762e-12
0
-4.39047e-12
4.39047e-12
5.48809e-12
-4.39047e-12
1.09762e-12
-1.09762e-12
-2591.38
-2537.16
-2432.14
-2282.85
-2098.17
-1888.47
-1664.67
-1437.26
-1215.55
-1007.14
-817.58
-650.34
-506.955
-387.319
-290.063
-212.958
-153.294
-108.205
-74.9051
-50.8617
-33.8808
-22.1443
-14.2029
-8.94026
-5.52391
-3.35107
-1.99707
-1.16978
-0.673145
-0.37925
-0.208246
-0.112204
-0.0610699
-0.0336441
-0.0173919
-0.00782447
-0.00297647
-0.000959087
-0.000265228
-6.39236e-05
-1.36221e-05
-2.59936e-06
-4.48989e-07
-7.08655e-08
-1.03143e-08
-1.36105e-09
-1.50374e-10
-2.74404e-11
0
6.5857e-12
-3.29285e-12
-9.87856e-12
3.29285e-12
-5.48809e-12
-2.19524e-12
1.53666e-11
-1.09762e-12
0
5.48809e-12
1.09762e-12
-8.78094e-12
-1.09762e-12
5.48809e-12
8.78094e-12
0
-8.78094e-12
0
-4.39047e-12
0
-6.58571e-12
-1.09762e-12
9.87856e-12
9.87856e-12
1.09762e-12
-8.78094e-12
-2587.4
-2533.51
-2429.14
-2280.67
-2096.9
-1888.09
-1665.06
-1438.25
-1216.95
-1008.75
-819.247
-651.94
-508.405
-388.572
-291.102
-213.79
-153.939
-108.69
-75.2595
-51.1135
-34.0552
-22.2624
-14.2811
-8.99082
-5.55608
-3.37176
-2.01067
-1.17846
-0.678058
-0.381599
-0.209187
-0.112523
-0.0611662
-0.0336752
-0.0174047
-0.00783037
-0.00297895
-0.000959969
-0.000265494
-6.39922e-05
-1.36377e-05
-2.60248e-06
-4.49549e-07
-7.09555e-08
-1.03143e-08
-1.39288e-09
-1.62447e-10
-1.09762e-11
-4.39047e-12
0
1.09762e-12
0
-1.09762e-12
1.09762e-12
-4.39047e-12
-1.09762e-12
6.5857e-12
8.78094e-12
-1.09762e-12
-8.78094e-12
0
0
-2.19523e-12
4.39047e-12
2.19523e-12
-5.48809e-12
-2.19523e-12
0
2.19523e-12
-6.5857e-12
-4.39047e-12
6.5857e-12
4.39047e-12
8.78094e-12
-7.68332e-12
-2584.87
-2531.2
-2427.21
-2279.26
-2096.06
-1887.81
-1665.27
-1438.85
-1217.82
-1009.77
-820.312
-652.971
-509.346
-389.391
-291.786
-214.34
-154.368
-109.013
-75.4969
-51.2829
-34.1731
-22.3427
-14.3345
-9.02555
-5.57826
-3.38608
-2.02015
-1.18456
-0.681511
-0.383235
-0.20983
-0.112736
-0.0612274
-0.0336917
-0.0174096
-0.00783208
-0.00297957
-0.000960177
-0.000265555
-6.40078e-05
-1.36412e-05
-2.6032e-06
-4.4966e-07
-7.09851e-08
-1.03132e-08
-1.3808e-09
-1.76716e-10
-5.48809e-12
-3.29285e-12
-1.09762e-12
1.09762e-12
0
-1.09762e-12
0
2.19524e-12
0
-1.09762e-12
0
-1.09762e-12
0
0
1.09762e-12
-1.09762e-12
0
0
0
-1.09762e-12
0
1.09762e-12
-1.4269e-11
4.39047e-12
9.87856e-12
-3.29285e-12
4.39047e-12
-1.09762e-12
-2583.29
-2529.75
-2426
-2278.37
-2095.52
-1887.61
-1665.39
-1439.21
-1218.35
-1010.41
-820.982
-653.625
-509.947
-389.917
-292.227
-214.697
-154.647
-109.225
-75.6534
-51.3954
-34.252
-22.3967
-14.3706
-9.04911
-5.59342
-3.39574
-2.02629
-1.18831
-0.683552
-0.384176
-0.210193
-0.112854
-0.0612606
-0.0337001
-0.0174117
-0.00783263
-0.00297973
-0.000960224
-0.000265568
-6.40111e-05
-1.36419e-05
-2.60333e-06
-4.49722e-07
-7.10027e-08
-1.03154e-08
-1.37751e-09
-1.71228e-10
-6.58571e-12
1.09762e-12
-1.09762e-12
1.09762e-12
0
-1.09762e-12
-1.09762e-12
0
1.09762e-12
-1.09762e-12
0
1.09762e-12
0
-3.29285e-12
0
3.29285e-12
0
1.09762e-12
8.78094e-12
0
-9.87856e-12
0
0
9.87856e-12
3.29285e-12
-1.4269e-11
-2.19523e-12
3.29285e-12
-2582.32
-2528.85
-2425.25
-2277.81
-2095.17
-1887.48
-1665.44
-1439.42
-1218.67
-1010.8
-821.398
-654.034
-510.326
-390.25
-292.508
-214.924
-154.825
-109.362
-75.7548
-51.469
-34.304
-22.4323
-14.3942
-9.06455
-5.60349
-3.40208
-2.03006
-1.1904
-0.684601
-0.384633
-0.210363
-0.112908
-0.0612755
-0.0337037
-0.0174125
-0.00783281
-0.00297978
-0.000960235
-0.00026557
-6.40117e-05
-1.36421e-05
-2.60338e-06
-4.49734e-07
-7.09708e-08
-1.03077e-08
-1.37751e-09
-1.77814e-10
-1.97571e-11
0
-8.78094e-12
0
0
0
1.09762e-12
1.09762e-12
-2.19523e-12
1.09762e-12
-1.09762e-12
2.19523e-12
-2.19523e-12
-1.09762e-11
3.29285e-12
7.68332e-12
-8.78094e-12
-1.09762e-11
9.87856e-12
9.87856e-12
5.48809e-12
-1.09762e-12
-4.39047e-12
0
-1.09762e-12
0
0
1.09762e-12
-2581.73
-2528.31
-2424.79
-2277.46
-2094.95
-1887.39
-1665.47
-1439.54
-1218.87
-1011.03
-821.652
-654.286
-510.56
-390.457
-292.682
-215.066
-154.937
-109.447
-75.819
-51.5158
-34.3372
-22.455
-14.4092
-9.07446
-5.61015
-3.40628
-2.0324
-1.19157
-0.685119
-0.384837
-0.210434
-0.112929
-0.0612812
-0.0337051
-0.0174128
-0.00783287
-0.00297979
-0.000960237
-0.000265571
-6.40118e-05
-1.36421e-05
-2.60337e-06
-4.49733e-07
-7.09961e-08
-1.03297e-08
-1.37751e-09
-1.55862e-10
-1.53666e-11
-1.09762e-11
1.09762e-12
7.68332e-12
0
0
1.09762e-12
2.19524e-12
1.86595e-11
-4.39047e-12
-1.75619e-11
1.09762e-12
0
-1.09762e-11
-1.09762e-12
1.31714e-11
0
-2.19523e-12
0
1.09762e-12
-1.09762e-12
0
-2.19524e-12
-2.19523e-12
6.58571e-12
-3.29285e-12
-7.68332e-12
8.78094e-12
-2581.37
-2527.98
-2424.51
-2277.25
-2094.82
-1887.34
-1665.48
-1439.62
-1218.98
-1011.17
-821.806
-654.439
-510.704
-390.584
-292.79
-215.153
-155.005
-109.5
-75.8582
-51.5444
-34.3575
-22.4691
-14.4187
-9.08101
-5.61464
-3.40906
-2.03387
-1.19222
-0.685379
-0.384928
-0.210462
-0.112937
-0.0612832
-0.0337056
-0.0174129
-0.00783289
-0.00297979
-0.000960238
-0.000265571
-6.40118e-05
-1.36421e-05
-2.60338e-06
-4.4973e-07
-7.10148e-08
-1.03253e-08
-1.37641e-09
-1.75619e-10
-5.48809e-12
3.29285e-12
-2.19523e-12
2.19524e-12
0
1.09762e-12
0
-3.29285e-12
9.87856e-12
0
-9.87856e-12
0
0
0
0
-1.64643e-11
0
1.64643e-11
0
1.09762e-12
0
0
-1.31714e-11
0
1.20738e-11
-3.29285e-12
1.09762e-12
2.19524e-12
-2581.16
-2527.78
-2424.34
-2277.12
-2094.74
-1887.3
-1665.49
-1439.66
-1219.05
-1011.26
-821.897
-654.53
-510.79
-390.661
-292.855
-215.206
-155.047
-109.531
-75.8817
-51.5614
-34.3695
-22.4775
-14.4247
-9.08542
-5.61772
-3.41091
-2.03479
-1.19261
-0.685515
-0.384971
-0.210474
-0.112941
-0.061284
-0.0337057
-0.0174129
-0.0078329
-0.00297979
-0.000960238
-0.000265571
-6.40119e-05
-1.36421e-05
-2.60338e-06
-4.49718e-07
-7.10049e-08
-1.03275e-08
-1.37971e-09
-1.60252e-10
-7.68332e-12
0
0
1.09762e-12
0
-1.09762e-12
1.09762e-12
0
-1.09762e-12
-7.68332e-12
-1.09762e-12
7.68332e-12
1.09762e-12
0
0
0
-1.09762e-12
-4.39047e-12
1.20738e-11
4.39047e-12
-1.09762e-11
-2.19523e-12
-1.09762e-12
2.19523e-12
0
0
-1.09762e-11
1.20738e-11
-2581.04
-2527.67
-2424.25
-2277.05
-2094.69
-1887.28
-1665.49
-1439.68
-1219.09
-1011.3
-821.949
-654.583
-510.84
-390.706
-292.894
-215.238
-155.072
-109.55
-75.8955
-51.5713
-34.3763
-22.4821
-14.4283
-9.08851
-5.62004
-3.41229
-2.03544
-1.19286
-0.685597
-0.384994
-0.21048
-0.112942
-0.0612842
-0.0337058
-0.0174129
-0.0078329
-0.00297979
-0.000960238
-0.000265571
-6.40119e-05
-1.36421e-05
-2.60337e-06
-4.49726e-07
-7.09983e-08
-1.0311e-08
-1.36983e-09
-1.72326e-10
-1.64643e-11
3.29285e-12
0
0
5.48809e-12
0
-7.68332e-12
3.29285e-12
2.19523e-12
7.68332e-12
1.09762e-12
-1.20738e-11
0
-1.09762e-12
-1.09762e-12
-2.19524e-12
0
1.75619e-11
0
-1.4269e-11
0
1.09762e-12
-5.48809e-12
-2.19523e-12
6.58571e-12
-1.09762e-12
-1.09762e-12
2.19524e-12
-2580.97
-2527.61
-2424.19
-2277.01
-2094.66
-1887.27
-1665.5
-1439.69
-1219.11
-1011.33
-821.979
-654.613
-510.868
-390.732
-292.917
-215.258
-155.088
-109.562
-75.9038
-51.5767
-34.3796
-22.4841
-14.4303
-9.09072
-5.6219
-3.41343
-2.03596
-1.19305
-0.685657
-0.38501
-0.210484
-0.112943
-0.0612844
-0.0337058
-0.017413
-0.0078329
-0.00297979
-0.000960238
-0.000265571
-6.40119e-05
-1.36421e-05
-2.60338e-06
-4.49729e-07
-7.09818e-08
-1.03044e-08
-1.37531e-09
-1.72326e-10
-2.19524e-11
6.58571e-12
-5.48809e-12
-8.78094e-12
5.48809e-12
8.78094e-12
-1.31714e-11
6.58571e-12
1.53666e-11
-2.19524e-12
-3.29285e-12
-5.48809e-12
2.19524e-12
1.09762e-12
-3.29285e-12
4.39047e-12
4.39047e-12
-4.39047e-12
-2.19524e-12
0
0
0
0
0
0
1.09762e-12
1.09762e-12
-2.19524e-12
-2580.93
-2527.57
-2424.16
-2276.98
-2094.65
-1887.26
-1665.5
-1439.7
-1219.12
-1011.35
-821.995
-654.629
-510.884
-390.746
-292.93
-215.27
-155.098
-109.57
-75.9086
-51.5794
-34.3809
-22.4848
-14.4312
-9.09209
-5.62318
-3.41422
-2.03633
-1.19319
-0.685697
-0.38502
-0.210486
-0.112943
-0.0612845
-0.0337058
-0.017413
-0.0078329
-0.00297979
-0.000960238
-0.000265571
-6.40119e-05
-1.36421e-05
-2.60341e-06
-4.49742e-07
-7.09884e-08
-1.02957e-08
-1.3819e-09
-1.85497e-10
-1.09762e-11
3.29285e-12
0
-2.19523e-12
-1.09762e-12
3.29285e-12
0
0
0
8.78094e-12
-2.19523e-12
-5.48809e-12
1.09762e-12
-2.19523e-12
0
2.19523e-12
-2.19523e-12
-2.19523e-12
4.39047e-12
1.09762e-12
-3.29285e-12
0
0
2.19523e-12
0
-2.19523e-12
-5.48809e-12
5.48809e-12
-2580.91
-2527.55
-2424.14
-2276.97
-2094.64
-1887.26
-1665.5
-1439.71
-1219.13
-1011.36
-822.006
-654.639
-510.892
-390.754
-292.938
-215.277
-155.104
-109.574
-75.911
-51.5806
-34.3813
-22.4849
-14.4316
-9.09279
-5.62386
-3.41465
-2.03653
-1.19326
-0.68572
-0.385026
-0.210488
-0.112943
-0.0612845
-0.0337058
-0.017413
-0.0078329
-0.00297979
-0.000960238
-0.000265571
-6.40119e-05
-1.36421e-05
-2.60338e-06
-4.49739e-07
-7.10016e-08
-1.03121e-08
-1.3819e-09
-1.66838e-10
-1.97571e-11
-9.87856e-12
0
0
0
0
0
0
2.19523e-12
0
-1.09762e-12
0
0
-2.19524e-12
0
-4.39047e-12
-1.09762e-12
5.48809e-12
1.09762e-12
0
2.19523e-12
-1.09762e-12
-6.58571e-12
0
2.19524e-12
-1.4269e-11
4.39047e-12
1.31714e-11
-2580.9
-2527.54
-2424.13
-2276.96
-2094.63
-1887.25
-1665.5
-1439.71
-1219.13
-1011.36
-822.013
-654.646
-510.897
-390.758
-292.941
-215.28
-155.107
-109.576
-75.9122
-51.5811
-34.3814
-22.4849
-14.4317
-9.09308
-5.62416
-3.41484
-2.03662
-1.19329
-0.685729
-0.385029
-0.210488
-0.112943
-0.0612845
-0.0337058
-0.017413
-0.0078329
-0.00297979
-0.000960238
-0.000265571
-6.40119e-05
-1.36421e-05
-2.60338e-06
-4.49739e-07
-7.10049e-08
-1.03187e-08
-1.36544e-09
-1.63545e-10
-1.75619e-11
-3.29285e-12
-1.20738e-11
0
-5.48809e-12
-1.09762e-12
5.48809e-12
0
2.19523e-12
0
1.09762e-12
0
-2.19524e-12
0
-5.48809e-12
-1.75619e-11
4.39047e-12
1.86595e-11
0
-1.09762e-12
1.09762e-12
0
0
0
0
0
8.78094e-12
-8.78094e-12
-2580.89
-2527.53
-2424.12
-2276.95
-2094.63
-1887.25
-1665.5
-1439.71
-1219.14
-1011.37
-822.018
-654.65
-510.9
-390.76
-292.943
-215.282
-155.109
-109.577
-75.9127
-51.5813
-34.3815
-22.4849
-14.4317
-9.09318
-5.62426
-3.41491
-2.03665
-1.1933
-0.685733
-0.38503
-0.210488
-0.112944
-0.0612846
-0.0337058
-0.017413
-0.0078329
-0.00297979
-0.000960238
-0.000265571
-6.40119e-05
-1.36421e-05
-2.60338e-06
-4.49728e-07
-7.09741e-08
-1.02935e-08
-1.37641e-09
-1.86595e-10
-2.305e-11
-2.19523e-12
-8.78094e-12
2.19523e-12
1.09762e-12
2.19523e-12
-1.09762e-12
-2.19523e-12
0
0
0
-1.09762e-12
0
1.09762e-12
-1.09762e-12
0
1.09762e-12
-3.29285e-12
0
3.29285e-12
9.87856e-12
3.29285e-12
-8.78094e-12
-2.41476e-11
-1.09762e-12
1.64643e-11
2.19523e-12
2.19523e-12
-2580.89
-2527.53
-2424.12
-2276.95
-2094.63
-1887.25
-1665.5
-1439.71
-1219.14
-1011.37
-822.021
-654.652
-510.902
-390.761
-292.944
-215.283
-155.109
-109.577
-75.9128
-51.5814
-34.3815
-22.4849
-14.4317
-9.0932
-5.62429
-3.41493
-2.03666
-1.19331
-0.685734
-0.38503
-0.210488
-0.112944
-0.0612846
-0.0337058
-0.017413
-0.0078329
-0.00297979
-0.000960238
-0.000265571
-6.40119e-05
-1.36421e-05
-2.60339e-06
-4.49729e-07
-7.09884e-08
-1.03088e-08
-1.35446e-09
-1.77814e-10
-3.62214e-11
0
-1.09762e-12
0
1.4269e-11
0
-1.53666e-11
0
1.20738e-11
-1.09762e-12
-9.87856e-12
0
-1.09762e-12
1.09762e-12
0
0
0
0
0
9.87856e-12
2.19523e-12
-9.87856e-12
-6.58571e-12
-1.09762e-12
5.48809e-12
0
0
0
-2580.88
-2527.52
-2424.12
-2276.95
-2094.63
-1887.25
-1665.5
-1439.71
-1219.14
-1011.37
-822.022
-654.654
-510.902
-390.761
-292.944
-215.283
-155.109
-109.577
-75.9129
-51.5814
-34.3815
-22.4849
-14.4317
-9.09321
-5.62429
-3.41493
-2.03666
-1.19331
-0.685734
-0.38503
-0.210488
-0.112944
-0.0612846
-0.0337058
-0.017413
-0.0078329
-0.00297979
-0.000960238
-0.000265571
-6.40119e-05
-1.36421e-05
-2.60337e-06
-4.49737e-07
-7.09895e-08
-1.03077e-08
-1.35995e-09
-1.64643e-10
-2.63428e-11
0
-2.19523e-12
-9.87856e-12
1.09762e-12
1.09762e-11
1.09762e-12
2.19524e-12
8.78094e-12
-1.31714e-11
-9.87856e-12
1.20738e-11
-1.09762e-12
-4.39047e-12
-3.29285e-12
4.39047e-12
3.29285e-12
0
0
1.09762e-12
-1.09762e-12
7.68332e-12
1.09762e-12
-4.39047e-12
0
-2.19524e-12
0
-2.19524e-12
-2580.88
-2527.52
-2424.12
-2276.95
-2094.63
-1887.25
-1665.5
-1439.71
-1219.14
-1011.37
-822.023
-654.654
-510.903
-390.761
-292.944
-215.283
-155.109
-109.577
-75.9129
-51.5814
-34.3815
-22.4849
-14.4317
-9.09321
-5.62429
-3.41493
-2.03666
-1.19331
-0.685734
-0.38503
-0.210488
-0.112944
-0.0612846
-0.0337058
-0.017413
-0.0078329
-0.00297979
-0.000960238
-0.000265571
-6.40119e-05
-1.36421e-05
-2.60337e-06
-4.49725e-07
-7.0995e-08
-1.03154e-08
-1.37971e-09
-1.66838e-10
-3.29285e-12
0
-5.48809e-12
-3.29285e-12
3.29285e-12
7.68332e-12
0
-2.19523e-12
0
-1.75619e-11
-9.87856e-12
5.48809e-12
5.48809e-12
1.20738e-11
4.39047e-12
-2.19523e-12
0
-7.68332e-12
0
1.4269e-11
0
-4.39047e-12
-7.68332e-12
-1.09762e-12
-1.09762e-12
0
1.64643e-11
-6.5857e-12
-2580.88
-2527.52
-2424.12
-2276.95
-2094.63
-1887.25
-1665.5
-1439.71
-1219.14
-1011.37
-822.023
-654.654
-510.903
-390.761
-292.944
-215.283
-155.109
-109.577
-75.9129
-51.5814
-34.3815
-22.4849
-14.4317
-9.09321
-5.62429
-3.41493
-2.03666
-1.19331
-0.685734
-0.38503
-0.210488
-0.112944
-0.0612846
-0.0337058
-0.017413
-0.0078329
-0.00297979
-0.000960238
-0.000265571
-6.40119e-05
-1.36421e-05
-2.60336e-06
-4.49717e-07
-7.10038e-08
-1.0322e-08
-1.37861e-09
-1.70131e-10
-7.68332e-12
-3.29285e-12
-2.19523e-12
4.39047e-12
1.09762e-12
-1.09762e-12
-1.09762e-12
8.78094e-12
3.29285e-12
-1.09762e-11
-9.87856e-12
1.09762e-12
-5.48809e-12
1.09762e-12
1.31714e-11
-5.48809e-12
-1.09762e-12
6.5857e-12
0
1.09762e-12
0
-1.09762e-12
-1.31714e-11
0
6.58571e-12
-4.39047e-12
6.5857e-12
4.39047e-12
-2580.88
-2527.52
-2424.12
-2276.95
-2094.63
-1887.25
-1665.5
-1439.71
-1219.14
-1011.37
-822.023
-654.654
-510.903
-390.761
-292.944
-215.283
-155.109
-109.577
-75.9129
-51.5814
-34.3815
-22.4849
-14.4317
-9.09321
-5.62429
-3.41493
-2.03666
-1.19331
-0.685734
-0.38503
-0.210488
-0.112944
-0.0612846
-0.0337058
-0.017413
-0.0078329
-0.00297979
-0.000960238
-0.000265571
-6.40119e-05
-1.36421e-05
-2.60336e-06
-4.49727e-07
-7.09906e-08
-1.0322e-08
-1.37861e-09
-1.66838e-10
-1.53666e-11
1.31714e-11
-2.19523e-12
-4.39047e-12
3.29285e-12
-7.68332e-12
1.09762e-12
1.53666e-11
1.09762e-12
-1.75619e-11
8.78094e-12
1.31714e-11
-8.78094e-12
2.19524e-12
0
-2.19524e-12
-1.09762e-12
1.09762e-12
-3.29285e-12
4.39047e-12
4.39047e-12
1.09762e-12
-2.19524e-12
-5.48809e-12
1.09762e-12
1.09762e-12
-1.09762e-12
0
-2580.88
-2527.52
-2424.12
-2276.95
-2094.63
-1887.25
-1665.5
-1439.71
-1219.14
-1011.37
-822.023
-654.654
-510.903
-390.761
-292.944
-215.283
-155.109
-109.577
-75.9129
-51.5814
-34.3815
-22.4849
-14.4317
-9.09321
-5.62429
-3.41493
-2.03666
-1.19331
-0.685734
-0.38503
-0.210488
-0.112944
-0.0612846
-0.0337058
-0.017413
-0.0078329
-0.00297979
-0.000960238
-0.000265571
-6.40119e-05
-1.36421e-05
-2.60337e-06
-4.49736e-07
-7.09994e-08
-1.03055e-08
-1.37971e-09
-1.69033e-10
-1.75619e-11
-9.87856e-12
0
1.4269e-11
0
-7.68332e-12
1.09762e-12
-1.09762e-11
-1.09762e-12
9.87856e-12
0
3.29285e-12
-1.09762e-12
-2.19523e-12
-1.09762e-12
-5.48809e-12
-2.19523e-12
7.68332e-12
4.39047e-12
1.31714e-11
0
-1.31714e-11
8.78094e-12
1.31714e-11
-1.09762e-11
-1.09762e-11
-1.09762e-12
1.09762e-12
-2580.87
-2527.52
-2424.12
-2276.95
-2094.63
-1887.25
-1665.5
-1439.71
-1219.14
-1011.37
-822.023
-654.654
-510.903
-390.761
-292.944
-215.283
-155.109
-109.577
-75.9129
-51.5814
-34.3815
-22.4849
-14.4317
-9.09321
-5.62429
-3.41493
-2.03666
-1.19331
-0.685734
-0.38503
-0.210488
-0.112944
-0.0612846
-0.0337058
-0.017413
-0.0078329
-0.00297979
-0.000960238
-0.000265571
-6.40118e-05
-1.36421e-05
-2.60337e-06
-4.49698e-07
-7.09961e-08
-1.03264e-08
-1.37751e-09
-1.69033e-10
-3.07333e-11
-1.4269e-11
0
7.68332e-12
1.4269e-11
7.68332e-12
-1.4269e-11
0
4.39047e-12
-8.78094e-12
-5.48809e-12
0
0
0
0
0
-3.29285e-12
0
4.39047e-12
0
-1.09762e-12
-8.78094e-12
-6.58571e-12
1.53666e-11
5.48809e-12
-8.78094e-12
0
3.29285e-12
-2580.87
-2527.52
-2424.12
-2276.95
-2094.63
-1887.25
-1665.5
-1439.71
-1219.14
-1011.37
-822.023
-654.654
-510.903
-390.761
-292.944
-215.283
-155.109
-109.577
-75.9129
-51.5814
-34.3815
-22.4849
-14.4317
-9.09321
-5.62429
-3.41493
-2.03666
-1.19331
-0.685734
-0.38503
-0.210488
-0.112944
-0.0612846
-0.0337058
-0.017413
-0.0078329
-0.00297979
-0.000960238
-0.000265571
-6.40118e-05
-1.36421e-05
-2.60336e-06
-4.49705e-07
-7.09884e-08
-1.03187e-08
-1.39068e-09
-1.87693e-10
-2.19524e-11
0
-1.09762e-12
8.78094e-12
1.4269e-11
-8.78094e-12
-1.53666e-11
0
1.53666e-11
0
-1.31714e-11
0
-1.09762e-12
-3.29285e-12
-1.09762e-12
4.39047e-12
0
0
0
0
1.09762e-12
-1.09762e-12
-7.68332e-12
1.09762e-12
7.68332e-12
-8.78094e-12
0
7.68332e-12
-2580.87
-2527.52
-2424.12
-2276.95
-2094.63
-1887.25
-1665.5
-1439.71
-1219.14
-1011.37
-822.023
-654.654
-510.903
-390.761
-292.944
-215.283
-155.109
-109.577
-75.9129
-51.5814
-34.3815
-22.4849
-14.4317
-9.09321
-5.62429
-3.41493
-2.03666
-1.19331
-0.685734
-0.38503
-0.210488
-0.112944
-0.0612846
-0.0337058
-0.017413
-0.0078329
-0.00297979
-0.000960238
-0.000265571
-6.40119e-05
-1.36421e-05
-2.6034e-06
-4.49714e-07
-7.09533e-08
-1.03154e-08
-1.40385e-09
-1.77814e-10
-1.86595e-11
-3.29285e-12
0
1.09762e-12
0
0
-1.09762e-12
-9.87856e-12
0
4.39047e-12
0
5.48809e-12
0
-2.19523e-12
5.48809e-12
2.19523e-12
-4.39047e-12
0
-1.09762e-12
0
7.68332e-12
7.68332e-12
-6.5857e-12
-9.87856e-12
-7.68332e-12
-2.19523e-12
3.29285e-12
7.68332e-12
-2580.87
-2527.52
-2424.12
-2276.95
-2094.63
-1887.25
-1665.5
-1439.71
-1219.14
-1011.37
-822.023
-654.654
-510.903
-390.761
-292.944
-215.283
-155.109
-109.577
-75.9129
-51.5814
-34.3815
-22.4849
-14.4317
-9.09321
-5.62429
-3.41493
-2.03666
-1.19331
-0.685734
-0.38503
-0.210488
-0.112944
-0.0612846
-0.0337058
-0.017413
-0.0078329
-0.00297979
-0.000960238
-0.000265571
-6.40119e-05
-1.36421e-05
-2.60338e-06
-4.49711e-07
-7.09676e-08
-1.0322e-08
-1.40385e-09
-1.71228e-10
-1.4269e-11
-2.19524e-12
0
3.29285e-12
2.19524e-12
-7.68332e-12
-2.19524e-12
3.29285e-12
-1.09762e-12
-1.09762e-12
1.09762e-12
1.09762e-12
0
-1.09762e-12
1.09762e-12
-1.09762e-12
0
-4.39047e-12
0
4.39047e-12
1.09762e-12
4.39047e-12
0
-5.48809e-12
-4.39047e-12
1.09762e-12
4.39047e-12
0
-2580.87
-2527.52
-2424.12
-2276.95
-2094.63
-1887.25
-1665.5
-1439.71
-1219.14
-1011.37
-822.023
-654.654
-510.903
-390.761
-292.944
-215.283
-155.109
-109.577
-75.9129
-51.5814
-34.3815
-22.4849
-14.4317
-9.09321
-5.62429
-3.41493
-2.03666
-1.19331
-0.685734
-0.38503
-0.210488
-0.112944
-0.0612846
-0.0337058
-0.017413
-0.0078329
-0.00297979
-0.000960238
-0.000265571
-6.40119e-05
-1.36421e-05
-2.60337e-06
-4.497e-07
-7.0984e-08
-1.03264e-08
-1.40495e-09
-1.844e-10
-9.87856e-12
2.19524e-12
-6.5857e-12
-1.09762e-12