/*--------------------------------*- C++ -*----------------------------------*\
  =========                 |
  \\      /  F ield         | OpenFOAM: The Open Source CFD Toolbox
   \\    /   O peration     | Website:  https://openfoam.org
    \\  /    A nd           | Version:  10
     \\/     M anipulation  |
\*---------------------------------------------------------------------------*/
FoamFile
{
    format      ascii;
    class       volScalarField;
    location    "201";
    object      T;
}
// * * * * * * * * * * * * * * * * * * * * * * * * * * * * * * * * * * * * * //

dimensions      [0 0 0 1 0 0 0];

internalField   nonuniform List<scalar> 
11250
(
249.735
167.238
138.839
126.235
119.29
114.846
111.718
109.381
107.567
106.124
104.957
104.006
103.227
102.587
102.064
101.636
101.288
101.007
100.781
100.601
100.459
100.347
100.261
100.194
100.143
100.105
100.076
100.054
100.039
100.027
100.019
100.013
100.009
100.006
100.004
100.003
100.002
100.001
100.001
100
100
100
100
100
100
100
100
100
100
100
100
100
100
100
100
100
100
100
100
100
100
100
100
100
100
100
100
100
100
100
100
100
100
100
100
331.179
247.635
200.75
173.083
155.419
143.276
134.423
127.685
122.397
118.162
114.724
111.912
109.602
107.704
106.148
104.875
103.84
103.002
102.33
101.793
101.369
101.037
100.778
100.579
100.427
100.312
100.226
100.162
100.115
100.081
100.057
100.039
100.027
100.018
100.012
100.008
100.005
100.004
100.002
100.001
100.001
100.001
100
100
100
100
100
100
100
100
100
100
100
100
100
100
100
100
100
100
100
100
100
100
100
100
100
100
100
100
100
100
100
100
100
358.543
291.425
243.527
210.043
186.167
168.578
155.195
144.73
136.375
129.604
124.065
119.508
115.75
112.653
110.106
108.02
106.321
104.945
103.839
102.957
102.258
101.71
101.284
100.956
100.705
100.515
100.373
100.268
100.191
100.134
100.094
100.065
100.044
100.03
100.02
100.013
100.009
100.006
100.004
100.002
100.002
100.001
100.001
100
100
100
100
100
100
100
100
100
100
100
100
100
100
100
100
100
100
100
100
100
100
100
100
100
100
100
100
100
100
100
100
370.14
316.081
272.029
237.588
210.861
189.946
173.347
159.985
149.098
140.15
132.754
126.624
121.542
117.335
113.865
111.016
108.69
106.804
105.285
104.073
103.112
102.358
101.771
101.319
100.973
100.711
100.516
100.37
100.263
100.185
100.129
100.09
100.061
100.042
100.028
100.019
100.012
100.008
100.005
100.003
100.002
100.001
100.001
100.001
100
100
100
100
100
100
100
100
100
100
100
100
100
100
100
100
100
100
100
100
100
100
100
100
100
100
100
100
100
100
100
376.115
330.849
291.115
257.68
230.068
207.371
188.676
173.204
160.341
149.607
140.636
133.137
126.879
121.675
117.365
113.816
110.911
108.551
106.649
105.127
103.92
102.972
102.233
101.663
101.228
100.898
100.651
100.467
100.332
100.234
100.164
100.113
100.078
100.053
100.035
100.024
100.016
100.01
100.007
100.004
100.003
100.002
100.001
100.001
100
100
100
100
100
100
100
100
100
100
100
100
100
100
100
100
100
100
100
100
100
100
100
100
100
100
100
100
100
100
100
379.638
340.238
304.146
272.286
244.768
221.269
201.305
184.376
170.032
157.889
147.624
138.969
131.699
125.619
120.564
116.386
112.959
110.167
107.913
106.107
104.673
103.545
102.665
101.986
101.467
101.073
100.778
100.559
100.398
100.28
100.196
100.135
100.093
100.063
100.042
100.028
100.019
100.012
100.008
100.005
100.003
100.002
100.001
100.001
100
100
100
100
100
100
100
100
100
100
100
100
100
100
100
100
100
100
100
100
100
100
100
100
100
100
100
100
100
100
100
381.899
346.499
313.243
282.949
255.941
232.203
211.529
193.635
178.22
164.995
153.698
144.092
135.969
129.14
123.436
118.706
114.814
111.638
109.066
107.003
105.363
104.071
103.063
102.284
101.687
101.235
100.896
100.644
100.458
100.323
100.226
100.156
100.107
100.073
100.049
100.033
100.021
100.014
100.009
100.006
100.004
100.002
100.001
100.001
100.001
100
100
100
100
100
100
100
100
100
100
100
100
100
100
100
100
100
100
100
100
100
100
100
100
100
100
100
100
100
100
383.43
350.827
319.72
290.789
264.415
240.73
219.701
201.193
185.023
170.989
158.885
148.514
139.687
132.228
125.972
120.766
116.47
112.954
110.103
107.812
105.987
104.548
103.424
102.554
101.888
101.383
101.003
100.721
100.513
100.362
100.253
100.175
100.12
100.082
100.055
100.037
100.024
100.016
100.01
100.007
100.004
100.003
100.002
100.001
100.001
100
100
100
100
100
100
100
100
100
100
100
100
100
100
100
100
100
100
100
100
100
100
100
100
100
100
100
100
100
100
384.502
353.897
324.406
296.595
270.84
247.344
226.171
207.288
190.598
175.969
163.247
152.271
142.874
134.896
128.177
122.567
117.924
114.116
111.021
108.53
106.543
104.974
103.747
102.797
102.069
101.516
101.1
100.791
100.564
100.398
100.278
100.192
100.132
100.09
100.06
100.04
100.026
100.017
100.011
100.007
100.005
100.003
100.002
100.001
100.001
100
100
100
100
100
100
100
100
100
100
100
100
100
100
100
100
100
100
100
100
100
100
100
100
100
100
100
100
100
100
385.27
356.114
327.838
300.919
275.715
252.455
231.257
212.155
195.114
180.054
166.865
155.417
145.566
137.166
130.065
124.118
119.183
115.126
111.823
109.159
107.032
105.35
104.033
103.012
102.229
101.634
101.187
100.854
100.608
100.429
100.3
100.208
100.143
100.097
100.065
100.043
100.029
100.019
100.012
100.008
100.005
100.003
100.002
100.001
100.001
100
100
100
100
100
100
100
100
100
100
100
100
100
100
100
100
100
100
100
100
100
100
100
100
100
100
100
100
100
100
385.829
357.736
330.373
304.155
279.415
256.39
235.23
216.008
198.734
183.366
169.829
158.018
147.81
139.071
131.66
125.436
120.258
115.992
112.513
109.703
107.455
105.676
104.282
103.2
102.369
101.737
101.262
100.908
100.648
100.457
100.32
100.221
100.152
100.103
100.069
100.046
100.031
100.02
100.013
100.008
100.005
100.003
100.002
100.001
100.001
100
100
100
100
100
100
100
100
100
100
100
100
100
100
100
100
100
100
100
100
100
100
100
100
100
100
100
100
100
100
386.239
358.932
332.256
306.582
282.221
259.411
238.317
219.037
201.61
186.025
172.23
160.142
149.656
140.65
132.99
126.54
121.163
116.725
113.099
110.166
107.817
105.956
104.495
103.362
102.49
101.827
101.328
100.956
100.682
100.482
100.337
100.233
100.16
100.109
100.073
100.049
100.032
100.021
100.014
100.009
100.006
100.003
100.002
100.001
100.001
100
100
100
100
100
100
100
100
100
100
100
100
100
100
100
100
100
100
100
100
100
100
100
100
100
100
100
100
100
100
386.542
359.819
333.66
308.405
284.348
261.722
240.702
221.4
203.876
188.138
174.154
161.858
151.158
141.942
134.085
127.455
121.916
117.337
113.59
110.556
108.123
106.193
104.677
103.499
102.593
101.904
101.384
100.997
100.711
100.502
100.352
100.244
100.167
100.114
100.077
100.051
100.034
100.022
100.014
100.009
100.006
100.004
100.002
100.001
100.001
100.001
100
100
100
100
100
100
100
100
100
100
100
100
100
100
100
100
100
100
100
100
100
100
100
100
100
100
100
100
100
386.767
360.478
334.708
309.775
285.957
263.484
242.535
223.232
205.647
189.802
175.681
163.229
152.366
142.988
134.976
128.202
122.535
117.842
113.997
110.88
108.378
106.391
104.829
103.615
102.68
101.968
101.432
101.032
100.736
100.52
100.364
100.252
100.173
100.118
100.079
100.053
100.035
100.023
100.015
100.01
100.006
100.004
100.002
100.001
100.001
100.001
100
100
100
100
100
100
100
100
100
100
100
100
100
100
100
100
100
100
100
100
100
100
100
100
100
100
100
100
100
386.934
360.968
335.49
310.801
287.17
264.822
243.937
224.643
207.02
191.102
176.881
164.314
153.328
143.825
135.693
128.806
123.037
118.254
114.33
111.146
108.587
106.554
104.955
103.711
102.753
102.022
101.471
101.06
100.757
100.535
100.375
100.26
100.178
100.121
100.082
100.054
100.036
100.024
100.015
100.01
100.006
100.004
100.002
100.002
100.001
100.001
100
100
100
100
100
100
100
100
100
100
100
100
100
100
100
100
100
100
100
100
100
100
100
100
100
100
100
100
100
387.058
361.333
336.073
311.569
288.082
265.834
245.003
225.722
208.077
192.108
177.816
165.164
154.085
144.488
136.263
129.289
123.44
118.586
114.6
111.361
108.758
106.688
105.058
103.79
102.812
102.067
101.504
101.084
100.774
100.547
100.383
100.266
100.183
100.124
100.084
100.056
100.037
100.024
100.016
100.01
100.006
100.004
100.002
100.002
100.001
100.001
100
100
100
100
100
100
100
100
100
100
100
100
100
100
100
100
100
100
100
100
100
100
100
100
100
100
100
100
100
387.15
361.603
336.506
312.142
288.765
266.594
245.808
226.542
208.884
192.882
178.539
165.824
154.676
145.007
136.712
129.671
123.76
118.85
114.815
111.534
108.895
106.795
105.142
103.853
102.86
102.103
101.531
101.104
100.788
100.558
100.39
100.271
100.186
100.127
100.085
100.057
100.038
100.025
100.016
100.01
100.007
100.004
100.003
100.002
100.001
100.001
100
100
100
100
100
100
100
100
100
100
100
100
100
100
100
100
100
100
100
100
100
100
100
100
100
100
100
100
100
387.218
361.802
336.827
312.567
289.273
267.163
246.413
227.161
209.497
193.471
179.091
166.331
155.132
145.41
137.061
129.97
124.011
119.058
114.985
111.671
109.004
106.881
105.208
103.904
102.899
102.132
101.552
101.12
100.8
100.566
100.396
100.275
100.189
100.129
100.087
100.058
100.038
100.025
100.016
100.01
100.007
100.004
100.003
100.002
100.001
100.001
100
100
100
100
100
100
100
100
100
100
100
100
100
100
100
100
100
100
100
100
100
100
100
100
100
100
100
100
100
387.268
361.949
337.063
312.881
289.65
267.586
246.865
227.624
209.957
193.916
179.511
166.718
155.481
145.719
137.331
130.201
124.206
119.22
115.118
111.779
109.09
106.949
105.261
103.945
102.93
102.155
101.57
101.132
100.809
100.572
100.401
100.278
100.191
100.13
100.088
100.059
100.039
100.025
100.016
100.011
100.007
100.004
100.003
100.002
100.001
100.001
100
100
100
100
100
100
100
100
100
100
100
100
100
100
100
100
100
100
100
100
100
100
100
100
100
100
100
100
100
387.304
362.057
337.237
313.112
289.928
267.898
247.2
227.969
210.301
194.249
179.826
167.01
155.746
145.955
137.537
130.378
124.356
119.345
115.22
111.862
109.157
107.001
105.302
103.976
102.954
102.173
101.583
101.142
100.816
100.577
100.405
100.281
100.193
100.131
100.089
100.059
100.039
100.026
100.017
100.011
100.007
100.004
100.003
100.002
100.001
100.001
100
100
100
100
100
100
100
100
100
100
100
100
100
100
100
100
100
100
100
100
100
100
100
100
100
100
100
100
100
387.331
362.136
337.364
313.281
290.132
268.128
247.446
228.224
210.556
194.497
180.062
167.229
155.945
146.132
137.692
130.512
124.47
119.44
115.299
111.926
109.208
107.042
105.334
104.001
102.972
102.187
101.593
101.15
100.822
100.581
100.408
100.283
100.194
100.132
100.089
100.06
100.039
100.026
100.017
100.011
100.007
100.004
100.003
100.002
100.001
100.001
100
100
100
100
100
100
100
100
100
100
100
100
100
100
100
100
100
100
100
100
100
100
100
100
100
100
100
100
100
387.35
362.193
337.456
313.404
290.28
268.295
247.627
228.411
210.744
194.68
180.236
167.391
156.093
146.265
137.809
130.613
124.555
119.512
115.358
111.974
109.247
107.073
105.358
104.02
102.987
102.198
101.602
101.156
100.826
100.585
100.41
100.284
100.195
100.133
100.09
100.06
100.04
100.026
100.017
100.011
100.007
100.004
100.003
100.002
100.001
100.001
100
100
100
100
100
100
100
100
100
100
100
100
100
100
100
100
100
100
100
100
100
100
100
100
100
100
100
100
100
387.364
362.234
337.522
313.493
290.387
268.417
247.757
228.547
210.88
194.814
180.364
167.51
156.202
146.363
137.895
130.687
124.619
119.566
115.403
112.011
109.276
107.096
105.376
104.034
102.998
102.206
101.608
101.16
100.829
100.587
100.411
100.286
100.196
100.134
100.09
100.06
100.04
100.026
100.017
100.011
100.007
100.004
100.003
100.002
100.001
100.001
100
100
100
100
100
100
100
100
100
100
100
100
100
100
100
100
100
100
100
100
100
100
100
100
100
100
100
100
100
387.374
362.263
337.569
313.556
290.464
268.504
247.852
228.645
210.979
194.911
180.456
167.597
156.281
146.434
137.958
130.743
124.666
119.605
115.436
112.038
109.298
107.113
105.39
104.044
103.006
102.212
101.612
101.164
100.832
100.589
100.413
100.287
100.197
100.134
100.09
100.06
100.04
100.026
100.017
100.011
100.007
100.004
100.003
100.002
100.001
100.001
100
100
100
100
100
100
100
100
100
100
100
100
100
100
100
100
100
100
100
100
100
100
100
100
100
100
100
100
100
387.381
362.284
337.603
313.601
290.519
268.566
247.919
228.715
211.05
194.981
180.523
167.659
156.339
146.486
138.005
130.783
124.701
119.635
115.46
112.058
109.314
107.126
105.4
104.052
103.012
102.217
101.616
101.166
100.834
100.59
100.414
100.287
100.197
100.134
100.091
100.061
100.04
100.026
100.017
100.011
100.007
100.004
100.003
100.002
100.001
100.001
100
100
100
100
100
100
100
100
100
100
100
100
100
100
100
100
100
100
100
100
100
100
100
100
100
100
100
100
100
387.386
362.298
337.627
313.633
290.557
268.61
247.967
228.765
211.101
195.03
180.571
167.704
156.381
146.524
138.038
130.812
124.726
119.656
115.478
112.072
109.326
107.136
105.407
104.058
103.016
102.22
101.618
101.168
100.835
100.591
100.414
100.288
100.198
100.135
100.091
100.061
100.04
100.026
100.017
100.011
100.007
100.004
100.003
100.002
100.001
100.001
100
100
100
100
100
100
100
100
100
100
100
100
100
100
100
100
100
100
100
100
100
100
100
100
100
100
100
100
100
387.39
362.309
337.643
313.655
290.584
268.641
248
228.8
211.136
195.066
180.605
167.736
156.41
146.55
138.062
130.833
124.744
119.671
115.49
112.082
109.334
107.142
105.413
104.062
103.019
102.223
101.62
101.17
100.836
100.592
100.415
100.288
100.198
100.135
100.091
100.061
100.04
100.026
100.017
100.011
100.007
100.004
100.003
100.002
100.001
100.001
100
100
100
100
100
100
100
100
100
100
100
100
100
100
100
100
100
100
100
100
100
100
100
100
100
100
100
100
100
387.392
362.316
337.655
313.671
290.603
268.662
248.024
228.825
211.161
195.09
180.629
167.759
156.431
146.569
138.078
130.847
124.756
119.682
115.499
112.09
109.34
107.147
105.416
104.065
103.022
102.224
101.621
101.171
100.837
100.592
100.415
100.288
100.198
100.135
100.091
100.061
100.04
100.026
100.017
100.011
100.007
100.004
100.003
100.002
100.001
100.001
100
100
100
100
100
100
100
100
100
100
100
100
100
100
100
100
100
100
100
100
100
100
100
100
100
100
100
100
100
387.394
362.321
337.663
313.682
290.616
268.677
248.04
228.842
211.179
195.107
180.645
167.774
156.445
146.582
138.09
130.858
124.765
119.689
115.506
112.095
109.345
107.151
105.419
104.067
103.023
102.226
101.622
101.171
100.837
100.593
100.416
100.289
100.198
100.135
100.091
100.061
100.04
100.026
100.017
100.011
100.007
100.004
100.003
100.002
100.001
100.001
100
100
100
100
100
100
100
100
100
100
100
100
100
100
100
100
100
100
100
100
100
100
100
100
100
100
100
100
100
387.395
362.324
337.668
313.689
290.625
268.688
248.051
228.853
211.19
195.119
180.657
167.785
156.455
146.591
138.098
130.865
124.771
119.694
115.51
112.099
109.348
107.153
105.421
104.069
103.025
102.226
101.623
101.172
100.838
100.593
100.416
100.289
100.198
100.135
100.091
100.061
100.04
100.026
100.017
100.011
100.007
100.004
100.003
100.002
100.001
100.001
100
100
100
100
100
100
100
100
100
100
100
100
100
100
100
100
100
100
100
100
100
100
100
100
100
100
100
100
100
387.396
362.326
337.672
313.694
290.631
268.695
248.059
228.861
211.199
195.127
180.664
167.792
156.462
146.598
138.104
130.87
124.776
119.698
115.513
112.101
109.35
107.155
105.422
104.07
103.025
102.227
101.624
101.172
100.838
100.593
100.416
100.289
100.199
100.135
100.091
100.061
100.04
100.026
100.017
100.011
100.007
100.004
100.003
100.002
100.001
100.001
100
100
100
100
100
100
100
100
100
100
100
100
100
100
100
100
100
100
100
100
100
100
100
100
100
100
100
100
100
387.396
362.328
337.675
313.697
290.636
268.699
248.064
228.867
211.204
195.133
180.67
167.797
156.467
146.602
138.108
130.873
124.779
119.701
115.515
112.103
109.351
107.156
105.423
104.071
103.026
102.227
101.624
101.172
100.838
100.593
100.416
100.289
100.199
100.135
100.091
100.061
100.04
100.026
100.017
100.011
100.007
100.004
100.003
100.002
100.001
100.001
100
100
100
100
100
100
100
100
100
100
100
100
100
100
100
100
100
100
100
100
100
100
100
100
100
100
100
100
100
387.396
362.329
337.676
313.7
290.638
268.702
248.067
228.87
211.208
195.136
180.673
167.801
156.47
146.605
138.11
130.875
124.781
119.702
115.517
112.104
109.352
107.157
105.424
104.071
103.026
102.228
101.624
101.173
100.838
100.593
100.416
100.289
100.199
100.135
100.091
100.061
100.04
100.026
100.017
100.011
100.007
100.004
100.003
100.002
100.001
100.001
100
100
100
100
100
100
100
100
100
100
100
100
100
100
100
100
100
100
100
100
100
100
100
100
100
100
100
100
100
387.397
362.33
337.677
313.701
290.64
268.704
248.07
228.873
211.21
195.139
180.676
167.803
156.472
146.607
138.112
130.877
124.782
119.703
115.518
112.105
109.353
107.157
105.424
104.072
103.027
102.228
101.624
101.173
100.838
100.594
100.416
100.289
100.199
100.135
100.091
100.061
100.04
100.026
100.017
100.011
100.007
100.004
100.003
100.002
100.001
100.001
100
100
100
100
100
100
100
100
100
100
100
100
100
100
100
100
100
100
100
100
100
100
100
100
100
100
100
100
100
387.397
362.33
337.678
313.702
290.641
268.706
248.071
228.874
211.212
195.14
180.677
167.805
156.473
146.608
138.113
130.878
124.783
119.704
115.518
112.106
109.353
107.158
105.425
104.072
103.027
102.228
101.624
101.173
100.838
100.594
100.416
100.289
100.199
100.135
100.091
100.061
100.04
100.026
100.017
100.011
100.007
100.004
100.003
100.002
100.001
100.001
100
100
100
100
100
100
100
100
100
100
100
100
100
100
100
100
100
100
100
100
100
100
100
100
100
100
100
100
100
387.397
362.33
337.679
313.703
290.642
268.707
248.072
228.875
211.213
195.141
180.678
167.806
156.474
146.609
138.114
130.879
124.783
119.705
115.519
112.106
109.354
107.158
105.425
104.072
103.027
102.228
101.624
101.173
100.838
100.594
100.416
100.289
100.199
100.135
100.091
100.061
100.04
100.026
100.017
100.011
100.007
100.004
100.003
100.002
100.001
100.001
100
100
100
100
100
100
100
100
100
100
100
100
100
100
100
100
100
100
100
100
100
100
100
100
100
100
100
100
100
387.397
362.331
337.679
313.703
290.643
268.707
248.073
228.876
211.213
195.142
180.679
167.806
156.475
146.609
138.114
130.879
124.784
119.705
115.519
112.106
109.354
107.158
105.425
104.072
103.027
102.228
101.624
101.173
100.838
100.594
100.416
100.289
100.199
100.135
100.091
100.061
100.04
100.026
100.017
100.011
100.007
100.004
100.003
100.002
100.001
100.001
100
100
100
100
100
100
100
100
100
100
100
100
100
100
100
100
100
100
100
100
100
100
100
100
100
100
100
100
100
387.397
362.331
337.679
313.703
290.643
268.708
248.073
228.876
211.214
195.142
180.679
167.807
156.475
146.61
138.115
130.879
124.784
119.705
115.519
112.106
109.354
107.158
105.425
104.072
103.027
102.228
101.624
101.173
100.838
100.594
100.416
100.289
100.199
100.135
100.091
100.061
100.04
100.026
100.017
100.011
100.007
100.004
100.003
100.002
100.001
100.001
100
100
100
100
100
100
100
100
100
100
100
100
100
100
100
100
100
100
100
100
100
100
100
100
100
100
100
100
100
387.397
362.331
337.679
313.704
290.643
268.708
248.073
228.876
211.214
195.143
180.68
167.807
156.475
146.61
138.115
130.879
124.784
119.705
115.519
112.106
109.354
107.158
105.425
104.072
103.027
102.228
101.624
101.173
100.838
100.594
100.416
100.289
100.199
100.135
100.091
100.061
100.04
100.026
100.017
100.011
100.007
100.004
100.003
100.002
100.001
100.001
100
100
100
100
100
100
100
100
100
100
100
100
100
100
100
100
100
100
100
100
100
100
100
100
100
100
100
100
100
387.397
362.331
337.679
313.704
290.643
268.708
248.073
228.877
211.214
195.143
180.68
167.807
156.476
146.61
138.115
130.88
124.784
119.705
115.519
112.106
109.354
107.158
105.425
104.072
103.027
102.228
101.625
101.173
100.838
100.594
100.416
100.289
100.199
100.135
100.091
100.061
100.04
100.026
100.017
100.011
100.007
100.004
100.003
100.002
100.001
100.001
100
100
100
100
100
100
100
100
100
100
100
100
100
100
100
100
100
100
100
100
100
100
100
100
100
100
100
100
100
387.397
362.331
337.679
313.704
290.643
268.708
248.074
228.877
211.214
195.143
180.68
167.807
156.476
146.61
138.115
130.88
124.784
119.705
115.519
112.106
109.354
107.158
105.425
104.072
103.027
102.228
101.625
101.173
100.839
100.594
100.416
100.289
100.199
100.135
100.091
100.061
100.04
100.026
100.017
100.011
100.007
100.004
100.003
100.002
100.001
100.001
100
100
100
100
100
100
100
100
100
100
100
100
100
100
100
100
100
100
100
100
100
100
100
100
100
100
100
100
100
387.397
362.331
337.679
313.704
290.643
268.708
248.074
228.877
211.215
195.143
180.68
167.807
156.476
146.61
138.115
130.88
124.784
119.705
115.519
112.106
109.354
107.158
105.425
104.072
103.027
102.228
101.625
101.173
100.839
100.594
100.416
100.289
100.199
100.135
100.091
100.061
100.04
100.026
100.017
100.011
100.007
100.004
100.003
100.002
100.001
100.001
100
100
100
100
100
100
100
100
100
100
100
100
100
100
100
100
100
100
100
100
100
100
100
100
100
100
100
100
100
387.397
362.331
337.679
313.704
290.643
268.708
248.074
228.877
211.215
195.143
180.68
167.807
156.476
146.61
138.115
130.88
124.784
119.706
115.519
112.107
109.354
107.158
105.425
104.072
103.027
102.228
101.625
101.173
100.839
100.594
100.416
100.289
100.199
100.135
100.091
100.061
100.04
100.026
100.017
100.011
100.007
100.004
100.003
100.002
100.001
100.001
100
100
100
100
100
100
100
100
100
100
100
100
100
100
100
100
100
100
100
100
100
100
100
100
100
100
100
100
100
387.397
362.331
337.679
313.704
290.643
268.708
248.074
228.877
211.215
195.143
180.68
167.807
156.476
146.61
138.115
130.88
124.784
119.706
115.519
112.107
109.354
107.158
105.425
104.072
103.027
102.228
101.625
101.173
100.839
100.594
100.416
100.289
100.199
100.135
100.091
100.061
100.04
100.026
100.017
100.011
100.007
100.004
100.003
100.002
100.001
100.001
100
100
100
100
100
100
100
100
100
100
100
100
100
100
100
100
100
100
100
100
100
100
100
100
100
100
100
100
100
387.397
362.331
337.679
313.704
290.643
268.708
248.074
228.877
211.215
195.143
180.68
167.807
156.476
146.61
138.115
130.88
124.784
119.706
115.519
112.107
109.354
107.158
105.425
104.072
103.027
102.228
101.625
101.173
100.839
100.594
100.416
100.289
100.199
100.135
100.091
100.061
100.04
100.026
100.017
100.011
100.007
100.004
100.003
100.002
100.001
100.001
100
100
100
100
100
100
100
100
100
100
100
100
100
100
100
100
100
100
100
100
100
100
100
100
100
100
100
100
100
387.397
362.331
337.679
313.704
290.643
268.708
248.074
228.877
211.215
195.143
180.68
167.807
156.476
146.61
138.115
130.88
124.784
119.706
115.519
112.107
109.354
107.158
105.425
104.072
103.027
102.228
101.625
101.173
100.839
100.594
100.416
100.289
100.199
100.135
100.091
100.061
100.04
100.026
100.017
100.011
100.007
100.004
100.003
100.002
100.001
100.001
100
100
100
100
100
100
100
100
100
100
100
100
100
100
100
100
100
100
100
100
100
100
100
100
100
100
100
100
100
387.397
362.331
337.679
313.704
290.643
268.708
248.074
228.877
211.215
195.143
180.68
167.807
156.476
146.61
138.115
130.88
124.784
119.706
115.519
112.107
109.354
107.158
105.425
104.072
103.027
102.228
101.625
101.173
100.839
100.594
100.416
100.289
100.199
100.135
100.091
100.061
100.04
100.026
100.017
100.011
100.007
100.004
100.003
100.002
100.001
100.001
100
100
100
100
100
100
100
100
100
100
100
100
100
100
100
100
100
100
100
100
100
100
100
100
100
100
100
100
100
387.397
362.331
337.679
313.704
290.643
268.708
248.074
228.877
211.215
195.143
180.68
167.807
156.476
146.61
138.115
130.88
124.784
119.706
115.519
112.107
109.354
107.158
105.425
104.072
103.027
102.228
101.625
101.173
100.839
100.594
100.416
100.289
100.199
100.135
100.091
100.061
100.04
100.026
100.017
100.011
100.007
100.004
100.003
100.002
100.001
100.001
100
100
100
100
100
100
100
100
100
100
100
100
100
100
100
100
100
100
100
100
100
100
100
100
100
100
100
100
100
387.397
362.331
337.679
313.704
290.643
268.708
248.074
228.877
211.215
195.143
180.68
167.807
156.476
146.61
138.115
130.88
124.784
119.706
115.519
112.107
109.354
107.158
105.425
104.072
103.027
102.228
101.625
101.173
100.839
100.594
100.416
100.289
100.199
100.135
100.091
100.061
100.04
100.026
100.017
100.011
100.007
100.004
100.003
100.002
100.001
100.001
100
100
100
100
100
100
100
100
100
100
100
100
100
100
100
100
100
100
100
100
100
100
100
100
100
100
100
100
100
387.397
362.331
337.679
313.704
290.643
268.708
248.074
228.877
211.215
195.143
180.68
167.807
156.476
146.61
138.115
130.88
124.784
119.706
115.519
112.107
109.354
107.158
105.425
104.072
103.027
102.228
101.625
101.173
100.839
100.594
100.416
100.289
100.199
100.135
100.091
100.061
100.04
100.026
100.017
100.011
100.007
100.004
100.003
100.002
100.001
100.001
100
100
100
100
100
100
100
100
100
100
100
100
100
100
100
100
100
100
100
100
100
100
100
100
100
100
100
100
100
387.397
362.331
337.679
313.704
290.643
268.708
248.074
228.877
211.215
195.143
180.68
167.807
156.476
146.61
138.115
130.88
124.784
119.706
115.519
112.107
109.354
107.158
105.425
104.072
103.027
102.228
101.625
101.173
100.839
100.594
100.416
100.289
100.199
100.135
100.091
100.061
100.04
100.026
100.017
100.011
100.007
100.004
100.003
100.002
100.001
100.001
100
100
100
100
100
100
100
100
100
100
100
100
100
100
100
100
100
100
100
100
100
100
100
100
100
100
100
100
100
387.397
362.331
337.679
313.704
290.643
268.708
248.074
228.877
211.215
195.143
180.68
167.807
156.476
146.61
138.115
130.88
124.784
119.706
115.519
112.107
109.354
107.158
105.425
104.072
103.027
102.228
101.625
101.173
100.839
100.594
100.416
100.289
100.199
100.135
100.091
100.061
100.04
100.026
100.017
100.011
100.007
100.004
100.003
100.002
100.001
100.001
100
100
100
100
100
100
100
100
100
100
100
100
100
100
100
100
100
100
100
100
100
100
100
100
100
100
100
100
100
387.397
362.331
337.679
313.704
290.643
268.708
248.074
228.877
211.215
195.143
180.68
167.807
156.476
146.61
138.115
130.88
124.784
119.706
115.519
112.107
109.354
107.158
105.425
104.072
103.027
102.228
101.625
101.173
100.839
100.594
100.416
100.289
100.199
100.135
100.091
100.061
100.04
100.026
100.017
100.011
100.007
100.004
100.003
100.002
100.001
100.001
100
100
100
100
100
100
100
100
100
100
100
100
100
100
100
100
100
100
100
100
100
100
100
100
100
100
100
100
100
387.397
362.331
337.679
313.704
290.643
268.708
248.074
228.877
211.215
195.143
180.68
167.807
156.476
146.61
138.115
130.88
124.784
119.706
115.519
112.107
109.354
107.158
105.425
104.072
103.027
102.228
101.625
101.173
100.839
100.594
100.416
100.289
100.199
100.135
100.091
100.061
100.04
100.026
100.017
100.011
100.007
100.004
100.003
100.002
100.001
100.001
100
100
100
100
100
100
100
100
100
100
100
100
100
100
100
100
100
100
100
100
100
100
100
100
100
100
100
100
100
387.397
362.331
337.679
313.704
290.643
268.708
248.074
228.877
211.215
195.143
180.68
167.807
156.476
146.61
138.115
130.88
124.784
119.706
115.519
112.107
109.354
107.158
105.425
104.072
103.027
102.228
101.625
101.173
100.839
100.594
100.416
100.289
100.199
100.135
100.091
100.061
100.04
100.026
100.017
100.011
100.007
100.004
100.003
100.002
100.001
100.001
100
100
100
100
100
100
100
100
100
100
100
100
100
100
100
100
100
100
100
100
100
100
100
100
100
100
100
100
100
387.397
362.331
337.679
313.704
290.643
268.708
248.074
228.877
211.215
195.143
180.68
167.807
156.476
146.61
138.115
130.88
124.784
119.706
115.519
112.107
109.354
107.158
105.425
104.072
103.027
102.228
101.625
101.173
100.839
100.594
100.416
100.289
100.199
100.135
100.091
100.061
100.04
100.026
100.017
100.011
100.007
100.004
100.003
100.002
100.001
100.001
100
100
100
100
100
100
100
100
100
100
100
100
100
100
100
100
100
100
100
100
100
100
100
100
100
100
100
100
100
387.397
362.331
337.679
313.704
290.643
268.708
248.074
228.877
211.215
195.143
180.68
167.807
156.476
146.61
138.115
130.88
124.784
119.706
115.519
112.107
109.354
107.158
105.425
104.072
103.027
102.228
101.625
101.173
100.839
100.594
100.416
100.289
100.199
100.135
100.091
100.061
100.04
100.026
100.017
100.011
100.007
100.004
100.003
100.002
100.001
100.001
100
100
100
100
100
100
100
100
100
100
100
100
100
100
100
100
100
100
100
100
100
100
100
100
100
100
100
100
100
387.397
362.331
337.679
313.704
290.643
268.708
248.074
228.877
211.215
195.143
180.68
167.807
156.476
146.61
138.115
130.88
124.784
119.706
115.519
112.107
109.354
107.158
105.425
104.072
103.027
102.228
101.625
101.173
100.839
100.594
100.416
100.289
100.199
100.135
100.091
100.061
100.04
100.026
100.017
100.011
100.007
100.004
100.003
100.002
100.001
100.001
100
100
100
100
100
100
100
100
100
100
100
100
100
100
100
100
100
100
100
100
100
100
100
100
100
100
100
100
100
387.397
362.331
337.679
313.704
290.643
268.708
248.074
228.877
211.215
195.143
180.68
167.807
156.476
146.61
138.115
130.88
124.784
119.706
115.519
112.107
109.354
107.158
105.425
104.072
103.027
102.228
101.625
101.173
100.839
100.594
100.416
100.289
100.199
100.135
100.091
100.061
100.04
100.026
100.017
100.011
100.007
100.004
100.003
100.002
100.001
100.001
100
100
100
100
100
100
100
100
100
100
100
100
100
100
100
100
100
100
100
100
100
100
100
100
100
100
100
100
100
387.397
362.331
337.679
313.704
290.643
268.708
248.074
228.877
211.215
195.143
180.68
167.807
156.476
146.61
138.115
130.88
124.784
119.706
115.519
112.107
109.354
107.158
105.425
104.072
103.027
102.228
101.625
101.173
100.839
100.594
100.416
100.289
100.199
100.135
100.091
100.061
100.04
100.026
100.017
100.011
100.007
100.004
100.003
100.002
100.001
100.001
100
100
100
100
100
100
100
100
100
100
100
100
100
100
100
100
100
100
100
100
100
100
100
100
100
100
100
100
100
387.397
362.331
337.679
313.704
290.643
268.708
248.074
228.877
211.215
195.143
180.68
167.807
156.476
146.61
138.115
130.88
124.784
119.706
115.519
112.107
109.354
107.158
105.425
104.072
103.027
102.228
101.625
101.173
100.839
100.594
100.416
100.289
100.199
100.135
100.091
100.061
100.04
100.026
100.017
100.011
100.007
100.004
100.003
100.002
100.001
100.001
100
100
100
100
100
100
100
100
100
100
100
100
100
100
100
100
100
100
100
100
100
100
100
100
100
100
100
100
100
387.397
362.331
337.679
313.704
290.643
268.708
248.074
228.877
211.215
195.143
180.68
167.807
156.476
146.61
138.115
130.88
124.784
119.706
115.519
112.107
109.354
107.158