/*--------------------------------*- C++ -*----------------------------------*\
  =========                 |
  \\      /  F ield         | OpenFOAM: The Open Source CFD Toolbox
   \\    /   O peration     | Website:  https://openfoam.org
    \\  /    A nd           | Version:  10
     \\/     M anipulation  |
\*---------------------------------------------------------------------------*/
FoamFile
{
    format      ascii;
    class       volScalarField;
    location    "1850";
    object      gradTx;
}
// * * * * * * * * * * * * * * * * * * * * * * * * * * * * * * * * * * * * * //

dimensions      [0 -1 0 1 0 0 0];

internalField   nonuniform List<scalar> 
11250
(
14319.6
8163.16
5408.1
3962.93
3100.86
2534.41
2134.8
1837.62
1607.61
1423.95
1273.61
1148.04
1041.39
949.529
869.459
798.957
736.336
680.292
629.806
584.065
542.416
504.328
469.364
437.159
407.411
379.862
354.294
330.52
308.377
287.725
268.441
250.416
233.556
217.773
202.993
189.146
176.169
164.007
152.606
141.92
131.905
122.521
113.728
105.493
97.7826
90.5655
83.8129
77.4974
71.5931
66.0755
60.9214
56.1086
51.616
47.4237
43.5123
39.8637
36.4602
33.2852
30.3224
27.5564
24.9725
22.5562
20.2937
18.1719
16.1777
14.2988
12.523
10.8387
9.23428
7.69863
6.22076
4.78991
3.39547
2.02694
0.673923
4115.42
4761.76
4098.26
3379.9
2805.34
2367.69
2032.49
1770.61
1561.42
1390.81
1249.05
1129.35
1026.84
937.985
860.155
791.354
730.048
675.036
625.372
580.293
539.185
501.541
466.946
435.051
405.565
378.238
352.86
329.249
307.247
286.718
267.541
249.611
232.833
217.124
202.408
188.618
175.693
163.576
152.217
141.568
131.586
122.231
113.466
105.255
97.5662
90.369
83.6345
77.3354
71.446
65.942
60.8002
55.9986
51.5163
47.3333
43.4305
39.7896
36.3933
33.2247
30.2679
27.5074
24.9284
22.5167
20.2585
18.1406
16.1501
14.2745
12.5019
10.8205
9.21885
7.68581
6.21044
4.78198
3.38986
2.02359
0.672813
1495.73
2670.21
2843.35
2653.14
2372.98
2098.65
1856.98
1651.04
1476.84
1329.01
1202.64
1093.67
998.862
915.669
842.087
776.534
717.753
664.734
616.663
572.872
532.817
496.043
462.171
430.884
401.911
375.021
350.017
326.728
305.006
284.72
265.755
248.011
231.396
215.832
201.245
187.569
174.746
162.72
151.442
140.866
130.95
121.654
112.942
104.78
97.1352
89.9777
83.2791
77.0126
71.1529
65.6759
60.5587
55.7795
51.3175
47.1531
43.2673
39.6419
36.2597
33.1041
30.1592
27.4096
24.8406
22.4381
20.1884
18.0782
16.0949
14.2261
12.4597
10.7842
9.18805
7.66024
6.18984
4.76617
3.37867
2.01692
0.670596
693.043
1580.04
1951.86
2016.38
1934.9
1797.05
1645.86
1499.9
1366.04
1245.93
1139.03
1044.05
959.507
883.99
816.252
755.219
699.985
649.785
603.982
562.036
523.496
487.977
455.154
424.749
396.524
370.273
345.817
323.001
301.689
281.759
263.107
245.637
229.265
213.914
199.517
186.01
173.337
161.446
150.289
139.822
130.003
120.796
112.163
104.073
96.493
89.3944
82.7493
76.5315
70.7159
65.2791
60.1984
55.4525
51.021
46.8843
43.0237
39.4215
36.0605
32.9242
29.997
27.2636
24.7095
22.3207
20.0836
17.9851
16.0126
14.1538
12.3968
10.73
9.14207
7.62205
6.15908
4.74255
3.36196
2.00696
0.667286
389.455
1005.07
1367.71
1525.69
1553.29
1508.89
1429.66
1336.82
1241.67
1149.81
1063.71
984.215
911.358
844.782
783.974
728.381
677.468
630.74
587.752
548.114
511.479
477.549
446.059
416.781
389.515
364.084
340.334
318.129
297.347
277.88
259.634
242.521
226.464
211.393
197.244
183.958
171.483
159.768
148.77
138.445
128.755
119.663
111.135
103.139
95.6447
88.6238
82.0492
75.8954
70.1382
64.7543
59.722
55.0201
50.6287
46.5286
42.7015
39.1298
35.7967
32.686
29.7822
27.0703
24.5359
22.1652
19.9448
17.8618
15.9036
14.058
12.3134
10.6581
9.08114
7.57145
6.11833
4.71125
3.33981
1.99376
0.6629
249.172
683.106
988.275
1165.44
1243.77
1255.69
1227.18
1176.18
1114.18
1048.11
981.977
917.958
857.161
800.053
746.742
697.138
651.053
608.25
568.482
531.503
497.085
465.012
435.091
407.146
381.019
356.566
333.661
312.189
292.046
273.139
255.383
238.703
223.029
208.298
194.451
181.435
169.2
157.702
146.898
136.747
127.215
118.265
109.865
101.986
94.5969
87.6717
81.184
75.1091
69.4237
64.1053
59.1325
54.4849
50.1431
46.0882
42.3025
38.7685
35.47
32.3909
29.5161
26.8308
24.3208
21.9726
19.7729
17.7089
15.7684
13.9393
12.2099
10.5691
9.00559
7.5087
6.06779
4.67243
3.31235
1.97739
0.65746
173.31
489.937
736.892
904.116
1000.73
1043.05
1047.3
1026.7
990.928
946.672
898.327
848.697
799.506
751.772
706.061
662.65
621.639
583.022
546.726
512.649
480.667
450.654
422.485
396.036
371.194
347.851
325.909
305.274
285.864
267.6
250.411
234.232
219.001
204.664
191.169
178.467
166.514
155.268
144.691
134.745
125.397
116.614
108.365
100.623
93.3579
86.5453
80.1599
74.1782
68.5776
63.3364
58.434
53.8506
49.5674
45.5661
41.8292
38.34
35.0823
32.0407
29.2002
26.5464
24.0654
21.7438
19.5686
17.5273
15.6078
13.7982
12.0871
10.4632
8.91583
7.43415
6.00773
4.6263
3.27971
1.95793
0.650994
127.453
366.47
565.289
713.465
812.085
868.582
892.408
892.519
876.326
849.499
816.162
779.211
740.622
701.713
663.337
626.032
590.116
555.765
523.057
492.011
462.601
434.782
408.491
383.659
360.214
338.084
317.198
297.487
278.887
261.338
244.78
229.16
214.427
200.533
187.433
175.085
163.45
152.49
142.169
132.456
123.317
114.724
106.647
99.0602
91.937
85.2529
78.9846
73.1093
67.6056
62.4528
57.6311
53.1213
48.9053
44.9653
41.2846
37.8467
34.636
31.6375
28.8364
26.2188
23.7711
21.4801
19.3332
17.318
15.4227
13.6355
11.9454
10.3412
8.81231
7.34816
5.93847
4.5731
3.24207
1.93549
0.643537
97.4934
283.231
444.381
572.44
665.649
726.894
761.357
774.792
772.521
759.016
737.808
711.574
682.286
651.361
619.799
588.292
557.307
527.155
498.029
470.045
443.264
417.707
393.37
370.232
348.261
327.417
307.658
288.937
271.211
254.433
238.559
223.548
209.357
195.947
183.281
171.322
160.037
149.392
139.356
129.899
120.993
112.61
104.724
97.3106
90.3449
83.8041
77.6662
71.9098
66.5145
61.4605
56.729
52.3016
48.1609
44.2897
40.6719
37.2917
34.1338
31.1835
28.4268
25.8499
23.4396
21.1831
19.068
17.0822
15.214
13.4522
11.7857
10.2036
8.69559
7.2512
5.86036
4.5131
3.19962
1.91017
0.635126
76.7934
224.609
356.612
466.332
551.267
612.093
651.462
672.913
680.112
676.414
664.673
647.203
625.813
601.887
576.46
550.294
523.945
497.806
472.156
447.184
423.017
399.734
377.379
355.972
335.519
316.008
297.423
279.74
262.932
246.969
231.822
217.458
203.846
190.955
178.755
167.215
156.307
146.003
136.275
127.097
118.443
110.289
102.611
95.3868
88.5932
82.2092
76.2141
70.5879
65.3114
60.366
55.7335
51.3967
47.3388
43.5434
39.9949
36.6781
33.5784
30.6815
27.9737
25.4417
23.0728
20.8543
18.7743
16.821
14.9829
13.2491
11.6087
10.0512
8.56625
7.14375
5.77379
4.44661
3.15256
1.88212
0.625804
61.8745
181.828
291.176
385.079
461.08
518.855
559.608
585.429
598.759
602.031
597.462
586.959
572.099
554.15
534.108
512.744
490.645
468.254
445.899
423.823
402.199
381.151
360.763
341.091
322.167
304.01
286.625
270.008
254.149
239.033
224.642
210.955
197.951
185.606
173.898
162.802
152.294
142.352
132.952
124.071
115.688
107.779
100.324
93.3031
86.6946
80.4793
74.6381
69.1525
64.0044
59.1762
54.651
50.4123
46.444
42.7308
39.2575
36.0096
32.973
30.1341
27.4795
24.9965
22.6725
20.4955
18.4538
16.5358
14.7306
13.0274
11.4155
9.88472
8.42497
7.02636
5.67921
4.37395
3.10115
1.85146
0.615617
50.761
149.682
241.234
321.793
389.206
442.742
482.809
510.576
527.621
535.662
536.374
531.277
521.695
508.741
493.326
476.188
457.909
438.947
419.656
400.31
381.114
362.223
343.753
325.786
308.38
291.575
275.396
259.857
244.962
230.71
217.095
204.106
191.73
179.951
168.754
158.121
148.032
138.47
129.414
120.847
112.748
105.099
97.8802
91.0741
84.6621
78.6262
72.9488
67.6129
62.6017
57.8987
53.488
49.3541
45.4819
41.8566
38.4639
35.29
32.3212
29.5445
26.9471
24.5166
22.241
20.1086
18.108
16.2282
14.4584
12.788
11.2069
9.70499
8.27243
6.89962
5.57708
4.29549
3.04562
1.81835
0.604615
42.2585
124.932
202.332
271.721
331.292
380.202
418.433
446.583
465.642
476.797
481.282
480.283
474.881
466.022
454.513
441.029
426.123
410.246
393.757
376.942
360.027
343.186
326.557
310.241
294.317
278.843
263.859
249.394
235.465
222.084
209.254
196.974
185.239
174.04
163.369
153.212
143.556
134.387
125.689
117.447
109.645
102.267
95.2958
88.7153
82.5095
76.6621
71.1571
65.9789
61.112
56.5412
52.2516
48.2286
44.4581
40.926
37.6188
34.5232
31.6264
28.9158
26.3792
24.0046
21.7805
19.6956
17.7389
15.8997
14.1676
12.5324
10.9841
9.51291
8.1094
6.76414
5.4679
4.21161
2.98626
1.78295
0.592852
35.609
105.484
171.488
231.531
284.125
328.443
364.256
391.817
411.721
424.77
431.858
433.893
431.738
426.18
417.915
407.543
395.574
382.431
368.467
353.967
339.164
324.245
309.359
294.622
280.127
265.945
252.13
238.722
225.751
213.236
201.191
189.623
178.534
167.923
157.785
148.114
138.9
130.134
121.804
113.898
106.403
99.3041
92.5887
86.2424
80.2508
74.5995
69.2742
64.2606
59.5444
55.1119
50.949
47.0422
43.3783
39.944
36.7266
33.7134
30.8924
28.2514
25.7788
23.4631
21.2933
19.2586
17.3482
15.552
13.8597
12.2616
10.748
9.30942
7.93666
6.62057
5.3522
4.1227
2.92333
1.74543
0.580383
30.3118
89.934
146.654
198.852
245.317
285.29
318.448
344.842
364.807
378.87
387.67
391.89
392.209
389.27
383.661
375.904
366.456
355.708
343.991
331.583
318.714
305.574
292.318
279.074
265.94
253
240.315
227.937
215.903
204.242
192.975
182.115
171.671
161.648
152.047
142.866
134.1
125.743
117.788
110.223
103.041
96.2294
89.7768
83.6712
77.9003
72.4513
67.3115
62.4681
57.9081
53.6189
49.5876
45.8016
42.2485
38.9161
35.7922
32.865
30.123
27.5547
25.149
22.895
20.782
18.7997
16.9379
15.1866
13.5362
11.977
10.4998
9.09549
7.75502
6.46959
5.23051
4.02919
2.85715
1.70596
0.567266
26.0252
77.314
126.385
171.971
213.082
249.049
279.519
304.428
323.942
338.397
348.241
353.981
356.145
355.251
351.787
346.201
338.895
330.219
320.481
309.941
298.823
287.314
275.57
263.721
251.872
240.112
228.511
217.126
206.001
195.173
184.668
174.505
164.7
155.262
146.197
137.506
129.189
121.244
113.666
106.448
99.583
93.0627
86.8776
81.0175
75.4721
70.2301
65.2805
60.6118
56.2124
52.0706
48.1748
44.5134
41.0748
37.8476
34.8205
31.9823
29.3222
26.8292
24.4929
22.3029
20.249
18.3213
16.5099
14.8055
13.1986
11.68
10.2408
8.87212
7.56534
6.31191
5.1034
3.93151
2.788
1.66472
0.553562
22.5093
66.9386
109.645
149.627
186.072
218.401
246.266
269.54
288.282
302.697
313.091
319.838
323.343
324.018
322.264
318.46
312.952
306.054
298.041
289.156
279.61
269.581
259.224
248.668
238.021
227.374
216.802
206.366
196.116
186.094
176.329
166.849
157.67
148.808
140.272
132.068
124.199
116.665
109.465
102.594
96.0494
89.8231
83.9083
78.2969
72.9802
67.9487
63.1927
58.702
54.4665
50.4754
46.7183
43.1844
39.8632
36.7441
33.8164
31.0697
28.4938
26.0785
23.8138
21.6898
19.6969
17.8255
16.0663
14.4103
12.8484
11.3719
9.97199
8.64032
7.36848
6.14823
4.97144
3.83009
2.71621
1.6219
0.539332
19.5916
58.312
95.6755
130.879
163.257
192.311
217.714
239.311
257.093
271.175
281.762
289.124
293.57
295.425
295.016
292.657
288.647
283.258
276.737
269.305
261.157
252.463
243.369
234.002
224.47
214.864
205.261
195.726
186.312
177.062
168.013
159.194
150.626
142.328
134.312
126.587
119.16
112.034
105.21
98.6864
92.4609
86.5291
80.8858
75.5246
70.4384
65.6194
61.0591
56.7489
52.6795
48.8415
45.2254
41.8215
38.6199
35.6109
32.7848
30.1317
27.642
25.3062
23.1148
21.0585
19.1281
17.3146
15.6091
14.0029
12.4873
11.054
9.69468
8.40112
7.16529
5.97927
4.83521
3.72537
2.64207
1.57769
0.524638
17.1455
51.068
83.9081
115.017
143.844
169.963
193.077
213.02
229.744
243.302
253.826
261.51
266.585
269.306
269.936
268.737
265.961
261.844
256.603
250.438
243.525
236.024
228.072
219.791
211.286
202.647
193.952
185.265
176.643
168.131
159.768
151.585
143.608
135.858
128.349
121.094
114.102
107.378
100.925
94.7452
88.8371
83.1986
77.8263
72.7153
67.8601
63.2543
58.8909
54.7622
50.8604
47.177
43.7035
40.4311
37.3508
34.4536
31.7306
29.1726
26.7707
24.5158
22.3992
20.4119
18.5454
16.791
15.1403
13.585
12.1169
10.7279
9.41005
8.15555
6.95666
5.80576
4.69529
3.61781
2.56592
1.53227
0.509542
15.0761
44.9316
73.914
101.494
127.215
150.712
171.719
190.072
205.699
218.614
228.897
236.683
242.145
245.48
246.901
246.621
244.852
241.798
237.648
232.578
226.751
220.309
213.384
206.088
198.523
190.777
182.925
175.033
167.157
159.345
151.635
144.062
136.654
129.432
122.416
115.618
109.05
102.72
96.6328
90.7913
85.1968
79.8487
74.7452
69.883
65.258
60.8651
56.6985
52.7518
49.018
45.4899
42.1598
39.0197
36.0617
33.2774
30.6586
28.1968
25.8837
23.7108
21.67
19.7528
17.9511
16.2569
14.6619
13.1585
11.7387
10.3948
9.11929
7.90465
6.74346
5.62841
4.55227
3.50785
2.48806
1.48583
0.494107
13.3115
39.6932
65.3634
89.8869
112.883
134.039
153.12
169.967
184.5
196.705
206.626
214.354
220.018
223.769
225.776
226.214
225.26
223.087
219.859
215.733
210.851
205.347
199.338
192.932
186.223
179.297
172.225
165.073
157.896
150.742
143.652
136.66
129.796
123.083
116.541
110.186
104.03
98.0837
92.3533
86.8436
81.5573
76.4954
71.6573
67.0413
62.6445
58.463
54.4921
50.7267
47.1607
43.7877
40.6011
37.5938
34.7584
32.0875
29.5734
27.2085
24.9848
22.8947
20.9304
19.084
17.3479
15.7144
14.176
12.725
11.3542
10.0561
8.82359
7.64942
6.52655
5.44795
4.40671
3.39594
2.40881
1.43855
0.478395
11.7961
35.1903
57.9996
79.8633
100.462
119.528
136.855
152.294
165.761
177.225
186.705
194.262
199.987
203.997
206.426
207.415
207.112
205.664
203.211
199.891
195.831
191.15
185.956
180.349
174.416
168.238
161.884
155.418
148.893
142.357
135.851
129.409
123.062
116.835
110.749
104.82
99.0632
93.4891
88.1059
82.9198
77.9349
73.1535
68.5762
64.2026
60.0309
56.0584
52.2814
48.6958
45.2964
42.0779
39.0343
36.1593
33.4464
30.8889
28.4797
26.2118
24.0779
22.0708
20.1834
18.4082
16.7381
15.1659
13.6843
12.2864
10.965
9.71321
8.52411
7.39088
6.30677
5.26508
4.25918
3.28249
2.32848
1.39063
0.462465
10.4865
31.2957
51.6203
71.1592
89.6431
106.843
122.576
136.707
149.151
159.869
168.862
176.167
181.849
185.996
188.714
190.119
190.33
189.472
187.667
185.032
181.682
177.721
173.249
168.354
163.121
157.624
151.928
146.094
140.175
134.215
128.257
122.335
116.479
110.714
105.063
99.543
94.1697
88.9548
83.9079
79.036
74.3445
69.8368
65.5147
61.3787
57.4281
53.6613
50.0755
46.6674
43.4328
40.3673
37.4655
34.722
32.131
29.6864
27.3817
25.2106
23.1664
21.2424
19.4319
17.7281
16.1241
14.6134
13.189
11.8443
10.5726
9.36736
8.22199
7.13
6.08496
5.08049
4.11025
3.16795
2.24735
1.34223
0.446379
9.34847
27.9088
46.0645
63.5631
80.1761
95.7068
109.994
122.917
134.393
144.376
152.857
159.856
165.418
169.609
172.512
174.219
174.831
174.45
173.181
171.127
168.386
165.052
161.215
156.956
152.352
147.471
142.375
137.122
131.762
126.339
120.894
115.459
110.065
104.739
99.5019
94.3727
89.3669
84.4975
79.7747
75.2067
70.7997
66.558
62.4844
58.5803
54.8461
51.2808
47.8828
44.6493
41.5771
38.6625
35.9008
33.2875
30.8172
28.4845
26.2836
24.2087
22.2538
20.4125
18.6787
17.0461
15.5082
14.0589
12.6917
11.4003
10.1784
9.01982
7.91832
6.86772
5.86192
4.89483
3.96044
3.05272
2.16574
1.29353
0.430194
8.35443
24.9486
41.2029
56.904
71.8576
85.8939
98.8722
110.683
121.247
130.519
138.481
145.14
150.527
154.691
157.695
159.615
160.531
160.532
159.704
158.138
155.918
153.129
149.85
146.154
142.112
137.787
133.238
128.517
123.672
118.746
113.777
108.799
103.84
98.9278
94.0831
89.3253
84.6703
80.1316
75.7202
71.4449
67.3126
63.3284
59.4959
55.8175
52.2941
48.9256
45.7111
42.6487
39.736
36.9696
34.3459
31.8608
29.5096
27.2875
25.1894
23.2098
21.3433
19.5841
17.9265
16.3646
14.8926
13.5044
12.1942
10.9559
9.7838
8.67182
7.61416
6.60496
5.63842
4.70877
3.81027
2.93721
2.08391
1.24471
0.413965
7.48226
22.35
36.9304
51.0426
64.5203
77.217
89.0091
99.7981
109.512
118.103
125.549
131.849
137.023
141.106
144.147
146.206
147.35
147.651
147.184
146.025
144.249
141.931
139.139
135.942
132.402
128.577
124.522
120.286
115.914
111.447
106.921
102.368
97.8174
93.2941
88.8201
84.4143
80.093
75.8699
71.7565
67.762
63.894
60.1582
56.5589
53.099
49.7803
46.6033
43.5677
40.6724
37.9155
35.2943
32.8059
30.4467
28.2127
26.0995
24.1026
22.2171
20.438
18.76
17.1778
15.6861
14.2792
12.9518
11.6982
10.5128
9.39009
8.32452
7.31053
6.34259
5.41521
4.52291
3.66025
2.82179
2.00215
1.19592
0.397747
6.71391
20.0595
33.1611
45.8642
58.0262
69.5202
80.2377
90.0907
99.0123
106.957
113.899
119.833
124.769
128.732
131.76
133.901
135.208
135.742
135.566
134.746
133.347
131.433
129.067
126.308
123.214
119.839
116.23
112.436
108.497
104.452
100.335
96.1778
92.0078
87.8495
83.7243
79.6511
75.6461
71.7231
67.8939
64.168
60.5535
57.0565
53.6818
50.433
47.3123
44.3209
41.4591
38.7264
36.1213
33.6419
31.2857
29.0498
26.9306
24.9243
23.0269
21.2339
19.5408
17.9428
16.4351
15.0125
13.6702
12.4028
11.2052
10.0722
8.99853
7.97901
7.00838
6.08144
5.19299
4.33784
3.51084
2.70683
1.9207
1.14732
0.381591
6.03454
18.0335
29.8241
41.2739
52.2604
62.6731
72.4168
81.4129
89.6003
96.9353
103.392
108.959
113.642
117.458
120.435
122.61
124.028
124.74
124.797
124.257
123.175
121.608
119.611
117.238
114.541
111.566
108.361
104.966
101.422
97.7647
94.0259
90.2353
86.4197
82.6025
78.8048
75.0449
71.3388
67.7003
64.1412
60.6714
57.2992
54.031
50.8721
47.8265
44.8968
42.0848
39.3912
36.8161
34.3585
32.017
29.7897
27.674
25.667
23.7652
21.9652
20.2629
18.6543
17.1349
15.7004
14.346
13.0672
11.859
10.7168
9.63547
8.6103
7.63633
6.70863
5.82229
4.97242
4.15412
3.36249
2.59268
1.83982
1.09905
0.365544
5.43186
16.2355
26.8604
37.1928
47.1266
56.5658
65.4267
73.6391
81.1474
87.9105
93.902
99.1091
103.532
107.181
110.078
112.252
113.74
114.582
114.824
114.512
113.697
112.427
110.75
108.715
106.367
103.751
100.907
97.8753
94.6911
91.3881
87.9969
84.5454
81.0588
77.5598
74.0684
70.6027
67.1782
63.8087
60.5057
57.2794
54.1381
51.0885
48.1362
45.2856
42.5396
39.9004
37.3692
34.9464
32.6317
30.424
28.3218
26.3231
24.4253
22.6255
20.9206
19.307
17.781
16.3387
14.9759
13.6884
12.472
11.3221
10.2342
9.20388
8.22649
7.29744
6.41211
5.56588
4.75414
3.97226
3.21563
2.47965
1.75972
1.05125
0.349653
4.89562
14.6352
24.2208
33.5544
42.5439
51.1055
59.1655
66.6615
73.5429
79.7716
85.3215
90.1784
94.339
97.81
100.607
102.752
104.275
105.21
105.594
105.469
104.876
103.858
102.458
100.718
98.6795
96.3818
93.8628
91.1579
88.3004
85.3214
82.2493
79.1105
75.9287
72.7254
69.5201
66.33
63.1702
60.0541
56.9933
53.9978
51.0759
48.2346
45.4796
42.8155
40.2456
37.7724
35.3975
33.1217
30.9449
28.8666
26.8856
25.0004
23.2087
21.508
19.8957
18.3685
16.9231
15.556
14.2634
13.0414
11.8861
10.7933
9.75884
8.77855
7.84811
6.96325
6.11962
5.31289
4.53872
3.79275
3.07065
2.36805
1.68063
1.00405
0.33396
4.41724
13.207
21.8639
30.3027
38.4434
46.2129
53.5461
60.3873
66.691
72.4217
77.5544
82.0742
85.9755
89.2615
91.9431
94.0381
95.5698
96.5663
97.0594
97.0835
96.6748
95.8707
94.7087
93.2262
91.46
89.4455
87.217
84.8068
82.2455
79.5617
76.782
73.9308
71.0307
68.1019
65.163
62.2303
59.3187
56.441
53.6086
50.8312
48.1174
45.474
42.9069
40.4207
38.0193
35.7052
33.4802
31.3456
29.3017
27.3482
25.4843
23.7087
22.0198
20.4153
18.8928
17.4496
16.0827
14.7889
13.5647
12.4066
11.3109
10.274
9.2918
8.36051
7.4761
6.63458
5.83188
5.06394
4.32669
3.61604
2.9279
2.25816
1.60275
0.957557
0.318504
3.98944
11.9296
19.7545
27.3902
34.7668
41.8204
48.4935
54.7365
60.5082
65.7761
70.5164
74.714
78.3617
81.4604
84.0173
86.046
87.5653
88.5983
89.1715
89.3142
89.0575
88.4338
87.4761
86.2175
84.6905
82.9271
80.9581
78.8129
76.5196
74.1044
71.5919
69.005
66.3646
63.69
60.9985
58.3059
55.6264
52.9723
50.3547
47.7832
45.266
42.8102
40.4215
38.1049
35.864
33.7019
31.6206
29.6214
27.705
25.8715
24.1204
22.4507
20.861
19.3495
17.9141
16.5523
15.2615
14.0388
12.8812
11.7853
10.7478
9.76531
8.83415
7.95071
7.1113
6.31217
5.54954
4.81961
4.11856
3.44254
2.78771
2.15023
1.52624
0.911891
0.303321
3.60604
10.7845
17.8627
24.7762
31.464
37.8699
43.9431
49.6395
54.922
59.7606
64.1331
68.0245
71.4268
74.3388
76.7652
78.7162
80.2068
81.2558
81.8856
82.1209
81.9885
81.5164
80.7335
79.669
78.3519
76.8107
75.0731
73.1659
71.1146
68.9433
66.6747
64.33
61.9287
59.4888
57.0268
54.5576
52.0947
49.6499
47.234
44.8561
42.5245
40.246
38.0265
35.8708
33.7828
31.7655
29.8213
27.9517
26.1575
24.4392
22.7964
21.2285
19.7344
18.3126
16.9613
15.6782
14.4611
13.3074
12.2143
11.1788
10.1979
9.26832
8.38682
7.55001
6.75447
5.99672
5.27322
4.58042
3.91475
3.27261
2.6504
2.0445
1.45129
0.867145
0.288444
3.26178
9.756
16.1628
22.4259
28.4919
34.3112
39.839
45.036
49.8687
54.3099
58.3386
61.9404
65.1069
67.8353
70.1285
71.9938
73.4432
74.4922
75.1592
75.4653
75.4336
75.0882
74.4544
73.5579
72.4244
71.0795
69.548
67.8541
66.0211
64.0709
62.0245
59.9014
57.7197
55.4964
53.2468
50.985
48.7238
46.4746
44.2475
42.0516
39.8946
37.7834
35.7238
33.7205
31.7776
29.8981
28.0845
26.3385
24.6612
23.0531
21.5142
20.0441
18.6419
17.3064
16.036
14.8289
13.683
12.5959
11.5652
10.5882
9.6621
8.78392
7.95064
7.15916
6.40629
5.68881
5.00342
4.34682
3.71566
3.10659
2.51622
1.94116
1.37803
0.823409
0.273901
2.95212
8.83072
14.6329
20.3094
25.8132
31.1008
36.1325
40.8732
45.2927
49.3663
53.0746
56.4036
59.3448
61.8946
64.0541
65.8287
67.2277
68.2637
68.9522
69.3111
69.3599
69.1198
68.6127
67.8612
66.8882
65.7164
64.3682
62.8652
61.2287
59.4787
57.6344
55.7137
53.7336
51.7096
49.6563
47.5868
45.5131
43.4461
41.3956
39.3701
37.3772
35.4236
33.5148
31.6557
29.8501
28.1014
26.412
24.7837
23.2177
21.7149
20.2753
18.8988
17.5847
16.3321
15.1395
14.0055
12.9281
11.9054
10.935
10.0145
9.14135
8.3129
7.52635
6.77881
6.06736
5.38898
4.74063
4.11923
3.52166
2.94477
2.38541
1.84041
1.30659
0.780759
0.25972
2.67315
7.997
13.2539
18.4006
23.3958
28.201
32.7811
37.1047
41.1449
44.8789
48.2891
51.362
54.0893
56.4665
58.4937
60.1747
61.5167
62.5299
63.2272
63.6237
63.7362
63.5829
63.1831
62.5565
61.7235
60.7041
59.5185
58.1863
56.7265
55.1575
53.4967
51.7607
49.9651
48.1244
46.2521
44.3604
42.4608
40.5635
38.6777
36.8116
34.9726
33.167
31.4002
29.6771
28.0014
26.3765
24.8048
23.2883
21.8283
20.4258
19.081
17.7939
16.5642
15.3909
14.273
13.2091
12.1976
11.2367
10.3244
9.45834
8.63636
7.85595
7.11456
6.40954
5.73817
5.09769
4.48525
3.898
3.33303
2.78741
2.25819
1.74241
1.2371
0.739265
0.245923
2.42149
7.24476
12.0092
16.6769
21.2114
25.5787
29.7475
33.6901
37.382
40.8028
43.936
46.7692
49.2939
51.5057
53.4035
54.9898
56.2702
57.253
57.9489
58.3706
58.5325
58.4504
58.1409
57.6217
56.9104
56.0251
54.9837
53.8039
52.5028
51.0972
49.6029
48.0353
46.4085
44.736
43.0303
41.303
39.5646
37.8249
36.0925
34.3753
32.6802
31.0134
29.3801
27.785
26.2319
24.7239
23.2637
21.8532
20.4939
19.1867
17.9322
16.7304
15.5811
14.4836
13.4372
12.4405
11.4922
10.5907
9.7341
8.9205
8.14775
7.41363
6.71579
6.05181
5.41917
4.81532
4.23762
3.68343
3.15003
2.63472
2.13472
1.64729
1.16964
0.698986
0.232529
2.19419
6.56522
10.8845
15.1186
19.2354
23.2048
26.9991
30.5934
33.9657
37.0977
39.974
42.5833
44.9172
46.9711
48.7433
50.2353
51.4514
52.3982
53.0845
53.5212
53.7206
53.6962
53.4626
53.0353
52.4298
51.6622
50.7485
49.7046
48.5459
47.2876
45.9443
44.5297
43.0571
41.5388
39.9864
38.4106
36.8215
35.2279
33.6382
32.0597
30.4991
28.9622
27.4541
25.9793
24.5415
23.1439
21.789
20.4788
19.2148
17.9981
16.8294
15.7087
14.6361
13.611
12.6327
11.7003
10.8125
9.96785
9.16476
8.40145
7.67601
6.98639
6.33047
5.70601
5.1107
4.54219
3.99803
3.47577
2.9729
2.48688
2.01516
1.55517
1.10431
0.65997
0.219554
1.98865
5.95069
9.86715
13.7085
17.4464
21.0541
24.507
27.7829
30.8622
33.728
36.3665
38.7669
40.9215
42.8254
44.4767
45.8759
47.0262
47.9329
48.6034
49.0468
49.2737
49.2956
49.1254
48.7765
48.2628
47.5984
46.7976
45.8747
44.8437
43.7182
42.5114
41.2359
39.9039
38.5268
37.1152
35.6791
34.2277
32.7695
31.3122
29.8628
28.4276
27.0122
25.6213
24.2594
22.93
21.6363
20.3806
19.1651
17.9913
16.8604
15.7729
14.7293
13.7296
12.7733
11.8601
10.989
10.1589
9.36863
8.61672
7.90159
7.22149
6.57459
5.95892
5.37245
4.81305
4.27855
3.7667
3.27522
2.80179
2.34405
1.89963
1.46614
1.04116
0.622257
0.207013
1.80264
5.39443
8.94601
12.4313
15.8251
19.1039
22.2457
25.2306
28.041
30.6618
33.0803
35.2865
37.273
39.0351
40.5704
41.879
42.9632
43.8272
44.4771
44.9206
45.1665
45.2252
45.1076
44.8255
44.3911
43.8171
43.1161
42.3009
41.3841
40.378
39.2947
38.1456
36.9417
35.6936
34.4112
33.1035
31.7792
30.4462
29.1117
27.7823
26.4638
25.1617
23.8805
22.6242
21.3965
20.2004
19.0382
17.912
16.8233
15.7733
14.7629
13.7923
12.8617
11.9709
11.1195
10.3067
9.53168
8.79329
8.09027
7.42118
6.78448
6.17847
5.60139
5.05135
4.52643
4.0246
3.5438
3.08193
2.63684
2.20634
1.78823
1.38028
0.980245
0.585879
0.194915
1.63414
4.89051
8.11134
11.2735
14.3549
17.3343
20.1924
22.9114
25.4754
27.8707
30.0858
32.1116
33.9409
35.5693
36.9941
38.2151
39.2337
40.0533
40.679
41.1172
41.3755
41.4627
41.3884
41.163
40.7972
40.3021
39.6892
38.9697
38.1551
37.2565
36.2846
35.25
34.1629
33.0326
31.8684
30.6788
29.4716
28.2542
27.0334
25.8152
24.6053
23.4087
22.2298
21.0724
19.9399
18.8353
17.7609
16.7187
15.7103
14.7368
13.799
12.8975
12.0324
11.2037
10.4109
9.65362
8.93095
8.24196
7.58554
6.96039
6.36511
5.7982
5.25802
4.74287
4.25096
3.78046
3.32947
2.89602
2.47815
2.07382
1.68101
1.29763
0.921612
0.550859
0.183268
1.4814
4.43368
7.3545
10.2234
13.0207
15.7278
18.3272
20.803
23.1411
25.3291
27.3565
29.2148
30.8976
32.4002
33.7202
34.8568
35.8111
36.5856
37.1845
37.6132
37.8782
37.9871
37.9483
37.7707
37.464
37.0379
36.5025
35.8681
35.1448
34.3426
33.4714
32.5406
31.5595
30.5368
29.4809
28.3995
27.3001
26.1893
25.0735
23.9585
22.8494
21.7509
20.6673
19.6022
18.5588
17.5399
16.5479
15.5846
14.6516
13.7501
12.8809
12.0447
11.2415
10.4715
9.73436
9.02965
8.35669
7.71466
7.10256
6.51925
5.96346
5.43383
4.92889
4.44707
3.98674
3.54622
3.12376
2.71755
2.32577
1.94656
1.57802
1.21824
0.86528
0.517211
0.172077
1.34287
4.01928
6.66782
9.27038
11.8095
14.2685
16.6319
18.8856
21.0167
23.0141
24.8683
26.5715
28.1177
29.5025
30.7233
31.7793
32.6709
33.4002
33.9706
34.3865
34.6537
34.7786
34.7685
34.6312
34.3752
34.0093
33.5422
32.9833
32.3415
31.6259
30.8454
30.0086
29.1239
28.1992
27.2422
26.2601
25.2596
24.2471
23.2283
22.2087
21.193
20.1857
19.1908
18.2117
17.2514
16.3127
15.3978
14.5085
13.6464
12.8126
12.0081
11.2333
10.4886
9.77403
9.08949
8.43458
7.80875
7.21127
6.64126
6.09771
5.5795
5.08537
4.614
4.16397
3.73378
3.32189
2.9267
2.54654
2.17974
1.82457
1.47928
1.14211
0.811263
0.484944
0.161345
1.21715
3.64318
6.0445
8.40503
10.7092
12.9423
15.0905
17.1411
19.0826
20.905
22.5996
24.1593
25.5785
26.853
27.9804
28.9595
29.7906
30.4751
31.0159
31.4168
31.6825
31.8186
31.8314
31.7279
31.5155
31.2018
30.7949
30.3028
29.7337
29.0958
28.397
27.6452
26.8479
26.0125
25.1459
24.2547
23.3451
22.4229
21.4936
20.5621
19.6329
18.7103
17.7977
16.8987
16.016
15.1521
14.3093
13.4893
12.6936
11.9234
11.1796
10.4626
9.77301
9.11081
8.47594
7.86811
7.28686
6.73156
6.20146
5.69564
5.2131
4.75272
4.31329
3.89352
3.49204
3.10745
2.73828
2.38299
2.04005
1.70785
1.3848
1.06925
0.75956
0.454057
0.151072
1.10301
3.30168
5.47844
7.61898
9.7095
11.7369
13.6887
15.5537
17.3216
18.9832
20.5308
21.9578
23.2591
24.4307
25.4703
26.3765
27.1494
27.7901
28.3009
28.6848
28.946
29.0894
29.1204
29.045
28.8698
28.6016
28.2475
27.8146
27.3104
26.7421
26.1169
25.4418
24.7239
23.9696
23.1855
22.3774
21.5511
20.7121
19.8652
19.015
18.1658
17.3215
16.4854
15.6608
14.8502
14.0562
13.2807
12.5255
11.792
11.0814
10.3945
9.73198
9.09416
8.48124
7.89318
7.32978
6.79064
6.27523
5.78289
5.31281
4.8641
4.43573
4.02662
3.63561
3.26144
2.90283
2.55843
2.22685
1.90665
1.59638
1.29455
0.99965
0.710161
0.424545
0.141256
0.999341
2.99151
4.9642
6.90473
8.80081
10.6407
12.4135
14.1089
15.7178
17.2319
18.6442
19.9486
21.1406
22.2164
23.1736
24.011
24.7283
25.3263
25.8069
26.1728
26.4273
26.5747
26.6197
26.5676
26.4242
26.1954
25.8876
25.5072
25.0607
24.5547
23.9957
23.39
22.7439
22.0635
21.3545
20.6224
19.8725
19.1097
18.3386
17.5634
16.7881
16.0163
15.2511
14.4955
13.752
13.023
12.3103
11.6156
10.9402
10.2854
9.65189
9.04035
8.45118
7.88459
7.3406
6.81905
6.31962
5.84187
5.38521
4.94892
4.53221
4.13417
3.75382
3.39008
3.04185
2.70792
2.38708
2.07804
1.77949
1.4901
1.20848
0.93327
0.663046
0.396396
0.131893
0.90516
2.70969
4.49691
6.25554
7.97465
9.6438
11.2532
12.7936
14.257
15.6358
16.9236
18.1151
19.2058
20.1924
21.0726
21.845
22.5094
23.0663
23.5171
23.8641
24.1102
24.2589
24.3145
24.2816
24.1652
23.9706
23.7034
23.3693
22.9743
22.524
22.0245
21.4814
20.9004
20.287
19.6464
18.9837
18.3037
17.6108
16.9094
16.2033
15.4961
14.7913
14.0917
13.4001
12.719
12.0504
11.3961
10.7578
10.1367
9.53401
8.95045
8.3867
7.84316
7.32007
6.81748
6.3353
5.87327
5.431
5.00799
4.60361
4.21714
3.84778
3.49464
3.15674
2.83308
2.52256
2.22408
1.93645
1.65848
1.38893
1.12656
0.870072
0.618185
0.369592
0.122977
0.819574
2.45357
4.07219
5.66537
7.2234
8.73696
10.1973
11.5962
12.9264
14.1811
15.3545
16.4418
17.4389
18.3427
19.151
19.8625
20.4767
20.994
21.4156
21.7433
21.9796
22.1276
22.191
22.1737
22.0801
21.9151
21.6834
21.3903
21.041
20.6406
20.1945
19.7079
19.1858
18.6332
18.0549
17.4555
16.8393
16.2106
15.5731
14.9305
14.2862
13.6432
13.0043
12.372
11.7486
11.1361
10.5362
9.95035
9.37989
8.82582
8.28895
7.76989
7.26907
6.78675
6.32302
5.87782
5.45094
5.04206
4.65074
4.27644
3.91851
3.57623
3.24879
2.93533
2.63492
2.34658
2.06928
1.80196
1.54351
1.2928
1.04869
0.810001
0.57554
0.34411
0.114501
0.741785
2.22078
3.68608
5.12876
6.54015
7.91195
9.23633
10.506
11.7143
12.8553
13.9237
14.915
15.8256
16.6526
17.3939
18.0482
18.615
19.0945
19.4877
19.796
20.0217
20.1673
20.2359
20.2312
20.157
20.0174
19.8169
19.5599
19.2512
18.8954
18.4973
18.0615
17.5927
17.0952
16.5736
16.0319
15.4741
14.904
14.3252
13.741
13.1545
12.5685
11.9856
11.4082
10.8383
10.2778
9.72838
9.19139
8.66804
8.15931
7.666
7.18869
6.72783
6.28368
5.85636
5.44583
5.05195
4.67445
4.31294
3.96694
3.63589
3.31914
3.01596
2.72557
2.44714
2.17976
1.92251
1.6744
1.43445
1.2016
0.974807
0.752992
0.535065
0.319923
0.106455
0.671071
2.00914
3.33503
4.64079
5.91869
7.16133
8.36172
9.51334
10.6102
11.647
12.6189
13.5219
14.3527
15.1085
15.7875
16.3883
16.9105
17.3541
17.7198
18.0089
18.2232
18.365
18.437
18.4423
18.3844
18.2667
18.0934
17.8683