/*--------------------------------*- C++ -*----------------------------------*\
  =========                 |
  \\      /  F ield         | OpenFOAM: The Open Source CFD Toolbox
   \\    /   O peration     | Website:  https://openfoam.org
    \\  /    A nd           | Version:  10
     \\/     M anipulation  |
\*---------------------------------------------------------------------------*/
FoamFile
{
    format      ascii;
    class       volScalarField;
    location    "471";
    object      gradTz;
}
// * * * * * * * * * * * * * * * * * * * * * * * * * * * * * * * * * * * * * //

dimensions      [0 -1 0 1 0 0 0];

internalField   nonuniform List<scalar> 
11250
(
-14340.8
-4136.49
-1516.56
-713.51
-409.452
-268.596
-192.066
-145.454
-114.666
-93.0731
-77.2107
-65.1146
-55.6029
-47.9296
-41.6057
-36.3003
-31.7836
-27.8923
-24.5077
-21.5421
-18.9291
-16.6176
-14.5676
-12.7469
-11.1291
-9.69235
-8.4177
-7.28883
-6.29129
-5.41211
-4.63957
-3.96295
-3.37243
-2.85897
-2.41426
-2.03065
-1.70112
-1.41925
-1.17921
-0.97568
-0.803886
-0.659535
-0.538796
-0.438272
-0.354966
-0.286248
-0.22983
-0.183727
-0.146229
-0.115873
-0.0914154
-0.0718022
-0.0561482
-0.0437131
-0.0338814
-0.0261447
-0.0200853
-0.0153619
-0.0116972
-0.00886724
-0.00669222
-0.0050284
-0.00376164
-0.00280175
-0.00207791
-0.00153476
-0.00112933
-0.000828437
-0.000606657
-0.000444653
-0.000327881
-0.000245569
-0.000189942
-0.000155635
-0.000139287
-8226.68
-4824.91
-2732.64
-1641.39
-1065.02
-741.336
-546.163
-420.436
-334.712
-273.416
-227.807
-192.716
-164.941
-142.425
-123.798
-108.124
-94.7494
-83.2046
-73.1481
-64.3254
-56.5438
-49.6546
-43.5405
-38.1072
-33.2773
-28.986
-25.1776
-21.8039
-18.8219
-16.1932
-13.8829
-11.8591
-10.0927
-8.55657
-7.226
-6.07813
-5.09201
-4.24847
-3.53003
-2.92086
-2.40664
-1.97454
-1.61311
-1.31218
-1.06279
-0.857061
-0.688152
-0.550119
-0.437849
-0.346961
-0.273731
-0.215005
-0.168133
-0.130898
-0.101458
-0.0782913
-0.0601468
-0.0460026
-0.0350286
-0.0265543
-0.020041
-0.0150585
-0.011265
-0.00839051
-0.00622283
-0.00459626
-0.0033821
-0.00248101
-0.00181683
-0.00133166
-0.000981955
-0.000735449
-0.000568855
-0.00046611
-0.000417155
-5513.81
-4203.37
-2947.25
-2053.97
-1467.48
-1085.19
-830.469
-655.107
-530.066
-437.849
-367.709
-312.868
-268.936
-232.988
-203.034
-177.686
-155.957
-137.132
-120.686
-106.222
-93.4405
-82.106
-72.0333
-63.0723
-55.0991
-48.0093
-41.7134
-36.1328
-31.1979
-26.8458
-23.0196
-19.6669
-16.7397
-14.1936
-11.9878
-10.0845
-8.4491
-7.04999
-5.85823
-4.8476
-3.99442
-3.27743
-2.67765
-2.17823
-1.76431
-1.42285
-1.14247
-0.913343
-0.726968
-0.576083
-0.454507
-0.357007
-0.279184
-0.217361
-0.168479
-0.130011
-0.0998822
-0.0763951
-0.0581719
-0.0440993
-0.0332831
-0.0250088
-0.0187089
-0.0139351
-0.0103351
-0.00763374
-0.00561726
-0.0041207
-0.0030176
-0.0022118
-0.00163098
-0.00122156
-0.000944858
-0.000774209
-0.000692898
-4110.59
-3526.71
-2798.27
-2159.01
-1665.06
-1300.83
-1034.85
-838.947
-692.154
-579.838
-492.018
-421.896
-364.801
-317.486
-277.662
-243.69
-214.379
-188.854
-166.458
-146.695
-129.179
-113.611
-99.7482
-87.3957
-76.3899
-66.5924
-57.8835
-50.1578
-43.3211
-37.2884
-31.9818
-27.3299
-23.2667
-19.7314
-16.6675
-14.0232
-11.7507
-9.806
-8.14923
-6.74402
-5.55757
-4.56037
-3.72609
-3.03134
-2.45546
-1.98035
-1.59021
-1.27135
-1.01197
-0.801967
-0.632746
-0.49703
-0.388698
-0.302634
-0.234583
-0.181028
-0.13908
-0.106378
-0.0810052
-0.0614104
-0.0463493
-0.0348275
-0.0260547
-0.0194069
-0.0143936
-0.0106316
-0.00782337
-0.00573915
-0.00420286
-0.00308061
-0.00227167
-0.00170144
-0.00131606
-0.00107838
-0.000965136
-3290.15
-2993.54
-2559.03
-2117.75
-1731.96
-1417.33
-1168.34
-972.972
-819.15
-696.817
-598.222
-517.593
-450.686
-394.394
-346.433
-305.116
-269.183
-237.686
-209.903
-185.278
-163.375
-143.848
-126.418
-110.854
-96.9635
-84.5794
-73.5576
-63.7698
-55.1006
-47.4448
-40.706
-34.7951
-29.6297
-25.1333
-21.2351
-17.8695
-14.9762
-12.4996
-10.3892
-8.59886
-7.08692
-5.81594
-4.75243
-3.86666
-3.13236
-2.52648
-2.0289
-1.62218
-1.2913
-1.0234
-0.807496
-0.634331
-0.496097
-0.38627
-0.299425
-0.231076
-0.177538
-0.135798
-0.103411
-0.0783991
-0.0591732
-0.0444648
-0.0332654
-0.0247785
-0.018378
-0.0135749
-0.00998944
-0.00732832
-0.00536675
-0.00393379
-0.00290087
-0.00217274
-0.00168065
-0.00137715
-0.00123254
-2764.91
-2596.87
-2325.2
-2019.72
-1726.48
-1467.07
-1247.18
-1064.54
-913.873
-789.403
-685.94
-599.179
-525.7
-462.843
-408.556
-361.266
-319.762
-283.109
-250.578
-221.596
-195.709
-172.55
-151.816
-133.257
-116.658
-101.833
-88.6204
-76.8717
-66.4544
-57.2463
-49.1345
-42.0144
-35.7885
-30.366
-25.6627
-21.6003
-18.1066
-15.1152
-12.5654
-10.4016
-8.57395
-7.03721
-5.75108
-4.67971
-3.7914
-3.05833
-2.45622
-1.96401
-1.56353
-1.23923
-0.977862
-0.76821
-0.600837
-0.467849
-0.362681
-0.279906
-0.215064
-0.16451
-0.12528
-0.0949822
-0.0716923
-0.0538739
-0.040306
-0.0300237
-0.022269
-0.0164495
-0.0121051
-0.00888062
-0.00650371
-0.0047673
-0.0035156
-0.00263324
-0.0020369
-0.0016691
-0.00149385
-2406
-2302.14
-2123.55
-1907.87
-1685.69
-1475.92
-1287.54
-1123.04
-981.443
-860.188
-756.322
-667.013
-589.784
-522.566
-463.675
-411.762
-365.75
-324.781
-288.173
-255.375
-225.942
-199.505
-175.76
-154.446
-135.338
-118.24
-102.974
-89.3802
-77.312
-66.6332
-57.2171
-48.9455
-41.7075
-35.3997
-29.9255
-25.1949
-21.125
-17.6388
-14.6661
-12.1429
-10.0109
-8.21789
-6.71694
-5.46635
-4.42925
-3.57326
-2.87007
-2.29514
-1.82731
-1.44842
-1.14302
-0.898027
-0.702419
-0.546982
-0.424051
-0.327289
-0.251484
-0.192378
-0.14651
-0.111083
-0.0838488
-0.0630116
-0.0471442
-0.0351188
-0.026049
-0.0192423
-0.0141608
-0.010389
-0.00760862
-0.00557738
-0.00411311
-0.00308088
-0.00238322
-0.00195294
-0.00174791
-2148.95
-2080.16
-1957.06
-1800.7
-1630.77
-1461.78
-1302.54
-1157.37
-1027.55
-912.656
-811.406
-722.216
-643.493
-573.78
-511.809
-456.51
-406.994
-362.528
-322.51
-286.441
-253.909
-224.566
-198.116
-174.303
-152.901
-133.707
-116.539
-101.227
-87.6149
-75.5556
-64.9113
-55.5523
-47.3565
-40.2089
-34.0021
-28.6357
-24.0164
-20.058
-16.6814
-13.8143
-11.391
-9.35244
-7.64549
-6.22294
-5.04299
-4.0689
-3.26856
-2.6141
-2.08146
-1.65003
-1.30224
-1.02321
-0.800394
-0.623322
-0.483268
-0.373017
-0.286639
-0.219284
-0.16701
-0.126632
-0.0955904
-0.0718387
-0.0537509
-0.0400419
-0.0297019
-0.0219415
-0.0161478
-0.0118472
-0.00867683
-0.00636063
-0.00469088
-0.00351377
-0.00271817
-0.00222747
-0.00199366
-1958.4
-1910.22
-1821.66
-1704.99
-1572.93
-1436.04
-1301.83
-1174.86
-1057.46
-950.417
-853.584
-766.323
-687.778
-617.044
-553.262
-495.652
-443.534
-396.324
-353.525
-314.712
-279.522
-247.642
-218.799
-192.748
-169.272
-148.17
-129.257
-112.361
-97.3179
-83.9742
-72.1832
-61.8059
-52.7106
-44.7727
-37.875
-31.9077
-26.7685
-22.3626
-18.6026
-15.4088
-12.7084
-10.4361
-8.53286
-6.94634
-5.63008
-4.54323
-3.65007
-2.91957
-2.32496
-1.84325
-1.45488
-1.14324
-0.894369
-0.696564
-0.540095
-0.41691
-0.320389
-0.245119
-0.186698
-0.141568
-0.106871
-0.0803206
-0.0601001
-0.0447739
-0.0332134
-0.0245366
-0.0180584
-0.0132495
-0.00970422
-0.00711403
-0.0052467
-0.00393025
-0.00304047
-0.00249166
-0.00223016
-1813.47
-1778.12
-1711.92
-1622.33
-1517.7
-1405.59
-1292.01
-1181.14
-1075.6
-976.779
-885.244
-801.01
-723.786
-653.127
-588.532
-529.497
-475.551
-426.266
-381.259
-340.191
-302.761
-268.701
-237.766
-209.737
-184.407
-161.585
-141.089
-122.745
-106.389
-91.8604
-79.0077
-67.6844
-57.751
-49.0748
-41.5302
-34.9992
-29.3714
-24.5442
-20.4228
-16.9206
-13.9585
-11.4649
-9.37588
-7.63396
-6.18842
-4.99454
-4.01322
-3.21047
-2.55692
-2.02739
-1.60039
-1.25771
-0.984013
-0.76645
-0.594332
-0.458813
-0.352617
-0.269794
-0.205506
-0.15584
-0.117652
-0.0884279
-0.06617
-0.0492984
-0.0365715
-0.0270187
-0.019886
-0.014591
-0.0106872
-0.00783498
-0.00577865
-0.00432891
-0.003349
-0.00274459
-0.00245659
-1701.07
-1674.09
-1622.87
-1552.14
-1467.49
-1374.37
-1277.43
-1180.27
-1085.43
-994.547
-908.559
-827.911
-752.718
-682.892
-618.229
-558.469
-503.333
-452.542
-405.831
-362.949
-323.663
-287.755
-255.018
-225.259
-198.291
-173.934
-152.014
-132.36
-114.808
-99.1962
-85.3682
-73.1729
-62.4645
-53.1036
-44.9578
-37.9016
-31.8177
-26.5966
-22.1368
-18.3454
-15.1374
-12.436
-10.1721
-8.28376
-6.71634
-5.42149
-4.35694
-3.48592
-2.77667
-2.2019
-1.73834
-1.36627
-1.06906
-0.83277
-0.645817
-0.4986
-0.383226
-0.293236
-0.223377
-0.169404
-0.1279
-0.0961363
-0.0719423
-0.0536018
-0.039766
-0.0293802
-0.0216251
-0.0158678
-0.011623
-0.00852135
-0.00628515
-0.00470854
-0.00364285
-0.00298551
-0.00267229
-1612.58
-1591.26
-1550.37
-1493.04
-1423.1
-1344.5
-1260.84
-1175.1
-1089.6
-1005.99
-925.396
-848.511
-775.727
-707.216
-643.011
-583.053
-527.232
-475.406
-427.419
-383.109
-342.311
-304.859
-270.588
-239.334
-210.932
-185.219
-162.029
-141.2
-122.568
-105.973
-91.2566
-78.2634
-66.8436
-56.8524
-48.1515
-40.6095
-34.1027
-28.5156
-23.7409
-19.68
-16.2427
-13.3471
-10.9196
-8.89428
-7.21265
-5.82311
-4.68043
-3.7453
-2.98368
-2.36636
-1.86841
-1.46867
-1.1493
-0.895365
-0.694425
-0.536176
-0.412141
-0.315386
-0.240269
-0.182227
-0.137591
-0.103427
-0.0774028
-0.0576736
-0.0427891
-0.0316154
-0.0232715
-0.0170767
-0.0125091
-0.00917142
-0.00676494
-0.00506821
-0.00392128
-0.00321383
-0.00287672
-1542.1
-1524.72
-1491.15
-1443.51
-1384.5
-1317.04
-1243.91
-1167.57
-1090.03
-1012.88
-937.296
-864.101
-793.861
-726.935
-663.532
-603.755
-547.635
-495.15
-446.243
-400.834
-358.823
-320.099
-284.536
-252.003
-222.359
-195.457
-171.147
-149.271
-129.673
-112.193
-96.6721
-82.9543
-70.886
-60.3185
-51.1087
-43.1201
-36.2239
-30.2991
-25.2334
-20.9229
-17.2729
-14.197
-11.6174
-9.4646
-7.67659
-6.19875
-4.98317
-3.98816
-3.17761
-2.5205
-1.99036
-1.56471
-1.22459
-0.954124
-0.74007
-0.571472
-0.439311
-0.336205
-0.256149
-0.194285
-0.146706
-0.110286
-0.0825414
-0.0615062
-0.0456352
-0.0337202
-0.0248221
-0.0182155
-0.0133439
-0.00978396
-0.00721711
-0.00540723
-0.00418377
-0.0034291
-0.00306948
-1485.45
-1470.9
-1442.61
-1402.09
-1351.3
-1292.42
-1227.63
-1158.95
-1088.11
-1016.57
-945.495
-875.762
-808.039
-742.81
-680.412
-621.073
-564.937
-512.083
-462.543
-416.31
-373.344
-333.584
-296.946
-263.329
-232.618
-204.685
-179.392
-156.593
-136.135
-117.864
-101.621
-87.2495
-74.5943
-63.5034
-53.8302
-45.4339
-38.1812
-31.9468
-26.6136
-22.0736
-18.2275
-14.9852
-12.2651
-9.99434
-8.1078
-6.54812
-5.26491
-4.2143
-3.35828
-2.66418
-2.10409
-1.65432
-1.29487
-1.00899
-0.782703
-0.60445
-0.464704
-0.355669
-0.271
-0.205565
-0.155235
-0.116706
-0.0873518
-0.0650947
-0.0483006
-0.0356917
-0.0262748
-0.0192826
-0.0141263
-0.0103582
-0.00764106
-0.00572515
-0.00442997
-0.00363103
-0.00325032
-1439.59
-1427.1
-1402.7
-1367.49
-1322.94
-1270.71
-1212.53
-1150.05
-1084.8
-1018.06
-950.958
-884.38
-819.045
-755.515
-694.218
-635.475
-579.521
-526.518
-476.571
-429.736
-386.031
-345.439
-307.915
-273.389
-241.769
-212.948
-186.8
-163.191
-141.975
-123.002
-106.115
-91.1582
-77.9752
-66.4122
-56.3196
-47.5534
-39.9766
-33.46
-27.8826
-23.1326
-19.107
-15.712
-12.8629
-10.4836
-8.50636
-6.87124
-5.52565
-4.42371
-3.52567
-2.79736
-2.20957
-1.73746
-1.3601
-1.05993
-0.822309
-0.635098
-0.488312
-0.37377
-0.284816
-0.216062
-0.163173
-0.122683
-0.0918316
-0.0684375
-0.050784
-0.037529
-0.0276289
-0.0202774
-0.0148559
-0.0108937
-0.00803654
-0.00602177
-0.00465972
-0.00381951
-0.00341912
-1402.28
-1391.31
-1369.82
-1338.62
-1298.84
-1251.78
-1198.84
-1141.4
-1080.76
-1018.09
-954.433
-890.666
-827.529
-765.628
-705.453
-647.393
-591.751
-538.755
-488.573
-441.316
-397.049
-355.798
-317.552
-282.269
-249.882
-220.301
-193.416
-169.101
-147.221
-127.629
-110.171
-94.6936
-81.0392
-69.053
-58.5833
-49.4836
-41.6139
-34.8417
-29.0427
-24.1017
-19.9126
-16.3784
-13.4114
-10.9329
-8.87267
-7.16845
-5.76563
-4.61656
-3.67992
-2.92016
-2.30686
-1.81419
-1.42034
-1.10699
-0.858908
-0.66343
-0.510143
-0.390515
-0.2976
-0.225778
-0.170524
-0.128219
-0.0959818
-0.071535
-0.0530859
-0.0392324
-0.0288846
-0.0212001
-0.0155328
-0.0113907
-0.00840357
-0.00629712
-0.00487303
-0.00399452
-0.00357588
-1371.78
-1361.96
-1342.67
-1314.53
-1278.44
-1235.43
-1186.66
-1133.28
-1076.44
-1017.19
-956.484
-895.185
-834.027
-773.642
-714.557
-657.21
-601.957
-549.078
-498.789
-451.25
-406.566
-364.798
-325.969
-290.062
-257.032
-226.805
-199.287
-174.364
-151.905
-131.77
-113.811
-97.8726
-83.7997
-71.4363
-60.6297
-51.2312
-43.0984
-36.096
-30.0972
-24.9836
-20.6464
-16.986
-13.912
-11.3433
-9.20751
-7.4403
-5.98529
-4.7932
-3.82129
-3.03276
-2.39613
-1.88462
-1.47565
-1.15023
-0.892549
-0.689483
-0.530225
-0.405923
-0.309368
-0.234725
-0.177295
-0.133319
-0.0998068
-0.0743906
-0.0552084
-0.0408035
-0.030043
-0.0220516
-0.0161575
-0.0118494
-0.00874248
-0.00655141
-0.00507007
-0.00415622
-0.00372072
-1346.78
-1337.84
-1320.23
-1294.45
-1261.22
-1221.39
-1175.94
-1125.85
-1072.13
-1015.73
-957.537
-898.376
-838.972
-779.964
-721.905
-665.265
-610.439
-557.746
-507.444
-459.729
-414.742
-372.577
-333.28
-296.862
-263.297
-232.526
-204.47
-179.023
-156.063
-135.457
-117.058
-100.715
-86.2723
-73.5751
-62.4692
-52.8045
-44.4367
-37.2284
-31.0502
-25.7816
-21.3111
-17.5369
-14.3663
-11.7161
-9.51188
-7.68761
-6.18526
-4.95411
-3.95015
-3.13546
-2.47759
-1.94893
-1.52618
-1.18975
-0.923308
-0.713313
-0.548601
-0.420028
-0.320145
-0.24292
-0.183499
-0.137994
-0.103314
-0.0770096
-0.0571556
-0.0422452
-0.0311063
-0.0228333
-0.0167311
-0.0122707
-0.00905382
-0.00678508
-0.00525117
-0.00430486
-0.00385389
-1326.24
-1317.98
-1301.66
-1277.71
-1246.72
-1209.41
-1166.61
-1119.18
-1068.01
-1013.98
-957.906
-900.58
-842.708
-784.932
-727.815
-671.851
-617.461
-564.996
-514.744
-466.933
-421.734
-379.265
-339.599
-302.766
-268.757
-237.531
-209.018
-183.124
-159.734
-138.719
-119.938
-103.241
-88.4748
-75.4837
-64.1134
-54.2129
-45.6365
-38.2448
-31.9068
-26.4996
-21.9099
-18.0336
-14.7763
-12.0529
-9.78707
-7.91138
-6.36633
-5.09991
-4.06698
-3.22863
-2.55153
-2.00734
-1.5721
-1.22567
-0.951283
-0.734996
-0.565329
-0.432873
-0.329962
-0.250389
-0.189155
-0.142258
-0.106513
-0.0793992
-0.0589328
-0.0435613
-0.0320771
-0.0235472
-0.0172552
-0.0126558
-0.0093384
-0.00699871
-0.00541677
-0.00444081
-0.0039757
-1309.35
-1301.6
-1286.29
-1263.77
-1234.54
-1199.23
-1158.54
-1113.26
-1064.19
-1012.11
-957.822
-902.058
-845.513
-788.821
-732.554
-677.218
-623.254
-571.035
-520.876
-473.027
-427.684
-384.988
-345.032
-307.864
-273.491
-241.886
-212.989
-186.715
-162.957
-141.591
-122.479
-105.475
-90.4258
-77.1773
-65.5749
-55.4668
-46.7062
-39.1523
-32.6725
-27.1422
-22.4463
-18.4791
-15.1444
-12.3554
-10.0345
-8.11276
-6.52939
-5.2313
-4.17234
-3.31271
-2.6183
-2.06011
-1.6136
-1.25816
-0.976595
-0.754623
-0.580477
-0.444509
-0.338859
-0.25716
-0.194284
-0.146125
-0.109416
-0.0815684
-0.0605465
-0.0447566
-0.0329592
-0.024196
-0.0177316
-0.0130058
-0.00959719
-0.00719303
-0.00556745
-0.00456453
-0.00408656
-1295.43
-1288.1
-1273.57
-1252.17
-1224.33
-1190.61
-1151.62
-1108.08
-1060.71
-1010.25
-957.451
-903.008
-847.601
-791.855
-736.343
-681.579
-628.017
-576.049
-526.006
-478.16
-432.726
-389.863
-349.682
-312.245
-277.576
-245.656
-216.437
-189.843
-165.772
-144.105
-124.709
-107.439
-92.1447
-78.6722
-66.8671
-56.5772
-47.6547
-39.9582
-33.3532
-27.7142
-22.9244
-18.8765
-15.4731
-12.6258
-10.2559
-8.29302
-6.67548
-5.3491
-4.26686
-3.38817
-2.67827
-2.10753
-1.65091
-1.28739
-0.999376
-0.772296
-0.594123
-0.454996
-0.346881
-0.263267
-0.198912
-0.149616
-0.112037
-0.0835274
-0.0620043
-0.0458368
-0.0337565
-0.0247826
-0.0181624
-0.0133225
-0.00983136
-0.00736891
-0.00570385
-0.00467655
-0.00418696
-1283.98
-1276.96
-1263.05
-1242.54
-1215.8
-1183.33
-1145.71
-1103.58
-1057.6
-1008.48
-956.912
-903.582
-849.143
-794.214
-739.364
-685.113
-631.922
-580.197
-530.283
-482.468
-436.98
-393.997
-353.643
-315.993
-281.082
-248.904
-219.417
-192.553
-168.217
-146.295
-126.655
-109.157
-93.651
-79.9846
-68.0034
-57.5551
-48.4914
-40.6699
-33.9552
-28.2206
-23.3481
-19.2291
-15.765
-12.8662
-10.4528
-8.45354
-6.80565
-5.45414
-4.3512
-3.45556
-2.73185
-2.14992
-1.68429
-1.31354
-1.01977
-0.788128
-0.606353
-0.464399
-0.354075
-0.268746
-0.203066
-0.15275
-0.114391
-0.0852876
-0.0633145
-0.046808
-0.0344735
-0.0253103
-0.01855
-0.0136075
-0.0100422
-0.00752728
-0.00582671
-0.00477747
-0.00427742
-1274.54
-1267.77
-1254.36
-1234.54
-1208.68
-1177.22
-1140.7
-1099.7
-1054.86
-1006.83
-956.289
-903.889
-850.271
-796.041
-741.767
-687.968
-635.114
-583.618
-533.837
-486.068
-440.556
-397.489
-357.002
-319.185
-284.079
-251.688
-221.98
-194.89
-170.331
-148.192
-128.345
-110.652
-94.9643
-81.1307
-68.9974
-58.4118
-49.2254
-41.2951
-34.4848
-28.6666
-23.7216
-19.5403
-16.0228
-13.0788
-10.6271
-8.59572
-6.92105
-5.54733
-4.42608
-3.51543
-2.77947
-2.18762
-1.714
-1.33683
-1.03794
-0.802238
-0.617257
-0.472785
-0.360496
-0.273638
-0.206775
-0.155551
-0.116495
-0.0868612
-0.0644862
-0.0476767
-0.0351151
-0.0257826
-0.0188971
-0.0138627
-0.010231
-0.00766919
-0.00593682
-0.00486794
-0.00435852
-1266.77
-1260.2
-1247.17
-1227.92
-1202.75
-1172.1
-1136.46
-1096.38
-1052.46
-1005.33
-955.638
-904.015
-851.086
-797.451
-743.672
-690.27
-637.717
-586.431
-536.779
-489.068
-443.55
-400.426
-359.84
-321.89
-286.628
-254.064
-224.172
-196.896
-172.15
-149.828
-129.805
-111.946
-96.1034
-82.1266
-69.8624
-59.1586
-49.8662
-41.8416
-34.9482
-29.0574
-24.0493
-19.8136
-16.2495
-13.2657
-10.7805
-8.721
-7.02281
-5.62956
-4.4922
-3.56833
-2.82158
-2.22098
-1.74029
-1.35746
-1.05405
-0.814748
-0.626929
-0.480228
-0.366196
-0.277983
-0.210071
-0.158039
-0.118366
-0.0882609
-0.0655287
-0.0484499
-0.0356863
-0.0262032
-0.0192062
-0.0140902
-0.0103993
-0.0077957
-0.00603502
-0.00494864
-0.00443087
-1260.39
-1253.97
-1241.25
-1222.43
-1197.83
-1167.82
-1132.89
-1093.55
-1050.38
-1003.99
-954.998
-904.019
-851.668
-798.536
-745.181
-692.122
-639.833
-588.738
-539.207
-491.557
-446.048
-402.886
-362.227
-324.174
-288.787
-256.082
-226.04
-198.609
-173.707
-151.231
-131.061
-113.061
-97.0864
-82.9875
-70.6114
-59.8061
-50.4225
-42.3168
-35.3517
-29.3979
-24.3352
-20.0522
-16.4476
-13.4294
-10.9149
-8.83083
-7.11209
-5.70176
-4.55029
-3.61483
-2.85863
-2.25035
-1.76345
-1.37564
-1.06825
-0.825784
-0.635466
-0.4868
-0.371231
-0.281822
-0.212985
-0.160241
-0.120021
-0.0894995
-0.0664516
-0.0491345
-0.0361922
-0.0265759
-0.0194802
-0.0142918
-0.0105486
-0.00790792
-0.00612214
-0.00502026
-0.00449508
-1255.14
-1248.85
-1236.38
-1217.91
-1193.75
-1164.26
-1129.89
-1091.16
-1048.6
-1002.81
-954.391
-903.946
-852.077
-799.368
-746.372
-693.607
-641.548
-590.623
-541.205
-493.616
-448.124
-404.94
-364.226
-326.094
-290.607
-257.789
-227.624
-200.064
-175.033
-152.429
-132.135
-114.016
-97.9305
-83.728
-71.2567
-60.3648
-50.9032
-42.7279
-35.7011
-29.6933
-24.5834
-20.2596
-16.62
-13.5718
-11.0321
-8.92661
-7.19001
-5.76483
-4.60107
-3.65551
-2.89105
-2.27606
-1.78375
-1.39158
-1.0807
-0.835469
-0.642961
-0.492573
-0.375655
-0.285198
-0.215548
-0.162177
-0.121477
-0.0905901
-0.0672644
-0.0497378
-0.0366381
-0.0269045
-0.0197218
-0.0144696
-0.0106803
-0.00800698
-0.00619907
-0.0050835
-0.00455181
-1250.84
-1244.65
-1232.37
-1214.18
-1190.37
-1161.3
-1127.4
-1089.14
-1047.08
-1001.78
-953.833
-903.827
-852.358
-800.002
-747.31
-694.796
-642.936
-592.159
-542.843
-495.314
-449.842
-406.647
-365.895
-327.701
-292.135
-259.226
-228.961
-201.296
-176.158
-153.448
-133.05
-114.832
-98.6519
-84.3618
-71.8099
-60.8444
-51.3165
-43.0817
-36.0023
-29.9481
-24.7977
-20.4389
-16.7691
-13.6952
-11.1336
-9.00972
-7.25767
-5.81963
-4.64523
-3.69091
-2.91929
-2.29847
-1.80144
-1.40548
-1.09157
-0.843926
-0.649509
-0.497618
-0.379525
-0.288151
-0.217791
-0.163873
-0.122753
-0.0915456
-0.0679768
-0.0502666
-0.0370292
-0.0271927
-0.0199339
-0.0146258
-0.0107959
-0.00809397
-0.00626665
-0.00513908
-0.00460166
-1247.32
-1241.21
-1229.08
-1211.12
-1187.59
-1158.85
-1125.32
-1087.46
-1045.8
-1000.9
-953.329
-903.685
-852.547
-800.485
-748.047
-695.745
-644.056
-593.408
-544.183
-496.709
-451.261
-408.062
-367.281
-329.041
-293.413
-260.431
-230.085
-202.334
-177.107
-154.309
-133.825
-115.524
-99.2654
-84.9018
-72.2818
-61.2542
-51.6699
-43.3847
-36.2605
-30.1669
-24.982
-20.5932
-16.8976
-13.8016
-11.2212
-9.08148
-7.31614
-5.86702
-4.68344
-3.72156
-2.94375
-2.31789
-1.81679
-1.41754
-1.10101
-0.851274
-0.655201
-0.502006
-0.382891
-0.290721
-0.219744
-0.16535
-0.123865
-0.0923785
-0.0685981
-0.050728
-0.0373704
-0.0274443
-0.020119
-0.0147621
-0.0108969
-0.00817
-0.00632573
-0.00518768
-0.00464525
-1244.45
-1238.4
-1226.39
-1208.61
-1185.31
-1156.83
-1123.59
-1086.05
-1044.71
-1000.13
-952.882
-903.534
-852.668
-800.851
-748.624
-696.502
-644.957
-594.421
-545.275
-497.851
-452.427
-409.229
-368.429
-330.153
-294.478
-261.437
-231.025
-203.204
-177.905
-155.035
-134.479
-116.109
-99.7847
-85.3594
-72.6824
-61.6025
-51.9708
-43.643
-36.4809
-30.3537
-25.1395
-20.7253
-17.0076
-13.8928
-11.2964
-9.14311
-7.3664
-5.90779
-4.71634
-3.74797
-2.96484
-2.33465
-1.83004
-1.42796
-1.10916
-0.857626
-0.660124
-0.505803
-0.385805
-0.292947
-0.221436
-0.16663
-0.124829
-0.093101
-0.0691371
-0.0511284
-0.0376667
-0.0276628
-0.0202799
-0.0148806
-0.0109848
-0.00823612
-0.00637712
-0.00522996
-0.00468319
-1242.1
-1236.1
-1224.19
-1206.55
-1183.43
-1155.17
-1122.17
-1084.88
-1043.8
-999.488
-952.49
-903.384
-852.742
-801.126
-749.076
-697.103
-645.68
-595.239
-546.163
-498.784
-453.383
-410.189
-369.376
-331.074
-295.36
-262.273
-231.809
-203.931
-178.573
-155.643
-135.028
-116.601
-100.222
-85.7456
-73.0209
-61.8972
-52.2257
-43.8621
-36.668
-30.5126
-25.2735
-20.8377
-17.1015
-13.9706
-11.3606
-9.1958
-7.4094
-5.94269
-4.74452
-3.77061
-2.98293
-2.34903
-1.84141
-1.43692
-1.11618
-0.86309
-0.664361
-0.509072
-0.388315
-0.294865
-0.222895
-0.167734
-0.12566
-0.0937246
-0.0696025
-0.0514742
-0.0379227
-0.0278516
-0.0204189
-0.0149831
-0.0110607
-0.00829333
-0.0064216
-0.00526657
-0.00471604
-1240.19
-1234.23
-1222.4
-1204.88
-1181.9
-1153.81
-1121
-1083.91
-1043.05
-998.942
-952.152
-903.243
-852.784
-801.333
-749.429
-697.58
-646.26
-595.899
-546.882
-499.543
-454.164
-410.975
-370.155
-331.832
-296.089
-262.965
-232.459
-204.535
-179.129
-156.15
-135.487
-117.013
-100.589
-86.0699
-73.3055
-62.1453
-52.4406
-44.047
-36.8261
-30.647
-25.3871
-20.9331
-17.1811
-14.0367
-11.4152
-9.24061
-7.44599
-5.97242
-4.76854
-3.78992
-2.99837
-2.36132
-1.85113
-1.44457
-1.12217
-0.867767
-0.667989
-0.511873
-0.390467
-0.29651
-0.224146
-0.168681
-0.126374
-0.0942601
-0.0700024
-0.0517715
-0.0381428
-0.028014
-0.0205385
-0.0150713
-0.0111262
-0.0083426
-0.00645991
-0.00529811
-0.00474435
-1238.64
-1232.72
-1220.95
-1203.51
-1180.65
-1152.7
-1120.04
-1083.11
-1042.42
-998.485
-951.862
-903.112
-852.803
-801.487
-749.703
-697.957
-646.722
-596.429
-547.463
-500.159
-454.8
-411.617
-370.792
-332.455
-296.689
-263.536
-232.996
-205.036
-179.591
-156.572
-135.869
-117.356
-100.895
-86.341
-73.5438
-62.3533
-52.621
-44.2024
-36.9591
-30.7601
-25.4827
-21.0135
-17.2483
-14.0926
-11.4613
-9.27854
-7.47699
-5.99762
-4.78891
-3.8063
-3.01148
-2.37175
-1.8594
-1.45109
-1.12728
-0.87175
-0.671081
-0.514261
-0.392302
-0.297913
-0.225214
-0.169491
-0.126984
-0.0947178
-0.0703442
-0.0520257
-0.038331
-0.028153
-0.020641
-0.0151468
-0.0111822
-0.00838481
-0.00649275
-0.00532515
-0.00476862
-1237.39
-1231.49
-1219.77
-1202.41
-1179.64
-1151.79
-1119.25
-1082.46
-1041.9
-998.104
-951.615
-902.996
-852.807
-801.602
-749.916
-698.254
-647.09
-596.854
-547.931
-500.656
-455.315
-412.14
-371.312
-332.964
-297.181
-264.005
-233.438
-205.448
-179.972
-156.921
-136.186
-117.641
-101.15
-86.5665
-73.7423
-62.5268
-52.7716
-44.3323
-37.0704
-30.8549
-25.563
-21.081
-17.3048
-14.1396
-11.5002
-9.31048
-7.50312
-6.01887
-4.80611
-3.82015
-3.02257
-2.38058
-1.8664
-1.4566
-1.13161
-0.875125
-0.673702
-0.516286
-0.39386
-0.299105
-0.226122
-0.170178
-0.127503
-0.095107
-0.070635
-0.052242
-0.0384913
-0.0282714
-0.0207282
-0.0152111
-0.0112299
-0.0084208
-0.00652076
-0.00534822
-0.00478933
-1236.38
-1230.5
-1218.82
-1201.51
-1178.82
-1151.06
-1118.61
-1081.92
-1041.47
-997.787
-951.408
-902.893
-852.802
-801.687
-750.08
-698.489
-647.383
-597.194
-548.307
-501.057
-455.732
-412.563
-371.734
-333.378
-297.582
-264.388
-233.8
-205.786
-180.285
-157.208
-136.447
-117.876
-101.36
-86.7533
-73.9069
-62.6708
-52.8967
-44.4403
-37.1631
-30.9339
-25.6299
-21.1374
-17.352
-14.1789
-11.5327
-9.33726
-7.52504
-6.03671
-4.82056
-3.83178
-3.03189
-2.38801
-1.87229
-1.46125
-1.13525
-0.877972
-0.675914
-0.517996
-0.395175
-0.300112
-0.226889
-0.17076
-0.127942
-0.0954364
-0.0708812
-0.0524252
-0.0386271
-0.0283717
-0.0208021
-0.0152657
-0.0112704
-0.00845134
-0.00654454
-0.00536781
-0.00480692
-1235.57
-1229.7
-1218.05
-1200.79
-1178.15
-1150.46
-1118.09
-1081.49
-1041.13
-997.527
-951.234
-902.803
-852.791
-801.749
-750.208
-698.673
-647.615
-597.465
-548.607
-501.38
-456.067
-412.905
-372.076
-333.715
-297.908
-264.701
-234.096
-206.063
-180.541
-157.443
-136.661
-118.07
-101.533
-86.9073
-74.0428
-62.7899
-53.0003
-44.5298
-37.24
-30.9995
-25.6856
-21.1843
-17.3913
-14.2116
-11.5598
-9.3596
-7.54333
-6.05162
-4.83263
-3.84151
-3.03969
-2.39423
-1.87722
-1.46514
-1.13831
-0.880361
-0.677771
-0.519433
-0.39628
-0.300958
-0.227534
-0.171249
-0.128311
-0.0957138
-0.0710886
-0.0525796
-0.0387415
-0.0284562
-0.0208645
-0.0153118
-0.0113046
-0.00847713
-0.00656462
-0.00538435
-0.00482178
-1234.91
-1229.06
-1217.44
-1200.21
-1177.62
-1149.98
-1117.67
-1081.13
-1040.84
-997.313
-951.09
-902.726
-852.778
-801.794
-750.306
-698.817
-647.798
-597.68
-548.847
-501.638
-456.337
-413.18
-372.352
-333.987
-298.173
-264.954
-234.336
-206.288
-180.751
-157.636
-136.836
-118.228
-101.676
-87.0338
-74.1545
-62.8878
-53.0856
-44.6037
-37.3034
-31.0537
-25.7315
-21.2231
-17.4238
-14.2387
-11.5823
-9.37814
-7.55853
-6.06401
-4.84268
-3.84961
-3.04619
-2.39941
-1.88134
-1.46839
-1.14086
-0.882357
-0.679323
-0.520633
-0.397205
-0.301667
-0.228074
-0.171659
-0.12862
-0.0959462
-0.0712625
-0.0527091
-0.0388376
-0.0285272
-0.0209169
-0.0153504
-0.0113333
-0.0084988
-0.00658149
-0.00539827
-0.00483427
-1234.39
-1228.55
-1216.94
-1199.74
-1177.19
-1149.59
-1117.33
-1080.85
-1040.61
-997.139
-950.971
-902.661
-852.764
-801.827
-750.381
-698.929
-647.942
-597.85
-549.038
-501.843
-456.553
-413.401
-372.574
-334.206
-298.386
-265.159
-234.53
-206.471
-180.92
-157.792
-136.979
-118.357
-101.791
-87.1371
-74.2458
-62.968
-53.1556
-44.6642
-37.3555
-31.0982
-25.7694
-21.255
-17.4506
-14.2611
-11.6009
-9.39346
-7.5711
-6.07426
-4.85099
-3.85632
-3.05157
-2.40371
-1.88475
-1.47109
-1.14298
-0.884015
-0.680613
-0.521632
-0.397974
-0.302257
-0.228524
-0.172
-0.128878
-0.0961401
-0.0714075
-0.0528171
-0.0389177
-0.0285865
-0.0209606
-0.0153827
-0.0113574
-0.00851691
-0.00659561
-0.00540991
-0.00484473
-1233.97
-1228.14
-1216.55
-1199.37
-1176.84
-1149.28
-1117.06
-1080.62
-1040.42
-996.997
-950.873
-902.606
-852.75
-801.851
-750.439
-699.017
-648.056
-597.985
-549.189
-502.007
-456.725
-413.578
-372.751
-334.382
-298.557
-265.324
-234.687
-206.619
-181.058
-157.919
-137.095
-118.462
-101.886
-87.2211
-74.3202
-63.0334
-53.2126
-44.7137
-37.3981
-31.1347
-25.8004
-21.2813
-17.4726
-14.2795
-11.6161
-9.40605
-7.58144
-6.0827
-4.85785
-3.86186
-3.05601
-2.40726
-1.88757
-1.47332
-1.14474
-0.885387
-0.681681
-0.522459
-0.398612
-0.302745
-0.228897
-0.172283
-0.129092
-0.096301
-0.071528
-0.0529069
-0.0389843
-0.0286358
-0.020997
-0.0154096
-0.0113773
-0.00853199
-0.00660736
-0.0054196
-0.00485344
-1233.64
-1227.81
-1216.24
-1199.07
-1176.57
-1149.04
-1116.85
-1080.43
-1040.27
-996.882
-950.794
-902.561
-852.736
-801.868
-750.483
-699.085
-648.144
-598.09
-549.309
-502.137
-456.861
-413.718
-372.893
-334.522
-298.694
-265.456
-234.813
-206.737
-181.168
-158.021
-137.188
-118.547
-101.962
-87.2892
-74.3806
-63.0865
-53.259
-44.7539
-37.4328
-31.1644
-25.8257
-21.3026
-17.4906
-14.2945
-11.6286
-9.41636
-7.58991
-6.08962
-4.86347
-3.8664
-3.05966
-2.41018
-1.88989
-1.47515
-1.14618
-0.886517
-0.682561
-0.523141
-0.399137
-0.303148
-0.229204
-0.172517
-0.129269
-0.0964339
-0.0716275
-0.052981
-0.0390394
-0.0286765
-0.0210271
-0.0154318
-0.0113939
-0.00854448
-0.0066171
-0.00542763
-0.00486066
-1233.38
-1227.55
-1215.99
-1198.84
-1176.35
-1148.84
-1116.67
-1080.29
-1040.15
-996.79
-950.729
-902.523
-852.724
-801.879
-750.516
-699.138
-648.214
-598.174
-549.403
-502.239
-456.969
-413.83
-373.006
-334.634
-298.804
-265.562
-234.914
-206.832
-181.257
-158.103
-137.263
-118.615
-102.023
-87.3441
-74.4293
-63.1294
-53.2965
-44.7865
-37.4609
-31.1885
-25.8462
-21.32
-17.5052
-14.3067
-11.6388
-9.42476
-7.59681
-6.09526
-4.86805
-3.8701
-3.06264
-2.41256
-1.89179
-1.47665
-1.14736
-0.887442
-0.683282
-0.5237
-0.399568
-0.303479
-0.229457
-0.172709
-0.129414
-0.0965431
-0.0717093
-0.053042
-0.0390847
-0.02871
-0.0210519
-0.0154502
-0.0114075
-0.00855477
-0.00662513
-0.00543425
-0.00486661
-1233.17
-1227.35
-1215.79
-1198.65
-1176.18
-1148.68
-1116.54
-1080.17
-1040.06
-996.716
-950.677
-902.492
-852.714
-801.888
-750.542
-699.179
-648.268
-598.239
-549.477
-502.32
-457.055
-413.918
-373.095
-334.723
-298.891
-265.646
-234.994
-206.908
-181.328
-158.168
-137.323
-118.67
-102.073
-87.3882
-74.4684
-63.1639
-53.3267
-44.8128
-37.4836
-31.2079
-25.8628
-21.334
-17.5171
-14.3166
-11.647
-9.43157
-7.60241
-6.09984
-4.87178
-3.87312
-3.06507
-2.4145
-1.89333
-1.47788
-1.14832
-0.888196
-0.68387
-0.524156
-0.39992
-0.303749
-0.229663
-0.172866
-0.129533
-0.0966324
-0.0717762
-0.053092
-0.0391218
-0.0287375
-0.0210722
-0.0154652
-0.0114187
-0.00856321
-0.00663171
-0.00543969
-0.00487149
-1233.01
-1227.19
-1215.64
-1198.51
-1176.05
-1148.56
-1116.43
-1080.08
-1039.98
-996.657
-950.635
-902.467
-852.705
-801.893
-750.561
-699.21
-648.31
-598.289
-549.535
-502.383
-457.122
-413.987
-373.165
-334.793
-298.959
-265.712
-235.058
-206.968
-181.384
-158.22
-137.371
-118.713