/*--------------------------------*- C++ -*----------------------------------*\
  =========                 |
  \\      /  F ield         | OpenFOAM: The Open Source CFD Toolbox
   \\    /   O peration     | Website:  https://openfoam.org
    \\  /    A nd           | Version:  10
     \\/     M anipulation  |
\*---------------------------------------------------------------------------*/
FoamFile
{
    format      ascii;
    class       volScalarField;
    location    "368";
    object      T;
}
// * * * * * * * * * * * * * * * * * * * * * * * * * * * * * * * * * * * * * //

dimensions      [0 0 0 1 0 0 0];

internalField   nonuniform List<scalar> 
11250
(
249.856
167.596
139.425
127.035
120.284
116.01
113.024
110.801
109.07
107.68
106.537
105.582
104.775
104.086
103.495
102.986
102.547
102.167
101.838
101.555
101.311
101.101
100.922
100.768
100.637
100.527
100.433
100.355
100.289
100.235
100.19
100.152
100.122
100.097
100.077
100.06
100.047
100.037
100.029
100.022
100.017
100.013
100.01
100.007
100.006
100.004
100.003
100.002
100.002
100.001
100.001
100.001
100
100
100
100
100
100
100
100
100
100
100
100
100
100
100
100
100
100
100
100
100
100
100
331.539
248.706
202.504
175.476
158.392
146.757
138.331
131.932
126.893
122.816
119.45
116.627
114.234
112.189
110.431
108.915
107.605
106.472
105.493
104.647
103.919
103.292
102.755
102.297
101.906
101.576
101.296
101.062
100.866
100.703
100.567
100.456
100.365
100.29
100.23
100.181
100.142
100.111
100.086
100.066
100.051
100.039
100.029
100.022
100.017
100.013
100.009
100.007
100.005
100.004
100.003
100.002
100.001
100.001
100.001
100.001
100
100
100
100
100
100
100
100
100
100
100
100
100
100
100
100
100
100
100
359.139
293.199
246.433
214.009
191.094
174.347
161.671
151.769
143.826
137.318
131.897
127.323
123.427
120.085
117.206
114.717
112.563
110.697
109.083
107.687
106.484
105.449
104.562
103.803
103.157
102.61
102.148
101.76
101.435
101.164
100.941
100.756
100.605
100.481
100.381
100.3
100.235
100.183
100.142
100.11
100.084
100.064
100.049
100.037
100.028
100.021
100.015
100.011
100.008
100.006
100.004
100.003
100.002
100.002
100.001
100.001
100.001
100
100
100
100
100
100
100
100
100
100
100
100
100
100
100
100
100
100
370.968
318.544
276.064
243.093
217.7
197.954
182.337
169.756
159.442
150.859
143.627
137.474
132.2
127.654
123.722
120.314
117.357
114.791
112.567
110.642
108.981
107.551
106.323
105.273
104.379
103.621
102.981
102.442
101.992
101.617
101.306
101.05
100.84
100.668
100.529
100.417
100.327
100.255
100.198
100.153
100.117
100.089
100.068
100.051
100.039
100.029
100.021
100.016
100.012
100.009
100.006
100.005
100.003
100.002
100.002
100.001
100.001
100.001
100
100
100
100
100
100
100
100
100
100
100
100
100
100
100
100
100
377.168
333.981
296.245
264.68
238.763
217.553
200.107
185.628
173.492
163.223
154.461
146.933
140.432
134.798
129.901
125.641
121.934
118.71
115.91
113.483
111.385
109.577
108.024
106.695
105.562
104.6
103.788
103.105
102.533
102.056
101.661
101.336
101.068
100.85
100.674
100.531
100.416
100.324
100.252
100.194
100.149
100.114
100.087
100.065
100.049
100.037
100.027
100.02
100.015
100.011
100.008
100.006
100.004
100.003
100.002
100.001
100.001
100.001
100.001
100
100
100
100
100
100
100
100
100
100
100
100
100
100
100
100
380.907
344.013
310.33
280.723
255.249
233.543
215.085
199.353
185.887
174.303
164.291
155.603
148.04
141.442
135.68
130.646
126.251
122.418
119.082
116.186
113.677
111.512
109.651
108.056
106.696
105.54
104.563
103.741
103.053
102.479
102.003
101.611
101.289
101.026
100.813
100.641
100.502
100.392
100.304
100.235
100.18
100.138
100.105
100.079
100.059
100.044
100.033
100.024
100.018
100.013
100.01
100.007
100.005
100.004
100.003
100.002
100.001
100.001
100.001
100
100
100
100
100
100
100
100
100
100
100
100
100
100
100
100
383.375
350.888
320.432
292.757
268.127
246.472
227.549
211.048
196.654
184.081
173.078
163.434
154.972
147.541
141.016
135.292
130.276
125.889
122.06
118.729
115.84
113.342
111.192
109.348
107.773
106.435
105.302
104.349
103.55
102.883
102.331
101.875
101.5
101.195
100.946
100.746
100.585
100.456
100.354
100.273
100.21
100.16
100.122
100.092
100.069
100.052
100.039
100.028
100.021
100.015
100.011
100.008
100.006
100.004
100.003
100.002
100.001
100.001
100.001
100.001
100
100
100
100
100
100
100
100
100
100
100
100
100
100
100
385.1
355.796
327.86
301.895
278.213
256.888
237.842
220.911
205.899
192.603
180.835
170.421
161.211
153.072
145.887
139.555
133.987
129.101
124.827
121.1
117.86
115.056
112.638
110.562
108.788
107.278
106
104.923
104.02
103.266
102.641
102.125
101.701
101.355
101.074
100.846
100.664
100.518
100.402
100.31
100.238
100.182
100.138
100.105
100.079
100.059
100.044
100.032
100.024
100.017
100.013
100.009
100.007
100.005
100.003
100.002
100.002
100.001
100.001
100.001
100
100
100
100
100
100
100
100
100
100
100
100
100
100
100
386.355
359.41
333.438
308.918
286.151
265.274
246.302
229.17
213.766
199.958
187.609
176.586
166.766
158.033
150.285
143.427
137.373
132.046
127.372
123.287
119.731
116.647
113.984
111.695
109.736
108.067
106.654
105.461
104.461
103.626
102.933
102.36
101.89
101.506
101.193
100.941
100.738
100.576
100.447
100.345
100.265
100.203
100.154
100.116
100.088
100.065
100.049
100.036
100.027
100.019
100.014
100.01
100.007
100.005
100.004
100.003
100.002
100.001
100.001
100.001
100
100
100
100
100
100
100
100
100
100
100
100
100
100
100
387.294
362.134
337.7
314.376
292.434
272.033
253.24
236.051
220.415
206.253
193.473
181.976
171.664
162.441
154.218
146.909
140.434
134.719
129.692
125.288
121.447
118.11
115.224
112.741
110.613
108.799
107.261
105.962
104.872
103.962
103.206
102.581
102.067
101.647
101.306
101.03
100.808
100.631
100.49
100.378
100.291
100.222
100.169
100.128
100.096
100.072
100.053
100.04
100.029
100.021
100.016
100.011
100.008
100.006
100.004
100.003
100.002
100.001
100.001
100.001
100
100
100
100
100
100
100
100
100
100
100
100
100
100
100
388.009
364.223
341
318.656
297.432
277.49
258.923
241.764
226.005
211.606
198.511
186.649
175.945
166.323
157.704
150.013
143.176
137.124
131.787
127.102
123.007
119.444
116.358
113.699
111.419
109.472
107.82
106.425
105.252
104.273
103.458
102.785
102.231
101.779
101.41
101.113
100.873
100.682
100.529
100.409
100.314
100.24
100.183
100.138
100.104
100.078
100.058
100.043
100.031
100.023
100.017
100.012
100.009
100.006
100.004
100.003
100.002
100.002
100.001
100.001
100.001
100
100
100
100
100
100
100
100
100
100
100
100
100
100
388.564
365.847
343.584
322.04
301.427
281.904
263.574
246.494
230.684
216.134
202.812
190.672
179.66
169.713
160.767
152.756
145.612
139.269
133.664
128.732
124.414
120.651
117.387
114.57
112.152
110.087
108.332
106.848
105.601
104.558
103.69
102.973
102.383
101.9
101.507
101.189
100.933
100.729
100.566
100.437
100.336
100.257
100.195
100.148
100.111
100.083
100.062
100.046
100.034
100.025
100.018
100.013
100.009
100.007
100.005
100.003
100.002
100.002
100.001
100.001
100.001
100
100
100
100
100
100
100
100
100
100
100
100
100
100
388.998
367.122
345.624
324.731
304.633
285.48
267.38
250.403
234.588
219.945
206.463
194.114
182.86
172.653
163.44
155.161
147.758
141.169
135.332
130.186
125.673
121.733
118.312
115.356
112.816
110.643
108.796
107.233
105.918
104.818
103.902
103.145
102.521
102.011
101.595
101.259
100.988
100.772
100.6
100.463
100.356
100.272
100.207
100.157
100.118
100.088
100.066
100.049
100.036
100.026
100.019
100.014
100.01
100.007
100.005
100.004
100.003
100.002
100.001
100.001
100.001
100
100
100
100
100
100
100
100
100
100
100
100
100
100
389.34
368.13
347.245
326.882
307.214
288.381
270.493
253.628
237.836
223.141
209.547
197.042
185.601
175.186
165.754
157.255
149.635
142.837
136.802
131.473
126.79
122.697
119.138
116.059
113.41
111.143
109.214
107.58
106.205
105.053
104.094
103.3
102.647
102.111
101.676
101.323
101.039
100.811
100.63
100.487
100.375
100.286
100.218
100.165
100.124
100.093
100.069
100.051
100.038
100.028
100.02
100.015
100.01
100.008
100.005
100.004
100.003
100.002
100.001
100.001
100.001
100
100
100
100
100
100
100
100
100
100
100
100
100
100
389.612
368.932
348.539
328.607
309.295
290.736
273.038
256.284
240.529
225.809
212.14
199.52
187.934
177.355
167.747
159.066
151.265
144.291
138.09
132.603
127.775
123.549
119.87
116.684
113.94
111.589
109.587
107.891
106.462
105.265
104.267
103.441
102.76
102.202
101.748
101.381
101.084
100.847
100.658
100.509
100.391
100.299
100.228
100.172
100.13
100.097
100.072
100.053
100.039
100.029
100.021
100.015
100.011
100.008
100.006
100.004
100.003
100.002
100.001
100.001
100.001
100
100
100
100
100
100
100
100
100
100
100
100
100
100
389.829
369.573
349.575
329.994
310.976
292.649
275.118
258.466
242.757
228.03
214.311
201.607
189.91
179.2
169.45
160.622
152.672
145.552
139.209
133.589
128.636
124.296
120.513
117.234
114.408
111.984
109.918
108.167
106.691
105.453
104.421
103.566
102.862
102.284
101.814
101.432
101.125
100.879
100.684
100.528
100.406
100.311
100.236
100.179
100.135
100.101
100.075
100.056
100.041
100.03
100.022
100.016
100.011
100.008
100.006
100.004
100.003
100.002
100.001
100.001
100.001
100
100
100
100
100
100
100
100
100
100
100
100
100
100
390.002
370.086
350.406
331.111
312.336
294.203
276.816
260.258
244.595
229.873
216.122
203.356
191.574
180.763
170.899
161.951
153.878
146.636
140.175
134.442
129.385
124.947
121.076
117.716
114.818
112.332
110.21
108.411
106.893
105.62
104.558
103.678
102.952
102.357
101.872
101.479
101.162
100.908
100.706
100.546
100.42
100.321
100.244
100.185
100.139
100.104
100.078
100.057
100.042
100.031
100.023
100.016
100.012
100.008
100.006
100.004
100.003
100.002
100.001
100.001
100.001
100
100
100
100
100
100
100
100
100
100
100
100
100
100
390.141
370.498
351.075
332.011
313.435
295.464
278.2
261.725
246.107
231.396
217.627
204.816
192.969
182.078
172.124
163.079
154.906
147.563
141.004
135.177
130.031
125.511
121.563
118.136
115.176
112.635
110.466
108.624
107.07
105.766
104.678
103.776
103.031
102.421
101.923
101.519
101.194
100.934
100.726
100.561
100.432
100.33
100.251
100.19
100.143
100.107
100.08
100.059
100.044
100.032
100.023
100.017
100.012
100.009
100.006
100.004
100.003
100.002
100.002
100.001
100.001
100
100
100
100
100
100
100
100
100
100
100
100
100
100
390.253
370.829
351.612
332.736
314.324
296.487
279.326
262.924
247.348
232.652
218.871
206.029
194.134
183.181
173.155
164.031
155.776
148.351
141.71
135.805
130.585
125.995
121.984
118.498
115.486
112.898
110.687
108.81
107.225
105.894
104.783
103.862
103.101
102.477
101.968
101.555
101.223
100.956
100.744
100.575
100.443
100.339
100.258
100.195
100.147
100.11
100.082
100.061
100.045
100.033
100.024
100.017
100.012
100.009
100.006
100.005
100.003
100.002
100.002
100.001
100.001
100.001
100
100
100
100
100
100
100
100
100
100
100
100
100
390.343
371.094
352.045
333.32
315.041
297.316
280.241
263.901
248.363
233.683
219.898
207.034
195.101
184.1
174.017
164.83
156.51
149.017
142.309
136.339
131.057
126.409
122.344
118.809
115.752
113.125
110.879
108.971
107.359
106.005
104.875
103.936
103.162
102.526
102.008
101.587
101.248
100.976
100.759
100.587
100.452
100.346
100.263
100.199
100.15
100.112
100.084
100.062
100.046
100.033
100.024
100.018
100.013
100.009
100.007
100.005
100.003
100.002
100.002
100.001
100.001
100.001
100
100
100
100
100
100
100
100
100
100
100
100
100
390.414
371.307
352.392
333.791
315.62
297.986
280.983
264.696
249.192
234.527
220.741
207.861
195.901
184.862
174.735
165.498
157.124
149.576
142.814
136.79
131.456
126.76
122.65
119.073
115.979
113.318
111.043
109.109
107.474
106.101
104.954
104.001
103.214
102.569
102.042
101.614
101.269
100.993
100.772
100.598
100.46
100.352
100.268
100.203
100.153
100.114
100.085
100.063
100.047
100.034
100.025
100.018
100.013
100.009
100.007
100.005
100.003
100.002
100.002
100.001
100.001
100.001
100
100
100
100
100
100
100
100
100
100
100
100
100
390.472
371.478
352.671
334.169
316.086
298.526
281.584
265.34
249.866
235.215
221.431
208.541
196.56
185.492
175.329
166.053
157.636
150.044
143.237
137.169
131.793
127.056
122.909
119.298
116.173
113.483
111.183
109.227
107.573
106.183
105.021
104.056
103.26
102.605
102.071
101.638
101.288
101.008
100.784
100.607
100.467
100.357
100.272
100.206
100.155
100.116
100.087
100.064
100.047
100.035
100.025
100.018
100.013
100.009
100.007
100.005
100.003
100.002
100.002
100.001
100.001
100.001
100
100
100
100
100
100
100
100
100
100
100
100
100
390.518
371.615
352.894
334.472
316.46
298.961
282.068
265.862
250.412
235.775
221.993
209.096
197.1
186.01
175.819
166.511
158.06
150.432
143.589
137.485
132.074
127.305
123.126
119.487
116.336
113.623
111.302
109.327
107.657
106.253
105.079
104.104
103.298
102.636
102.096
101.658
101.304
101.02
100.794
100.615
100.473
100.362
100.276
100.209
100.157
100.118
100.088
100.065
100.048
100.035
100.026
100.019
100.013
100.01
100.007
100.005
100.003
100.002
100.002
100.001
100.001
100.001
100
100
100
100
100
100
100
100
100
100
100
100
100
390.555
371.725
353.073
334.715
316.76
299.31
282.457
266.282
250.854
236.228
222.45
209.548
197.541
186.433
176.221
166.888
158.409
150.753
143.88
137.748
132.308
127.512
123.308
119.645
116.472
113.74
111.401
109.411
107.727
106.311
105.128
104.144
103.331
102.663
102.118
101.675
101.318
101.031
100.802
100.621
100.478
100.366
100.279
100.211
100.159
100.119
100.089
100.066
100.048
100.036
100.026
100.019
100.014
100.01
100.007
100.005
100.003
100.002
100.002
100.001
100.001
100.001
100
100
100
100
100
100
100
100
100
100
100
100
100
390.584
371.812
353.215
334.909
317
299.59
282.77
266.62
251.209
236.594
222.819
209.914
197.899
186.778
176.549
167.196
158.696
151.017
144.12
137.964
132.502
127.684
123.459
119.777
116.586
113.838
111.484
109.481
107.786
106.361
105.169
104.177
103.358
102.685
102.136
101.69
101.329
101.04
100.81
100.627
100.483
100.37
100.281
100.213
100.161
100.12
100.09
100.066
100.049
100.036
100.026
100.019
100.014
100.01
100.007
100.005
100.004
100.002
100.002
100.001
100.001
100.001
100
100
100
100
100
100
100
100
100
100
100
100
100
390.608
371.881
353.329
335.063
317.192
299.814
283.02
266.89
251.494
236.888
223.116
210.21
198.188
187.058
176.816
167.447
158.93
151.232
144.317
138.142
132.661
127.825
123.584
119.885
116.68
113.919
111.554
109.54
107.836
106.402
105.203
104.206
103.381
102.704
102.151
101.702
101.339
101.048
100.816
100.632
100.486
100.372
100.284
100.215
100.162
100.121
100.09
100.067
100.049
100.036
100.026
100.019
100.014
100.01
100.007
100.005
100.004
100.002
100.002
100.001
100.001
100.001
100
100
100
100
100
100
100
100
100
100
100
100
100
390.626
371.936
353.419
335.186
317.344
299.991
283.219
267.106
251.722
237.124
223.355
210.448
198.421
187.284
177.031
167.651
159.12
151.407
144.477
138.287
132.792
127.941
123.686
119.975
116.758
113.986
111.611
109.589
107.877
106.436
105.231
104.229
103.401
102.72
102.164
101.712
101.347
101.054
100.821
100.636
100.489
100.375
100.285
100.216
100.163
100.122
100.091
100.067
100.05
100.036
100.027
100.019
100.014
100.01
100.007
100.005
100.004
100.002
100.002
100.001
100.001
100.001
100
100
100
100
100
100
100
100
100
100
100
100
100
390.641
371.98
353.49
335.283
317.465
300.132
283.377
267.278
251.904
237.312
223.546
210.638
198.608
187.465
177.205
167.815
159.273
151.549
144.607
138.405
132.898
128.036
123.769
120.048
116.821
114.04
111.658
109.628
107.91
106.464
105.255
104.248
103.417
102.733
102.174
101.72
101.354
101.06
100.825
100.639
100.492
100.377
100.287
100.217
100.164
100.123
100.092
100.068
100.05
100.037
100.027
100.019
100.014
100.01
100.007
100.005
100.004
100.003
100.002
100.001
100.001
100.001
100
100
100
100
100
100
100
100
100
100
100
100
100
390.652
372.014
353.546
335.36
317.56
300.244
283.502
267.414
252.048
237.461
223.697
210.79
198.758
187.61
177.344
167.947
159.396
151.664
144.712
138.501
132.983
128.112
123.837
120.107
116.873
114.085
111.696
109.661
107.938
106.487
105.274
104.264
103.43
102.743
102.183
101.727
101.36
101.064
100.829
100.642
100.494
100.378
100.288
100.218
100.165
100.123
100.092
100.068
100.05
100.037
100.027
100.019
100.014
100.01
100.007
100.005
100.004
100.003
100.002
100.001
100.001
100.001
100
100
100
100
100
100
100
100
100
100
100
100
100
390.661
372.041
353.591
335.42
317.635
300.332
283.601
267.521
252.162
237.579
223.817
210.91
198.876
187.725
177.455
168.052
159.495
151.755
144.796
138.577
133.052
128.174
123.892
120.155
116.915
114.121
111.727
109.688
107.96
106.506
105.29
104.277
103.44
102.752
102.19
101.733
101.364
101.068
100.831
100.644
100.496
100.38
100.289
100.219
100.165
100.124
100.092
100.068
100.05
100.037
100.027
100.02
100.014
100.01
100.007
100.005
100.004
100.003
100.002
100.001
100.001
100.001
100
100
100
100
100
100
100
100
100
100
100
100
100
390.668
372.062
353.625
335.467
317.693
300.4
283.678
267.605
252.251
237.672
223.912
211.005
198.97
187.817
177.542
168.135
159.573
151.828
144.863
138.638
133.108
128.223
123.936
120.194
116.949
114.151
111.752
109.709
107.978
106.522
105.302
104.288
103.449
102.759
102.196
101.738
101.368
101.071
100.834
100.646
100.497
100.381
100.29
100.22
100.166
100.124
100.093
100.069
100.051
100.037
100.027
100.02
100.014
100.01
100.007
100.005
100.004
100.003
100.002
100.001
100.001
100.001
100
100
100
100
100
100
100
100
100
100
100
100
100
390.674
372.078
353.652
335.504
317.739
300.454
283.739
267.671
252.321
237.745
223.987
211.079
199.044
187.889
177.612
168.201
159.635
151.886
144.917
138.687
133.151
128.263
123.971
120.225
116.976
114.174
111.772
109.726
107.993
106.534
105.312
104.296
103.456
102.765
102.2
101.741
101.371
101.073
100.836
100.647
100.499
100.382
100.291
100.22
100.166
100.125
100.093
100.069
100.051
100.037
100.027
100.02
100.014
100.01
100.007
100.005
100.004
100.003
100.002
100.001
100.001
100.001
100
100
100
100
100
100
100
100
100
100
100
100
100
390.678
372.091
353.673
335.533
317.775
300.496
283.786
267.723
252.376
237.802
224.045
211.138
199.102
187.945
177.666
168.253
159.684
151.931
144.959
138.725
133.186
128.294
123.998
120.249
116.997
114.193
111.788
109.74
108.005
106.544
105.321
104.303
103.462
102.77
102.204
101.744
101.373
101.075
100.837
100.648
100.499
100.383
100.292
100.221
100.166
100.125
100.093
100.069
100.051
100.037
100.027
100.02
100.014
100.01
100.007
100.005
100.004
100.003
100.002
100.001
100.001
100.001
100
100
100
100
100
100
100
100
100
100
100
100
100
390.682
372.101
353.689
335.555
317.802
300.529
283.822
267.763
252.418
237.846
224.09
211.183
199.147
187.989
177.709
168.293
159.722
151.967
144.992
138.755
133.214
128.318
124.02
120.269
117.014
114.207
111.801
109.751
108.014
106.551
105.327
104.309
103.466
102.773
102.207
101.747
101.375
101.077
100.839
100.649
100.5
100.383
100.292
100.221
100.167
100.125
100.093
100.069
100.051
100.037
100.027
100.02
100.014
100.01
100.007
100.005
100.004
100.003
100.002
100.001
100.001
100.001
100
100
100
100
100
100
100
100
100
100
100
100
100
390.684
372.109
353.702
335.572
317.824
300.554
283.851
267.794
252.451
237.88
224.125
211.219
199.182
188.023
177.742
168.325
159.752
151.995
145.017
138.779
133.235
128.338
124.037
120.284
117.027
114.219
111.811
109.759
108.021
106.558
105.332
104.313
103.47
102.776
102.209
101.749
101.377
101.078
100.839
100.65
100.501
100.384
100.292
100.222
100.167
100.125
100.093
100.069
100.051
100.037
100.027
100.02
100.014
100.01
100.007
100.005
100.004
100.003
100.002
100.001
100.001
100.001
100
100
100
100
100
100
100
100
100
100
100
100
100
390.686
372.115
353.711
335.585
317.84
300.573
283.872
267.818
252.477
237.907
224.152
211.246
199.209
188.05
177.767
168.35
159.776
152.017
145.037
138.798
133.252
128.353
124.051
120.296
117.038
114.228
111.819
109.766
108.027
106.562
105.336
104.316
103.472
102.779
102.211
101.75
101.378
101.079
100.84
100.651
100.501
100.384
100.293
100.222
100.167
100.125
100.093
100.069
100.051
100.037
100.027
100.02
100.014
100.01
100.007
100.005
100.004
100.003
100.002
100.001
100.001
100.001
100
100
100
100
100
100
100
100
100
100
100
100
100
390.688
372.119
353.719
335.595
317.853
300.588
283.889
267.836
252.496
237.927
224.173
211.267
199.23
188.07
177.787
168.368
159.793
152.033
145.053
138.812
133.265
128.364
124.061
120.305
117.046
114.235
111.825
109.771
108.031
106.566
105.34
104.319
103.475
102.78
102.213
101.752
101.379
101.08
100.841
100.651
100.502
100.384
100.293
100.222
100.167
100.125
100.093
100.069
100.051
100.037
100.027
100.02
100.014
100.01
100.007
100.005
100.004
100.003
100.002
100.001
100.001
100.001
100
100
100
100
100
100
100
100
100
100
100
100
100
390.689
372.122
353.724
335.603
317.862
300.599
283.902
267.85
252.511
237.942
224.189
211.283
199.246
188.086
177.802
168.383
159.807
152.046
145.065
138.823
133.275
128.373
124.069
120.312
117.052
114.241
111.83
109.775
108.035
106.569
105.342
104.321
103.476
102.782
102.214
101.752
101.38
101.08
100.841
100.652
100.502
100.385
100.293
100.222
100.167
100.125
100.094
100.069
100.051
100.037
100.027
100.02
100.014
100.01
100.007
100.005
100.004
100.003
100.002
100.001
100.001
100.001
100
100
100
100
100
100
100
100
100
100
100
100
100
390.69
372.125
353.729
335.609
317.869
300.607
283.911
267.86
252.522
237.954
224.201
211.295
199.258
188.098
177.814
168.394
159.818
152.056
145.074
138.831
133.282
128.38
124.076
120.318
117.057
114.245
111.834
109.779
108.038
106.571
105.344
104.323
103.478
102.783
102.215
101.753
101.38
101.081
100.842
100.652
100.502
100.385
100.293
100.222
100.167
100.126
100.094
100.069
100.051
100.037
100.027
100.02
100.014
100.01
100.007
100.005
100.004
100.003
100.002
100.001
100.001
100.001
100
100
100
100
100
100
100
100
100
100
100
100
100
390.69
372.127
353.732
335.613
317.875
300.614
283.919
267.868
252.531
237.963
224.21
211.304
199.267
188.107
177.823
168.402
159.826
152.064
145.081
138.838
133.288
128.386
124.08
120.322
117.061
114.248
111.836
109.781
108.04
106.573
105.346
104.324
103.479
102.784
102.216
101.754
101.381
101.081
100.842
100.652
100.502
100.385
100.293
100.222
100.168
100.126
100.094
100.069
100.051
100.038
100.027
100.02
100.014
100.01
100.007
100.005
100.004
100.003
100.002
100.001
100.001
100.001
100
100
100
100
100
100
100
100
100
100
100
100
100
390.691
372.128
353.734
335.616
317.879
300.619
283.924
267.874
252.537
237.97
224.217
211.311
199.274
188.114
177.829
168.409
159.832
152.069
145.086
138.842
133.293
128.39
124.084
120.325
117.064
114.251
111.839
109.783
108.041
106.575
105.347
104.325
103.479
102.784
102.216
101.754
101.381
101.081
100.842
100.652
100.503
100.385
100.293
100.222
100.168
100.126
100.094
100.069
100.051
100.038
100.027
100.02
100.014
100.01
100.007
100.005
100.004
100.003
100.002
100.001
100.001
100.001
100
100
100
100
100
100
100
100
100
100
100
100
100
390.691
372.13
353.736
335.619
317.882
300.622
283.928
267.879
252.542
237.975
224.222
211.317
199.279
188.119
177.834
168.414
159.836
152.073
145.09
138.846
133.296
128.393
124.087
120.328
117.066
114.252
111.84
109.784
108.042
106.576
105.347
104.326
103.48
102.785
102.216
101.755
101.381
101.082
100.842
100.652
100.503
100.385
100.293
100.222
100.168
100.126
100.094
100.069
100.051
100.038
100.027
100.02
100.014
100.01
100.007
100.005
100.004
100.003
100.002
100.001
100.001
100.001
100
100
100
100
100
100
100
100
100
100
100
100
100
390.691
372.13
353.737
335.621
317.884
300.625
283.931
267.882
252.545
237.978
224.226
211.321
199.283
188.123
177.838
168.417
159.84
152.077
145.093
138.849
133.299
128.395
124.089
120.329
117.067
114.254
111.841
109.785
108.043
106.576
105.348
104.326
103.481
102.785
102.217
101.755
101.382
101.082
100.843
100.653
100.503
100.385
100.293
100.222
100.168
100.126
100.094
100.069
100.051
100.038
100.027
100.02
100.014
100.01
100.007
100.005
100.004
100.003
100.002
100.001
100.001
100.001
100
100
100
100
100
100
100
100
100
100
100
100
100
390.692
372.131
353.738
335.622
317.886
300.627
283.933
267.884
252.548
237.981
224.229
211.323
199.286
188.126
177.841
168.42
159.842
152.079
145.095
138.851
133.3
128.397
124.09
120.331
117.069
114.255
111.842
109.786
108.044
106.577
105.349
104.326
103.481
102.785
102.217
101.755
101.382
101.082
100.843
100.653
100.503
100.385
100.294
100.222
100.168
100.126
100.094
100.069
100.051
100.038
100.027
100.02
100.014
100.01
100.007
100.005
100.004
100.003
100.002
100.001
100.001
100.001
100
100
100
100
100
100
100
100
100
100
100
100
100
390.692
372.131
353.739
335.623
317.887
300.628
283.935
267.886
252.55
237.983
224.231
211.326
199.288
188.128
177.843
168.422
159.844
152.081
145.097
138.852
133.302
128.398
124.091
120.332
117.07
114.256
111.843
109.787
108.045
106.577
105.349
104.327
103.481
102.786
102.217
101.755
101.382
101.082
100.843
100.653
100.503
100.385
100.294
100.222
100.168
100.126
100.094
100.069
100.051
100.038
100.027
100.02
100.014
100.01
100.007
100.005
100.004
100.003
100.002
100.001
100.001
100.001
100
100
100
100
100
100
100
100
100
100
100
100
100
390.692
372.132
353.739
335.624
317.888
300.629
283.936
267.887
252.551
237.985
224.232
211.327
199.29
188.129
177.844
168.423
159.845
152.082
145.098
138.854
133.303
128.399
124.092
120.333
117.07
114.256
111.843
109.787
108.045
106.578
105.349
104.327
103.481
102.786
102.217
101.755
101.382
101.082
100.843
100.653
100.503
100.385
100.294
100.222
100.168
100.126
100.094
100.069
100.051
100.038
100.027
100.02
100.014
100.01
100.007
100.005
100.004
100.003
100.002
100.001
100.001
100.001
100
100
100
100
100
100
100
100
100
100
100
100
100
390.692
372.132
353.74
335.624
317.889
300.63
283.937
267.888
252.552
237.986
224.234
211.328
199.291
188.13
177.845
168.424
159.846
152.083
145.099
138.854
133.304
128.4
124.093
120.333
117.071
114.257
111.844
109.787
108.045
106.578
105.349
104.327
103.481
102.786
102.217
101.755
101.382
101.082
100.843
100.653
100.503
100.385
100.294
100.222
100.168
100.126
100.094
100.069
100.051
100.038
100.027
100.02
100.014
100.01
100.007
100.005
100.004
100.003
100.002
100.001
100.001
100.001
100
100
100
100
100
100
100
100
100
100
100
100
100
390.692
372.132
353.74
335.625
317.889
300.631
283.938
267.889
252.553
237.987
224.234
211.329
199.292
188.131
177.846
168.425
159.847
152.084
145.1
138.855
133.304
128.4
124.093
120.334
117.071
114.257
111.844
109.788
108.045
106.578
105.35
104.327
103.482
102.786
102.217
101.755
101.382
101.082
100.843
100.653
100.503
100.385
100.294
100.222
100.168
100.126
100.094
100.069
100.051
100.038
100.027
100.02
100.014
100.01
100.007
100.005
100.004
100.003
100.002
100.001
100.001
100.001
100
100
100
100
100
100
100
100
100
100
100
100
100
390.692
372.132
353.74
335.625
317.89
300.631
283.938
267.89
252.554
237.987
224.235
211.33
199.292
188.132
177.847
168.426
159.848
152.084
145.1
138.855
133.305
128.4
124.094
120.334
117.071
114.257
111.844
109.788
108.046
106.578
105.35
104.327
103.482
102.786
102.218
101.755
101.382
101.082
100.843
100.653
100.503
100.385
100.294
100.223
100.168
100.126
100.094
100.069
100.051
100.038
100.027
100.02
100.014
100.01
100.007
100.005
100.004
100.003
100.002
100.001
100.001
100.001
100
100
100
100
100
100
100
100
100
100
100
100
100
390.692
372.132
353.74
335.625
317.89
300.631
283.939
267.89
252.554
237.988
224.235
211.33
199.293
188.132
177.847
168.426
159.848
152.085
145.101
138.856
133.305
128.401
124.094
120.334
117.071
114.257
111.844
109.788
108.046
106.578
105.35
104.327
103.482
102.786
102.218
101.755
101.382
101.082
100.843
100.653
100.503
100.385
100.294
100.223
100.168
100.126
100.094
100.069
100.051
100.038
100.027
100.02
100.014
100.01
100.007
100.005
100.004
100.003
100.002
100.001
100.001
100.001
100
100
100
100
100
100
100
100
100
100
100
100
100
390.692
372.132
353.741
335.625
317.89
300.632
283.939
267.89
252.554
237.988
224.236
211.33
199.293
188.133
177.848
168.426
159.848
152.085
145.101
138.856
133.305
128.401
124.094
120.334
117.072
114.257
111.845
109.788
108.046
106.578
105.35
104.328
103.482
102.786
102.218
101.755
101.382
101.082
100.843
100.653
100.503
100.385
100.294
100.223
100.168
100.126
100.094
100.069
100.051
100.038
100.027
100.02
100.014
100.01
100.007
100.005
100.004
100.003
100.002
100.001
100.001
100.001
100
100
100
100
100
100
100
100
100
100
100
100
100
390.692
372.132
353.741
335.625
317.89
300.632
283.939
267.89
252.555
237.988
224.236
211.331
199.293
188.133
177.848
168.427
159.849
152.085
145.101
138.856
133.305
128.401
124.094
120.334
117.072
114.258
111.845
109.788
108.046
106.578
105.35
104.328
103.482
102.786
102.218
101.755
101.382
101.082
100.843
100.653
100.503
100.385
100.294
100.223
100.168
100.126
100.094
100.069
100.051
100.038
100.027
100.02
100.014
100.01
100.007
100.005
100.004
100.003
100.002
100.001
100.001
100.001
100
100
100
100
100
100
100
100
100
100
100
100
100
390.692
372.132
353.741
335.625
317.89
300.632
283.939
267.891
252.555
237.988
224.236
211.331
199.293
188.133
177.848
168.427
159.849
152.085
145.101
138.856
133.305
128.401
124.094
120.334
117.072
114.258
111.845
109.788
108.046
106.578
105.35
104.328
103.482
102.786
102.218
101.755
101.382
101.082
100.843
100.653
100.503
100.385
100.294
100.223
100.168
100.126
100.094
100.069
100.051
100.038
100.027
100.02
100.014
100.01
100.007
100.005
100.004
100.003
100.002
100.001
100.001
100.001
100
100
100
100
100
100
100
100
100
100
100
100
100
390.692
372.132
353.741
335.626
317.89
300.632
283.939
267.891
252.555
237.988
224.236
211.331
199.293
188.133
177.848
168.427
159.849
152.085
145.101
138.856
133.305
128.401
124.094
120.334
117.072
114.258
111.845
109.788
108.046
106.578
105.35
104.328
103.482
102.786
102.218
101.755
101.382
101.082
100.843
100.653
100.503
100.385
100.294
100.223
100.168
100.126
100.094
100.069
100.051
100.038
100.027
100.02
100.014
100.01
100.007
100.005
100.004
100.003
100.002
100.001
100.001
100.001
100
100
100
100
100
100
100
100
100
100
100
100
100
390.692
372.132
353.741
335.626
317.89
300.632
283.939
267.891
252.555
237.989
224.236
211.331
199.294
188.133
177.848
168.427
159.849
152.085
145.101
138.856
133.306
128.401
124.094
120.334
117.072
114.258
111.845
109.788
108.046
106.578
105.35
104.328
103.482