/*--------------------------------*- C++ -*----------------------------------*\
  =========                 |
  \\      /  F ield         | OpenFOAM: The Open Source CFD Toolbox
   \\    /   O peration     | Website:  https://openfoam.org
    \\  /    A nd           | Version:  10
     \\/     M anipulation  |
\*---------------------------------------------------------------------------*/
FoamFile
{
    format      ascii;
    class       volScalarField;
    location    "238";
    object      T;
}
// * * * * * * * * * * * * * * * * * * * * * * * * * * * * * * * * * * * * * //

dimensions      [0 0 0 1 0 0 0];

internalField   nonuniform List<scalar> 
11250
(
249.777
167.361
139.039
126.506
119.625
115.235
112.15
109.845
108.052
106.618
105.45
104.488
103.69
103.026
102.472
102.01
101.626
101.308
101.047
100.832
100.657
100.515
100.401
100.31
100.238
100.182
100.137
100.103
100.077
100.057
100.042
100.03
100.022
100.016
100.011
100.008
100.005
100.004
100.003
100.002
100.001
100.001
100.001
100
100
100
100
100
100
100
100
100
100
100
100
100
100
100
100
100
100
100
100
100
100
100
100
100
100
100
100
100
100
100
100
331.302
248.001
201.348
173.895
156.42
144.439
135.716
129.073
123.846
119.639
116.197
113.353
110.988
109.015
107.367
105.994
104.851
103.905
103.124
102.484
101.961
101.539
101.199
100.927
100.712
100.542
100.41
100.308
100.229
100.169
100.124
100.09
100.065
100.047
100.033
100.023
100.016
100.011
100.008
100.005
100.004
100.002
100.002
100.001
100.001
100
100
100
100
100
100
100
100
100
100
100
100
100
100
100
100
100
100
100
100
100
100
100
100
100
100
100
100
100
100
358.747
292.031
244.517
211.387
187.825
170.504
157.334
147.028
138.774
132.049
126.504
121.894
118.044
114.822
112.125
109.872
107.995
106.439
105.154
104.099
103.238
102.541
101.98
101.532
101.176
100.896
100.678
100.509
100.379
100.28
100.205
100.149
100.108
100.077
100.055
100.039
100.027
100.019
100.013
100.009
100.006
100.004
100.003
100.002
100.001
100.001
100
100
100
100
100
100
100
100
100
100
100
100
100
100
100
100
100
100
100
100
100
100
100
100
100
100
100
100
100
370.423
316.921
273.401
239.45
213.159
192.614
176.312
163.169
152.422
143.538
136.134
129.931
124.721
120.341
116.663
113.582
111.011
108.874
107.108
105.656
104.471
103.51
102.736
102.117
101.626
101.24
100.938
100.704
100.525
100.388
100.284
100.207
100.149
100.107
100.076
100.054
100.037
100.026
100.018
100.012
100.008
100.006
100.004
100.002
100.002
100.001
100.001
100
100
100
100
100
100
100
100
100
100
100
100
100
100
100
100
100
100
100
100
100
100
100
100
100
100
100
100
376.474
331.916
292.855
260.044
232.983
210.756
192.438
177.244
164.558
153.905
144.923
137.332
130.913
125.489
120.915
117.072
113.856
111.178
108.96
107.136
105.644
104.433
103.457
102.676
102.056
101.568
101.187
100.891
100.664
100.491
100.36
100.262
100.189
100.136
100.096
100.068
100.047
100.033
100.023
100.015
100.01
100.007
100.005
100.003
100.002
100.001
100.001
100.001
100
100
100
100
100
100
100
100
100
100
100
100
100
100
100
100
100
100
100
100
100
100
100
100
100
100
100
380.07
341.52
306.239
275.127
248.273
225.339
205.828
189.233
175.103
163.056
152.779
144.013
136.548
130.204
124.832
120.301
116.499
113.325
110.692
108.522
106.745
105.301
104.136
103.203
102.463
101.879
101.422
101.069
100.796
100.589
100.432
100.315
100.227
100.163
100.116
100.081
100.057
100.04
100.027
100.019
100.013
100.008
100.006
100.004
100.002
100.002
100.001
100.001
100
100
100
100
100
100
100
100
100
100
100
100
100
100
100
100
100
100
100
100
100
100
100
100
100
100
100
382.4
347.985
315.669
286.241
260.004
236.92
216.77
199.264
184.096
170.984
159.672
149.939
141.589
134.454
128.383
123.244
118.918
115.297
112.288
109.802
107.765
106.107
104.768
103.695
102.842
102.169
101.643
101.234
100.92
100.681
100.5
100.364
100.263
100.188
100.134
100.094
100.066
100.046
100.031
100.021
100.015
100.01
100.006
100.004
100.003
100.002
100.001
100.001
100
100
100
100
100
100
100
100
100
100
100
100
100
100
100
100
100
100
100
100
100
100
100
100
100
100
100
383.994
352.504
322.457
294.504
268.999
246.052
225.615
207.544
191.654
177.746
165.626
155.111
146.029
138.225
131.555
125.887
121.1
117.084
113.738
110.97
108.698
106.846
105.348
104.147
103.191
102.437
101.846
101.388
101.035
100.766
100.562
100.41
100.296
100.212
100.151
100.106
100.074
100.052
100.035
100.024
100.016
100.011
100.007
100.005
100.003
100.002
100.001
100.001
100.001
100
100
100
100
100
100
100
100
100
100
100
100
100
100
100
100
100
100
100
100
100
100
100
100
100
100
385.126
355.75
327.431
300.701
275.907
253.227
232.709
214.308
197.927
183.438
170.699
159.563
149.885
141.524
134.348
128.227
123.042
118.681
115.04
112.022
109.54
107.514
105.874
104.558
103.509
102.681
102.032
101.528
101.14
100.844
100.62
100.452
100.326
100.234
100.166
100.117
100.082
100.057
100.039
100.027
100.018
100.012
100.008
100.005
100.004
100.002
100.001
100.001
100.001
100
100
100
100
100
100
100
100
100
100
100
100
100
100
100
100
100
100
100
100
100
100
100
100
100
100
385.948
358.129
331.127
305.384
281.225
258.852
238.366
219.788
203.083
188.176
174.968
163.346
153.189
144.374
136.775
130.273
124.749
120.091
116.193
112.956
110.29
108.112
106.346
104.927
103.795
102.901
102.2
101.655
101.236
100.915
100.672
100.49
100.354
100.254
100.18
100.127
100.089
100.062
100.043
100.029
100.02
100.013
100.009
100.006
100.004
100.002
100.002
100.001
100.001
100
100
100
100
100
100
100
100
100
100
100
100
100
100
100
100
100
100
100
100
100
100
100
100
100
100
386.556
359.898
333.902
308.946
285.326
263.253
242.857
224.199
207.285
192.081
178.523
166.526
155.989
146.805
138.86
132.04
126.23
121.319
117.202
113.777
110.952
108.64
106.764
105.254
104.05
103.097
102.35
101.769
101.321
100.978
100.719
100.524
100.379
100.272
100.193
100.136
100.095
100.066
100.046
100.031
100.021
100.014
100.009
100.006
100.004
100.003
100.002
100.001
100.001
100
100
100
100
100
100
100
100
100
100
100
100
100
100
100
100
100
100
100
100
100
100
100
100
100
100
387.011
361.226
336
311.665
288.493
266.693
246.409
227.727
210.683
195.272
181.455
169.17
158.335
148.856
140.63
133.548
127.501
122.378
118.075
114.49
111.528
109.101
107.13
105.542
104.274
103.27
102.482
101.869
101.396
101.035
100.761
100.554
100.401
100.288
100.205
100.144
100.101
100.07
100.048
100.033
100.022
100.015
100.01
100.007
100.004
100.003
100.002
100.001
100.001
100
100
100
100
100
100
100
100
100
100
100
100
100
100
100
100
100
100
100
100
100
100
100
100
100
100
387.354
362.23
337.596
313.749
290.941
269.377
249.208
230.535
213.413
197.858
183.851
171.348
160.282
150.569
142.117
134.822
128.578
123.28
118.821
115.101
112.024
109.499
107.447
105.792
104.469
103.421
102.598
101.957
101.463
101.084
100.797
100.581
100.42
100.302
100.215
100.152
100.106
100.074
100.051
100.035
100.023
100.016
100.011
100.007
100.005
100.003
100.002
100.001
100.001
100
100
100
100
100
100
100
100
100
100
100
100
100
100
100
100
100
100
100
100
100
100
100
100
100
100
387.614
362.992
338.812
315.347
292.832
271.467
251.406
232.759
215.593
199.939
185.794
173.126
161.881
151.985
143.352
135.885
129.483
124.04
119.453
115.621
112.446
109.84
107.718
106.006
104.637
103.551
102.698
102.033
101.52
101.127
100.829
100.605
100.437
100.314
100.223
100.158
100.11
100.077
100.053
100.036
100.024
100.016
100.011
100.007
100.005
100.003
100.002
100.001
100.001
100.001
100
100
100
100
100
100
100
100
100
100
100
100
100
100
100
100
100
100
100
100
100
100
100
100
100
387.811
363.572
339.742
316.573
294.292
273.091
253.126
234.51
217.322
201.602
187.357
174.566
163.183
153.145
144.369
136.765
130.235
124.674
119.982
116.057
112.802
110.127
107.948
106.188
104.779
103.662
102.783
102.098
101.569
101.164
100.856
100.625
100.452
100.325
100.231
100.163
100.114
100.079
100.055
100.037
100.025
100.017
100.011
100.007
100.005
100.003
100.002
100.001
100.001
100.001
100
100
100
100
100
100
100
100
100
100
100
100
100
100
100
100
100
100
100
100
100
100
100
100
100
387.961
364.014
340.451
317.513
295.416
274.349
254.465
235.884
218.687
202.922
188.605
175.722
164.235
154.086
145.199
137.486
130.853
125.198
120.42
116.42
113.099
110.368
108.141
106.341
104.9
103.756
102.855
102.153
101.611
101.195
100.879
100.642
100.465
100.334
100.238
100.168
100.117
100.082
100.056
100.038
100.026
100.017
100.012
100.008
100.005
100.003
100.002
100.001
100.001
100.001
100
100
100
100
100
100
100
100
100
100
100
100
100
100
100
100
100
100
100
100
100
100
100
100
100
388.076
364.35
340.992
318.232
296.28
275.32
255.505
236.955
219.757
203.963
189.594
176.643
165.077
154.843
145.869
138.071
131.356
125.626
120.78
116.718
113.344
110.567
108.301
106.468
105
103.834
102.916
102.2
101.646
101.221
100.899
100.656
100.475
100.341
100.243
100.172
100.12
100.084
100.058
100.039
100.027
100.018
100.012
100.008
100.005
100.003
100.002
100.001
100.001
100.001
100
100
100
100
100
100
100
100
100
100
100
100
100
100
100
100
100
100
100
100
100
100
100
100
100
388.162
364.606
341.405
318.782
296.942
276.067
256.308
237.786
220.591
204.778
190.372
177.371
165.746
155.447
146.406
138.542
131.763
125.973
121.072
116.962
113.545
110.73
108.432
106.573
105.083
103.898
102.966
102.238
101.675
101.243
100.915
100.668
100.484
100.348
100.248
100.175
100.123
100.085
100.059
100.04
100.027
100.018
100.012
100.008
100.005
100.003
100.002
100.001
100.001
100.001
100
100
100
100
100
100
100
100
100
100
100
100
100
100
100
100
100
100
100
100
100
100
100
100
100
388.228
364.8
341.718
319.2
297.448
276.639
256.925
238.428
221.238
205.413
190.981
177.943
166.274
155.925
146.833
138.917
132.088
126.252
121.308
117.158
113.707
110.863
108.539
106.659
105.15
103.951
103.007
102.269
101.699
101.261
100.929
100.678
100.491
100.353
100.251
100.178
100.124
100.086
100.06
100.041
100.028
100.019
100.012
100.008
100.005
100.003
100.002
100.001
100.001
100.001
100
100
100
100
100
100
100
100
100
100
100
100
100
100
100
100
100
100
100
100
100
100
100
100
100
388.277
364.947
341.955
319.517
297.832
277.075
257.397
238.921
221.736
205.903
191.453
178.389
166.686
156.3
147.169
139.213
132.346
126.473
121.495
117.315
113.837
110.969
108.625
106.728
105.205
103.994
103.04
102.295
101.718
101.276
100.94
100.686
100.497
100.357
100.255
100.18
100.126
100.088
100.06
100.041
100.028
100.019
100.013
100.008
100.005
100.004
100.002
100.001
100.001
100.001
100
100
100
100
100
100
100
100
100
100
100
100
100
100
100
100
100
100
100
100
100
100
100
100
100
388.315
365.057
342.134
319.757
298.123
277.406
257.757
239.297
222.117
206.28
191.818
178.733
167.006
156.593
147.431
139.446
132.549
126.648
121.644
117.44
113.941
111.054
108.694
106.783
105.249
104.029
103.067
102.316
101.734
101.288
100.949
100.693
100.502
100.361
100.257
100.182
100.127
100.089
100.061
100.042
100.028
100.019
100.013
100.008
100.006
100.004
100.002
100.001
100.001
100.001
100
100
100
100
100
100
100
100
100
100
100
100
100
100
100
100
100
100
100
100
100
100
100
100
100
388.343
365.14
342.268
319.937
298.342
277.656
258.029
239.582
222.407
206.568
192.096
178.998
167.253
156.818
147.635
139.626
132.707
126.784
121.76
117.538
114.022
111.121
108.749
106.827
105.284
104.056
103.088
102.332
101.747
101.297
100.956
100.698
100.506
100.364
100.259
100.183
100.128
100.089
100.062
100.042
100.029
100.019
100.013
100.008
100.006
100.004
100.002
100.001
100.001
100.001
100
100
100
100
100
100
100
100
100
100
100
100
100
100
100
100
100
100
100
100
100
100
100
100
100
388.364
365.202
342.368
320.072
298.506
277.843
258.233
239.797
222.627
206.786
192.308
179.2
167.441
156.991
147.791
139.765
132.829
126.89
121.85
117.614
114.085
111.173
108.791
106.861
105.311
104.078
103.105
102.345
101.757
101.305
100.961
100.703
100.509
100.366
100.261
100.184
100.129
100.09
100.062
100.042
100.029
100.019
100.013
100.009
100.006
100.004
100.002
100.001
100.001
100.001
100
100
100
100
100
100
100
100
100
100
100
100
100
100
100
100
100
100
100
100
100
100
100
100
100
388.379
365.248
342.443
320.172
298.628
277.983
258.386
239.958
222.792
206.95
192.468
179.352
167.584
157.123
147.91
139.872
132.923
126.971
121.92
117.673
114.135
111.214
108.824
106.888
105.333
104.095
103.118
102.355
101.765
101.311
100.966
100.706
100.512
100.368
100.262
100.185
100.13
100.09
100.062
100.043
100.029
100.019
100.013
100.009
100.006
100.004
100.002
100.002
100.001
100.001
100
100
100
100
100
100
100
100
100
100
100
100
100
100
100
100
100
100
100
100
100
100
100
100
100
388.391
365.282
342.498
320.247
298.719
278.087
258.5
240.078
222.915
207.073
192.588
179.467
167.691
157.222
148
139.952
132.994
127.033
121.973
117.718
114.172
111.245
108.85
106.908
105.349
104.108
103.129
102.363
101.771
101.316
100.969
100.708
100.513
100.369
100.263
100.186
100.13
100.091
100.063
100.043
100.029
100.019
100.013
100.009
100.006
100.004
100.002
100.002
100.001
100.001
100
100
100
100
100
100
100
100
100
100
100
100
100
100
100
100
100
100
100
100
100
100
100
100
100
388.399
365.307
342.539
320.301
298.786
278.164
258.584
240.167
223.006
207.164
192.677
179.552
167.772
157.296
148.068
140.013
133.047
127.079
122.013
117.752
114.201
111.268
108.869
106.924
105.362
104.118
103.136
102.369
101.775
101.319
100.972
100.71
100.515
100.37
100.264
100.187
100.131
100.091
100.063
100.043
100.029
100.02
100.013
100.009
100.006
100.004
100.002
100.002
100.001
100.001
100
100
100
100
100
100
100
100
100
100
100
100
100
100
100
100
100
100
100
100
100
100
100
100
100
388.405
365.325
342.568
320.341
298.835
278.22
258.646
240.232
223.073
207.232
192.743
179.616
167.832
157.352
148.118
140.058
133.087
127.114
122.043
117.777
114.222
111.286
108.884
106.936
105.371
104.125
103.142
102.374
101.779
101.322
100.974
100.712
100.516
100.371
100.264
100.187
100.131
100.091
100.063
100.043
100.029
100.02
100.013
100.009
100.006
100.004
100.002
100.002
100.001
100.001
100
100
100
100
100
100
100
100
100
100
100
100
100
100
100
100
100
100
100
100
100
100
100
100
100
388.41
365.338
342.59
320.37
298.87
278.261
258.69
240.28
223.122
207.281
192.791
179.662
167.875
157.392
148.155
140.092
133.117
127.14
122.066
117.797
114.238
111.3
108.895
106.945
105.378
104.131
103.147
102.378
101.782
101.324
100.976
100.713
100.517
100.372
100.265
100.187
100.131
100.091
100.063
100.043
100.029
100.02
100.013
100.009
100.006
100.004
100.002
100.002
100.001
100.001
100
100
100
100
100
100
100
100
100
100
100
100
100
100
100
100
100
100
100
100
100
100
100
100
100
388.413
365.348
342.605
320.391
298.896
278.291
258.723
240.314
223.158
207.317
192.827
179.696
167.907
157.422
148.183
140.116
133.139
127.159
122.082
117.811
114.25
111.31
108.903
106.952
105.384
104.135
103.15
102.38
101.784
101.325
100.977
100.714
100.518
100.372
100.265
100.188
100.131
100.091
100.063
100.043
100.029
100.02
100.013
100.009
100.006
100.004
100.002
100.002
100.001
100.001
100
100
100
100
100
100
100
100
100
100
100
100
100
100
100
100
100
100
100
100
100
100
100
100
100
388.415
365.355
342.616
320.406
298.914
278.312
258.746
240.339
223.183
207.342
192.852
179.721
167.931
157.444
148.203
140.134
133.155
127.173
122.094
117.821
114.259
111.317
108.909
106.957
105.388
104.138
103.153
102.382
101.785
101.327
100.978
100.715
100.518
100.372
100.266
100.188
100.132
100.092
100.063
100.043
100.029
100.02
100.013
100.009
100.006
100.004
100.002
100.002
100.001
100.001
100
100
100
100
100
100
100
100
100
100
100
100
100
100
100
100
100
100
100
100
100
100
100
100
100
388.417
365.359
342.624
320.417
298.927
278.327
258.763
240.357
223.202
207.361
192.87
179.738
167.947
157.46
148.217
140.147
133.166
127.183
122.103
117.829
114.265
111.322
108.914
106.96
105.391
104.141
103.155
102.384
101.786
101.327
100.978
100.715
100.518
100.373
100.266
100.188
100.132
100.092
100.063
100.043
100.029
100.02
100.013
100.009
100.006
100.004
100.002
100.002
100.001
100.001
100
100
100
100
100
100
100
100
100
100
100
100
100
100
100
100
100
100
100
100
100
100
100
100
100
388.418
365.363
342.63
320.425
298.937
278.338
258.775
240.37
223.215
207.374
192.883
179.751
167.959
157.471
148.227
140.156
133.175
127.191
122.109
117.834
114.27
111.326
108.917
106.963
105.393
104.142
103.156
102.385
101.787
101.328
100.979
100.715
100.519
100.373
100.266
100.188
100.132
100.092
100.063
100.043
100.029
100.02
100.013
100.009
100.006
100.004
100.002
100.002
100.001
100.001
100
100
100
100
100
100
100
100
100
100
100
100
100
100
100
100
100
100
100
100
100
100
100
100
100
388.419
365.365
342.634
320.43
298.943
278.345
258.783
240.379
223.224
207.383
192.893
179.76
167.968
157.479
148.234
140.163
133.18
127.196
122.114
117.838
114.273
111.329
108.919
106.965
105.394
104.144
103.157
102.385
101.788
101.328
100.979
100.716
100.519
100.373
100.266
100.188
100.132
100.092
100.063
100.043
100.029
100.02
100.013
100.009
100.006
100.004
100.002
100.002
100.001
100.001
100
100
100
100
100
100
100
100
100
100
100
100
100
100
100
100
100
100
100
100
100
100
100
100
100
388.419
365.367
342.637
320.434
298.948
278.351
258.789
240.385
223.23
207.39
192.899
179.766
167.974
157.484
148.24
140.168
133.185
127.2
122.117
117.841
114.276
111.331
108.921
106.966
105.395
104.144
103.158
102.386
101.788
101.329
100.979
100.716
100.519
100.373
100.266
100.188
100.132
100.092
100.063
100.043
100.029
100.02
100.013
100.009
100.006
100.004
100.002
100.002
100.001
100.001
100
100
100
100
100
100
100
100
100
100
100
100
100
100
100
100
100
100
100
100
100
100
100
100
100
388.42
365.368
342.639
320.436
298.951
278.354
258.793
240.389
223.235
207.394
192.904
179.77
167.978
157.488
148.243
140.171
133.188
127.202
122.119
117.843
114.277
111.332
108.922
106.967
105.396
104.145
103.158
102.386
101.788
101.329
100.98
100.716
100.519
100.373
100.266
100.188
100.132
100.092
100.063
100.043
100.029
100.02
100.013
100.009
100.006
100.004
100.002
100.002
100.001
100.001
100
100
100
100
100
100
100
100
100
100
100
100
100
100
100
100
100
100
100
100
100
100
100
100
100
388.42
365.369
342.64
320.438
298.953
278.357
258.796
240.392
223.238
207.398
192.907
179.773
167.981
157.491
148.246
140.173
133.19
127.204
122.121
117.844
114.278
111.333
108.923
106.968
105.397
104.146
103.158
102.387
101.788
101.329
100.98
100.716
100.519
100.373
100.266
100.188
100.132
100.092
100.063
100.043
100.029
100.02
100.013
100.009
100.006
100.004
100.002
100.002
100.001
100.001
100
100
100
100
100
100
100
100
100
100
100
100
100
100
100
100
100
100
100
100
100
100
100
100
100
388.42
365.369
342.641
320.439
298.955
278.358
258.798
240.394
223.24
207.4
192.909
179.775
167.983
157.493
148.247
140.175
133.191
127.205
122.122
117.845
114.279
111.334
108.923
106.968
105.397
104.146
103.159
102.387
101.789
101.329
100.98
100.716
100.519
100.373
100.266
100.188
100.132
100.092
100.063
100.043
100.029
100.02
100.013
100.009
100.006
100.004
100.002
100.002
100.001
100.001
100
100
100
100
100
100
100
100
100
100
100
100
100
100
100
100
100
100
100
100
100
100
100
100
100
388.42
365.37
342.641
320.44
298.956
278.36
258.799
240.395
223.241
207.401
192.91
179.777
167.984
157.494
148.248
140.176
133.192
127.206
122.123
117.845
114.28
111.334
108.923
106.968
105.397
104.146
103.159
102.387
101.789
101.329
100.98
100.716
100.519
100.373
100.266
100.188
100.132
100.092
100.063
100.043
100.029
100.02
100.013
100.009
100.006
100.004
100.002
100.002
100.001
100.001
100
100
100
100
100
100
100
100
100
100
100
100
100
100
100
100
100
100
100
100
100
100
100
100
100
388.421
365.37
342.642
320.441
298.956
278.36
258.8
240.396
223.242
207.402
192.911
179.778
167.985
157.495
148.249
140.176
133.193
127.207
122.123
117.846
114.28
111.335
108.924
106.969
105.397
104.146
103.159
102.387
101.789
101.329
100.98
100.716
100.519
100.373
100.266
100.188
100.132
100.092
100.063
100.043
100.029
100.02
100.013
100.009
100.006
100.004
100.002
100.002
100.001
100.001
100
100
100
100
100
100
100
100
100
100
100
100
100
100
100
100
100
100
100
100
100
100
100
100
100
388.421
365.37
342.642
320.441
298.957
278.361
258.801
240.397
223.243
207.403
192.912
179.778
167.986
157.495
148.25
140.177
133.193
127.207
122.123
117.846
114.28
111.335
108.924
106.969
105.397
104.146
103.159
102.387
101.789
101.329
100.98
100.716
100.519
100.373
100.266
100.188
100.132
100.092
100.063
100.043
100.029
100.02
100.013
100.009
100.006
100.004
100.002
100.002
100.001
100.001
100
100
100
100
100
100
100
100
100
100
100
100
100
100
100
100
100
100
100
100
100
100
100
100
100
388.421
365.37
342.642
320.441
298.957
278.361
258.801
240.397
223.244
207.403
192.912
179.779
167.986
157.496
148.25
140.177
133.193
127.207
122.124
117.846
114.28
111.335
108.924
106.969
105.397
104.146
103.159
102.387
101.789
101.329
100.98
100.716
100.519
100.373
100.266
100.188
100.132
100.092
100.063
100.043
100.029
100.02
100.013
100.009
100.006
100.004
100.002
100.002
100.001
100.001
100
100
100
100
100
100
100
100
100
100
100
100
100
100
100
100
100
100
100
100
100
100
100
100
100
388.421
365.37
342.642
320.441
298.957
278.362
258.801
240.398
223.244
207.404
192.913
179.779
167.986
157.496
148.25
140.177
133.193
127.207
122.124
117.847
114.281
111.335
108.924
106.969
105.398
104.146
103.159
102.387
101.789
101.329
100.98
100.716
100.519
100.373
100.266
100.188
100.132
100.092
100.063
100.043
100.029
100.02
100.013
100.009
100.006
100.004
100.002
100.002
100.001
100.001
100
100
100
100
100
100
100
100
100
100
100
100
100
100
100
100
100
100
100
100
100
100
100
100
100
388.421
365.37
342.642
320.441
298.958
278.362
258.801
240.398
223.244
207.404
192.913
179.779
167.987
157.496
148.251
140.178
133.194
127.207
122.124
117.847
114.281
111.335
108.924
106.969
105.398
104.146
103.159
102.387
101.789
101.33
100.98
100.716
100.519
100.373
100.266
100.188
100.132
100.092
100.063
100.043
100.029
100.02
100.013
100.009
100.006
100.004
100.002
100.002
100.001
100.001
100
100
100
100
100
100
100
100
100
100
100
100
100
100
100
100
100
100
100
100
100
100
100
100
100
388.421
365.371
342.643
320.441
298.958
278.362
258.802
240.398
223.244
207.404
192.913
179.779
167.987
157.496
148.251
140.178
133.194
127.208
122.124
117.847
114.281
111.335
108.924
106.969
105.398
104.146
103.159
102.387
101.789
101.33
100.98
100.716
100.519
100.373
100.266
100.188
100.132
100.092
100.063
100.043
100.029
100.02
100.013
100.009
100.006
100.004
100.002
100.002
100.001
100.001
100
100
100
100
100
100
100
100
100
100
100
100
100
100
100
100
100
100
100
100
100
100
100
100
100
388.421
365.371
342.643
320.442
298.958
278.362
258.802
240.398
223.244
207.404
192.913
179.779
167.987
157.496
148.251
140.178
133.194
127.208
122.124
117.847
114.281
111.335
108.924
106.969
105.398
104.146
103.159
102.387
101.789
101.33
100.98
100.716
100.519
100.373
100.266
100.188
100.132
100.092
100.063
100.043
100.029
100.02
100.013
100.009
100.006
100.004
100.002
100.002
100.001
100.001
100
100
100
100
100
100
100
100
100
100
100
100
100
100
100
100
100
100
100
100
100
100
100
100
100
388.421
365.371
342.643
320.442
298.958
278.362
258.802
240.398
223.244
207.404
192.913
179.779
167.987
157.496
148.251
140.178
133.194
127.208
122.124
117.847
114.281
111.335
108.924
106.969
105.398
104.146
103.159
102.387
101.789
101.33
100.98
100.716
100.519
100.373
100.266
100.188
100.132
100.092
100.063
100.043
100.029
100.02
100.013
100.009
100.006
100.004
100.002
100.002
100.001
100.001
100
100
100
100
100
100
100
100
100
100
100
100
100
100
100
100
100
100
100
100
100
100
100
100
100
388.421
365.371
342.643
320.442
298.958
278.362
258.802
240.398
223.244
207.404
192.913
179.779
167.987
157.496
148.251
140.178
133.194
127.208
122.124
117.847
114.281
111.335
108.924
106.969
105.398
104.146
103.159
102.387
101.789
101.33
100.98
100.716
100.519
100.373
100.266
100.188
100.132
100.092
100.063
100.043
100.029
100.02
100.013
100.009
100.006
100.004
100.002
100.002
100.001
100.001
100
100
100
100
100
100
100
100
100
100
100
100
100
100
100
100
100
100
100
100
100
100
100
100
100
388.421
365.371
342.643
320.442
298.958
278.362
258.802
240.398
223.244
207.404
192.913
179.779
167.987
157.496
148.251
140.178
133.194
127.208
122.124
117.847
114.281
111.335
108.924
106.969
105.398
104.146
103.159
102.387
101.789
101.33
100.98
100.716
100.519
100.373
100.266
100.188
100.132
100.092
100.063
100.043
100.029
100.02
100.013
100.009
100.006
100.004
100.002
100.002
100.001
100.001
100
100
100
100
100
100
100
100
100
100
100
100
100
100
100
100
100
100
100
100
100
100
100
100
100
388.421
365.371
342.643
320.442
298.958
278.362
258.802
240.398
223.244
207.404
192.913
179.779
167.987
157.496
148.251
140.178
133.194
127.208
122.124
117.847
114.281
111.335
108.924
106.969
105.398
104.146
103.159
102.387
101.789
101.33
100.98
100.716
100.519
100.373
100.266
100.188
100.132
100.092
100.063
100.043
100.029
100.02
100.013
100.009
100.006
100.004
100.002
100.002
100.001
100.001
100
100
100
100
100
100
100
100
100
100
100
100
100
100
100
100
100
100
100
100
100
100
100
100
100
388.421
365.371
342.643
320.442
298.958
278.362
258.802
240.398
223.244
207.404
192.913
179.78
167.987
157.496
148.251
140.178
133.194
127.208
122.124
117.847
114.281
111.335
108.924
106.969
105.398
104.146
103.159
102.387
101.789
101.33
100.98
100.716
100.519
100.373
100.266
100.188
100.132
100.092
100.063
100.043
100.029
100.02
100.013
100.009
100.006
100.004
100.002
100.002
100.001
100.001
100
100
100
100
100
100
100
100
100
100
100
100
100
100
100
100
100
100
100
100
100
100
100
100
100
388.421
365.371
342.643
320.442
298.958
278.362
258.802
240.398
223.244
207.404
192.913
179.78
167.987
157.496
148.251
140.178
133.194
127.208
122.124
117.847
114.281
111.335
108.924
106.969
105.398
104.146
103.159
102.387
101.789
101.33
100.98
100.716
100.519
100.373
100.266
100.188
100.132
100.092
100.063
100.043
100.029
100.02
100.013
100.009
100.006
100.004
100.002
100.002
100.001
100.001
100
100
100
100
100
100
100
100
100
100
100
100
100
100
100
100
100
100
100
100
100
100
100
100
100
388.421
365.371
342.643
320.442
298.958
278.362
258.802
240.398
223.244
207.404
192.913
179.78
167.987
157.496
148.251
140.178
133.194
127.208
122.124
117.847
114.281
111.335
108.924
106.969
105.398
104.146
103.159
102.387
101.789
101.33
100.98
100.716
100.519
100.373
100.266
100.188
100.132
100.092
100.063
100.043
100.029
100.02
100.013
100.009
100.006
100.004
100.002
100.002
100.001
100.001
100
100
100
100
100
100
100
100
100
100
100
100
100
100
100
100
100
100
100
100
100
100
100
100
100
388.421
365.371
342.643
320.442
298.958
278.362
258.802
240.398
223.244
207.404
192.913
179.78
167.987
157.496
148.251
140.178
133.194
127.208
122.124
117.847
114.281
111.335
108.924
106.969
105.398
104.146
103.159
102.387
101.789
101.33
100.98
100.716
100.519
100.373
100.266
100.188
100.132
100.092
100.063
100.043
100.029
100.02
100.013
100.009
100.006
100.004
100.002
100.002
100.001
100.001
100
100
100
100
100
100
100
100
100
100
100
100
100
100
100
100
100
100
100
100
100
100
100
100
100
388.421
365.371
342.643
320.442
298.958
278.362
258.802
240.398
223.244
207.404
192.913
179.78
167.987
157.496
148.251
140.178
133.194
127.208
122.124
117.847
114.281
111.335
108.924
106.969
105.398
104.146
103.159
102.387
101.789
101.33
100.98
100.716
100.519
100.373
100.266
100.188
100.132
100.092
100.063
100.043
100.029
100.02
100.013
100.009
100.006
100.004
100.002
100.002
100.001
100.001
100
100
100
100
100
100
100
100
100
100
100
100
100
100
100
100
100
100
100
100
100
100
100
100
100
388.421
365.371
342.643
320.442
298.958
278.362
258.802
240.398
223.244
207.404
192.913
179.78
167.987
157.496
148.251
140.178
133.194
127.208
122.124
117.847
114.281
111.335
108.924
106.969
105.398
104.146
103.159
102.387
101.789
101.33
100.98
100.716
100.519
100.373
100.266
100.188
100.132
100.092
100.063
100.043
100.029
100.02
100.013
100.009
100.006
100.004
100.002
100.002
100.001
100.001
100
100
100
100
100
100
100
100
100
100
100
100
100
100
100
100
100
100
100
100
100
100
100
100
100
388.421
365.371
342.643
320.442
298.958
278.362
258.802
240.398
223.244
207.404
192.913
179.78
167.987
157.496
148.251
140.178
133.194
127.208
122.124
117.847
114.281
111.335
108.924
106.969
105.398
104.146
103.159
102.387
101.789
101.33
100.98
100.716
100.519
100.373
100.266
100.188
100.132
100.092
100.063
100.043
100.029
100.02
100.013
100.009
100.006
100.004
100.002
100.002
100.001
100.001
100
100
100
100
100
100
100
100
100
100
100
100
100
100
100
100
100
100
100
100
100
100
100
100
100
388.421
365.371
342.643
320.442
298.958
278.362
258.802
240.398
223.244
207.404
192.913
179.78
167.987
157.496
148.251
140.178
133.194
127.208
122.124
117.847
114.281
111.335
108.924
106.969
105.398
104.146
103.159
102.387
101.789
101.33
100.98
100.716
100.519
100.373
100.266
100.188
100.132
100.092
100.063
100.043
100.029
100.02
100.013
100.009
100.006
100.004
100.002
100.002
100.001
100.001
100
100
100
100
100
100
100
100
100
100
100
100
100
100
100
100
100
100
100
100
100
100
100
100
100
388.421
365.371
342.643
320.442
298.958
278.362
258.802
240.398
223.244
207.404
192.913
179.78
167.987
157.496
148.251
140.178
133.194
127.208
122.124
117.847
114.281
111.335
108.924
106.969
105.398
104.146
103.159
102.387
101.789
101.33
100.98
100.716
100.519
100.373
100.266
100.188
100.132
100.092
100.063
100.043
100.029
100.02
100.013
100.009
100.006
100.004
100.002
100.002
100.001
100.001
100
100
100
100
100
100
100
100
100
100
100
100
100
100
100
100
100
100
100
100
100
100
100
100
100
388.421
365.371
342.643
320.442
298.958
278.362
258.802
240.398
223.244
207.404
192.913
179.78
167.987
157.496
148.251
140.178
133.194
127.208
122.124
117.847
114.281
111.335
108.924
106.969
105.398
104.146
103.159
102.387
101.789
101.33
100.98
100.716
100.519
100.373
100.266
100.188
100.132
100.092
100.063
100.043
100.029
100.02
100.013
100.009
100.006
100.004
100.002
100.002
100.001
100.001
100
100
100
100
100
100
100
100
100
100
100
100
100
100
100
100
100
100
100
100
100
100
100
100
100
388.421
365.371
342.643
320.442
298.958
278.362
258.802
240.398
223.244
207.404
192.913
179.78
167.987
157.496
148.251
140.178
133.194
127.208
122.124
117.847
114.281
111.335
108.924
106.969
105.398
104.146
103.159