/*--------------------------------*- C++ -*----------------------------------*\
  =========                 |
  \\      /  F ield         | OpenFOAM: The Open Source CFD Toolbox
   \\    /   O peration     | Website:  https://openfoam.org
    \\  /    A nd           | Version:  10
     \\/     M anipulation  |
\*---------------------------------------------------------------------------*/
FoamFile
{
    format      ascii;
    class       volScalarField;
    location    "72";
    object      gradTx;
}
// * * * * * * * * * * * * * * * * * * * * * * * * * * * * * * * * * * * * * //

dimensions      [0 -1 0 1 0 0 0];

internalField   nonuniform List<scalar> 
11250
(
14212.9
7848.12
4899.75
3284.53
2281.7
1607.12
1132.67
792.239
547.04
371.589
247.711
161.785
103.403
64.6208
39.4651
23.5446
13.7186
7.80581
4.33713
2.35332
1.24709
0.645516
0.32643
0.161299
0.0778985
0.0367779
0.0169791
0.00766701
0.00338719
0.00146445
0.0006198
0.000256857
0.00010426
4.14614e-05
1.61584e-05
6.17295e-06
2.31233e-06
8.4951e-07
3.06189e-07
1.08285e-07
3.7589e-08
1.28344e-08
4.27632e-09
1.3819e-09
4.13802e-10
1.22933e-10
1.31714e-11
-4.39047e-12
2.19524e-12
0
1.09762e-12
0
1.4269e-11
0
1.09762e-12
0
1.09762e-12
-2.19524e-12
0
2.19524e-12
0
1.09762e-12
0
-2.19524e-11
9.87856e-12
-1.09762e-12
-1.09762e-12
0
1.09762e-12
0
-5.48809e-12
0
-7.68332e-12
0
-9.87856e-12
4010.39
4451.73
3597.93
2712.05
1998.66
1454.19
1044.82
739.786
515.027
351.864
235.547
154.326
98.8749
61.9092
37.8669
22.6194
13.1931
7.51328
4.17764
2.2682
1.20263
0.622797
0.315071
0.155743
0.0752398
0.035533
0.0164087
0.00741124
0.00327492
0.0014162
0.000599489
0.000248483
0.000100877
4.01224e-05
1.56388e-05
5.97529e-06
2.23855e-06
8.22519e-07
2.96483e-07
1.04875e-07
3.64014e-08
1.24173e-08
4.15119e-09
1.34787e-09
4.35754e-10
1.35007e-10
2.96357e-11
1.09762e-12
-2.19523e-12
0
-1.75619e-11
0
-1.4269e-11
8.78094e-12
-1.31714e-11
-6.5857e-12
-1.4269e-11
0
-4.39047e-12
0
0
-1.09762e-12
0
2.41476e-11
5.48809e-12
0
-1.09762e-12
1.09762e-12
-1.09762e-12
0
-8.78094e-12
0
8.78094e-12
2.19523e-12
0
1394.01
2369.91
2358.56
2005.73
1590.53
1211.92
897.4
648.514
457.997
316.159
213.283
140.563
90.4704
56.8531
34.8765
20.8832
12.2047
6.96204
3.87663
2.10733
1.11851
0.579763
0.293536
0.145201
0.0701914
0.0331676
0.0153242
0.00692462
0.00306118
0.00132428
0.00056078
0.000232515
9.44236e-05
3.75666e-05
1.46466e-05
5.59761e-06
2.09757e-06
7.70912e-07
2.77929e-07
9.83268e-08
3.41436e-08
1.16293e-08
3.90532e-09
1.29848e-09
4.33559e-10
1.41593e-10
4.71976e-11
1.86595e-11
0
0
1.09762e-12
-1.09762e-12
4.39047e-12
8.78094e-12
0
-2.19523e-12
0
4.39047e-12
0
-2.19524e-12
0
0
0
-1.4269e-11
-1.09762e-11
2.19524e-12
3.29285e-12
2.19523e-12
0
0
3.29285e-12
8.78094e-12
0
-1.09762e-12
8.78094e-12
596.033
1293.58
1489.2
1398.12
1187
948.523
726.41
537.831
386.656
270.5
184.352
122.465
79.3189
50.0977
30.8592
18.5406
10.8664
6.21349
3.46688
1.8879
1.00356
0.520875
0.264029
0.13074
0.063259
0.0299166
0.0138325
0.00625476
0.00276675
0.00119759
0.000507394
0.000210482
8.5514e-05
3.40361e-05
1.32753e-05
5.07544e-06
1.90259e-06
6.99474e-07
2.52285e-07
8.92934e-08
3.10187e-08
1.05492e-08
3.53433e-09
1.17774e-09
3.85264e-10
1.16347e-10
4.82952e-11
6.58571e-12
0
0
1.53666e-11
0
1.09762e-12
-8.78094e-12
1.31714e-11
5.48809e-12
1.4269e-11
-4.39047e-12
5.48809e-12
6.58571e-12
0
-2.19523e-12
0
-1.09762e-12
-4.39047e-12
3.29285e-12
0
1.09762e-12
0
2.19524e-12
5.48809e-12
0
-1.09762e-12
-1.09762e-12
-5.48809e-12
298.291
735.792
932.538
943.632
848.347
707.917
560.2
425.231
311.605
221.254
152.558
102.289
66.7488
42.4165
26.2595
15.8434
9.31848
5.34437
2.98963
1.63163
0.869014
0.451806
0.229361
0.113724
0.0550911
0.0260816
0.0120709
0.00546298
0.00241845
0.00104759
0.000444142
0.000184358
7.49442e-05
2.98453e-05
1.16467e-05
4.45491e-06
1.67073e-06
6.14481e-07
2.21729e-07
7.85115e-08
2.72813e-08
9.28036e-09
3.11284e-09
1.01969e-09
3.24895e-10
8.23213e-11
1.09762e-11
-7.68332e-12
1.09762e-12
3.29285e-12
8.78094e-12
1.09762e-12
-5.48809e-12
-9.87856e-12
0
5.48809e-12
1.09762e-12
-8.78094e-12
-5.48809e-12
0
0
0
0
1.86595e-11
0
-1.09762e-12
-1.09762e-12
-3.29285e-12
0
-1.09762e-12
-9.87856e-12
-1.20738e-11
-7.68332e-12
-1.09762e-12
-1.09762e-12
164.677
433.435
584.487
624.759
587.957
509.176
415.079
322.626
240.931
173.687
121.237
82.1029
54.0171
34.5597
21.5172
13.0444
7.70346
4.43352
2.48756
1.36116
0.726619
0.378533
0.192506
0.095602
0.046378
0.0219847
0.0101866
0.00461505
0.00204504
0.000886626
0.000376208
0.000156278
6.3574e-05
2.53341e-05
9.89236e-06
3.78609e-06
1.42068e-06
5.228e-07
1.88724e-07
6.68328e-08
2.32146e-08
7.91821e-09
2.63867e-09
8.50654e-10
2.62331e-10
8.67118e-11
2.305e-11
7.68332e-12
-2.19524e-12
-2.19523e-12
-6.58571e-12
-1.09762e-12
0
-3.29285e-12
-1.09762e-12
0
-1.09762e-12
2.19524e-12
1.09762e-12
-6.58571e-12
1.09762e-12
2.19523e-12
1.09762e-12
0
-1.09762e-12
-4.39047e-12
0
0
0
-2.19524e-12
4.39047e-12
1.09762e-12
-4.39047e-12
0
0
95.9854
261.35
366.872
407.989
397.91
355.361
297.289
236.102
179.485
131.311
92.7828
63.4751
42.1179
27.1401
17.0004
10.3596
6.14511
3.55023
1.9986
1.0968
0.587
0.306493
0.156184
0.0777039
0.0377566
0.0179241
0.00831616
0.00377223
0.00167343
0.000726256
0.000308453
0.000128245
5.22131e-05
2.08228e-05
8.13671e-06
3.11629e-06
1.1701e-06
4.3085e-07
1.55606e-07
5.51377e-08
1.91633e-08
6.55826e-09
2.18206e-09
6.90401e-10
1.90985e-10
7.24428e-11
3.29285e-11
1.09762e-12
-1.09762e-12
-4.39047e-12
-9.87856e-12
0
0
-1.09762e-12
0
-9.87856e-12
-1.09762e-12
-7.68332e-12
4.39047e-12
-4.39047e-12
0
-2.19523e-12
1.09762e-12
-5.48809e-12
2.19523e-12
2.19524e-12
0
0
-1.20738e-11
1.09762e-12
1.31714e-11
2.19524e-12
0
-7.68332e-12
0
57.4903
159.542
229.986
263.2
263.887
241.657
206.678
167.296
129.264
95.8856
68.5515
47.3677
31.6981
20.5745
12.9683
7.94512
4.73492
2.74665
1.55175
0.85425
0.458457
0.239968
0.122554
0.0610935
0.0297387
0.0141407
0.0065705
0.00298443
0.00132559
0.000575957
0.000244879
0.000101914
4.15311e-05
1.65772e-05
6.48302e-06
2.48484e-06
9.3368e-07
3.44035e-07
1.24321e-07
4.4066e-08
1.53381e-08
5.23454e-09
1.75509e-09
5.56492e-10
1.53666e-10
3.40261e-11
2.19523e-12
1.97571e-11
1.09762e-12
-3.29285e-12
5.48809e-12
0
0
4.39047e-12
1.09762e-12
4.39047e-12
2.305e-11
3.29285e-12
-3.29285e-12
0
0
0
-3.29285e-12
0
0
0
7.68332e-12
-1.09762e-12
0
1.09762e-12
-1.09762e-12
0
6.5857e-12
0
4.39047e-12
34.8168
97.745
143.478
167.682
171.752
160.513
139.851
115.094
90.2339
67.7883
49.0004
34.1826
23.0644
15.0782
9.56337
5.89101
3.52754
2.05486
1.16522
0.643572
0.346403
0.181791
0.0930609
0.0464896
0.0226735
0.0108001
0.00502631
0.00228639
0.00101692
0.000442395
0.000188311
7.84566e-05
3.20046e-05
1.27869e-05
5.00524e-06
1.92008e-06
7.22082e-07
2.6629e-07
9.63028e-08
3.4148e-08
1.18795e-08
4.03704e-09
1.338e-09
4.55511e-10
1.53666e-10
4.60999e-11
9.87856e-12
2.41476e-11
1.09762e-12
-1.20738e-11
-2.19524e-12
0
-1.09762e-12
-3.29285e-12
0
8.78094e-12
1.4269e-11
1.4269e-11
-4.39047e-12
4.39047e-12
-1.09762e-12
2.19523e-12
8.78094e-12
0
-1.09762e-12
0
1.4269e-11
2.19523e-12
1.31714e-11
-1.09762e-12
2.19523e-12
5.48809e-12
6.58571e-12
8.78094e-12
2.19524e-12
21.1087
59.7113
88.7746
105.383
109.752
104.27
92.271
77.0277
61.172
46.4858
33.9449
23.8928
16.249
10.6966
6.82587
4.22744
2.54349
1.48792
0.846913
0.469342
0.253387
0.133338
0.0684249
0.0342585
0.0167421
0.00798955
0.00372462
0.00169692
0.00075583
0.000329255
0.000140327
5.85332e-05
2.39035e-05
9.56014e-06
3.74585e-06
1.43832e-06
5.414e-07
1.99819e-07
7.23275e-08
2.56821e-08
8.93351e-09
3.04479e-09
1.04274e-09
3.7319e-10
1.54764e-10
6.36618e-11
2.85381e-11
-8.78094e-12
0
4.39047e-12
-2.19524e-12
-1.09762e-12
0
0
0
-5.48809e-12
-1.97571e-11
-1.09762e-12
2.19523e-12
-1.09762e-12
-1.09762e-12
0
1.09762e-12
-1.09762e-12
-1.09762e-12
-1.09762e-12
-6.58571e-12
0
-1.09762e-12
0
1.09762e-12
0
-6.58571e-12
0
1.09762e-12
12.7293
36.1977
54.3178
65.2471
68.8457
66.286
59.4242
50.2176
40.3332
30.9663
22.8226
16.198
11.0978
7.35405
4.72061
2.939
1.7766
1.04367
0.596295
0.331578
0.17956
0.0947505
0.0487455
0.0244616
0.0119795
0.00572776
0.00267494
0.00122069
0.000544536
0.000237547
0.000101375
4.23381e-05
1.73101e-05
6.93077e-06
2.71847e-06
1.04488e-06
3.93687e-07
1.45435e-07
5.27098e-08
1.87583e-08
6.55936e-09
2.24902e-09
7.84797e-10
2.83185e-10
1.24031e-10
3.29285e-11
8.78094e-12
-1.53666e-11
-1.09762e-12
1.20738e-11
2.19523e-12
0
2.19523e-12
4.39047e-12
2.19523e-12
1.09762e-12
-1.4269e-11
0
4.39047e-12
-1.09762e-12
3.29285e-12
1.4269e-11
-8.78094e-12
0
0
-9.87856e-12
-3.7319e-11
-1.09762e-12
0
0
-3.29285e-12
-5.48809e-12
0
-2.19523e-12
-3.29285e-12
7.60154
21.6988
32.7878
39.7459
42.3755
41.2468
37.3807
31.9216
25.8924
20.0616
14.91
10.6631
7.35625
4.90513
3.16636
1.98134
1.20318
0.709732
0.407013
0.22709
0.123354
0.0652734
0.0336663
0.016934
0.00831077
0.0039815
0.00186281
0.000851518
0.000380453
0.000166212
7.10305e-05
2.97035e-05
1.21593e-05
4.87413e-06
1.91389e-06
7.36408e-07
2.77754e-07
1.0276e-07
3.73025e-08
1.32823e-08
4.66268e-09
1.60581e-09
5.45516e-10
1.83302e-10
4.93928e-11
1.97571e-11
1.09762e-12
1.09762e-12
3.29285e-12
2.19523e-12
4.39047e-12
4.39047e-12
0
1.09762e-12
-1.09762e-12
-1.09762e-12
-3.29285e-12
0
-1.09762e-12
2.19524e-12
0
-1.09762e-12
5.48809e-12
0
-1.09762e-11
-5.48809e-12
-2.19524e-12
-1.09762e-12
0
1.09762e-12
0
0
4.39047e-12
0
1.09762e-12
4.48131
12.8288
19.4883
23.7937
25.5804
25.1229
22.9765
19.7977
16.197
12.6516
9.4739
6.82267
4.73693
3.17702
2.06174
1.29637
0.790696
0.468281
0.269527
0.15088
0.0822062
0.043621
0.022556
0.0113722
0.0055933
0.00268499
0.00125856
0.000576303
0.000257906
0.000112845
4.82927e-05
2.02222e-05
8.28861e-06
3.32656e-06
1.30771e-06
5.03734e-07
1.90226e-07
7.04714e-08
2.56184e-08
9.12559e-09
3.18529e-09
1.09981e-09
3.44652e-10
8.23213e-11
3.29285e-12
-9.87856e-12
-1.09762e-11
1.09762e-12
6.58571e-12
1.09762e-12
0
1.09762e-12
0
0
-1.09762e-12
0
1.09762e-12
-8.78094e-12
-7.68332e-12
-3.29285e-12
-1.09762e-12
-1.4269e-11
1.09762e-12
-1.20738e-11
-1.09762e-12
1.09762e-11
2.305e-11
-2.19523e-12
0
0
-1.09762e-12
-4.39047e-12
-8.78094e-12
1.09762e-12
6.58571e-12
2.60217
7.46588
11.3889
13.9845
15.1369
14.9767
13.803
11.9851
9.87903
7.77209
5.85949
4.24649
2.96564
1.99983
1.30427
0.823854
0.504605
0.299999
0.173279
0.0973161
0.0531802
0.0282965
0.0146689
0.00741306
0.00365395
0.00175757
0.00082539
0.000378616
0.000169716
7.4373e-05
3.1875e-05
1.33659e-05
5.48552e-06
2.2043e-06
8.67573e-07
3.34575e-07
1.26482e-07
4.6888e-08
1.70504e-08
6.08848e-09
2.13267e-09
7.26623e-10
2.28304e-10
5.48809e-11
-7.68332e-12
-3.7319e-11
-1.86595e-11
0
-3.29285e-12
-1.09762e-12
0
-2.19523e-12
-1.09762e-12
1.09762e-12
0
0
4.39047e-12
0
1.09762e-12
0
-1.09762e-12
-1.09762e-12
-6.5857e-12
0
1.20738e-11
8.78094e-12
2.19523e-12
0
-1.09762e-12
-2.19523e-12
-6.5857e-12
4.39047e-12
0
0
0
1.48585
4.27052
6.53623
8.06309
8.77624
8.73732
8.10522
7.08448
5.87792
4.65374
3.52985
2.57284
1.80649
1.22429
0.802197
0.508901
0.312943
0.186737
0.108226
0.0609726
0.0334165
0.0178284
0.00926533
0.00469317
0.00231829
0.00111736
0.000525723
0.000241582
0.00010847
4.76082e-05
2.04343e-05
8.5806e-06
3.52631e-06
1.41882e-06
5.59114e-07
2.15861e-07
8.16584e-08
3.02931e-08
1.10102e-08
3.92947e-09
1.39178e-09
4.98318e-10
1.74521e-10
7.24428e-11
1.64643e-11
-1.09762e-12
1.75619e-11
-4.39047e-12
-9.87856e-12
-1.09762e-12
0
-3.29285e-12
-8.78094e-12
0
-1.4269e-11
-1.09762e-12
0
7.68332e-12
8.78094e-12
6.58571e-12
1.09762e-12
-4.39047e-12
0
1.31714e-11
9.87856e-12
0
-1.09762e-12
2.19523e-12
-4.39047e-12
0
-7.68332e-12
3.29285e-12
8.78094e-12
9.87856e-12
-3.29285e-12
0.833265
2.39831
3.68066
4.55771
4.98384
4.98765
4.65263
4.09003
3.41295
2.71737
2.07233
1.51834
1.07133
0.729427
0.480019
0.30575
0.188727
0.113011
0.0657108
0.0371324
0.0204081
0.0109167
0.00568723
0.00288733
0.0014293
0.000690266
0.000325383
0.000149785
6.73657e-05
2.96139e-05
1.27299e-05
5.35303e-06
2.20289e-06
8.87482e-07
3.50175e-07
1.35368e-07
5.12697e-08
1.9025e-08
6.93694e-09
2.49269e-09
8.8907e-10
3.29285e-10
1.27324e-10
5.59785e-11
5.1588e-11
3.7319e-11
2.305e-11
8.78094e-12
-1.09762e-12
0
1.09762e-12
-1.09762e-12
0
-2.19524e-12
0
-4.39047e-12
-4.39047e-12
0
8.78094e-12
-1.09762e-12
0
1.09762e-12
0
-2.19524e-12
5.48809e-12
-4.39047e-12
-1.09762e-12
-1.09762e-12
0
1.09762e-12
-4.39047e-12
-7.68332e-12
-2.19524e-12
2.19523e-12
5.48809e-12
0.458529
1.32127
2.03227
2.52447
2.77123
2.78564
2.61096
2.30667
1.93452
1.54795
1.18627
0.873234
0.61892
0.423195
0.279618
0.178778
0.110745
0.0665353
0.0388078
0.0219937
0.0121207
0.00650008
0.0033944
0.00172714
0.000856774
0.000414587
0.000195795
9.02897e-05
4.06752e-05
1.79091e-05
7.70996e-06
3.24674e-06
1.33795e-06
5.39742e-07
2.13246e-07
8.25342e-08
3.12975e-08
1.16282e-08
4.25437e-09
1.53557e-09
5.51004e-10
1.82205e-10
8.34189e-11
4.50023e-11
1.97571e-11
4.17095e-11
1.20738e-11
2.52452e-11
1.09762e-11
0
-1.09762e-12
4.39047e-12
8.78094e-12
0
1.4269e-11
2.19523e-12
1.09762e-12
3.29285e-12
0
-2.19523e-12
-2.19523e-12
5.48809e-12
1.09762e-12
0
-9.87856e-12
-1.09762e-12
0
-3.29285e-12
4.39047e-12
-1.09762e-12
-3.29285e-12
5.48809e-12
-3.29285e-12
-9.87856e-12
-1.09762e-12
0.247418
0.713632
1.09969
1.36965
1.50848
1.52207
1.43252
1.27106
1.07072
0.860572
0.662384
0.489672
0.348488
0.23922
0.15865
0.101795
0.0632677
0.0381309
0.0223063
0.0126769
0.00700452
0.00376564
0.001971
0.00100507
0.000499606
0.000242225
0.000114604
5.29412e-05
2.38893e-05
1.05349e-05
4.54213e-06
1.91548e-06
7.90434e-07
3.1931e-07
1.26308e-07
4.89329e-08
1.85783e-08
6.91828e-09
2.51025e-09
9.11023e-10
3.23797e-10
1.31714e-10
5.1588e-11
2.19523e-11
-1.09762e-11
7.68332e-12
-2.19523e-12
-7.68332e-12
0
0
0
0
0
-1.09762e-12
-2.19524e-12
5.48809e-12
-1.09762e-12
-2.19524e-12
-9.87856e-12
0
0
-4.39047e-12
0
2.19524e-12
-4.39047e-12
1.09762e-12
8.78094e-12
4.39047e-12
0
0
9.87856e-12
1.20738e-11
5.48809e-12
-5.48809e-12
-4.39047e-12
0.130847
0.377709
0.582957
0.727692
0.80371
0.813594
0.768476
0.684458
0.578839
0.467073
0.360923
0.267845
0.191334
0.131816
0.087723
0.0564716
0.0352084
0.0212829
0.0124854
0.00711443
0.00394089
0.00212365
0.00111405
0.00056929
0.000283553
0.000137737
6.52855e-05
3.02102e-05
1.36544e-05
6.03082e-06
2.60411e-06
1.09979e-06
4.54452e-07
1.83832e-07
7.28028e-08
2.82505e-08
1.07501e-08
4.01289e-09
1.46751e-09
5.48809e-10
1.99766e-10
1.08664e-10
2.85381e-11
6.5857e-12
2.63428e-11
3.29285e-12
6.5857e-12
-7.68332e-12
9.87856e-12
1.09762e-12
0
0
0
0
1.09762e-12
-2.19523e-12
-1.09762e-12
-1.09762e-12
-1.09762e-12
2.19524e-12
-1.09762e-12
-8.78094e-12
-1.09762e-12
0
-8.78094e-12
-9.87856e-12
0
2.19523e-12
4.39047e-12
1.09762e-12
1.31714e-11
-4.39047e-12
3.29285e-12
-1.09762e-12
-1.09762e-12
0.067797
0.195842
0.302666
0.378539
0.419096
0.42545
0.403117
0.360246
0.305718
0.247562
0.191978
0.142969
0.10248
0.0708366
0.0472926
0.0305383
0.0190957
0.0115754
0.00680871
0.00388958
0.00215973
0.00116648
0.000613249
0.000314021
0.000156714
7.62658e-05
3.6213e-05
1.67855e-05
7.59894e-06
3.36143e-06
1.45361e-06
6.14782e-07
2.54404e-07
1.03053e-07
4.08731e-08
1.58869e-08
6.05226e-09
2.25451e-09
8.60532e-10
3.2709e-10
1.26226e-10
6.14666e-11
2.63428e-11
1.09762e-11
1.4269e-11
-3.29285e-12
5.48809e-12
9.87856e-12
-1.09762e-12
-8.78094e-12
0
-1.09762e-12
0
1.09762e-12
3.29285e-12
3.29285e-12
1.86595e-11
0
2.19523e-12
0
0
-6.5857e-12
-1.09762e-12
3.29285e-12
0
-1.09762e-12
-7.68332e-12
0
0
1.09762e-12
-4.39047e-12
-8.78094e-12
0
0
-5.48809e-12
0.0344091
0.0994545
0.15388
0.192775
0.213878
0.217657
0.2068
0.185356
0.157788
0.128179
0.0997181
0.0744984
0.053568
0.0371411
0.0248703
0.0161056
0.0100987
0.00613779
0.00361939
0.00207262
0.00115349
0.00062437
0.000328933
0.000168769
8.43848e-05
4.11408e-05
1.95685e-05
9.08546e-06
4.1196e-06
1.8251e-06
7.90369e-07
3.34739e-07
1.38718e-07
5.62825e-08
2.23662e-08
8.69862e-09
3.30602e-09
1.22823e-09
4.63195e-10
1.73424e-10
9.65903e-11
3.95142e-11
3.7319e-11
1.64643e-11
-1.53666e-11
-1.20738e-11
-1.97571e-11
-2.305e-11
-1.20738e-11
0
0
2.19524e-12
-1.09762e-12
2.19524e-12
-1.09762e-12
-1.09762e-12
9.87856e-12
0
0
-2.19524e-12
3.29285e-12
8.78094e-12
0
-1.86595e-11
8.78094e-12
1.09762e-11
0
1.09762e-12
-4.39047e-12
0
-1.20738e-11
0
0
-3.29285e-12
2.19524e-12
0.0171036
0.049461
0.0766048
0.0961061
0.106823
0.108947
0.103764
0.0932495
0.0796009
0.0648491
0.0505967
0.0379103
0.0273379
0.0190082
0.0127634
0.00828749
0.00520995
0.0031744
0.00187639
0.00107697
0.000600688
0.000325829
0.000172
8.84193e-05
4.42911e-05
2.16317e-05
1.03064e-05
4.79293e-06
2.17663e-06
9.65749e-07
4.18832e-07
1.77636e-07
7.37259e-08
2.99661e-08
1.19388e-08
4.66048e-09
1.79351e-09
6.82718e-10
2.51354e-10
8.34189e-11
4.60999e-11
0
1.20738e-11
4.39047e-12
-7.68332e-12
-2.19524e-12
-1.4269e-11
-2.63428e-11
0
7.68332e-12
0
1.09762e-12
0
1.09762e-12
-1.09762e-12
-2.19523e-12
-1.86595e-11
-7.68332e-12
-1.09762e-12
0
-1.09762e-12
1.09762e-11
1.09762e-12
-2.19524e-12
-1.09762e-12
-4.39047e-12
9.87856e-12
-1.09762e-12
2.19524e-12
-2.19524e-12
3.29285e-12
0
-2.19524e-12
3.29285e-12
-8.78094e-12
0.00832584
0.0240878
0.0373397
0.0469047
0.0522196
0.0533599
0.0509317
0.0458785
0.0392612
0.032068
0.0250863
0.0188462
0.0136264
0.00949933
0.00639483
0.00416267
0.00262323
0.00160208
0.000949136
0.000545951
0.000305148
0.000165854
8.77209e-05
4.51782e-05
2.26711e-05
1.10915e-05
5.29325e-06
2.46547e-06
1.12138e-06
4.98282e-07
2.16414e-07
9.19068e-08
3.82048e-08
1.5539e-08
6.20703e-09
2.44439e-09
9.68099e-10
3.85264e-10
1.47081e-10
5.37833e-11
-1.09762e-12
-1.53666e-11
-1.53666e-11
-2.08547e-11
-3.29285e-12
-3.29285e-12
7.68332e-12
5.48809e-12
-1.09762e-12
2.19523e-12
1.09762e-12
-2.19523e-12
7.68332e-12
-3.29285e-12
-2.19523e-12
5.48809e-12
-7.68332e-12
1.20738e-11
1.09762e-12
0
1.09762e-12
-2.19523e-12
-1.09762e-12
1.31714e-11
0
1.31714e-11
0
-2.19523e-12
0
1.09762e-12
4.39047e-12
-2.19523e-12
0
2.19523e-12
-1.09762e-12
0.00396907
0.0114876
0.0178212
0.0224114
0.0249868
0.025576
0.0244594
0.0220792
0.0189372
0.015504
0.0121577
0.00915585
0.00663613
0.00463743
0.00312931
0.00204177
0.00128962
0.000789349
0.000468647
0.00027013
0.000151286
8.23856e-05
4.36552e-05
2.25237e-05
1.13222e-05
5.54844e-06
2.65216e-06
1.23722e-06
5.63588e-07
2.508e-07
1.09088e-07
4.63864e-08
1.92797e-08
7.85345e-09
3.14687e-09
1.2447e-09
5.00514e-10
2.10743e-10
8.34189e-11
4.71976e-11
4.39047e-12
3.29285e-12
-1.75619e-11
-1.97571e-11
7.68332e-12
8.78094e-12
1.09762e-11
0
-1.09762e-12
2.19523e-12
-7.68332e-12
-7.68332e-12
-1.09762e-12
0
-1.31714e-11
6.5857e-12
1.09762e-12
1.09762e-11
0
-1.09762e-12
1.09762e-12
0
-1.09762e-12
4.39047e-12
3.29285e-12
4.39047e-12
-9.87856e-12
0
-1.09762e-12
1.09762e-12
1.09762e-12
1.09762e-12
0
1.09762e-12
1.31714e-11
0.00185306
0.00536516
0.00832889
0.0104846
0.0117044
0.0119987
0.0114948
0.010396
0.0089348
0.00733061
0.00576111
0.00434835
0.00315878
0.00221237
0.00149622
0.000978369
0.000619281
0.000379843
0.000225977
0.000130511
7.32328e-05
3.99542e-05
2.12091e-05
1.09617e-05
5.51943e-06
2.70917e-06
1.29701e-06
6.05975e-07
2.76415e-07
1.23176e-07
5.36559e-08
2.28579e-08
9.50976e-09
3.87788e-09
1.57728e-09
6.47594e-10
2.68916e-10
1.14152e-10
7.02475e-11
5.59785e-11
4.06118e-11
2.19524e-11
-2.19524e-12
1.09762e-12
3.29285e-12
1.31714e-11
-6.5857e-12
0
-1.09762e-12
-1.09762e-12
-1.09762e-12
-3.29285e-12
-7.68332e-12
1.09762e-12
1.09762e-12
-4.39047e-12
0
-3.29285e-12
-2.19523e-12
2.19524e-12
-1.09762e-12
2.19523e-12
0
6.58571e-12
-2.19523e-12
-1.31714e-11
2.19524e-12
1.09762e-12
0
-1.09762e-12
7.68332e-12
3.29285e-12
0
3.29285e-12
-4.39047e-12
0.00084735
0.00245411
0.0038121
0.00480303
0.00536797
0.00551051
0.00528737
0.00479024
0.00412459
0.00339067
0.00267011
0.0020195
0.0014701
0.00103179
0.000699249
0.000458175
0.000290599
0.000178595
0.000106456
6.15985e-05
3.46275e-05
1.89255e-05
1.00636e-05
5.20995e-06
2.62756e-06
1.29171e-06
6.19367e-07
2.89822e-07
1.32389e-07
5.90826e-08
2.57852e-08
1.10091e-08
4.61219e-09
1.89668e-09
7.88089e-10
3.13919e-10
1.25128e-10
3.7319e-11
3.18309e-11
1.53666e-11
3.29285e-11
3.40261e-11
2.85381e-11
2.52452e-11
1.09762e-11
1.86595e-11
1.20738e-11
3.07333e-11
3.29285e-12
-2.19523e-12
7.68332e-12
6.5857e-12
2.19523e-12
-2.19523e-12
1.4269e-11
-6.5857e-12
-1.09762e-12
-3.29285e-12
1.09762e-12
2.19523e-12
-1.09762e-12
-2.19523e-12
2.19523e-12
-1.20738e-11
-3.29285e-12
-1.09762e-12
0
1.09762e-12
1.09762e-12
0
-7.68332e-12
0
-4.39047e-12
-1.4269e-11
-1.09762e-12
0.000379544
0.00109955
0.00170893
0.00215489
0.00241084
0.00247794
0.00238098
0.00216052
0.00186345
0.00153462
0.00121075
0.000917488
0.00066918
0.000470583
0.000319537
0.000209778
0.000133306
8.20806e-05
4.90159e-05
2.8413e-05
1.60003e-05
8.75978e-06
4.66575e-06
2.41934e-06
1.22203e-06
6.01659e-07
2.88906e-07
1.35386e-07
6.19649e-08
2.77039e-08
1.21034e-08
5.17636e-09
2.17987e-09
9.15413e-10
3.62214e-10
1.27324e-10
3.40261e-11
-1.09762e-11
-2.63428e-11
-2.63428e-11
-2.305e-11
0
1.86595e-11
1.75619e-11
7.68332e-12
6.58571e-12
3.18309e-11
2.63428e-11
1.64643e-11
0
-1.09762e-12
3.29285e-12
-6.5857e-12
0
-2.19524e-12
0
0
-7.68332e-12
4.39047e-12
-3.29285e-12
0
-1.09762e-12
-5.48809e-12
-2.08547e-11
2.19523e-12
0
-2.19524e-12
-3.29285e-12
1.09762e-12
-1.09762e-12
1.09762e-12
-2.19524e-12
0
0
1.31714e-11
0.000166551
0.00048263
0.000750478
0.000947009
0.00106049
0.00109123
0.0010499
0.000954056
0.00082416
0.000679848
0.000537296
0.000407878
0.000298029
0.000209963
0.000142831
9.39403e-05
5.98033e-05
3.68882e-05
2.2067e-05
1.28135e-05
7.22779e-06
3.96352e-06
2.11446e-06
1.09809e-06
5.55483e-07
2.73883e-07
1.31682e-07
6.17695e-08
2.82999e-08
1.26841e-08
5.55065e-09
2.37085e-09
9.91149e-10
3.92947e-10
1.33909e-10
5.04904e-11
-1.75619e-11
-8.78094e-12
-3.62214e-11
-2.52452e-11
-3.7319e-11
-3.51238e-11
-2.85381e-11
-8.78094e-12
1.4269e-11
1.64643e-11
2.63428e-11
9.87856e-12
2.52452e-11
-2.19523e-12
-1.09762e-12
1.09762e-12
0
3.29285e-12
0
-1.09762e-12
0
0
-1.09762e-12
0
0
3.29285e-12
-1.09762e-12
7.68332e-12
0
-1.09762e-12
0
0
6.58571e-12
4.39047e-12
6.5857e-12
-1.97571e-11
2.19524e-12
1.09762e-11
0
7.1613e-05
0.000207567
0.000322908
0.000407739
0.000456989
0.000470725
0.000453433
0.000412586
0.000356924
0.000294876
0.000233419
0.000177489
0.000129907
9.16772e-05
6.24724e-05
4.1159e-05
2.6247e-05
1.62172e-05
9.71754e-06
5.65189e-06
3.19323e-06
1.75384e-06
9.37058e-07
4.87377e-07
2.46896e-07
1.21886e-07
5.86786e-08
2.75491e-08
1.26248e-08
5.66261e-09
2.47732e-09
1.0581e-09
4.29168e-10
1.52569e-10
3.51238e-11
-9.87856e-12
-4.39047e-11
-1.75619e-11
-2.63428e-11
-2.52452e-11
-2.41476e-11
-2.85381e-11
-2.96357e-11
-9.87856e-12
-5.48809e-12
2.19523e-12
2.19523e-12
-1.31714e-11
-3.29285e-12
0
2.19523e-12
0
2.08547e-11
0
0
0
8.78094e-12
0
-1.09762e-12
-2.19523e-12
-1.09762e-12
1.09762e-12
4.39047e-12
1.86595e-11
1.09762e-12
0
-1.09762e-12
1.31714e-11
0
1.09762e-12
-7.68332e-12
0
0
0
-7.68332e-12
3.01767e-05
8.74846e-05
0.000136154
0.000172028
0.000192958
0.000198946
0.000191848
0.000174779
0.000151401
0.000125259
9.93011e-05
7.5624e-05
5.54383e-05
3.91866e-05
2.67467e-05
1.76504e-05
1.12739e-05
6.97701e-06
4.18741e-06
2.43929e-06
1.3803e-06
7.59245e-07
4.06264e-07
2.11606e-07
1.07356e-07
5.3072e-08
2.55701e-08
1.20134e-08
5.51004e-09
2.44988e-09
1.05591e-09
4.43437e-10
1.70131e-10
5.37833e-11
-5.48809e-12
-2.19524e-11
-3.62214e-11
-2.63428e-11
-1.53666e-11
-1.97571e-11
-2.305e-11
-1.20738e-11
-1.86595e-11
-2.41476e-11
-3.7319e-11
-3.51238e-11
-2.41476e-11
-1.86595e-11
-2.52452e-11
2.19523e-12
-2.19524e-12
-1.31714e-11
-1.09762e-12
-2.19524e-12
1.09762e-12
3.29285e-12
7.68332e-12
-1.20738e-11
-1.09762e-12
2.19524e-12
-1.09762e-12
-5.48809e-12
-3.29285e-12
0
0
2.19524e-12
1.09762e-12
0
-8.78094e-12
4.39047e-12
1.09762e-12
2.41476e-11
2.19524e-12
4.39047e-12
0
1.24644e-05
3.61426e-05
5.62711e-05
7.11366e-05
7.98494e-05
8.23996e-05
7.95402e-05
7.25457e-05
6.292e-05
5.21249e-05
4.13805e-05
3.15596e-05
2.31702e-05
1.64028e-05
1.1213e-05
7.41095e-06
4.74093e-06
2.9385e-06
1.76631e-06
1.03048e-06
5.83982e-07
3.21707e-07
1.72384e-07
8.98982e-08
4.56839e-08
2.26197e-08
1.09213e-08
5.14453e-09
2.35329e-09
1.04274e-09
4.48926e-10
1.6574e-10
6.47594e-11
7.68332e-12
-3.29285e-11
-1.20738e-11
-9.87856e-12
-2.41476e-11
-8.78094e-12
-1.09762e-11
-3.18309e-11
-1.86595e-11
-1.20738e-11
-2.08547e-11
-2.41476e-11
-3.18309e-11
-4.17095e-11
-1.75619e-11
-1.31714e-11
-1.09762e-12
-4.39047e-12
-5.48809e-12
-1.4269e-11
2.19524e-12
2.19524e-12
0
-8.78094e-12
-1.64643e-11
-8.78094e-12
-1.20738e-11
-3.29285e-12
-1.09762e-12
1.09762e-12
-2.19524e-12
-1.09762e-12
-1.09762e-11
1.09762e-12
-6.5857e-12
-1.09762e-12
-1.09762e-12
-2.19523e-12
0
-9.87856e-12
0
5.48809e-12
5.04758e-06
1.4639e-05
2.27996e-05
2.88377e-05
3.23915e-05
3.34531e-05
3.23227e-05
2.95116e-05
2.56255e-05
2.12553e-05
1.68961e-05
1.29037e-05
9.48693e-06
6.72574e-06
4.60444e-06
3.04768e-06
1.95255e-06
1.21202e-06
7.29579e-07
4.26274e-07
2.4193e-07
1.3348e-07
7.16404e-08
3.74288e-08
1.90393e-08
9.44171e-09
4.59463e-09
2.18097e-09
1.01859e-09
4.52218e-10
1.85497e-10
4.82952e-11
-3.29285e-12
-3.29285e-12
-1.86595e-11
-2.52452e-11
-8.78094e-12
-3.62214e-11
-3.62214e-11
-2.41476e-11
-8.78094e-12
-5.48809e-12
1.4269e-11
1.4269e-11
-5.48809e-12
-3.29285e-12
-9.87856e-12
-3.29285e-12
1.09762e-12
-4.39047e-12
1.09762e-12
1.31714e-11
1.09762e-12
0
-3.29285e-12
6.5857e-12
-7.68332e-12
7.68332e-12
-8.78094e-12
-2.19523e-12
-1.31714e-11
5.48809e-12
4.39047e-12
-7.68332e-12
1.09762e-12
-1.09762e-12
-1.09762e-12
1.09762e-12
2.19523e-12
-8.78094e-12
-1.31714e-11
-4.39047e-12
-6.5857e-12
-7.68332e-12
-1.09762e-12
2.00443e-06
5.81425e-06
9.05841e-06
1.1463e-05
1.28836e-05
1.3316e-05
1.28774e-05
1.17691e-05
1.02304e-05
8.49564e-06
6.76162e-06
5.1706e-06
3.80656e-06
2.70237e-06
1.85262e-06
1.22798e-06
7.87842e-07
4.89722e-07
2.95203e-07
1.72732e-07
9.81676e-08
5.42311e-08
2.91593e-08
1.5269e-08
7.7876e-09
3.88557e-09
1.8901e-09
8.97851e-10
4.37949e-10
1.86595e-10
8.56142e-11
2.52452e-11
-1.31714e-11
-1.09762e-12
-1.20738e-11
-3.29285e-11
-2.41476e-11
-3.40261e-11
-3.40261e-11
-2.41476e-11
-2.19523e-12
2.19524e-12
7.68332e-12
-2.19523e-12
1.53666e-11
-1.09762e-12
2.08547e-11
-2.19524e-12
0
1.09762e-12
0
1.09762e-12
-1.09762e-12
-1.31714e-11
-1.09762e-12
4.39047e-12
0
4.39047e-12
1.86595e-11
1.31714e-11
4.39047e-12
2.19523e-12
0
2.19524e-12
0
1.09762e-11
-2.19524e-12
0
0
5.48809e-12
8.78094e-12
0
9.87856e-12
2.19523e-12
-6.58571e-12
7.80788e-07
2.26511e-06
3.53013e-06
4.46913e-06
5.02597e-06
5.19835e-06
5.0313e-06
4.60256e-06
4.00491e-06
3.32946e-06
2.65301e-06
2.03126e-06
1.4973e-06
1.06437e-06
7.30655e-07
4.84955e-07
3.1156e-07
1.93922e-07
1.17066e-07
6.85605e-08
3.90258e-08
2.16077e-08
1.16172e-08
6.08848e-09
3.11833e-09
1.59374e-09
7.83699e-10
3.86361e-10
1.95376e-10
1.02078e-10
6.0369e-11
4.39047e-11
4.06118e-11
1.09762e-12
8.78094e-12
-4.39047e-12
1.09762e-11
1.53666e-11
2.19524e-11
0
1.75619e-11
1.4269e-11
1.20738e-11
-3.29285e-12
2.08547e-11
1.20738e-11
7.68332e-12
7.68332e-12
1.09762e-12
-4.39047e-12
1.09762e-12
3.29285e-12
0
-2.19524e-12
2.19524e-12
-2.305e-11
-1.09762e-12
0
7.68332e-12
1.09762e-12
1.4269e-11
-2.19523e-12
-1.09762e-12
-1.09762e-12
-4.39047e-12
1.09762e-12
-1.09762e-12
1.20738e-11
0
0
2.08547e-11
9.87856e-12
6.58571e-12
4.39047e-12
0
2.98354e-07
8.65647e-07
1.34951e-06
1.7092e-06
1.92322e-06
1.99056e-06
1.92809e-06
1.76534e-06
1.53759e-06
1.2796e-06
1.02075e-06
7.82454e-07
5.77454e-07
4.10992e-07
2.82499e-07
1.87764e-07
1.20797e-07
7.53152e-08
4.55226e-08
2.66974e-08
1.52229e-08
8.44397e-09
4.54523e-09
2.39281e-09
1.2447e-09
6.46497e-10
3.40261e-10
2.06352e-10
1.14152e-10
8.56142e-11
5.59785e-11
5.70761e-11
4.39047e-11
1.64643e-11
4.06118e-11
1.4269e-11
2.52452e-11
3.7319e-11
1.86595e-11
-1.09762e-12
3.62214e-11
9.87856e-12
3.18309e-11
4.60999e-11
3.40261e-11
4.28071e-11
2.305e-11
4.17095e-11
2.19523e-12
-6.5857e-12
4.39047e-12
6.5857e-12
1.53666e-11
2.08547e-11
1.09762e-12
5.48809e-12
4.39047e-12
1.4269e-11
-1.09762e-11
0
0
-2.19523e-12
-1.09762e-12
0
-3.29285e-12
0
4.39047e-12
-4.39047e-12
-2.19523e-12
-1.31714e-11
-5.48809e-12
6.5857e-12
-1.09762e-12
-5.48809e-12
2.19523e-12
1.11808e-07
3.24548e-07
5.06046e-07
6.41222e-07
7.21947e-07
7.47748e-07
7.24856e-07
6.64232e-07
5.79081e-07
4.82385e-07
3.85214e-07
2.95622e-07
2.18435e-07
1.55654e-07
1.07133e-07
7.12979e-08
4.59331e-08
2.86862e-08
1.73369e-08
1.01947e-08
5.81847e-09
3.20724e-09
1.74631e-09
9.36268e-10
5.06002e-10
2.62331e-10
1.58057e-10
9.87856e-11
5.81737e-11
4.39047e-11
3.07333e-11
3.29285e-11
2.52452e-11
2.63428e-11
7.68332e-12
-4.39047e-12
-6.58571e-12
1.20738e-11
-6.58571e-12
1.20738e-11
3.29285e-12
4.39047e-12
1.75619e-11
4.50023e-11
4.06118e-11
3.84166e-11
1.4269e-11
0
2.19524e-12
8.78094e-12
1.09762e-12
4.39047e-12
1.4269e-11
1.09762e-12
-2.19524e-12
1.4269e-11
1.31714e-11
2.19524e-12
2.19523e-12
0
0
-2.19523e-12
2.19524e-12
8.78094e-12
3.29285e-12
-1.09762e-12
0
-1.20738e-11
1.09762e-12
0
-1.64643e-11
-9.87856e-12
1.09762e-12
-7.68332e-12
0
4.11343e-08
1.19509e-07
1.86441e-07
2.36317e-07
2.66247e-07
2.75923e-07
2.67685e-07
2.45469e-07
2.14198e-07
1.78586e-07
1.42781e-07
1.09675e-07
8.11326e-08
5.78927e-08
3.98951e-08
2.65832e-08
1.71547e-08
1.07029e-08
6.47704e-09
3.78019e-09
2.15901e-09
1.19421e-09
6.44301e-10
3.47945e-10
1.78912e-10
1.07567e-10
6.58571e-11
2.96357e-11
1.86595e-11
3.07333e-11
2.85381e-11
1.20738e-11
-9.87856e-12
-2.19524e-12
-1.53666e-11
3.29285e-12
-1.53666e-11
7.68332e-12
1.4269e-11
3.62214e-11
7.68332e-12
1.20738e-11
-1.53666e-11
8.78094e-12
2.41476e-11
1.4269e-11
-7.68332e-12
-1.09762e-12
-2.19524e-12
5.48809e-12
0
-2.19524e-12
-1.4269e-11
-8.78094e-12
0
-2.08547e-11
-4.39047e-12
-4.39047e-12
1.09762e-12
0
0
-2.19523e-12
4.39047e-12
0
5.48809e-12
0
-1.09762e-12
0
6.58571e-12
1.53666e-11
5.48809e-12
-5.48809e-12
-8.78094e-12
1.09762e-12
-4.39047e-12
1.49056e-08
4.32549e-08
6.74288e-08
8.54825e-08
9.63379e-08
9.98942e-08
9.69328e-08
8.89575e-08
7.76828e-08
6.48011e-08
5.18558e-08
3.98742e-08
2.95226e-08
2.10962e-08
1.45467e-08
9.71172e-09
6.26081e-09
3.90313e-09
2.37854e-09
1.37202e-09
7.60649e-10
4.25876e-10
2.33793e-10
1.03176e-10
5.59785e-11
3.95142e-11
1.20738e-11
2.19523e-12
9.87856e-12