/*--------------------------------*- C++ -*----------------------------------*\
  =========                 |
  \\      /  F ield         | OpenFOAM: The Open Source CFD Toolbox
   \\    /   O peration     | Website:  https://openfoam.org
    \\  /    A nd           | Version:  10
     \\/     M anipulation  |
\*---------------------------------------------------------------------------*/
FoamFile
{
    format      ascii;
    class       volScalarField;
    location    "272";
    object      gradTx;
}
// * * * * * * * * * * * * * * * * * * * * * * * * * * * * * * * * * * * * * //

dimensions      [0 -1 0 1 0 0 0];

internalField   nonuniform List<scalar> 
11250
(
14294.7
8088.54
5284.9
3792.86
2886.25
2278.15
1840.24
1508.53
1248.05
1038.17
865.994
722.964
603.164
502.317
417.211
345.351
284.733
233.713
190.908
155.138
125.384
100.761
80.4975
63.9199
50.4414
39.5529
30.8149
23.8502
18.3372
14.004
10.6223
8.00222
5.9869
4.44812
3.28182
2.40439
1.74917
1.26353
0.906265
0.645407
0.456366
0.320397
0.223333
0.154562
0.106202
0.07245
0.0490701
0.0329963
0.0220282
0.0146
0.00960698
0.00627585
0.00407011
0.00262049
0.00167491
0.00106275
0.000669406
0.00041856
0.000259792
0.000160059
9.78836e-05
5.94156e-05
3.57962e-05
2.14043e-05
1.27022e-05
7.4808e-06
4.37206e-06
2.53545e-06
1.45874e-06
8.32212e-07
4.70079e-07
2.61582e-07
1.40872e-07
6.86516e-08
2.04519e-08
4090.55
4687.49
3975.64
3210.62
2591.72
2112.61
1739.28
1443.02
1203.49
1006.77
843.25
706.142
590.523
492.703
409.834
339.653
280.313
230.276
188.231
153.053
123.761
99.5007
79.521
63.1655
49.8607
39.1077
30.4751
23.5921
18.1421
13.8573
10.5126
7.92066
5.92662
4.40383
3.24948
2.38092
1.73225
1.25141
0.897637
0.639307
0.452082
0.317408
0.221262
0.153137
0.105228
0.0717886
0.0486243
0.0326978
0.0218298
0.0144691
0.00952113
0.00621998
0.00403401
0.00259732
0.00166016
0.00105342
0.000663547
0.000414909
0.000257533
0.000158672
9.7038e-05
5.8904e-05
3.5489e-05
2.12213e-05
1.2594e-05
7.41727e-06
4.33505e-06
2.51408e-06
1.4465e-06
8.25276e-07
4.6617e-07
2.59427e-07
1.39761e-07
6.80962e-08
2.03015e-08
1471.09
2596.64
2721.87
2485.43
2161.35
1845.92
1566.46
1326.44
1122.14
948.41
800.442
674.189
566.344
474.215
395.587
328.613
271.727
223.583
183.01
148.98
120.588
97.0332
77.6072
61.6859
48.721
38.2334
29.8074
23.0846
17.7584
13.5687
10.2967
7.76009
5.8079
4.31658
3.18576
2.33467
1.69889
1.22751
0.880624
0.627276
0.443631
0.311512
0.217175
0.150324
0.103305
0.0704831
0.0477441
0.0321085
0.021438
0.0142104
0.00935156
0.0061096
0.00396267
0.00255154
0.00163099
0.00103497
0.000651964
0.000407689
0.000253065
0.000155928
9.53652e-05
5.78918e-05
3.48811e-05
2.0859e-05
1.23796e-05
7.29151e-06
4.26182e-06
2.47176e-06
1.42224e-06
8.11502e-07
4.58459e-07
2.55154e-07
1.37449e-07
6.69634e-08
1.99744e-08
668.746
1507.49
1832.06
1851
1726.19
1547.79
1359.32
1179.71
1016.13
870.424
742.17
630.08
532.609
448.204
375.411
312.896
259.451
213.98
175.496
143.105
116.002
93.4605
74.8322
59.5377
47.0644
36.9614
28.8351
22.3451
17.1988
13.1475
9.98155
7.52557
5.63444
4.18905
3.09259
2.26702
1.65009
1.19253
0.85572
0.609661
0.431254
0.302874
0.211188
0.146202
0.100486
0.0685695
0.0464537
0.0312445
0.0208634
0.013831
0.00910282
0.00594767
0.003858
0.00248437
0.0015882
0.0010079
0.000634963
0.00039709
0.000246506
0.000151899
9.29086e-05
5.64051e-05
3.39882e-05
2.03268e-05
1.20648e-05
7.10673e-06
4.1542e-06
2.40956e-06
1.38659e-06
7.9124e-07
4.47049e-07
2.48829e-07
1.34052e-07
6.53225e-08
1.94641e-08
365.606
933.857
1250.12
1363.35
1348.4
1264.18
1148.31
1022.4
898.023
780.973
673.829
577.455
491.815
416.416
350.543
293.39
244.128
201.939
166.038
135.686
110.193
88.9254
71.3024
56.8005
44.9504
35.336
27.5914
21.3981
16.4815
12.6073
9.57696
7.22433
5.41149
4.02506
2.97271
2.17995
1.58726
1.14748
0.82363
0.586956
0.415297
0.291735
0.203465
0.140884
0.0968496
0.0660995
0.0447879
0.0301288
0.0201214
0.013341
0.00878149
0.00573845
0.00372275
0.00239756
0.00153287
0.0009729
0.000612981
0.000383384
0.000238023
0.000146687
8.97304e-05
5.44816e-05
3.28327e-05
1.9638e-05
1.16573e-05
6.86749e-06
4.01485e-06
2.32903e-06
1.34043e-06
7.64992e-07
4.32268e-07
2.40619e-07
1.29633e-07
6.31931e-08
1.88417e-08
225.871
613.526
873.38
1006.81
1043.54
1016.53
952.169
868.801
778.174
687.412
600.619
520
446.597
380.746
322.359
271.103
226.503
188.01
155.046
127.029
103.393
83.6007
67.1478
53.5718
42.4522
33.412
26.1169
20.274
15.6293
11.9647
9.09526
6.86539
5.14565
3.82939
2.82959
2.07594
1.51215
1.09361
0.785243
0.559785
0.396194
0.278395
0.194214
0.134511
0.0924906
0.0631384
0.0427903
0.0287906
0.0192312
0.012753
0.00839585
0.00548732
0.00356036
0.00229331
0.00146643
0.000930858
0.000586571
0.000366915
0.000227828
0.000140423
8.59096e-05
5.21686e-05
3.14431e-05
1.88093e-05
1.11671e-05
6.57963e-06
3.84713e-06
2.23209e-06
1.28484e-06
7.33407e-07
4.14527e-07
2.30773e-07
1.2434e-07
6.06137e-08
1.80822e-08
150.646
422.258
625.13
749.795
805.928
810.335
779.676
727.516
663.819
595.447
526.899
460.998
399.411
343.03
292.234
247.065
207.35
172.778
142.961
117.468
95.8537
77.6769
62.5123
49.9603
39.6516
31.2509
24.458
19.0074
14.6676
11.2388
8.55051
6.45907
4.84445
3.60752
2.6672
1.95784
1.42683
1.03237
0.741586
0.52887
0.37445
0.263205
0.183675
0.12725
0.0875216
0.0597619
0.0405118
0.0272638
0.0182154
0.0120818
0.00795556
0.00520053
0.00337489
0.00217422
0.00139051
0.000882808
0.000556381
0.000348084
0.000216169
0.000133257
8.15383e-05
4.95218e-05
2.98525e-05
1.78607e-05
1.06056e-05
6.24991e-06
3.65498e-06
2.12099e-06
1.22113e-06
6.97196e-07
3.94148e-07
2.19484e-07
1.18294e-07
5.76567e-08
1.71865e-08
105.506
300.931
457.055
564.002
623.391
643.135
633.097
602.576
559.244
508.953
455.926
403.077
352.333
304.888
261.421
222.243
187.412
156.813
130.221
107.338
87.8312
71.3502
57.5456
46.0798
36.6349
28.9181
22.6637
17.6351
13.6241
10.45
7.95785
6.01653
4.51607
3.3654
2.48983
1.82877
1.33351
0.965352
0.693779
0.494997
0.350613
0.246546
0.172112
0.119279
0.0820657
0.0560531
0.0380084
0.0255858
0.0170985
0.0113438
0.00747123
0.00488497
0.00317076
0.00204312
0.00130691
0.000829888
0.000523124
0.000327336
0.00020332
0.000125358
7.67184e-05
4.66027e-05
2.80978e-05
1.6814e-05
9.98591e-06
5.88582e-06
3.44277e-06
1.99826e-06
1.15071e-06
6.57114e-07
3.71544e-07
2.06963e-07
1.1159e-07
5.43946e-08
1.62107e-08
76.3331
220.039
340.015
428.306
483.66
509.421
511.171
494.987
466.447
430.197
389.865
348.149
306.973
267.641
230.985
197.485
167.359
140.641
117.235
96.9581
79.5728
64.8115
52.3944
42.0427
33.488
26.4786
20.7835
16.1943
12.5267
9.61913
7.33275
5.54918
4.1689
3.10917
2.30196
1.69192
1.2345
0.894194
0.642986
0.458987
0.325259
0.228816
0.1598
0.110789
0.0762513
0.0520992
0.0353384
0.0237956
0.0159066
0.0105558
0.00695402
0.00454789
0.00295265
0.001903
0.00121754
0.000773298
0.00048755
0.000305137
0.000189568
0.000116902
7.15575e-05
4.34762e-05
2.6218e-05
1.56922e-05
9.32159e-06
5.49542e-06
3.21512e-06
1.86655e-06
1.0751e-06
6.14072e-07
3.47299e-07
1.93518e-07
1.04356e-07
5.09031e-08
1.51932e-08
56.4781
163.938
256.404
327.924
376.481
403.19
411.081
404.007
385.875
360.209
329.957
297.455
264.47
232.28
201.763
173.481
147.753
124.714
104.366
86.6145
71.3036
58.2366
47.1954
37.9549
30.2924
23.995
18.8648
14.7211
11.4024
8.7666
6.69037
5.06826
3.81121
2.84488
2.10797
1.55049
1.13209
0.820534
0.590368
0.421658
0.298959
0.210416
0.147015
0.101968
0.0702078
0.0479876
0.0325609
0.0219325
0.0146657
0.00973519
0.0064152
0.00419662
0.00272528
0.00175688
0.00112432
0.000714254
0.000450424
0.000281962
0.000175208
0.00010807
6.61649e-05
4.02084e-05
2.42526e-05
1.4519e-05
8.62663e-06
5.08687e-06
2.97677e-06
1.7286e-06
9.95893e-07
5.68991e-07
3.21899e-07
1.79381e-07
9.67374e-08
4.72173e-08
1.41011e-08
42.4511
123.818
195.355
252.714
293.899
319.001
329.584
328.036
317.029
299.158
276.731
251.678
225.54
199.485
174.364
150.761
129.041
109.402
91.9143
76.5506
63.2184
51.7799
42.0704
33.9115
27.1218
21.5242
16.9514
13.2487
10.2766
7.91138
6.04494
4.58436
3.45082
2.57827
1.91208
1.40753
1.02846
0.74594
0.537042
0.3838
0.272268
0.191729
0.134024
0.0929998
0.0640604
0.0438034
0.029733
0.0200348
0.0134013
0.00889869
0.00586574
0.00383829
0.00249327
0.00160774
0.00102914
0.000653945
0.00041249
0.000258276
0.000160527
9.90365e-05
6.06482e-05
3.68643e-05
2.22406e-05
1.33176e-05
7.9147e-06
4.66819e-06
2.73242e-06
1.58711e-06
9.14627e-07
5.2271e-07
2.95774e-07
1.64854e-07
8.89399e-08
4.33888e-08
1.29431e-08
32.2647
94.4383
149.974
195.713
229.934
252.301
263.561
265.165
258.912
246.673
230.212
211.074
190.549
169.662
149.189
129.692
111.548
94.9856
80.1165
66.9617
55.4765
45.5702
37.122
29.9937
24.0402
19.1161
15.0817
11.8067
9.17183
7.07056
5.4093
4.10708
3.09486
2.31461
1.71811
1.26582
0.925648
0.671862
0.48404
0.346142
0.2457
0.173116
0.121076
0.0840561
0.0579263
0.0396261
0.0269084
0.0181384
0.0121372
0.00806206
0.00531599
0.00347962
0.00226095
0.00145834
0.000933762
0.000593496
0.000374455
0.000234519
0.000145797
8.99703e-05
5.51094e-05
3.35055e-05
2.02191e-05
1.21101e-05
7.19883e-06
4.24704e-06
2.48657e-06
1.44469e-06
8.32789e-07
4.76065e-07
2.69433e-07
1.50229e-07
8.10678e-08
3.95395e-08
1.18016e-08
24.7134
72.5271
115.753
152.089
180.139
199.424
210.249
213.479
210.311
202.077
190.1
175.591
159.6
142.994
126.457
110.501
95.4897
81.6595
69.1436
57.9939
48.2004
39.7084
32.4323
26.2677
21.1
16.8118
13.2882
10.4202
8.10726
6.2588
4.79455
3.64473
2.74954
2.05848
1.52946
1.12784
0.825434
0.599587
0.432281
0.309337
0.219713
0.154898
0.108394
0.0752907
0.051911
0.0355274
0.0241355
0.0162759
0.0108951
0.00723962
0.00477532
0.00312675
0.0020323
0.00131125
0.000839819
0.000533933
0.000336965
0.000211094
0.000131267
8.10245e-05
4.96421e-05
3.0189e-05
1.82223e-05
1.09169e-05
6.49115e-06
3.83057e-06
2.24335e-06
1.30371e-06
7.51732e-07
4.29841e-07
2.43347e-07
1.35709e-07
7.32506e-08
3.57735e-08
1.06985e-08
19.0283
55.9572
89.6558
118.44
141.206
157.469
167.302
171.207
169.976
164.549
155.903
144.974
132.599
119.495
106.242
93.295
80.9856
69.5425
59.1064
49.7465
41.4764
34.2677
28.0625
22.7835
18.3418
14.644
11.5964
9.10916
7.09849
5.48805
4.20981
3.20423
2.42004
1.81375
1.34897
0.995671
0.729335
0.530211
0.382552
0.273945
0.194704
0.137351
0.0961709
0.066837
0.0461059
0.0315696
0.0214566
0.0144755
0.00969383
0.00644386
0.00425197
0.00278503
0.00181078
0.00116869
0.000748737
0.000476162
0.000300589
0.000188357
0.000117159
7.23349e-05
4.43295e-05
2.69651e-05
1.62804e-05
9.75601e-06
5.80245e-06
3.42504e-06
2.00638e-06
1.16633e-06
6.72686e-07
3.8474e-07
2.17894e-07
1.21585e-07
6.56595e-08
3.20779e-08
9.58001e-09
14.6987
43.2948
69.5834
92.3256
110.663
124.159
132.771
136.783
136.715
133.226
127.033
118.847
109.327
99.053
88.5098
78.0852
68.0742
58.6876
50.0629
42.2769
35.3577
29.2956
24.0536
19.5758
15.7945
12.636
10.0252
7.88867
6.15732
4.76751
3.66215
2.79096
2.11043
1.58346
1.17891
0.870985
0.638575
0.46462
0.335491
0.24042
0.170994
0.120703
0.0845657
0.058805
0.0405869
0.0278047
0.0189066
0.0127609
0.00854921
0.00568525
0.00375282
0.00245897
0.00159932
0.00103255
0.000661719
0.000420948
0.00026581
0.000166609
0.00010366
6.40171e-05
3.92422e-05
2.38767e-05
1.44194e-05
8.64304e-06
5.14184e-06
3.03588e-06
1.77889e-06
1.03439e-06
5.96757e-07
3.41426e-07
1.93424e-07
1.07963e-07
5.83164e-08
2.84942e-08
8.50324e-09
11.3736
33.5442
54.0477
71.9686
86.6455
97.706
105.06
108.86
109.443
107.272
102.868
96.7675
89.4832
81.4764
73.1439
64.811
56.7321
49.0946
42.0268
35.6062
29.8684
24.8164
20.4284
16.6651
13.4757
10.8029
8.58702
6.76886
5.29187
4.10359
3.15659
2.40881
1.82367
1.36985
1.02096
0.755033
0.554074
0.403486
0.291583
0.209114
0.148834
0.105131
0.0737016
0.0512805
0.0354132
0.024273
0.0165133
0.0111507
0.00747371
0.00497209
0.00328334
0.00215214
0.00140025
0.000904326
0.000579732
0.000368904
0.000233014
0.000146094
9.09202e-05
5.61645e-05
3.44376e-05
2.09587e-05
1.26604e-05
7.5906e-06
4.51689e-06
2.6676e-06
1.56352e-06
9.09394e-07
5.24814e-07
3.00363e-07
1.70216e-07
9.50109e-08
5.13257e-08
2.50806e-08
7.50002e-09
8.80461
25.9951
41.9707
56.0523
67.7329
76.7064
82.8678
86.2922
87.1986
85.9075
82.7989
78.2744
72.7275
66.5219
59.9772
53.3613
46.8889
40.7224
34.977
29.7262
25.0086
20.8349
17.1942
14.0595
11.3935
9.15216
7.28858
5.7554
4.50687
3.50017
2.69623
2.06022
1.56168
1.17441
0.876233
0.648658
0.476461
0.347273
0.251169
0.18027
0.128398
0.0907581
0.0636668
0.0443254
0.0306276
0.0210041
0.0142967
0.00965853
0.00647649
0.0043105
0.0028476
0.00186723
0.00121531
0.000785153
0.000503497
0.000320491
0.000202494
0.000126995
7.90555e-05
4.88482e-05
2.99592e-05
1.82378e-05
1.10196e-05
6.60849e-06
3.93342e-06
2.32359e-06
1.36225e-06
7.9254e-07
4.57498e-07
2.61885e-07
1.48445e-07
8.29096e-08
4.4796e-08
2.18634e-08
6.52095e-09
6.81205
20.1298
32.5566
43.587
52.8342
60.0515
65.1368
68.1207
69.1441
68.4297
66.2523
62.9111
58.7064
53.9217
48.8111
43.5922
38.4427
33.5004
28.8659
24.6059
20.7591
17.34
14.345
11.7566
9.54765
7.68473
6.13134
4.85
3.80405
2.95881
2.28245
1.74636
1.32541
0.997887
0.74534
0.552324
0.406089
0.296248
0.214445
0.154035
0.109794
0.0776623
0.054516
0.0379781
0.0262572
0.0180169
0.0122697
0.00829322
0.00556355
0.00370448
0.00244825
0.00160599
0.00104566
0.000675783
0.000433502
0.000276023
0.00017445
0.000109437
6.81441e-05
4.21171e-05
2.58374e-05
1.57325e-05
9.50815e-06
5.70346e-06
3.39555e-06
2.00634e-06
1.17655e-06
6.84689e-07
3.95328e-07
2.26361e-07
1.28356e-07
7.17041e-08
3.87569e-08
1.89054e-08
5.62968e-09
5.263
15.5638
25.2081
33.8191
41.1024
46.8626
51.008
53.5446
54.5623
54.2156
52.7029
50.246
47.0725
43.4014
39.4329
35.3413
31.2716
27.3385
23.6277
20.1983
17.0864
14.3083
11.8651
9.74582
7.93117
6.39614
5.11258
4.05109
3.18254
2.47913
1.91512
1.46725
1.11496
0.840423
0.628416
0.466158
0.343068
0.250502
0.181486
0.130466
0.0930648
0.0658758
0.0462735
0.0322565
0.0223147
0.0153202
0.0104388
0.00705919
0.00473791
0.00315612
0.00208671
0.00136936
0.000891924
0.000576625
0.000370015
0.000235672
0.000148991
9.34921e-05
5.82309e-05
3.59993e-05
2.20898e-05
1.34537e-05
8.13279e-06
4.87956e-06
2.90569e-06
1.71729e-06
1.00725e-06
5.86289e-07
3.38613e-07
1.93953e-07
1.10021e-07
6.14413e-08
3.3215e-08
1.62294e-08
4.82952e-09
4.05763
12.0067
19.4706
26.1681
31.8758
36.4404
39.7835
41.8987
42.8426
42.7223
41.6807
39.8814
37.4962
34.6931
31.6281
28.4393
25.2436
22.135
19.1853
16.4453
13.9473
11.708
9.731
8.01017
6.53193
5.27778
4.22622
3.35442
2.63942
2.05912
1.59289
1.22199
0.92974
0.701627
0.525209
0.390002
0.287301
0.209974
0.152256
0.109542
0.0781992
0.0553933
0.0389367
0.0271595
0.0188
0.0129146
0.00880438
0.00595692
0.004
0.00266576
0.00176324
0.00115755
0.000754236
0.00048778
0.000313106
0.000199486
0.00012615
7.91812e-05
4.93302e-05
3.05041e-05
1.87222e-05
1.14053e-05
6.896e-06
4.13836e-06
2.46483e-06
1.45703e-06
8.54765e-07
4.97643e-07
2.87469e-07
1.64698e-07
9.34171e-08
5.21873e-08
2.82329e-08
1.38003e-08
4.12155e-09
3.11988
9.2368
14.9944
20.1829
24.6331
28.2261
30.8967
32.633
33.4701
33.4821
32.7717
31.4595
29.6741
27.5438
25.189
22.7184
20.2247
17.7842
15.4559
13.2826
11.2926
9.50152
7.91451
6.52848
5.33417
4.31801
3.46374
2.75377
2.17018
1.69554
1.31345
1.00893
0.768586
0.580686
0.435154
0.323465
0.238518
0.174481
0.126629
0.0911792
0.0651409
0.046177
0.0324808
0.022671
0.0157026
0.0107931
0.00736202
0.00498358
0.00334801
0.00223224
0.00147712
0.000970091
0.000632327
0.000409079
0.000262672
0.000167404
0.000105892
6.64833e-05
4.14295e-05
2.56246e-05
1.57308e-05
9.58496e-06
5.79653e-06
3.4792e-06
2.07263e-06
1.22542e-06
7.19045e-07
4.18731e-07
2.41918e-07
1.38621e-07
7.86267e-08
4.39574e-08
2.37788e-08
1.1615e-08
3.48823e-09
2.39116
7.08258
11.5078
15.5102
18.9622
21.7721
23.887
25.2933
26.0124
26.0955
25.6163
24.6632
23.3323
21.7208
19.9211
18.0178
16.0839
14.1804
12.3552
10.6438
9.07021
7.64856
6.3845
5.27698
4.31982
3.50319
2.81493
2.24157
1.76922
1.38427
1.07379
0.825904
0.629926
0.476474
0.357449
0.265978
0.196319
0.143744
0.104412
0.0752437
0.0537979
0.0381641
0.0268631
0.0187622
0.0130032
0.00894281
0.00610327
0.0041336
0.00277832
0.00185324
0.00122684
0.000806038
0.000525585
0.000340139
0.000218474
0.000139277
8.81243e-05
5.53417e-05
3.44947e-05
2.13399e-05
1.31031e-05
7.9854e-06
4.83006e-06
2.8996e-06
1.72762e-06
1.0216e-06
5.99558e-07
3.49172e-07
2.01777e-07
1.1563e-07
6.56364e-08
3.66912e-08
1.98197e-08
9.69635e-09
2.88344e-09
1.82599
5.41071
8.7982
11.8718
14.5356
16.7191
18.3806
19.5063
20.1093
20.2247
19.9053
19.216
18.228
17.0145
15.6463
14.1882
12.6977
11.2226
9.80143
8.46316
7.22789
6.10789
5.10875
4.23067
3.46965
2.81865
2.26863
1.80938
1.43024
1.12063
0.870452
0.670355
0.511903
0.387644
0.291123
0.216846
0.16021
0.117412
0.0853597
0.0615641
0.0440513
0.0312728
0.0220276
0.015395
0.0106761
0.00734664
0.00501665
0.00339939
0.00228593
0.00152548
0.00101028
0.000664017
0.000433135
0.000280402
0.00018016
0.000114884
7.27093e-05
4.56721e-05
2.84738e-05
1.76187e-05
1.08202e-05
6.59523e-06
3.98982e-06
2.39553e-06
1.42749e-06
8.44238e-07
4.95488e-07
2.88568e-07
1.66775e-07
9.56003e-08
5.42607e-08
3.03327e-08
1.64017e-08
8.02029e-09
2.38403e-09
1.38882
4.11671
6.69865
9.0479
11.0924
12.7788
14.0739
14.9657
15.4615
15.5856
15.3758
14.8793
14.1489
13.2395
12.2046
11.094
9.95199
8.81618
7.71703
6.67782
5.71506
4.83919
4.0554
3.36456
2.76421
2.24935
1.81333
1.44846
1.14661
0.899641
0.699715
0.539539
0.412496
0.312718
0.235104
0.175297
0.129637
0.0950932
0.0691931
0.049945
0.0357651
0.0254088
0.0179096
0.012525
0.00869123
0.0059842
0.00408853
0.00277189
0.00186484
0.00124503
0.000824887
0.000542372
0.000353911
0.000229189
0.000147299
9.3955e-05
5.94781e-05
3.73693e-05
2.33022e-05
1.44213e-05
8.85801e-06
5.4e-06
3.26718e-06
1.96189e-06
1.16923e-06
6.91539e-07
4.05892e-07
2.36419e-07
1.36638e-07
7.83194e-08
4.44458e-08
2.48534e-08
1.34678e-08
6.59668e-09
1.98449e-09
1.05174
3.11849
5.07742
6.86416
8.42492
9.71918
10.7213
11.421
11.8221
11.9414
11.8059
11.4498
10.9122
10.2338
9.45514
8.61394
7.74424
6.87519
6.03069
5.22924
4.48418
3.8042
3.1939
2.65451
2.18454
1.78053
1.43761
1.15004
0.91167
0.716268
0.557808
0.430642
0.329624
0.250168
0.188276
0.140522
0.104018
0.0763698
0.0556168
0.0401779
0.0287931
0.0204705
0.0144387
0.0101042
0.00701569
0.00483331
0.003304
0.00224113
0.00150848
0.00100755
0.000667818
0.000439261
0.000286728
0.00018574
0.000119409
7.61847e-05
4.82398e-05
3.03147e-05
1.89066e-05
1.17028e-05
7.18922e-06
4.3832e-06
2.65226e-06
1.59278e-06
9.49291e-07
5.61492e-07
3.29608e-07
1.92013e-07
1.10978e-07
6.36058e-08
3.61237e-08
2.02236e-08
1.09553e-08
5.36735e-09
1.60033e-09
0.792795
2.35134
3.83041
5.18239
6.36723
7.35445
8.12434
8.6683
8.98832
9.09583
9.01001
8.75577
8.36174
7.8582
7.27535
6.6418
5.98344
5.32269
4.6781
4.0642
3.49166
2.96755
2.49583
2.07783
1.71274
1.39816
1.13057
0.905715
0.718967
0.565608
0.441029
0.340892
0.261224
0.198471
0.149524
0.111708
0.0827671
0.0608213
0.0443309
0.0320506
0.0229862
0.0163539
0.0115429
0.00808297
0.00561567
0.003871
0.00264758
0.00179678
0.00120995
0.000808503
0.0005361
0.000352752
0.000230336
0.000149255
9.59793e-05
6.12512e-05
3.87923e-05
2.43823e-05
1.52092e-05
9.41545e-06
5.78472e-06
3.5272e-06
2.13445e-06
1.28185e-06
7.64007e-07
4.51923e-07
2.65284e-07
1.5455e-07
8.93428e-08
5.12071e-08
2.90649e-08
1.62755e-08
8.7996e-09
4.29717e-09
1.2886e-09
0.594703
1.76425
2.87537
3.89297
4.78736
5.53572
6.12304
6.54235
6.7945
6.88727
6.8343
6.65359
6.36608
5.99412
5.56018
5.08572
4.59033
4.0911
3.60231
3.13525
2.69833
2.29724
1.93529
1.61376
1.33227
1.0892
0.882012
0.707568
0.562421
0.443015
0.345858
0.267642
0.20532
0.156163
0.117769
0.0880693
0.0653125
0.0480369
0.035042
0.0253549
0.0181978
0.0129563
0.00915103
0.00641211
0.0044575
0.00307438
0.00210384
0.00142847
0.000962373
0.00064334
0.00042675
0.0002809
0.000183478
0.000118926
7.64957e-05
4.88284e-05
3.09306e-05
1.94442e-05
1.21305e-05
7.5104e-06
4.61468e-06
2.81395e-06
1.70289e-06
1.0227e-06
6.09565e-07
3.60554e-07
2.11629e-07
1.23279e-07
7.1254e-08
4.0827e-08
2.31597e-08
1.2931e-08
6.99951e-09
3.43774e-09
1.05262e-09
0.443844
1.31699
2.14733
2.90909
3.58035
4.14412
4.58906
4.90966
5.10609
5.18367
5.15204
5.02419
4.81535
4.54195
4.2206
3.86732
3.4968
3.12198
2.75374
2.40079
2.06966
1.76488
1.48916
1.24365
1.02825
0.841855
0.682657
0.54837
0.436439
0.344203
0.269034
0.208426
0.160067
0.12187
0.0919983
0.0688631
0.0511152
0.0376273
0.0274709
0.0198923
0.0142878
0.0101796
0.00719464
0.00504443
0.00350881
0.0024214
0.00165786
0.0011262
0.00075907
0.000507643
0.000336865
0.000221811
0.000144927
9.39638e-05
6.04541e-05
3.85969e-05
2.44537e-05
1.53747e-05
9.59285e-06
5.93974e-06
3.6498e-06
2.22566e-06
1.34689e-06
8.08924e-07
4.82107e-07
2.85134e-07
1.67357e-07
9.74772e-08
5.6333e-08
3.22908e-08
1.83094e-08
1.02035e-08
5.5276e-09
2.71002e-09
8.06749e-10
0.329509
0.977916
1.59508
2.16214
2.66299
3.08505
3.41983
3.66301
3.81444
3.87775
3.85973
3.7697
3.61871
3.41876
3.18209
2.92054
2.64509
2.36544
2.08983
1.82489
1.57567
1.3457
1.13717
0.951081
0.787466
0.645604
0.524213
0.421634
0.335986
0.265295
0.207595
0.161006
0.123779
0.094337
0.0712828
0.0534064
0.0396773
0.0292322
0.021359
0.0154784
0.0111256
0.00793215
0.00560985
0.00393571
0.0027392
0.00189133
0.00129559
0.000880525
0.000593743
0.000397237
0.000263697
0.000173691
0.000113519
7.36198e-05
4.73759e-05
3.02528e-05
1.91702e-05
1.20543e-05
7.52178e-06
4.65762e-06
2.86204e-06
1.74528e-06
1.05616e-06
6.34276e-07
3.77982e-07
2.23521e-07
1.31177e-07
7.64117e-08
4.4144e-08
2.53034e-08
1.43371e-08
8.00822e-09
4.33339e-09
2.10194e-09
6.14666e-10
0.243297
0.72218
1.17835
1.59806
1.96954
2.28354
2.53371
2.71675
2.83237
2.88299
2.87343
2.81035
2.7017
2.55623
2.38287
2.19037
1.98683
1.7795
1.57456
1.37701
1.19072
1.01842
0.861829
0.721798
0.598435
0.491271
0.399407
0.321646
0.256614
0.202855
0.158912
0.123379
0.0949495
0.072436
0.0547857
0.0410836
0.0305487
0.0225254
0.0164715
0.0119456
0.00859237
0.00613022
0.00433826
0.00304544
0.00212079
0.00146512
0.00100414
0.000682757
0.000460583
0.000308268
0.000204709
0.000134879
8.81781e-05
5.71993e-05
3.68166e-05
2.3514e-05
1.4902e-05
9.37136e-06
5.84802e-06
3.62131e-06
2.22523e-06
1.35688e-06
8.21073e-07
4.93029e-07
2.93782e-07
1.73712e-07
1.01924e-07
5.93306e-08
3.42544e-08
1.96364e-08
1.11386e-08
6.24544e-09
3.36969e-09
1.63984e-09
4.85147e-10
0.178638
0.530334
0.86559
1.17443
1.4483
1.68042
1.8661
2.00284
2.0903
2.13011
2.12564
2.08165
2.00386
1.89857
1.7723
1.63144
1.48197
1.32923
1.17782
1.03151
0.893204
0.765005
0.648254
0.543642
0.451309
0.370956
0.301958
0.243457
0.194456
0.15389
0.120682
0.0937943
0.0722536
0.0551742
0.0417684
0.0313496
0.0233304
0.0172168
0.0125994
0.00914413
0.00658193
0.004699
0.0033275
0.00233728
0.00162855
0.00112565
0.000771853
0.000525054
0.000354344
0.000237252
0.000157604
0.000103874
6.79259e-05
4.40721e-05
2.83725e-05
1.81236e-05
1.14871e-05
7.22442e-06
4.50842e-06
2.79179e-06
1.71546e-06
1.04597e-06
6.32851e-07
3.79953e-07
2.26374e-07
1.33815e-07
7.85049e-08
4.56763e-08
2.63725e-08
1.51098e-08
8.57898e-09
4.78122e-09
2.55416e-09
1.24689e-09
3.81971e-10
0.130412
0.387218
0.632177
0.858093
1.05876
1.22926
1.36615
1.46755
1.53311
1.56396
1.56244
1.53191
1.47648
1.40069
1.30924
1.20678
1.09768
0.985865
0.874739
0.767097
0.665122
0.5704
0.483968
0.406377
0.337771
0.277966
0.226528
0.182848
0.146207
0.115829
0.0909284
0.0707402
0.0545465
0.0416914
0.0315897
0.0237302
0.0176746
0.0130534
0.00955978
0.00694309
0.00500105
0.00357269
0.00253149
0.00177919
0.00124036
0.000857776
0.00058845
0.00040047
0.000270374
0.000181095
0.000120339
7.93358e-05
5.18927e-05
3.36764e-05
2.16837e-05
1.38528e-05
8.78097e-06
5.52277e-06
3.44655e-06
2.13419e-06
1.31131e-06
7.99471e-07
4.83633e-07
2.90296e-07
1.72911e-07
1.02191e-07
5.99343e-08
3.48878e-08
2.01534e-08
1.15151e-08
6.52534e-09
3.62653e-09
1.9362e-09
9.39561e-10
2.77697e-10
0.0946497
0.281068
0.458991
0.62325
0.769379
0.893818
0.994054
1.06869
1.11743
1.14101
1.14108
1.12001
1.08072
1.02645
0.960594
0.886511
0.807369
0.726039
0.64501
0.566347
0.491669
0.422167
0.358631
0.301493
0.250887
0.206702
0.168639
0.13627
0.109078
0.086503
0.0679743
0.0529334
0.040854
0.0312539
0.0237017
0.0178196
0.0132829
0.00981747
0.00719522
0.00522942
0.00376923
0.0026944
0.00191031
0.00134337
0.000937035
0.00064833
0.000444972
0.000302954
0.000204617
0.000137099
9.11314e-05
6.00966e-05
3.93176e-05
2.55205e-05
1.64347e-05
1.05006e-05
6.65653e-06
4.18673e-06
2.61277e-06
1.61782e-06
9.93944e-07
6.05907e-07
3.66489e-07
2.19935e-07
1.30979e-07
7.7404e-08
4.53777e-08
2.64054e-08
1.52382e-08
8.72277e-09
4.9305e-09
2.75173e-09
1.48617e-09
7.29916e-10
1.87693e-10
0.0682855
0.202801
0.331256
0.449957
0.555704
0.645939
0.718841
0.773381
0.809312
0.827127
0.827966
0.813497
0.785785
0.747143
0.699995
0.646752
0.589701
0.53092
0.472224
0.415121
0.360807
0.310164
0.263786
0.222011
0.184951
0.152544
0.124587
0.100778
0.0807498
0.0641011
0.0504191
0.0392992
0.0303584
0.0232448
0.0176427
0.013275
0.00990304
0.00732485
0.00537222
0.00390715
0.00281801
0.00201568
0.00142994
0.00100612
0.000702158
0.000486055
0.000333746
0.000227321
0.000153591
0.000102945
6.8449e-05
4.51502e-05
2.95455e-05
1.91809e-05
1.23537e-05
7.89381e-06
5.00428e-06
3.14755e-06
1.96417e-06
1.21609e-06
7.47051e-07
4.55324e-07
2.75354e-07
1.65217e-07
9.83718e-08
5.81243e-08
3.40635e-08
1.98109e-08
1.14174e-08
6.544e-09
3.72422e-09
2.08657e-09
1.11737e-09
5.48809e-10
1.56959e-10
0.0489671
0.145443
0.237617
0.322864
0.398906
0.463914
0.516579
0.556148
0.582423
0.595731
0.596859
0.586976
0.567534
0.540173
0.506616
0.468583
0.427713
0.385503
0.343263
0.302089
0.262854
0.226208
0.192593
0.162266
0.135323
0.111727
0.0913437
0.0739611
0.0593201
0.0471343
0.0371079
0.0289496
0.0223828
0.0171525
0.0130292
0.00981134
0.00732471
0.0054217
0.00397917
0.00289593
0.00208999
0.00149584
0.00106177
0.000747475
0.000521915
0.000361455
0.000248298
0.000169188
0.000114354
7.6671e-05
5.09936e-05
3.36444e-05
2.20207e-05
1.42981e-05
9.20992e-06
5.88539e-06
3.73115e-06
2.34673e-06
1.46432e-06
9.06516e-07
5.56786e-07
3.39302e-07
2.05151e-07
1.23068e-07
7.32221e-08
4.32494e-08
2.53572e-08
1.47234e-08
8.48568e-09
4.84927e-09
2.75831e-09
1.54984e-09
8.33092e-10
3.90752e-10
1.31714e-10
0.0348987
0.103667
0.169398
0.230237
0.28457
0.331098
0.368886
0.397389
0.416451
0.426288
0.427442
0.420727
0.407161
0.387897
0.364154
0.337152
0.308059
0.277944
0.247746
0.218257
0.190107
0.163773
0.13958
0.11772
0.0982721
0.0812173
0.0664644
0.0538674
0.0432443
0.0343921
0.0271002
0.0211603
0.0163741
0.012558
0.00954671
0.00719436
0.00537491
0.00398127
0.00292396
0.00212935
0.00153771
0.00110121
0.000782086
0.000550867
0.000384825
0.000266634
0.000183239
0.000124905
8.44524e-05
5.66401e-05
3.76812e-05
2.48668e-05
1.62786e-05
1.05712e-05
6.80994e-06
4.35198e-06
2.75903e-06
1.73523e-06
1.08267e-06
6.70159e-07
4.11535e-07
2.50732e-07
1.5156e-07
9.08915e-08
5.40577e-08
3.18979e-08
1.87001e-08
1.08686e-08
6.27508e-09
3.57933e-09
2.00205e-09
1.11847e-09
6.05885e-10
2.74404e-10
9.65903e-11
0.0247178
0.0734309
0.120012
0.163156
0.201729
0.234812
0.261742
0.282127
0.295849
0.303048
0.304097
0.299559
0.290144
0.276659
0.25996
0.240909
0.22033
0.198983
0.177537
0.156558
0.1365
0.117707
0.100416
0.084772
0.0708345
0.0585965
0.047997
0.0389355
0.0312848
0.0249024
0.0196392
0.0153473
0.0118855
0.00912263
0.00694035
0.00523406
0.00391313
0.00290048
0.0021316
0.00155329
0.00112237
0.00080423
0.000571478
0.000402729
0.000281471
0.000195109
0.000134139
9.147e-05
6.18666e-05
4.15045e-05
2.76188e-05
1.82302e-05
1.19361e-05
7.75214e-06
4.9943e-06
3.19175e-06
2.02346e-06
1.27254e-06
7.93901e-07
4.91339e-07
3.01648e-07
1.83708e-07
1.11011e-07
6.65398e-08
3.95801e-08
2.33255e-08
1.365e-08
7.95114e-09
4.6067e-09
2.64197e-09
1.48508e-09
8.12237e-10
4.41242e-10
2.19523e-10
6.36618e-11
0.0173969
0.0516865
0.0844875
0.114889
0.142096
0.165464
0.184526
0.199002
0.208803
0.214022
0.214912
0.211862
0.205363
0.195979
0.184306
0.170947
0.156484
0.141451
0.126321
0.111497
0.0973019
0.0839829
0.0717122
0.0605951
0.0506784
0.0419602
0.0344003
0.0279299
0.0224609
0.0178935
0.0141232
0.0110455
0.00856063
0.0065756
0.00500626
0.00377813
0.00282657
0.00209648
0.0015417
0.00112412
0.000812734
0.00058268
0.000414263
0.00029208
0.000204232
0.000141629
9.74094e-05
6.64475e-05
4.49566e-05
3.01686e-05
2.00802e-05
1.32568e-05
8.68113e-06
5.63874e-06
3.63299e-06
2.32181e-06
1.47189e-06
9.256e-07
5.77374e-07
3.57272e-07
2.19291e-07
1.33517e-07
8.06453e-08
4.83072e-08
2.87071e-08
1.69077e-08
9.88514e-09
5.74932e-09
3.3148e-09
1.90327e-09
1.08554e-09
5.87225e-10
3.3148e-10
1.844e-10
5.48809e-11
0.0121666
0.03615
0.0591002
0.0803842
0.099449
0.115846
0.129246
0.139454
0.146402
0.150151
0.150872
0.148833
0.144373
0.13788
0.12977
0.120462
0.110362
0.099844
0.0892412
0.0788366
0.0688597
0.0594857
0.0508385
0.0429945
0.0359891
0.0298232
0.0244704
0.0198842
0.0160036
0.0127594
0.0100787
0.00788841
0.00611831
0.004703
0.00358309
0.00270593
0.00202575
0.00150346
0.00110629
0.000807112
0.000583867
0.00041882
0.000297915
0.000210148
0.000147008
0.000101988
7.01714e-05
4.78835e-05
3.24066e-05
2.17525e-05
1.44817e-05
9.56249e-06
6.26279e-06
4.06832e-06
2.62131e-06
1.67527e-06
1.06198e-06
6.67752e-07
4.1645e-07
2.57622e-07
1.58101e-07
9.62325e-08
5.80936e-08
3.47846e-08
2.06385e-08
1.21528e-08
7.0939e-09
4.11058e-09
2.3489e-09
1.31604e-09
7.47478e-10
4.31364e-10
2.50257e-10
1.26226e-10
5.1588e-11
0.00845434
0.0251216
0.0410759
0.0558802
0.0691521
0.0805803
0.089937
0.0970835
0.101972
0.104641
0.105207
0.103851
0.100807
0.0963412
0.090741
0.0842965
0.0772887
0.0699784
0.0625975
0.0553444
0.04838
0.0418283
0.0357772
0.0302818
0.0253683
0.021039
0.0172766
0.0140496
0.0113164
0.00902927
0.00713756
0.0055905
0.00433912
0.00333769
0.00254461
0.00192294
0.00144049
0.00106975
0.000787614
0.000574944
0.000416141
0.000298661
0.000212547
0.000149999
0.000104976
7.28566e-05
5.01464e-05
3.42301e-05
2.3173e-05
1.55585e-05
1.03603e-05
6.84221e-06
4.48173e-06
2.91159e-06
1.87607e-06
1.19894e-06
7.5996e-07
4.77776e-07
2.97918e-07
1.84267e-07
1.13044e-07
6.87833e-08
4.14845e-08
2.48347e-08
1.47366e-08
8.70191e-09