/*--------------------------------*- C++ -*----------------------------------*\
  =========                 |
  \\      /  F ield         | OpenFOAM: The Open Source CFD Toolbox
   \\    /   O peration     | Website:  https://openfoam.org
    \\  /    A nd           | Version:  10
     \\/     M anipulation  |
\*---------------------------------------------------------------------------*/
FoamFile
{
    format      ascii;
    class       volScalarField;
    location    "394";
    object      gradTx;
}
// * * * * * * * * * * * * * * * * * * * * * * * * * * * * * * * * * * * * * //

dimensions      [0 -1 0 1 0 0 0];

internalField   nonuniform List<scalar> 
11250
(
14303.7
8115.58
5329.35
3853.81
2962.47
2368.13
1942.25
1620.67
1368.28
1164.45
996.239
855.18
735.463
632.961
544.649
468.238
401.951
344.371
294.343
250.903
213.236
180.638
152.497
128.274
107.49
89.7208
74.5861
61.747
50.9009
41.7781
34.1392
27.7721
22.49
18.1288
14.5455
11.6158
9.23231
7.30295
5.74908
4.50399
3.51143
2.72426
2.1032
1.61574
1.23513
0.939503
0.711087
0.535524
0.401295
0.299206
0.221972
0.163847
0.120336
0.0879344
0.0639339
0.0462497
0.0332882
0.0238382
0.0169847
0.0120405
0.00849233
0.00595946
0.00416085
0.00289033
0.00199751
0.00137337
0.000939239
0.000638735
0.000431612
0.000289284
0.000191504
0.000123929
7.63248e-05
4.12444e-05
1.30212e-05
4099.57
4714.35
4019.79
3271.15
2667.42
2201.98
1840.59
1554.38
1322.9
1132.18
972.6
837.452
721.915
622.453
536.4
461.701
396.732
340.18
290.962
248.168
211.018
178.837
151.034
127.085
106.525
88.9383
73.9526
61.2352
50.4882
41.4463
33.8731
27.5594
22.3205
17.9942
14.439
11.5318
9.16635
7.25135
5.70888
4.47281
3.48734
2.70573
2.089
1.60491
1.22691
0.933297
0.706419
0.53203
0.398691
0.297275
0.220546
0.1628
0.11957
0.0873774
0.0635306
0.0459591
0.0330798
0.0236895
0.0168791
0.0119659
0.00843986
0.00592275
0.00413529
0.00287262
0.00198531
0.001365
0.000933529
0.00063486
0.000428999
0.000287537
0.00019035
0.000123183
7.58664e-05
4.0997e-05
1.29433e-05
1479.98
2623.13
2765.41
2545.13
2236
1934.05
1666.38
1436.28
1239.92
1072.1
928.023
803.703
695.942
602.194
520.428
449
386.563
331.995
284.348
242.807
206.665
175.299
148.157
124.746
104.625
87.3964
72.7036
60.2254
49.6738
40.7911
33.3475
27.1391
21.9854
17.7281
14.2284
11.3657
9.03588
7.14927
5.62934
4.41109
3.43965
2.66904
2.0609
1.58349
1.21065
0.921004
0.697172
0.525107
0.393532
0.293449
0.217721
0.160725
0.118053
0.0862732
0.062731
0.0453828
0.0326666
0.0233946
0.0166697
0.0118179
0.00833579
0.00584994
0.00408459
0.00283749
0.0019611
0.00134839
0.000922197
0.000627171
0.000423815
0.000284069
0.000188058
0.000121703
7.49559e-05
4.05056e-05
1.27882e-05
677.455
1533.43
1874.71
1909.47
1799.31
1634.12
1457.19
1287.3
1131.5
991.58
867.141
756.948
659.561
573.574
497.709
430.834
371.953
320.192
274.781
235.034
200.339
170.147
143.961
121.33
101.847
85.1399
70.8741
58.7452
48.4791
39.8294
32.5756
26.5215
21.4929
17.3367
13.9185
11.1213
8.8438
6.99895
5.51218
4.32015
3.36938
2.61496
2.01947
1.55189
1.18666
0.902874
0.683533
0.514894
0.38592
0.287802
0.213553
0.157662
0.115813
0.0846432
0.0615505
0.0445321
0.0320564
0.0229592
0.0163604
0.0115993
0.00818209
0.00574238
0.0040097
0.0027856
0.00192532
0.00132385
0.000905454
0.000615809
0.000416153
0.000278943
0.000184672
0.000119515
7.361e-05
3.9779e-05
1.2559e-05
374.078
959.095
1291.61
1420.23
1419.53
1348.16
1243.52
1127.05
1010.25
898.836
795.406
700.88
615.325
538.389
469.532
408.14
353.594
305.288
262.65
225.144
192.268
163.558
138.582
116.943
98.2727
82.233
68.5142
56.8338
46.9349
38.5853
31.5763
25.7214
20.8545
16.829
13.5163
10.8039
8.59433
6.80364
5.3599
4.20193
3.27798
2.54461
1.96557
1.51077
1.15543
0.879267
0.66577
0.50159
0.376003
0.280445
0.20812
0.15367
0.112893
0.0825182
0.0600113
0.0434227
0.0312607
0.0223912
0.015957
0.0113142
0.00798157
0.00560205
0.00391198
0.00271789
0.00187864
0.00129183
0.000883601
0.00060098
0.000406152
0.000272253
0.00018025
0.000116658
7.18529e-05
3.88304e-05
1.22596e-05
234.054
637.906
913.454
1061.76
1112.25
1097.65
1044.15
969.91
886.597
801.285
718.084
639.254
565.937
498.605
437.339
381.992
332.289
287.89
248.42
213.493
182.725
155.743
132.187
111.715
94.0048
78.7555
65.6869
54.5406
45.0799
37.0892
30.3735
24.7575
20.0847
16.2166
13.0308
10.4205
8.29281
6.56747
5.17568
4.05884
3.16733
2.45942
1.90026
1.46093
1.11757
0.850644
0.644227
0.485452
0.363971
0.271516
0.201526
0.148823
0.109348
0.0799378
0.0581421
0.0420752
0.030294
0.0217012
0.0154669
0.0109677
0.00773787
0.00543148
0.00379319
0.00263557
0.00182188
0.00125289
0.000857029
0.000582946
0.000393989
0.000264116
0.000174873
0.000113183
6.97155e-05
3.76764e-05
1.18955e-05
158.497
445.648
663.577
802.513
871.857
888.173
867.924
824.528
767.853
704.712
639.615
575.434
513.934
456.138
402.583
353.493
308.886
268.65
232.593
200.472
172.016
146.942
124.962
105.792
89.159
74.799
62.4642
51.9225
42.9592
35.3766
28.9949
23.6516
19.2008
15.5126
12.4724
9.97925
7.94555
6.2953
4.96328
3.89379
3.03962
2.36105
1.82483
1.40335
1.07382
0.817551
0.619314
0.466785
0.350049
0.261183
0.193893
0.143212
0.105243
0.076949
0.0559766
0.0405139
0.0291739
0.0209014
0.0148987
0.010566
0.00745531
0.0052337
0.00365543
0.0025401
0.00175604
0.00120772
0.0008262
0.000562021
0.000379876
0.000254673
0.000168632
0.00010915
6.72346e-05
3.63369e-05
1.14728e-05
112.986
323.218
493.689
614.235
686.212
717.304
717.189
695.021
658.383
613.082
563.346
512.143
461.486
412.697
366.607
323.697
284.208
248.216
215.68
186.483
160.458
137.405
117.106
99.3331
83.8599
70.4622
58.9244
49.0416
40.6216
33.4861
27.4712
22.4279
18.2216
14.7321
11.8526
9.48914
7.55955
5.99258
4.72688
3.70998
2.89734
2.2514
1.74071
1.33911
1.02499
0.780604
0.59149
0.445929
0.334491
0.249633
0.185359
0.136936
0.100651
0.0736049
0.0535533
0.0387664
0.0279199
0.020006
0.0142624
0.0101162
0.00713879
0.00501211
0.00350107
0.00243311
0.00168226
0.00115709
0.000791642
0.000538563
0.000364052
0.000244085
0.000161633
0.000104627
6.4452e-05
3.48345e-05
1.09987e-05
83.4122
241.129
374.683
475.842
543.11
579.613
590.754
582.479
560.278
528.754
491.542
451.388
410.3
369.702
330.568
293.54
259.011
227.193
198.165
171.915
148.363
127.382
108.818
92.4964
78.2348
65.8468
55.1486
45.9623
38.1186
31.4585
25.8345
21.1116
17.1671
13.8906
11.1838
8.95978
7.1423
5.66511
4.47098
3.51089
2.74313
2.1325
1.64945
1.26938
0.971961
0.740465
0.56125
0.423256
0.317571
0.237067
0.176072
0.130106
0.095651
0.0699631
0.0509136
0.0368625
0.0265533
0.01903
0.0135688
0.00962565
0.00679363
0.00477043
0.00333269
0.00231639
0.00160175
0.00110184
0.000753924
0.000512957
0.000346778
0.000232524
0.000153991
9.96877e-05
6.14133e-05
3.31937e-05
1.04809e-05
63.1313
183.76
288.986
372.602
432.358
469.164
485.885
486.248
474.076
452.857
425.544
394.515
361.619
328.244
295.403
263.812
233.95
206.121
180.491
157.128
136.021
117.109
100.29
85.4369
72.4082
61.0528
51.2171
42.749
35.5015
29.3346
24.1175
19.7288
16.0578
13.0044
10.4787
8.40107
6.70152
5.31887
4.2002
3.30007
2.57974
2.00643
1.55263
1.19538
0.915653
0.697824
0.529112
0.399149
0.299576
0.223698
0.166188
0.122834
0.0903267
0.066084
0.0481012
0.0348334
0.0250967
0.0179894
0.0128291
0.00910247
0.00642542
0.00451257
0.00315301
0.0021918
0.0015158
0.00104285
0.00071365
0.000485611
0.000328328
0.000220176
0.000145827
9.44107e-05
5.81665e-05
3.14404e-05
9.92754e-06
48.6615
142.321
225.769
294.42
346.06
380.59
399.418
404.815
399.377
385.662
365.982
342.311
316.261
289.107
261.823
235.134
209.56
185.454
163.039
142.439
123.698
106.803
91.6985
78.299
66.4978
56.1758
47.207
39.4637
32.8201
27.1546
22.3519
18.3047
14.9138
12.0892
9.74964
7.82284
6.24489
4.95986
3.9192
3.08113
2.40992
1.87533
1.45188
1.11832
0.856994
0.653381
0.495601
0.374002
0.280796
0.209741
0.155865
0.115236
0.0847626
0.0620289
0.0451604
0.0327112
0.0235728
0.0169005
0.012055
0.00855476
0.00603986
0.00424251
0.00296479
0.00206128
0.00142575
0.000981035
0.000671436
0.000456945
0.000308983
0.000207227
0.000137265
8.88761e-05
5.47608e-05
2.96012e-05
9.34706e-06
38.0224
111.593
178.172
234.381
278.296
309.406
328.313
336.36
335.274
326.893
312.985
295.134
274.698
252.796
230.324
207.972
186.259
165.558
146.124
128.116
111.617
96.6521
83.2014
71.2128
60.6105
51.303
43.1896
36.1645
30.1214
24.956
20.5682
16.8635
13.7544
11.1604
9.00885
7.2346
5.77987
4.5939
3.63251
2.85756
2.23639
1.74126
1.34879
1.03942
0.796897
0.607826
0.461234
0.3482
0.261519
0.195408
0.145261
0.107429
0.0790427
0.0578588
0.0421353
0.0305276
0.0220043
0.0157795
0.0112577
0.00799064
0.00564266
0.00396424
0.00277081
0.00192674
0.0013329
0.000917288
0.000627898
0.000427375
0.000289026
0.000193867
0.00012843
8.31639e-05
5.12456e-05
2.77027e-05
8.74787e-06
30.0153
88.3234
141.719
187.698
224.675
252.013
269.883
279.049
280.644
275.969
266.348
253.029
237.126
219.593
201.22
182.64
164.347
146.71
129.993
114.376
99.9668
86.8164
74.933
64.291
54.8399
46.5123
39.2287
32.9035
27.4479
22.7735
18.7941
15.4277
12.5974
10.2323
8.26762
6.6453
5.31349
4.22649
3.34441
2.6327
2.06171
1.6062
1.24487
0.959832
0.736239
0.561818
0.426507
0.322115
0.242021
0.180905
0.134526
0.0995225
0.073248
0.0536329
0.0390687
0.0283132
0.0204133
0.0146421
0.0104487
0.00741797
0.00523935
0.00368162
0.00257376
0.00179004
0.00123854
0.000852493
0.000583637
0.000397308
0.000268731
0.000180278
0.000119442
7.73526e-05
4.7669e-05
2.5771e-05
8.13817e-06
23.8776
70.405
113.406
151.01
181.943
205.574
221.852
231.191
234.321
232.153
225.669
215.834
203.546
189.599
174.673
159.331
144.024
129.103
114.828
101.384
88.8927
77.4233
67.0031
57.6271
49.2653
41.8697
35.3795
29.7262
24.837
20.6375
17.0545
14.0173
11.4591
9.31773
7.53624
6.06309
4.85218
3.86269
3.05885
2.40962
1.88827
1.472
1.14152
0.880631
0.675838
0.515977
0.391886
0.296097
0.222563
0.166425
0.123804
0.0916218
0.0674553
0.0494068
0.0360009
0.0260973
0.0188208
0.0135032
0.00963829
0.00684423
0.00483518
0.00339833
0.0023762
0.00165295
0.0011439
0.00078749
0.000539225
0.000367134
0.000248359
0.000166635
0.000110418
7.15167e-05
4.40769e-05
2.38307e-05
7.52571e-06
19.1042
56.4205
91.1603
121.916
147.675
167.866
182.337
191.29
195.187
194.664
190.44
183.254
173.819
162.785
150.727
138.132
125.403
112.86
100.75
89.2555
78.5023
68.5694
59.4972
51.2956
43.9505
37.4295
31.6877
26.671
22.3204
18.5742
15.3708
12.6497
10.3535
8.42809
6.82376
5.49519
4.40167
3.50701
2.77938
2.19108
1.7182
1.3403
1.04002
0.802793
0.616435
0.470866
0.357797
0.270463
0.203382
0.152145
0.113224
0.083823
0.061735
0.0452319
0.0329691
0.0239067
0.0172458
0.0123766
0.00883639
0.00627633
0.00443502
0.00311778
0.0021805
0.00151713
0.00105011
0.000723056
0.000495193
0.000337211
0.000228154
0.000153102
0.000101465
6.57258e-05
4.0512e-05
2.19049e-05
6.91782e-06
15.3491
45.3889
73.5192
98.6721
120.047
137.152
149.796
158.057
162.224
162.734
160.112
154.92
147.717
139.031
129.337
119.05
108.522
98.0397
87.8298
78.0644
68.8677
60.3226
52.4773
45.352
38.9442
33.2341
28.1894
23.7684
19.9238
16.6051
13.7606
11.3395
9.29242
7.57296
6.13793
4.9478
3.96689
3.16335
2.50907
1.9795
1.5534
1.21256
0.9415
0.727179
0.558689
0.426983
0.324615
0.245497
0.184692
0.138222
0.102904
0.0762122
0.0561501
0.0411543
0.0300068
0.0217655
0.0157058
0.0112746
0.0080518
0.00572053
0.00404327
0.00284305
0.00198881
0.00138405
0.000958197
0.000659898
0.000452023
0.00030787
0.000208337
0.000139826
9.26803e-05
6.00433e-05
3.70134e-05
2.00148e-05
6.32118e-06
12.3682
36.6126
59.4252
79.9902
97.6767
112.07
122.976
130.403
134.525
135.643
134.136
130.431
124.963
118.153
110.393
102.031
93.3671
84.6538
76.0943
67.8469
60.0297
52.7248
45.9841
39.8341
34.2809
29.3142
24.9116
21.0417
17.6671
14.7467
12.238
10.0982
8.28544
6.76014
5.48507
4.42602
3.55192
2.83496
2.25048
1.77689
1.39543
1.09001
0.846903
0.654521
0.50316
0.384757
0.292665
0.221444
0.166674
0.124793
0.0929457
0.0688642
0.0507557
0.0372139
0.0271431
0.0196947
0.014216
0.0102082
0.00729225
0.00518229
0.00366379
0.00257685
0.00180301
0.00125504
0.000869067
0.000598639
0.000410142
0.000279397
0.000189104
0.000126939
8.41511e-05
5.45251e-05
3.36156e-05
1.81789e-05
5.74158e-06
9.98521
29.5842
48.0992
64.9036
79.4998
91.545
100.858
107.409
111.3
112.734
111.988
109.382
105.252
99.9348
93.7466
86.9768
79.88
72.6731
65.5351
58.6086
52.0024
45.7951
40.039
34.7642
29.9822
25.6898
21.8725
18.507
15.5643
13.0114
10.8133
8.93449
7.33983
5.99562
4.87009
3.93383
3.15999
2.52443
2.00569
1.58488
1.24559
0.973659
0.757011
0.585421
0.45031
0.34454
0.262215
0.198505
0.149481
0.111971
0.0834328
0.0618416
0.0455977
0.0334446
0.0244025
0.0177122
0.0127891
0.00918641
0.00656429
0.00466627
0.00329986
0.00232149
0.00162473
0.00113121
0.000783494
0.00053981
0.000369913
0.000252042
0.000170621
0.000114552
7.59517e-05
4.92194e-05
3.03481e-05
1.64133e-05
5.18416e-06
8.06987
23.9269
38.9569
52.676
64.6922
74.7247
82.612
88.307
91.8647
93.4228
93.1809
91.3786
88.2763
84.1387
79.2214
73.762
67.9733
62.04
56.117
50.3304
44.7784
39.5339
34.6475
30.1505
26.0579
22.3714
19.0823
16.1741
13.6244
11.407
9.49347
7.85445
6.46065
5.28367
4.29654
3.47415
2.79347
2.23369
1.77623
1.40471
1.10484
0.86427
0.672425
0.520346
0.400501
0.306609
0.233477
0.176842
0.133235
0.0998487
0.0744334
0.0551947
0.0407133
0.0298736
0.021805
0.0158324
0.0114357
0.00821683
0.00587326
0.00417627
0.00295417
0.00207884
0.00145528
0.00101348
0.000702116
0.000483851
0.000331637
0.000226008
0.000153027
0.000102758
6.81435e-05
4.4166e-05
2.72356e-05
1.47312e-05
4.6531e-06
6.52418
19.3559
31.5528
42.7397
52.6075
60.928
67.5616
72.4551
75.6343
77.1916
77.2708
76.0512
73.733
70.5242
66.6295
62.2426
57.5397
52.6761
47.7845
42.9744
38.3329
33.9262
29.8016
25.99
22.5081
19.361
16.5445
14.047
11.8515
9.93761
8.28228
6.86149
5.65097
4.62695
3.76669
3.0489
2.45395
1.96403
1.56317
1.23724
0.973887
0.762393
0.593578
0.459637
0.353997
0.271169
0.206607
0.156574
0.118025
0.0884929
0.0659985
0.0489615
0.0361306
0.0265216
0.0193657
0.0140663
0.0101636
0.0073052
0.00522328
0.00371521
0.00262879
0.00185038
0.00129569
0.000902563
0.000625429
0.000431103
0.000295548
0.000201456
0.00013643
9.16309e-05
6.0775e-05
3.93963e-05
2.42974e-05
1.31432e-05
4.15172e-06
5.2732
15.6528
25.5427
34.6511
42.7341
49.6075
55.1528
59.317
62.1086
63.5887
63.8606
63.0583
61.3356
58.855
55.7798
52.2666
48.4602
44.4901
40.4684
36.4892
32.6284
28.9452
25.4826
22.2701
19.3249
16.6541
14.2566
12.1247
10.2458
8.60393
7.1808
5.95683
4.91202
4.02663
3.28162
2.65905
2.1423
1.7162
1.36713
1.08298
0.853138
0.668367
0.520742
0.403508
0.310967
0.238352
0.181708
0.13778
0.103912
0.0779502
0.0581631
0.0431681
0.0318691
0.023403
0.0170952
0.0124218
0.00897849
0.0064556
0.00461731
0.00328522
0.00232522
0.00163717
0.00114671
0.000798989
0.000553795
0.000381817
0.000261819
0.000178505
0.000120912
8.12239e-05
5.38821e-05
3.49336e-05
2.15479e-05
1.16571e-05
3.68246e-06
4.25883
12.6475
20.657
28.0599
34.6637
40.3202
44.9303
48.4448
50.8619
52.2214
52.5975
52.0904
50.8175
48.9058
46.4848
43.6803
40.6106
37.3827
34.0905
30.8139
27.6183
24.5554
21.6641
18.9713
16.494
14.2403
12.2113
10.4022
8.80379
7.40382
6.18773
5.13973
4.24347
3.48265
2.84143
2.30478
1.85871
1.49041
1.18832
0.942128
0.742769
0.582342
0.454043
0.352065
0.271498
0.208227
0.158835
0.120504
0.0909307
0.0682467
0.0509473
0.03783
0.0279404
0.0205265
0.015
0.0109035
0.00788393
0.00567058
0.00405718
0.0028876
0.00204442
0.00143988
0.0010088
0.000703088
0.000487449
0.000336157
0.000230563
0.00015723
0.000106524
7.15727e-05
4.74884e-05
3.07934e-05
1.89966e-05
1.02779e-05
3.24692e-06
3.43544
10.2063
16.6828
22.6872
28.0678
32.7057
36.5189
39.4634
41.5321
42.7502
43.171
42.8692
41.9345
40.4657
38.5651
36.3334
33.8664
31.2521
28.5684
25.8823
23.2498
20.7155
18.3136
16.0685
13.9961
12.105
10.3976
8.87129
7.51948
6.33278
5.2998
4.40785
3.64366
2.99384
2.44529
1.98552
1.60282
1.28643
1.02659
0.814594
0.642735
0.504297
0.393477
0.305312
0.235598
0.180806
0.138
0.104756
0.0790898
0.0593901
0.0443574
0.0329521
0.0243485
0.0178954
0.0130826
0.00951341
0.00688136
0.00495123
0.0035437
0.00252297
0.00178681
0.00125882
0.000882202
0.000615022
0.000426505
0.000294202
0.000201835
0.000137671
9.32926e-05
6.26956e-05
4.16063e-05
2.69837e-05
1.66487e-05
9.00844e-06
2.84604e-06
2.76684
8.22279
13.4497
18.3088
22.6803
26.4691
29.608
32.0589
33.8119
34.8827
35.3094
35.1476
34.4658
33.3407
31.8527
30.0822
28.1065
25.997
23.8182
21.626
19.4674
17.3806
15.3952
13.5331
11.8087
10.2305
8.8018
7.52133
6.3846
5.38454
4.51222
3.75757
3.10985
2.55815
2.0917
1.70016
1.37381
1.10365
0.881511
0.700061
0.552808
0.43407
0.338928
0.263167
0.20321
0.156048
0.119174
0.0905171
0.0683768
0.0513721
0.0383879
0.028531
0.0210913
0.0155081
0.011342
0.00825096
0.00597044
0.00429736
0.00307678
0.00219126
0.00155239
0.001094
0.000766915
0.0005348
0.000370971
0.00025596
0.000175643
0.000119833
8.12229e-05
5.45957e-05
3.6238e-05
2.3506e-05
1.45051e-05
7.84937e-06
2.48001e-06
2.22409
6.61177
10.8211
14.7434
18.2845
21.3684
23.9405
25.9682
27.4408
28.3677
28.7761
28.7073
28.2136
27.3543
26.1926
24.7923
23.2152
21.5195
19.7578
17.9762
16.2142
14.504
12.8711
11.3344
9.90711
8.59717
7.40813
6.33989
5.38942
4.55144
3.81905
3.18427
2.63848
2.17284
1.77855
1.44711
1.17046
0.941161
0.75239
0.598019
0.472608
0.371379
0.290188
0.225478
0.174222
0.133872
0.1023
0.077745
0.058761
0.0441707
0.0330232
0.0245555
0.0181607
0.0133591
0.00977444
0.00711344
0.0051493
0.00370769
0.00265553
0.00189188
0.00134073
0.000945129
0.000662751
0.000462293
0.000320763
0.000221376
0.000151949
0.000103692
7.02984e-05
4.72626e-05
3.13767e-05
2.03563e-05
1.25632e-05
6.79925e-06
2.14833e-06
1.78385
5.30445
8.68609
11.8437
14.7032
17.2041
19.3023
20.9704
22.1979
22.9901
23.3662
23.3571
23.0025
22.3482
21.4437
20.3395
19.0849
17.7267
16.3078
14.8661
13.4342
12.0392
10.7027
9.44093
8.26562
7.18403
6.1998
5.31349
4.52316
3.82494
3.21353
2.68264
2.22541
1.83469
1.50335
1.22442
0.991295
0.797823
0.638358
0.507807
0.401633
0.315846
0.246975
0.192033
0.148478
0.114163
0.0872914
0.0663771
0.0501965
0.0377527
0.0282391
0.0210083
0.0155444
0.0114396
0.00837354
0.00609639
0.00441479
0.00318
0.00227839
0.00162375
0.00115109
0.000811699
0.000569357
0.000397262
0.000275717
0.000190338
0.000130678
8.91978e-05
6.04858e-05
4.06742e-05
2.70081e-05
1.75252e-05
1.08175e-05
5.85504e-06
1.8501e-06
1.42723
4.24501
6.95449
9.48921
11.7908
13.8115
15.5157
16.8805
17.8964
18.566
18.903
18.9301
18.6777
18.1811
17.4789
16.6107
15.6159
14.5321
13.3938
12.232
11.0735
9.9408
8.85207
7.82121
6.85829
5.96988
5.1595
4.4281
3.77453
3.19599
2.68843
2.24694
1.86608
1.54012
1.26328
1.02991
0.834609
0.672325
0.538409
0.428653
0.339296
0.267025
0.20895
0.16258
0.125788
0.0967773
0.0740429
0.0563353
0.0426261
0.032076
0.024005
0.017867
0.0132263
0.00973799
0.00713102
0.00519389
0.0037627
0.00271131
0.00194329
0.00138541
0.000982451
0.000693004
0.000486248
0.000339372
0.000235605
0.00016269
0.000111725
7.62796e-05
5.17379e-05
3.47992e-05
2.31117e-05
1.49994e-05
9.25983e-06
5.0125e-06
1.58398e-06
1.13883
3.38793
5.55269
7.58117
9.42759
11.0541
12.4322
13.5432
14.3785
14.9391
15.2345
15.2819
15.1041
14.7283
14.1846
13.5041
12.718
11.8562
10.9466
10.0142
9.08099
8.1655
7.28281
6.44468
5.65972
4.93372
4.26997
3.66962
3.13206
2.6553
2.23629
1.87121
1.55575
1.28536
1.05538
0.861253
0.698585
0.563252
0.451446
0.359711
0.284949
0.224422
0.175738
0.136832
0.105937
0.0815556
0.0624346
0.0475306
0.0359839
0.0270921
0.0202855
0.0151059
0.0111876
0.00824064
0.00603712
0.00439896
0.00318807
0.00229812
0.00164774
0.00117512
0.000833599
0.000588195
0.000412835
0.000288219
0.00020015
0.000138245
9.49618e-05
6.48508e-05
4.39964e-05
2.95987e-05
1.96618e-05
1.27627e-05
7.88018e-06
4.26613e-06
1.34817e-06
0.906076
2.69602
4.42033
6.03849
7.51463
8.81891
9.92856
10.8284
11.5109
11.9762
12.2308
12.2876
12.1638
11.8804
11.4606
10.9289
10.3097
9.62701
8.90295
8.15779
7.40931
6.6727
5.96041
5.28225
4.64553
4.05526
3.51441
3.02422
2.58444
2.19369
1.84967
1.54944
1.28962
1.06658
0.876616
0.716053
0.58134
0.469132
0.376325
0.300097
0.237908
0.187512
0.14694
0.114487
0.088695
0.0683249
0.0523373
0.0398666
0.0301985
0.0227483
0.0170417
0.0126966
0.00940758
0.00693262
0.00508105
0.00370384
0.00268536
0.00193648
0.00138895
0.000990905
0.000703161
0.000496317
0.000348457
0.000243346
0.000169036
0.000116786
8.02427e-05
5.48126e-05
3.7195e-05
2.50286e-05
1.66293e-05
1.07963e-05
6.66701e-06
3.60971e-06
1.14079e-06
0.718679
2.13878
3.50788
4.79441
5.97032
7.01217
7.90184
8.62706
9.18149
9.56456
9.781
9.84015
9.75517
9.54209
9.21892
8.80472
8.31877
7.77988
7.20578
6.61269
6.01497
5.42494
4.85281
4.30672
3.79277
3.31526
2.87682
2.47865
2.12078
1.80224
1.52132
1.27577
1.06295
0.88
0.72397
0.591917
0.48099
0.388485
0.311891
0.248912
0.197481
0.155763
0.122146
0.0952335
0.0738266
0.0569066
0.0436169
0.0332431
0.0251951
0.0189893
0.0142329
0.0106091
0.00786456
0.00579814
0.0042514
0.00310035
0.00224872
0.00162222
0.00116397
0.000830696
0.000589673
0.000416348
0.000292403
0.000204262
0.000141928
9.80841e-05
6.74103e-05
4.60585e-05
3.1262e-05
2.10409e-05
1.39828e-05
9.0797e-06
5.60779e-06
3.03655e-06
9.59711e-07
0.568196
1.69121
2.77464
3.79396
4.7273
5.55624
6.26649
6.84817
7.296
7.60912
7.79082
7.84802
7.79066
7.63101
7.38295
7.06131
6.68119
6.2574
5.804
5.33389
4.85861
4.3881
3.93068
3.49302
3.0802
2.69583
2.3422
2.02045
1.73075
1.47245
1.2443
1.04456
0.871194
0.721957
0.594512
0.486516
0.395688
0.319858
0.257003
0.205268
0.162978
0.128641
0.100948
0.0787587
0.0610942
0.0471214
0.0361383
0.0275589
0.0208985
0.0157593
0.0118179
0.00881328
0.00653635
0.00482109
0.00353652
0.00258009
0.00187211
0.00135106
0.000969766
0.000692339
0.000491627
0.000347234
0.00024394
0.000170459
0.000118474
8.18983e-05
5.63011e-05
3.84777e-05
2.61228e-05
1.75859e-05
1.16891e-05
7.59169e-06
4.68945e-06
2.53957e-06
8.02701e-07
0.447706
1.33276
2.18716
2.99188
3.7299
4.38684
4.95141
5.41575
5.77549
6.02968
6.18059
6.23335
6.19543
6.07621
5.88638
5.63743
5.34113
5.00909
4.65241
4.28132
3.90502
3.5315
3.16747
2.81837
2.48837
2.1805
1.89672
1.63806
1.40476
1.19641
1.0121
0.850502
0.710046
0.588976
0.485452
0.397621
0.323667
0.261856
0.210567
0.168308
0.133731
0.105632
0.0829488
0.0647587
0.0502661
0.0387935
0.029769
0.0227145
0.0172343
0.013003
0.00975586
0.007279
0.00540098
0.00398545
0.00292479
0.00213469
0.00154954
0.00111869
0.000803276
0.000573681
0.000407507
0.000287914
0.00020233
0.000141425
9.83233e-05
6.79873e-05
4.67503e-05
3.19585e-05
2.17021e-05
1.46131e-05
9.71512e-06
6.31077e-06
3.89882e-06
2.11162e-06
6.67461e-07
0.351529
1.04659
1.71796
2.35092
2.93226
3.45078
3.89762
4.26655
4.55398
4.75899
4.88314
4.9302
4.9058
4.81709
4.67226
4.4802
4.25005
3.99088
3.7114
3.41969
3.12304
2.82783
2.53945
2.2623
1.99978
1.7544
1.5278
1.32091
1.13401
0.966829
0.818716
0.688677
0.575496
0.477811
0.39418
0.323143
0.263261
0.213159
0.171542
0.137218
0.109108
0.0862426
0.0677689
0.0529421
0.0411198
0.0317539
0.0243812
0.0186139
0.0141306
0.0106669
0.00800714
0.00597713
0.00443706
0.00327562
0.0024049
0.00175597
0.00127514
0.000920944
0.000661525
0.000472612
0.000335828
0.000237349
0.000166848
0.000116659
8.11283e-05
5.61131e-05
3.85954e-05
2.63904e-05
1.79252e-05
1.20727e-05
8.02783e-06
5.2157e-06
3.22277e-06
1.74567e-06
5.51794e-07
0.275012
0.818872
1.34448
1.84046
2.2966
2.70418
3.05632
3.34806
3.57652
3.74084
3.84208
3.88302
3.86789
3.80211
3.69197
3.54429
3.36616
3.16463
2.94651
2.71815
2.48531
2.25303
2.02562
1.80662
1.59879
1.40416
1.22413
1.05949
0.910518
0.777073
0.658676
0.554587
0.463873
0.385482
0.318289
0.261148
0.212929
0.172542
0.138961
0.111239
0.0885135
0.0700123
0.0550518
0.0430349
0.0334456
0.0258431
0.0198542
0.0151662
0.0115195
0.00870025
0.00653412
0.0048799
0.00362421
0.00267673
0.00196605
0.00143612
0.00104329
0.000753783
0.00054165
0.000387107
0.000275163
0.000194537
0.000136795
9.5675e-05
6.65547e-05
4.60458e-05
3.16793e-05
2.16669e-05
1.47203e-05
9.9164e-06
6.59537e-06
4.28581e-06
2.64857e-06
1.4348e-06
4.53571e-07
0.214348
0.638307
1.04823
1.43537
1.79185
2.11091
2.3872
2.61683
2.79748
2.9284
3.0103
3.04521
3.03632
2.98773
2.90423
2.79106
2.65369
2.49759
2.32805
2.15003
1.96805
1.7861
1.6076
1.43536
1.2716
1.11799
0.975666
0.845302
0.727168
0.621199
0.527051
0.444172
0.371852
0.309282
0.255587
0.209876
0.17126
0.138883
0.111937
0.0896707
0.0714015
0.0565152
0.0444678
0.0347832
0.0270491
0.0209128
0.0160756
0.0122865
0.00933717
0.00705564
0.00530159
0.00396128
0.00294331
0.0021748
0.00159806
0.0011678
0.000848702
0.000613423
0.000440951
0.00031525
0.000224162
0.000158531
0.000111511
7.80148e-05
5.42852e-05
3.75675e-05
2.58531e-05
1.76865e-05
1.20189e-05
8.09838e-06
5.38729e-06
3.50141e-06
2.16414e-06
1.17248e-06
3.70684e-07
0.166427
0.495649
0.814114
1.1151
1.39256
1.64128
1.85711
2.03701
2.17914
2.28284
2.3486
2.37789
2.3731
2.33733
2.27424
2.18782
2.08228
1.96183
1.83058
1.69239
1.55078
1.40889
1.26942
1.13459
1.00618
0.885523
0.773561
0.670855
0.577653
0.493934
0.419457
0.353812
0.296463
0.246786
0.204109
0.167738
0.136982
0.111169
0.089665
0.0718799
0.0572745
0.0453635
0.0357163
0.0279549
0.0217521
0.0168273
0.0129423
0.00989713
0.00752526
0.00568934
0.00427704
0.00319725
0.0023767
0.0017569
0.00129153
0.000944186
0.000686457
0.000496343
0.00035692
0.000255263
0.000181568
0.00012845
9.03801e-05
6.32499e-05
4.40239e-05
3.04746e-05
2.09774e-05
1.43545e-05
9.75701e-06
6.57573e-06
4.37524e-06
2.84413e-06
1.75816e-06
9.52627e-07
3.01203e-07
0.128713
0.383364
0.629794
0.862864
1.07793
1.271
1.43885
1.57913
1.69039
1.77208
1.82449
1.84873
1.84656
1.82034
1.77282
1.70706
1.62628
1.53371
1.43251
1.32569
1.21598
1.10583
0.997344
0.89229
0.792075
0.697768
0.610124
0.529613
0.456453
0.39065
0.332039
0.280316
0.235076
0.195846
0.162108
0.133325
0.10896
0.0884925
0.0714258
0.0572979
0.045686
0.0362086
0.0285262
0.0223408
0.017394
0.0134635
0.0103609
0.0079273
0.00603061
0.00456161
0.0034309
0.00256592
0.00190826
0.00141123
0.00103786
0.00075904
0.000552064
0.000399319
0.000287254
0.00020551
0.000146228
0.000103482
7.28346e-05
5.09863e-05
3.54982e-05
2.45795e-05
1.69239e-05
1.15836e-05
7.87545e-06
5.30883e-06
3.53301e-06
2.29703e-06
1.42017e-06
7.69595e-07
2.43328e-07
0.0991473
0.295329
0.485248
0.664986
0.830995
0.980218
1.11018
1.21907
1.30573
1.36971
1.4112
1.43102
1.43047
1.41132
1.37565
1.32579
1.26419
1.19333
1.11563
1.03341
0.948779
0.863647
0.779656
0.698187
0.620348
0.546991
0.478721
0.415922
0.358782
0.307325
0.261437
0.220895
0.185396
0.154579
0.128048
0.105392
0.0861952
0.0700537
0.0565823
0.0454211
0.0362398
0.0287401
0.0226563
0.0177543
0.013831
0.0107117
0.00824765
0.00631375
0.00480556
0.00363676
0.0027366
0.00204761
0.00152346
0.00112714
0.000829274
0.000606735
0.00044146
0.000319436
0.000229871
0.000164514
0.000117096
8.28925e-05
5.83609e-05
4.08663e-05
2.84603e-05
1.97117e-05
1.35757e-05
9.29427e-06
6.3204e-06
4.2615e-06
2.83659e-06
1.84456e-06
1.1406e-06
6.18172e-07
1.95462e-07
0.0760625
0.226583
0.37235
0.510383
0.637984
0.75282
0.852998
0.937115
1.00428
1.05412
1.08677
1.10279
1.10318
1.08925
1.06257
1.0249
0.97811
0.92408
0.864672
0.801654
0.736663
0.671164
0.606435
0.54355
0.48338
0.426594
0.373675
0.324934
0.280531
0.240497
0.204754
0.173141
0.14543
0.121349
0.100597
0.0828579
0.0678139
0.0551529
0.044577
0.0358074
0.0285876
0.0226856
0.0178942
0.0140308
0.0109365
0.00847462
0.00652866
0.00500041
0.00380785
0.00288311
0.0021705
0.00162477
0.0012094
0.000895159
0.000658866
0.000482247
0.000351016
0.000254085
0.000182909
0.000130948
9.32362e-05
6.60227e-05
4.64977e-05
3.25688e-05
2.26881e-05
1.57181e-05
1.0828e-05
7.41489e-06
5.04351e-06
3.40127e-06
2.26443e-06
1.47278e-06
9.10845e-07
4.93683e-07
1.56121e-07
0.0581112
0.17312
0.284532
0.390091
0.48775
0.575737
0.652609
0.71729
0.769092
0.807713
0.833229
0.846063
0.84694
0.836846
0.816962
0.788613
0.753207
0.712179
0.666945
0.618856
0.569165
0.518999
0.469344
0.421032
0.37474
0.330994
0.290175
0.252533
0.218201
0.187211
0.159512
0.134988
0.113469
0.0947503
0.0786038
0.064789
0.0530623
0.0431845
0.0349266
0.0280734
0.022427
0.0178077
0.0140548
0.0110266
0.00859964
0.0066674
0.00513911
0.00393813
0.00300039
0.00227282
0.00171185
0.00128201
0.000954676
0.000706918
0.000520525
0.000381139
0.000277527
0.000200963
0.000144718
0.000103642
7.38178e-05
5.22885e-05
3.68362e-05
2.5809e-05
1.7984e-05
1.24625e-05
8.58742e-06
5.88195e-06
4.00172e-06
2.69929e-06
1.79742e-06
1.16924e-06
7.23216e-07
3.92025e-07
1.23961e-07
0.0442103
0.131716
0.21651
0.29689
0.37131
0.438428
0.49715
0.546654
0.586409
0.616178
0.636002
0.646188
0.647273
0.639989
0.625222
0.603965
0.577281
0.546255
0.511959
0.475421
0.437596
0.399348
0.361431
0.324489
0.289044
0.255507
0.224175
0.195248
0.168835
0.144967
0.123612
0.104685
0.0880606
0.0735861
0.061089
0.050387
0.0412947
0.0336295
0.0272161
0.0218895
0.0174975
0.0139017
0.0109783
0.00861778
0.00672466
0.00521646
0.00402282
0.00308424
0.00235097
0.00178171
0.00134257
0.0010059
0.00074938
0.000555129
0.000408921
0.000299536
0.000218189
0.000158052
0.000113856
8.1567e-05
5.81139e-05
4.11774e-05
2.90173e-05
2.03366e-05
1.41747e-05
9.82525e-06
6.77192e-06
4.6395e-06
3.15714e-06
2.13007e-06
1.41867e-06
9.22978e-07
5.70974e-07
3.0954e-07
9.78658e-08
0.0334916
0.099788
0.164047
0.22499
0.281453
0.332424
0.377077
0.414788
0.44515
0.467974
0.483285
0.491303
0.492423
0.487189
0.476261
0.460384
0.440354
0.416987
0.391096
0.363455
0.334792
0.305762
0.276944
0.248828
0.221818
0.19623
0.172298
0.150178
0.129958
0.111669
0.095288
0.0807554
0.0679791
0.0568446
0.0472227
0.0389757
0.0319633
0.0260468
0.0210925
0.0169747
0.0135768
0.010793
0.0085281
0.00669808
0.00522945
0.0040587
0.00313155
0.0024021
0.00183187
0.00138895
0.00104707
0.000784843
0.000584944
0.000433494
0.000319447
0.000234085
0.000170576
0.000123605
8.90725e-05
6.3833e-05
4.54934e-05
3.22449e-05
2.27293e-05
1.59341e-05
1.11092e-05
7.70235e-06
5.31002e-06
3.63881e-06
2.47674e-06
1.67134e-06
1.11336e-06
7.24465e-07
4.48227e-07
2.43023e-07
7.68475e-08
0.0252625
0.0752735
0.12376
0.169764
0.212414
0.25095
0.28475
0.313342
0.336416
0.353826
0.365582
0.371844
0.372902
0.369157
0.3611
0.349287
0.334312