/*--------------------------------*- C++ -*----------------------------------*\
  =========                 |
  \\      /  F ield         | OpenFOAM: The Open Source CFD Toolbox
   \\    /   O peration     | Website:  https://openfoam.org
    \\  /    A nd           | Version:  10
     \\/     M anipulation  |
\*---------------------------------------------------------------------------*/
FoamFile
{
    format      ascii;
    class       volScalarField;
    location    "132";
    object      gradTz;
}
// * * * * * * * * * * * * * * * * * * * * * * * * * * * * * * * * * * * * * //

dimensions      [0 -1 0 1 0 0 0];

internalField   nonuniform List<scalar> 
11250
(
-14384.1
-4178.39
-1555.75
-748.836
-439.979
-293.652
-211.263
-158.688
-122.093
-95.0795
-74.3581
-58.0899
-45.1632
-34.8517
-26.6427
-20.1479
-15.0565
-11.1102
-8.09029
-5.81117
-4.11603
-2.87412
-1.97819
-1.34189
-0.897059
-0.590964
-0.383651
-0.245448
-0.154757
-0.0961701
-0.0589029
-0.0355554
-0.0211452
-0.0123813
-0.00712944
-0.00403018
-0.00223138
-0.00120676
-0.000635607
-0.000325096
-0.000161037
-7.70775e-05
-3.55815e-05
-1.58207e-05
-6.76934e-06
-2.78592e-06
-1.10264e-06
-4.19749e-07
-1.53738e-07
-5.42025e-08
-1.84147e-08
-6.02482e-09
-1.91205e-09
-6.0369e-10
-1.83302e-10
-5.04904e-11
0
0
0
0
0
0
-2.08547e-11
-1.09762e-12
2.19523e-11
1.09762e-12
-1.09762e-12
0
1.09762e-12
-1.09762e-12
0
-5.48809e-12
-1.09762e-12
6.5857e-12
0
-8356.09
-4950.16
-2849.79
-1747
-1156.28
-816.252
-603.57
-460.02
-356.945
-279.444
-219.31
-171.746
-133.761
-103.354
-79.0875
-59.8534
-44.755
-33.0404
-24.0689
-17.294
-12.2525
-8.55753
-5.89107
-3.99681
-2.67225
-1.76064
-1.14312
-0.731398
-0.461191
-0.286615
-0.175559
-0.105979
-0.0630325
-0.0369119
-0.0212582
-0.0120197
-0.006657
-0.00360165
-0.00189796
-0.000971334
-0.000481476
-0.000230622
-0.000106548
-4.74148e-05
-2.03055e-05
-8.36426e-06
-3.31352e-06
-1.26254e-06
-4.62861e-07
-1.63351e-07
-5.55197e-08
-1.81963e-08
-5.75261e-09
-1.77155e-09
-5.47711e-10
-1.44886e-10
-2.52452e-11
-5.48809e-12
5.48809e-12
-1.09762e-12
-3.29285e-12
1.09762e-12
1.09762e-12
8.78094e-12
-1.09762e-12
-1.20738e-11
1.09762e-12
2.19523e-12
-1.09762e-12
-4.39047e-12
1.09762e-12
4.39047e-12
0
-8.78094e-12
8.78094e-12
-5727.96
-4410.62
-3141.11
-2228.74
-1618.54
-1209.21
-925.538
-720.697
-566.952
-447.926
-353.75
-278.265
-217.425
-168.408
-129.105
-97.8478
-73.2486
-54.1254
-39.4581
-28.3688
-20.1092
-14.0509
-9.67634
-6.56701
-4.39187
-2.8943
-1.87955
-1.2028
-0.758551
-0.471479
-0.288829
-0.174379
-0.10373
-0.0607573
-0.0350019
-0.0197992
-0.0109721
-0.00594086
-0.00313366
-0.00160556
-0.000796882
-0.000382245
-0.000176871
-7.88375e-05
-3.38195e-05
-1.39552e-05
-5.5381e-06
-2.11393e-06
-7.76381e-07
-2.74504e-07
-9.34863e-08
-3.0663e-08
-9.70074e-09
-2.99759e-09
-9.1212e-10
-2.54647e-10
-4.28071e-11
2.19524e-12
0
5.48809e-12
0
0
1.09762e-12
5.48809e-12
-1.09762e-12
-5.48809e-12
0
0
0
-1.09762e-11
0
1.20738e-11
1.09762e-12
-1.09762e-12
-1.09762e-12
-4407.21
-3813.79
-3066.82
-2401.16
-1874.39
-1472.74
-1166.68
-929.979
-743.445
-594.003
-472.889
-374.16
-293.626
-228.18
-175.374
-133.18
-99.8571
-73.8821
-53.9178
-38.7986
-27.5224
-19.2427
-13.2586
-9.00226
-6.02285
-3.97048
-2.57917
-1.65093
-1.0414
-0.647411
-0.396677
-0.239536
-0.14252
-0.0835027
-0.0481257
-0.0272393
-0.0151077
-0.00818896
-0.00432532
-0.00221968
-0.00110372
-0.000530515
-0.000246022
-0.000109918
-4.72676e-05
-1.95533e-05
-7.77954e-06
-2.97716e-06
-1.09625e-06
-3.88571e-07
-1.3265e-07
-4.36402e-08
-1.3841e-08
-4.26095e-09
-1.27982e-09
-3.72092e-10
-8.45165e-11
-7.68332e-12
-2.19523e-12
0
-1.09762e-12
0
-1.20738e-11
-1.09762e-12
1.4269e-11
1.09762e-12
0
0
-2.19524e-12
0
8.78094e-12
1.09762e-12
-9.87856e-12
0
0
-3666.2
-3357.5
-2899.55
-2424.83
-1997.49
-1635.49
-1335.74
-1088.68
-884.506
-715.119
-574.313
-457.397
-360.741
-281.417
-216.943
-165.143
-124.062
-91.9346
-67.179
-48.3933
-34.3596
-24.0415
-16.576
-11.261
-7.53771
-4.97124
-3.23045
-2.06848
-1.30516
-0.811582
-0.49738
-0.300416
-0.178792
-0.104792
-0.0604263
-0.0342265
-0.0190021
-0.0103135
-0.00545657
-0.00280583
-0.0013984
-0.000673891
-0.000313387
-0.000140433
-6.05778e-05
-2.51397e-05
-1.00348e-05
-3.85286e-06
-1.42337e-06
-5.06176e-07
-1.73373e-07
-5.72254e-08
-1.82183e-08
-5.61212e-09
-1.66948e-09
-4.79659e-10
-1.26226e-10
-2.08547e-11
1.20738e-11
0
-8.78094e-12
0
2.19523e-12
1.09762e-12
5.48809e-12
-2.19523e-12
-4.39047e-12
1.09762e-12
2.19523e-12
-5.48809e-12
-2.19523e-12
4.39047e-12
0
-5.48809e-12
5.48809e-12
-3216.64
-3034.12
-2734.33
-2388.74
-2045.68
-1729.43
-1448.65
-1203.98
-992.865
-811.891
-657.717
-527.339
-418.075
-327.482
-253.279
-193.309
-145.531
-108.033
-79.0576
-57.0197
-40.5262
-28.3811
-19.5828
-13.3123
-8.91585
-5.88305
-3.82461
-2.44985
-1.5463
-0.961812
-0.589607
-0.356216
-0.212065
-0.124343
-0.0717405
-0.0406677
-0.0226036
-0.0122867
-0.00651286
-0.00335672
-0.00167746
-0.000810814
-0.000378308
-0.000170122
-7.36551e-05
-3.0683e-05
-1.22948e-05
-4.73902e-06
-1.75757e-06
-6.27456e-07
-2.15746e-07
-7.15043e-08
-2.28645e-08
-7.05768e-09
-2.09206e-09
-5.90518e-10
-1.6574e-10
-4.28071e-11
6.5857e-12
4.39047e-12
-1.09762e-12
0
4.39047e-12
0
-5.48809e-12
1.09762e-12
0
0
0
-1.09762e-11
-2.19523e-12
4.39047e-12
1.09762e-12
4.39047e-12
3.29285e-12
-2929.12
-2808.51
-2597.43
-2335.4
-2055.62
-1780.15
-1521.34
-1285.1
-1073.57
-886.908
-724.312
-584.456
-465.721
-366.294
-284.233
-217.518
-164.119
-122.056
-89.4572
-64.6041
-45.9674
-32.2222
-22.2512
-15.1371
-10.1442
-6.69718
-4.35594
-2.79135
-1.7625
-1.09664
-0.672458
-0.406388
-0.242011
-0.141959
-0.0819517
-0.046495
-0.025873
-0.0140864
-0.00748229
-0.00386614
-0.0019378
-0.000939811
-0.000440119
-0.000198702
-8.63864e-05
-3.61405e-05
-1.45448e-05
-5.63083e-06
-2.09743e-06
-7.52016e-07
-2.59677e-07
-8.64034e-08
-2.7739e-08
-8.61191e-09
-2.57062e-09
-7.28818e-10
-1.98669e-10
-4.39047e-11
1.09762e-12
2.19524e-12
0
1.09762e-12
-1.09762e-12
-1.09762e-12
1.09762e-12
-1.09762e-12
0
0
0
0
0
-4.39047e-12
-1.09762e-12
0
5.48809e-12
-2738.71
-2651.09
-2491.45
-2282.94
-2048.2
-1805.27
-1566.77
-1340.82
-1132.23
-943.636
-776.17
-629.947
-504.347
-398.209
-309.979
-237.845
-179.849
-134
-98.363
-71.1294
-50.6675
-35.5513
-24.5709
-16.7274
-11.2172
-7.40974
-4.8218
-3.09124
-1.9526
-1.21534
-0.745474
-0.450646
-0.268451
-0.157531
-0.0909918
-0.0516664
-0.028785
-0.0156976
-0.00835612
-0.00432923
-0.00217681
-0.00105955
-0.00049817
-0.000225871
-9.8637e-05
-4.14554e-05
-1.67615e-05
-6.51934e-06
-2.43966e-06
-8.78724e-07
-3.04782e-07
-1.01881e-07
-3.28583e-08
-1.0221e-08
-3.05796e-09
-8.64923e-10
-2.46964e-10
-6.69547e-11
1.09762e-12
0
2.19523e-12
0
3.29285e-12
0
0
-1.09762e-12
0
-1.20738e-11
0
1.31714e-11
1.09762e-12
-8.78094e-12
-8.78094e-12
4.39047e-12
1.09762e-11
-2609.77
-2540.84
-2412.02
-2237.9
-2034.42
-1816.04
-1594.43
-1378.37
-1174.07
-985.669
-815.697
-665.39
-534.971
-423.871
-330.923
-254.539
-192.871
-143.955
-105.829
-76.6267
-54.6438
-38.3782
-26.5469
-18.0859
-12.136
-8.02125
-5.22236
-3.34954
-2.11659
-1.31787
-0.80861
-0.48895
-0.291355
-0.171033
-0.0988412
-0.0561668
-0.0313284
-0.0171124
-0.00912896
-0.00474252
-0.00239239
-0.00116882
-0.000551805
-0.00025129
-0.000110242
-4.65512e-05
-1.89114e-05
-7.39042e-06
-2.77861e-06
-1.00539e-06
-3.50279e-07
-1.17581e-07
-3.80676e-08
-1.18916e-08
-3.5464e-09
-1.00652e-09
-2.95259e-10
-1.07567e-10
-2.305e-11
1.09762e-12
1.09762e-12
-1.09762e-12
0
0
1.09762e-12
6.58571e-12
-1.09762e-12
-6.5857e-12
1.09762e-12
-1.09762e-12
0
1.09762e-12
0
-1.09762e-12
0
-2521.25
-2463.42
-2353.58
-2201.72
-2019.67
-1819.21
-1610.85
-1403.32
-1203.45
-1016.29
-845.272
-692.469
-558.764
-444.085
-347.609
-267.967
-203.431
-152.083
-111.961
-81.1645
-57.9407
-40.7311
-28.1971
-19.2237
-12.9076
-8.53597
-5.56023
-3.5678
-2.25539
-1.40477
-0.862183
-0.521481
-0.310819
-0.182515
-0.105524
-0.0600055
-0.033505
-0.0183294
-0.00979859
-0.0051039
-0.00258291
-0.00126653
-0.000600353
-0.000274581
-0.000121002
-5.13297e-05
-2.09488e-05
-8.22402e-06
-3.10588e-06
-1.12873e-06
-3.94901e-07
-1.33109e-07
-4.32505e-08
-1.3538e-08
-4.07436e-09
-1.17994e-09
-3.5453e-10
-1.24031e-10
-2.19523e-11
3.29285e-12
0
9.87856e-12
0
-9.87856e-12
0
1.64643e-11
1.09762e-12
-1.64643e-11
-1.09762e-12
2.19524e-12
5.48809e-12
-2.19524e-12
-5.48809e-12
0
0
-2460.02
-2409
-2311.12
-2173.79
-2006.34
-1818.69
-1620.32
-1419.69
-1223.82
-1038.26
-867.042
-712.798
-576.913
-459.707
-360.648
-278.559
-211.826
-158.59
-116.898
-84.8374
-60.6211
-42.6515
-29.5487
-20.1585
-13.5432
-8.96106
-5.83987
-3.74881
-2.37069
-1.47706
-0.906798
-0.548593
-0.327049
-0.192092
-0.1111
-0.063213
-0.0353284
-0.0193535
-0.0103658
-0.00541258
-0.00274726
-0.00135173
-0.000643165
-0.000295347
-0.000130698
-5.56783e-05
-2.28199e-05
-8.996e-06
-3.41124e-06
-1.24459e-06
-4.37095e-07
-1.47841e-07
-4.81909e-08
-1.51581e-08
-4.59243e-09
-1.34129e-09
-4.07216e-10
-1.1964e-10
-2.52452e-11
0
1.09762e-12
0
-1.09762e-12
-1.09762e-12
1.09762e-12
1.09762e-12
1.09762e-12
-1.09762e-12
0
0
1.09762e-12
-6.5857e-12
0
5.48809e-12
0
-2417.53
-2370.79
-2280.56
-2152.78
-1995.25
-1816.62
-1625.61
-1430.31
-1237.79
-1053.83
-882.834
-727.817
-590.522
-471.568
-370.652
-286.758
-218.376
-163.7
-120.799
-87.754
-62.7592
-44.1895
-30.635
-20.9122
-14.0572
-9.30561
-6.06704
-3.89615
-2.46471
-1.53609
-0.943273
-0.570772
-0.340326
-0.199925
-0.11566
-0.0658366
-0.036822
-0.020195
-0.0108341
-0.0056692
-0.00288503
-0.00142381
-0.000679717
-0.000313241
-0.000139126
-5.9489e-05
-2.44718e-05
-9.68208e-06
-3.68426e-06
-1.34874e-06
-4.75205e-07
-1.61215e-07
-5.27219e-08
-1.66256e-08
-5.03806e-09
-1.50154e-09
-4.47828e-10
-1.29519e-10
-3.7319e-11
3.29285e-12
1.4269e-11
-2.19523e-12
-1.31714e-11
0
-9.87856e-12
-2.08547e-11
8.78094e-12
2.19523e-11
0
0
0
0
-2.19524e-12
-3.29285e-12
5.48809e-12
-2388.06
-2344.05
-2258.77
-2137.3
-1986.48
-1814.15
-1628.44
-1437.14
-1247.28
-1064.74
-894.137
-738.749
-600.565
-480.424
-378.196
-292.994
-223.395
-167.641
-123.825
-90.0274
-64.4333
-45.3985
-31.4919
-21.5087
-14.4651
-9.57979
-6.24825
-4.01393
-2.54001
-1.58344
-0.972555
-0.588583
-0.350986
-0.206208
-0.119313
-0.067936
-0.0380168
-0.0208687
-0.01121
-0.00587609
-0.00299673
-0.00148262
-0.000709754
-0.000328047
-0.000146146
-6.26826e-05
-2.5864e-05
-1.02633e-05
-3.91662e-06
-1.43772e-06
-5.07882e-07
-1.72763e-07
-5.66327e-08
-1.78912e-08
-5.45516e-09
-1.63216e-09
-4.99416e-10
-1.39397e-10
-1.75619e-11
1.09762e-12
-2.19524e-12
6.5857e-12
0
-1.86595e-11
-4.39047e-12
9.87856e-12
3.29285e-12
3.29285e-12
1.09762e-12
0
-1.09762e-12
0
0
1.09762e-12
-1.09762e-12
-2367.66
-2325.42
-2243.37
-2126.07
-1979.79
-1811.81
-1629.85
-1441.49
-1253.66
-1072.29
-902.125
-746.596
-607.867
-486.932
-383.79
-297.656
-227.173
-170.627
-126.13
-91.768
-65.7206
-46.3318
-32.1558
-21.9722
-14.783
-9.79406
-6.3902
-4.1064
-2.59924
-1.62074
-0.995641
-0.602628
-0.359386
-0.211151
-0.12218
-0.0695788
-0.0389492
-0.0213935
-0.0115027
-0.00603732
-0.00308399
-0.00152873
-0.000733395
-0.000339752
-0.00015172
-6.52288e-05
-2.69783e-05
-1.07301e-05
-4.10388e-06
-1.50966e-06
-5.34386e-07
-1.82141e-07
-5.98191e-08
-1.89449e-08
-5.79103e-09
-1.71997e-09
-5.23564e-10
-1.51471e-10
-1.64643e-11
7.68332e-12
4.39047e-12
0
-1.20738e-11
-1.09762e-12
1.31714e-11
2.19523e-12
-2.19523e-12
-1.09762e-12
1.09762e-12
-1.09762e-12
-4.39047e-12
-7.68332e-12
3.29285e-12
1.31714e-11
-3.29285e-12
-2353.62
-2312.52
-2232.58
-2118.05
-1974.81
-1809.81
-1630.49
-1444.24
-1257.92
-1077.47
-907.703
-752.154
-613.099
-491.641
-387.874
-301.085
-229.971
-172.851
-127.855
-93.0775
-66.6932
-47.0397
-32.661
-22.3262
-15.0265
-9.95857
-6.49946
-4.17773
-2.64501
-1.6496
-1.01352
-0.613506
-0.365883
-0.214965
-0.124384
-0.0708358
-0.0396588
-0.0217909
-0.0117234
-0.00615854
-0.00314949
-0.00156333
-0.000751157
-0.00034856
-0.000155923
-6.71535e-05
-2.78226e-05
-1.10847e-05
-4.24641e-06
-1.56452e-06
-5.54621e-07
-1.89305e-07
-6.2247e-08
-1.97483e-08
-6.05446e-09
-1.78363e-09
-5.33442e-10
-1.47081e-10
-1.53666e-11
0
-2.19524e-12
0
1.09762e-12
0
4.39047e-12
0
-4.39047e-12
-1.09762e-12
0
-4.39047e-12
4.39047e-12
5.48809e-12
-4.39047e-12
1.09762e-12
-1.09762e-12
-2344.01
-2303.66
-2225.1
-2112.4
-1971.2
-1808.22
-1630.72
-1445.96
-1260.73
-1080.99
-911.553
-756.04
-616.796
-494.999
-390.81
-303.567
-232.009
-174.48
-129.126
-94.0459
-67.4154
-47.5673
-33.0389
-22.5917
-15.2096
-10.0827
-6.58211
-4.2318
-2.67978
-1.67156
-1.02713
-0.621782
-0.370819
-0.217852
-0.126044
-0.0717765
-0.0401857
-0.0220834
-0.0118846
-0.00624639
-0.0031967
-0.00158818
-0.000763876
-0.000354861
-0.000158929
-6.85303e-05
-2.8427e-05
-1.13388e-05
-4.34866e-06
-1.60395e-06
-5.69215e-07
-1.94478e-07
-6.39977e-08
-2.03103e-08
-6.21581e-09
-1.83412e-09
-5.47711e-10
-1.30616e-10
-3.29285e-12
0
-8.78094e-12
-1.09762e-12
5.48809e-12
8.78094e-12
0
-8.78094e-12
0
-4.39047e-12
0
-6.58571e-12
-1.09762e-12
9.87856e-12
9.87856e-12
1.09762e-12
-8.78094e-12
-2337.48
-2297.62
-2219.96
-2108.46
-1968.62
-1807
-1630.75
-1447.03
-1262.58
-1083.35
-914.179
-758.722
-619.373
-497.36
-392.888
-305.336
-233.47
-175.654
-130.046
-94.7502
-67.9428
-47.954
-33.3168
-22.7876
-15.3451
-10.1748
-6.64355
-4.2721
-2.70573
-1.68797
-1.03731
-0.627969
-0.3745
-0.219998
-0.12727
-0.0724654
-0.0405676
-0.022293
-0.0119986
-0.00630784
-0.00322938
-0.00160524
-0.000772558
-0.000359143
-0.000160966
-6.94621e-05
-2.88357e-05
-1.15106e-05
-4.41783e-06
-1.63062e-06
-5.79066e-07
-1.97965e-07
-6.51908e-08
-2.0689e-08
-6.34533e-09
-1.88132e-09
-5.24661e-10
-1.26226e-10
-2.85381e-11
-8.78094e-12
0
0
-2.19523e-12
4.39047e-12
2.19523e-12
-5.48809e-12
-2.19523e-12
0
2.19523e-12
-6.5857e-12
-4.39047e-12
6.5857e-12
4.39047e-12
8.78094e-12
-7.68332e-12
-2333.08
-2293.53
-2216.47
-2105.76
-1966.81
-1806.11
-1630.69
-1447.68
-1263.78
-1084.92
-915.951
-760.551
-621.146
-498.996
-394.338
-306.578
-234.501
-176.487
-130.702
-95.2541
-68.3216
-48.2327
-33.5177
-22.9296
-15.4437
-10.2419
-6.68847
-4.30162
-2.72478
-1.70003
-1.0448
-0.632511
-0.377197
-0.221562
-0.128158
-0.0729596
-0.0408382
-0.0224393
-0.0120769
-0.0063494
-0.00325117
-0.00161647
-0.000778218
-0.000361914
-0.000162277
-7.00593e-05
-2.90971e-05
-1.16202e-05
-4.46194e-06
-1.64763e-06
-5.85323e-07
-2.00153e-07
-6.59471e-08
-2.09689e-08
-6.41777e-09
-1.89119e-09
-5.5759e-10
-1.51471e-10
-2.96357e-11
0
0
1.09762e-12
-1.09762e-12
0
0
0
-1.09762e-12
0
1.09762e-12
-1.4269e-11
4.39047e-12
9.87856e-12
-3.29285e-12
4.39047e-12
-1.09762e-12
-2330.15
-2290.8
-2214.12
-2103.92
-1965.56
-1805.46
-1630.61
-1448.08
-1264.56
-1085.95
-917.132
-761.782
-622.349
-500.114
-395.336
-307.437
-235.218
-177.069
-131.161
-95.6089
-68.5892
-48.4302
-33.6606
-23.0309
-15.5142
-10.29
-6.72077
-4.32289
-2.73853
-1.70874
-1.0502
-0.635788
-0.379136
-0.222682
-0.128789
-0.0733069
-0.0410259
-0.0225391
-0.0121294
-0.00637668
-0.0032652
-0.00162358
-0.000781751
-0.000363624
-0.00016308
-7.04227e-05
-2.92554e-05
-1.16864e-05
-4.48851e-06
-1.65786e-06
-5.89089e-07
-2.01486e-07
-6.64026e-08
-2.11149e-08
-6.45838e-09
-1.91644e-09
-5.77347e-10
-1.53666e-10
-2.52452e-11
0
-3.29285e-12
0
3.29285e-12
0
1.09762e-12
8.78094e-12
0
-9.87856e-12
0
0
9.87856e-12
3.29285e-12
-1.4269e-11
-2.19523e-12
3.29285e-12
-2328.21
-2288.99
-2212.55
-2102.69
-1964.72
-1805.01
-1630.53
-1448.32
-1265.05
-1086.62
-917.911
-762.602
-623.155
-500.868
-396.013
-308.022
-235.709
-177.469
-131.479
-95.8548
-68.7753
-48.5681
-33.7605
-23.102
-15.5638
-10.324
-6.74361
-4.33796
-2.74829
-1.71493
-1.05403
-0.638109
-0.380505
-0.223468
-0.129228
-0.0735462
-0.0411533
-0.0226057
-0.0121636
-0.00639412
-0.00327397
-0.00162793
-0.000783873
-0.000364636
-0.000163549
-7.06332e-05
-2.93465e-05
-1.17244e-05
-4.50369e-06
-1.66369e-06
-5.91223e-07
-2.02236e-07
-6.66353e-08
-2.11807e-08
-6.49021e-09
-1.9362e-09
-5.83933e-10
-1.75619e-10
-3.84166e-11
-2.19523e-12
-1.09762e-11
3.29285e-12
7.68332e-12
-8.78094e-12
-1.09762e-11
9.87856e-12
9.87856e-12
5.48809e-12
-1.09762e-12
-4.39047e-12
0
-1.09762e-12
0
0
1.09762e-12
-2326.94
-2287.81
-2211.53
-2101.88
-1964.15
-1804.7
-1630.46
-1448.46
-1265.36
-1087.06
-918.418
-763.14
-623.688
-501.37
-396.465
-308.416
-236.04
-177.74
-131.695
-96.0225
-68.9026
-48.6627
-33.8294
-23.1511
-15.5981
-10.3476
-6.7595
-4.34847
-2.75509
-1.71925
-1.05671
-0.639723
-0.381453
-0.224009
-0.129528
-0.0737078
-0.0412381
-0.0226492
-0.0121856
-0.006405
-0.00327931
-0.00163051
-0.000785106
-0.000365212
-0.000163812
-7.07497e-05
-2.93964e-05
-1.1745e-05
-4.51191e-06
-1.66681e-06
-5.92381e-07
-2.02663e-07
-6.67944e-08
-2.12213e-08
-6.48802e-09
-1.93071e-09
-5.92713e-10
-1.87693e-10
-3.62214e-11
0
-1.09762e-11
-1.09762e-12
1.31714e-11
0
-2.19523e-12
0
1.09762e-12
-1.09762e-12
0
-2.19524e-12
-2.19523e-12
6.58571e-12
-3.29285e-12
-7.68332e-12
8.78094e-12
-2326.12
-2287.04
-2210.86
-2101.34
-1963.77
-1804.48
-1630.4
-1448.55
-1265.56
-1087.33
-918.745
-763.489
-624.037
-501.699
-396.763
-308.676
-236.26
-177.921
-131.839
-96.1352
-68.9884
-48.7266
-33.876
-23.1845
-15.6215
-10.3637
-6.77038
-4.35568
-2.75977
-1.72221
-1.05854
-0.640826
-0.382098
-0.224374
-0.129729
-0.0738148
-0.0412934
-0.0226771
-0.0121993
-0.00641166
-0.00328249
-0.00163201
-0.000785801
-0.00036553
-0.000163954
-7.08117e-05
-2.94227e-05
-1.17558e-05
-4.51612e-06
-1.66843e-06
-5.9298e-07
-2.02889e-07
-6.68712e-08
-2.12378e-08
-6.51546e-09
-1.9362e-09
-5.79542e-10
-1.71228e-10
-2.85381e-11
-1.09762e-12
0
0
-1.64643e-11
0
1.64643e-11
0
1.09762e-12
0
0
-1.31714e-11
0
1.20738e-11
-3.29285e-12
1.09762e-12
2.19524e-12
-2325.6
-2286.55
-2210.43
-2101
-1963.53
-1804.35
-1630.36
-1448.6
-1265.68
-1087.51
-918.953
-763.713
-624.261
-501.913
-396.957
-308.846
-236.404
-178.039
-131.935
-96.2097
-69.0453
-48.7691
-33.9071
-23.2068
-15.6372
-10.3745
-6.77772
-4.36055
-2.76293
-1.72421
-1.05978
-0.641568
-0.382529
-0.224617
-0.129861
-0.0738842
-0.0413289
-0.0226947
-0.0122078
-0.00641567
-0.00328434
-0.00163286
-0.000786185
-0.000365701
-0.000164029
-7.08436e-05
-2.94359e-05
-1.17611e-05
-4.51823e-06
-1.66923e-06
-5.93274e-07
-2.02984e-07
-6.69097e-08
-2.12696e-08
-6.53082e-09
-1.92742e-09
-5.70761e-10
-1.62447e-10
-2.08547e-11
0
0
0
0
-1.09762e-12
-4.39047e-12
1.20738e-11
4.39047e-12
-1.09762e-11
-2.19523e-12
-1.09762e-12
2.19523e-12
0
0
-1.09762e-11
1.20738e-11
-2325.27
-2286.24
-2210.16
-2100.78
-1963.37
-1804.25
-1630.34
-1448.62
-1265.75
-1087.62
-919.084
-763.854
-624.404
-502.049
-397.082
-308.956
-236.498
-178.116
-131.996
-96.2582
-69.0825
-48.7969
-33.9275
-23.2214
-15.6476
-10.3817
-6.7826
-4.36379
-2.76504
-1.72555
-1.0606
-0.642058
-0.382812
-0.224775
-0.129946
-0.0739286
-0.0413512
-0.0227055
-0.0122129
-0.00641804
-0.00328542
-0.00163334
-0.000786393
-0.000365791
-0.000164067
-7.08595e-05
-2.94424e-05
-1.17637e-05
-4.51922e-06
-1.66961e-06
-5.9343e-07
-2.03033e-07
-6.69327e-08
-2.12905e-08
-6.50668e-09
-1.91205e-09
-5.55394e-10
-1.54764e-10
-3.84166e-11
-3.29285e-12
-1.09762e-12
-1.09762e-12
-2.19524e-12
0
1.75619e-11
0
-1.4269e-11
0
1.09762e-12
-5.48809e-12
-2.19523e-12
6.58571e-12
-1.09762e-12
-1.09762e-12
2.19524e-12
-2325.06
-2286.05
-2209.99
-2100.65
-1963.27
-1804.2
-1630.32
-1448.64
-1265.8
-1087.68
-919.166
-763.943
-624.493
-502.135
-397.16
-309.025
-236.557
-178.166
-132.036
-96.2893
-69.1063
-48.8148
-33.9407
-23.2309
-15.6543
-10.3864
-6.78579
-4.36592
-2.76642
-1.72643
-1.06114
-0.642379
-0.382996
-0.224877
-0.13
-0.0739565
-0.041365
-0.0227122
-0.012216
-0.00641942
-0.00328602
-0.0016336
-0.000786505
-0.000365837
-0.000164086
-7.08673e-05
-2.94455e-05
-1.17649e-05
-4.51968e-06
-1.66979e-06
-5.93514e-07
-2.0306e-07
-6.69228e-08
-2.1274e-08
-6.50009e-09
-1.91205e-09
-5.66371e-10
-1.56959e-10
-3.51238e-11
2.19524e-12
1.09762e-12
-3.29285e-12
4.39047e-12
4.39047e-12
-4.39047e-12
-2.19524e-12
0
0
0
0
0
0
1.09762e-12
1.09762e-12
-2.19524e-12
-2324.93
-2285.93
-2209.88
-2100.56
-1963.21
-1804.16
-1630.31
-1448.65
-1265.83
-1087.72
-919.216
-763.998
-624.549
-502.188
-397.21
-309.069
-236.594
-178.196
-132.061
-96.3089
-69.1214
-48.8261
-33.949
-23.237
-15.6586
-10.3894
-6.78784
-4.36729
-2.76732
-1.727
-1.06149
-0.642586
-0.383114
-0.224941
-0.130034
-0.0739738
-0.0413735
-0.0227162
-0.0122178
-0.00642022
-0.00328637
-0.00163374
-0.000786564
-0.000365861
-0.000164096
-7.08711e-05
-2.9447e-05
-1.17655e-05
-4.51988e-06
-1.66987e-06
-5.93541e-07
-2.03082e-07
-6.69294e-08
-2.12685e-08
-6.51985e-09
-1.91534e-09
-5.3893e-10
-1.66838e-10
-4.17095e-11
1.09762e-12
-2.19523e-12
0
2.19523e-12
-2.19523e-12
-2.19523e-12
4.39047e-12
1.09762e-12
-3.29285e-12
0
0
2.19523e-12
0
-2.19523e-12
-5.48809e-12
5.48809e-12
-2324.85
-2285.85
-2209.82
-2100.51
-1963.17
-1804.14
-1630.3
-1448.66
-1265.84
-1087.75
-919.247
-764.031
-624.583
-502.221
-397.24
-309.096
-236.617
-178.216
-132.076
-96.3211
-69.1307
-48.8331
-33.9542
-23.2407
-15.6613
-10.3913
-6.78914
-4.36817
-2.7679
-1.72736
-1.06171
-0.642718
-0.383189
-0.224982
-0.130056
-0.0739845
-0.0413786
-0.0227185
-0.0122189
-0.00642068
-0.00328656
-0.00163382
-0.000786595
-0.000365873
-0.0001641
-7.08728e-05
-2.94476e-05
-1.17657e-05
-4.52e-06
-1.66991e-06
-5.93542e-07
-2.03068e-07
-6.69382e-08
-2.1274e-08
-6.51436e-09
-1.91973e-09
-5.44418e-10
-1.55862e-10
-4.39047e-11
-8.78094e-12
-2.19524e-12
0
-4.39047e-12
-1.09762e-12
5.48809e-12
1.09762e-12
0
2.19523e-12
-1.09762e-12
-6.58571e-12
0
2.19524e-12
-1.4269e-11
4.39047e-12
1.31714e-11
-2324.81
-2285.81
-2209.78
-2100.48
-1963.15
-1804.12
-1630.29
-1448.66
-1265.85
-1087.76
-919.265
-764.052
-624.604
-502.241
-397.258
-309.112
-236.631
-178.227
-132.086
-96.3285
-69.1364
-48.8374
-33.9573
-23.243
-15.6629
-10.3924
-6.78994
-4.36871
-2.76826
-1.72759
-1.06185
-0.642801
-0.383236
-0.225008
-0.130069
-0.073991
-0.0413817
-0.02272
-0.0122195
-0.00642095
-0.00328667
-0.00163387
-0.000786612
-0.00036588
-0.000164103
-7.08737e-05
-2.94479e-05
-1.17658e-05
-4.52005e-06
-1.66995e-06
-5.93553e-07
-2.03072e-07
-6.69448e-08
-2.1274e-08
-6.50997e-09
-1.92083e-09
-5.47711e-10
-1.44886e-10
-3.62214e-11
-3.29285e-12
0
-5.48809e-12
-1.75619e-11
4.39047e-12
1.86595e-11
0
-1.09762e-12
1.09762e-12
0
0
0
0
0
8.78094e-12
-8.78094e-12
-2324.78
-2285.78
-2209.75
-2100.46
-1963.14
-1804.11
-1630.29
-1448.66
-1265.86
-1087.77
-919.276
-764.064
-624.616
-502.253
-397.269
-309.122
-236.64
-178.234
-132.092
-96.3329
-69.1398
-48.84
-33.9592
-23.2444
-15.6639
-10.3931
-6.79043
-4.36905
-2.76848
-1.72773
-1.06194
-0.642852
-0.383265
-0.225023
-0.130077
-0.073995
-0.0413836
-0.0227208
-0.0122199
-0.0064211
-0.00328673
-0.00163389
-0.000786621
-0.000365883
-0.000164104
-7.08741e-05
-2.94481e-05
-1.17659e-05
-4.52008e-06
-1.66996e-06
-5.93553e-07
-2.03072e-07
-6.69283e-08
-2.12696e-08
-6.52314e-09
-1.92742e-09
-5.56492e-10
-1.44886e-10
-2.74404e-11
-6.5857e-12
1.09762e-12
-1.09762e-12
0
1.09762e-12
-3.29285e-12
0
3.29285e-12
9.87856e-12
3.29285e-12
-8.78094e-12
-2.41476e-11
-1.09762e-12
1.64643e-11
2.19523e-12
2.19523e-12
-2324.76
-2285.77
-2209.74
-2100.45
-1963.13
-1804.11
-1630.29
-1448.66
-1265.86
-1087.78
-919.282
-764.071
-624.624
-502.26
-397.276
-309.128
-236.645
-178.238
-132.095
-96.3355
-69.1418
-48.8415
-33.9603
-23.2452
-15.6645
-10.3935
-6.79072
-4.36925
-2.76861
-1.72782
-1.06199
-0.642883
-0.383282
-0.225033
-0.130082
-0.0739973
-0.0413847
-0.0227213
-0.0122201
-0.00642118
-0.00328676
-0.0016339
-0.000786626
-0.000365885
-0.000164104
-7.08743e-05
-2.94482e-05
-1.17659e-05
-4.52006e-06
-1.66996e-06
-5.93567e-07
-2.03077e-07
-6.6936e-08
-2.12817e-08
-6.50887e-09
-1.91534e-09
-5.67468e-10
-1.49276e-10
-1.64643e-11
-1.09762e-12
1.09762e-12
0
0
0
0
0
9.87856e-12
2.19523e-12
-9.87856e-12
-6.58571e-12
-1.09762e-12
5.48809e-12
0
0
0
-2324.75
-2285.76
-2209.73
-2100.44
-1963.12
-1804.11
-1630.29
-1448.66
-1265.86
-1087.78
-919.286
-764.075
-624.628
-502.264
-397.28
-309.131
-236.648
-178.241
-132.097
-96.337
-69.1429
-48.8423
-33.9609
-23.2456
-15.6648
-10.3938
-6.79089
-4.36936
-2.76869
-1.72787
-1.06202
-0.642902
-0.383293
-0.225038
-0.130085
-0.0739987
-0.0413853
-0.0227216
-0.0122202
-0.00642123
-0.00328678
-0.00163391
-0.000786628
-0.000365886
-0.000164105
-7.08744e-05
-2.94482e-05
-1.17659e-05
-4.52008e-06
-1.66995e-06
-5.93566e-07
-2.03087e-07
-6.69163e-08
-2.12466e-08
-6.50229e-09
-1.93071e-09
-5.8503e-10
-1.51471e-10
-1.09762e-12
-1.09762e-12
-4.39047e-12
-3.29285e-12
4.39047e-12
3.29285e-12
0
0
1.09762e-12
-1.09762e-12
7.68332e-12
1.09762e-12
-4.39047e-12
0
-2.19524e-12
0
-2.19524e-12
-2324.75
-2285.75
-2209.73
-2100.43
-1963.12
-1804.1
-1630.29
-1448.66
-1265.87
-1087.78
-919.288
-764.078
-624.63
-502.267
-397.282
-309.133
-236.649
-178.242
-132.098
-96.3378
-69.1436
-48.8428
-33.9613
-23.2459
-15.665
-10.3939
-6.79098
-4.36942
-2.76873
-1.72789
-1.06204
-0.642912
-0.383298
-0.225041
-0.130086
-0.0739994
-0.0413857
-0.0227217
-0.0122203
-0.00642126
-0.00328679
-0.00163391
-0.00078663
-0.000365886
-0.000164105
-7.08745e-05
-2.94482e-05
-1.17659e-05
-4.52007e-06
-1.66995e-06
-5.93563e-07
-2.03076e-07
-6.69064e-08
-2.12488e-08
-6.50668e-09
-1.91973e-09
-5.90518e-10
-1.63545e-10
-1.20738e-11
5.48809e-12
1.20738e-11
4.39047e-12
-2.19523e-12
0
-7.68332e-12
0
1.4269e-11
0
-4.39047e-12
-7.68332e-12
-1.09762e-12
-1.09762e-12
0
1.64643e-11
-6.5857e-12
-2324.74
-2285.75
-2209.73
-2100.43
-1963.12
-1804.1
-1630.29
-1448.66
-1265.87
-1087.78
-919.29
-764.079
-624.632
-502.268
-397.283
-309.134
-236.65
-178.243
-132.098
-96.3383
-69.1439
-48.843
-33.9615
-23.246
-15.6651
-10.394
-6.79103
-4.36946
-2.76875
-1.72791
-1.06205
-0.642918
-0.383302
-0.225043
-0.130087
-0.0739999
-0.0413858
-0.0227218
-0.0122203
-0.00642127
-0.0032868
-0.00163392
-0.00078663
-0.000365886
-0.000164105
-7.08745e-05
-2.94482e-05
-1.17659e-05
-4.52009e-06
-1.66996e-06
-5.9353e-07
-2.03055e-07
-6.69217e-08
-2.1263e-08
-6.50119e-09
-1.90876e-09
-5.83933e-10
-1.74521e-10
-1.75619e-11
-6.58571e-12
1.09762e-12
1.31714e-11
-5.48809e-12
-1.09762e-12
6.5857e-12
0
1.09762e-12
0
-1.09762e-12
-1.31714e-11
0
6.58571e-12
-4.39047e-12
6.5857e-12
4.39047e-12
-2324.74
-2285.75
-2209.72
-2100.43
-1963.12
-1804.1
-1630.28
-1448.66
-1265.87
-1087.79
-919.29
-764.08
-624.633
-502.269
-397.284
-309.135
-236.651
-178.243
-132.099
-96.3385
-69.1441
-48.8431
-33.9615
-23.2461
-15.6651
-10.394
-6.79105
-4.36948
-2.76876
-1.72792
-1.06205
-0.642921
-0.383303
-0.225044
-0.130087
-0.0740001
-0.0413859
-0.0227218
-0.0122203
-0.00642128
-0.0032868
-0.00163392
-0.000786631
-0.000365886
-0.000164105
-7.08745e-05
-2.94482e-05
-1.17659e-05
-4.52007e-06
-1.66992e-06
-5.9354e-07
-2.03075e-07
-6.69404e-08
-2.12598e-08
-6.50119e-09
-1.9362e-09
-5.8064e-10
-1.32812e-10
-1.09762e-12
-8.78094e-12
2.19524e-12
0
-2.19524e-12
-1.09762e-12
1.09762e-12
-3.29285e-12
4.39047e-12
4.39047e-12
1.09762e-12
-2.19524e-12
-5.48809e-12
1.09762e-12
1.09762e-12
-1.09762e-12
0
-2324.74
-2285.75
-2209.72
-2100.43
-1963.12
-1804.1
-1630.28
-1448.66
-1265.87
-1087.79
-919.291
-764.08
-624.633
-502.269
-397.284
-309.135
-236.651
-178.243
-132.099
-96.3386
-69.1442
-48.8432
-33.9616
-23.2461
-15.6652
-10.394
-6.79106
-4.36949
-2.76877
-1.72792
-1.06206
-0.642922
-0.383304
-0.225044
-0.130088
-0.0740002
-0.041386
-0.0227219
-0.0122203
-0.00642128
-0.0032868
-0.00163392
-0.000786631
-0.000365887
-0.000164105
-7.08745e-05
-2.94482e-05
-1.17659e-05
-4.52009e-06
-1.66992e-06
-5.93529e-07
-2.03065e-07
-6.69371e-08
-2.1274e-08
-6.52863e-09
-1.94059e-09
-5.6198e-10
-1.37202e-10
-7.68332e-12
-1.09762e-12
-2.19523e-12
-1.09762e-12
-5.48809e-12
-2.19523e-12
7.68332e-12
4.39047e-12
1.31714e-11
0
-1.31714e-11
8.78094e-12
1.31714e-11
-1.09762e-11
-1.09762e-11
-1.09762e-12
1.09762e-12
-2324.74
-2285.74
-2209.72
-2100.43
-1963.12
-1804.1
-1630.28
-1448.66
-1265.87
-1087.79
-919.291
-764.08
-624.633
-502.269
-397.284
-309.135
-236.651
-178.244
-132.099
-96.3387
-69.1442
-48.8432
-33.9616
-23.2461
-15.6652
-10.394
-6.79107
-4.36949
-2.76877
-1.72792
-1.06206
-0.642923
-0.383305
-0.225045
-0.130088
-0.0740002
-0.041386
-0.0227219
-0.0122203
-0.00642129
-0.0032868
-0.00163392
-0.000786631
-0.000365887
-0.000164105
-7.08745e-05
-2.94482e-05
-1.1766e-05
-4.5201e-06
-1.66992e-06
-5.93518e-07
-2.03056e-07
-6.69283e-08
-2.12861e-08
-6.52973e-09
-1.9362e-09
-5.72956e-10
-1.58057e-10
-2.63428e-11
0
0
0
0
-3.29285e-12
0
4.39047e-12
0
-1.09762e-12
-8.78094e-12
-6.58571e-12
1.53666e-11
5.48809e-12
-8.78094e-12
0
3.29285e-12
-2324.74
-2285.74
-2209.72
-2100.43
-1963.12
-1804.1
-1630.28
-1448.66
-1265.87
-1087.79
-919.291
-764.081
-624.633
-502.269
-397.284
-309.135
-236.651
-178.244
-132.099
-96.3387
-69.1442
-48.8433
-33.9616
-23.2461
-15.6652
-10.394
-6.79107
-4.36949
-2.76877
-1.72792
-1.06206
-0.642923
-0.383305
-0.225045
-0.130088
-0.0740003
-0.041386
-0.0227219
-0.0122203
-0.00642129
-0.0032868
-0.00163392
-0.000786631
-0.000365887
-0.000164105
-7.08746e-05
-2.94483e-05
-1.17659e-05
-4.52008e-06
-1.66992e-06
-5.93502e-07
-2.03059e-07
-6.69525e-08
-2.13201e-08
-6.5418e-09
-1.91534e-09
-5.59785e-10
-1.52569e-10
-2.74404e-11
-1.09762e-11
-3.29285e-12
-1.09762e-12
4.39047e-12
0
0
0
0
1.09762e-12
-1.09762e-12
-7.68332e-12
1.09762e-12
7.68332e-12
-8.78094e-12
0
7.68332e-12
-2324.74
-2285.74
-2209.72
-2100.43
-1963.12
-1804.1
-1630.28
-1448.66
-1265.87
-1087.79
-919.291
-764.081
-624.633
-502.27
-397.284
-309.135
-236.651
-178.244
-132.099
-96.3387
-69.1442
-48.8433
-33.9616
-23.2461
-15.6652
-10.394
-6.79107
-4.36949
-2.76878
-1.72792
-1.06206
-0.642923
-0.383305
-0.225045
-0.130088
-0.0740003
-0.041386
-0.0227219
-0.0122203
-0.00642129
-0.0032868
-0.00163392
-0.000786631
-0.000365887
-0.000164105
-7.08746e-05
-2.94483e-05
-1.17659e-05
-4.52007e-06
-1.66992e-06
-5.93523e-07
-2.03067e-07
-6.69591e-08
-2.1308e-08
-6.55168e-09
-1.92632e-09
-5.37833e-10
-1.33909e-10
-3.40261e-11
-1.75619e-11
-2.19523e-12
5.48809e-12
2.19523e-12
-4.39047e-12
0
-1.09762e-12
0
7.68332e-12
7.68332e-12
-6.5857e-12
-9.87856e-12
-7.68332e-12
-2.19523e-12
3.29285e-12
7.68332e-12
-2324.74
-2285.74
-2209.72
-2100.43
-1963.12
-1804.1
-1630.29
-1448.66
-1265.87
-1087.79
-919.291
-764.081
-624.633
-502.27
-397.284
-309.135
-236.651
-178.244
-132.099
-96.3387
-69.1442
-48.8433
-33.9616
-23.2461