/*--------------------------------*- C++ -*----------------------------------*\
  =========                 |
  \\      /  F ield         | OpenFOAM: The Open Source CFD Toolbox
   \\    /   O peration     | Website:  https://openfoam.org
    \\  /    A nd           | Version:  10
     \\/     M anipulation  |
\*---------------------------------------------------------------------------*/
FoamFile
{
    format      ascii;
    class       volScalarField;
    location    "143";
    object      gradTx;
}
// * * * * * * * * * * * * * * * * * * * * * * * * * * * * * * * * * * * * * //

dimensions      [0 -1 0 1 0 0 0];

internalField   nonuniform List<scalar> 
11250
(
14268.2
8010.03
5157.14
3620.3
2674.73
2034.56
1572.17
1223.83
954.457
742.998
575.798
443.373
338.737
256.492
192.323
142.708
104.736
75.9944
54.4959
38.6118
27.0243
18.6806
12.7517
8.59477
5.71945
3.75749
2.43691
1.56012
0.985894
0.614925
0.378514
0.229894
0.137731
0.0813587
0.0473566
0.0271402
0.015299
0.00847269
0.0046037
0.00245079
0.00127642
0.000649474
0.000322436
0.000156003
7.34842e-05
3.36724e-05
1.50002e-05
6.49323e-06
2.73049e-06
1.11523e-06
4.42425e-07
1.70482e-07
6.38341e-08
2.32102e-08
8.18932e-09
2.80441e-09
9.36268e-10
2.766e-10
5.81737e-11
7.68332e-12
0
1.09762e-12
0
-2.19524e-11
9.87856e-12
-1.09762e-12
-1.09762e-12
0
1.09762e-12
0
-5.48809e-12
0
-7.68332e-12
0
-9.87856e-12
4064.38
4609.91
3849.39
3040.1
2382.69
1871.89
1474.36
1161.65
913.328
715.027
556.413
429.774
329.13
249.683
187.499
139.298
102.335
74.3144
53.3286
37.8074
26.4749
18.3089
12.5028
8.42987
5.61139
3.68747
2.39207
1.53175
0.968156
0.603976
0.371845
0.225888
0.13536
0.0799786
0.0465676
0.0266981
0.0150569
0.00834336
0.00453656
0.00241702
0.00126002
0.000641811
0.000319009
0.000154544
7.28985e-05
3.34532e-05
1.49255e-05
6.47126e-06
2.7257e-06
1.11514e-06
4.43091e-07
1.71021e-07
6.41173e-08
2.33661e-08
8.25079e-09
2.81868e-09
9.15413e-10
2.86478e-10
8.01261e-11
1.75619e-11
1.09762e-12
-1.09762e-12
0
2.41476e-11
5.48809e-12
0
-1.09762e-12
1.09762e-12
-1.09762e-12
0
-8.78094e-12
0
8.78094e-12
2.19523e-12
0
1445.54
2520.88
2598.59
2318.9
1957.2
1610.82
1307.71
1051.61
838.7
663.402
520.203
404.15
310.909
236.707
178.268
132.752
97.7158
71.0757
51.0746
36.2519
25.4112
17.5887
12.0201
8.1098
5.40151
3.55141
2.30489
1.47655
0.933634
0.582657
0.358852
0.218078
0.130736
0.0772843
0.0450257
0.0258331
0.0145823
0.00808942
0.00440441
0.00235035
0.00122752
0.000626566
0.000312154
0.000151606
7.17066e-05
3.30007e-05
1.47678e-05
6.42277e-06
2.71389e-06
1.11388e-06
4.4406e-07
1.71946e-07
6.46958e-08
2.36438e-08
8.39458e-09
2.88454e-09
9.46146e-10
3.19407e-10
1.06469e-10
2.96357e-11
1.09762e-12
0
0
-1.4269e-11
-1.09762e-11
2.19524e-12
3.29285e-12
2.19523e-12
0
0
3.29285e-12
8.78094e-12
0
-1.09762e-12
8.78094e-12
644.083
1434.38
1713.09
1690.28
1529.16
1320.88
1109.55
914.398
742.477
595.22
471.533
369.255
285.849
218.722
165.396
123.58
91.2188
66.5058
47.8859
34.0465
23.9004
16.564
11.3324
7.65331
5.10188
3.35699
2.18021
1.39755
0.884194
0.552104
0.340217
0.20687
0.124092
0.073409
0.0428046
0.0245848
0.0138959
0.00772109
0.00421208
0.00225292
0.0011798
0.000604037
0.000301946
0.000147188
6.9891e-05
3.22989e-05
1.45164e-05
6.34155e-06
2.69177e-06
1.10989e-06
4.44532e-07
1.72934e-07
6.53489e-08
2.39873e-08
8.57349e-09
2.97564e-09
1.0131e-09
3.28188e-10
1.13055e-10
4.71976e-11
3.29285e-12
-2.19523e-12
0
-1.09762e-12
-4.39047e-12
3.29285e-12
0
1.09762e-12
0
2.19524e-12
5.48809e-12
0
-1.09762e-12
-1.09762e-12
-5.48809e-12
342.086
864.133
1136.65
1210.06
1160.47
1047.72
910.019
769.24
636.87
518.299
415.467
328.41
256.148
197.198
149.871
112.449
83.2938
60.908
43.9663
31.3277
22.0331
15.2949
10.4792
7.08605
4.72902
3.11476
2.02471
1.29893
0.822413
0.51389
0.316888
0.192821
0.115755
0.0685382
0.0400076
0.023009
0.0130268
0.00725304
0.0039666
0.0021279
0.00111816
0.000574709
0.000288528
0.000141308
6.7436e-05
3.13288e-05
1.41574e-05
6.21942e-06
2.65496e-06
1.10101e-06
4.43491e-07
1.73511e-07
6.59207e-08
2.4321e-08
8.71728e-09
3.04808e-09
1.04054e-09
3.227e-10
9.65903e-11
3.62214e-11
3.29285e-12
1.09762e-12
0
1.86595e-11
0
-1.09762e-12
-1.09762e-12
-3.29285e-12
0
-1.09762e-12
-9.87856e-12
-1.20738e-11
-7.68332e-12
-1.09762e-12
-1.09762e-12
203.702
547.806
766.422
862.311
866.363
812.426
727.46
630.035
531.821
439.573
356.792
284.907
224.072
173.693
132.764
100.093
74.4431
54.625
39.5485
28.2523
19.9147
13.8514
9.50652
6.43812
4.30242
2.8372
1.84628
1.18563
0.751354
0.469887
0.289992
0.176604
0.106115
0.0628958
0.0367599
0.021174
0.0120111
0.00670363
0.0036769
0.00197941
0.00104437
0.000539268
0.000272124
0.000134016
6.43346e-05
3.0073e-05
1.36766e-05
6.04716e-06
2.59827e-06
1.08452e-06
4.39674e-07
1.7312e-07
6.62039e-08
2.45866e-08
8.85997e-09
3.11394e-09
1.07127e-09
3.63311e-10
1.26226e-10
2.52452e-11
1.64643e-11
2.19523e-12
1.09762e-12
0
-1.09762e-12
-4.39047e-12
0
0
0
-2.19524e-12
4.39047e-12
1.09762e-12
-4.39047e-12
0
0
129.993
361.031
525.478
615.157
640.826
620.114
570.212
504.905
434.084
364.268
299.401
241.582
191.658
149.654
115.097
87.2287
65.1666
48.0025
34.8697
24.9821
17.6542
12.3066
8.46285
5.7413
3.84272
2.53758
1.65337
1.06295
0.67431
0.422113
0.260751
0.158944
0.0955993
0.0567273
0.0331999
0.0191557
0.0108894
0.00609379
0.00335336
0.00181232
0.000960591
0.00049859
0.000253046
0.000125396
6.0593e-05
2.85178e-05
1.306e-05
5.81532e-06
2.51624e-06
1.05758e-06
4.31676e-07
1.71112e-07
6.58581e-08
2.46185e-08
8.94339e-09
3.15236e-09
1.10859e-09
3.76483e-10
1.28421e-10
2.52452e-11
1.64643e-11
-3.29285e-12
1.09762e-12
-5.48809e-12
2.19523e-12
2.19524e-12
0
0
-1.20738e-11
1.09762e-12
1.31714e-11
2.19524e-12
0
-7.68332e-12
0
86.4868
244.546
365.277
439.99
471.3
467.876
440.072
397.389
347.435
295.752
246.052
200.59
160.535
126.292
97.7514
74.4912
55.9154
41.3579
30.1509
21.6695
15.3557
10.7304
7.39499
5.02654
3.37013
2.22894
1.4543
0.936144
0.594551
0.372579
0.230384
0.140573
0.084638
0.0502818
0.0294689
0.0170328
0.00970414
0.00544572
0.00300715
0.00163202
0.00086927
0.000453707
0.000231685
0.000115571
5.6235e-05
2.6657e-05
1.22969e-05
5.51544e-06
2.40369e-06
1.01738e-06
4.1812e-07
1.66816e-07
6.46222e-08
2.43002e-08
8.90497e-09
3.18968e-09
1.13384e-09
3.94045e-10
1.29519e-10
4.71976e-11
1.64643e-11
1.09762e-12
-3.29285e-12
0
0
0
7.68332e-12
-1.09762e-12
0
1.09762e-12
-1.09762e-12
0
6.5857e-12
0
4.39047e-12
59.0183
168.704
256.452
315.381
345.145
349.778
335.304
307.992
273.36
235.777
198.41
163.359
131.863
104.508
81.413
62.3891
47.0607
34.9578
25.5812
18.4463
13.1101
9.18517
6.34481
4.32169
2.90295
1.92318
1.2567
0.810047
0.5151
0.323155
0.200032
0.122176
0.0736374
0.0437965
0.0257028
0.0148813
0.00849688
0.00478155
0.00264963
0.00144411
0.00077303
0.000405772
0.000208508
0.00010471
5.1309e-05
2.44972e-05
1.13824e-05
5.1419e-06
2.25663e-06
9.61633e-07
3.97781e-07
1.59698e-07
6.22371e-08
2.35626e-08
8.68764e-09
3.1315e-09
1.09652e-09
3.92947e-10
1.383e-10
5.92713e-11
1.4269e-11
1.20738e-11
8.78094e-12
0
-1.09762e-12
0
1.4269e-11
2.19523e-12
1.31714e-11
-1.09762e-12
2.19523e-12
5.48809e-12
6.58571e-12
8.78094e-12
2.19524e-12
40.8925
117.728
181.176
226.251
251.747
259.4
252.64
235.491
211.812
184.88
157.231
130.668
106.345
84.8939
66.5545
51.2884
38.8784
29.0059
21.3078
15.4176
10.991
7.72157
5.34685
3.64994
2.45657
1.63035
1.06705
0.688795
0.438563
0.275457
0.170687
0.104355
0.0629567
0.0374825
0.022024
0.0127708
0.00730633
0.00412224
0.00229182
0.00125418
0.000674598
0.000356055
0.000184073
9.30404e-05
4.5899e-05
2.2065e-05
1.03226e-05
4.69456e-06
2.07378e-06
8.89286e-07
3.70046e-07
1.49416e-07
5.85414e-08
2.22981e-08
8.23872e-09
2.96027e-09
1.01749e-09
3.44652e-10
1.1525e-10
2.74404e-11
-1.09762e-12
8.78094e-12
1.09762e-12
-1.09762e-12
-1.09762e-12
-1.09762e-12
-6.58571e-12
0
-1.09762e-12
0
1.09762e-12
0
-6.58571e-12
0
1.09762e-12
28.5782
82.6845
128.385
162.189
182.822
190.925
188.419
177.847
161.84
142.776
122.601
102.775
84.2949
67.7584
53.4487
41.415
31.5477
23.6393
17.4332
12.658
9.05198
6.37717
4.42707
3.02896
2.04281
1.35826
0.890455
0.575655
0.367011
0.230784
0.14315
0.087598
0.052891
0.0315159
0.0185356
0.0107609
0.00616639
0.00348665
0.00194398
0.00106764
0.000576751
0.000305931
0.000159036
8.08616e-05
4.01366e-05
1.94152e-05
9.13928e-06
4.18151e-06
1.85789e-06
8.01152e-07
3.35131e-07
1.3599e-07
5.35517e-08
2.04585e-08
7.59332e-09
2.74514e-09
9.39561e-10
3.19407e-10
9.54927e-11
2.19523e-11
1.20738e-11
1.20738e-11
-8.78094e-12
0
0
-9.87856e-12
-3.7319e-11
-1.09762e-12
0
0
-3.29285e-12
-5.48809e-12
0
-2.19523e-12
-3.29285e-12
20.0521
58.2256
91.0106
115.998
132.102
139.468
139.159
132.764
122.049
108.698
94.1567
79.5623
65.7295
53.1815
42.198
32.8711
25.1591
18.9333
14.0167
10.2129
7.3264
5.17618
3.60259
2.47059
1.66975
1.11233
0.730469
0.472945
0.301927
0.190073
0.118009
0.0722686
0.0436622
0.0260308
0.0153182
0.0088995
0.00510501
0.00289088
0.00161523
0.000889577
0.000482239
0.000256856
0.000134146
6.85501e-05
3.42045e-05
1.66341e-05
7.87164e-06
3.62017e-06
1.61647e-06
7.00334e-07
2.94293e-07
1.19932e-07
4.73907e-08
1.81623e-08
6.7712e-09
2.4411e-09
8.47361e-10
2.83185e-10
8.56142e-11
3.62214e-11
1.4269e-11
-8.78094e-12
5.48809e-12
0
-1.09762e-11
-5.48809e-12
-2.19524e-12
-1.09762e-12
0
1.09762e-12
0
0
4.39047e-12
0
1.09762e-12
14.0789
40.9919
64.3999
82.6523
94.901
101.09
101.798
98.0104
90.8996
81.6377
71.2742
60.6664
50.4553
41.0739
32.7733
25.6594
19.7301
14.91
11.0801
8.10108
5.82969
4.13047
2.88223
1.98124
1.34188
0.895638
0.589186
0.382051
0.244219
0.153909
0.0956356
0.0586011
0.0354171
0.0211185
0.0124283
0.00722109
0.00414332
0.00234773
0.00131321
0.000724479
0.000393662
0.000210296
0.000110211
5.65366e-05
2.83263e-05
1.38338e-05
6.57427e-06
3.0361e-06
1.36113e-06
5.91967e-07
2.49668e-07
1.02083e-07
4.04538e-08
1.55521e-08
5.78335e-09
2.0712e-09
7.24428e-10
2.26109e-10
6.69547e-11
9.87856e-12
-1.09762e-12
-2.305e-11
1.09762e-12
-1.20738e-11
-1.09762e-12
1.09762e-11
2.305e-11
-2.19523e-12
0
0
-1.09762e-12
-4.39047e-12
-8.78094e-12
1.09762e-12
6.58571e-12
9.86664
28.7879
45.4072
58.5985
67.7301
72.6793
73.755
71.5674
66.8867
60.518
53.2085
45.5896
38.1502
31.2341
25.0531
19.7098
15.2223
11.55
8.615
6.32004
4.56208
3.24148
2.26774
1.56251
1.06055
0.709236
0.467369
0.303517
0.194263
0.122547
0.0762002
0.0467086
0.0282301
0.0168281
0.00989794
0.00574696
0.00329524
0.00186624
0.00104373
0.000576005
0.000313269
0.0001676
8.80129e-05
4.52603e-05
2.27397e-05
1.11386e-05
5.30974e-06
2.45968e-06
1.10604e-06
4.8242e-07
2.04012e-07
8.3622e-08
3.32194e-08
1.27905e-08
4.74061e-09
1.69472e-09
5.87225e-10
1.89888e-10
7.4638e-11
1.86595e-11
-3.29285e-12
-1.09762e-12
-6.5857e-12
0
1.20738e-11
8.78094e-12
2.19523e-12
0
-1.09762e-12
-2.19523e-12
-6.5857e-12
4.39047e-12
0
0
0
6.88858
20.1321
31.8552
41.2927
47.9871
51.8091
52.9195
51.6945
48.6373
44.2946
39.1903
33.78
28.4274
23.3969
18.8591
14.9044
11.5594
8.80484
6.59088
4.85103
3.51228
2.50251
1.75523
1.21222
0.824544
0.55247
0.364687
0.237182
0.151988
0.0959638
0.0597014
0.0365991
0.0221124
0.0131708
0.00773728
0.00448542
0.00256736
0.00145141
0.00081042
0.000446685
0.00024275
0.000129845
6.8211e-05
3.5108e-05
1.76619e-05
8.66543e-06
4.13841e-06
1.92084e-06
8.65487e-07
3.78254e-07
1.60251e-07
6.57747e-08
2.61518e-08
1.00706e-08
3.72751e-09
1.33361e-09
4.45633e-10
1.52569e-10
7.57356e-11
4.82952e-11
1.53666e-11
-2.19523e-12
0
1.31714e-11
9.87856e-12
0
-1.09762e-12
2.19523e-12
-4.39047e-12
0
-7.68332e-12
3.29285e-12
8.78094e-12
9.87856e-12
-3.29285e-12
4.78403
14.0001
22.2094
28.8941
33.7295
36.6027
37.5945
36.9363
34.9548
32.0178
28.4877
24.6879
20.8831
17.2713
13.9852
11.0998
8.64295
6.6077
4.96318
3.66462
2.66109
1.90119
1.33681
0.925378
0.630764
0.423436
0.279981
0.18235
0.116982
0.0739178
0.0460013
0.0281956
0.0170228
0.0101257
0.00593697
0.00343323
0.00195939
0.00110421
0.000614576
0.000337721
0.000183053
9.77094e-05
5.12536e-05
2.63572e-05
1.32557e-05
6.50472e-06
3.1082e-06
1.44388e-06
6.51258e-07
2.84952e-07
1.20861e-07
4.96705e-08
1.97681e-08
7.60978e-09
2.84832e-09
1.00981e-09
3.40261e-10
1.28421e-10
5.04904e-11
2.85381e-11
1.64643e-11
4.39047e-12
0
-2.19524e-12
5.48809e-12
-4.39047e-12
-1.09762e-12
-1.09762e-12
0
1.09762e-12
-4.39047e-12
-7.68332e-12
-2.19524e-12
2.19523e-12
5.48809e-12
3.30096
9.67051
15.3735
20.0609
23.506
25.6188
26.4376
26.1041
24.8297
22.8596
20.4414
17.8014
15.1286
12.568
10.2199
8.14377
6.36502
4.88326
3.67993
2.72542
1.98471
1.4217
1.00212
0.69526
0.47489
0.319391
0.211529
0.137955
0.0885928
0.0560141
0.034864
0.0213597
0.0128813
0.00764802
0.00447244
0.00257757
0.0014651
0.000821886
0.000455234
0.000248949
0.000134319
7.14038e-05
3.73261e-05
1.91426e-05
9.60778e-06
4.7082e-06
2.24791e-06
1.04389e-06
4.70841e-07
2.06063e-07
8.74505e-08
3.60106e-08
1.4381e-08
5.56931e-09
2.09425e-09
7.7382e-10
2.84283e-10
1.07567e-10
2.63428e-11
3.29285e-12
-4.39047e-12
7.68332e-12
1.09762e-12
0
-9.87856e-12
-1.09762e-12
0
-3.29285e-12
4.39047e-12
-1.09762e-12
-3.29285e-12
5.48809e-12
-3.29285e-12
-9.87856e-12
-1.09762e-12
2.26071
6.62898
10.5568
13.8103
16.2332
17.7575
18.3995
18.246
17.4327
16.122
14.4813
12.6666
10.8107
9.01784
7.36178
5.88808
4.61821
3.55485
2.68722
1.99602
1.45752
1.04674
0.73957
0.514239
0.351955
0.237138
0.157301
0.10272
0.0660259
0.0417657
0.0259938
0.0159138
0.00958281
0.00567629
0.00330854
0.00189873
0.00107372
0.000598791
0.000329538
0.000179014
9.59536e-05
5.06954e-05
2.63552e-05
1.34527e-05
6.72601e-06
3.28607e-06
1.56537e-06
7.2574e-07
3.26996e-07
1.43012e-07
6.06763e-08
2.49884e-08
1.00004e-08
3.88118e-09
1.46203e-09
5.71859e-10
2.12938e-10
7.68332e-11
2.19523e-11
8.78094e-12
5.48809e-12
-6.5857e-12
0
2.19524e-12
-4.39047e-12
1.09762e-12
8.78094e-12
4.39047e-12
0
0
9.87856e-12
1.20738e-11
5.48809e-12
-5.48809e-12
-4.39047e-12
1.53557
4.50607
7.18658
9.42142
11.1042
12.1852
12.6701
12.6117
12.0969
11.2322
10.1296
8.89539
7.62155
6.38149
5.22843
4.19626
3.3021
2.54972
1.9331
1.43988
1.05418
0.758938
0.537463
0.37451
0.256824
0.173345
0.115157
0.075289
0.0484327
0.0306466
0.0190683
0.0116624
0.0070099
0.00414068
0.00240421
0.00137292
0.000771672
0.000427309
0.000233318
0.000125688
6.68006e-05
3.50039e-05
1.80595e-05
9.15611e-06
4.55145e-06
2.21305e-06
1.05021e-06
4.85449e-07
2.18241e-07
9.52787e-08
4.03945e-08
1.6607e-08
6.64388e-09
2.59147e-09
1.0153e-09
3.91849e-10
1.62447e-10
7.90285e-11
3.18309e-11
9.87856e-12
6.58571e-12
-1.20738e-11
-1.09762e-12
0
-8.78094e-12
-9.87856e-12
0
2.19523e-12
4.39047e-12
1.09762e-12
1.31714e-11
-4.39047e-12
3.29285e-12
-1.09762e-12
-1.09762e-12
1.03377
3.03552
4.84732
6.36624
7.52065
8.27526
8.63082
8.61934
8.29613
7.73053
6.99678
6.16627
5.30188
4.45453
3.66182
2.94834
2.32723
1.80224
1.3702
1.0233
0.751075
0.542004
0.384691
0.268612
0.184553
0.124775
0.0830096
0.0543305
0.0349739
0.0221337
0.013765
0.0084083
0.00504314
0.0029695
0.00171674
0.000974897
0.000544221
0.000298938
0.000161744
8.62739e-05
4.53848e-05
2.35407e-05
1.2028e-05
6.04432e-06
2.9812e-06
1.43993e-06
6.79576e-07
3.12753e-07
1.40097e-07
6.10111e-08
2.5828e-08
1.06008e-08
4.23351e-09
1.64972e-09
6.5418e-10
2.5355e-10
1.28421e-10
5.92713e-11
3.29285e-11
1.09762e-11
4.39047e-12
-7.68332e-12
-1.09762e-12
3.29285e-12
0
-1.09762e-12
-7.68332e-12
0
0
1.09762e-12
-4.39047e-12
-8.78094e-12
0
0
-5.48809e-12
0.689423
2.02549
3.23791
4.25915
5.0415
5.56045
5.81481
5.8239
5.62269
5.25597
4.77243
4.21955
3.63969
3.06762
2.52945
2.04265
1.61694
1.25562
0.95713
0.716603
0.527224
0.38133
0.271233
0.18977
0.130624
0.0884579
0.0589283
0.0386077
0.0248664
0.015737
0.00978014
0.00596529
0.00356919
0.00209425
0.00120505
0.000680202
0.000376902
0.000205214
0.000109918
5.79809e-05
3.01436e-05
1.54489e-05
7.80179e-06
3.87781e-06
1.89375e-06
9.06816e-07
4.24833e-07
1.94317e-07
8.66328e-08
3.76022e-08
1.58628e-08
6.50229e-09
2.56733e-09
9.8127e-10
3.66604e-10
1.1964e-10
5.37833e-11
1.09762e-11
1.86595e-11
1.09762e-12
6.58571e-12
9.87856e-12
0
-1.86595e-11
8.78094e-12
1.09762e-11
0
1.09762e-12
-4.39047e-12
0
-1.20738e-11
0
0
-3.29285e-12
2.19524e-12
0.455257
1.33815
2.14112
2.82024
3.34405
3.69588
3.87397
3.88994
3.76575
3.5301
3.21462
2.85051
2.46594
2.08433
1.7235
1.39562
1.10769
0.862363
0.658977
0.494544
0.364676
0.264337
0.188408
0.132079
0.0910765
0.0617746
0.0412063
0.0270219
0.0174121
0.0110178
0.00684138
0.0041657
0.00248577
0.00145304
0.000831908
0.000466595
0.000256525
0.000138373
7.33207e-05
3.82123e-05
1.96091e-05
9.91483e-06
4.93989e-06
2.42368e-06
1.16951e-06
5.54048e-07
2.5716e-07
1.16696e-07
5.16978e-08
2.23222e-08
9.36377e-09
3.8252e-09
1.49935e-09
5.69663e-10
1.86595e-10
4.17095e-11
1.09762e-12
-1.20738e-11
-1.75619e-11
-1.20738e-11
-2.19524e-12
1.09762e-11
1.09762e-12
-2.19524e-12
-1.09762e-12
-4.39047e-12
9.87856e-12
-1.09762e-12
2.19524e-12
-2.19524e-12
3.29285e-12
0
-2.19524e-12
3.29285e-12
-8.78094e-12
0.297566
0.875003
1.40118
1.84777
2.19427
2.42951
2.55182
2.56812
2.49214
2.34209
2.13832
1.90112
1.64897
1.39743
1.15848
0.94045
0.748249
0.583911
0.447221
0.336372
0.248575
0.180556
0.128951
0.0905709
0.0625653
0.0425031
0.028388
0.0186328
0.0120111
0.0075984
0.00471339
0.00286456
0.00170443
0.000992334
0.000565168
0.0003149
0.000171731
9.17445e-05
4.8071e-05
2.47371e-05
1.25188e-05
6.2372e-06
3.06114e-06
1.47982e-06
7.0413e-07
3.2932e-07
1.51144e-07
6.79283e-08
2.98343e-08
1.27982e-08
5.32784e-09
2.14804e-09
8.45165e-10
2.97454e-10
7.57356e-11
2.63428e-11
-7.68332e-12
0
-8.78094e-12
-1.09762e-12
1.75619e-11
3.29285e-12
0
1.31714e-11
0
1.31714e-11
0
-2.19523e-12
0
1.09762e-12
4.39047e-12
-2.19523e-12
0
2.19523e-12
-1.09762e-12
0.19246
0.566137
0.907215
1.19759
1.42405
1.57922
1.66173
1.67569
1.6296
1.53494
1.40465
1.25179
1.08835
0.924508
0.768216
0.625061
0.498427
0.389803
0.299184
0.225494
0.166975
0.121526
0.0869622
0.0611949
0.0423483
0.0288153
0.0192716
0.012661
0.0081648
0.00516376
0.00319972
0.00194076
0.00115128
0.000667508
0.000378123
0.000209266
0.00011319
5.98813e-05
3.10198e-05
1.57563e-05
7.85943e-06
3.85523e-06
1.86156e-06
8.85304e-07
4.14611e-07
1.91046e-07
8.65054e-08
3.84122e-08
1.67068e-08
7.10378e-09
2.92076e-09
1.1536e-09
4.35754e-10
1.52569e-10
3.40261e-11
2.08547e-11
-5.48809e-12
-3.29285e-12
-1.20738e-11
-7.68332e-12
1.09762e-12
1.31714e-11
-2.19524e-12
4.39047e-12
3.29285e-12
4.39047e-12
-9.87856e-12
0
-1.09762e-12
1.09762e-12
1.09762e-12
1.09762e-12
0
1.09762e-12
1.31714e-11
0.12315
0.362369
0.581039
0.767704
0.913935
1.01493
1.06966
1.08055
1.05283
0.993652
0.911195
0.813747
0.709002
0.603547
0.502565
0.409754
0.327397
0.256549
0.197287
0.148976
0.110523
0.0805924
0.0577804
0.0407368
0.0282426
0.0192499
0.0128929
0.00847923
0.00547084
0.00345931
0.00214134
0.00129622
0.000766586
0.000442597
0.000249356
0.000137069
7.35327e-05
3.85233e-05
1.97297e-05
9.8915e-06
4.86217e-06
2.347e-06
1.11408e-06
5.20585e-07
2.39565e-07
1.08552e-07
4.83698e-08
2.11862e-08
9.11132e-09
3.8252e-09
1.57069e-09
6.17959e-10
2.27207e-10
9.11023e-11
3.84166e-11
4.39047e-12
4.39047e-12
2.19524e-12
-6.5857e-12
8.78094e-12
-1.09762e-11
5.48809e-12
0
6.58571e-12
-2.19523e-12
-1.31714e-11
2.19524e-12
1.09762e-12
0
-1.09762e-12
7.68332e-12
3.29285e-12
0
3.29285e-12
-4.39047e-12
0.0779471
0.229422
0.368062
0.486686
0.579975
0.644851
0.680574
0.688563
0.672012
0.635354
0.583689
0.522233
0.455863
0.388781
0.324329
0.26491
0.212039
0.166441
0.128212
0.0969807
0.0720728
0.0526485
0.037816
0.0267121
0.0185549
0.01267
0.0084997
0.00559699
0.00361376
0.00228503
0.00141321
0.000853865
0.000503483
0.000289493
0.000162224
8.85791e-05
4.71363e-05
2.44584e-05
1.23868e-05
6.13056e-06
2.96986e-06
1.41059e-06
6.57987e-07
3.01855e-07
1.36321e-07
6.06423e-08
2.65558e-08
1.14712e-08
4.85586e-09
2.01193e-09
8.23213e-10
3.32578e-10
1.36105e-10
4.82952e-11
2.85381e-11
-3.29285e-12
5.48809e-12
1.4269e-11
1.75619e-11
1.64643e-11
1.09762e-11
-1.4269e-11
2.19523e-12
-1.20738e-11
-3.29285e-12
-1.09762e-12
0
1.09762e-12
1.09762e-12
0
-7.68332e-12
0
-4.39047e-12
-1.4269e-11
-1.09762e-12
0.0487981
0.143661
0.230581
0.305101
0.363899
0.405027
0.427976
0.433574
0.423755
0.401242
0.369187
0.330839
0.289253
0.247079
0.206438
0.168875
0.13537
0.106414
0.0820904
0.0621852
0.0462848
0.0338661
0.0243684
0.0172461
0.0120036
0.00821296
0.0055199
0.00364037
0.00235282
0.00148815
0.000919831
0.000554875
0.000326296
0.000186883
0.000104187
5.65238e-05
2.98443e-05
1.53429e-05
7.68652e-06
3.75703e-06
1.79433e-06
8.38784e-07
3.84483e-07
1.73104e-07
7.66598e-08
3.34257e-08
1.43876e-08
6.11153e-09
2.54537e-09
1.03286e-09
3.94045e-10
1.64643e-10
5.59785e-11
9.87856e-12
-5.48809e-12
-6.5857e-12
-1.97571e-11
-1.09762e-11
2.19523e-12
-8.78094e-12
2.19524e-12
-8.78094e-12
-5.48809e-12
-2.08547e-11
2.19523e-12
0
-2.19524e-12
-3.29285e-12
1.09762e-12
-1.09762e-12
1.09762e-12
-2.19524e-12
0
0
1.31714e-11
0.0302158
0.088972
0.142858
0.189132
0.225743
0.251474
0.265985
0.269758
0.263958
0.250241
0.230541
0.206859
0.181089
0.15488
0.129564
0.106114
0.0851594
0.0670187
0.0517583
0.0392542
0.0292547
0.0214365
0.0154504
0.0109554
0.00764103
0.00523945
0.00352885
0.00233158
0.00150899
0.000955083
0.000590228
0.000355619
0.000208639
0.000119078
6.60722e-05
3.56304e-05
1.86749e-05
9.51699e-06
4.71917e-06
2.27945e-06
1.07395e-06
4.94372e-07
2.22754e-07
9.84387e-08
4.27478e-08
1.82753e-08
7.70857e-09
3.19626e-09
1.32043e-09
5.13685e-10
1.90985e-10
7.35404e-11
2.19523e-11
1.53666e-11
-5.48809e-12
-1.53666e-11
-1.75619e-11
-2.63428e-11
-2.19523e-11
-1.53666e-11
-1.97571e-11
1.97571e-11
-1.09762e-12
7.68332e-12
0
-1.09762e-12
0
0
6.58571e-12
4.39047e-12
6.5857e-12
-1.97571e-11
2.19524e-12
1.09762e-11
0
0.0185058
0.0544995
0.0875323
0.115935
0.138453
0.154336
0.163364
0.165818
0.162395
0.154097
0.142098
0.12762
0.111823
0.095724
0.0801447
0.0656917
0.0527591
0.0415508
0.0321136
0.0243755
0.0181839
0.0133404
0.00962958
0.00684049
0.00478115
0.00328604
0.00221839
0.00146891
0.000952337
0.00060343
0.000373014
0.000224586
0.000131526
7.48449e-05
4.13559e-05
2.21814e-05
1.15482e-05
5.83801e-06
2.86761e-06
1.36995e-06
6.37341e-07
2.8919e-07
1.28195e-07
5.56393e-08
2.36822e-08
9.90929e-09
4.07984e-09
1.63655e-09
6.59668e-10
2.61233e-10
1.05371e-10
2.52452e-11
1.4269e-11
-2.19523e-12
-7.68332e-12
-7.68332e-12
-7.68332e-12
-2.85381e-11
-1.97571e-11
-2.52452e-11
-2.305e-11
9.87856e-12
4.39047e-12
1.86595e-11
1.09762e-12
0
-1.09762e-12
1.31714e-11
0
1.09762e-12
-7.68332e-12
0
0
0
-7.68332e-12
0.0112114
0.0330206
0.0530442
0.0702745
0.0839525
0.0936214
0.099144
0.100684
0.0986584
0.0936678
0.0864205
0.0776553
0.0680759
0.0583006
0.048831
0.0400384
0.0321655
0.0253391
0.0195898
0.0148754
0.0111035
0.00815314
0.00589263
0.00419295
0.00293677
0.00202324
0.00136933
0.00090891
0.000590509
0.000374736
0.00023182
0.000139551
8.16269e-05
4.63421e-05
2.55177e-05
1.36228e-05
7.05085e-06
3.53906e-06
1.72372e-06
8.15353e-07
3.75e-07
1.67934e-07
7.33384e-08
3.12854e-08
1.30474e-08
5.32015e-09
2.12499e-09
8.25408e-10
3.07333e-10
1.1525e-10
4.50023e-11
-1.4269e-11
-1.86595e-11
-1.97571e-11
2.19524e-12
6.5857e-12
-1.09762e-12
-2.305e-11
-1.53666e-11
-2.19524e-11
-2.08547e-11
-2.41476e-11
-3.29285e-12
0
0
2.19524e-12
1.09762e-12
0
-8.78094e-12
4.39047e-12
1.09762e-12
2.41476e-11
2.19524e-12
4.39047e-12
0
0.00671947
0.0197909
0.0317931
0.0421226
0.0503247
0.0561258
0.0594429
0.0603731
0.0591649
0.0561773
0.0518341
0.0465781
0.0408313
0.0349653
0.0292819
0.0240045
0.0192797
0.015184
0.0117363
0.00891102
0.00665234
0.00488706
0.00353538
0.00251927
0.00176797
0.0012209
0.000828461
0.000551339
0.000359047
0.000228278
0.000141386
8.51397e-05
4.97696e-05
2.82092e-05
1.54908e-05
8.23842e-06
4.24299e-06
2.11672e-06
1.02343e-06
4.79942e-07
2.18503e-07
9.67155e-08
4.16853e-08
1.75125e-08
7.17622e-09
2.86039e-09
1.08993e-09
4.15997e-10
1.29519e-10
3.51238e-11
-1.09762e-12
-2.19524e-11
-2.41476e-11
5.48809e-12
1.09762e-11
9.87856e-12
0
-1.97571e-11
-2.63428e-11
-1.53666e-11
-1.64643e-11
-7.68332e-12
1.09762e-12
-2.19524e-12
-1.09762e-12
-1.09762e-11
1.09762e-12
-6.5857e-12
-1.09762e-12
-1.09762e-12
-2.19523e-12
0
-9.87856e-12
0
5.48809e-12
0.00398455
0.0117347
0.0188482
0.0249661
0.0298191
0.0332458
0.0351983
0.0357357
0.0350064
0.033224
0.0306404
0.0275185
0.0241086
0.0206311
0.0172648
0.0141418
0.0113487
0.00893017
0.00689691
0.00523314
0.00390513
0.00286885
0.00207645
0.00148131
0.00104134
0.00072072
0.000490317
0.000327179
0.000213606
0.000136098
8.44226e-05
5.08774e-05
2.97388e-05
1.68389e-05
9.22877e-06
4.89358e-06
2.51032e-06
1.24605e-06
5.98771e-07
2.78758e-07
1.2585e-07
5.51586e-08
2.35197e-08
9.76989e-09
3.94484e-09
1.55313e-09
5.94909e-10
2.16231e-10
8.01261e-11
1.31714e-11
-8.78094e-12
2.08547e-11
1.09762e-11
1.64643e-11
-4.39047e-12
8.78094e-12
6.5857e-12
4.39047e-12
-7.68332e-12
3.29285e-12
-1.09762e-12
1.64643e-11
4.39047e-12
-7.68332e-12
1.09762e-12
-1.09762e-12
-1.09762e-12
1.09762e-12
2.19523e-12
-8.78094e-12
-1.31714e-11
-4.39047e-12
-6.5857e-12
-7.68332e-12
-1.09762e-12
0.00233798
0.00688398
0.0110522
0.0146308
0.0174618
0.0194519
0.0205753
0.020869
0.0204221
0.0193614
0.0178356
0.0159992
0.013999
0.0119637
0.00999758
0.00817718
0.00655222
0.00514814
0.00397027
0.00300866
0.00224294
0.00164683
0.001192
0.000850945
0.000599031
0.000415421
0.000283302
0.000189538
0.000124062
7.92251e-05
4.92308e-05
2.97024e-05
1.73682e-05
9.8301e-06
5.3806e-06
2.84692e-06
1.45597e-06
7.19846e-07
3.44208e-07
1.59295e-07
7.1422e-08
3.1056e-08
1.31176e-08
5.37833e-09
2.16889e-09
8.40775e-10
3.43554e-10
1.13055e-10
3.84166e-11
1.75619e-11
1.86595e-11
2.96357e-11
1.75619e-11
-8.78094e-12
-1.09762e-12
-7.68332e-12
-8.78094e-12
8.78094e-12
2.96357e-11
2.63428e-11
2.52452e-11
1.20738e-11
0
2.19524e-12
0
1.09762e-11
-2.19524e-12
0
0
5.48809e-12
8.78094e-12
0
9.87856e-12
2.19523e-12
-6.58571e-12
0.00135757
0.00399566
0.0064101
0.00847643
0.0101031
0.0112374
0.0118669
0.0120156
0.0117374
0.0111076
0.0102132
0.00914403
0.007985
0.00681014
0.00567894
0.00463485
0.00370569
0.00290525
0.00223583
0.00169105
0.00125863
0.000923067
0.000667773
0.000476807
0.000335974
0.000233377
0.0001595
0.000106972
7.01931e-05
4.49275e-05
2.79711e-05
1.68988e-05
9.88857e-06
5.59691e-06
3.06141e-06
1.61749e-06
8.25416e-07
4.06894e-07
1.93855e-07
8.92934e-08
3.98314e-08
1.72095e-08
7.22452e-09
2.93174e-09
1.18213e-09
4.66487e-10
1.81107e-10
6.91499e-11
6.58571e-12
1.86595e-11
2.96357e-11
1.64643e-11
2.41476e-11
2.19524e-12
8.78094e-12
-2.41476e-11
-1.64643e-11
9.87856e-12
1.97571e-11
7.68332e-12
1.97571e-11
-1.09762e-11
-1.09762e-12
-1.09762e-12
-4.39047e-12
1.09762e-12
-1.09762e-12
1.20738e-11
0
0
2.08547e-11
9.87856e-12
6.58571e-12
4.39047e-12
0
0.000780146
0.00229473
0.00367697
0.00485407
0.00577361
0.00640684
0.00674876
0.00681555
0.00664016
0.00626711
0.005747
0.00513144
0.00446871
0.00380057
0.00316028
0.00257184
0.00205031
0.00160284
0.0012301
0.000927967
0.000689119
0.000504497
0.000364557
0.000260211
0.000183437
0.000127576
8.7349e-05
5.8711e-05
3.86142e-05
2.47699e-05
1.5451e-05
9.34861e-06
5.47574e-06
3.10045e-06
1.69553e-06
8.95062e-07
4.56079e-07
2.24365e-07
1.06586e-07
4.89241e-08
2.17614e-08
9.34512e-09
3.92179e-09
1.62338e-09
6.59668e-10
2.87576e-10
1.14152e-10
7.35404e-11
3.07333e-11
1.4269e-11
2.96357e-11
3.84166e-11
4.71976e-11
4.93928e-11
2.19523e-11
1.97571e-11
1.86595e-11
2.52452e-11
2.19523e-12
-2.19523e-12
-5.48809e-12
-8.78094e-12
-1.09762e-12
0
-3.29285e-12
0
4.39047e-12
-4.39047e-12
-2.19523e-12
-1.31714e-11
-5.48809e-12
6.5857e-12
-1.09762e-12
-5.48809e-12
2.19523e-12
0.000443698
0.00130395
0.00208584
0.00274699
0.00325777
0.0036031
0.00378198
0.00380552
0.00369407
0.0034739
0.00317419
0.00282412
0.00245065
0.00207683
0.00172077
0.00139535
0.00110841
0.00086344
0.000660372
0.000496564
0.000367684
0.00026853
0.000193706
0.000138131
9.73682e-05
6.77663e-05
4.64632e-05
3.12877e-05
2.06204e-05
1.32545e-05
8.28325e-06
5.01942e-06
2.94326e-06
1.66759e-06
9.1203e-07
4.81269e-07
2.44988e-07
1.20346e-07
5.70432e-08
2.61321e-08
1.15634e-08
4.95574e-09
2.0712e-09
8.76996e-10
3.68799e-10
1.70131e-10
6.47594e-11
2.85381e-11
4.60999e-11
2.96357e-11
4.17095e-11
5.04904e-11
4.17095e-11
3.40261e-11
2.19524e-12
2.08547e-11
2.85381e-11
2.08547e-11
1.75619e-11
7.68332e-12
0
-3.29285e-12
2.19524e-12
8.78094e-12
3.29285e-12
-1.09762e-12
0
-1.20738e-11
1.09762e-12
0
-1.64643e-11
-9.87856e-12
1.09762e-12
-7.68332e-12
0
0.000249721
0.000733028
0.00116993
0.00153585
0.0018143
0.00199776
0.00208709
0.00209
0.00201909
0.00188986
0.00171892
0.00152253
0.0013154
0.00110992
0.00091568
0.000739337
0.000584812
0.000453657
0.000345554
0.000258835
0.000190981
0.000139056
0.000100071
7.125e-05
5.01906e-05
3.49387e-05
2.39777e-05
1.61698e-05
1.06755e-05
6.8747e-06
4.30369e-06
2.61179e-06
1.53326e-06
8.69388e-07
4.7565e-07
2.50994e-07
1.27699e-07
6.26805e-08
2.96884e-08
1.36006e-08
5.99409e-09
2.57282e-09
1.03725e-09
4.36852e-10
1.94278e-10
8.12237e-11
2.305e-11
1.86595e-11
2.41476e-11
3.29285e-11
2.41476e-11
2.85381e-11
8.78094e-12
-4.39047e-12
-1.31714e-11
-2.63428e-11
4.39047e-12
9.87856e-12
1.97571e-11
1.20738e-11
-1.09762e-12
-1.09762e-11
4.39047e-12
0
5.48809e-12
0
-1.09762e-12
0
6.58571e-12
1.53666e-11
5.48809e-12
-5.48809e-12
-8.78094e-12
1.09762e-12
-4.39047e-12
0.000139043
0.000407545
0.000648606
0.000848048
0.000996843
0.0010915
0.00113351
0.00112819
0.00108336
0.0010081
0.000911756
0.000803212
0.000690306
0.000579501
0.00047569
0.000382185
0.000300834
0.00023225
0.000176084
0.000131308
9.64864e-05
6.99979e-05
5.02242e-05
3.56821e-05
2.51042e-05
1.74695e-05
1.19942e-05
8.09696e-06
5.3533e-06
3.45279e-06
2.16487e-06
1.31566e-06
7.73245e-07
4.38808e-07
2.40219e-07
1.26791e-07
6.45081e-08
3.16476e-08
1.49858e-08
6.84255e-09
3.01625e-09
1.28311e-09
5.14783e-10
2.06352e-10
8.56142e-11
2.41476e-11
1.75619e-11
2.85381e-11
9.87856e-12
2.305e-11
-2.19523e-12
-3.29285e-12
-1.09762e-12
-1.4269e-11
-2.19523e-12
1.09762e-12
4.39047e-12
2.52452e-11
2.08547e-11
1.97571e-11
-2.19523e-12
8.78094e-12
0
-1.09762e-12
0
-4.39047e-12
-1.09762e-12
-1.09762e-12
0
6.5857e-12
8.78094e-12
-2.19523e-12
-4.39047e-12
8.78094e-12
0
7.65418e-05
0.000223958
0.000355222
0.000462213
0.000540071
0.000587346
0.000605528
0.000598216
0.000570232
0.00052686
0.000473294
0.000414273