/*--------------------------------*- C++ -*----------------------------------*\
  =========                 |
  \\      /  F ield         | OpenFOAM: The Open Source CFD Toolbox
   \\    /   O peration     | Website:  https://openfoam.org
    \\  /    A nd           | Version:  10
     \\/     M anipulation  |
\*---------------------------------------------------------------------------*/
FoamFile
{
    format      ascii;
    class       volScalarField;
    location    "498";
    object      T;
}
// * * * * * * * * * * * * * * * * * * * * * * * * * * * * * * * * * * * * * //

dimensions      [0 0 0 1 0 0 0];

internalField   nonuniform List<scalar> 
11250
(
249.893
167.709
139.611
127.291
120.606
116.393
113.463
111.289
109.601
108.245
107.13
106.196
105.401
104.718
104.125
103.609
103.156
102.758
102.407
102.098
101.825
101.585
101.373
101.186
101.022
100.878
100.753
100.643
100.548
100.465
100.394
100.332
100.279
100.234
100.195
100.162
100.134
100.111
100.091
100.075
100.061
100.05
100.04
100.033
100.026
100.021
100.017
100.013
100.011
100.008
100.007
100.005
100.004
100.003
100.002
100.002
100.001
100.001
100.001
100.001
100
100
100
100
100
100
100
100
100
100
100
100
100
100
100
331.652
249.043
203.06
176.243
159.357
147.905
139.646
133.395
128.482
124.51
121.226
118.464
116.108
114.08
112.318
110.78
109.43
108.243
107.197
106.274
105.459
104.74
104.106
103.548
103.058
102.629
102.253
101.925
101.64
101.392
101.178
100.994
100.835
100.7
100.584
100.486
100.403
100.332
100.273
100.224
100.183
100.149
100.121
100.097
100.078
100.063
100.05
100.04
100.031
100.025
100.02
100.015
100.012
100.009
100.007
100.005
100.004
100.003
100.002
100.002
100.001
100.001
100.001
100.001
100
100
100
100
100
100
100
100
100
100
100
359.327
293.759
247.357
215.282
192.696
176.255
163.856
154.198
146.466
140.132
134.847
130.373
126.539
123.225
120.339
117.813
115.594
113.638
111.913
110.388
109.042
107.854
106.805
105.882
105.071
104.359
103.736
103.193
102.72
102.31
101.955
101.649
101.386
101.161
100.969
100.806
100.668
100.552
100.454
100.372
100.304
100.247
100.2
100.162
100.13
100.104
100.083
100.066
100.052
100.041
100.032
100.025
100.02
100.015
100.012
100.009
100.007
100.005
100.004
100.003
100.002
100.002
100.001
100.001
100.001
100.001
100
100
100
100
100
100
100
100
100
371.229
319.324
277.351
244.866
219.932
200.611
185.38
173.139
163.118
154.778
147.737
141.722
136.535
132.028
128.087
124.627
121.578
118.887
116.508
114.404
112.544
110.899
109.448
108.169
107.044
106.057
105.193
104.439
103.782
103.212
102.719
102.294
101.928
101.616
101.349
101.122
100.93
100.768
100.632
100.518
100.423
100.344
100.279
100.225
100.181
100.145
100.116
100.092
100.073
100.057
100.045
100.035
100.028
100.021
100.017
100.013
100.01
100.007
100.006
100.004
100.003
100.002
100.002
100.001
100.001
100.001
100.001
100
100
100
100
100
100
100
100
377.502
334.977
297.888
266.944
241.613
220.946
203.991
189.948
178.187
168.227
159.708
152.357
145.968
140.382
135.474
131.148
127.325
123.941
120.943
118.287
115.935
113.853
112.015
110.393
108.965
107.711
106.613
105.654
104.818
104.093
103.465
102.924
102.459
102.06
101.72
101.431
101.186
100.98
100.806
100.661
100.54
100.439
100.356
100.287
100.231
100.185
100.148
100.117
100.093
100.073
100.058
100.045
100.035
100.027
100.021
100.016
100.012
100.01
100.007
100.005
100.004
100.003
100.002
100.002
100.001
100.001
100.001
100.001
100
100
100
100
100
100
100
381.312
345.22
312.321
283.466
258.703
237.654
219.792
204.588
191.575
180.367
170.65
162.175
154.747
148.209
142.433
137.319
132.784
128.757
125.181
122.006
119.19
116.694
114.487
112.537
110.82
109.31
107.987
106.831
105.823
104.948
104.19
103.536
102.974
102.492
102.081
101.732
101.436
101.186
100.976
100.8
100.654
100.532
100.431
100.348
100.28
100.224
100.179
100.142
100.113
100.089
100.07
100.055
100.043
100.033
100.026
100.02
100.015
100.012
100.009
100.007
100.005
100.004
100.003
100.002
100.002
100.001
100.001
100.001
100
100
100
100
100
100
100
383.848
352.3
322.761
295.966
272.166
251.281
233.056
217.172
203.308
191.174
180.516
171.123
162.818
155.456
148.916
143.098
137.917
133.303
129.195
125.539
122.289
119.404
116.849
114.59
112.598
110.845
109.308
107.963
106.79
105.771
104.889
104.127
103.472
102.91
102.431
102.023
101.677
101.386
101.14
100.935
100.764
100.622
100.504
100.407
100.327
100.262
100.209
100.166
100.132
100.104
100.082
100.064
100.05
100.039
100.03
100.023
100.018
100.013
100.01
100.008
100.006
100.004
100.003
100.002
100.002
100.001
100.001
100.001
100.001
100
100
100
100
100
100
385.64
357.406
330.515
305.554
282.819
262.371
244.12
227.894
213.486
200.691
189.316
179.188
170.159
162.098
154.895
148.457
142.701
137.556
132.962
128.865
125.214
121.969
119.09
116.541
114.29
112.308
110.568
109.045
107.716
106.56
105.558
104.694
103.949
103.311
102.766
102.303
101.91
101.578
101.299
101.065
100.87
100.708
100.574
100.464
100.373
100.299
100.239
100.19
100.15
100.119
100.093
100.073
100.057
100.044
100.034
100.026
100.02
100.015
100.012
100.009
100.007
100.005
100.004
100.003
100.002
100.002
100.001
100.001
100.001
100
100
100
100
100
100
386.959
361.211
336.407
313.01
291.302
271.406
253.324
236.978
222.25
209.002
197.093
186.39
176.772
168.127
160.359
153.382
147.118
141.501
136.47
131.971
127.955
124.378
121.199
118.381
115.889
113.693
111.762
110.072
108.595
107.31
106.196
105.234
104.405
103.694
103.087
102.57
102.132
101.762
101.45
101.19
100.972
100.791
100.642
100.518
100.417
100.334
100.267
100.212
100.168
100.133
100.104
100.081
100.064
100.049
100.038
100.029
100.023
100.017
100.013
100.01
100.007
100.006
100.004
100.003
100.002
100.002
100.001
100.001
100.001
100
100
100
100
100
100
387.958
364.116
340.969
318.881
298.105
278.785
260.971
244.649
229.757
216.212
203.916
192.772
182.682
173.556
165.311
157.871
151.165
145.131
139.711
134.851
130.504
126.624
123.17
120.104
117.39
114.994
112.887
111.04
109.425
108.02
106.8
105.745
104.837
104.058
103.391
102.824
102.343
101.937
101.595
101.308
101.069
100.87
100.706
100.57
100.459
100.368
100.294
100.233
100.185
100.146
100.115
100.09
100.07
100.054
100.042
100.032
100.025
100.019
100.014
100.011
100.008
100.006
100.005
100.003
100.003
100.002
100.001
100.001
100.001
100.001
100
100
100
100
100
388.732
366.379
344.555
323.555
303.599
284.832
267.329
251.113
236.164
222.436
209.867
198.388
187.926
178.409
169.766
161.933
154.846
148.447
142.683
137.502
132.857
128.703
125
121.707
118.789
116.21
113.94
111.947
110.204
108.686
107.367
106.227
105.244
104.4
103.679
103.064
102.543
102.102
101.732
101.421
101.161
100.945
100.767
100.62
100.499
100.4
100.319
100.254
100.201
100.159
100.125
100.098
100.076
100.059
100.046
100.035
100.027
100.021
100.016
100.012
100.009
100.007
100.005
100.004
100.003
100.002
100.002
100.001
100.001
100.001
100
100
100
100
100
389.341
368.166
347.41
327.311
308.063
289.804
272.62
256.554
241.616
227.787
215.032
203.305
192.553
182.719
173.748
165.583
158.169
151.455
145.389
139.924
135.014
130.615
126.687
123.189
120.084
117.338
114.918
112.792
110.931
109.308
107.898
106.678
105.626
104.722
103.949
103.29
102.731
102.258
101.86
101.527
101.248
101.016
100.824
100.666
100.536
100.43
100.343
100.273
100.216
100.171
100.134
100.105
100.082
100.064
100.049
100.038
100.029
100.022
100.017
100.013
100.01
100.007
100.005
100.004
100.003
100.002
100.002
100.001
100.001
100.001
100
100
100
100
100
389.826
369.595
349.704
330.353
311.711
293.905
277.027
261.133
246.248
232.374
219.496
207.588
196.611
186.525
177.285
168.843
161.152
154.166
147.838
142.124
136.98
132.362
128.232
124.549
121.277
118.379
115.822
113.573
111.604
109.885
108.391
107.097
105.981
105.022
104.201
103.501
102.906
102.404
101.981
101.626
101.329
101.083
100.878
100.71
100.571
100.458
100.366
100.291
100.231
100.182
100.143
100.112
100.087
100.068
100.052
100.04
100.031
100.024
100.018
100.014
100.01
100.008
100.006
100.004
100.003
100.002
100.002
100.001
100.001
100.001
100
100
100
100
100
390.217
370.748
351.563
332.832
314.704
297.298
280.704
264.984
250.176
236.295
223.342
211.304
200.156
189.87
180.409
171.737
163.813
156.595
150.041
144.11
138.759
133.949
129.639
125.791
122.368
119.332
116.652
114.293
112.225
110.418
108.847
107.485
106.31
105.3
104.434
103.697
103.07
102.54
102.093
101.718
101.405
101.145
100.929
100.751
100.604
100.485
100.387
100.308
100.244
100.193
100.151
100.119
100.092
100.072
100.056
100.043
100.033
100.025
100.019
100.014
100.011
100.008
100.006
100.005
100.003
100.003
100.002
100.001
100.001
100.001
100.001
100
100
100
100
390.534
371.685
353.078
334.863
317.171
300.112
283.775
268.224
253.504
239.641
226.645
214.515
203.238
192.794
183.156
174.294
166.174
158.759
152.011
145.891
140.361
135.381
130.913
126.918
123.36
120.202
117.41
114.95
112.793
110.907
109.266
107.843
106.613
105.556
104.65
103.877
103.221
102.665
102.197
101.804
101.475
101.202
100.976
100.789
100.635
100.509
100.407
100.324
100.257
100.203
100.159
100.125
100.097
100.076
100.058
100.045
100.035
100.026
100.02
100.015
100.012
100.009
100.006
100.005
100.004
100.003
100.002
100.001
100.001
100.001
100.001
100
100
100
100
390.793
372.451
354.32
336.534
319.21
302.451
286.342
270.949
256.32
242.49
229.475
217.282
205.908
195.341
185.56
176.542
168.258
160.676
153.762
147.481
141.795
136.667
132.059
127.935
124.257
120.989
118.098
115.549
113.311
111.353
109.648
108.169
106.891
105.791
104.848
104.044
103.36
102.781
102.293
101.883
101.54
101.255
101.019
100.824
100.663
100.532
100.425
100.338
100.268
100.212
100.166
100.13
100.102
100.079
100.061
100.047
100.036
100.028
100.021
100.016
100.012
100.009
100.007
100.005
100.004
100.003
100.002
100.001
100.001
100.001
100.001
100
100
100
100
391.005
373.079
355.342
337.912
320.898
304.397
288.488
273.239
258.701
244.911
231.892
219.659
208.213
197.549
187.654
178.508
170.089
162.367
155.313
148.892
143.072
137.815
133.086
128.847
125.063
121.699
118.719
116.09
113.78
111.758
109.996
108.466
107.144
106.005
105.029
104.196
103.487
102.886
102.38
101.955
101.6
101.304
101.059
100.856
100.69
100.553
100.442
100.352
100.279
100.22
100.173
100.136
100.106
100.082
100.064
100.049
100.038
100.029
100.022
100.017
100.013
100.009
100.007
100.005
100.004
100.003
100.002
100.002
100.001
100.001
100.001
100
100
100
100
391.179
373.596
356.184
339.052
322.299
306.017
290.284
275.164
260.711
246.965
233.954
221.695
210.197
199.458
189.472
180.222
171.69
163.851
156.677
150.139
144.203
138.835
133.999
129.661
125.785
122.335
119.277
116.576
114.202
112.123
110.31
108.735
107.373
106.2
105.193
104.334
103.602
102.983
102.46
102.021
101.654
101.349
101.095
100.886
100.713
100.572
100.457
100.364
100.289
100.228
100.179
100.14
100.11
100.085
100.066
100.051
100.039
100.03
100.023
100.017
100.013
100.01
100.007
100.005
100.004
100.003
100.002
100.002
100.001
100.001
100.001
100
100
100
100
391.323
374.023
356.881
339.996
323.464
307.368
291.786
276.781
262.407
248.705
235.707
223.434
211.898
201.102
191.043
181.709
173.084
165.147
157.874
151.235
145.2
139.736
134.809
130.384
126.427
122.902
119.775
117.012
114.581
112.451
110.592
108.977
107.58
106.375
105.342
104.458
103.707
103.07
102.533
102.081
101.704
101.389
101.128
100.912
100.735
100.59
100.472
100.375
100.298
100.235
100.185
100.145
100.113
100.088
100.068
100.052
100.04
100.031
100.023
100.018
100.013
100.01
100.008
100.006
100.004
100.003
100.002
100.002
100.001
100.001
100.001
100
100
100
100
391.442
374.376
357.457
340.779
324.431
308.495
293.043
278.138
263.835
250.176
237.195
224.915
213.353
202.513
192.396
182.994
174.293
166.275
158.917
152.193
146.074
140.528
135.522
131.023
126.995
123.405
120.217
117.4
114.919
112.744
110.845
109.194
107.765
106.533
105.475
104.571
103.801
103.149
102.598
102.136
101.748
101.426
101.158
100.937
100.755
100.606
100.484
100.386
100.306
100.241
100.19
100.149
100.116
100.09
100.07
100.054
100.041
100.032
100.024
100.018
100.014
100.01
100.008
100.006
100.004
100.003
100.002
100.002
100.001
100.001
100.001
100
100
100
100
391.541
374.668
357.935
341.429
325.236
309.434
294.093
279.276
265.036
251.417
238.455
226.174
214.593
203.72
193.557
184.1
175.337
167.252
159.824
153.028
146.838
141.222
136.148
131.584
127.496
123.849
120.609
117.743
115.218
113.004
111.07
109.387
107.93
106.673
105.594
104.671
103.886
103.219
102.657
102.184
101.788
101.459
101.185
100.959
100.773
100.62
100.496
100.395
100.313
100.247
100.195
100.152
100.119
100.092
100.072
100.055
100.042
100.032
100.025
100.019
100.014
100.011
100.008
100.006
100.004
100.003
100.002
100.002
100.001
100.001
100.001
100
100
100
100
391.622
374.91
358.331
341.969
325.905
310.216
294.97
280.229
266.045
252.463
239.519
227.241
215.647
204.749
194.551
185.049
176.235
168.094
160.608
153.752
147.501
141.826
136.695
132.076
127.935
124.239
120.953
118.046
115.483
113.234
111.268
109.558
108.077
106.798
105.7
104.761
103.961
103.282
102.709
102.228
101.824
101.488
101.209
100.978
100.789
100.633
100.506
100.403
100.32
100.253
100.199
100.156
100.122
100.094
100.073
100.056
100.043
100.033
100.025
100.019
100.014
100.011
100.008
100.006
100.005
100.003
100.002
100.002
100.001
100.001
100.001
100
100
100
100
391.689
375.11
358.659
342.416
326.461
310.868
295.702
281.026
266.891
253.342
240.417
228.143
216.541
205.625
195.398
185.861
177.005
168.818
161.283
154.377
148.076
142.35
137.17
132.504
128.318
124.58
121.255
118.311
115.715
113.436
111.444
109.709
108.206
106.909
105.794
104.84
104.028
103.338
102.756
102.266
101.856
101.514
101.231
100.996
100.803
100.645
100.515
100.41
100.326
100.257
100.202
100.159
100.124
100.096
100.074
100.057
100.044
100.034
100.026
100.019
100.015
100.011
100.008
100.006
100.005
100.003
100.003
100.002
100.001
100.001
100.001
100
100
100
100
391.745
375.276
358.931
342.787
326.923
311.409
296.312
281.691
267.599
254.08
241.172
228.904
217.297
206.366
196.118
186.552
177.662
169.438
161.863
154.915
148.571
142.802
137.581
132.874
128.651
124.876
121.518
118.543
115.918
113.613
111.597
109.842
108.32
107.006
105.877
104.91
104.086
103.388
102.797
102.3
101.885
101.538
101.25
101.011
100.815
100.655
100.524
100.417
100.331
100.261
100.206
100.161
100.126
100.098
100.076
100.058
100.045
100.034
100.026
100.02
100.015
100.011
100.008
100.006
100.005
100.003
100.003
100.002
100.001
100.001
100.001
100
100
100
100
391.791
375.413
359.156
343.095
327.306
311.86
296.82
282.246
268.19
254.698
241.805
229.543
217.934
206.993
196.727
187.138
178.222
169.967
162.358
155.375
148.995
143.192
137.935
133.195
128.938
125.133
121.746
118.744
116.095
113.767
111.731
109.958
108.419
107.091
105.949
104.971
104.138
103.431
102.833
102.331
101.909
101.558
101.266
101.025
100.827
100.664
100.531
100.423
100.336
100.265
100.209
100.164
100.128
100.099
100.077
100.059
100.046
100.035
100.027
100.02
100.015
100.011
100.009
100.006
100.005
100.004
100.003
100.002
100.001
100.001
100.001
100
100
100
100
391.829
375.527
359.342
343.35
327.624
312.233
297.242
282.708
268.683
255.213
242.335
230.08
218.47
207.521
197.242
187.635
178.696
170.416
162.779
155.768
149.358
143.525
138.239
133.47
129.186
125.354
121.943
118.918
116.248
113.901
111.847
110.058
108.506
107.165
106.012
105.025
104.183
103.469
102.865
102.357
101.931
101.576
101.281
101.037
100.836
100.672
100.537
100.428
100.34
100.268
100.211
100.166
100.129
100.1
100.078
100.06
100.046
100.035
100.027
100.02
100.015
100.012
100.009
100.006
100.005
100.004
100.003
100.002
100.001
100.001
100.001
100
100
100
100
391.861
375.62
359.495
343.56
327.886
312.542
297.591
283.091
269.094
255.643
242.778
230.528
218.918
207.964
197.674
188.053
179.096
170.796
163.137
156.101
149.667
143.809
138.498
133.705
129.398
125.544
122.112
119.068
116.38
114.016
111.948
110.145
108.581
107.23
106.067
105.072
104.223
103.502
102.893
102.38
101.95
101.592
101.294
101.048
100.845
100.679
100.543
100.433
100.343
100.271
100.213
100.167
100.131
100.102
100.079
100.061
100.047
100.036
100.027
100.021
100.016
100.012
100.009
100.007
100.005
100.004
100.003
100.002
100.001
100.001
100.001
100
100
100
100
391.887
375.698
359.622
343.733
328.103
312.798
297.881
283.409
269.434
256
243.146
230.903
219.293
208.335
198.037
188.405
179.434
171.116
163.439
156.384
149.929
144.05
138.719
133.906
129.579
125.707
122.257
119.196
116.493
114.116
112.034
110.22
108.646
107.285
106.114
105.112
104.257
103.531
102.917
102.4
101.967
101.606
101.305
101.057
100.852
100.685
100.548
100.436
100.346
100.274
100.215
100.169
100.132
100.103
100.079
100.061
100.047
100.036
100.027
100.021
100.016
100.012
100.009
100.007
100.005
100.004
100.003
100.002
100.001
100.001
100.001
100.001
100
100
100
391.908
375.761
359.726
343.876
328.282
313.009
298.12
283.672
269.716
256.297
243.452
231.214
219.606
208.644
198.341
188.699
179.716
171.385
163.693
156.622
150.151
144.254
138.906
134.076
129.733
125.845
122.38
119.306
116.589
114.2
112.108
110.284
108.701
107.333
106.155
105.146
104.286
103.555
102.937
102.417
101.981
101.617
101.315
101.065
100.859
100.69
100.552
100.44
100.349
100.276
100.217
100.17
100.133
100.103
100.08
100.062
100.047
100.036
100.028
100.021
100.016
100.012
100.009
100.007
100.005
100.004
100.003
100.002
100.001
100.001
100.001
100.001
100
100
100
391.925
375.813
359.812
343.994
328.429
313.182
298.317
283.888
269.949
256.542
243.706
231.472
219.865
208.902
198.594
188.945
179.953
171.611
163.906
156.822
150.337
144.426
139.064
134.219
129.863
125.962
122.485
119.399
116.672
114.273
112.172
110.339
108.749
107.374
106.19
105.176
104.311
103.576
102.955
102.432
101.994
101.628
101.323
101.072
100.865
100.695
100.556
100.443
100.351
100.278
100.219
100.171
100.134
100.104
100.081
100.062
100.048
100.037
100.028
100.021
100.016
100.012
100.009
100.007
100.005
100.004
100.003
100.002
100.001
100.001
100.001
100.001
100
100
100
391.94
375.856
359.882
344.09
328.549
313.325
298.479
284.067
270.14
256.744
243.915
231.685
220.08
209.116
198.804
189.149
180.15
171.799
164.084
156.989
150.492
144.571
139.196
134.34
129.972
126.061
122.573
119.477
116.741
114.334
112.225
110.386
108.789
107.408
106.22
105.202
104.333
103.595
102.97
102.445
102.004
101.636
101.331
101.078
100.869
100.698
100.559
100.445
100.353
100.279
100.22
100.172
100.135
100.105
100.081
100.063
100.048
100.037
100.028
100.021
100.016
100.012
100.009
100.007
100.005
100.004
100.003
100.002
100.001
100.001
100.001
100.001
100
100
100
391.951
375.891
359.94
344.169
328.648
313.442
298.611
284.213
270.298
256.91
244.087
231.861
220.257
209.292
198.978
189.318
180.313
171.955
164.232
157.128
150.623
144.691
139.307
134.442
130.064
126.144
122.648
119.544
116.8
114.386
112.27
110.425
108.823
107.438
106.245
105.223
104.351
103.61
102.983
102.456
102.013
101.644
101.337
101.083
100.873
100.702
100.562
100.448
100.355
100.281
100.221
100.173
100.135
100.105
100.082
100.063
100.048
100.037
100.028
100.021
100.016
100.012
100.009
100.007
100.005
100.004
100.003
100.002
100.001
100.001
100.001
100.001
100
100
100
391.961
375.919
359.987
344.233
328.729
313.537
298.72
284.333
270.427
257.046
244.229
232.006
220.403
209.438
199.121
189.458
180.448
172.085
164.355
157.244
150.731
144.791
139.399
134.526
130.141
126.213
122.71
119.599
116.849
114.429
112.308
110.459
108.852
107.462
106.266
105.241
104.366
103.623
102.994
102.465
102.021
101.65
101.342
101.087
100.877
100.705
100.564
100.449
100.357
100.282
100.222
100.174
100.136
100.106
100.082
100.063
100.049
100.037
100.028
100.021
100.016
100.012
100.009
100.007
100.005
100.004
100.003
100.002
100.001
100.001
100.001
100.001
100
100
100
391.969
375.942
360.025
344.286
328.794
313.615
298.809
284.431
270.532
257.158
244.345
232.125
220.523
209.557
199.239
189.573
180.56
172.191
164.457
157.34
150.82
144.875
139.476
134.597
130.205
126.271
122.762
119.645
116.89
114.465
112.34
110.486
108.876
107.483
106.284
105.256
104.379
103.634
103.004
102.473
102.027
101.655
101.346
101.091
100.88
100.707
100.566
100.451
100.358
100.283
100.223
100.175
100.136
100.106
100.082
100.063
100.049
100.037
100.028
100.022
100.016
100.012
100.009
100.007
100.005
100.004
100.003
100.002
100.001
100.001
100.001
100.001
100
100
100
391.975
375.961
360.056
344.329
328.848
313.678
298.881
284.511
270.618
257.249
244.439
232.221
220.621
209.655
199.335
189.668
180.651
172.279
164.54
157.419
150.894
144.943
139.54
134.655
130.258
126.319
122.805
119.684
116.925
114.496
112.367
110.51
108.896
107.501
106.299
105.269
104.39
103.643
103.011
102.479
102.033
101.66
101.35
101.094
100.882
100.709
100.567
100.452
100.359
100.284
100.224
100.175
100.137
100.106
100.082
100.064
100.049
100.037
100.029
100.022
100.016
100.012
100.009
100.007
100.005
100.004
100.003
100.002
100.001
100.001
100.001
100.001
100
100
100
391.98
375.977
360.081
344.363
328.891
313.73
298.939
284.575
270.688
257.322
244.516
232.3
220.7
209.735
199.414
189.745
180.726
172.351
164.609
157.484
150.955
145
139.592
134.703
130.302
126.359
122.841
119.716
116.953
114.521
112.389
110.529
108.913
107.515
106.312
105.28
104.399
103.651
103.018
102.484
102.037
101.664
101.353
101.096
100.885
100.711
100.569
100.453
100.36
100.285
100.224
100.176
100.137
100.107
100.083
100.064
100.049
100.038
100.029
100.022
100.016
100.012
100.009
100.007
100.005
100.004
100.003
100.002
100.001
100.001
100.001
100.001
100
100
100
391.984
375.989
360.101
344.391
328.926
313.771
298.986
284.627
270.745
257.382
244.578
232.364
220.765
209.799
199.478
189.808
180.787
172.41
164.665
157.537
151.005
145.046
139.635
134.742
130.338
126.391
122.87
119.742
116.977
114.542
112.407
110.545
108.927
107.527
106.322
105.289
104.407
103.657
103.023
102.489
102.041
101.667
101.356
101.098
100.886
100.712
100.57
100.454
100.361
100.285
100.225
100.176
100.138
100.107
100.083
100.064
100.049
100.038
100.029
100.022
100.016
100.012
100.009
100.007
100.005
100.004
100.003
100.002
100.001
100.001
100.001
100.001
100
100
100
391.988
375.999
360.117
344.413
328.954
313.805
299.024
284.67
270.79
257.431
244.629
232.416
220.818
209.852
199.531
189.859
180.837
172.458
164.711
157.58
151.045
145.084
139.67
134.774
130.367
126.418
122.894
119.764
116.996
114.559
112.422
110.558
108.938
107.537
106.331
105.296
104.413
103.663
103.028
102.493
102.044
101.669
101.358
101.1
100.888
100.713
100.571
100.455
100.361
100.286
100.225
100.176
100.138
100.107
100.083
100.064
100.049
100.038
100.029
100.022
100.016
100.012
100.009
100.007
100.005
100.004
100.003
100.002
100.001
100.001
100.001
100.001
100
100
100
391.99
376.007
360.13
344.431
328.977
313.831
299.055
284.704
270.827
257.47
244.669
232.458
220.86
209.894
199.573
189.9
180.877
172.496
164.748
157.615
151.078
145.115
139.698
134.801
130.391
126.44
122.914
119.782
117.012
114.573
112.435
110.569
108.948
107.545
106.338
105.302
104.418
103.667
103.031
102.496
102.047
101.672
101.36
101.102
100.889
100.714
100.572
100.456
100.362
100.286
100.225
100.177
100.138
100.107
100.083
100.064
100.049
100.038
100.029
100.022
100.016
100.012
100.009
100.007
100.005
100.004
100.003
100.002
100.001
100.001
100.001
100.001
100
100
100
391.992
376.013
360.141
344.446
328.995
313.853
299.08
284.731
270.856
257.501
244.702
232.491
220.894
209.929
199.607
189.934
180.909
172.528
164.777
157.643
151.105
145.14
139.722
134.822
130.411
126.458
122.93
119.796
117.024
114.584
112.445
110.578
108.955
107.552
106.343
105.307
104.423
103.671
103.034
102.498
102.049
101.673
101.361
101.103
100.89
100.715
100.572
100.456
100.362
100.286
100.226
100.177
100.138
100.107
100.083
100.064
100.049
100.038
100.029
100.022
100.017
100.012
100.009
100.007
100.005
100.004
100.003
100.002
100.002
100.001
100.001
100.001
100
100
100
391.994
376.018
360.149
344.457
329.009
313.87
299.099
284.753
270.88
257.526
244.728
232.518
220.921
209.956
199.634
189.96
180.935
172.553
164.802
157.666
151.127
145.16
139.74
134.839
130.427
126.472
122.943
119.808
117.035
114.593
112.453
110.585
108.962
107.558
106.348
105.311
104.426
103.674
103.037
102.5
102.051
101.675
101.362
101.104
100.891
100.716
100.573
100.457
100.363
100.287
100.226
100.177
100.138
100.108
100.083
100.064
100.049
100.038
100.029
100.022
100.017
100.012
100.009
100.007
100.005
100.004
100.003
100.002
100.002
100.001
100.001
100.001
100
100
100
391.995
376.022
360.156
344.466
329.021
313.884
299.115
284.77
270.899
257.546
244.749
232.54
220.943
209.978
199.656
189.982
180.956
172.573
164.821
157.684
151.144
145.176
139.755
134.853
130.439
126.483
122.953
119.817
117.043
114.601
112.459
110.591
108.967
107.562
106.352
105.314
104.429
103.676
103.039
102.502
102.052
101.676
101.363
101.105
100.891
100.716
100.573
100.457
100.363
100.287
100.226
100.177
100.138
100.108
100.083
100.064
100.049
100.038
100.029
100.022
100.017
100.012
100.009
100.007
100.005
100.004
100.003
100.002
100.002
100.001
100.001
100.001
100
100
100
391.997
376.025
360.161
344.474
329.03
313.895
299.127
284.784
270.914
257.562
244.765
232.557
220.961
209.995
199.673
189.999
180.973
172.589
164.836
157.699
151.158
145.189
139.767
134.864
130.45
126.493
122.962
119.825
117.05
114.607
112.465
110.595
108.971
107.565
106.355
105.317
104.431
103.678
103.041
102.504
102.053
101.677
101.364
101.105
100.892
100.717
100.574
100.457
100.363
100.287
100.226
100.177
100.139
100.108
100.083
100.064
100.049
100.038
100.029
100.022
100.017
100.012
100.009
100.007
100.005
100.004
100.003
100.002
100.002
100.001
100.001
100.001
100
100
100
391.997
376.028
360.165
344.479
329.037
313.903
299.137
284.795
270.925
257.574
244.779
232.57
220.974
210.009
199.687
190.012
180.986
172.602
164.849
157.711
151.169
145.199
139.777
134.873
130.458
126.5
122.968
119.831
117.055
114.612
112.469
110.599
108.974
107.568
106.358
105.319
104.433
103.679
103.042
102.505
102.054
101.678
101.365
101.106
100.892
100.717
100.574
100.458
100.363
100.287
100.226
100.177
100.139
100.108
100.084
100.064
100.05
100.038
100.029
100.022
100.017
100.012
100.009
100.007
100.005
100.004
100.003
100.002
100.002
100.001
100.001
100.001
100
100
100
391.998
376.03
360.169
344.484
329.043
313.91
299.145
284.803
270.935
257.584
244.789
232.581
220.985
210.02
199.698
190.023
180.997
172.612
164.858
157.72
151.178
145.208
139.785
134.88
130.464
126.506
122.974
119.836
117.06
114.615
112.473
110.602
108.977
107.571
106.36
105.321
104.434
103.681
103.043
102.506
102.055
101.678
101.365
101.106
100.893
100.717
100.574
100.458
100.363
100.287
100.226
100.178
100.139
100.108
100.084
100.064
100.05
100.038
100.029
100.022
100.017
100.012
100.009
100.007
100.005
100.004
100.003
100.002
100.002
100.001
100.001
100.001
100
100
100
391.999
376.031
360.171
344.487
329.047
313.915
299.151
284.81
270.942
257.592
244.797
232.589
220.994
210.029
199.706
190.032
181.005
172.62
164.866
157.727
151.184
145.214
139.791
134.886
130.47
126.511
122.978
119.839
117.063
114.619
112.475
110.605
108.979
107.572
106.361
105.322
104.435
103.682
103.044
102.506
102.055
101.679
101.366
101.107
100.893
100.718
100.574
100.458
100.364
100.288
100.226
100.178
100.139
100.108
100.084
100.064
100.05
100.038
100.029
100.022
100.017
100.012
100.009
100.007
100.005
100.004
100.003
100.002
100.002
100.001
100.001
100.001
100
100
100
391.999
376.033
360.173
344.49
329.051
313.919
299.156
284.815
270.948
257.598
244.803
232.596
221.001
210.036
199.713
190.038
181.011
172.626
164.872
157.733
151.19
145.219
139.796
134.89
130.474
126.515
122.982
119.843
117.066
114.621
112.477
110.606
108.981
107.574
106.362
105.323
104.436
103.682
103.044
102.507
102.056
101.679
101.366
101.107
100.893
100.718
100.575
100.458
100.364
100.288
100.226
100.178
100.139
100.108
100.084
100.065
100.05
100.038
100.029
100.022
100.017
100.012
100.009
100.007
100.005
100.004
100.003
100.002
100.002
100.001
100.001
100.001
100
100
100
391.999
376.034
360.175
344.492
329.054
313.923
299.159
284.819
270.952
257.603
244.808
232.601
221.006
210.041
199.718
190.043
181.016
172.631
164.877
157.738
151.194
145.223
139.799
134.894
130.477
126.518
122.984
119.845
117.068
114.623
112.479
110.608
108.982
107.575
106.363
105.324
104.437
103.683
103.045
102.507
102.056
101.68
101.366
101.107
100.893
100.718
100.575
100.458
100.364
100.288
100.227
100.178
100.139
100.108
100.084
100.065
100.05
100.038
100.029
100.022
100.017
100.012
100.009
100.007
100.005
100.004
100.003
100.002
100.002
100.001
100.001
100.001
100
100
100
392
376.034
360.176
344.494
329.056
313.925
299.162
284.822
270.956
257.606
244.812
232.605
221.01
210.045
199.722
190.048
181.02
172.635
164.88
157.741
151.198
145.227
139.802
134.896
130.479
126.52
122.986
119.847
117.07
114.624
112.48
110.609
108.983
107.576
106.364
105.325
104.438
103.684
103.045
102.508
102.057
101.68
101.367
101.107
100.894
100.718
100.575
100.458
100.364
100.288
100.227
100.178
100.139
100.108
100.084
100.065
100.05
100.038
100.029
100.022
100.017
100.012
100.009
100.007
100.005
100.004
100.003
100.002
100.002
100.001
100.001
100.001
100
100
100
392
376.035
360.177
344.495
329.057
313.927
299.164
284.825
270.958
257.609
244.815
232.608
221.013
210.048
199.725
190.051
181.023
172.638
164.883
157.744
151.2
145.229
139.805
134.899
130.481
126.522
122.988
119.848
117.071
114.626
112.482
110.61
108.984
107.577
106.365
105.326
104.438
103.684
103.046
102.508
102.057
101.68
101.367
101.107
100.894
100.718
100.575
100.458
100.364
100.288
100.227
100.178
100.139
100.108
100.084
100.065
100.05
100.038
100.029
100.022
100.017
100.012
100.009
100.007
100.005
100.004
100.003
100.002
100.002
100.001
100.001
100.001
100
100
100
392
376.035
360.178
344.496
329.059
313.929
299.166
284.827
270.961
257.611
244.818
232.611
221.016
210.051
199.728
190.053
181.026
172.64
164.886
157.746
151.202
145.231
139.806
134.9
130.483
126.523
122.989
119.849
117.072
114.627
112.482
110.611
108.984
107.577
106.365
105.326
104.439
103.684
103.046
102.508
102.057
101.68
101.367
101.108
100.894
100.718
100.575
100.458
100.364
100.288
100.227
100.178
100.139
100.108
100.084
100.065
100.05
100.038
100.029
100.022
100.017
100.012
100.009
100.007
100.005
100.004
100.003
100.002