/*--------------------------------*- C++ -*----------------------------------*\
  =========                 |
  \\      /  F ield         | OpenFOAM: The Open Source CFD Toolbox
   \\    /   O peration     | Website:  https://openfoam.org
    \\  /    A nd           | Version:  10
     \\/     M anipulation  |
\*---------------------------------------------------------------------------*/
FoamFile
{
    format      ascii;
    class       volScalarField;
    location    "15";
    object      gradTx;
}
// * * * * * * * * * * * * * * * * * * * * * * * * * * * * * * * * * * * * * //

dimensions      [0 -1 0 1 0 0 0];

internalField   nonuniform List<scalar> 
11250
(
13780.3
6671.58
3277.12
1548.96
685.112
280.168
105.547
36.6544
11.7641
3.49955
0.966137
0.246447
0.0575405
0.0121827
0.00232673
0.000400632
6.23784e-05
8.8263e-06
1.14166e-06
1.35818e-07
1.49408e-08
1.51581e-09
1.37202e-10
3.29285e-12
6.58571e-12
1.09762e-12
2.19524e-12
2.19524e-12
1.09762e-12
2.19524e-12
-1.4269e-11
1.09762e-12
-3.29285e-12
-2.19524e-12
-9.87856e-12
-4.39047e-12
0
-2.19524e-12
1.09762e-12
-4.39047e-12
-9.87856e-12
6.58571e-12
1.09762e-12
-5.48809e-12
-5.48809e-12
1.09762e-12
0
-4.39047e-12
2.19524e-12
0
1.09762e-12
0
1.4269e-11
0
1.09762e-12
0
1.09762e-12
-2.19524e-12
0
2.19524e-12
0
1.09762e-12
0
-2.19524e-11
9.87856e-12
-1.09762e-12
-1.09762e-12
0
1.09762e-12
0
-5.48809e-12
0
-7.68332e-12
0
-9.87856e-12
3615.87
3377.1
2111.69
1116.02
523.254
221.253
85.1002
29.9624
9.709
2.90857
0.807196
0.206681
0.0483804
0.010261
0.0019621
0.000338177
5.27015e-05
7.46395e-06
9.66389e-07
1.15068e-07
1.26478e-08
1.2897e-09
1.28421e-10
0
-1.20738e-11
-1.09762e-12
-1.53666e-11
-2.19523e-12
-2.19523e-12
-2.19523e-12
-6.5857e-12
6.5857e-12
3.29285e-12
0
1.09762e-12
0
-8.78094e-12
1.09762e-12
-1.09762e-12
0
0
-4.39047e-12
-1.09762e-12
-1.09762e-12
0
0
-1.09762e-12
0
-2.19523e-12
0
-1.75619e-11
0
-1.4269e-11
8.78094e-12
-1.31714e-11
-6.5857e-12
-1.4269e-11
0
-4.39047e-12
0
0
-1.09762e-12
0
2.41476e-11
5.48809e-12
0
-1.09762e-12
1.09762e-12
-1.09762e-12
0
-8.78094e-12
0
8.78094e-12
2.19523e-12
0
1064.16
1468.89
1105.6
649.799
325.209
143.449
56.7803
20.4019
6.71128
2.03488
0.570778
0.147607
0.0348699
0.00745601
0.00143582
0.000248971
3.9002e-05
5.54881e-06
7.21308e-07
8.61981e-08
9.53061e-09
9.85661e-10
9.43951e-11
2.19524e-12
1.09762e-12
0
3.29285e-12
0
1.09762e-12
3.29285e-12
1.4269e-11
0
-3.29285e-12
1.09762e-12
1.75619e-11
3.29285e-12
0
-1.09762e-12
-2.19524e-12
2.19524e-12
9.87856e-12
-2.19524e-12
0
7.68332e-12
5.48809e-12
7.68332e-12
1.09762e-12
5.48809e-12
0
0
1.09762e-12
-1.09762e-12
4.39047e-12
8.78094e-12
0
-2.19523e-12
0
4.39047e-12
0
-2.19524e-12
0
0
0
-1.4269e-11
-1.09762e-11
2.19524e-12
3.29285e-12
2.19523e-12
0
0
3.29285e-12
8.78094e-12
0
-1.09762e-12
8.78094e-12
340.88
593.765
508.404
325.017
172.249
79.1001
32.2378
11.8396
3.96189
1.21936
0.347543
0.0915816
0.0220905
0.00482378
0.00094737
0.000167186
2.65951e-05
3.83425e-06
5.04177e-07
6.08607e-08
6.79315e-09
7.17842e-10
7.57356e-11
1.20738e-11
6.58571e-12
0
1.31714e-11
0
0
0
6.58571e-12
-7.68332e-12
-1.09762e-12
1.09762e-12
0
1.09762e-12
8.78094e-12
0
1.09762e-12
0
0
0
1.09762e-12
0
0
0
0
1.09762e-12
0
0
1.53666e-11
0
1.09762e-12
-8.78094e-12
1.31714e-11
5.48809e-12
1.4269e-11
-4.39047e-12
5.48809e-12
6.58571e-12
0
-2.19523e-12
0
-1.09762e-12
-4.39047e-12
3.29285e-12
0
1.09762e-12
0
2.19524e-12
5.48809e-12
0
-1.09762e-12
-1.09762e-12
-5.48809e-12
113.477
226.318
211.556
144.112
80.0295
38.06
15.9319
5.97503
2.03447
0.636924
0.186043
0.0508647
0.012844
0.00294138
0.000603693
0.000110689
1.81832e-05
2.69237e-06
3.6192e-07
4.44886e-08
5.04355e-09
5.33442e-10
5.37833e-11
1.31714e-11
6.5857e-12
-9.87856e-12
-1.09762e-12
0
0
-2.19523e-12
0
7.68332e-12
4.39047e-12
-1.09762e-12
-7.68332e-12
0
0
-1.97571e-11
2.19523e-12
2.19523e-12
5.48809e-12
-1.09762e-12
8.78094e-12
0
-2.19523e-12
-1.09762e-11
-4.39047e-12
-2.19523e-12
1.09762e-12
3.29285e-12
8.78094e-12
1.09762e-12
-5.48809e-12
-9.87856e-12
0
5.48809e-12
1.09762e-12
-8.78094e-12
-5.48809e-12
0
0
0
0
1.86595e-11
0
-1.09762e-12
-1.09762e-12
-3.29285e-12
0
-1.09762e-12
-9.87856e-12
-1.20738e-11
-7.68332e-12
-1.09762e-12
-1.09762e-12
37.6724
81.3001
80.6959
57.6432
33.2271
16.2728
6.97287
2.66561
0.923344
0.294558
0.088889
0.0256128
0.00689157
0.00167869
0.000363306
6.95453e-05
1.1823e-05
1.79902e-06
2.47175e-07
3.09309e-08
3.55957e-09
3.7758e-10
2.96357e-11
-3.29285e-12
-6.58571e-12
1.09762e-12
0
-1.09762e-12
0
-1.53666e-11
1.09762e-12
-1.09762e-12
1.09762e-12
2.19524e-12
0
0
0
0
1.09762e-11
1.20738e-11
0
0
-9.87856e-12
-1.09762e-12
1.09762e-12
1.09762e-12
0
1.09762e-12
-2.19524e-12
-2.19523e-12
-6.58571e-12
-1.09762e-12
0
-3.29285e-12
-1.09762e-12
0
-1.09762e-12
2.19524e-12
1.09762e-12
-6.58571e-12
1.09762e-12
2.19523e-12
1.09762e-12
0
-1.09762e-12
-4.39047e-12
0
0
0
-2.19524e-12
4.39047e-12
1.09762e-12
-4.39047e-12
0
0
12.131
27.4456
28.4016
21.0248
12.4831
6.26454
2.73954
1.06624
0.375896
0.122187
0.0379381
0.0113976
0.00321303
0.000816467
0.000182935
3.59941e-05
6.25435e-06
9.68662e-07
1.35065e-07
1.71108e-08
1.97461e-09
2.05254e-10
1.86595e-11
4.39047e-12
-9.87856e-12
8.78094e-12
-1.09762e-12
0
0
0
-1.09762e-12
-1.64643e-11
-2.19524e-12
1.09762e-12
-5.48809e-12
0
-1.09762e-12
2.19524e-11
0
0
-9.87856e-12
2.19524e-12
-8.78094e-12
-9.87856e-12
-4.39047e-12
2.19524e-12
5.48809e-12
1.09762e-12
-1.09762e-12
-4.39047e-12
-9.87856e-12
0
0
-1.09762e-12
0
-9.87856e-12
-1.09762e-12
-7.68332e-12
4.39047e-12
-4.39047e-12
0
-2.19523e-12
1.09762e-12
-5.48809e-12
2.19523e-12
2.19524e-12
0
0
-1.20738e-11
1.09762e-12
1.31714e-11
2.19524e-12
0
-7.68332e-12
0
3.72897
8.68935
9.26247
7.04479
4.28249
2.19356
0.976814
0.386826
0.138711
0.0457414
0.0143861
0.00438337
0.00125492
0.000323765
7.35584e-05
1.46549e-05
2.57508e-06
4.02898e-07
5.67106e-08
7.24208e-09
8.40775e-10
8.34189e-11
7.68332e-12
6.5857e-12
1.20738e-11
0
0
-3.29285e-12
-1.09762e-12
1.09762e-11
1.09762e-12
2.19523e-12
2.19523e-12
0
-1.09762e-12
0
-8.78094e-12
-9.87856e-12
-1.20738e-11
-1.20738e-11
-1.09762e-12
0
9.87856e-12
0
-5.48809e-12
-9.87856e-12
0
-1.09762e-12
1.09762e-12
-3.29285e-12
5.48809e-12
0
0
4.39047e-12
1.09762e-12
4.39047e-12
2.305e-11
3.29285e-12
-3.29285e-12
0
0
0
-3.29285e-12
0
0
0
7.68332e-12
-1.09762e-12
0
1.09762e-12
-1.09762e-12
0
6.5857e-12
0
4.39047e-12
1.08495
2.578
2.80869
2.18239
1.35319
0.705923
0.319372
0.12824
0.0464921
0.0153977
0.00481516
0.00144941
0.00041046
0.000105294
2.39007e-05
4.77297e-06
8.42339e-07
1.32514e-07
1.87769e-08
2.43342e-09
3.0404e-10
4.39047e-11
1.09762e-12
1.09762e-12
1.09762e-12
0
-1.09762e-12
0
1.09762e-12
1.09762e-12
1.09762e-12
6.5857e-12
0
0
5.48809e-12
-1.09762e-12
0
-2.19524e-12
-1.09762e-12
-5.48809e-12
5.48809e-12
-1.09762e-12
-3.29285e-12
9.87856e-12
0
0
-3.29285e-12
0
0
-1.20738e-11
-2.19524e-12
0
-1.09762e-12
-3.29285e-12
0
8.78094e-12
1.4269e-11
1.4269e-11
-4.39047e-12
4.39047e-12
-1.09762e-12
2.19523e-12
8.78094e-12
0
-1.09762e-12
0
1.4269e-11
2.19523e-12
1.31714e-11
-1.09762e-12
2.19523e-12
5.48809e-12
6.58571e-12
8.78094e-12
2.19524e-12
0.297157
0.716188
0.794642
0.630303
0.399372
0.213231
0.0981582
0.0397213
0.0143687
0.00470058
0.00143352
0.000417278
0.000114598
2.87814e-05
6.45673e-06
1.28305e-06
2.26309e-07
3.5666e-08
5.07319e-09
6.7723e-10
1.02078e-10
2.74404e-11
-5.48809e-12
-1.31714e-11
-7.68332e-12
-2.19523e-12
-4.39047e-12
6.58571e-12
-2.19523e-12
3.29285e-12
-1.4269e-11
-1.20738e-11
-2.08547e-11
-2.08547e-11
0
-1.09762e-12
7.68332e-12
8.78094e-12
0
-6.58571e-12
-5.48809e-12
-2.19524e-12
1.09762e-12
0
5.48809e-12
8.78094e-12
-1.09762e-12
-4.39047e-12
1.09762e-12
4.39047e-12
-2.19524e-12
-1.09762e-12
0
0
0
-5.48809e-12
-1.97571e-11
-1.09762e-12
2.19523e-12
-1.09762e-12
-1.09762e-12
0
1.09762e-12
-1.09762e-12
-1.09762e-12
-1.09762e-12
-6.58571e-12
0
-1.09762e-12
0
1.09762e-12
0
-6.58571e-12
0
1.09762e-12
0.0760257
0.185549
0.210069
0.171363
0.112277
0.0625601
0.0296838
0.0120742
0.00428764
0.00135456
0.000393357
0.000108194
2.82284e-05
6.83034e-06
1.4974e-06
2.93866e-07
5.15485e-08
8.12237e-09
1.13164e-09
1.60252e-10
1.86595e-11
-1.09762e-12
4.39047e-12
-2.63428e-11
-7.68332e-12
0
1.09762e-12
0
0
-1.09762e-12
-1.09762e-12
3.29285e-12
0
-2.19523e-12
1.75619e-11
2.19523e-12
2.19523e-12
-1.20738e-11
-6.5857e-12
5.48809e-12
1.75619e-11
0
3.29285e-12
1.09762e-12
6.5857e-12
0
3.29285e-12
-5.48809e-12
-1.09762e-12
1.20738e-11
2.19523e-12
0
2.19523e-12
4.39047e-12
2.19523e-12
1.09762e-12
-1.4269e-11
0
4.39047e-12
-1.09762e-12
3.29285e-12
1.4269e-11
-8.78094e-12
0
0
-9.87856e-12
-3.7319e-11
-1.09762e-12
0
0
-3.29285e-12
-5.48809e-12
0
-2.19523e-12
-3.29285e-12
0.0179678
0.0444487
0.051661
0.0438865
0.0302081
0.0179587
0.00891423
0.00365647
0.00126603
0.000380967
0.000103495
2.63478e-05
6.38838e-06
1.46025e-06
3.08223e-07
5.91429e-08
1.02539e-08
1.6124e-09
2.25012e-10
3.40261e-11
8.78094e-12
-4.39047e-12
3.29285e-12
1.4269e-11
4.39047e-12
2.19523e-12
4.39047e-12
-2.19524e-12
2.19523e-12
3.29285e-12
1.31714e-11
9.87856e-12
2.08547e-11
1.97571e-11
2.19523e-12
0
-2.19524e-12
1.09762e-12
0
6.58571e-12
7.68332e-12
2.19524e-12
4.39047e-12
7.68332e-12
0
1.09762e-12
0
1.20738e-11
1.09762e-12
2.19523e-12
4.39047e-12
4.39047e-12
0
1.09762e-12
-1.09762e-12
-1.09762e-12
-3.29285e-12
0
-1.09762e-12
2.19524e-12
0
-1.09762e-12
5.48809e-12
0
-1.09762e-11
-5.48809e-12
-2.19524e-12
-1.09762e-12
0
1.09762e-12
0
0
4.39047e-12
0
1.09762e-12
0.00388004
0.00974763
0.0117053
0.0104583
0.00762898
0.004873
0.00253746
0.00105369
0.000357957
0.000103175
2.62882e-05
6.17038e-06
1.37297e-06
2.91247e-07
5.81968e-08
1.07643e-08
1.83192e-09
2.79892e-10
5.48809e-11
-2.19523e-12
3.29285e-12
4.39047e-12
2.19523e-12
2.74404e-11
7.68332e-12
0
0
0
0
0
0
-3.29285e-12
0
2.19524e-12
-2.305e-11
0
1.09762e-11
1.64643e-11
9.87856e-12
0
-2.305e-11
0
-1.09762e-12
-3.29285e-12
-1.09762e-12
0
-1.09762e-12
4.39047e-12
0
1.09762e-12
0
1.09762e-12
0
0
-1.09762e-12
0
1.09762e-12
-8.78094e-12
-7.68332e-12
-3.29285e-12
-1.09762e-12
-1.4269e-11
1.09762e-12
-1.20738e-11
-1.09762e-12
1.09762e-11
2.305e-11
-2.19523e-12
0
0
-1.09762e-12
-4.39047e-12
-8.78094e-12
1.09762e-12
6.58571e-12
0.000760127
0.00194248
0.0024194
0.00228058
0.00176075
0.001199
0.000650387
0.000273763
9.21561e-05
2.58309e-05
6.28091e-06
1.37959e-06
2.83295e-07
5.5444e-08
1.03428e-08
1.82753e-09
2.98552e-10
3.18309e-11
-1.75619e-11
-2.96357e-11
-1.20738e-11
-1.09762e-11
9.87856e-12
1.86595e-11
3.29285e-12
3.29285e-12
1.09762e-12
0
0
-4.39047e-12
-1.09762e-12
1.09762e-12
-1.09762e-12
-3.29285e-12
-4.39047e-12
0
2.19523e-12
0
0
0
-2.19523e-12
-1.09762e-11
-6.5857e-12
-7.68332e-12
-5.48809e-12
-6.5857e-12
-1.09762e-12
-6.5857e-12
0
-1.09762e-12
0
-2.19523e-12
-1.09762e-12
1.09762e-12
0
0
4.39047e-12
0
1.09762e-12
0
-1.09762e-12
-1.09762e-12
-6.5857e-12
0
1.20738e-11
8.78094e-12
2.19523e-12
0
-1.09762e-12
-2.19523e-12
-6.5857e-12
4.39047e-12
0
0
0
0.000134782
0.000350646
0.000453361
0.000449686
0.000364847
0.000261456
0.000146412
6.2433e-05
2.0979e-05
5.79577e-06
1.36997e-06
2.87669e-07
5.55318e-08
1.01036e-08
1.7507e-09
2.91966e-10
4.17095e-11
9.87856e-12
-1.4269e-11
-2.63428e-11
-3.18309e-11
-1.64643e-11
-1.20738e-11
-2.19524e-12
-2.19524e-12
0
-1.09762e-12
0
0
-4.39047e-12
0
2.19523e-12
0
0
5.48809e-12
0
-1.97571e-11
3.29285e-12
-9.87856e-12
0
5.48809e-12
1.09762e-12
-1.31714e-11
2.19523e-12
0
-5.48809e-12
4.39047e-12
0
-5.48809e-12
-1.09762e-12
0
-3.29285e-12
-8.78094e-12
0
-1.4269e-11
-1.09762e-12
0
7.68332e-12
8.78094e-12
6.58571e-12
1.09762e-12
-4.39047e-12
0
1.31714e-11
9.87856e-12
0
-1.09762e-12
2.19523e-12
-4.39047e-12
0
-7.68332e-12
3.29285e-12
8.78094e-12
9.87856e-12
-3.29285e-12
2.16638e-05
5.73796e-05
7.69005e-05
7.98214e-05
6.74787e-05
5.02801e-05
2.88497e-05
1.24483e-05
4.19335e-06
1.15202e-06
2.68318e-07
5.48512e-08
1.01508e-08
1.73863e-09
2.93064e-10
3.51238e-11
2.41476e-11
1.09762e-11
1.09762e-11
-7.68332e-12
-4.39047e-12
4.39047e-12
-1.53666e-11
-1.64643e-11
-1.09762e-12
-3.29285e-12
-1.09762e-12
-1.09762e-12
0
0
1.09762e-12
0
0
-9.87856e-12
0
-1.09762e-12
0
4.39047e-12
0
-1.09762e-12
0
9.87856e-12
1.09762e-12
0
5.48809e-12
5.48809e-12
1.09762e-12
2.19524e-12
-1.09762e-12
0
1.09762e-12
-1.09762e-12
0
-2.19524e-12
0
-4.39047e-12
-4.39047e-12
0
8.78094e-12
-1.09762e-12
0
1.09762e-12
0
-2.19524e-12
5.48809e-12
-4.39047e-12
-1.09762e-12
-1.09762e-12
0
1.09762e-12
-4.39047e-12
-7.68332e-12
-2.19524e-12
2.19523e-12
5.48809e-12
3.16876e-06
8.54005e-06
1.18321e-05
1.27714e-05
1.11627e-05
8.56766e-06
5.00961e-06
2.18475e-06
7.39496e-07
2.03092e-07
4.69978e-08
9.48561e-09
1.71887e-09
2.93064e-10
5.70761e-11
1.97571e-11
2.74404e-11
7.68332e-12
1.53666e-11
-2.19523e-12
9.87856e-12
7.68332e-12
2.19523e-12
1.09762e-12
0
0
2.19523e-12
1.09762e-12
-4.39047e-12
6.5857e-12
0
-1.09762e-12
-2.19523e-12
-1.09762e-12
5.48809e-12
1.09762e-12
3.29285e-12
-4.39047e-12
8.78094e-12
-4.39047e-12
1.09762e-12
-1.09762e-11
1.4269e-11
5.48809e-12
-1.53666e-11
6.5857e-12
-5.48809e-12
0
7.68332e-12
0
-1.09762e-12
4.39047e-12
8.78094e-12
0
1.4269e-11
2.19523e-12
1.09762e-12
3.29285e-12
0
-2.19523e-12
-2.19523e-12
5.48809e-12
1.09762e-12
0
-9.87856e-12
-1.09762e-12
0
-3.29285e-12
4.39047e-12
-1.09762e-12
-3.29285e-12
5.48809e-12
-3.29285e-12
-9.87856e-12
-1.09762e-12
4.23632e-07
1.16109e-06
1.65793e-06
1.84999e-06
1.66138e-06
1.30449e-06
7.74307e-07
3.40967e-07
1.1611e-07
3.19791e-08
7.38916e-09
1.47849e-09
2.70014e-10
4.71976e-11
2.19524e-12
2.41476e-11
8.78094e-12
2.19524e-11
1.53666e-11
1.75619e-11
1.09762e-12
-9.87856e-12
1.4269e-11
8.78094e-12
-1.09762e-12
0
1.09762e-12
-5.48809e-12
0
8.78094e-12
0
0
0
9.87856e-12
2.19523e-12
0
-1.09762e-12
-5.48809e-12
-1.09762e-12
1.09762e-12
0
1.09762e-12
0
0
-1.53666e-11
-2.19524e-12
0
-3.29285e-12
1.09762e-12
0
0
0
0
-1.09762e-12
-2.19524e-12
5.48809e-12
-1.09762e-12
-2.19524e-12
-9.87856e-12
0
0
-4.39047e-12
0
2.19524e-12
-4.39047e-12
1.09762e-12
8.78094e-12
4.39047e-12
0
0
9.87856e-12
1.20738e-11
5.48809e-12
-5.48809e-12
-4.39047e-12
5.22773e-08
1.45518e-07
2.13359e-07
2.44745e-07
2.24668e-07
1.79485e-07
1.07841e-07
4.79439e-08
1.64379e-08
4.53316e-09
1.04603e-09
1.90985e-10
1.86595e-11
-7.68332e-12
-1.4269e-11
3.29285e-12
-1.31714e-11
3.29285e-12
1.53666e-11
3.18309e-11
1.09762e-11
-8.78094e-12
5.48809e-12
-7.68332e-12
0
0
-1.09762e-12
0
4.39047e-12
0
0
1.09762e-12
1.09762e-12
1.09762e-12
-5.48809e-12
0
5.48809e-12
-1.09762e-12
0
5.48809e-12
-1.09762e-12
1.53666e-11
-1.09762e-12
-5.48809e-12
1.4269e-11
1.09762e-12
1.31714e-11
0
6.58571e-12
1.09762e-12
0
0
0
0
1.09762e-12
-2.19523e-12
-1.09762e-12
-1.09762e-12
-1.09762e-12
2.19524e-12
-1.09762e-12
-8.78094e-12
-1.09762e-12
0
-8.78094e-12
-9.87856e-12
0
2.19523e-12
4.39047e-12
1.09762e-12
1.31714e-11
-4.39047e-12
3.29285e-12
-1.09762e-12
-1.09762e-12
5.97104e-09
1.68155e-08
2.51486e-08
2.95325e-08
2.76029e-08
2.23749e-08
1.35764e-08
6.07312e-09
2.10743e-09
5.8503e-10
1.35007e-10
2.19523e-11
-1.31714e-11
9.87856e-12
-1.09762e-12
-7.68332e-12
-6.5857e-12
0
0
-6.5857e-12
-1.09762e-11
-3.29285e-12
2.19523e-12
-1.31714e-11
3.29285e-12
0
-1.09762e-12
5.48809e-12
0
-9.87856e-12
0
0
0
-1.09762e-12
0
0
1.09762e-12
-8.78094e-12
1.09762e-12
0
-1.09762e-12
6.5857e-12
-1.09762e-12
0
1.53666e-11
-8.78094e-12
1.09762e-12
1.09762e-12
-2.19523e-12
-8.78094e-12
0
-1.09762e-12
0
1.09762e-12
3.29285e-12
3.29285e-12
1.86595e-11
0
2.19523e-12
0
0
-6.5857e-12
-1.09762e-12
3.29285e-12
0
-1.09762e-12
-7.68332e-12
0
0
1.09762e-12
-4.39047e-12
-8.78094e-12
0
0
-5.48809e-12
4.82952e-10
1.41373e-09
2.28085e-09
2.88234e-09
2.83185e-09
2.38732e-09
1.46093e-09
6.43204e-10
2.42573e-10
7.79308e-11
2.41476e-11
5.48809e-12
8.78094e-12
1.86595e-11
4.39047e-12
-1.4269e-11
2.19523e-12
-4.39047e-12
-1.86595e-11
-1.86595e-11
4.39047e-12
2.63428e-11
1.20738e-11
-6.58571e-12
-4.39047e-12
0
-1.09762e-12
0
-1.09762e-12
0
0
-1.09762e-12
-4.39047e-12
1.09762e-12
0
0
-5.48809e-12
-6.58571e-12
0
0
1.09762e-12
1.09762e-12
1.09762e-12
0
-5.48809e-12
-1.09762e-12
-1.09762e-11
-4.39047e-12
-4.39047e-12
0
0
2.19524e-12
-1.09762e-12
2.19524e-12
-1.09762e-12
-1.09762e-12
9.87856e-12
0
0
-2.19524e-12
3.29285e-12
8.78094e-12
0
-1.86595e-11
8.78094e-12
1.09762e-11
0
1.09762e-12
-4.39047e-12
0
-1.20738e-11
0
0
-3.29285e-12
2.19524e-12
3.51238e-10
6.27837e-10
7.90285e-10
8.80289e-10
7.43087e-10
5.35637e-10
3.09528e-10
1.54764e-10
6.80523e-11
2.08547e-11
7.68332e-12
1.64643e-11
-1.09762e-12
-6.5857e-12
-1.09762e-12
-2.08547e-11
-2.41476e-11
-2.96357e-11
-2.96357e-11
-1.09762e-12
7.68332e-12
9.87856e-12
-8.78094e-12
1.4269e-11
-8.78094e-12
-1.09762e-12
0
0
-3.29285e-12
0
-1.09762e-12
1.09762e-12
2.19524e-12
1.09762e-12
1.09762e-12
0
1.09762e-12
9.87856e-12
1.09762e-12
-1.09762e-12
1.09762e-12
-7.68332e-12
2.19524e-12
-2.19523e-12
0
9.87856e-12
-1.09762e-12
0
0
7.68332e-12
0
1.09762e-12
0
1.09762e-12
-1.09762e-12
-2.19523e-12
-1.86595e-11
-7.68332e-12
-1.09762e-12
0
-1.09762e-12
1.09762e-11
1.09762e-12
-2.19524e-12
-1.09762e-12
-4.39047e-12
9.87856e-12
-1.09762e-12
2.19524e-12
-2.19524e-12
3.29285e-12
0
-2.19524e-12
3.29285e-12
-8.78094e-12
3.51238e-11
2.63428e-11
-1.09762e-11
-2.19523e-12
-4.39047e-11
-2.74404e-11
2.19523e-12
1.64643e-11
-4.39047e-12
1.97571e-11
-2.19523e-12
1.53666e-11
-9.87856e-12
-1.86595e-11
1.97571e-11
5.48809e-12
-1.09762e-12
-1.75619e-11
-1.4269e-11
9.87856e-12
-1.31714e-11
-1.20738e-11
1.09762e-12
2.41476e-11
1.97571e-11
0
2.19523e-12
0
0
1.09762e-12
1.09762e-12
0
6.5857e-12
0
7.68332e-12
0
5.48809e-12
5.48809e-12
0
0
-1.09762e-12
-6.5857e-12
1.09762e-12
0
4.39047e-12
0
2.19523e-12
0
-1.09762e-12
2.19523e-12
1.09762e-12
-2.19523e-12
7.68332e-12
-3.29285e-12
-2.19523e-12
5.48809e-12
-7.68332e-12
1.20738e-11
1.09762e-12
0
1.09762e-12
-2.19523e-12
-1.09762e-12
1.31714e-11
0
1.31714e-11
0
-2.19523e-12
0
1.09762e-12
4.39047e-12
-2.19523e-12
0
2.19523e-12
-1.09762e-12
-2.89771e-10
-4.6539e-10
-5.07099e-10
-4.39047e-10
-3.36969e-10
-2.10743e-10
-9.43951e-11
-4.50023e-11
-1.64643e-11
-1.64643e-11
3.29285e-12
-3.29285e-12
1.75619e-11
4.39047e-12
1.20738e-11
5.48809e-12
2.19523e-12
1.09762e-12
7.68332e-12
1.4269e-11
-3.29285e-12
0
1.4269e-11
6.58571e-12
1.09762e-12
1.09762e-12
-5.48809e-12
0
3.29285e-12
-2.19524e-12
1.09762e-12
0
-3.29285e-12
2.19524e-12
2.19523e-12
-2.19524e-12
0
1.09762e-12
-1.09762e-12
2.19524e-12
1.09762e-12
3.29285e-12
-3.29285e-12
2.19523e-12
2.19524e-12
-1.09762e-12
-1.09762e-12
-5.48809e-12
-2.19524e-12
2.19523e-12
-7.68332e-12
-7.68332e-12
-1.09762e-12
0
-1.31714e-11
6.5857e-12
1.09762e-12
1.09762e-11
0
-1.09762e-12
1.09762e-12
0
-1.09762e-12
4.39047e-12
3.29285e-12
4.39047e-12
-9.87856e-12
0
-1.09762e-12
1.09762e-12
1.09762e-12
1.09762e-12
0
1.09762e-12
1.31714e-11
1.62447e-10
4.17095e-10
5.6198e-10
5.22466e-10
4.09411e-10
2.39281e-10
1.20738e-10
5.1588e-11
1.31714e-11
-1.09762e-12
1.09762e-11
-5.48809e-12
2.08547e-11
3.29285e-12
-1.86595e-11
5.48809e-12
-1.53666e-11
1.20738e-11
9.87856e-12
-1.86595e-11
-1.09762e-12
2.19524e-12
-1.53666e-11
-1.20738e-11
-1.09762e-12
0
-1.09762e-12
0
0
-1.09762e-12
-2.19524e-12
0
-1.09762e-12
-1.09762e-12
-7.68332e-12
-1.09762e-12
1.09762e-11
1.09762e-12
1.09762e-12
0
0
0
-1.09762e-12
0
0
1.53666e-11
-1.09762e-12
1.09762e-12
0
-1.09762e-12
-1.09762e-12
-3.29285e-12
-7.68332e-12
1.09762e-12
1.09762e-12
-4.39047e-12
0
-3.29285e-12
-2.19523e-12
2.19524e-12
-1.09762e-12
2.19523e-12
0
6.58571e-12
-2.19523e-12
-1.31714e-11
2.19524e-12
1.09762e-12
0
-1.09762e-12
7.68332e-12
3.29285e-12
0
3.29285e-12
-4.39047e-12
3.95142e-11
1.31714e-11
-6.5857e-12
-9.43951e-11
-7.02475e-11
-7.4638e-11
-5.1588e-11
-2.41476e-11
-6.5857e-12
1.09762e-11
-1.09762e-12
1.09762e-12
1.09762e-12
-2.19523e-12
-1.64643e-11
6.5857e-12
8.78094e-12
3.40261e-11
2.63428e-11
-7.68332e-12
4.39047e-12
2.19523e-12
-1.09762e-11
-5.48809e-12
9.87856e-12
-1.09762e-12
5.48809e-12
1.09762e-12
1.09762e-12
3.29285e-12
5.48809e-12
1.09762e-12
0
-2.19523e-12
2.19523e-12
2.19523e-12
4.39047e-12
-7.68332e-12
0
-2.19523e-12
1.09762e-12
-1.09762e-12
0
1.09762e-12
-1.09762e-12
2.19523e-12
1.09762e-12
9.87856e-12
1.09762e-12
-2.19523e-12
7.68332e-12
6.5857e-12
2.19523e-12
-2.19523e-12
1.4269e-11
-6.5857e-12
-1.09762e-12
-3.29285e-12
1.09762e-12
2.19523e-12
-1.09762e-12
-2.19523e-12
2.19523e-12
-1.20738e-11
-3.29285e-12
-1.09762e-12
0
1.09762e-12
1.09762e-12
0
-7.68332e-12
0
-4.39047e-12
-1.4269e-11
-1.09762e-12
-2.94161e-10
-4.87342e-10
-5.37833e-10
-4.91733e-10
-3.55628e-10
-2.16231e-10
-1.17445e-10
-5.37833e-11
-4.39047e-12
-6.58571e-12
-4.39047e-12
-3.29285e-12
1.09762e-11
2.41476e-11
8.78094e-12
-5.48809e-12
2.63428e-11
1.75619e-11
8.78094e-12
1.4269e-11
0
-1.97571e-11
7.68332e-12
3.29285e-12
-1.20738e-11
0
1.09762e-12
-1.09762e-12
0
0
1.09762e-12
0
1.09762e-12
7.68332e-12
0
1.09762e-12
-1.20738e-11
-1.31714e-11
-2.19524e-12
0
0
6.58571e-12
1.09762e-12
0
-4.39047e-12
-1.64643e-11
1.09762e-12
1.09762e-12
1.09762e-11
0
-1.09762e-12
3.29285e-12
-6.5857e-12
0
-2.19524e-12
0
0
-7.68332e-12
4.39047e-12
-3.29285e-12
0
-1.09762e-12
-5.48809e-12
-2.08547e-11
2.19523e-12
0
-2.19524e-12
-3.29285e-12
1.09762e-12
-1.09762e-12
1.09762e-12
-2.19524e-12
0
0
1.31714e-11
1.09762e-10
3.81971e-10
5.35637e-10
5.18075e-10
4.05021e-10
2.82088e-10
1.45983e-10
8.56142e-11
1.4269e-11
-1.4269e-11
-1.20738e-11
2.19524e-12
4.39047e-12
1.4269e-11
-7.68332e-12
8.78094e-12
1.09762e-11
5.48809e-12
-1.4269e-11
5.48809e-12
-2.19524e-12
-4.39047e-12
2.19523e-12
-9.87856e-12
-7.68332e-12
-1.09762e-12
0
-1.09762e-12
-1.09762e-12
1.20738e-11
-5.48809e-12
-1.09762e-12
-1.09762e-12
0
-4.39047e-12
2.19524e-12
-5.48809e-12
6.58571e-12
-8.78094e-12
2.19524e-12
-1.09762e-12
-1.09762e-12
-1.09762e-12
0
0
1.09762e-12
6.5857e-12
-2.19524e-12
8.78094e-12
-2.19523e-12
-1.09762e-12
1.09762e-12
0
3.29285e-12
0
-1.09762e-12
0
0
-1.09762e-12
0
0
3.29285e-12
-1.09762e-12
7.68332e-12
0
-1.09762e-12
0
0
6.58571e-12
4.39047e-12
6.5857e-12
-1.97571e-11
2.19524e-12
1.09762e-11
0
1.62447e-10
5.70761e-11
-6.5857e-12
-5.26856e-11
-6.25642e-11
-3.18309e-11
-2.52452e-11
-4.39047e-12
-1.09762e-11
-1.64643e-11
-6.5857e-12
0
-1.97571e-11
-2.52452e-11
-2.74404e-11
-4.39047e-12
3.29285e-12
-3.29285e-12
-1.4269e-11
1.20738e-11
1.31714e-11
5.48809e-12
-1.09762e-12
1.20738e-11
-1.09762e-12
-3.29285e-12
1.09762e-12
0
2.19523e-12
-1.09762e-12
-1.09762e-12
0
0
-6.5857e-12
1.09762e-12
1.09762e-12
-5.48809e-12
1.20738e-11
-1.09762e-12
1.09762e-12
1.09762e-12
-6.5857e-12
-1.09762e-12
1.09762e-12
0
0
1.75619e-11
0
-1.09762e-11
0
2.19523e-12
0
2.08547e-11
0
0
0
8.78094e-12
0
-1.09762e-12
-2.19523e-12
-1.09762e-12
1.09762e-12
4.39047e-12
1.86595e-11
1.09762e-12
0
-1.09762e-12
1.31714e-11
0
1.09762e-12
-7.68332e-12
0
0
0
-7.68332e-12
-1.09762e-10
-4.03923e-10
-4.63195e-10
-4.08314e-10
-3.34773e-10
-1.93181e-10
-1.08664e-10
-7.4638e-11
-2.96357e-11
-3.29285e-12
1.4269e-11
5.48809e-12
2.19524e-12
-1.09762e-11
1.09762e-12
-1.53666e-11
-6.5857e-12
-2.41476e-11
1.4269e-11
4.39047e-12
8.78094e-12
-8.78094e-12
-6.5857e-12
2.19524e-12
0
0
-2.19524e-12
-3.29285e-12
0
-1.53666e-11
1.09762e-12
0
1.09762e-12
0
2.19523e-12
0
1.09762e-12
0
8.78094e-12
0
-1.09762e-12
0
1.09762e-12
-2.19523e-12
0
-1.09762e-12
2.19523e-12
0
-7.68332e-12
2.19523e-12
-2.19524e-12
-1.31714e-11
-1.09762e-12
-2.19524e-12
1.09762e-12
3.29285e-12
7.68332e-12
-1.20738e-11
-1.09762e-12
2.19524e-12
-1.09762e-12
-5.48809e-12
-3.29285e-12
0
0
2.19524e-12
1.09762e-12
0
-8.78094e-12
4.39047e-12
1.09762e-12
2.41476e-11
2.19524e-12
4.39047e-12
0
2.06352e-10
4.39047e-10
5.68566e-10
5.44418e-10
3.99533e-10
2.41476e-10
1.32812e-10
5.04904e-11
4.39047e-12
4.39047e-12
1.64643e-11
6.58571e-12
3.29285e-12
0
1.4269e-11
-1.31714e-11
-3.18309e-11
-2.85381e-11
2.19524e-12
-1.53666e-11
-4.39047e-12
6.58571e-12
-9.87856e-12
-2.85381e-11
-3.29285e-12
-3.29285e-12
-1.09762e-12
0
-2.19523e-12
0
0
-9.87856e-12
1.09762e-12
0
-7.68332e-12
-2.19524e-12
5.48809e-12
0
3.29285e-12
-2.19524e-12
-6.5857e-12
0
2.19524e-12
-2.19523e-12
0
0
-1.86595e-11
0
-1.09762e-12
-1.09762e-12
-4.39047e-12
-5.48809e-12
-1.4269e-11
2.19524e-12
2.19524e-12
0
-8.78094e-12
-1.64643e-11
-8.78094e-12
-1.20738e-11
-3.29285e-12
-1.09762e-12
1.09762e-12
-2.19524e-12
-1.09762e-12
-1.09762e-11
1.09762e-12
-6.5857e-12
-1.09762e-12
-1.09762e-12
-2.19523e-12
0
-9.87856e-12
0
5.48809e-12
6.14666e-11
7.90285e-11
-6.36618e-11
-7.4638e-11
-6.25642e-11
-7.68332e-11
-3.7319e-11
2.19523e-12
1.09762e-12
6.5857e-12
-5.48809e-12
-1.75619e-11
-1.31714e-11
-6.5857e-12
4.39047e-12
-1.09762e-11
-5.48809e-12
7.68332e-12
-1.20738e-11
0
5.48809e-12
1.53666e-11
6.5857e-12
3.29285e-12
0
-4.39047e-12
3.29285e-12
3.29285e-12
2.19523e-12
3.29285e-12
-2.41476e-11
-3.95142e-11
-2.63428e-11
0
-2.19523e-12
-1.09762e-12
0
-1.20738e-11
-1.09762e-12
-1.09762e-12
0
3.29285e-12
5.48809e-12
4.39047e-12
-2.19523e-12
0
-9.87856e-12
-1.09762e-12
1.09762e-12
-4.39047e-12
1.09762e-12
1.31714e-11
1.09762e-12
0
-3.29285e-12
6.5857e-12
-7.68332e-12
7.68332e-12
-8.78094e-12
-2.19523e-12
-1.31714e-11
5.48809e-12
4.39047e-12
-7.68332e-12
1.09762e-12
-1.09762e-12
-1.09762e-12
1.09762e-12
2.19523e-12
-8.78094e-12
-1.31714e-11
-4.39047e-12
-6.5857e-12
-7.68332e-12
-1.09762e-12
-2.19524e-10
-4.08314e-10
-5.37833e-10
-4.6539e-10
-3.20504e-10
-2.09645e-10
-1.04274e-10
-3.51238e-11
-4.39047e-12
-1.09762e-12
-1.20738e-11
-1.20738e-11
-1.09762e-12
1.86595e-11
1.4269e-11
8.78094e-12
5.48809e-12
-6.58571e-12
-1.20738e-11
1.09762e-11
4.39047e-12
-6.58571e-12
6.5857e-12
1.64643e-11
4.39047e-12
7.68332e-12
-1.09762e-12
-1.09762e-12
-1.09762e-12
-8.78094e-12
-9.87856e-12
-1.31714e-11
-1.75619e-11
0
1.09762e-12
0
-1.09762e-12
-9.87856e-12
-8.78094e-12
0
1.09762e-12
0
-2.19524e-12
-4.39047e-12
5.48809e-12
-8.78094e-12
0
-1.31714e-11
-1.09762e-12
1.09762e-12
0
1.09762e-12
-1.09762e-12
-1.31714e-11
-1.09762e-12
4.39047e-12
0
4.39047e-12
1.86595e-11
1.31714e-11
4.39047e-12
2.19523e-12
0
2.19524e-12
0
1.09762e-11
-2.19524e-12
0
0
5.48809e-12
8.78094e-12
0
9.87856e-12
2.19523e-12
-6.58571e-12
1.97571e-10
3.7758e-10
5.51004e-10
5.13685e-10
3.99533e-10
2.54647e-10
1.50374e-10
6.91499e-11
2.85381e-11
7.68332e-12
3.29285e-12
9.87856e-12
1.09762e-12
1.4269e-11
9.87856e-12
0
-7.68332e-12
-1.64643e-11
-2.19524e-12
-2.305e-11
-6.58571e-12
9.87856e-12
-6.5857e-12
-8.78094e-12
-4.39047e-12
3.29285e-12
2.19524e-12
1.09762e-12
0
-2.19524e-12
2.19524e-11
3.7319e-11
2.63428e-11
-1.09762e-12
0
-1.09762e-12
1.09762e-12
1.20738e-11
8.78094e-12
-4.39047e-12
0
-3.29285e-12
3.29285e-12
-1.64643e-11
1.09762e-12
2.19524e-12
0
0
-2.19524e-12
-4.39047e-12
1.09762e-12
3.29285e-12
0
-2.19524e-12
2.19524e-12
-2.305e-11
-1.09762e-12
0
7.68332e-12
1.09762e-12
1.4269e-11
-2.19523e-12
-1.09762e-12
-1.09762e-12
-4.39047e-12
1.09762e-12
-1.09762e-12
1.20738e-11
0
0
2.08547e-11
9.87856e-12
6.58571e-12
4.39047e-12
0
6.5857e-11
2.63428e-11
2.19523e-12
-6.14666e-11
-6.69547e-11
-4.71976e-11
-3.07333e-11
-1.75619e-11
-8.78094e-12
-9.87856e-12
-9.87856e-12
7.68332e-12
-9.87856e-12
-1.75619e-11
-1.31714e-11
5.48809e-12
1.09762e-11
2.96357e-11
1.97571e-11
1.09762e-12
8.78094e-12
1.53666e-11
1.09762e-12
4.39047e-12
4.39047e-12
3.29285e-12
2.19523e-12
9.87856e-12
9.87856e-12
1.53666e-11
1.09762e-11
2.52452e-11
1.53666e-11
0
1.4269e-11
1.09762e-12
2.19523e-12
7.68332e-12
8.78094e-12
-1.09762e-12
1.4269e-11
-5.48809e-12
5.48809e-12
9.87856e-12
0
8.78094e-12
9.87856e-12
2.305e-11
2.19523e-12
-6.5857e-12
4.39047e-12
6.5857e-12
1.53666e-11
2.08547e-11
1.09762e-12
5.48809e-12
4.39047e-12
1.4269e-11
-1.09762e-11
0
0
-2.19523e-12
-1.09762e-12
0
-3.29285e-12
0
4.39047e-12
-4.39047e-12
-2.19523e-12
-1.31714e-11
-5.48809e-12
6.5857e-12
-1.09762e-12
-5.48809e-12
2.19523e-12
-2.67819e-10
-4.56609e-10
-5.6198e-10
-5.04904e-10
-3.56726e-10
-2.08547e-10
-9.87856e-11
-4.17095e-11
-1.31714e-11
-7.68332e-12
3.29285e-12
1.09762e-11
1.31714e-11
2.19523e-12
8.78094e-12
9.87856e-12
1.75619e-11
2.96357e-11
0
1.20738e-11
6.58571e-12
-1.20738e-11
7.68332e-12
1.75619e-11
2.19524e-12
0
5.48809e-12
0
2.19523e-12
1.09762e-12
1.09762e-12
0
1.09762e-12
6.58571e-12
0
-5.48809e-12
-2.19524e-12
-1.09762e-12
-9.87856e-12
4.39047e-12
0
0
-2.19524e-12
1.86595e-11
1.09762e-12
-1.09762e-12
2.19523e-12
-1.09762e-12
1.09762e-12
8.78094e-12
1.09762e-12
4.39047e-12
1.4269e-11
1.09762e-12
-2.19524e-12
1.4269e-11
1.31714e-11
2.19524e-12
2.19523e-12
0
0
-2.19523e-12
2.19524e-12
8.78094e-12
3.29285e-12
-1.09762e-12
0
-1.20738e-11
1.09762e-12
0
-1.64643e-11
-9.87856e-12
1.09762e-12
-7.68332e-12
0
1.18543e-10
3.81971e-10
5.00514e-10
4.89537e-10
3.91849e-10
2.60135e-10
1.59155e-10
7.02475e-11
4.06118e-11
1.09762e-11
1.31714e-11
-3.29285e-12
-3.29285e-12
3.29285e-12
1.09762e-11
9.87856e-12
1.09762e-11
0
-5.48809e-12
-2.08547e-11
-4.39047e-12
-9.87856e-12
-3.29285e-12
5.48809e-12
-2.19524e-12
-1.09762e-12
-3.29285e-12
-1.09762e-11
-1.97571e-11
-5.48809e-12
0
0
-6.58571e-12
0
-9.87856e-12
0
-1.09762e-12
2.19524e-12
0
1.31714e-11
-9.87856e-12
1.09762e-11
-1.4269e-11
-4.39047e-12
1.09762e-12
0
-1.09762e-11
-7.68332e-12
0
5.48809e-12
0
-2.19524e-12
-1.4269e-11
-8.78094e-12
0
-2.08547e-11
-4.39047e-12
-4.39047e-12
1.09762e-12
0
0
-2.19523e-12
4.39047e-12
0
5.48809e-12
0
-1.09762e-12
0
6.58571e-12
1.53666e-11
5.48809e-12
-5.48809e-12
-8.78094e-12
1.09762e-12
-4.39047e-12
5.70761e-11
1.09762e-10
1.31714e-11
-3.51238e-11
-4.17095e-11
-2.96357e-11
-2.96357e-11
-1.31714e-11
-1.09762e-12
-1.86595e-11
-1.20738e-11
-1.4269e-11
-1.09762e-11
1.09762e-12
-2.19523e-12
9.87856e-12
2.19523e-12
-1.20738e-11
7.68332e-12
-1.09762e-11
-1.97571e-11
-5.48809e-12
7.68332e-12
-1.53666e-11
0
1.09762e-12
-6.5857e-12
-1.09762e-12
-2.19523e-12
1.09762e-12
1.09762e-12
-1.09762e-12
-3.29285e-12
-5.48809e-12
-1.09762e-12
5.48809e-12
1.09762e-12
2.19523e-12
1.09762e-12
0
-1.09762e-12
0
-5.48809e-12
-5.48809e-12
0
0
-2.19523e-12
4.39047e-12
-1.09762e-12
2.19523e-12
-1.09762e-12
-4.39047e-12
-1.09762e-11
-3.29285e-12
2.19523e-12
0
-1.4269e-11
-1.09762e-12
-1.09762e-12
0
-1.09762e-12
4.39047e-12
0
-1.09762e-12
0
-4.39047e-12
-1.09762e-12
-1.09762e-12
0
6.5857e-12
8.78094e-12
-2.19523e-12
-4.39047e-12
8.78094e-12
0
-1.80009e-10
-4.47828e-10
-5.22466e-10
-4.28071e-10
-3.30383e-10
-1.96474e-10
-1.03176e-10
-4.28071e-11
-1.97571e-11
-4.39047e-12
7.68332e-12
1.09762e-11
2.19524e-12