/*--------------------------------*- C++ -*----------------------------------*\
  =========                 |
  \\      /  F ield         | OpenFOAM: The Open Source CFD Toolbox
   \\    /   O peration     | Website:  https://openfoam.org
    \\  /    A nd           | Version:  10
     \\/     M anipulation  |
\*---------------------------------------------------------------------------*/
FoamFile
{
    format      ascii;
    class       volScalarField;
    location    "275";
    object      gradTx;
}
// * * * * * * * * * * * * * * * * * * * * * * * * * * * * * * * * * * * * * //

dimensions      [0 -1 0 1 0 0 0];

internalField   nonuniform List<scalar> 
11250
(
14295
8089.49
5286.46
3794.99
2888.91
2281.26
1843.74
1512.35
1252.1
1042.38
870.28
727.255
607.392
506.424
421.146
349.073
288.211
236.924
193.84
157.785
127.748
102.851
82.3268
65.5047
51.801
40.7081
31.7871
24.6607
19.0067
14.5519
11.0667
8.35938
6.27144
4.6728
3.4577
2.54086
1.85416
1.34362
0.966837
0.690833
0.490149
0.345312
0.241557
0.167781
0.115713
0.0792375
0.0538748
0.03637
0.0243782
0.0162239
0.0107201
0.00703287
0.00458088
0.0029624
0.001902
0.0012124
0.000767249
0.000482034
0.000300649
0.000186153
0.00011442
6.9813e-05
4.22828e-05
2.54196e-05
1.51682e-05
8.98346e-06
5.28047e-06
3.08024e-06
1.78278e-06
1.02327e-06
5.81527e-07
3.25532e-07
1.76275e-07
8.62782e-08
2.5771e-08
4090.87
4688.43
3977.19
3212.74
2594.36
2115.7
1742.76
1446.81
1207.51
1010.95
847.501
710.398
594.717
496.777
413.737
343.345
283.763
233.461
191.139
155.678
126.107
101.574
81.3355
64.7375
51.2093
40.2535
31.4394
24.396
18.8061
14.4008
10.9534
8.27493
6.20885
4.62669
3.42393
2.51629
1.83639
1.33085
0.957719
0.684366
0.485592
0.342122
0.239338
0.166249
0.114662
0.0785213
0.0533901
0.0360443
0.0241607
0.0160797
0.0106253
0.00697087
0.00454065
0.00293647
0.00188541
0.00120185
0.000760598
0.000477869
0.000298059
0.000184555
0.00011344
6.92174e-05
4.19233e-05
2.52042e-05
1.50401e-05
8.90784e-06
5.23616e-06
3.0545e-06
1.76795e-06
1.0148e-06
5.76734e-07
3.22865e-07
1.74884e-07
8.55856e-08
2.55833e-08
1471.41
2597.57
2723.4
2487.51
2163.93
1848.95
1569.88
1330.17
1126.1
952.517
804.625
678.376
570.471
478.223
399.427
332.245
275.121
226.716
185.87
151.563
122.896
99.0733
79.3924
63.2325
50.0478
39.3607
30.7561
23.8755
18.4116
14.1033
10.7304
8.10864
6.08558
4.53585
3.35739
2.46786
1.80136
1.30566
0.939736
0.671608
0.4766
0.335826
0.23496
0.163225
0.112587
0.0771072
0.0524331
0.035401
0.0237313
0.0157951
0.0104379
0.00684838
0.00446113
0.00288522
0.00185261
0.00118101
0.00074745
0.000469634
0.000292938
0.000181394
0.000111503
6.80391e-05
4.12118e-05
2.47778e-05
1.47865e-05
8.75813e-06
5.14847e-06
3.00351e-06
1.73854e-06
9.98e-07
5.67254e-07
3.17579e-07
1.72014e-07
8.41763e-08
2.51684e-08
669.051
1508.39
1833.55
1853.03
1728.71
1550.76
1362.66
1183.35
1019.99
874.432
746.251
634.166
536.635
452.115
379.159
316.441
262.762
217.038
178.288
145.626
118.254
95.4513
76.5743
61.047
48.3592
38.0615
29.761
23.1169
17.8363
13.6693
10.4047
7.86571
5.90542
4.40303
3.26008
2.397
1.75009
1.2688
0.913406
0.652923
0.463428
0.326603
0.228544
0.158792
0.109545
0.0750339
0.0510297
0.0344576
0.0231015
0.0153775
0.0101629
0.00666864
0.00434445
0.00281001
0.00180447
0.00115042
0.000728147
0.000457542
0.000285418
0.000176751
0.000108658
6.63081e-05
4.01666e-05
2.41513e-05
1.44138e-05
8.53811e-06
5.01956e-06
2.92856e-06
1.69531e-06
9.73272e-07
5.53241e-07
3.0977e-07
1.67791e-07
8.21259e-08
2.45318e-08
365.901
934.735
1251.56
1365.31
1350.84
1267.05
1151.54
1025.92
901.759
784.852
677.78
581.41
495.713
420.201
354.17
296.821
247.334
204.899
168.74
138.126
112.373
90.8524
72.9887
58.2614
46.2038
36.4009
28.4875
22.1452
17.0987
13.1124
9.98659
7.55358
5.67379
4.23219
3.13484
2.30577
1.68405
1.22131
0.87947
0.628833
0.446441
0.314704
0.220265
0.153071
0.105618
0.072357
0.0492173
0.033239
0.0222878
0.014838
0.00980769
0.00643635
0.00419363
0.00271277
0.00174223
0.00111086
0.000703182
0.000441901
0.00027569
0.000170744
0.000104976
6.40679e-05
3.88136e-05
2.33403e-05
1.39313e-05
8.25319e-06
4.85262e-06
2.8315e-06
1.63933e-06
9.41241e-07
5.35098e-07
2.99632e-07
1.62315e-07
7.94653e-08
2.37524e-08
226.154
614.369
874.761
1008.7
1045.88
1019.28
955.269
872.179
781.76
691.136
604.412
523.798
450.34
384.381
325.842
274.397
229.581
190.852
157.64
129.372
105.486
85.4508
68.7668
54.9744
43.6555
34.4344
26.9773
20.9913
16.2218
12.4496
9.48855
7.18151
5.39749
4.02826
2.98526
2.19674
1.60509
1.16449
0.838858
0.599994
0.426097
0.300449
0.210344
0.146213
0.10091
0.0691465
0.0470432
0.0317769
0.0213113
0.0141904
0.00938116
0.0061574
0.00401248
0.00259597
0.00166744
0.00106332
0.000673179
0.0004231
0.000263994
0.000163522
0.000100548
6.13732e-05
3.71859e-05
2.23644e-05
1.33506e-05
7.91027e-06
4.65164e-06
2.71463e-06
1.57191e-06
9.02691e-07
5.13292e-07
2.87457e-07
1.55733e-07
7.62471e-08
2.28008e-08
150.916
423.06
626.445
751.592
808.164
812.959
782.628
730.733
667.235
598.993
530.511
464.614
402.975
346.491
295.55
250.202
210.281
175.484
145.432
119.699
97.8467
79.4388
64.0542
51.2961
40.7976
32.2246
25.2774
19.6906
15.2319
11.7006
8.92507
6.76014
5.0843
3.79691
2.81545
2.07289
1.51534
1.09988
0.792647
0.567163
0.402928
0.284209
0.199037
0.138394
0.0955397
0.0654839
0.0445623
0.030108
0.0201964
0.0134508
0.00889395
0.0058387
0.00380548
0.00246246
0.00158195
0.00100896
0.000638864
0.000401595
0.000250613
0.000155256
9.54799e-05
5.82884e-05
3.53221e-05
2.12467e-05
1.26854e-05
7.51735e-06
4.42131e-06
2.58065e-06
1.4946e-06
8.5847e-07
4.88251e-07
2.73492e-07
1.482e-07
7.25536e-08
2.16812e-08
105.761
301.689
458.297
565.699
625.504
645.613
635.886
605.615
562.47
512.303
459.338
406.493
355.699
308.158
264.554
225.207
190.181
159.37
132.554
109.445
89.7138
73.0146
59.0021
47.3417
37.7175
29.8378
23.4378
18.2804
14.1571
10.8862
8.31168
6.30093
4.74264
3.54431
2.62988
1.93744
1.41712
1.02913
0.742015
0.531172
0.377516
0.266387
0.186624
0.129807
0.0896402
0.0614586
0.0418348
0.0282726
0.01897
0.0126369
0.00835771
0.00548784
0.00357753
0.00231541
0.00148776
0.000949062
0.000601043
0.000377886
0.000235858
0.00014614
8.98889e-05
5.48845e-05
3.3265e-05
2.00128e-05
1.19508e-05
7.0833e-06
4.16684e-06
2.43259e-06
1.40912e-06
8.09519e-07
4.60478e-07
2.58013e-07
1.39864e-07
6.84771e-08
2.04607e-08
76.5718
220.749
341.18
429.896
485.639
511.743
513.783
497.834
469.47
433.336
393.062
351.35
310.127
270.704
233.92
200.261
169.953
143.036
119.422
98.9327
81.3368
66.371
53.7591
43.2251
34.5024
27.3404
21.5087
16.799
13.0261
10.0279
7.66429
5.81567
4.3812
3.27681
2.43318
1.79375
1.31284
0.953954
0.688184
0.492884
0.350468
0.247408
0.173398
0.120654
0.0833489
0.0571644
0.0389239
0.0263132
0.0176603
0.0117676
0.00778469
0.00511281
0.00333381
0.00215815
0.001387
0.000884968
0.000560564
0.000352504
0.000220058
0.000136376
8.38989e-05
5.12367e-05
3.10601e-05
1.86899e-05
1.11629e-05
6.61765e-06
3.89371e-06
2.27362e-06
1.31731e-06
7.56928e-07
4.30664e-07
2.41372e-07
1.30868e-07
6.41118e-08
1.91809e-08
56.6999
164.598
257.486
329.402
378.321
405.348
413.51
406.653
388.684
363.126
332.928
300.43
267.402
235.127
204.491
176.061
150.164
126.94
106.398
88.4497
72.9431
59.686
48.4638
39.0538
31.2351
24.796
19.5389
15.2831
11.8666
9.14652
6.99851
5.31594
4.00852
3.00069
2.22994
1.64514
1.2049
0.876077
0.632378
0.453164
0.32239
0.227696
0.159655
0.111137
0.0768048
0.0526956
0.0358935
0.0242725
0.0162957
0.0108615
0.00718728
0.00472169
0.00307955
0.00199404
0.00128183
0.000818047
0.000518286
0.000325988
0.000203547
0.00012617
7.76359e-05
4.74217e-05
2.87533e-05
1.73054e-05
1.03382e-05
6.13007e-06
3.6076e-06
2.10705e-06
1.22108e-06
7.01821e-07
3.99424e-07
2.23885e-07
1.21391e-07
5.94964e-08
1.78066e-08
42.6556
124.427
196.352
254.076
295.595
320.991
331.823
330.476
319.619
301.847
279.47
254.421
228.242
202.11
176.879
153.139
131.263
111.455
93.7879
78.2425
64.7298
53.1161
43.2397
34.9245
27.9909
22.2627
17.5728
13.7668
10.7046
8.26164
6.32902
4.8127
3.63273
2.72192
2.02452
1.49479
1.09559
0.797148
0.575773
0.412847
0.293871
0.207662
0.145677
0.101453
0.0701427
0.048144
0.0328056
0.0221923
0.0149041
0.0099371
0.00657757
0.00432238
0.00281989
0.00182638
0.00117435
0.000749636
0.000475056
0.000298865
0.000186654
0.000115724
7.1224e-05
4.35147e-05
2.63901e-05
1.58867e-05
9.49286e-06
5.63009e-06
3.31411e-06
1.9361e-06
1.12231e-06
6.45219e-07
3.67277e-07
2.05915e-07
1.11683e-07
5.47151e-08
1.63633e-08
32.4517
94.9946
150.886
196.959
231.485
254.121
265.609
267.396
261.28
249.132
232.716
213.582
193.021
172.062
151.489
131.867
113.58
96.8623
81.8298
68.5088
56.8586
46.7921
38.1912
30.9201
24.8349
19.7913
15.65
12.2805
9.56317
7.39086
5.66908
4.31589
3.26122
2.44597
1.82094
1.34562
0.987041
0.718692
0.519459
0.372706
0.265455
0.187686
0.131733
0.091787
0.0634887
0.0435956
0.0297183
0.0201115
0.0135115
0.00901171
0.00596697
0.00392234
0.00255965
0.0016583
0.00106656
0.000681006
0.000431672
0.000271638
0.00016969
0.000105231
6.47809e-05
3.95874e-05
2.4014e-05
1.44596e-05
8.64216e-06
5.12679e-06
3.01861e-06
1.76391e-06
1.02276e-06
5.88136e-07
3.34852e-07
1.8779e-07
1.01876e-07
4.99065e-08
1.49353e-08
24.883
73.0317
116.58
153.22
181.545
201.074
212.106
215.502
212.459
204.308
192.372
177.865
161.841
145.171
128.543
112.474
97.3332
83.3618
70.6977
59.3972
49.454
40.8167
33.4022
27.108
21.8209
17.4243
13.8037
10.8499
8.46225
6.54934
5.0302
3.83415
2.90044
2.17765
1.62274
1.20023
0.881124
0.642068
0.464411
0.333434
0.237634
0.168115
0.118062
0.0823038
0.0569569
0.0391284
0.0266846
0.0180658
0.0121418
0.0081011
0.00536586
0.00352836
0.00230326
0.00149263
0.000960286
0.000613316
0.000388868
0.000244765
0.000152941
9.48677e-05
5.84153e-05
3.5706e-05
2.16647e-05
1.30482e-05
7.80049e-06
4.62866e-06
2.72603e-06
1.59333e-06
9.24098e-07
5.31534e-07
3.02712e-07
1.698e-07
9.21373e-08
4.51867e-08
1.35413e-08
19.1809
56.4112
90.4002
119.457
142.472
158.954
168.972
173.027
171.908
166.555
157.947
147.02
134.616
121.453
108.119
95.0703
82.6442
71.0741
60.5047
51.0091
42.6043
35.2649
28.9352
23.5396
18.9905
15.1951
12.0602
9.49584
7.4179
5.74947
4.42184
3.37466
2.55582
1.92097
1.43291
1.0608
0.779446
0.568436
0.411463
0.295628
0.210829
0.149244
0.10487
0.0731476
0.0506465
0.03481
0.0237504
0.0160862
0.0108157
0.00721906
0.00478336
0.00314641
0.0020546
0.0013319
0.000857135
0.000547592
0.000347291
0.000218654
0.000136661
8.47909e-05
5.22235e-05
3.19292e-05
1.93779e-05
1.16738e-05
6.9806e-06
4.14319e-06
2.44072e-06
1.42695e-06
8.27806e-07
4.76264e-07
2.71329e-07
1.52278e-07
8.26682e-08
4.05504e-08
1.21386e-08
14.8349
43.7
70.2477
93.2332
111.793
125.484
134.262
138.408
138.44
135.017
128.857
120.673
111.127
100.801
90.1848
79.6695
69.5546
60.0545
51.3108
43.4038
36.3644
30.1856
24.8324
20.2506
16.3734
13.1278
10.4391
8.23379
6.44239
5.00083
3.85139
2.94308
2.23162
1.67916
1.25382
0.929121
0.683302
0.498738
0.361296
0.259774
0.185388
0.131319
0.0923306
0.0644379
0.0446398
0.030697
0.0209541
0.0141986
0.00955059
0.0063772
0.00422714
0.00278153
0.00181696
0.00117823
0.000758473
0.000484703
0.000307494
0.000193651
0.000121066
7.51344e-05
4.62878e-05
2.83072e-05
1.7184e-05
1.03547e-05
6.19337e-06
3.67687e-06
2.16658e-06
1.26702e-06
7.35223e-07
4.23129e-07
2.41132e-07
1.35359e-07
7.35042e-08
3.60633e-08
1.07841e-08
11.4941
33.9029
54.6358
72.772
87.6452
98.879
106.38
110.298
110.97
108.857
104.483
98.3843
91.0766
83.0241
74.6267
66.2136
58.0426
50.3047
43.1317
36.6038
30.7596
25.6043
21.118
17.2625
13.9882
11.2383
8.9535
7.07441
5.54426
4.31016
3.32413
2.54349
1.93097
1.45458
1.08728
0.806505
0.593675
0.433694
0.314431
0.22625
0.161578
0.11453
0.0805768
0.056268
0.0390018
0.026834
0.0183261
0.0124236
0.00836036
0.00558475
0.00370331
0.00243775
0.00159295
0.00103331
0.000665396
0.000425351
0.000269919
0.000170035
0.000106331
6.60069e-05
4.06751e-05
2.48811e-05
1.51079e-05
9.10591e-06
5.44781e-06
3.23507e-06
1.90675e-06
1.11535e-06
6.47408e-07
3.72706e-07
2.12456e-07
1.19273e-07
6.47759e-08
3.17848e-08
9.52403e-09
8.91047
26.3101
42.4871
56.7578
68.6109
77.7365
84.0269
87.5552
88.5394
87.2999
84.2171
79.6942
74.1268
67.881
61.2794
54.5931
48.0398
41.7851
35.9472
30.6022
25.7913
21.5269
17.7997
14.5841
11.8436
9.53459
7.61043
6.02374
4.72853
3.68159
2.84337
2.1785
1.65591
1.24882
0.934486
0.693864
0.511241
0.373805
0.271236
0.19532
0.139592
0.0990137
0.0697053
0.0487059
0.0337795
0.0232535
0.0158889
0.0107766
0.00725525
0.0048486
0.00321646
0.00211807
0.00138456
0.000898439
0.000578732
0.000370066
0.000234906
0.00014802
9.25888e-05
5.74916e-05
3.54368e-05
2.16822e-05
1.31688e-05
7.93911e-06
4.75088e-06
2.8219e-06
1.66364e-06
9.73398e-07
5.65154e-07
3.25416e-07
1.85543e-07
1.04219e-07
5.66085e-08
2.77522e-08
8.30238e-09
6.90426
20.4042
33.0065
44.2016
53.5989
60.9488
66.1465
69.2209
70.3121
69.6426
67.4877
64.148
59.9254
55.1056
49.9455
44.6652
39.4453
34.4262
29.711
25.3691
21.4409
17.9428
14.8725
12.2137
9.93975
8.01789
6.41173
5.08377
3.99715
3.11686
2.41064
1.8494
1.4075
1.06272
0.79609
0.591708
0.43639
0.319363
0.231928
0.167147
0.119546
0.0848549
0.0597771
0.0417947
0.0290033
0.0199766
0.013657
0.00926733
0.00624205
0.00417331
0.00276962
0.00182454
0.00119311
0.00077448
0.000499048
0.000319212
0.000202685
0.000127753
7.99333e-05
4.96463e-05
3.06088e-05
1.87327e-05
1.13801e-05
6.86243e-06
4.10754e-06
2.44035e-06
1.43904e-06
8.42216e-07
4.89093e-07
2.81696e-07
1.60666e-07
9.02604e-08
4.90416e-08
2.40301e-08
7.17732e-09
5.34268
15.8009
25.5968
34.3502
41.7633
47.638
51.8804
54.4952
55.5715
55.2637
53.7704
51.3148
48.1258
44.4245
40.4132
36.2685
32.1379
28.1384
24.358
20.8578
17.6756
14.8292
12.3209
10.1408
8.27001
6.68405
5.35488
4.25311
3.34941
2.61571
2.0259
1.5563
1.18591
0.89645
0.672275
0.500195
0.369256
0.270478
0.196596
0.141798
0.101493
0.0720922
0.0508205
0.0355551
0.0246881
0.017014
0.0116378
0.00790109
0.00532432
0.00356132
0.00236446
0.00155824
0.00101935
0.000661921
0.00042666
0.000272995
0.000173391
0.00010932
6.8418e-05
4.2505e-05
2.62124e-05
1.60459e-05
9.75013e-06
5.88084e-06
3.52078e-06
2.09222e-06
1.23401e-06
7.22363e-07
4.19614e-07
2.41749e-07
1.37929e-07
7.74775e-08
4.21024e-08
2.0655e-08
6.16861e-09
4.12593
12.21
19.8038
26.6233
32.4422
37.105
40.5314
42.7136
43.7078
43.6207
42.5957
40.7976
38.3991
35.5701
32.4684
29.2341
25.9862
22.8208
19.8114
17.0106
14.4524
12.1545
10.1218
8.34873
6.8224
5.52458
4.43394
3.5276
2.78247
2.17621
1.68786
1.29833
0.990562
0.749658
0.562809
0.419182
0.309752
0.227101
0.16521
0.119257
0.0854251
0.0607229
0.0428351
0.0299876
0.0208349
0.0143668
0.00983234
0.00667873
0.00450276
0.00301315
0.00200136
0.00131948
0.000863483
0.000560902
0.000361665
0.00023148
0.000147066
9.27483e-05
5.80619e-05
3.60802e-05
2.22555e-05
1.36268e-05
8.28201e-06
4.99639e-06
2.9919e-06
1.77828e-06
1.04906e-06
6.14226e-07
3.56862e-07
2.05643e-07
1.17322e-07
6.59218e-08
3.58482e-08
1.75937e-08
5.26747e-09
3.17796
9.40961
15.2778
20.57
25.1148
28.7912
31.5326
33.3259
34.2057
34.246
33.5498
32.2385
30.4419
28.2895
25.9036
23.3942
20.8562
18.3673
15.9882
13.7633
11.7221
9.88123
8.24681
6.81639
5.58118
4.52788
3.64038
2.90105
2.29184
1.79511
1.39422
1.07386
0.820311
0.621535
0.467132
0.348282
0.257612
0.189047
0.137646
0.0994422
0.0712865
0.0507097
0.0357963
0.0250763
0.0174333
0.0120281
0.00823631
0.00559747
0.0037756
0.0025277
0.00167963
0.00110781
0.000725235
0.000471264
0.000303967
0.000194611
0.000123678
7.80191e-05
4.88536e-05
3.03653e-05
1.87346e-05
1.14735e-05
6.97468e-06
4.20851e-06
2.5206e-06
1.49844e-06
8.84154e-07
5.17792e-07
3.00878e-07
1.73411e-07
9.89436e-08
5.56273e-08
3.02438e-08
1.48398e-08
4.45852e-09
2.44015
7.22835
11.7468
15.8367
19.3685
22.2488
24.4235
25.8778
26.633
26.7399
26.2726
25.3203
23.98
22.3498
20.5239
18.5879
16.6166
14.6723
12.8043
11.0493
9.43251
7.96887
6.66482
5.51985
4.52819
3.68025
2.96394
2.36581
1.87185
1.46828
1.14193
0.880675
0.673563
0.510936
0.384427
0.286915
0.212428
0.156032
0.113707
0.0822151
0.0589829
0.0419883
0.0296604
0.0207915
0.0144634
0.00998486
0.00684091
0.00465155
0.00313908
0.00210251
0.0013977
0.000922221
0.000603964
0.000392598
0.000253309
0.000162227
0.000103126
6.50715e-05
4.0756e-05
2.5338e-05
1.56362e-05
9.57781e-06
5.8234e-06
3.51445e-06
2.10525e-06
1.25174e-06
7.3872e-07
4.32661e-07
2.51461e-07
1.44949e-07
8.27582e-08
4.65236e-08
2.52672e-08
1.24108e-08
3.70117e-09
1.86699
5.53269
8.9982
12.1451
14.8756
17.118
18.8294
19.9955
20.6286
20.7639
20.4546
19.7658
18.7699
17.5409
16.1507
14.6653
13.1434
11.6342
10.1773
8.80253
7.53108
6.37594
5.34334
4.43392
3.64403
2.96682
2.39334
1.91336
1.51613
1.19093
0.927474
0.716193
0.548423
0.416485
0.313701
0.234369
0.173692
0.127697
0.093139
0.0673988
0.048391
0.0344736
0.0243689
0.0170935
0.0118983
0.0082188
0.00563403
0.00383289
0.00258787
0.0017341
0.00115328
0.000761251
0.000498728
0.000324302
0.00020931
0.000134088
8.52615e-05
5.38126e-05
3.3712e-05
2.09632e-05
1.2939e-05
7.9271e-06
4.82054e-06
2.90967e-06
1.74324e-06
1.03664e-06
6.1182e-07
3.5836e-07
2.08305e-07
1.20105e-07
6.85671e-08
3.85494e-08
2.09579e-08
1.02891e-08
3.06894e-09
1.42285
4.21797
6.86468
9.27471
11.3747
13.1099
14.4465
15.3717
15.8926
16.0333
15.8317
15.3358
14.5988
13.6765
12.6233
11.4901
10.3221
9.15791
8.02902
6.95955
5.96676
5.06172
4.25014
3.5333
2.90897
2.37236
1.91686
1.53478
1.21792
0.958006
0.747057
0.577595
0.442817
0.336664
0.25385
0.189846
0.140831
0.103632
0.0756521
0.0547895
0.0393682
0.0280664
0.0198535
0.0139353
0.00970595
0.00670836
0.00460114
0.00313181
0.00211554
0.00141824
0.000943608
0.000623097
0.000408366
0.000265632
0.000171496
0.000109895
6.98963e-05
4.41254e-05
2.76492e-05
1.71964e-05
1.0616e-05
6.50493e-06
3.95628e-06
2.38832e-06
1.43108e-06
8.51072e-07
5.02339e-07
2.94272e-07
1.7106e-07
9.8622e-08
5.62979e-08
3.16586e-08
1.72381e-08
8.4758e-09
2.55196e-09
1.07976
3.20188
5.21414
7.05094
8.65734
9.99187
11.0282
11.7553
12.1771
12.3101
12.1814
11.8257
11.2827
10.5937
9.79996
8.94011
8.049
7.15662
6.28764
5.46126
4.69147
3.98747
3.35429
2.79347
2.30377
1.88184
1.52288
1.22114
0.970399
0.764339
0.5968
0.461987
0.354597
0.269891
0.203716
0.152505
0.113238
0.0834033
0.060937
0.0441683
0.031761
0.0226596
0.0160399
0.0112659
0.00785151
0.0054298
0.00372622
0.0025376
0.00171496
0.00115021
0.000765597
0.000505745
0.000331574
0.000215751
0.000139334
8.93097e-05
5.68175e-05
3.58767e-05
2.2485e-05
1.3987e-05
8.63599e-06
5.29242e-06
3.21924e-06
1.94359e-06
1.16466e-06
6.92694e-07
4.08912e-07
2.39568e-07
1.39268e-07
8.02852e-08
4.58508e-08
2.58094e-08
1.40517e-08
6.91389e-09
2.06901e-09
0.81569
2.41947
3.94211
5.33498
6.55711
7.57723
8.37503
8.94148
9.27834
9.397
9.31678
9.0629
8.66443
8.15222
7.55707
6.90828
6.23243
5.55262
4.88803
4.25377
3.66102
3.11729
2.62688
2.19137
1.81015
1.48094
1.20024
0.963803
0.766953
0.604885
0.472889
0.366503
0.28163
0.214587
0.16214
0.1215
0.0903009
0.0665686
0.0486783
0.0353113
0.0254114
0.0181427
0.0128514
0.0090322
0.00629865
0.00435841
0.0029926
0.00203902
0.00137867
0.000925069
0.000615991
0.000407071
0.000266974
0.000173772
0.000112256
7.19718e-05
4.5798e-05
2.89245e-05
1.81311e-05
1.12804e-05
6.96577e-06
4.26932e-06
2.59715e-06
1.56809e-06
9.39708e-07
5.58934e-07
3.29949e-07
1.93316e-07
1.12405e-07
6.48066e-08
3.70018e-08
2.08251e-08
1.13219e-08
5.55394e-09
1.66948e-09
0.613259
1.81946
2.9659
4.01665
4.94126
5.71629
6.32622
6.76377
7.02956
7.13137
7.08294
6.90253
6.61142
6.23242
5.78851
5.30171
4.79214
4.27747
3.77247
3.28891
2.83561
2.41861
2.04151
1.70579
1.41124
1.1563
0.938485
0.754654
0.601318
0.474854
0.371684
0.288402
0.221862
0.169226
0.127996
0.0960066
0.0714198
0.052696
0.0385662
0.0279982
0.0201639
0.0144064
0.0102118
0.00718161
0.00501117
0.0034695
0.00238352
0.00162484
0.00109914
0.000737826
0.000491505
0.000324925
0.000213171
0.000138794
8.96851e-05
5.75149e-05
3.66065e-05
2.31237e-05
1.44973e-05
9.02076e-06
5.57103e-06
3.41477e-06
2.07742e-06
1.25434e-06
7.51729e-07
4.47118e-07
2.63932e-07
1.54628e-07
8.98938e-08
5.18185e-08
2.95764e-08
1.66124e-08
9.03998e-09
4.45084e-09
1.35885e-09
0.458765
1.36138
2.22013
3.00854
3.70409
4.28931
4.75244
5.08769
5.2951
5.37994
5.35197
5.22436
5.01263
4.73357
4.40421
4.041
3.65908
3.27184
2.89057
2.52434
2.18005
1.86248
1.57458
1.31766
1.09175
0.895811
0.72807
0.586236
0.467719
0.369807
0.289803
0.225122
0.17337
0.132376
0.100223
0.0752464
0.0560269
0.0413743
0.0303052
0.0220182
0.0158689
0.0113459
0.00804771
0.0056633
0.00395408
0.00273916
0.00188278
0.00128412
0.00086905
0.000583622
0.000388934
0.000257209
0.0001688
0.000109937
7.10566e-05
4.55789e-05
2.90153e-05
1.83316e-05
1.14944e-05
7.15306e-06
4.41792e-06
2.70814e-06
1.64758e-06
9.94867e-07
5.96191e-07
3.54584e-07
2.09305e-07
1.2262e-07
7.12782e-08
4.10937e-08
2.34451e-08
1.31549e-08
7.16305e-09
3.52225e-09
1.04932e-09
0.341411
1.01333
1.65315
2.24147
2.7617
3.20088
3.55016
3.80503
3.96522
4.03432
4.01922
3.92938
3.77609
3.57163
3.32856
3.0591
2.77455
2.485
2.19899
1.92346
1.66373
1.42357
1.20532
1.01013
0.838126
0.688651
0.560445
0.451844
0.360943
0.285723
0.224166
0.174326
0.134393
0.102719
0.0778452
0.0584995
0.0435962
0.0322219
0.0236205
0.0171746
0.0123872
0.00886267
0.0062905
0.00442948
0.00309446
0.00214485
0.00147504
0.00100651
0.000681482
0.000457848
0.000305233
0.000201926
0.000132561
8.63586e-05
5.58307e-05
3.58199e-05
2.28069e-05
1.44113e-05
9.0373e-06
5.62445e-06
3.474e-06
2.12959e-06
1.29561e-06
7.82313e-07
4.68785e-07
2.78787e-07
1.64544e-07
9.63994e-08
5.60268e-08
3.2304e-08
1.84169e-08
1.03461e-08
5.62858e-09
2.74404e-09
8.04554e-10
0.252717
0.75021
1.22431
1.66085
2.04767
2.3752
2.63686
2.82915
2.9517
3.00692
2.99966
2.93673
2.82626
2.67721
2.4988
2.30003
2.0893
1.87413
1.66095
1.45503
1.26042
1.08005
0.915766
0.768533
0.638533
0.525344
0.428085
0.345558
0.276368
0.219025
0.172028
0.133923
0.103351
0.0790711
0.0599802
0.0451152
0.0336508
0.0248919
0.0182616
0.0132882
0.00959101
0.00686679
0.00487704
0.00343629
0.002402
0.0016658
0.00114617
0.000782475
0.000530025
0.000356237
0.000237579
0.000157222
0.000103244
6.72778e-05
4.3505e-05
2.79174e-05
1.77781e-05
1.12351e-05
7.04617e-06
4.38552e-06
2.70883e-06
1.66051e-06
1.01021e-06
6.09924e-07
3.65461e-07
2.17322e-07
1.28252e-07
7.50968e-08
4.36182e-08
2.51563e-08
1.43535e-08
8.08725e-09
4.38279e-09
2.14584e-09
6.41009e-10
0.186034
0.552343
0.901677
1.22373
1.50964
1.75239
1.9471
2.0911
2.184
2.22741
2.22476
2.18089
2.10166
1.99357
1.86334
1.71756
1.56243
1.40353
1.24566
1.09277
0.947941
0.813401
0.69061
0.580343
0.482798
0.397714
0.324479
0.262236
0.209969
0.166588
0.130983
0.102075
0.0788514
0.060385
0.0458479
0.0345157
0.0257666
0.0190754
0.0140053
0.0101986
0.0073662
0.00527745
0.00375062
0.00264422
0.00184939
0.00128324
0.000883387
0.000603354
0.000408869
0.000274914
0.000183409
0.000121413
7.97521e-05
5.19823e-05
3.36213e-05
2.15788e-05
1.37435e-05
8.68628e-06
5.44805e-06
3.39098e-06
2.09454e-06
1.28391e-06
7.81028e-07
4.71501e-07
2.82496e-07
1.67944e-07
9.90984e-08
5.80025e-08
3.36925e-08
1.9419e-08
1.10903e-08
6.2202e-09
3.34993e-09
1.64533e-09
5.04904e-10
0.136174
0.404363
0.66029
0.896498
1.10655
1.28534
1.42925
1.53631
1.60611
1.63976
1.63966
1.60923
1.55268
1.4747
1.38016
1.27387
1.16036
1.04375
0.927595
0.814829
0.707768
0.608106
0.516968
0.434971
0.362305
0.298813
0.244075
0.197479
0.158294
0.125723
0.0989541
0.0771922
0.0596873
0.0457515
0.0347683
0.0261972
0.0195729
0.0145015
0.0106552
0.00776468
0.00561212
0.0040234
0.00286116
0.00201833
0.00141242
0.000980547
0.000675341
0.000461467
0.000312847
0.000210431
0.000140438
9.29956e-05
6.11019e-05
3.98354e-05
2.57699e-05
1.65422e-05
1.0537e-05
6.66024e-06
4.17751e-06
2.6002e-06
1.60605e-06
9.84422e-07
5.98773e-07
3.61405e-07
2.16489e-07
1.28682e-07
7.59101e-08
4.44458e-08
2.58302e-08
1.48552e-08
8.46702e-09
4.74061e-09
2.55306e-09
1.24689e-09
3.70995e-10
0.0991033
0.29432
0.48072
0.652935
0.806317
0.937158
1.04282
1.12183
1.17385
1.19961
1.20077
1.17977
1.13961
1.08366
1.01541
0.938368
0.855825
0.770787
0.685867
0.603243
0.524634
0.451314
0.38414
0.323597
0.269852
0.222817
0.182204
0.14758
0.118421
0.0941515
0.0741785
0.057921
0.0448281
0.0343925
0.0261589
0.0197267
0.0147503
0.0109369
0.00804201
0.00586455
0.00424161
0.00304281
0.00216515
0.00152823
0.00107003
0.000743225
0.000512131
0.000350097
0.000237441
0.000159769
0.000106662
7.06504e-05
4.6432e-05
3.02779e-05
1.95906e-05
1.25773e-05
8.01222e-06
5.0647e-06
3.17683e-06
1.97732e-06
1.22127e-06
7.48504e-07
4.5523e-07
2.74726e-07
1.64533e-07
9.77999e-08
5.76809e-08
3.37649e-08
1.96045e-08
1.12857e-08
6.42436e-09
3.60458e-09
1.96144e-09
9.69196e-10
2.5794e-10
0.0717009
0.212964
0.34792
0.472721
0.584031
0.679175
0.756243
0.814138
0.852583
0.872063
0.873739
0.859326
0.830954
0.791018
0.742037
0.686522
0.626863
0.565239
0.503559
0.443419
0.386089
0.332518
0.283351
0.238963
0.199497
0.164904
0.134991
0.109453
0.0879163
0.0699674
0.0551777
0.0431247
0.0334065
0.0256521
0.0195274
0.0147377
0.0110285
0.00818347
0.00602169
0.00439428
0.00318031
0.00228289
0.00162538
0.00114789
0.000804148
0.000558826
0.000385245
0.000263469
0.000178758
0.000120325
8.03544e-05
5.32397e-05
3.4998e-05
2.28264e-05
1.47716e-05
9.48461e-06
6.04256e-06
3.81978e-06
2.39595e-06
1.49121e-06
9.20963e-07
5.64373e-07
3.43193e-07
2.0709e-07
1.24007e-07
7.37017e-08
4.34525e-08
2.5423e-08
1.4741e-08
8.49885e-09
4.86025e-09
2.74075e-09
1.4752e-09
7.25525e-10
2.05254e-10
0.0515659
0.153176
0.250296
0.340185
0.42046
0.489204
0.545038
0.58716
0.615348
0.629923
0.631689
0.621848
0.601904
0.573559
0.538607
0.498846
0.455992
0.411618
0.367108
0.323623
0.282093
0.243219
0.207482
0.175167
0.146392
0.121133
0.0992609
0.0805626
0.0647737
0.0515985
0.0407292
0.0318609
0.0247024
0.0189845
0.0144635
0.0109245
0.0081812
0.0060751
0.0044734
0.00326661
0.00236569
0.00169917
0.00121049
0.000855346
0.000599515
0.000416821
0.000287478
0.000196687
0.000133498
8.98903e-05
6.00479e-05
3.97959e-05
2.61664e-05
1.70694e-05
1.10477e-05
7.09428e-06
4.51997e-06
2.85734e-06
1.79219e-06
1.11536e-06
6.88751e-07
4.22022e-07
2.56596e-07
1.54809e-07
9.26488e-08
5.504e-08
3.24565e-08
1.89668e-08
1.10025e-08
6.32886e-09
3.61116e-09
2.04267e-09
1.1042e-09
5.21368e-10
1.72326e-10
0.0368607
0.109505
0.17897
0.243314
0.300843
0.350191
0.390372
0.420802
0.441309
0.452103
0.453738
0.447055
0.43311
0.413103
0.388308
0.360001
0.32941
0.297661
0.26575
0.234515
0.204634
0.176617
0.150821
0.127461
0.10663
0.0883194
0.0724423
0.058852
0.0473622
0.0377629
0.0298345
0.0233585
0.0181256
0.0139413
0.0106296
0.00803484
0.00602161
0.00447461
0.00329712
0.00240923
0.00174585
0.00125472
0.000894359
0.000632302
0.000443404
0.000308427
0.000212811
0.00014566
9.89e-05
6.66155e-05
4.45129e-05
2.95077e-05
1.94057e-05
1.26613e-05
8.19567e-06
5.26331e-06
3.35355e-06
2.11996e-06
1.32964e-06
8.27421e-07
5.1087e-07
3.12981e-07
1.90253e-07
1.14749e-07
6.86604e-08
4.07578e-08
2.40279e-08
1.40528e-08
8.15859e-09
4.68573e-09
2.64745e-09
1.48069e-09
8.06749e-10
3.80873e-10
1.29519e-10
0.0261875
0.0778041
0.127182
0.172952
0.213919
0.249115
0.277837
0.299667
0.31447
0.322387
0.323796
0.319282
0.309583
0.295542
0.278055
0.258026
0.236325
0.213755
0.191025
0.168739
0.147383
0.127329
0.108838
0.0920695
0.077096
0.0639173
0.0524756
0.0426699
0.0343699
0.0274278
0.0216877
0.0169942
0.0131977
0.0101589
0.00775166
0.00586371
0.00439761
0.00327007
0.00241114
0.00176295
0.00127829
0.000919219
0.000655576
0.000463724
0.000325346
0.000226409
0.000156286
0.000107012
7.26841e-05
4.89728e-05
3.27328e-05
2.17038e-05
1.42762e-05
9.31596e-06
6.0309e-06
3.87331e-06
2.46796e-06
1.56011e-06
9.78441e-07
6.08809e-07
3.75826e-07
2.30173e-07
1.39877e-07
8.43256e-08
5.04575e-08
2.99265e-08
1.7619e-08
1.03198e-08
6.00616e-09
3.46408e-09
1.96583e-09
1.08774e-09
5.90518e-10
2.95259e-10
8.67118e-11
0.0184893
0.0549371
0.0898174
0.12217
0.151156
0.176095
0.196489
0.212039
0.222645
0.228396
0.229555
0.226523
0.219813
0.210015
0.197756
0.183671
0.168374
0.152431
0.136347
0.120551
0.105392
0.0911359
0.0779727
0.0660199
0.055333
0.0459156
0.0377296
0.030706
0.0247543
0.0197708
0.0156459
0.0122697
0.00953604
0.00734593
0.00560934
0.00424617
0.00318669
0.0023712
0.00174948
0.00127995
0.000928622
0.000668143
0.000476763
0.000337409
0.000236836
0.000164887
0.000113864
7.79939e-05
5.29926e-05
3.57157e-05
2.38782e-05
1.58361e-05
1.04185e-05
6.79954e-06
4.40227e-06
2.82748e-06
1.8016e-06
1.13884e-06
7.14167e-07
4.44314e-07
2.7423e-07
1.67908e-07
1.02006e-07
6.14644e-08
3.67395e-08
2.17767e-08
1.28147e-08
7.49343e-09
4.35096e-09
2.50806e-09
1.44007e-09
7.86992e-10
4.4234e-10
2.37085e-10
7.13451e-11
0.0129723
0.0385474
0.0630311
0.0857543
0.106132
0.123687
0.13807
0.149069
0.156611
0.160753
0.161672
0.159646
0.155031
0.148233
0.13969
0.129847
0.119132
0.107943
0.0966363
0.0855151
0.0748268
0.0647618
0.0554563
0.0469958
0.0394224
0.0327407
0.0269261
0.0219318
0.0176952
0.0141441
0.0112019
0.00879136
0.00683775
0.00527118
0.0040279
0.00305114
0.00229135
0.00170607
0.00125953
0.000922034
0.000669328
0.000481842
0.000344002
0.000243571
0.000171046
0.000119134
8.23015e-05
5.63944e-05
3.83293e-05
2.58404e-05
1.72802e-05
1.14627e-05
7.5425e-06
4.92314e-06
3.18768e-06
2.04747e-06
1.30459e-06
8.24606e-07
5.17042e-07
3.21605e-07
1.9846e-07
1.21488e-07
7.37709e-08
4.44381e-08
2.65305e-08
1.57201e-08
9.23755e-09
5.38601e-09
3.10406e-09
1.76277e-09
1.00432e-09
5.77347e-10
3.28188e-10
1.63545e-10
6.14666e-11
0.00904397
0.0268761
0.0439528
0.0598103
0.0740427
0.0863187
0.0963945
0.104121
0.109443
0.1124
0.113111
0.111765
0.108607
0.103918
0.0980019
0.0911653
0.0837073
0.075906
0.06801
0.0602323
0.0527473
0.0456899
0.039157
0.0332104
0.0278812
0.0231743
0.0190739
0.0155483
0.0125545
0.0100427
0.00795961
0.00625134
0.00486565
0.00375351
0.00287014
0.00217556
0.00163485
0.00121801
0.000899749
0.000659036
0.000478674
0.000344772
0.000246266
0.000174451
0.000122561
8.5399e-05
5.90184e-05
4.04544e-05
2.75039e-05
1.85474e-05
1.2406e-05
8.23104e-06
5.41688e-06
3.53612e-06
2.28975e-06
1.47073e-06
9.3706e-07
5.92238e-07
3.71293e-07
2.30921e-07
1.42463e-07
8.71838e-08
5.28997e-08
3.18638e-08
1.90283e-08
1.12989e-08
6.63949e-09
3.84166e-09
2.19963e-09