/*--------------------------------*- C++ -*----------------------------------*\
  =========                 |
  \\      /  F ield         | OpenFOAM: The Open Source CFD Toolbox
   \\    /   O peration     | Website:  https://openfoam.org
    \\  /    A nd           | Version:  10
     \\/     M anipulation  |
\*---------------------------------------------------------------------------*/
FoamFile
{
    format      ascii;
    class       volScalarField;
    location    "275";
    object      T;
}
// * * * * * * * * * * * * * * * * * * * * * * * * * * * * * * * * * * * * * //

dimensions      [0 0 0 1 0 0 0];

internalField   nonuniform List<scalar> 
11250
(
249.807
167.45
139.186
126.706
119.874
115.526
112.476
110.199
108.425
107.004
105.841
104.877
104.071
103.393
102.82
102.337
101.929
101.585
101.297
101.055
100.854
100.688
100.551
100.438
100.346
100.272
100.212
100.165
100.127
100.097
100.074
100.056
100.042
100.031
100.023
100.017
100.012
100.009
100.006
100.005
100.003
100.002
100.002
100.001
100.001
100.001
100
100
100
100
100
100
100
100
100
100
100
100
100
100
100
100
100
100
100
100
100
100
100
100
100
100
100
100
100
331.393
248.269
201.787
174.493
157.164
145.308
136.69
130.13
124.964
120.793
117.366
114.516
112.126
110.112
108.41
106.972
105.757
104.733
103.872
103.152
102.552
102.055
101.645
101.309
101.035
100.813
100.635
100.493
100.38
100.291
100.221
100.167
100.125
100.093
100.069
100.051
100.037
100.027
100.019
100.014
100.01
100.007
100.005
100.003
100.002
100.002
100.001
100.001
100
100
100
100
100
100
100
100
100
100
100
100
100
100
100
100
100
100
100
100
100
100
100
100
100
100
100
358.897
292.475
245.244
212.379
189.057
171.944
158.95
148.78
140.626
133.962
128.441
123.821
119.93
116.64
113.853
111.493
109.496
107.811
106.394
105.207
104.217
103.396
102.719
102.164
101.712
101.346
101.051
100.815
100.629
100.481
100.366
100.277
100.207
100.155
100.114
100.084
100.061
100.044
100.032
100.023
100.016
100.011
100.008
100.006
100.004
100.003
100.002
100.001
100.001
100.001
100
100
100
100
100
100
100
100
100
100
100
100
100
100
100
100
100
100
100
100
100
100
100
100
100
370.63
317.538
274.411
240.827
214.869
194.614
178.554
165.602
154.993
146.194
138.823
132.606
127.339
122.865
119.062
115.832
113.093
110.778
108.829
107.194
105.829
104.697
103.762
102.995
102.37
101.863
101.455
101.129
100.871
100.667
100.507
100.383
100.288
100.214
100.159
100.117
100.085
100.062
100.044
100.032
100.023
100.016
100.011
100.008
100.005
100.004
100.002
100.002
100.001
100.001
100
100
100
100
100
100
100
100
100
100
100
100
100
100
100
100
100
100
100
100
100
100
100
100
100
376.738
332.699
294.139
261.793
235.156
213.298
195.287
180.336
167.825
157.28
148.341
140.732
134.24
128.696
123.964
119.931
116.503
113.599
111.148
109.09
107.371
105.942
104.761
103.792
103.001
102.361
101.845
101.432
101.104
100.846
100.644
100.486
100.365
100.272
100.201
100.148
100.108
100.078
100.056
100.04
100.029
100.02
100.014
100.01
100.007
100.005
100.003
100.002
100.001
100.001
100.001
100
100
100
100
100
100
100
100
100
100
100
100
100
100
100
100
100
100
100
100
100
100
100
100
380.387
342.464
307.786
277.235
250.891
228.402
209.262
192.959
179.04
167.123
156.897
148.111
140.558
134.07
128.506
123.747
119.689
116.242
113.329
110.877
108.826
107.12
105.708
104.549
103.602
102.834
102.215
101.72
101.327
101.017
100.774
100.585
100.439
100.327
100.242
100.178
100.13
100.094
100.068
100.048
100.034
100.024
100.017
100.012
100.008
100.006
100.004
100.003
100.002
100.001
100.001
100
100
100
100
100
100
100
100
100
100
100
100
100
100
100
100
100
100
100
100
100
100
100
100
382.769
349.082
317.466
288.692
263.046
240.479
220.761
203.595
188.672
175.711
164.459
154.7
146.249
138.946
132.653
127.248
122.625
118.688
115.352
112.54
110.184
108.221
106.595
105.258
104.166
103.279
102.564
101.992
101.537
101.178
100.897
100.678
100.509
100.379
100.281
100.207
100.151
100.109
100.079
100.056
100.04
100.028
100.02
100.014
100.009
100.006
100.004
100.003
100.002
100.001
100.001
100.001
100
100
100
100
100
100
100
100
100
100
100
100
100
100
100
100
100
100
100
100
100
100
100
384.412
353.746
324.491
297.278
272.442
250.081
230.132
212.445
196.833
183.096
171.044
160.5
151.304
143.31
136.388
130.419
125.296
120.922
117.207
114.069
111.435
109.238
107.416
105.917
104.69
103.693
102.889
102.245
101.733
101.329
101.012
100.765
100.574
100.428
100.317
100.233
100.17
100.124
100.089
100.064
100.045
100.032
100.022
100.015
100.011
100.007
100.005
100.003
100.002
100.001
100.001
100.001
100
100
100
100
100
100
100
100
100
100
100
100
100
100
100
100
100
100
100
100
100
100
100
385.589
357.127
329.687
303.777
279.726
257.695
237.718
219.744
203.672
189.372
176.708
165.54
155.735
147.164
139.708
133.254
127.697
122.938
118.887
115.459
112.576
110.168
108.169
106.521
105.171
104.074
103.189
102.479
101.914
101.468
101.118
100.846
100.635
100.474
100.351
100.258
100.189
100.137
100.099
100.07
100.05
100.035
100.025
100.017
100.012
100.008
100.006
100.004
100.002
100.002
100.001
100.001
100
100
100
100
100
100
100
100
100
100
100
100
100
100
100
100
100
100
100
100
100
100
100
386.454
359.632
333.589
308.742
285.392
263.727
243.833
225.721
209.352
194.652
181.526
169.87
159.574
150.529
142.626
135.759
129.828
124.736
120.391
116.707
113.604
111.008
108.85
107.069
105.61
104.422
103.463
102.693
102.08
101.596
101.216
100.92
100.691
100.516
100.382
100.281
100.205
100.149
100.107
100.077
100.055
100.038
100.027
100.019
100.013
100.009
100.006
100.004
100.003
100.002
100.001
100.001
100.001
100
100
100
100
100
100
100
100
100
100
100
100
100
100
100
100
100
100
100
100
100
100
387.101
361.517
336.553
312.561
289.815
268.504
248.745
230.588
214.037
199.055
185.586
173.552
162.865
153.434
145.161
137.949
131.701
126.323
121.724
117.817
114.521
111.759
109.461
107.562
106.004
104.736
103.71
102.887
102.231
101.712
101.305
100.988
100.742
100.554
100.411
100.302
100.221
100.16
100.115
100.083
100.059
100.041
100.029
100.02
100.014
100.01
100.006
100.004
100.003
100.002
100.001
100.001
100.001
100
100
100
100
100
100
100
100
100
100
100
100
100
100
100
100
100
100
100
100
100
100
387.591
362.95
338.825
315.517
293.275
272.287
252.681
234.534
217.875
202.701
188.978
176.654
165.66
155.918
147.342
139.843
133.329
127.708
122.892
118.794
115.33
112.424
110.003
108.001
106.356
105.016
103.931
103.06
102.366
101.816
101.385
101.048
100.788
100.588
100.436
100.321
100.235
100.17
100.123
100.088
100.062
100.044
100.031
100.021
100.015
100.01
100.007
100.005
100.003
100.002
100.001
100.001
100.001
100
100
100
100
100
100
100
100
100
100
100
100
100
100
100
100
100
100
100
100
100
100
387.966
364.05
340.577
317.814
295.988
275.281
255.828
237.719
221.004
205.699
191.792
179.247
168.013
158.022
149.201
141.465
134.73
128.906
123.906
119.644
116.037
113.007
110.479
108.387
106.667
105.263
104.127
103.214
102.486
101.909
101.456
101.103
100.829
100.619
100.459
100.338
100.247
100.179
100.129
100.092
100.066
100.046
100.032
100.023
100.016
100.011
100.007
100.005
100.003
100.002
100.001
100.001
100.001
100
100
100
100
100
100
100
100
100
100
100
100
100
100
100
100
100
100
100
100
100
100
388.255
364.898
341.934
319.603
298.116
277.649
258.337
240.28
223.541
208.149
194.108
181.397
169.976
159.789
150.77
142.842
135.924
129.931
124.778
120.378
116.649
113.513
110.894
108.723
106.938
105.48
104.299
103.349
102.591
101.991
101.519
101.151
100.866
100.646
100.479
100.353
100.258
100.187
100.135
100.097
100.069
100.048
100.034
100.024
100.016
100.011
100.008
100.005
100.003
100.002
100.002
100.001
100.001
100
100
100
100
100
100
100
100
100
100
100
100
100
100
100
100
100
100
100
100
100
100
388.478
365.554
342.988
320.999
299.787
279.52
260.334
242.333
225.588
210.14
196.004
183.168
171.602
161.261
152.084
144.001
136.934
130.801
125.52
121.004
117.174
113.947
111.251
109.014
107.173
105.669
104.449
103.467
102.684
102.062
101.574
101.193
100.897
100.67
100.497
100.366
100.268
100.194
100.14
100.1
100.071
100.05
100.035
100.025
100.017
100.012
100.008
100.005
100.004
100.002
100.002
100.001
100.001
100
100
100
100
100
100
100
100
100
100
100
100
100
100
100
100
100
100
100
100
100
100
388.65
366.063
343.807
322.089
301.097
280.995
261.918
243.971
227.233
211.75
197.544
184.615
172.939
162.477
153.175
144.967
137.779
131.533
126.146
121.535
117.619
114.318
111.556
109.263
107.375
105.831
104.578
103.569
102.763
102.124
101.622
101.229
100.925
100.691
100.513
100.378
100.276
100.201
100.145
100.104
100.074
100.052
100.036
100.025
100.017
100.012
100.008
100.006
100.004
100.002
100.002
100.001
100.001
100
100
100
100
100
100
100
100
100
100
100
100
100
100
100
100
100
100
100
100
100
100
388.784
366.458
344.444
322.94
302.124
282.156
263.171
245.274
228.547
213.043
198.79
185.791
174.031
163.475
154.074
145.766
138.481
132.143
126.67
121.981
117.994
114.63
111.814
109.475
107.546
105.968
104.688
103.656
102.831
102.177
101.663
101.26
100.949
100.709
100.526
100.388
100.284
100.206
100.149
100.106
100.076
100.053
100.037
100.026
100.018
100.012
100.008
100.006
100.004
100.003
100.002
100.001
100.001
100
100
100
100
100
100
100
100
100
100
100
100
100
100
100
100
100
100
100
100
100
100
388.888
366.765
344.94
323.603
302.927
283.068
264.158
246.306
229.594
214.078
199.79
186.74
174.916
164.288
154.809
146.423
139.06
132.647
127.104
122.351
118.307
114.892
112.031
109.652
107.69
106.085
104.781
103.73
102.889
102.222
101.697
101.287
100.969
100.725
100.538
100.396
100.29
100.211
100.152
100.109
100.077
100.055
100.038
100.027
100.018
100.013
100.009
100.006
100.004
100.003
100.002
100.001
100.001
100
100
100
100
100
100
100
100
100
100
100
100
100
100
100
100
100
100
100
100
100
100
388.968
367.002
345.325
324.118
303.553
283.782
264.934
247.12
230.422
214.9
200.589
187.502
175.629
164.945
155.406
146.957
139.533
133.061
127.462
122.657
118.566
115.109
112.211
109.8
107.811
106.182
104.859
103.792
102.938
102.26
101.727
101.31
100.986
100.738
100.548
100.404
100.295
100.215
100.155
100.111
100.079
100.056
100.039
100.027
100.019
100.013
100.009
100.006
100.004
100.003
100.002
100.001
100.001
100
100
100
100
100
100
100
100
100
100
100
100
100
100
100
100
100
100
100
100
100
100
389.031
367.186
345.623
324.519
304.041
284.338
265.542
247.759
231.076
215.551
201.224
188.109
176.2
165.472
155.887
147.39
139.917
133.397
127.754
122.907
118.778
115.287
112.359
109.923
107.911
106.263
104.923
103.843
102.979
102.292
101.751
101.329
101.001
100.748
100.556
100.41
100.3
100.218
100.157
100.113
100.08
100.057
100.04
100.028
100.019
100.013
100.009
100.006
100.004
100.003
100.002
100.001
100.001
100
100
100
100
100
100
100
100
100
100
100
100
100
100
100
100
100
100
100
100
100
100
389.078
367.328
345.853
324.828
304.418
284.771
266.015
248.259
231.588
216.064
201.725
188.59
176.653
165.893
156.272
147.737
140.226
133.669
127.99
123.111
118.951
115.433
112.481
110.023
107.993
106.329
104.977
103.886
103.012
102.318
101.772
101.344
101.013
100.758
100.563
100.415
100.304
100.221
100.159
100.114
100.081
100.057
100.04
100.028
100.019
100.013
100.009
100.006
100.004
100.003
100.002
100.001
100.001
100.001
100
100
100
100
100
100
100
100
100
100
100
100
100
100
100
100
100
100
100
100
100
389.115
367.437
346.03
325.067
304.71
285.106
266.383
248.648
231.988
216.465
202.119
188.968
177.011
166.227
156.578
148.014
140.473
133.887
128.18
123.274
119.091
115.551
112.579
110.105
108.06
106.384
105.021
103.92
103.04
102.34
101.789
101.357
101.023
100.765
100.568
100.419
100.307
100.223
100.161
100.115
100.082
100.058
100.041
100.028
100.02
100.013
100.009
100.006
100.004
100.003
100.002
100.001
100.001
100.001
100
100
100
100
100
100
100
100
100
100
100
100
100
100
100
100
100
100
100
100
100
389.144
367.521
346.166
325.251
304.935
285.364
266.667
248.949
232.298
216.777
202.426
189.265
177.293
166.489
156.819
148.233
140.669
134.061
128.332
123.405
119.202
115.645
112.658
110.17
108.114
106.428
105.056
103.949
103.062
102.358
101.802
101.368
101.031
100.771
100.573
100.422
100.309
100.225
100.162
100.116
100.083
100.058
100.041
100.028
100.02
100.014
100.009
100.006
100.004
100.003
100.002
100.001
100.001
100.001
100
100
100
100
100
100
100
100
100
100
100
100
100
100
100
100
100
100
100
100
100
389.165
367.585
346.27
325.391
305.107
285.563
266.885
249.181
232.538
217.018
202.664
189.496
177.512
166.694
157.008
148.405
140.824
134.197
128.452
123.509
119.291
115.721
112.722
110.223
108.157
106.463
105.084
103.971
103.08
102.372
101.813
101.376
101.037
100.776
100.577
100.425
100.311
100.226
100.163
100.117
100.083
100.059
100.041
100.029
100.02
100.014
100.009
100.006
100.004
100.003
100.002
100.001
100.001
100.001
100
100
100
100
100
100
100
100
100
100
100
100
100
100
100
100
100
100
100
100
100
389.181
367.633
346.349
325.498
305.238
285.714
267.052
249.359
232.722
217.204
202.848
189.674
177.682
166.854
157.156
148.539
140.945
134.305
128.546
123.591
119.362
115.78
112.772
110.264
108.191
106.491
105.107
103.99
103.095
102.383
101.822
101.383
101.043
100.78
100.58
100.427
100.313
100.228
100.164
100.118
100.084
100.059
100.041
100.029
100.02
100.014
100.009
100.006
100.004
100.003
100.002
100.001
100.001
100.001
100
100
100
100
100
100
100
100
100
100
100
100
100
100
100
100
100
100
100
100
100
389.194
367.67
346.409
325.579
305.338
285.829
267.179
249.495
232.863
217.347
202.989
189.811
177.813
166.977
157.27
148.643
141.038
134.388
128.619
123.655
119.417
115.827
112.811
110.297
108.218
106.513
105.125
104.004
103.106
102.392
101.829
101.389
101.047
100.783
100.582
100.429
100.314
100.229
100.165
100.118
100.084
100.059
100.042
100.029
100.02
100.014
100.009
100.006
100.004
100.003
100.002
100.001
100.001
100.001
100
100
100
100
100
100
100
100
100
100
100
100
100
100
100
100
100
100
100
100
100
389.203
367.698
346.454
325.64
305.413
285.916
267.275
249.598
232.969
217.455
203.097
189.916
177.913
167.071
157.357
148.723
141.111
134.453
128.676
123.704
119.459
115.863
112.842
110.323
108.24
106.53
105.139
104.015
103.115
102.399
101.835
101.393
101.05
100.786
100.584
100.431
100.315
100.229
100.166
100.119
100.084
100.06
100.042
100.029
100.02
100.014
100.009
100.006
100.004
100.003
100.002
100.001
100.001
100.001
100
100
100
100
100
100
100
100
100
100
100
100
100
100
100
100
100
100
100
100
100
389.21
367.718
346.488
325.686
305.47
285.981
267.348
249.675
233.05
217.537
203.178
189.995
177.989
167.143
157.424
148.784
141.166
134.502
128.72
123.743
119.492
115.891
112.866
110.343
108.256
106.544
105.15
104.024
103.122
102.405
101.839
101.396
101.053
100.788
100.585
100.432
100.316
100.23
100.166
100.119
100.085
100.06
100.042
100.029
100.02
100.014
100.009
100.006
100.004
100.003
100.002
100.001
100.001
100.001
100
100
100
100
100
100
100
100
100
100
100
100
100
100
100
100
100
100
100
100
100
389.215
367.734
346.513
325.721
305.512
286.03
267.402
249.733
233.111
217.598
203.239
190.055
178.047
167.197
157.475
148.831
141.208
134.54
128.753
123.772
119.517
115.913
112.884
110.358
108.269
106.554
105.158
104.031
103.128
102.409
101.843
101.399
101.055
100.789
100.587
100.433
100.317
100.23
100.166
100.119
100.085
100.06
100.042
100.029
100.02
100.014
100.009
100.006
100.004
100.003
100.002
100.001
100.001
100.001
100
100
100
100
100
100
100
100
100
100
100
100
100
100
100
100
100
100
100
100
100
389.219
367.745
346.532
325.746
305.543
286.067
267.442
249.777
233.156
217.644
203.285
190.1
178.09
167.238
157.513
148.866
141.24
134.569
128.779
123.794
119.537
115.929
112.898
110.37
108.278
106.562
105.165
104.036
103.132
102.412
101.845
101.401
101.056
100.791
100.587
100.433
100.317
100.231
100.167
100.119
100.085
100.06
100.042
100.029
100.02
100.014
100.009
100.006
100.004
100.003
100.002
100.001
100.001
100.001
100
100
100
100
100
100
100
100
100
100
100
100
100
100
100
100
100
100
100
100
100
389.222
367.754
346.546
325.765
305.567
286.094
267.472
249.809
233.189
217.679
203.319
190.133
178.122
167.269
157.541
148.892
141.264
134.59
128.798
123.811
119.551
115.942
112.908
110.379
108.286
106.568
105.17
104.04
103.135
102.415
101.847
101.403
101.057
100.792
100.588
100.434
100.318
100.231
100.167
100.12
100.085
100.06
100.042
100.029
100.02
100.014
100.009
100.006
100.004
100.003
100.002
100.001
100.001
100.001
100
100
100
100
100
100
100
100
100
100
100
100
100
100
100
100
100
100
100
100
100
389.224
367.76
346.556
325.779
305.584
286.114
267.494
249.832
233.214
217.704
203.344
190.158
178.146
167.292
157.562
148.912
141.282
134.606
128.812
123.823
119.562
115.951
112.916
110.385
108.291
106.573
105.174
104.043
103.137
102.417
101.849
101.404
101.058
100.792
100.589
100.434
100.318
100.231
100.167
100.12
100.085
100.06
100.042
100.029
100.02
100.014
100.009
100.006
100.004
100.003
100.002
100.001
100.001
100.001
100
100
100
100
100
100
100
100
100
100
100
100
100
100
100
100
100
100
100
100
100
389.226
367.765
346.564
325.789
305.596
286.128
267.51
249.85
233.232
217.722
203.363
190.176
178.163
167.308
157.578
148.926
141.295
134.618
128.822
123.832
119.57
115.958
112.922
110.39
108.295
106.576
105.176
104.045
103.139
102.418
101.85
101.405
101.059
100.793
100.589
100.435
100.318
100.231
100.167
100.12
100.085
100.06
100.042
100.029
100.02
100.014
100.009
100.006
100.004
100.003
100.002
100.001
100.001
100.001
100
100
100
100
100
100
100
100
100
100
100
100
100
100
100
100
100
100
100
100
100
389.227
367.768
346.569
325.796
305.605
286.139
267.522
249.862
233.245
217.736
203.376
190.189
178.176
167.32
157.589
148.937
141.305
134.627
128.83
123.839
119.576
115.963
112.926
110.394
108.299
106.579
105.178
104.047
103.14
102.419
101.851
101.405
101.06
100.793
100.589
100.435
100.318
100.232
100.167
100.12
100.085
100.06
100.042
100.029
100.02
100.014
100.01
100.006
100.004
100.003
100.002
100.001
100.001
100.001
100
100
100
100
100
100
100
100
100
100
100
100
100
100
100
100
100
100
100
100
100
389.228
367.77
346.573
325.801
305.612
286.146
267.53
249.871
233.255
217.746
203.386
190.199
178.185
167.329
157.598
148.945
141.312
134.633
128.836
123.844
119.58
115.967
112.93
110.396
108.301
106.581
105.18
104.048
103.141
102.42
101.851
101.406
101.06
100.793
100.59
100.435
100.319
100.232
100.167
100.12
100.085
100.06
100.042
100.029
100.02
100.014
100.01
100.006
100.004
100.003
100.002
100.001
100.001
100.001
100
100
100
100
100
100
100
100
100
100
100
100
100
100
100
100
100
100
100
100
100
389.228
367.772
346.576
325.805
305.616
286.152
267.537
249.878
233.262
217.753
203.393
190.206
178.192
167.336
157.604
148.95
141.317
134.638
128.84
123.848
119.583
115.97
112.932
110.398
108.302
106.582
105.181
104.049
103.142
102.421
101.852
101.406
101.06
100.794
100.59
100.435
100.319
100.232
100.167
100.12
100.085
100.06
100.042
100.029
100.02
100.014
100.01
100.006
100.004
100.003
100.002
100.001
100.001
100.001
100
100
100
100
100
100
100
100
100
100
100
100
100
100
100
100
100
100
100
100
100
389.229
367.773
346.578
325.808
305.62
286.155
267.541
249.883
233.267
217.758
203.398
190.211
178.197
167.34
157.608
148.954
141.321
134.641
128.843
123.85
119.586
115.972
112.934
110.4
108.304
106.583
105.182
104.05
103.143
102.421
101.852
101.406
101.06
100.794
100.59
100.435
100.319
100.232
100.167
100.12
100.085
100.06
100.042
100.029
100.02
100.014
100.01
100.006
100.004
100.003
100.002
100.001
100.001
100.001
100
100
100
100
100
100
100
100
100
100
100
100
100
100
100
100
100
100
100
100
100
389.229
367.774
346.579
325.81
305.622
286.158
267.544
249.886
233.27
217.761
203.402
190.214
178.2
167.344
157.611
148.957
141.323
134.643
128.845
123.852
119.587
115.973
112.935
110.401
108.304
106.584
105.182
104.05
103.143
102.422
101.852
101.407
101.061
100.794
100.59
100.435
100.319
100.232
100.167
100.12
100.085
100.06
100.042
100.029
100.02
100.014
100.01
100.006
100.004
100.003
100.002
100.001
100.001
100.001
100
100
100
100
100
100
100
100
100
100
100
100
100
100
100
100
100
100
100
100
100
389.229
367.775
346.58
325.811
305.624
286.16
267.546
249.888
233.273
217.764
203.404
190.217
178.203
167.346
157.613
148.959
141.325
134.645
128.847
123.854
119.588
115.974
112.936
110.402
108.305
106.584
105.183
104.051
103.143
102.422
101.852
101.407
101.061
100.794
100.59
100.435
100.319
100.232
100.167
100.12
100.085
100.06
100.042
100.029
100.02
100.014
100.01
100.006
100.004
100.003
100.002
100.001
100.001
100.001
100
100
100
100
100
100
100
100
100
100
100
100
100
100
100
100
100
100
100
100
100
389.229
367.775
346.581
325.812
305.625
286.162
267.548
249.89
233.274
217.765
203.406
190.219
178.205
167.348
157.615
148.96
141.326
134.646
128.848
123.854
119.589
115.975
112.936
110.402
108.306
106.585
105.183
104.051
103.144
102.422
101.853
101.407
101.061
100.794
100.59
100.435
100.319
100.232
100.167
100.12
100.085
100.06
100.042
100.029
100.02
100.014
100.01
100.006
100.004
100.003
100.002
100.001
100.001
100.001
100
100
100
100
100
100
100
100
100
100
100
100
100
100
100
100
100
100
100
100
100
389.229
367.776
346.581
325.813
305.626
286.162
267.549
249.891
233.275
217.767
203.408
190.22
178.206
167.349
157.616
148.961
141.327
134.647
128.848
123.855
119.59
115.975
112.937
110.403
108.306
106.585
105.183
104.051
103.144
102.422
101.853
101.407
101.061
100.794
100.59
100.435
100.319
100.232
100.167
100.12
100.085
100.06
100.042
100.029
100.02
100.014
100.01
100.006
100.004
100.003
100.002
100.001
100.001
100.001
100
100
100
100
100
100
100
100
100
100
100
100
100
100
100
100
100
100
100
100
100
389.229
367.776
346.582
325.813
305.626
286.163
267.549
249.892
233.276
217.768
203.408
190.221
178.207
167.349
157.617
148.962
141.328
134.648
128.849
123.856
119.59
115.976
112.937
110.403
108.306
106.585
105.184
104.051
103.144
102.422
101.853
101.407
101.061
100.794
100.59
100.435
100.319
100.232
100.167
100.12
100.085
100.06
100.042
100.029
100.02
100.014
100.01
100.006
100.004
100.003
100.002
100.001
100.001
100.001
100
100
100
100
100
100
100
100
100
100
100
100
100
100
100
100
100
100
100
100
100
389.23
367.776
346.582
325.813
305.627
286.164
267.55
249.892
233.277
217.768
203.409
190.221
178.207
167.35
157.617
148.963
141.328
134.648
128.849
123.856
119.59
115.976
112.937
110.403
108.306
106.585
105.184
104.051
103.144
102.422
101.853
101.407
101.061
100.794
100.59
100.435
100.319
100.232
100.167
100.12
100.085
100.06
100.042
100.029
100.02
100.014
100.01
100.006
100.004
100.003
100.002
100.001
100.001
100.001
100
100
100
100
100
100
100
100
100
100
100
100
100
100
100
100
100
100
100
100
100
389.23
367.776
346.582
325.814
305.627
286.164
267.55
249.893
233.277
217.768
203.409
190.222
178.208
167.35
157.618
148.963
141.329
134.648
128.849
123.856
119.591
115.976
112.937
110.403
108.306
106.585
105.184
104.051
103.144
102.422
101.853
101.407
101.061
100.794
100.59
100.435
100.319
100.232
100.167
100.12
100.085
100.06
100.042
100.029
100.02
100.014
100.01
100.006
100.004
100.003
100.002
100.001
100.001
100.001
100
100
100
100
100
100
100
100
100
100
100
100
100
100
100
100
100
100
100
100
100
389.23
367.776
346.582
325.814
305.627
286.164
267.551
249.893
233.278
217.769
203.41
190.222
178.208
167.351
157.618
148.963
141.329
134.648
128.85
123.856
119.591
115.976
112.937
110.403
108.306
106.585
105.184
104.051
103.144
102.422
101.853
101.407
101.061
100.794
100.59
100.435
100.319
100.232
100.167
100.12
100.085
100.06
100.042
100.029
100.02
100.014
100.01
100.006
100.004
100.003
100.002
100.001
100.001
100.001
100
100
100
100
100
100
100
100
100
100
100
100
100
100
100
100
100
100
100
100
100
389.23
367.776
346.582
325.814
305.627
286.164
267.551
249.893
233.278
217.769
203.41
190.222
178.208
167.351
157.618
148.963
141.329
134.649
128.85
123.856
119.591
115.976
112.938
110.403
108.306
106.585
105.184
104.052
103.144
102.422
101.853
101.407
101.061
100.794
100.59
100.435
100.319
100.232
100.167
100.12
100.085
100.06
100.042
100.029
100.02
100.014
100.01
100.006
100.004
100.003
100.002
100.001
100.001
100.001
100
100
100
100
100
100
100
100
100
100
100
100
100
100
100
100
100
100
100
100
100
389.23
367.776
346.582
325.814
305.627
286.164
267.551
249.893
233.278
217.769
203.41
190.222
178.208
167.351
157.618
148.963
141.329
134.649
128.85
123.856
119.591
115.976
112.938
110.403
108.306
106.585
105.184
104.052
103.144
102.422
101.853
101.407
101.061
100.794
100.59
100.435
100.319
100.232
100.167
100.12
100.085
100.06
100.042
100.029
100.02
100.014
100.01
100.006
100.004
100.003
100.002
100.001
100.001
100.001
100
100
100
100
100
100
100
100
100
100
100
100
100
100
100
100
100
100
100
100
100
389.23
367.776
346.582
325.814
305.627
286.164
267.551
249.893
233.278
217.769
203.41
190.222
178.208
167.351
157.618
148.964
141.329
134.649
128.85
123.856
119.591
115.976
112.938
110.403
108.306
106.585
105.184
104.052
103.144
102.422
101.853
101.407
101.061
100.794
100.59
100.435
100.319
100.232
100.167
100.12
100.085
100.06
100.042
100.029
100.02
100.014
100.01
100.006
100.004
100.003
100.002
100.001
100.001
100.001
100
100
100
100
100
100
100
100
100
100
100
100
100
100
100
100
100
100
100
100
100
389.23
367.776
346.582
325.814
305.627
286.164
267.551
249.893
233.278
217.769
203.41
190.222
178.208
167.351
157.618
148.964
141.329
134.649
128.85
123.857
119.591
115.976
112.938
110.403
108.306
106.585
105.184
104.052
103.144
102.422
101.853
101.407
101.061
100.794
100.59
100.435
100.319
100.232
100.167
100.12
100.085
100.06
100.042
100.029
100.02
100.014
100.01
100.006
100.004
100.003
100.002
100.001
100.001
100.001
100
100
100
100
100
100
100
100
100
100
100
100
100
100
100
100
100
100
100
100
100
389.23
367.776
346.582
325.814
305.627
286.164
267.551
249.893
233.278
217.769
203.41
190.222
178.208
167.351
157.618
148.964
141.329
134.649
128.85
123.857
119.591
115.976
112.938
110.403
108.307
106.585
105.184
104.052
103.144
102.422
101.853
101.407
101.061
100.794
100.59
100.435
100.319
100.232
100.167
100.12
100.085
100.06
100.042
100.029
100.02
100.014
100.01
100.006
100.004
100.003
100.002
100.001
100.001
100.001
100
100
100
100
100
100
100
100
100
100
100
100
100
100
100
100
100
100
100
100
100
389.23
367.776
346.582
325.814
305.627
286.164
267.551
249.893
233.278
217.769
203.41
190.223
178.208
167.351
157.618
148.964
141.329
134.649
128.85
123.857
119.591
115.976
112.938
110.403
108.307
106.585
105.184
104.052
103.144
102.422
101.853
101.407
101.061
100.794
100.59
100.435
100.319
100.232
100.167
100.12
100.085
100.06
100.042
100.029
100.02
100.014
100.01
100.006
100.004
100.003
100.002
100.001
100.001
100.001
100
100
100
100
100
100
100
100
100
100
100
100
100
100
100
100
100
100
100
100
100
389.23
367.776
346.582
325.814
305.627
286.164
267.551
249.893
233.278
217.769
203.41
190.223
178.208
167.351
157.618
148.964
141.329
134.649
128.85
123.857
119.591
115.976
112.938
110.403
108.307
106.585
105.184
104.052
103.144
102.422
101.853
101.407
101.061
100.794
100.59
100.435
100.319
100.232
100.167
100.12
100.085
100.06
100.042
100.029
100.02
100.014
100.01
100.006
100.004
100.003
100.002
100.001
100.001
100.001
100
100
100
100
100
100
100
100
100
100
100
100
100
100
100
100
100
100
100
100
100
389.23
367.776
346.582
325.814
305.627
286.164
267.551
249.893
233.278
217.769
203.41
190.223
178.208
167.351
157.618
148.964
141.329
134.649
128.85
123.857
119.591
115.976
112.938
110.403
108.307
106.585
105.184
104.052
103.144
102.422
101.853
101.407
101.061
100.794
100.59
100.435
100.319
100.232
100.167
100.12
100.085
100.06
100.042
100.029
100.02
100.014
100.01
100.006
100.004
100.003
100.002
100.001
100.001
100.001
100
100
100
100
100
100
100
100
100
100
100
100
100
100
100
100
100
100
100
100
100
389.23
367.776
346.582
325.814
305.627
286.164
267.551
249.893
233.278
217.769
203.41
190.223
178.208
167.351
157.618
148.964
141.329
134.649
128.85
123.857
119.591
115.976
112.938
110.403
108.307
106.585
105.184
104.052
103.144
102.422
101.853
101.407
101.061
100.794
100.59
100.435
100.319
100.232
100.167
100.12
100.085
100.06
100.042
100.029
100.02
100.014
100.01
100.006
100.004
100.003
100.002
100.001
100.001
100.001
100
100
100
100
100
100
100
100
100
100
100
100
100
100
100
100
100
100
100
100
100
389.23
367.776
346.582
325.814
305.627
286.164
267.551
249.893
233.278
217.769
203.41
190.223
178.208
167.351
157.618
148.964
141.329
134.649
128.85
123.857
119.591
115.976
112.938
110.403
108.307
106.585
105.184
104.052
103.144
102.422
101.853
101.407
101.061
100.794
100.59
100.435
100.319
100.232
100.167
100.12
100.085
100.06
100.042
100.029
100.02
100.014
100.01
100.006
100.004
100.003
100.002
100.001
100.001
100.001
100
100
100
100
100
100
100
100
100
100
100
100
100
100
100
100
100
100
100
100
100
389.23
367.776
346.582
325.814
305.627
286.164
267.551
249.893
233.278
217.769
203.41
190.223
178.208
167.351
157.618
148.964
141.329
134.649
128.85
123.857
119.591
115.976
112.938
110.403
108.307
106.585
105.184
104.052
103.144
102.422
101.853
101.407
101.061
100.794
100.59
100.435
100.319
100.232
100.167
100.12
100.085
100.06
100.042
100.029
100.02
100.014
100.01
100.006
100.004
100.003
100.002
100.001
100.001
100.001
100
100
100
100
100
100
100
100
100
100
100
100
100
100
100
100
100
100
100
100
100
389.23
367.776
346.582
325.814
305.627
286.164
267.551
249.893
233.278
217.769
203.41
190.223
178.208
167.351
157.618
148.964
141.329
134.649
128.85
123.857
119.591
115.976
112.938
110.403
108.307
106.585
105.184
104.052
103.144
102.422
101.853
101.407
101.061
100.794
100.59
100.435
100.319
100.232
100.167
100.12
100.085
100.06
100.042
100.029
100.02
100.014
100.01
100.006
100.004
100.003
100.002
100.001
100.001
100.001
100
100
100
100
100
100
100
100
100
100
100
100
100
100
100
100
100
100
100
100
100
389.23
367.776
346.582
325.814
305.627
286.164
267.551
249.893
233.278
217.769
203.41
190.223
178.208
167.351
157.618
148.964
141.329
134.649
128.85
123.857
119.591
115.976
112.938
110.403
108.307
106.585
105.184
104.052
103.144
102.422
101.853
101.407
101.061
100.794
100.59
100.435
100.319
100.232
100.167
100.12
100.085
100.06
100.042
100.029
100.02
100.014
100.01
100.006
100.004
100.003
100.002
100.001
100.001
100.001
100
100
100
100
100
100
100
100
100