/*--------------------------------*- C++ -*----------------------------------*\
  =========                 |
  \\      /  F ield         | OpenFOAM: The Open Source CFD Toolbox
   \\    /   O peration     | Website:  https://openfoam.org
    \\  /    A nd           | Version:  10
     \\/     M anipulation  |
\*---------------------------------------------------------------------------*/
FoamFile
{
    format      ascii;
    class       volScalarField;
    location    "35";
    object      gradTx;
}
// * * * * * * * * * * * * * * * * * * * * * * * * * * * * * * * * * * * * * //

dimensions      [0 -1 0 1 0 0 0];

internalField   nonuniform List<scalar> 
11250
(
14094.3
7509.51
4388
2665.17
1624.53
973.277
566.291
317.791
171.335
88.5592
43.8409
20.781
9.43369
4.1034
1.7114
0.684945
0.263285
0.0972843
0.034584
0.0118381
0.00390475
0.00124202
0.00038122
0.000112983
3.23512e-05
8.95485e-06
2.39743e-06
6.21122e-07
1.55773e-07
3.78261e-08
8.87204e-09
2.01852e-09
4.26973e-10
6.69547e-11
-8.78094e-12
-4.39047e-12
0
-2.19524e-12
1.09762e-12
-4.39047e-12
-9.87856e-12
6.58571e-12
1.09762e-12
-5.48809e-12
-5.48809e-12
1.09762e-12
0
-4.39047e-12
2.19524e-12
0
1.09762e-12
0
1.4269e-11
0
1.09762e-12
0
1.09762e-12
-2.19524e-12
0
2.19524e-12
0
1.09762e-12
0
-2.19524e-11
9.87856e-12
-1.09762e-12
-1.09762e-12
0
1.09762e-12
0
-5.48809e-12
0
-7.68332e-12
0
-9.87856e-12
3897.38
4128.92
3109.95
2121.28
1371.58
849.082
503.813
286.298
155.669
80.9452
40.2482
19.1417
8.71214
3.79741
1.58647
0.635839
0.244703
0.0905122
0.0322061
0.0110332
0.00364204
0.00115927
0.00035606
0.000105593
3.0254e-05
8.37938e-06
2.24468e-06
5.81899e-07
1.46038e-07
3.54959e-08
8.3364e-09
1.89888e-09
4.11607e-10
7.57356e-11
1.20738e-11
0
-8.78094e-12
1.09762e-12
-1.09762e-12
0
0
-4.39047e-12
-1.09762e-12
-1.09762e-12
0
0
-1.09762e-12
0
-2.19523e-12
0
-1.75619e-11
0
-1.4269e-11
8.78094e-12
-1.31714e-11
-6.5857e-12
-1.4269e-11
0
-4.39047e-12
0
0
-1.09762e-12
0
2.41476e-11
5.48809e-12
0
-1.09762e-12
1.09762e-12
-1.09762e-12
0
-8.78094e-12
0
8.78094e-12
2.19523e-12
0
1291.27
2076.38
1914.67
1468.02
1019.33
660.192
403.57
234.048
129.104
67.8415
34.0002
16.269
7.44032
3.25563
1.36446
0.548317
0.2115
0.0783851
0.0279397
0.00958667
0.00316909
0.00101008
0.000310632
9.22328e-05
2.64571e-05
7.33609e-06
1.96743e-06
5.10588e-07
1.28305e-07
3.12382e-08
7.36831e-09
1.66948e-09
3.69897e-10
1.11957e-10
4.71976e-11
7.68332e-12
0
-1.09762e-12
-2.19524e-12
2.19524e-12
9.87856e-12
-2.19524e-12
0
7.68332e-12
5.48809e-12
7.68332e-12
1.09762e-12
5.48809e-12
0
0
1.09762e-12
-1.09762e-12
4.39047e-12
8.78094e-12
0
-2.19523e-12
0
4.39047e-12
0
-2.19524e-12
0
0
0
-1.4269e-11
-1.09762e-11
2.19524e-12
3.29285e-12
2.19523e-12
0
0
3.29285e-12
8.78094e-12
0
-1.09762e-12
8.78094e-12
506.884
1038.81
1103.7
930.726
689.918
467.705
295.329
175.351
98.4263
52.4077
26.5342
12.7988
5.8911
2.59134
1.0908
0.439969
0.170247
0.0632718
0.0226086
0.00777489
0.00257549
0.000822479
0.000253404
7.53741e-05
2.16583e-05
6.01558e-06
1.61594e-06
4.20041e-07
1.05719e-07
2.57721e-08
6.10056e-09
1.39288e-09
3.13919e-10
8.56142e-11
3.7319e-11
1.4269e-11
8.78094e-12
0
1.09762e-12
0
0
0
1.09762e-12
0
0
0
0
1.09762e-12
0
0
1.53666e-11
0
1.09762e-12
-8.78094e-12
1.31714e-11
5.48809e-12
1.4269e-11
-4.39047e-12
5.48809e-12
6.58571e-12
0
-2.19523e-12
0
-1.09762e-12
-4.39047e-12
3.29285e-12
0
1.09762e-12
0
2.19524e-12
5.48809e-12
0
-1.09762e-12
-1.09762e-12
-5.48809e-12
224.374
524.471
612.532
555.19
434.591
306.952
199.928
121.549
69.4847
37.5303
19.2187
9.35535
4.33844
1.92024
0.812546
0.329204
0.127882
0.0476906
0.0170938
0.00589505
0.00195793
0.00062682
0.000193583
5.77136e-05
1.66211e-05
4.62672e-06
1.24556e-06
3.24447e-07
8.18186e-08
1.9992e-08
4.75378e-09
1.11408e-09
2.60135e-10
4.06118e-11
4.39047e-12
0
0
-1.97571e-11
2.19523e-12
2.19523e-12
5.48809e-12
-1.09762e-12
8.78094e-12
0
-2.19523e-12
-1.09762e-11
-4.39047e-12
-2.19523e-12
1.09762e-12
3.29285e-12
8.78094e-12
1.09762e-12
-5.48809e-12
-9.87856e-12
0
5.48809e-12
1.09762e-12
-8.78094e-12
-5.48809e-12
0
0
0
0
1.86595e-11
0
-1.09762e-12
-1.09762e-12
-3.29285e-12
0
-1.09762e-12
-9.87856e-12
-1.20738e-11
-7.68332e-12
-1.09762e-12
-1.09762e-12
106.023
265.666
330.186
315.632
258.068
188.753
126.41
78.5749
45.7224
25.052
12.9793
6.37913
2.98203
1.32882
0.565541
0.230279
0.0898483
0.033639
0.0121005
0.00418692
0.00139495
0.000447919
0.000138731
4.14769e-05
1.19781e-05
3.34339e-06
9.02506e-07
2.35716e-07
5.9594e-08
1.4584e-08
3.46847e-09
7.85894e-10
1.81107e-10
3.29285e-11
-1.31714e-11
-1.31714e-11
0
0
1.09762e-11
1.20738e-11
0
0
-9.87856e-12
-1.09762e-12
1.09762e-12
1.09762e-12
0
1.09762e-12
-2.19524e-12
-2.19523e-12
-6.58571e-12
-1.09762e-12
0
-3.29285e-12
-1.09762e-12
0
-1.09762e-12
2.19524e-12
1.09762e-12
-6.58571e-12
1.09762e-12
2.19523e-12
1.09762e-12
0
-1.09762e-12
-4.39047e-12
0
0
0
-2.19524e-12
4.39047e-12
1.09762e-12
-4.39047e-12
0
0
51.3618
133.639
173.072
172.011
145.531
109.571
75.1723
47.6682
28.1995
15.6639
8.20858
4.07332
1.91971
0.861433
0.368849
0.15099
0.0591923
0.0222569
0.00803799
0.00279157
0.000933352
0.000300722
9.34506e-05
2.80307e-05
8.12117e-06
2.27412e-06
6.15835e-07
1.61378e-07
4.09356e-08
1.0041e-08
2.37963e-09
5.21368e-10
1.04274e-10
1.97571e-11
-1.4269e-11
-3.29285e-12
-1.09762e-12
2.19524e-11
0
0
-9.87856e-12
2.19524e-12
-8.78094e-12
-9.87856e-12
-4.39047e-12
2.19524e-12
5.48809e-12
1.09762e-12
-1.09762e-12
-4.39047e-12
-9.87856e-12
0
0
-1.09762e-12
0
-9.87856e-12
-1.09762e-12
-7.68332e-12
4.39047e-12
-4.39047e-12
0
-2.19523e-12
1.09762e-12
-5.48809e-12
2.19523e-12
2.19524e-12
0
0
-1.20738e-11
1.09762e-12
1.31714e-11
2.19524e-12
0
-7.68332e-12
0
24.8759
66.1403
88.0682
90.0693
78.2656
60.3409
42.2569
27.271
16.3759
9.21264
4.88045
2.4444
1.16129
0.524756
0.226074
0.0930521
0.0366597
0.0138471
0.005022
0.00175113
0.000587746
0.000190081
5.92872e-05
1.78485e-05
5.19001e-06
1.45858e-06
3.96439e-07
1.04279e-07
2.65525e-08
6.55607e-09
1.56301e-09
3.74288e-10
9.21999e-11
1.4269e-11
7.68332e-12
2.19523e-12
-8.78094e-12
-9.87856e-12
-1.20738e-11
-1.20738e-11
-1.09762e-12
0
9.87856e-12
0
-5.48809e-12
-9.87856e-12
0
-1.09762e-12
1.09762e-12
-3.29285e-12
5.48809e-12
0
0
4.39047e-12
1.09762e-12
4.39047e-12
2.305e-11
3.29285e-12
-3.29285e-12
0
0
0
-3.29285e-12
0
0
0
7.68332e-12
-1.09762e-12
0
1.09762e-12
-1.09762e-12
0
6.5857e-12
0
4.39047e-12
11.868
31.9774
43.4076
45.3488
40.2383
31.6291
22.5376
14.7689
8.98763
5.11516
2.73725
1.38308
0.662166
0.301261
0.13058
0.0540426
0.0213983
0.00812034
0.00295804
0.0010358
0.00034908
0.00011335
3.54953e-05
1.07283e-05
3.13196e-06
8.83679e-07
2.41129e-07
6.36849e-08
1.63051e-08
4.06009e-09
9.74684e-10
2.21719e-10
4.82952e-11
4.39047e-12
3.29285e-12
-2.19524e-12
0
-2.19524e-12
-1.09762e-12
-5.48809e-12
5.48809e-12
-1.09762e-12
-3.29285e-12
9.87856e-12
0
0
-3.29285e-12
0
0
-1.20738e-11
-2.19524e-12
0
-1.09762e-12
-3.29285e-12
0
8.78094e-12
1.4269e-11
1.4269e-11
-4.39047e-12
4.39047e-12
-1.09762e-12
2.19523e-12
8.78094e-12
0
-1.09762e-12
0
1.4269e-11
2.19523e-12
1.31714e-11
-1.09762e-12
2.19523e-12
5.48809e-12
6.58571e-12
8.78094e-12
2.19524e-12
5.52873
15.0275
20.6821
21.9573
19.8069
15.8174
11.4368
7.59425
4.67633
2.68946
1.4526
0.74003
0.356899
0.163444
0.0712648
0.0296541
0.0118006
0.00449925
0.00164633
0.000578988
0.000195956
6.38958e-05
2.00924e-05
6.09817e-06
1.78769e-06
5.06525e-07
1.38794e-07
3.68185e-08
9.47244e-09
2.37963e-09
5.68566e-10
1.13055e-10
-8.78094e-12
-2.305e-11
-6.5857e-12
-2.19524e-12
7.68332e-12
8.78094e-12
0
-6.58571e-12
-5.48809e-12
-2.19524e-12
1.09762e-12
0
5.48809e-12
8.78094e-12
-1.09762e-12
-4.39047e-12
1.09762e-12
4.39047e-12
-2.19524e-12
-1.09762e-12
0
0
0
-5.48809e-12
-1.97571e-11
-1.09762e-12
2.19523e-12
-1.09762e-12
-1.09762e-12
0
1.09762e-12
-1.09762e-12
-1.09762e-12
-1.09762e-12
-6.58571e-12
0
-1.09762e-12
0
1.09762e-12
0
-6.58571e-12
0
1.09762e-12
2.50172
6.84132
9.51166
10.2237
9.34449
7.56001
5.53415
3.71695
2.31272
1.34266
0.731344
0.375433
0.182311
0.0840127
0.0368407
0.0154107
0.00616283
0.00236071
0.000867686
0.000306483
0.000104173
3.41125e-05
1.07724e-05
3.28337e-06
9.66623e-07
2.75084e-07
7.5706e-08
2.01643e-08
5.20819e-09
1.30397e-09
3.227e-10
9.87856e-11
2.08547e-11
1.09762e-12
1.31714e-11
3.29285e-12
2.19523e-12
-1.20738e-11
-6.5857e-12
5.48809e-12
1.75619e-11
0
3.29285e-12
1.09762e-12
6.5857e-12
0
3.29285e-12
-5.48809e-12
-1.09762e-12
1.20738e-11
2.19523e-12
0
2.19523e-12
4.39047e-12
2.19523e-12
1.09762e-12
-1.4269e-11
0
4.39047e-12
-1.09762e-12
3.29285e-12
1.4269e-11
-8.78094e-12
0
0
-9.87856e-12
-3.7319e-11
-1.09762e-12
0
0
-3.29285e-12
-5.48809e-12
0
-2.19523e-12
-3.29285e-12
1.09607
3.01066
4.2181
4.578
4.2289
3.45837
2.55825
1.73527
1.08965
0.637952
0.350178
0.18103
0.0884751
0.041012
0.0180824
0.00760245
0.0030548
0.0011755
0.000433959
0.000153941
5.25458e-05
1.7279e-05
5.47944e-06
1.67713e-06
4.95838e-07
1.41707e-07
3.91729e-08
1.04768e-08
2.71331e-09
6.82718e-10
1.844e-10
6.14666e-11
5.26856e-11
2.96357e-11
5.48809e-12
1.09762e-12
-2.19524e-12
1.09762e-12
0
6.58571e-12
7.68332e-12
2.19524e-12
4.39047e-12
7.68332e-12
0
1.09762e-12
0
1.20738e-11
1.09762e-12
2.19523e-12
4.39047e-12
4.39047e-12
0
1.09762e-12
-1.09762e-12
-1.09762e-12
-3.29285e-12
0
-1.09762e-12
2.19524e-12
0
-1.09762e-12
5.48809e-12
0
-1.09762e-11
-5.48809e-12
-2.19524e-12
-1.09762e-12
0
1.09762e-12
0
0
4.39047e-12
0
1.09762e-12
0.464109
1.27907
1.80278
1.97177
1.83727
1.5161
1.13156
0.77416
0.490085
0.289107
0.15981
0.0831534
0.0408835
0.0190565
0.00844555
0.003568
0.00144026
0.000556646
0.000206368
7.3509e-05
2.51937e-05
8.31809e-06
2.64842e-06
8.13906e-07
2.41611e-07
6.93266e-08
1.92566e-08
5.17197e-09
1.33141e-09
3.23797e-10
9.00046e-11
2.85381e-11
8.78094e-12
6.58571e-12
-1.97571e-11
0
1.09762e-11
1.64643e-11
9.87856e-12
0
-2.305e-11
0
-1.09762e-12
-3.29285e-12
-1.09762e-12
0
-1.09762e-12
4.39047e-12
0
1.09762e-12
0
1.09762e-12
0
0
-1.09762e-12
0
1.09762e-12
-8.78094e-12
-7.68332e-12
-3.29285e-12
-1.09762e-12
-1.4269e-11
1.09762e-12
-1.20738e-11
-1.09762e-12
1.09762e-11
2.305e-11
-2.19523e-12
0
0
-1.09762e-12
-4.39047e-12
-8.78094e-12
1.09762e-12
6.58571e-12
0.189731
0.52426
0.742436
0.817138
0.766893
0.637673
0.479606
0.330603
0.210805
0.125208
0.0696559
0.0364611
0.0180268
0.00844639
0.00376156
0.00159643
0.000647216
0.00025118
9.34936e-05
3.34324e-05
1.1502e-05
3.81187e-06
1.21822e-06
3.75772e-07
1.1195e-07
3.22359e-08
8.98729e-09
2.42244e-09
6.15763e-10
1.383e-10
3.29285e-11
1.86595e-11
-7.68332e-12
-1.4269e-11
-1.4269e-11
-3.29285e-12
2.19523e-12
0
0
0
-2.19523e-12
-1.09762e-11
-6.5857e-12
-7.68332e-12
-5.48809e-12
-6.5857e-12
-1.09762e-12
-6.5857e-12
0
-1.09762e-12
0
-2.19523e-12
-1.09762e-12
1.09762e-12
0
0
4.39047e-12
0
1.09762e-12
0
-1.09762e-12
-1.09762e-12
-6.5857e-12
0
1.20738e-11
8.78094e-12
2.19523e-12
0
-1.09762e-12
-2.19523e-12
-6.5857e-12
4.39047e-12
0
0
0
0.0748514
0.207262
0.294652
0.325987
0.3078
0.257612
0.195057
0.135355
0.086868
0.0519164
0.0290526
0.015292
0.00759997
0.00357834
0.00160089
0.000682356
0.000277761
0.000108214
4.0428e-05
1.45083e-05
5.00871e-06
1.66558e-06
5.34063e-07
1.65264e-07
4.93752e-08
1.42449e-08
3.96679e-09
1.0592e-09
2.68916e-10
6.25642e-11
1.86595e-11
3.29285e-12
-5.48809e-12
-3.29285e-12
8.78094e-12
0
-1.97571e-11
3.29285e-12
-9.87856e-12
0
5.48809e-12
1.09762e-12
-1.31714e-11
2.19523e-12
0
-5.48809e-12
4.39047e-12
0
-5.48809e-12
-1.09762e-12
0
-3.29285e-12
-8.78094e-12
0
-1.4269e-11
-1.09762e-12
0
7.68332e-12
8.78094e-12
6.58571e-12
1.09762e-12
-4.39047e-12
0
1.31714e-11
9.87856e-12
0
-1.09762e-12
2.19523e-12
-4.39047e-12
0
-7.68332e-12
3.29285e-12
8.78094e-12
9.87856e-12
-3.29285e-12
0.0284955
0.0790398
0.112728
0.125264
0.11889
0.100072
0.0762213
0.0532083
0.0343491
0.0206458
0.0116166
0.00614617
0.00306951
0.00145187
0.00065233
0.000279162
0.000114064
4.45957e-05
1.67165e-05
6.0181e-06
2.08399e-06
6.95051e-07
2.23492e-07
6.93541e-08
2.07878e-08
6.00177e-09
1.66289e-09
4.40145e-10
1.16347e-10
2.85381e-11
1.64643e-11
-3.29285e-12
-7.68332e-12
-1.86595e-11
-2.19523e-12
0
0
4.39047e-12
0
-1.09762e-12
0
9.87856e-12
1.09762e-12
0
5.48809e-12
5.48809e-12
1.09762e-12
2.19524e-12
-1.09762e-12
0
1.09762e-12
-1.09762e-12
0
-2.19524e-12
0
-4.39047e-12
-4.39047e-12
0
8.78094e-12
-1.09762e-12
0
1.09762e-12
0
-2.19524e-12
5.48809e-12
-4.39047e-12
-1.09762e-12
-1.09762e-12
0
1.09762e-12
-4.39047e-12
-7.68332e-12
-2.19524e-12
2.19523e-12
5.48809e-12
0.0104701
0.029084
0.041594
0.0463938
0.0442332
0.0374195
0.0286531
0.0201109
0.0130531
0.00788733
0.00446061
0.00237156
0.00118986
0.000565228
0.00025498
0.000109524
4.4905e-05
1.76125e-05
6.62144e-06
2.39034e-06
8.29888e-07
2.77457e-07
8.94295e-08
2.78246e-08
8.34848e-09
2.41366e-09
6.78328e-10
1.86595e-10
3.51238e-11
1.64643e-11
-1.75619e-11
-2.85381e-11
-5.48809e-12
-7.68332e-12
6.5857e-12
5.48809e-12
3.29285e-12
-4.39047e-12
8.78094e-12
-4.39047e-12
1.09762e-12
-1.09762e-11
1.4269e-11
5.48809e-12
-1.53666e-11
6.5857e-12
-5.48809e-12
0
7.68332e-12
0
-1.09762e-12
4.39047e-12
8.78094e-12
0
1.4269e-11
2.19523e-12
1.09762e-12
3.29285e-12
0
-2.19523e-12
-2.19523e-12
5.48809e-12
1.09762e-12
0
-9.87856e-12
-1.09762e-12
0
-3.29285e-12
4.39047e-12
-1.09762e-12
-3.29285e-12
5.48809e-12
-3.29285e-12
-9.87856e-12
-1.09762e-12
0.00371431
0.0103307
0.0148097
0.0165736
0.0158658
0.0134829
0.0103745
0.00731829
0.00477409
0.00289917
0.00164756
0.000880019
0.000443457
0.000211519
9.57777e-05
4.12819e-05
1.69783e-05
6.67791e-06
2.51693e-06
9.10695e-07
3.16816e-07
1.06102e-07
3.42665e-08
1.06765e-08
3.19187e-09
9.1212e-10
2.49159e-10
4.71976e-11
3.29285e-12
9.87856e-12
-2.41476e-11
-2.305e-11
-8.78094e-12
8.78094e-12
7.68332e-12
0
-1.09762e-12
-5.48809e-12
-1.09762e-12
1.09762e-12
0
1.09762e-12
0
0
-1.53666e-11
-2.19524e-12
0
-3.29285e-12
1.09762e-12
0
0
0
0
-1.09762e-12
-2.19524e-12
5.48809e-12
-1.09762e-12
-2.19524e-12
-9.87856e-12
0
0
-4.39047e-12
0
2.19524e-12
-4.39047e-12
1.09762e-12
8.78094e-12
4.39047e-12
0
0
9.87856e-12
1.20738e-11
5.48809e-12
-5.48809e-12
-4.39047e-12
0.0012728
0.00354408
0.00509148
0.00571503
0.00549113
0.00468604
0.00362211
0.0025672
0.0016828
0.00102681
0.000586248
0.000314533
0.000159164
7.62124e-05
3.46316e-05
1.49741e-05
6.17572e-06
2.43495e-06
9.19674e-07
3.33386e-07
1.16155e-07
3.89402e-08
1.25754e-08
3.89544e-09
1.17226e-09
3.24895e-10
6.58571e-11
1.09762e-12
-1.09762e-12
-1.20738e-11
8.78094e-12
1.53666e-11
1.09762e-12
1.4269e-11
-1.20738e-11
-3.29285e-12
5.48809e-12
-1.09762e-12
0
5.48809e-12
-1.09762e-12
1.53666e-11
-1.09762e-12
-5.48809e-12
1.4269e-11
1.09762e-12
1.31714e-11
0
6.58571e-12
1.09762e-12
0
0
0
0
1.09762e-12
-2.19523e-12
-1.09762e-12
-1.09762e-12
-1.09762e-12
2.19524e-12
-1.09762e-12
-8.78094e-12
-1.09762e-12
0
-8.78094e-12
-9.87856e-12
0
2.19523e-12
4.39047e-12
1.09762e-12
1.31714e-11
-4.39047e-12
3.29285e-12
-1.09762e-12
-1.09762e-12
0.00042152
0.00117492
0.00169122
0.00190361
0.00183533
0.00157244
0.00122069
0.000869127
0.00057237
0.000350877
0.00020124
0.000108438
5.50958e-05
2.64795e-05
1.20726e-05
5.23515e-06
2.16448e-06
8.55167e-07
3.23523e-07
1.17414e-07
4.09433e-08
1.37411e-08
4.43657e-09
1.35117e-09
4.13802e-10
1.20738e-10
1.31714e-11
1.09762e-12
-1.4269e-11
-2.96357e-11
-1.53666e-11
5.48809e-12
8.78094e-12
1.09762e-11
-1.09762e-12
0
1.09762e-12
-8.78094e-12
1.09762e-12
0
-1.09762e-12
6.5857e-12
-1.09762e-12
0
1.53666e-11
-8.78094e-12
1.09762e-12
1.09762e-12
-2.19523e-12
-8.78094e-12
0
-1.09762e-12
0
1.09762e-12
3.29285e-12
3.29285e-12
1.86595e-11
0
2.19523e-12
0
0
-6.5857e-12
-1.09762e-12
3.29285e-12
0
-1.09762e-12
-7.68332e-12
0
0
1.09762e-12
-4.39047e-12
-8.78094e-12
0
0
-5.48809e-12
0.000134983
0.000376608
0.000543099
0.000612906
0.000592862
0.000509878
0.000397483
0.000284266
0.000188064
0.000115816
6.6722e-05
3.61062e-05
1.84176e-05
8.88335e-06
4.06285e-06
1.76652e-06
7.31973e-07
2.89678e-07
1.09708e-07
3.98347e-08
1.39145e-08
4.6978e-09
1.53008e-09
4.67585e-10
1.31714e-10
3.7319e-11
1.09762e-12
0
-7.68332e-12
-1.97571e-11
-4.17095e-11
-1.97571e-11
1.09762e-12
1.64643e-11
1.4269e-11
1.09762e-12
-5.48809e-12
-6.58571e-12
0
0
1.09762e-12
1.09762e-12
1.09762e-12
0
-5.48809e-12
-1.09762e-12
-1.09762e-11
-4.39047e-12
-4.39047e-12
0
0
2.19524e-12
-1.09762e-12
2.19524e-12
-1.09762e-12
-1.09762e-12
9.87856e-12
0
0
-2.19524e-12
3.29285e-12
8.78094e-12
0
-1.86595e-11
8.78094e-12
1.09762e-11
0
1.09762e-12
-4.39047e-12
0
-1.20738e-11
0
0
-3.29285e-12
2.19524e-12
4.18185e-05
0.000116783
0.000168708
0.000190874
0.000185221
0.000159889
0.000125159
8.99041e-05
5.9749e-05
3.69633e-05
2.13892e-05
1.16234e-05
5.95203e-06
2.88077e-06
1.32147e-06
5.7598e-07
2.39102e-07
9.47288e-08
3.58954e-08
1.30551e-08
4.56499e-09
1.54874e-09
5.04904e-10
1.80009e-10
3.40261e-11
1.86595e-11
5.48809e-12
1.09762e-12
-6.5857e-12
-1.75619e-11
-2.08547e-11
-1.20738e-11
6.58571e-12
1.53666e-11
1.4269e-11
-1.09762e-12
1.09762e-12
9.87856e-12
1.09762e-12
-1.09762e-12
1.09762e-12
-7.68332e-12
2.19524e-12
-2.19523e-12
0
9.87856e-12
-1.09762e-12
0
0
7.68332e-12
0
1.09762e-12
0
1.09762e-12
-1.09762e-12
-2.19523e-12
-1.86595e-11
-7.68332e-12
-1.09762e-12
0
-1.09762e-12
1.09762e-11
1.09762e-12
-2.19524e-12
-1.09762e-12
-4.39047e-12
9.87856e-12
-1.09762e-12
2.19524e-12
-2.19524e-12
3.29285e-12
0
-2.19524e-12
3.29285e-12
-8.78094e-12
1.25397e-05
3.50504e-05
5.0722e-05
5.75289e-05
5.60003e-05
4.85197e-05
3.8137e-05
2.75151e-05
1.83694e-05
1.14159e-05
6.63516e-06
3.62077e-06
1.86117e-06
9.03824e-07
4.15821e-07
1.81662e-07
7.55413e-08
2.99452e-08
1.13483e-08
4.13912e-09
1.43239e-09
4.82952e-10
1.73424e-10
7.90285e-11
3.51238e-11
8.78094e-12
1.4269e-11
-8.78094e-12
0
-3.29285e-12
2.19523e-12
-7.68332e-12
7.68332e-12
-6.5857e-12
9.87856e-12
3.29285e-12
5.48809e-12
5.48809e-12
0
0
-1.09762e-12
-6.5857e-12
1.09762e-12
0
4.39047e-12
0
2.19523e-12
0
-1.09762e-12
2.19523e-12
1.09762e-12
-2.19523e-12
7.68332e-12
-3.29285e-12
-2.19523e-12
5.48809e-12
-7.68332e-12
1.20738e-11
1.09762e-12
0
1.09762e-12
-2.19523e-12
-1.09762e-12
1.31714e-11
0
1.31714e-11
0
-2.19523e-12
0
1.09762e-12
4.39047e-12
-2.19523e-12
0
2.19523e-12
-1.09762e-12
3.64101e-06
1.01864e-05
1.47661e-05
1.6789e-05
1.63941e-05
1.42565e-05
1.1252e-05
8.15395e-06
5.46851e-06
3.41398e-06
1.99307e-06
1.09211e-06
5.63514e-07
2.74557e-07
1.26668e-07
5.54593e-08
2.31016e-08
9.1684e-09
3.48603e-09
1.27433e-09
4.37949e-10
1.55862e-10
6.91499e-11
2.52452e-11
2.08547e-11
1.31714e-11
-1.09762e-12
-6.58571e-12
1.64643e-11
1.31714e-11
1.09762e-11
-5.48809e-12
-2.305e-11
-1.86595e-11
-1.20738e-11
-2.19524e-12
0
1.09762e-12
-1.09762e-12
2.19524e-12
1.09762e-12
3.29285e-12
-3.29285e-12
2.19523e-12
2.19524e-12
-1.09762e-12
-1.09762e-12
-5.48809e-12
-2.19524e-12
2.19523e-12
-7.68332e-12
-7.68332e-12
-1.09762e-12
0
-1.31714e-11
6.5857e-12
1.09762e-12
1.09762e-11
0
-1.09762e-12
1.09762e-12
0
-1.09762e-12
4.39047e-12
3.29285e-12
4.39047e-12
-9.87856e-12
0
-1.09762e-12
1.09762e-12
1.09762e-12
1.09762e-12
0
1.09762e-12
1.31714e-11
1.02425e-06
2.86809e-06
4.16463e-06
4.7468e-06
4.6497e-06
4.05838e-06
3.21635e-06
2.34114e-06
1.57729e-06
9.89211e-07
5.80056e-07
3.19152e-07
1.65312e-07
8.08022e-08
3.73563e-08
1.64039e-08
6.82938e-09
2.73965e-09
1.04822e-09
3.57823e-10
1.29519e-10
4.71976e-11
-3.29285e-12
-6.58571e-12
1.4269e-11
2.08547e-11
1.4269e-11
9.87856e-12
-1.09762e-12
-3.29285e-12
1.09762e-12
5.48809e-12
-1.53666e-11
-1.97571e-11
-1.09762e-12
-1.09762e-12
1.09762e-11
1.09762e-12
1.09762e-12
0
0
0
-1.09762e-12
0
0
1.53666e-11
-1.09762e-12
1.09762e-12
0
-1.09762e-12
-1.09762e-12
-3.29285e-12
-7.68332e-12
1.09762e-12
1.09762e-12
-4.39047e-12
0
-3.29285e-12
-2.19523e-12
2.19524e-12
-1.09762e-12
2.19523e-12
0
6.58571e-12
-2.19523e-12
-1.31714e-11
2.19524e-12
1.09762e-12
0
-1.09762e-12
7.68332e-12
3.29285e-12
0
3.29285e-12
-4.39047e-12
2.7919e-07
7.82426e-07
1.13815e-06
1.3004e-06
1.27783e-06
1.11945e-06
8.90871e-07
6.51344e-07
4.40844e-07
2.77746e-07
1.63567e-07
9.03647e-08
4.69802e-08
2.30302e-08
1.06699e-08
4.71207e-09
1.98339e-09
8.34189e-10
3.32578e-10
1.10859e-10
5.1588e-11
1.31714e-11
-3.29285e-12
8.78094e-12
1.53666e-11
-9.87856e-12
2.41476e-11
3.51238e-11
5.48809e-12
9.87856e-12
1.53666e-11
1.86595e-11
1.97571e-11
1.64643e-11
3.07333e-11
1.09762e-12
4.39047e-12
-7.68332e-12
0
-2.19523e-12
1.09762e-12
-1.09762e-12
0
1.09762e-12
-1.09762e-12
2.19523e-12
1.09762e-12
9.87856e-12
1.09762e-12
-2.19523e-12
7.68332e-12
6.5857e-12
2.19523e-12
-2.19523e-12
1.4269e-11
-6.5857e-12
-1.09762e-12
-3.29285e-12
1.09762e-12
2.19523e-12
-1.09762e-12
-2.19523e-12
2.19523e-12
-1.20738e-11
-3.29285e-12
-1.09762e-12
0
1.09762e-12
1.09762e-12
0
-7.68332e-12
0
-4.39047e-12
-1.4269e-11
-1.09762e-12
7.36457e-08
2.06738e-07
3.01289e-07
3.45111e-07
3.40198e-07
2.99171e-07
2.39079e-07
1.75571e-07
1.19393e-07
7.55446e-08
4.46807e-08
2.47853e-08
1.29442e-08
6.38813e-09
2.96466e-09
1.30397e-09
5.81737e-10
2.46964e-10
9.98832e-11
5.59785e-11
1.53666e-11
-1.4269e-11
8.78094e-12
8.78094e-12
-2.41476e-11
-1.53666e-11
-6.58571e-12
1.53666e-11
2.74404e-11
2.63428e-11
1.86595e-11
1.4269e-11
1.86595e-11
3.51238e-11
1.4269e-11
4.39047e-12
-1.20738e-11
-1.31714e-11
-2.19524e-12
0
0
6.58571e-12
1.09762e-12
0
-4.39047e-12
-1.64643e-11
1.09762e-12
1.09762e-12
1.09762e-11
0
-1.09762e-12
3.29285e-12
-6.5857e-12
0
-2.19524e-12
0
0
-7.68332e-12
4.39047e-12
-3.29285e-12
0
-1.09762e-12
-5.48809e-12
-2.08547e-11
2.19523e-12
0
-2.19524e-12
-3.29285e-12
1.09762e-12
-1.09762e-12
1.09762e-12
-2.19524e-12
0
0
1.31714e-11
1.8901e-08
5.32344e-08
7.77113e-08
8.92253e-08
8.82506e-08
7.79155e-08
6.25082e-08
4.61186e-08
3.14731e-08
1.99843e-08
1.18762e-08
6.62522e-09
3.46957e-09
1.72875e-09
7.86992e-10
3.56726e-10
1.6135e-10
6.47594e-11
9.87856e-12
1.09762e-11
-3.29285e-12
-1.09762e-11
-1.31714e-11
-2.63428e-11
-3.95142e-11
-2.74404e-11
-2.74404e-11
-2.63428e-11
-8.78094e-12
1.75619e-11
1.4269e-11
7.68332e-12
3.29285e-12
0
-1.53666e-11
1.4269e-11
-5.48809e-12
6.58571e-12
-8.78094e-12
2.19524e-12
-1.09762e-12
-1.09762e-12
-1.09762e-12
0
0
1.09762e-12
6.5857e-12
-2.19524e-12
8.78094e-12
-2.19523e-12
-1.09762e-12
1.09762e-12
0
3.29285e-12
0
-1.09762e-12
0
0
-1.09762e-12
0
0
3.29285e-12
-1.09762e-12
7.68332e-12
0
-1.09762e-12
0
0
6.58571e-12
4.39047e-12
6.5857e-12
-1.97571e-11
2.19524e-12
1.09762e-11
0
4.82952e-09
1.32856e-08
1.93598e-08
2.22619e-08
2.20533e-08
1.95486e-08
1.57332e-08
1.16512e-08
7.9687e-09
5.0699e-09
3.02613e-09
1.69362e-09
8.70411e-10
4.14899e-10
1.75619e-10
8.34189e-11
3.84166e-11
1.09762e-11
-7.68332e-12
1.31714e-11
8.78094e-12
-1.09762e-12
-1.53666e-11
-1.53666e-11
-2.41476e-11
-4.17095e-11
-3.18309e-11
-3.51238e-11
-2.41476e-11
-6.5857e-12
-3.29285e-12
-1.09762e-12
-2.19523e-12
-1.4269e-11
-1.31714e-11
0
-5.48809e-12
1.20738e-11
-1.09762e-12
1.09762e-12
1.09762e-12
-6.5857e-12
-1.09762e-12
1.09762e-12
0
0
1.75619e-11
0
-1.09762e-11
0
2.19523e-12
0
2.08547e-11
0
0
0
8.78094e-12
0
-1.09762e-12
-2.19523e-12
-1.09762e-12
1.09762e-12
4.39047e-12
1.86595e-11
1.09762e-12
0
-1.09762e-12
1.31714e-11
0
1.09762e-12
-7.68332e-12
0
0
0
-7.68332e-12
1.20299e-09
3.11723e-09
4.55731e-09
5.23344e-09
5.12368e-09
4.56609e-09
3.6836e-09
2.70892e-09
1.86485e-09
1.20848e-09
7.33208e-10
4.08314e-10
2.1184e-10
8.56142e-11
4.39047e-11
1.09762e-12
-9.87856e-12
-2.74404e-11
1.53666e-11
1.20738e-11
7.68332e-12
-9.87856e-12
-7.68332e-12
-8.78094e-12
-2.19524e-12
-1.20738e-11
-2.41476e-11
-2.63428e-11
-1.64643e-11
-3.18309e-11
-2.63428e-11
-1.64643e-11
-7.68332e-12
-1.09762e-11
-7.68332e-12
-4.39047e-12
1.09762e-12
0
8.78094e-12
0
-1.09762e-12
0
1.09762e-12
-2.19523e-12
0
-1.09762e-12
2.19523e-12
0
-7.68332e-12
2.19523e-12
-2.19524e-12
-1.31714e-11
-1.09762e-12
-2.19524e-12
1.09762e-12
3.29285e-12
7.68332e-12
-1.20738e-11
-1.09762e-12
2.19524e-12
-1.09762e-12
-5.48809e-12
-3.29285e-12
0
0
2.19524e-12
1.09762e-12
0
-8.78094e-12
4.39047e-12
1.09762e-12
2.41476e-11
2.19524e-12
4.39047e-12
0
3.64409e-10
9.92246e-10
1.39836e-09
1.59155e-09
1.54325e-09
1.3369e-09
1.07896e-09
7.99066e-10
5.40028e-10
3.65507e-10
2.37085e-10
1.31714e-10
6.69547e-11
2.74404e-11
2.41476e-11
-1.53666e-11
-4.17095e-11
-3.84166e-11
1.09762e-12
-1.20738e-11
0
8.78094e-12
-6.5857e-12
-1.75619e-11
-5.48809e-12
4.39047e-12
4.39047e-12
1.09762e-12
-7.68332e-12
-1.4269e-11
-1.20738e-11
-2.19523e-11
-5.48809e-12
-9.87856e-12
-2.85381e-11
-8.78094e-12
5.48809e-12
0
3.29285e-12
-2.19524e-12
-6.5857e-12
0
2.19524e-12
-2.19523e-12
0
0
-1.86595e-11
0
-1.09762e-12
-1.09762e-12
-4.39047e-12
-5.48809e-12
-1.4269e-11
2.19524e-12
2.19524e-12
0
-8.78094e-12
-1.64643e-11
-8.78094e-12
-1.20738e-11
-3.29285e-12
-1.09762e-12
1.09762e-12
-2.19524e-12
-1.09762e-12
-1.09762e-11
1.09762e-12
-6.5857e-12
-1.09762e-12
-1.09762e-12
-2.19523e-12
0
-9.87856e-12
0
5.48809e-12
8.34189e-11
2.15133e-10
2.12938e-10
2.74404e-10
2.91966e-10
2.10743e-10
1.6574e-10
1.45983e-10
1.03176e-10
7.24428e-11
3.7319e-11
6.5857e-12
1.09762e-12
-3.29285e-12
5.48809e-12
-1.31714e-11
-1.31714e-11
5.48809e-12
-1.64643e-11
4.39047e-12
1.86595e-11
2.85381e-11
2.08547e-11
1.64643e-11
8.78094e-12
6.5857e-12
3.07333e-11
2.19523e-11
2.41476e-11
5.48809e-12
-1.31714e-11
-3.29285e-11
-3.29285e-11
-1.09762e-12
-1.09762e-11
-5.48809e-12
0
-1.20738e-11
-1.09762e-12
-1.09762e-12
0
3.29285e-12
5.48809e-12
4.39047e-12
-2.19523e-12
0
-9.87856e-12
-1.09762e-12
1.09762e-12
-4.39047e-12
1.09762e-12
1.31714e-11
1.09762e-12
0
-3.29285e-12
6.5857e-12
-7.68332e-12
7.68332e-12
-8.78094e-12
-2.19523e-12
-1.31714e-11
5.48809e-12
4.39047e-12
-7.68332e-12
1.09762e-12
-1.09762e-12
-1.09762e-12
1.09762e-12
2.19523e-12
-8.78094e-12
-1.31714e-11
-4.39047e-12
-6.5857e-12
-7.68332e-12
-1.09762e-12
-5.26856e-11
-1.00981e-10
-2.21719e-10
-1.95376e-10
-1.58057e-10
-1.58057e-10
-1.17445e-10
-6.80523e-11
-3.95142e-11
-2.63428e-11
-2.96357e-11
-1.97571e-11
-5.48809e-12
1.75619e-11
1.4269e-11
4.39047e-12
7.68332e-12
-4.39047e-12
-1.4269e-11
1.20738e-11
1.4269e-11
6.58571e-12
2.08547e-11
2.74404e-11
2.41476e-11
2.305e-11
1.64643e-11
5.48809e-12
1.97571e-11
-2.19524e-12
-2.19524e-12
-1.4269e-11
-2.305e-11
3.29285e-12
2.19523e-12
0
-1.09762e-12
-9.87856e-12
-8.78094e-12
0
1.09762e-12
0
-2.19524e-12
-4.39047e-12
5.48809e-12
-8.78094e-12
0
-1.31714e-11
-1.09762e-12
1.09762e-12
0
1.09762e-12
-1.09762e-12
-1.31714e-11
-1.09762e-12
4.39047e-12
0
4.39047e-12
1.86595e-11
1.31714e-11
4.39047e-12
2.19523e-12
0
2.19524e-12
0
1.09762e-11
-2.19524e-12
0
0
5.48809e-12
8.78094e-12
0
9.87856e-12
2.19523e-12
-6.58571e-12
8.34189e-11
1.22933e-10
2.3489e-10
2.61233e-10
2.72209e-10
2.45866e-10
2.23914e-10
1.72326e-10
1.13055e-10
7.02475e-11
4.39047e-11
3.07333e-11
1.20738e-11
2.63428e-11
1.4269e-11
5.48809e-12
-1.09762e-12
-1.75619e-11
2.19524e-12
-2.41476e-11
-2.19524e-12
1.4269e-11
3.29285e-12
0
6.58571e-12
3.7319e-11
1.75619e-11
2.08547e-11
1.20738e-11
5.48809e-12
2.08547e-11
2.52452e-11
2.74404e-11
-3.29285e-12
1.09762e-11
-2.19524e-12
1.09762e-12
1.20738e-11
8.78094e-12
-4.39047e-12
0
-3.29285e-12
3.29285e-12
-1.64643e-11
1.09762e-12
2.19524e-12
0
0
-2.19524e-12
-4.39047e-12
1.09762e-12
3.29285e-12
0
-2.19524e-12
2.19524e-12
-2.305e-11
-1.09762e-12
0
7.68332e-12
1.09762e-12
1.4269e-11
-2.19523e-12
-1.09762e-12
-1.09762e-12
-4.39047e-12
1.09762e-12
-1.09762e-12
1.20738e-11
0
0
2.08547e-11
9.87856e-12
6.58571e-12
4.39047e-12
0
1.75619e-11
-1.75619e-11
1.53666e-11
-3.29285e-11
-2.63428e-11
-4.39047e-12
-8.78094e-12
-7.68332e-12
-7.68332e-12
-1.64643e-11
-1.75619e-11
-1.09762e-12
-1.4269e-11
-2.19523e-11
-6.5857e-12
1.64643e-11
1.64643e-11
3.62214e-11
2.08547e-11
4.39047e-12
1.53666e-11
2.305e-11
1.09762e-11
8.78094e-12
1.31714e-11
2.85381e-11
3.29285e-11
5.37833e-11
3.07333e-11
3.84166e-11
3.07333e-11
3.84166e-11
2.85381e-11
5.48809e-12
3.7319e-11
0
2.19523e-12
7.68332e-12
8.78094e-12
-1.09762e-12
1.4269e-11
-5.48809e-12
5.48809e-12
9.87856e-12
0
8.78094e-12
9.87856e-12
2.305e-11
2.19523e-12
-6.5857e-12
4.39047e-12
6.5857e-12
1.53666e-11
2.08547e-11
1.09762e-12
5.48809e-12
4.39047e-12
1.4269e-11
-1.09762e-11
0
0
-2.19523e-12
-1.09762e-12
0
-3.29285e-12
0
4.39047e-12
-4.39047e-12
-2.19523e-12
-1.31714e-11
-5.48809e-12
6.5857e-12
-1.09762e-12
-5.48809e-12
2.19523e-12
-1.00981e-10
-1.8879e-10
-3.02942e-10
-3.53433e-10
-2.98552e-10
-2.17328e-10
-1.47081e-10
-1.00981e-10
-6.91499e-11
-5.04904e-11
-3.07333e-11
-7.68332e-12
1.09762e-12
-1.09762e-12
1.31714e-11
1.64643e-11
2.52452e-11
3.7319e-11
-2.19524e-12
1.53666e-11
9.87856e-12
-8.78094e-12
4.39047e-12
2.41476e-11
3.29285e-11
1.86595e-11
3.29285e-11
3.07333e-11
2.41476e-11
2.85381e-11
1.4269e-11
1.53666e-11
1.31714e-11
2.52452e-11
6.5857e-12
-5.48809e-12
-2.19524e-12
-1.09762e-12
-9.87856e-12
4.39047e-12
0
0
-2.19524e-12
1.86595e-11
1.09762e-12
-1.09762e-12
2.19523e-12
-1.09762e-12
1.09762e-12
8.78094e-12
1.09762e-12
4.39047e-12
1.4269e-11
1.09762e-12
-2.19524e-12
1.4269e-11
1.31714e-11
2.19524e-12
2.19523e-12
0
0
-2.19523e-12
2.19524e-12
8.78094e-12
3.29285e-12
-1.09762e-12
0
-1.20738e-11
1.09762e-12
0
-1.64643e-11
-9.87856e-12
1.09762e-12
-7.68332e-12
0
-8.78094e-12
1.05371e-10
1.80009e-10
2.08547e-10
2.45866e-10
2.41476e-10
2.26109e-10
1.60252e-10
1.28421e-10
7.24428e-11
5.81737e-11
2.52452e-11
1.4269e-11
2.08547e-11
2.41476e-11
1.86595e-11
1.86595e-11
1.09762e-12
-4.39047e-12
-2.96357e-11
-1.53666e-11
-1.31714e-11
-8.78094e-12
1.09762e-12
8.78094e-12
1.53666e-11
1.20738e-11
-5.48809e-12
0
2.08547e-11
1.20738e-11
3.29285e-12
-1.20738e-11
-1.09762e-12
-1.31714e-11
0
-1.09762e-12
2.19524e-12
0
1.31714e-11
-9.87856e-12
1.09762e-11
-1.4269e-11
-4.39047e-12
1.09762e-12
0
-1.09762e-11
-7.68332e-12
0
5.48809e-12
0
-2.19524e-12
-1.4269e-11
-8.78094e-12
0
-2.08547e-11
-4.39047e-12
-4.39047e-12
1.09762e-12
0
0
-2.19523e-12
4.39047e-12
0
5.48809e-12
0
-1.09762e-12
0
6.58571e-12
1.53666e-11
5.48809e-12
-5.48809e-12
-8.78094e-12
1.09762e-12
-4.39047e-12
1.75619e-11
7.90285e-11
3.07333e-11
3.07333e-11
3.51238e-11
1.75619e-11
0
-5.48809e-12
1.09762e-12
-2.52452e-11
-6.5857e-12
-9.87856e-12
-7.68332e-12
4.39047e-12
0
1.09762e-11
0
-1.31714e-11
1.09762e-12
-2.85381e-11
-4.17095e-11
-2.63428e-11
-3.29285e-12
-2.08547e-11
-1.20738e-11
5.48809e-12
-4.39047e-12
-9.87856e-12
-4.39047e-12
1.64643e-11
2.19523e-11
2.52452e-11
-5.48809e-12
-2.19523e-11
-1.20738e-11