/*--------------------------------*- C++ -*----------------------------------*\
  =========                 |
  \\      /  F ield         | OpenFOAM: The Open Source CFD Toolbox
   \\    /   O peration     | Website:  https://openfoam.org
    \\  /    A nd           | Version:  10
     \\/     M anipulation  |
\*---------------------------------------------------------------------------*/
FoamFile
{
    format      ascii;
    class       volScalarField;
    location    "329";
    object      gradTx;
}
// * * * * * * * * * * * * * * * * * * * * * * * * * * * * * * * * * * * * * //

dimensions      [0 -1 0 1 0 0 0];

internalField   nonuniform List<scalar> 
11250
(
14299.7
8103.67
5309.74
3826.86
2928.67
2328.08
1896.65
1570.29
1313.97
1107.04
936.62
794.2
673.943
571.675
484.304
409.467
345.3
290.298
243.214
202.994
168.735
139.653
115.06
94.3525
76.9958
62.5182
50.5033
40.5846
32.4407
25.7912
20.3926
16.0349
12.538
9.74842
7.53644
5.79303
4.42728
3.36393
2.5411
1.90832
1.42471
1.0574
0.780148
0.572187
0.417172
0.302345
0.21782
0.155989
0.111043
0.0785745
0.0552671
0.0386406
0.0268541
0.0185509
0.0127381
0.00869422
0.00589848
0.0039777
0.00266628
0.00177648
0.0011765
0.000774464
0.00050674
0.000329565
0.000213041
0.000136881
8.74088e-05
5.54674e-05
3.49645e-05
2.18717e-05
1.35389e-05
8.22866e-06
4.79914e-06
2.48906e-06
7.68476e-07
4095.59
4702.5
4000.29
3244.36
2633.82
2162.17
1795.28
1504.32
1268.92
1075.13
913.35
776.849
660.776
561.545
476.428
403.292
340.43
286.441
240.149
200.554
166.791
138.104
113.828
93.3728
76.2187
61.9032
50.018
40.2029
32.1415
25.5576
20.2109
15.8942
12.4295
9.66516
7.47284
5.74469
4.39072
3.33641
2.5205
1.89298
1.41335
1.04903
0.774015
0.567718
0.413934
0.300012
0.216148
0.154798
0.110199
0.0779801
0.0548508
0.0383507
0.0266534
0.0184128
0.0126436
0.00862994
0.00585502
0.00394848
0.00264675
0.0017635
0.00116793
0.000768838
0.000503068
0.000327183
0.000211505
0.000135896
8.67815e-05
5.50702e-05
3.47147e-05
2.17158e-05
1.34426e-05
8.17025e-06
4.76518e-06
2.47146e-06
7.63071e-07
1476.06
2611.43
2746.16
2518.67
2202.82
1894.74
1621.62
1386.83
1186.6
1015.75
869.504
743.847
635.556
542.038
461.195
391.311
330.954
278.917
234.16
195.779
162.983
135.067
111.408
91.4477
74.6904
60.693
49.0625
39.4509
31.5519
25.097
19.8526
15.6166
12.2154
9.50082
7.34728
5.64922
4.3185
3.28206
2.47981
1.86267
1.39089
1.03248
0.76189
0.558882
0.40753
0.295397
0.212841
0.152441
0.108529
0.0768039
0.054027
0.0377771
0.0262563
0.0181394
0.0124566
0.00850269
0.00576895
0.00389062
0.00260808
0.00173781
0.00115096
0.000757693
0.000495794
0.000322464
0.000208461
0.000133945
8.55382e-05
5.42829e-05
3.42195e-05
2.14066e-05
1.32516e-05
8.0544e-06
4.6977e-06
2.4365e-06
7.52297e-07
673.603
1521.95
1855.81
1883.5
1766.74
1595.53
1413.26
1238.77
1079.16
936.276
809.701
698.196
600.288
514.525
439.567
374.207
317.368
268.091
225.516
188.871
157.46
130.655
107.887
88.6435
72.4617
58.9265
47.6666
38.3515
30.6892
24.4227
19.3277
15.2098
11.9015
9.25977
7.16305
5.50911
4.21247
3.20224
2.42003
1.81814
1.35789
1.00816
0.744064
0.545889
0.398112
0.288608
0.207975
0.148974
0.106072
0.075073
0.0528146
0.0369327
0.0256716
0.017737
0.0121811
0.00831531
0.00564221
0.0038054
0.00255111
0.00169995
0.00112595
0.000741275
0.000485077
0.00031551
0.000203976
0.00013107
8.37058e-05
5.31226e-05
3.34895e-05
2.09509e-05
1.29701e-05
7.88357e-06
4.59822e-06
2.38498e-06
7.36374e-07
370.32
947.893
1273.17
1394.89
1387.76
1310.52
1200.66
1079.71
959.199
844.887
739.373
643.566
557.504
480.787
412.813
352.899
300.345
254.461
214.59
180.109
150.436
125.03
103.389
85.0542
69.6046
56.6588
45.8724
36.937
29.5782
23.5536
18.6507
14.6848
11.4962
8.9483
6.92488
5.32789
4.07529
3.09892
2.34262
1.76045
1.31514
0.976641
0.720958
0.529042
0.385898
0.279803
0.201663
0.144475
0.102884
0.0728263
0.0512406
0.0358364
0.0249124
0.0172143
0.0118234
0.00807191
0.00547757
0.00369468
0.0024771
0.00165077
0.00109346
0.000719935
0.000471147
0.00030647
0.000198145
0.000127331
8.13234e-05
5.16137e-05
3.25403e-05
2.03582e-05
1.26038e-05
7.66135e-06
4.4688e-06
2.31794e-06
7.15705e-07
230.412
627.047
895.579
1037.2
1081.45
1061.16
1002.6
924.014
837.107
748.984
663.762
583.69
509.881
442.76
382.351
328.435
280.664
238.613
201.824
169.83
142.167
118.388
98.0642
80.7955
66.2082
53.9584
43.7328
35.2479
28.2499
22.5134
17.8397
14.0552
11.0098
8.57432
6.63873
5.11004
3.91029
2.97459
2.24944
1.69099
1.26363
0.938658
0.693102
0.508728
0.371167
0.26918
0.194046
0.139045
0.0990346
0.0701135
0.0493398
0.0345122
0.0239953
0.0165828
0.0113911
0.00777773
0.00527855
0.00356083
0.00238761
0.00159129
0.00105416
0.000694126
0.000454297
0.000295535
0.000191091
0.000122808
7.84404e-05
4.97878e-05
3.13914e-05
1.96409e-05
1.21606e-05
7.39238e-06
4.31214e-06
2.23677e-06
6.9066e-07
154.988
435.186
646.356
778.85
842.181
853.013
827.895
780.309
720.17
654.321
587.276
521.899
459.924
402.331
349.601
301.89
259.143
221.169
187.696
158.4
132.935
110.946
92.081
75.9979
62.3731
50.9031
41.3076
33.3304
26.74
21.3295
16.9155
13.3372
10.4546
8.14704
6.31156
4.8608
3.72139
2.83218
2.14264
1.61133
1.20454
0.895069
0.661124
0.485399
0.354243
0.256973
0.185291
0.132801
0.0946078
0.0669929
0.0471527
0.0329883
0.0229397
0.0158558
0.0108934
0.00743895
0.00504932
0.00340664
0.00228451
0.00152275
0.00100888
0.00066438
0.000434874
0.000282928
0.000182958
0.000117592
7.51158e-05
4.76819e-05
3.00662e-05
1.88134e-05
1.16492e-05
7.08204e-06
4.13139e-06
2.1431e-06
6.61744e-07
109.626
313.2
477.199
591.577
657.797
683.639
678.86
652.681
612.726
564.83
513.23
460.88
409.768
361.174
315.872
274.282
236.574
202.747
172.685
146.193
123.032
102.934
85.6163
70.799
58.2066
47.5763
38.6616
31.2345
25.087
20.0316
15.9011
12.5481
9.84374
7.67654
5.95099
4.5859
3.5129
2.6749
2.02463
1.52326
1.13918
0.846825
0.625716
0.459558
0.33549
0.243441
0.175583
0.125876
0.0896964
0.0635298
0.044725
0.0312963
0.0217673
0.0150483
0.0103404
0.00706249
0.00479455
0.00323524
0.00216988
0.00144655
0.000958512
0.000631292
0.000413266
0.000268901
0.000173907
0.000111787
7.14153e-05
4.53375e-05
2.85909e-05
1.78919e-05
1.10796e-05
6.73638e-06
3.93006e-06
2.03877e-06
6.29547e-07
80.2148
231.597
358.992
454.282
516.071
547.577
554.28
542.187
516.83
482.837
443.85
402.604
361.083
320.668
282.285
246.513
213.678
183.92
157.246
133.57
112.742
94.5726
78.8463
65.3372
53.8171
44.0627
35.8609
29.0118
23.3309
18.6505
14.8202
11.7062
9.19124
7.17342
5.56504
4.29139
3.28936
2.50614
1.89791
1.42864
1.06891
0.794938
0.587616
0.431738
0.315293
0.228862
0.165119
0.118409
0.0843991
0.0597935
0.042105
0.0294698
0.0205015
0.0141761
0.00974302
0.00665573
0.00451921
0.00304997
0.00204595
0.00136414
0.000904042
0.000595502
0.00038989
0.000253725
0.000164112
0.000105504
6.74095e-05
4.27995e-05
2.69933e-05
1.6894e-05
1.04628e-05
6.36195e-06
3.71192e-06
1.92576e-06
5.94688e-07
60.1075
174.745
274.147
352.212
406.786
438.867
451.391
448.142
432.985
409.431
380.438
348.376
315.07
281.868
249.737
219.332
191.072
165.191
141.786
120.857
102.328
86.0737
71.9382
59.745
49.3092
40.4448
32.9702
26.7126
21.5109
17.2168
13.6963
10.8296
8.51102
6.64832
5.16182
3.9834
3.05538
2.32935
1.76508
1.32938
0.995157
0.74044
0.547576
0.402488
0.294047
0.213519
0.154103
0.110545
0.078818
0.0558556
0.0393427
0.0275436
0.0191661
0.0132558
0.00911252
0.00622632
0.00422848
0.0028543
0.00191503
0.00127707
0.000846479
0.000557673
0.000365177
0.000237677
0.000153754
9.88585e-05
6.31719e-05
4.01141e-05
2.53028e-05
1.58379e-05
9.80984e-06
5.96554e-06
3.48093e-06
1.80607e-06
5.57752e-07
45.8195
133.848
211.822
275.255
322.025
352.113
366.997
368.999
360.755
344.844
323.585
298.943
272.507
245.514
218.896
193.323
169.254
146.978
126.654
108.341
92.022
77.6256
65.044
54.1443
44.7803
36.7997
30.0504
24.3852
19.6648
15.7598
12.5523
9.93597
7.81664
6.11162
4.74922
3.66792
2.81548
2.14794
1.62865
1.22736
0.919298
0.684353
0.506343
0.37235
0.272146
0.197695
0.142736
0.102427
0.0730544
0.0517875
0.0364882
0.0255523
0.0177853
0.0123039
0.00846017
0.0057819
0.00392752
0.00265169
0.00177945
0.00118688
0.000786837
0.000518469
0.000339562
0.000221041
0.000143014
9.19665e-05
5.87762e-05
3.73281e-05
2.35487e-05
1.47418e-05
9.13208e-06
5.55401e-06
3.24113e-06
1.68175e-06
5.19366e-07
35.3677
103.678
165.144
216.479
255.845
282.806
298.027
302.903
299.195
288.763
273.379
254.62
233.823
212.072
190.221
168.91
148.602
129.611
112.13
96.2585
82.0216
69.3904
58.296
48.6425
40.3169
33.1968
27.1569
22.0733
17.8271
14.3067
11.4093
9.04174
7.12077
5.57306
4.33468
3.35062
2.57395
1.96512
1.49105
1.12438
0.842665
0.627655
0.464635
0.341847
0.249966
0.181661
0.131213
0.0941945
0.0672067
0.0476584
0.0335897
0.0235297
0.0163822
0.0113363
0.0077969
0.00532992
0.00362134
0.00244552
0.00164144
0.00109505
0.000726104
0.000478539
0.000313467
0.000204089
0.000132068
8.49412e-05
5.42948e-05
3.44871e-05
2.17596e-05
1.36238e-05
8.44058e-06
5.1341e-06
2.99641e-06
1.55487e-06
4.80212e-07
27.5508
80.9758
129.625
171.078
203.832
227.318
241.767
247.988
247.149
240.569
229.578
215.415
199.176
181.782
163.985
146.372
129.383
113.332
98.4278
84.7939
72.4842
61.5003
51.8044
43.3303
35.993
29.6962
24.338
19.8155
16.0285
12.8816
10.2863
8.16169
6.43491
5.0415
3.92503
3.03668
2.33472
1.78386
1.35449
1.0221
0.766493
0.571256
0.42312
0.311464
0.227861
0.165673
0.119716
0.0859766
0.061367
0.0435331
0.0306928
0.0215074
0.0149788
0.0103682
0.00713305
0.0048774
0.00331472
0.00223899
0.00150316
0.00100302
0.000665217
0.000438499
0.000287294
0.000187083
0.000121085
7.78905e-05
4.97962e-05
3.16347e-05
1.9963e-05
1.25008e-05
7.74593e-06
4.71217e-06
2.75048e-06
1.42742e-06
4.40887e-07
21.6037
63.6257
102.247
135.676
162.712
182.789
195.91
202.532
203.415
199.489
191.74
181.127
168.527
154.709
140.314
125.863
111.758
98.3001
85.697
74.0825
63.5285
54.0579
45.656
38.2803
31.8689
26.3473
21.6339
17.6443
14.2949
11.5053
9.19974
7.30869
5.76908
4.52473
3.52623
2.73069
2.10129
1.6068
1.22098
0.922001
0.691889
0.515976
0.382398
0.281643
0.206151
0.14996
0.108412
0.077892
0.0556192
0.0394709
0.0278389
0.0195144
0.0135952
0.00941345
0.00647809
0.0044308
0.00301201
0.00203503
0.00136657
0.000912083
0.000605041
0.000398917
0.000261413
0.000170263
0.000110219
7.09138e-05
4.53438e-05
2.88111e-05
1.81841e-05
1.13886e-05
7.05788e-06
4.29423e-06
2.50684e-06
1.30109e-06
4.01876e-07
17.0191
50.204
80.9275
107.855
130.04
146.972
158.548
165.008
166.846
164.71
159.325
151.425
141.704
130.787
119.215
107.437
95.8092
84.6073
74.0305
64.2133
55.2364
47.1362
39.9147
33.5475
27.991
23.1888
19.0765
15.5857
12.6475
10.1946
8.16303
6.49343
5.13169
4.02929
3.14338
2.43656
1.87665
1.43623
1.09223
0.825384
0.619814
0.462527
0.342995
0.252767
0.185115
0.134727
0.0974462
0.070045
0.0500375
0.0355242
0.0250649
0.0175763
0.0122492
0.00848424
0.00584044
0.00399585
0.0027171
0.00183627
0.00123341
0.000823412
0.000546347
0.000360299
0.000236157
0.000153845
9.96105e-05
6.41004e-05
4.09948e-05
2.60524e-05
1.64458e-05
1.03016e-05
6.38523e-06
3.88553e-06
2.26853e-06
1.17752e-06
3.63714e-07
13.4488
39.7235
64.1934
85.8572
103.976
118.11
128.115
134.105
136.393
135.433
131.753
125.909
118.445
109.865
100.613
91.0698
81.5458
72.2853
63.472
55.2349
47.6568
40.7819
34.6233
29.1698
24.3923
20.2489
16.6895
13.6595
11.1025
8.96282
7.18682
5.72437
4.52943
3.56046
2.78057
2.15747
1.66323
1.27401
0.969648
0.733311
0.551068
0.411503
0.305351
0.22516
0.16499
0.120144
0.0869419
0.062524
0.0446848
0.0317375
0.0224021
0.015715
0.010956
0.00759114
0.00522735
0.0035775
0.00243334
0.00164497
0.00110521
0.000738013
0.000489803
0.000323085
0.000211813
0.000138015
8.93796e-05
5.75281e-05
3.67986e-05
2.339e-05
1.47678e-05
9.2521e-06
5.73564e-06
3.49074e-06
2.03829e-06
1.05811e-06
3.26864e-07
10.647
31.481
50.978
68.3826
83.1189
94.8212
103.337
108.706
111.127
110.912
108.447
104.151
98.4453
91.7312
84.3712
76.6815
68.9267
61.3198
54.0249
47.1616
40.8102
35.0181
29.8051
25.1696
21.0932
17.5458
14.4889
11.8793
9.67134
7.81934
6.27882
5.00777
3.96732
3.1222
2.44094
1.89587
1.46295
1.12159
0.854353
0.646625
0.486284
0.363379
0.269818
0.199081
0.145965
0.106348
0.076999
0.0554008
0.0396124
0.0281472
0.0198762
0.0139486
0.00972819
0.00674282
0.00464476
0.00317981
0.00216351
0.00146298
0.00098321
0.000656723
0.000435963
0.000287641
0.000188619
0.00012293
7.96272e-05
5.12616e-05
3.27966e-05
2.08502e-05
1.31666e-05
8.25042e-06
5.11551e-06
3.11383e-06
1.81844e-06
9.44041e-07
2.91628e-07
8.4357
24.9645
40.4947
54.4538
66.394
76.0165
83.1771
87.8755
90.2341
90.4688
88.8592
85.7201
81.3765
76.1443
70.316
64.1513
57.8722
51.6609
45.6611
39.9803
34.6935
29.848
25.4672
21.5558
18.1035
15.089
12.4835
10.2529
8.36086
6.7701
5.44404
4.34776
3.44873
2.71725
2.12668
1.65348
1.27714
0.980022
0.747153
0.565944
0.42593
0.318506
0.236657
0.174725
0.128184
0.0934462
0.0676937
0.0487304
0.0348597
0.0247814
0.017507
0.012291
0.00857545
0.00594602
0.00409733
0.00280597
0.00190976
0.00129179
0.000868407
0.000580201
0.000385265
0.000254255
0.000166767
0.000108713
7.04336e-05
4.53526e-05
2.9022e-05
1.84542e-05
1.16557e-05
7.30498e-06
4.53009e-06
2.7579e-06
1.6108e-06
8.36313e-07
2.58351e-07
6.68345
19.7934
32.1527
43.326
52.9656
60.8302
66.7914
70.8285
73.0148
73.4991
72.4839
70.2045
66.9102
62.8484
58.2527
53.3342
48.2767
43.2337
38.3288
33.6565
29.285
25.2588
21.603
18.326
15.4232
12.8804
10.6758
8.78335
7.17407
5.81792
4.68501
3.74656
2.97556
2.34719
1.83908
1.43135
1.10665
0.849975
0.648569
0.49167
0.370316
0.277119
0.206048
0.152225
0.111745
0.0815098
0.0590793
0.0425513
0.0304545
0.0216599
0.0153086
0.0107521
0.00750478
0.00520563
0.00358843
0.00245831
0.00167369
0.00113246
0.000761524
0.000508934
0.000338034
0.000223142
0.000146396
9.54554e-05
6.18584e-05
3.98396e-05
2.54994e-05
1.62175e-05
1.0245e-05
6.42202e-06
3.98324e-06
2.42533e-06
1.41675e-06
7.35658e-07
2.27265e-07
5.29124
15.68
25.5019
34.4247
42.1788
48.5714
53.4919
56.9106
58.87
59.4719
58.8629
57.2185
54.7291
51.5873
47.9781
44.0718
40.0187
35.9466
31.96
28.1406
24.5487
21.2254
18.1952
15.4686
13.045
10.9151
9.06326
7.46932
6.11054
4.96286
4.00209
3.20469
2.54838
2.01258
1.57865
1.22994
0.951859
0.731767
0.558859
0.424012
0.319607
0.239348
0.178088
0.131655
0.0967062
0.0705817
0.0511872
0.0368868
0.0264136
0.018795
0.0132898
0.00933823
0.00652059
0.00452472
0.00312022
0.00213831
0.00145631
0.000985691
0.000663031
0.000443239
0.000294481
0.000194443
0.000127599
8.32196e-05
5.39416e-05
3.47485e-05
2.22455e-05
1.41508e-05
8.94119e-06
5.60576e-06
3.47753e-06
2.11775e-06
1.23726e-06
6.42528e-07
1.98522e-07
4.18343
12.4037
20.1943
27.3015
33.5162
38.6853
42.7162
45.5767
47.2898
47.925
47.5882
46.4101
44.5355
42.1137
39.2904
36.2015
32.969
29.6981
26.4761
23.3724
20.4393
17.7136
15.2183
12.9649
10.9552
9.18369
7.63904
6.30605
5.16698
4.20273
3.39385
2.72121
2.1666
1.71308
1.34521
1.04916
0.81275
0.625405
0.478049
0.363003
0.273836
0.205224
0.152806
0.113041
0.0830857
0.0606772
0.0440294
0.0317459
0.0227441
0.0161918
0.0114544
0.00805214
0.00562492
0.00390476
0.00269372
0.00184669
0.00125814
0.000851836
0.000573171
0.000383281
0.000254717
0.000168233
0.000110428
7.20379e-05
4.67047e-05
3.00933e-05
1.92694e-05
1.22602e-05
7.7481e-06
4.85864e-06
3.01456e-06
1.83613e-06
1.07285e-06
5.57201e-07
1.72185e-07
3.30145
9.79312
15.9584
21.6031
26.5655
30.7245
34.0041
36.3729
37.8422
38.4591
38.3002
37.4624
36.0557
34.1952
31.995
29.563
26.9971
24.3832
21.7933
19.2856
16.9048
14.6831
12.6415
10.7914
9.13606
7.67259
6.39306
5.28608
4.33791
3.53351
2.85735
2.29402
1.82873
1.44761
1.138
0.888473
0.688952
0.530637
0.405969
0.308528
0.232926
0.174696
0.130168
0.096359
0.07087
0.0517877
0.0376007
0.0271256
0.0194441
0.0138493
0.00980196
0.0068936
0.00481767
0.00334573
0.00230896
0.0015835
0.00107921
0.000730932
0.000491975
0.000329084
0.000218762
0.000144525
9.48904e-05
6.19175e-05
4.01527e-05
2.58774e-05
1.65735e-05
1.05471e-05
6.66675e-06
4.18132e-06
2.5948e-06
1.5807e-06
9.23695e-07
4.79794e-07
1.48243e-07
2.59946
7.71385
12.5799
17.049
20.9963
24.3265
26.9777
28.9217
30.1624
30.7318
30.6851
30.0942
29.0422
27.6178
25.9096
24.0027
21.9754
19.8969
17.8262
15.8114
13.8903
12.0904
10.4304
8.92113
7.56665
6.36573
5.31299
4.39998
3.61617
2.94981
2.38857
1.92012
1.53252
1.21453
0.955811
0.747007
0.579823
0.447001
0.342284
0.260346
0.196708
0.147643
0.110089
0.0815511
0.060018
0.0438847
0.0318813
0.0230124
0.0165044
0.0117614
0.0083282
0.0058598
0.00409696
0.00284639
0.00196513
0.0013482
0.000919166
0.000622749
0.000419294
0.000280553
0.000186554
0.000123281
8.09636e-05
5.28431e-05
3.42762e-05
2.20952e-05
1.41541e-05
9.00922e-06
5.69579e-06
3.57301e-06
2.21767e-06
1.35116e-06
7.89693e-07
4.10222e-07
1.26756e-07
2.04128
6.05957
9.8888
13.4153
16.5427
19.1964
21.3267
22.909
23.9431
24.4507
24.4712
24.0582
23.2743
22.1873
20.866
19.3771
17.7826
16.138
14.491
12.8812
11.3399
9.89043
8.54907
7.32559
6.22438
5.24537
4.38498
3.63703
2.99352
2.44529
1.98267
1.59583
1.27521
1.01176
0.797096
0.623603
0.484509
0.373867
0.286535
0.218125
0.164938
0.123891
0.0924453
0.0685278
0.0504662
0.0369234
0.0268399
0.0193843
0.0139097
0.00991745
0.00702589
0.00494575
0.00345941
0.00240445
0.00166067
0.00113976
0.000777332
0.000526834
0.00035483
0.000237492
0.000157967
0.000104419
6.85941e-05
4.47811e-05
2.90537e-05
1.87328e-05
1.20027e-05
7.64143e-06
4.83196e-06
3.03166e-06
1.88197e-06
1.14681e-06
6.70374e-07
3.48285e-07
1.07646e-07
1.59817
4.74562
7.74917
10.5219
12.9896
15.0942
16.796
18.0742
18.9265
19.3672
19.425
19.1392
18.5571
17.7304
16.7121
15.5544
14.306
13.0111
11.7079
10.4286
9.19901
8.03861
6.96124
5.9756
5.08598
4.29302
3.59445
2.98579
2.461
2.01303
1.63429
1.31705
1.05368
0.836932
0.66006
0.516918
0.402007
0.31049
0.23817
0.181458
0.137321
0.103225
0.0770799
0.0571768
0.0421345
0.0308466
0.0224359
0.0162128
0.0116402
0.00830354
0.00588541
0.00414485
0.00290048
0.00201682
0.0013935
0.000956757
0.000652759
0.000442557
0.000298165
0.000199628
0.000132821
8.7821e-05
5.7706e-05
3.76823e-05
2.44538e-05
1.57705e-05
1.01068e-05
6.43573e-06
4.07032e-06
2.55423e-06
1.58588e-06
9.66544e-07
5.65061e-07
2.93601e-07
9.07335e-08
1.24715
3.70428
6.05195
8.22382
10.1629
11.824
13.1758
14.201
14.8964
15.2715
15.3467
15.1512
14.7205
14.0939
13.3122
12.4157
11.4427
10.4279
9.40206
8.39094
7.41549
6.49188
5.6317
4.84252
4.12832
3.49014
2.92661
2.43454
2.00941
1.64582
1.33786
1.07945
0.86459
0.687494
0.542772
0.42549
0.331219
0.256049
0.19658
0.149895
0.113525
0.0854014
0.0638164
0.0473705
0.0349308
0.0255887
0.0186227
0.0134648
0.00967248
0.00690341
0.00489541
0.00344925
0.00241478
0.0016798
0.00116111
0.000797505
0.000544305
0.000369155
0.000248793
0.000166624
0.000110895
7.33437e-05
4.82059e-05
3.14864e-05
2.04378e-05
1.31835e-05
8.45066e-06
5.38218e-06
3.40465e-06
2.13687e-06
1.32694e-06
8.08842e-07
4.72904e-07
2.45721e-07
7.59485e-08
0.969785
2.88114
4.70935
6.40384
7.92092
9.22574
10.2936
11.1104
11.6726
11.9865
12.0667
11.9348
11.6173
11.144
10.5461
9.85482
9.09985
8.30853
7.50508
6.71014
5.94062
5.20968
4.52696
3.89889
3.32906
2.81868
2.36699
1.97176
1.62962
1.33645
1.08772
0.878659
0.704555
0.560842
0.443237
0.347804
0.270999
0.209685
0.161122
0.122959
0.0931967
0.0701616
0.0524658
0.0389716
0.0287561
0.0210785
0.0153494
0.0111044
0.00798116
0.00569922
0.00404346
0.0028503
0.00199635
0.00138932
0.000960712
0.000660114
0.000450698
0.000305775
0.000206145
0.000138104
9.19406e-05
6.08248e-05
3.99881e-05
2.61253e-05
1.69619e-05
1.09437e-05
7.01638e-06
4.46955e-06
2.82783e-06
1.77514e-06
1.10247e-06
6.7207e-07
3.92994e-07
2.04235e-07
6.31481e-08
0.751277
2.23245
3.65057
4.96717
6.14887
7.16884
8.00776
8.65431
9.10508
9.3641
9.44186
9.35423
9.12104
8.7648
8.3093
7.77847
7.19533
6.58122
5.95515
5.33349
4.72976
4.15458
3.61588
3.11902
2.66715
2.26151
1.90176
1.58634
1.31277
1.07794
0.878365
0.710357
0.570227
0.454392
0.35947
0.282345
0.220199
0.170529
0.131146
0.100163
0.0759778
0.057241
0.0428343
0.0318388
0.0235082
0.0172424
0.0125633
0.00909397
0.00653971
0.0046723
0.00331651
0.00233896
0.00163894
0.00114106
0.000789362
0.000542585
0.000370589
0.000251512
0.000169618
0.000113668
7.56949e-05
5.0091e-05
3.29399e-05
2.15258e-05
1.39788e-05
9.02098e-06
5.78482e-06
3.68571e-06
2.33231e-06
1.46433e-06
9.09564e-07
5.54532e-07
3.24301e-07
1.68545e-07
5.20962e-08
0.579703
1.72294
2.81846
3.83709
4.7534
5.5468
6.2023
6.71088
7.06946
7.2806
7.35179
7.29468
7.12408
6.8569
6.51122
6.10534
5.65699
5.1827
4.69733
4.21374
3.74267
3.29262
2.87001
2.47928
2.12312
1.80271
1.51797
1.26784
1.05051
0.863634
0.704549
0.570422
0.458387
0.365646
0.289548
0.22764
0.177696
0.137733
0.106012
0.0810322
0.061513
0.0463773
0.0347291
0.0258316
0.019085
0.0140067
0.0102117
0.00739591
0.00532144
0.00380385
0.00270138
0.00190603
0.00133617
0.000930665
0.000644071
0.000442885
0.000302603
0.000205442
0.000138593
9.29059e-05
6.18866e-05
4.09645e-05
2.69452e-05
1.76126e-05
1.14402e-05
7.38423e-06
4.73615e-06
3.01813e-06
1.91017e-06
1.19948e-06
7.45141e-07
4.54365e-07
2.65742e-07
1.38097e-07
4.2671e-08
0.445467
1.3242
2.16692
2.95155
3.65879
4.27291
4.78233
5.17994
5.46306
5.63329
5.69598
5.65965
5.53532
5.33568
5.07439
4.76538
4.42224
4.05772
3.68333
3.30914
2.94357
2.59341
2.26378
1.95832
1.67929
1.42775
1.20378
1.00667
0.835113
0.687352
0.561368
0.45499
0.366007
0.292248
0.231649
0.182289
0.142422
0.110486
0.0851098
0.0651063
0.0494606
0.0373175
0.0279641
0.0208135
0.0153874
0.0112999
0.00824304
0.00597341
0.00430022
0.00307544
0.00218515
0.0015425
0.0010818
0.000753813
0.000521888
0.000359004
0.00024538
0.000166648
0.000112459
7.54099e-05
5.02464e-05
3.32685e-05
2.18885e-05
1.43107e-05
9.29744e-06
6.00241e-06
3.85059e-06
2.4542e-06
1.5535e-06
9.75656e-07
6.06199e-07
3.69705e-07
2.16235e-07
1.12387e-07
3.47341e-08
0.340848
1.01336
1.65877
2.26043
2.80373
3.2767
3.67047
3.97945
4.20142
4.33731
4.39094
4.36856
4.27831
4.12969
3.93299
3.69877
3.43737
3.15857
2.87125
2.58323
2.3011
2.03017
1.77454
1.53714
1.31983
1.12355
0.948472
0.794118
0.659545
0.543458
0.444329
0.360507
0.290295
0.23202
0.184082
0.144989
0.113378
0.088028
0.0678646
0.0519544
0.0394985
0.0298224
0.0223629
0.0166555
0.0123211
0.00905358
0.00660823
0.00479137
0.00345111
0.00246941
0.0017554
0.00123971
0.000869832
0.000606361
0.000419969
0.000289004
0.000197605
0.000134248
9.06233e-05
6.07859e-05
4.05138e-05
2.68315e-05
1.76578e-05
1.15472e-05
7.5037e-06
4.84532e-06
3.10887e-06
1.98178e-06
1.25465e-06
7.88067e-07
4.89722e-07
2.98673e-07
1.7468e-07
9.08026e-08
2.80847e-08
0.259645
0.77205
1.26412
1.72333
2.13869
2.50113
2.80386
3.04255
3.21537
3.32286
3.36773
3.35453
3.28929
3.17908
3.03162
2.85486
2.65666
2.44447
2.22511
2.00459
1.78802
1.57956
1.38246
1.19903
1.03079
0.878562
0.742531
0.622406
0.517508
0.426882
0.349383
0.28376
0.228719
0.182979
0.145306
0.114548
0.08965
0.0696625
0.0537482
0.0411786
0.0313291
0.0236709
0.017762
0.0132374
0.00979859
0.00720431
0.00526145
0.00381696
0.0027507
0.00196923
0.00140051
0.000989529
0.000694596
0.000484404
0.000335633
0.000231054
0.000158038
0.000107403
7.25245e-05
4.86605e-05
3.24412e-05
2.14908e-05
1.41464e-05
9.25307e-06
6.01413e-06
3.8842e-06
2.49263e-06
1.58922e-06
1.00629e-06
6.32116e-07
3.92841e-07
2.39601e-07
1.40147e-07
7.28456e-08
2.25143e-08
0.196888
0.585517
0.958937
1.30778
1.62378
1.90009
2.13158
2.31489
2.44855
2.53285
2.5697
2.56243
2.51547
2.43406
2.32397
2.19118
2.04161
1.88092
1.71429
1.54634
1.38101
1.22152
1.0704
0.929488
0.800017
0.682656
0.57761
0.484698
0.403441
0.333137
0.272933
0.221887
0.179018
0.143348
0.113936
0.089896
0.0704145
0.0547593
0.0422822
0.0324182
0.0246817
0.0186612
0.0140122
0.0104494
0.00773963
0.00569382
0.00416065
0.00302001
0.0021775
0.00155964
0.00110974
0.000784441
0.000550872
0.00038433
0.000266398
0.000183459
0.000125527
8.53366e-05
5.76421e-05
3.86864e-05
2.57986e-05
1.70947e-05
1.12554e-05
7.36365e-06
4.78704e-06
3.09227e-06
1.98474e-06
1.2656e-06
8.01469e-07
5.03534e-07
3.12951e-07
1.90902e-07
1.11687e-07
5.8064e-08
1.79175e-08
0.148603
0.441975
0.724016
0.987735
1.22695
1.43653
1.61257
1.75254
1.85524
1.92082
1.95062
1.94707
1.9134
1.85351
1.77168
1.67237
1.56004
1.43895
1.31303
1.1858
1.06027
0.938918
0.823713
0.716097
0.617043
0.527105
0.446477
0.375054
0.3125
0.258303
0.211829
0.172374
0.139199
0.111563
0.0887492
0.0700819
0.0549387
0.0427576
0.03304
0.0253505
0.0193143
0.0146129
0.0109796
0.00819302
0.00607201
0.00446959
0.00326788
0.00237325
0.00171205
0.00122686
0.000873363
0.000617627
0.000433912
0.000302852
0.000210002
0.000144674
9.90235e-05
6.73406e-05
4.55002e-05
3.05461e-05
2.03756e-05
1.35046e-05
8.89365e-06
5.81977e-06
3.78411e-06
2.44485e-06
1.56945e-06
1.00092e-06
6.33911e-07
3.98318e-07
2.47605e-07
1.5106e-07
8.83648e-08
4.59463e-08
1.41944e-08
0.111625
0.332029
0.544024
0.742413
0.922591
1.08072
1.21389
1.32014
1.39855
1.44917
1.47295
1.47164
1.44761
1.40373
1.34316
1.26924
1.18528
1.09449
0.999832
0.903958
0.809163
0.717349
0.630023
0.548307
0.472969
0.404456
0.342943
0.288374
0.240515
0.198994
0.163345
0.133042
0.107532
0.0862578
0.0686762
0.054275
0.0425808
0.033165
0.0256464
0.0196916
0.0150131
0.0113662
0.0085456
0.0063807
0.00473166
0.00348494
0.00254937
0.00185241
0.00133699
0.000958554
0.000682678
0.000482991
0.000339466
0.000237027
0.00016442
0.000113312
7.75841e-05
5.27776e-05
3.5671e-05
2.39541e-05
1.59826e-05
1.05956e-05
6.9794e-06
4.56807e-06
2.97075e-06
1.91967e-06
1.23251e-06
7.8612e-07
4.97936e-07
3.12899e-07
1.94515e-07
1.18684e-07
6.94353e-08
3.60798e-08
1.11694e-08
0.0834406
0.24822
0.406781
0.55528
0.690302
0.808995
0.90917
0.989363
1.04885
1.08764
1.10639
1.10636
1.08928
1.05726
1.01264
0.957869
0.895426
0.827697
0.756905
0.685046
0.613853
0.544772
0.478953
0.417262
0.360297
0.308415
0.261767
0.220328
0.183936
0.152324
0.125149
0.102022
0.0825312
0.0662583
0.0527961
0.0417578
0.0327857
0.0255547
0.0197756
0.0151945
0.0115922
0.00878202
0.00660681
0.00493605
0.00366249
0.00269899
0.00197547
0.00143615
0.00103707
0.000743876
0.000530025
0.000375152
0.000263781
0.000184254
0.00012786
8.81474e-05
6.03739e-05
4.1083e-05
2.77751e-05
1.86568e-05
1.24513e-05
8.25645e-06
5.43977e-06
3.56106e-06
2.31627e-06
1.49696e-06
9.61251e-07
6.13193e-07
3.88458e-07
2.44117e-07
1.51738e-07
9.25807e-08
5.41762e-08
2.81484e-08
8.72057e-09
0.0620644
0.184646
0.302651
0.413244
0.513906
0.602525
0.677474
0.737652
0.782505
0.812008
0.826629
0.827271
0.815193
0.79193
0.759198
0.718811
0.672598
0.62233
0.569664
0.516093
0.462919
0.411232
0.361905
0.315599
0.272778
0.233722
0.198559
0.167281
0.139778
0.115859
0.095272
0.0777326
0.0629343
0.0505662
0.040324
0.0319178
0.0250785
0.0195615
0.0151483
0.011647
0.00889157
0.00674033
0.00507393
0.00379305
0.002816
0.00207633
0.00152053
0.00110597
0.000799025
0.000573399
0.00040874
0.000289429
0.000203589
0.000142264
9.87579e-05
6.81078e-05
4.66636e-05
3.17631e-05
2.14803e-05
1.44324e-05
9.63433e-06
6.38995e-06
4.21089e-06
2.75709e-06
1.79366e-06
1.15936e-06
7.44544e-07
4.75023e-07
3.00971e-07
1.89166e-07
1.17594e-07
7.1737e-08
4.19828e-08
2.1836e-08
6.74925e-09
0.0459328
0.136664
0.224041
0.305983
0.380639
0.446452
0.502219
0.54712
0.58073
0.603016
0.614304
0.61524
0.606735
0.589906
0.566007
0.536369
0.502337
0.46522
0.426245
0.386523
0.347025
0.308568
0.27181
0.237253
0.205251
0.176025
0.149677
0.126211
0.105553
0.087565
0.0720663
0.0588472
0.0476824
0.0383417
0.0305988
0.0242379
0.019058
0.0148759
0.0115276
0.00886904
0.00677515
0.00513913
0.0038709
0.00289539
0.00215077
0.00158668
0.00116255
0.000846016
0.000611508
0.000439033
0.000313096
0.000221796
0.000156077
0.000109105
7.57663e-05
5.22695e-05
3.58234e-05
2.43917e-05
1.64999e-05
1.1089e-05
7.40419e-06
4.91189e-06
3.2375e-06
2.12013e-06
1.37947e-06
8.91765e-07
5.72764e-07
3.65457e-07
2.31559e-07
1.45551e-07
9.04997e-08
5.51992e-08
3.2315e-08
1.68232e-08
5.19941e-09
0.033821
0.100636
0.165002
0.225401
0.280479
0.329093
0.37036
0.403669
0.428702
0.445421
0.454054
0.455062
0.449101
0.43698
0.419612
0.397967
0.373032
0.345767
0.317076
0.287782
0.258603
0.23015
0.202914
0.177273
0.153497
0.131755
0.11213
0.094631
0.0792079
0.0657636
0.0541673
0.0442664
0.0358957
0.0288857
0.0230694
0.0182869
0.0143888
0.011239
0.00871506
0.00670943
0.00512859
0.00389252
0.00293364
0.00219557
0.00163181
0.00120446
0.000882952
0.000642857
0.00046488
0.000333911
0.00023823
0.000168831
0.000118852
8.31133e-05
5.77373e-05
3.98448e-05
2.73166e-05
1.86049e-05
1.25888e-05
8.46257e-06
5.65184e-06
3.75017e-06
2.47226e-06
1.61927e-06
1.05372e-06
6.81273e-07
4.37606e-07
2.79233e-07
1.76915e-07
1.11182e-07
6.91301e-08
4.21979e-08
2.47074e-08
1.28465e-08
3.98106e-09
0.0247747
0.0737231
0.120893
0.16518
0.205598
0.241315
0.271682
0.296251
0.314783
0.327243
0.333787
0.334744
0.330586
0.321895
0.309332
0.293603
0.275425
0.255501
0.234494
0.213006
0.19157
0.170636
0.15057
0.131654
0.114092
0.0980126
0.0834822
0.0705115
0.0590668
0.0490798
0.0404568
0.0330871
0.0268504
0.0216226
0.0172811
0.013708
0.0107933
0.00843612
0.00654585
0.00504257
0.0038568
0.00292898
0.00220871
0.00165393
0.00122991
0.000908279
0.000666157
0.000485245
0.000351064
0.000252271
0.000180059
0.000127657
8.99009e-05
6.28907e-05
4.3704e-05
3.01701e-05
2.06901e-05
1.40957e-05
9.5402e-06
6.41478e-06
4.28514e-06
2.8439e-06
1.87512e-06
1.22838e-06
7.99475e-07
5.16983e-07
3.32112e-07
2.11902e-07
1.34257e-07
8.43848e-08
5.24595e-08
3.20296e-08
1.8755e-08
9.74575e-09
3.00418e-09
0.0180535
0.053726
0.0881125
0.120414
0.149916
0.176015
0.198237
0.216256
0.229893
0.239116
0.244036
0.244884
0.241997
0.235793
0.226749
0.215375
0.202191
0.187708
0.172409
0.156734
0.141073
0.125757
0.111057
0.0971833
0.0842865
0.0724652
0.0617707
0.0522139
0.0437727
0.0363991
0.0300264
0.0245747
0.0199568
0.0160825
0.0128622
0.0102097
0.0080441
0.00629133
0.00488468
0.00376518
0.00288149
0.00218954
0.00165203
0.00123774
0.000920892
0.000680415
0.000499277
0.000363855
0.000263359
0.000189328
0.000135189
9.58827e-05
6.75495e-05
4.72714e-05
3.28609e-05
2.2692e-05
1.55663e-05
1.06079e-05
7.18143e-06
4.82989e-06
3.2271e-06
2.14216e-06
1.41268e-06
9.25567e-07
6.02484e-07
3.89648e-07
2.50341e-07
1.59725e-07
1.01198e-07
6.36421e-08