/*--------------------------------*- C++ -*----------------------------------*\
  =========                 |
  \\      /  F ield         | OpenFOAM: The Open Source CFD Toolbox
   \\    /   O peration     | Website:  https://openfoam.org
    \\  /    A nd           | Version:  10
     \\/     M anipulation  |
\*---------------------------------------------------------------------------*/
FoamFile
{
    format      ascii;
    class       volScalarField;
    location    "32";
    object      gradTx;
}
// * * * * * * * * * * * * * * * * * * * * * * * * * * * * * * * * * * * * * //

dimensions      [0 -1 0 1 0 0 0];

internalField   nonuniform List<scalar> 
11250
(
14072.6
7448.65
4299.85
2565.07
1527
888.742
499.873
269.939
139.464
68.8175
32.4115
14.5711
6.25593
2.56702
1.00762
0.378723
0.136435
0.0471538
0.0156489
0.00499091
0.00153084
0.000451884
0.000128454
3.51842e-05
9.29129e-06
2.36687e-06
5.8194e-07
1.3817e-07
3.16652e-08
6.99621e-09
1.46203e-09
2.96357e-10
3.29285e-11
-2.19524e-12
-9.87856e-12
-4.39047e-12
0
-2.19524e-12
1.09762e-12
-4.39047e-12
-9.87856e-12
6.58571e-12
1.09762e-12
-5.48809e-12
-5.48809e-12
1.09762e-12
0
-4.39047e-12
2.19524e-12
0
1.09762e-12
0
1.4269e-11
0
1.09762e-12
0
1.09762e-12
-2.19524e-12
0
2.19524e-12
0
1.09762e-12
0
-2.19524e-11
9.87856e-12
-1.09762e-12
-1.09762e-12
0
1.09762e-12
0
-5.48809e-12
0
-7.68332e-12
0
-9.87856e-12
3877.04
4072.05
3027.58
2027.74
1280.44
770.077
441.737
241.571
125.877
62.4897
29.5625
13.3353
5.74052
2.36054
0.928191
0.34938
0.126023
0.0436036
0.0144851
0.00462398
0.00141951
0.000419361
0.000119302
3.27023e-05
8.64226e-06
2.20314e-06
5.42063e-07
1.28796e-07
2.95577e-08
6.55278e-09
1.38629e-09
2.82088e-10
5.70761e-11
5.48809e-12
1.09762e-12
0
-8.78094e-12
1.09762e-12
-1.09762e-12
0
0
-4.39047e-12
-1.09762e-12
-1.09762e-12
0
0
-1.09762e-12
0
-2.19523e-12
0
-1.75619e-11
0
-1.4269e-11
8.78094e-12
-1.31714e-11
-6.5857e-12
-1.4269e-11
0
-4.39047e-12
0
0
-1.09762e-12
0
2.41476e-11
5.48809e-12
0
-1.09762e-12
1.09762e-12
-1.09762e-12
0
-8.78094e-12
0
8.78094e-12
2.19523e-12
0
1273.5
2026.7
1842.71
1386.31
939.7
591.162
349.325
194.957
103.063
51.7068
24.6566
11.1909
4.84095
1.99849
0.788401
0.297581
0.107595
0.037306
0.0124166
0.00397056
0.00122091
0.000361249
0.000102924
2.82538e-05
7.47726e-06
1.9088e-06
4.7031e-07
1.11901e-07
2.57391e-08
5.73066e-09
1.23482e-09
2.42573e-10
4.71976e-11
2.52452e-11
1.75619e-11
3.29285e-12
0
-1.09762e-12
-2.19524e-12
2.19524e-12
9.87856e-12
-2.19524e-12
0
7.68332e-12
5.48809e-12
7.68332e-12
1.09762e-12
5.48809e-12
0
0
1.09762e-12
-1.09762e-12
4.39047e-12
8.78094e-12
0
-2.19523e-12
0
4.39047e-12
0
-2.19524e-12
0
0
0
-1.4269e-11
-1.09762e-11
2.19524e-12
3.29285e-12
2.19523e-12
0
0
3.29285e-12
8.78094e-12
0
-1.09762e-12
8.78094e-12
492.367
998.219
1044.9
863.943
624.832
411.274
250.977
143.383
77.1258
39.2069
18.8877
8.64195
3.76269
1.56167
0.618839
0.234475
0.0850609
0.0295807
0.00987202
0.00316481
0.000975455
0.000289281
8.26011e-05
2.27238e-05
6.02651e-06
1.54165e-06
3.80626e-07
9.07422e-08
2.09085e-08
4.65609e-09
1.01091e-09
2.09645e-10
4.17095e-11
1.75619e-11
5.48809e-12
1.09762e-12
8.78094e-12
0
1.09762e-12
0
0
0
1.09762e-12
0
0
0
0
1.09762e-12
0
0
1.53666e-11
0
1.09762e-12
-8.78094e-12
1.31714e-11
5.48809e-12
1.4269e-11
-4.39047e-12
5.48809e-12
6.58571e-12
0
-2.19523e-12
0
-1.09762e-12
-4.39047e-12
3.29285e-12
0
1.09762e-12
0
2.19524e-12
5.48809e-12
0
-1.09762e-12
-1.09762e-12
-5.48809e-12
213.266
493.41
567.532
504.078
384.77
263.748
165.964
97.0623
53.1641
27.4126
13.3561
6.16717
2.70543
1.12994
0.450155
0.171353
0.0624168
0.0217863
0.00729561
0.00234635
0.000725409
0.000215766
6.17887e-05
1.70469e-05
4.53372e-06
1.16302e-06
2.87925e-07
6.88107e-08
1.58847e-08
3.55189e-09
7.88089e-10
1.87693e-10
4.82952e-11
-8.78094e-12
-8.78094e-12
0
0
-1.97571e-11
2.19523e-12
2.19523e-12
5.48809e-12
-1.09762e-12
8.78094e-12
0
-2.19523e-12
-1.09762e-11
-4.39047e-12
-2.19523e-12
1.09762e-12
3.29285e-12
8.78094e-12
1.09762e-12
-5.48809e-12
-9.87856e-12
0
5.48809e-12
1.09762e-12
-8.78094e-12
-5.48809e-12
0
0
0
0
1.86595e-11
0
-1.09762e-12
-1.09762e-12
-3.29285e-12
0
-1.09762e-12
-9.87856e-12
-1.20738e-11
-7.68332e-12
-1.09762e-12
-1.09762e-12
98.0543
243.381
297.897
278.951
222.307
157.734
102.018
60.9837
33.9937
17.7782
8.76288
4.08519
1.80654
0.759674
0.304434
0.116486
0.0426291
0.0149432
0.00502405
0.00162196
0.000503303
0.000150245
4.31792e-05
1.19549e-05
3.19067e-06
8.21364e-07
2.04041e-07
4.89285e-08
1.13285e-08
2.52672e-09
5.54297e-10
1.02078e-10
2.19524e-11
3.29285e-12
-4.39047e-12
0
0
0
1.09762e-11
1.20738e-11
0
0
-9.87856e-12
-1.09762e-12
1.09762e-12
1.09762e-12
0
1.09762e-12
-2.19524e-12
-2.19523e-12
-6.58571e-12
-1.09762e-12
0
-3.29285e-12
-1.09762e-12
0
-1.09762e-12
2.19524e-12
1.09762e-12
-6.58571e-12
1.09762e-12
2.19523e-12
1.09762e-12
0
-1.09762e-12
-4.39047e-12
0
0
0
-2.19524e-12
4.39047e-12
1.09762e-12
-4.39047e-12
0
0
45.9929
118.624
151.314
147.29
121.424
88.6544
58.7191
35.7982
20.282
10.7515
5.3597
2.52261
1.12466
0.47628
0.19205
0.0738921
0.0271783
0.00957194
0.00323259
0.00104812
0.000326617
9.79099e-05
2.82561e-05
7.85583e-06
2.10537e-06
5.44226e-07
1.35752e-07
3.27112e-08
7.60978e-09
1.68923e-09
3.5453e-10
4.50023e-11
1.09762e-12
-5.48809e-12
-5.48809e-12
0
-1.09762e-12
2.19524e-11
0
0
-9.87856e-12
2.19524e-12
-8.78094e-12
-9.87856e-12
-4.39047e-12
2.19524e-12
5.48809e-12
1.09762e-12
-1.09762e-12
-4.39047e-12
-9.87856e-12
0
0
-1.09762e-12
0
-9.87856e-12
-1.09762e-12
-7.68332e-12
4.39047e-12
-4.39047e-12
0
-2.19523e-12
1.09762e-12
-5.48809e-12
2.19523e-12
2.19524e-12
0
0
-1.20738e-11
1.09762e-12
1.31714e-11
2.19524e-12
0
-7.68332e-12
0
21.4735
56.6243
74.2769
74.3966
62.9782
47.0725
31.816
19.7352
11.3471
6.09101
3.0691
1.45789
0.655204
0.279431
0.113385
0.0438754
0.0162234
0.00574238
0.00194865
0.000634805
0.000198744
5.98558e-05
1.73548e-05
4.84764e-06
1.30527e-06
3.3896e-07
8.49655e-08
2.05858e-08
4.81415e-09
1.09213e-09
2.39281e-10
6.36618e-11
2.41476e-11
0
-1.09762e-12
0
-8.78094e-12
-9.87856e-12
-1.20738e-11
-1.20738e-11
-1.09762e-12
0
9.87856e-12
0
-5.48809e-12
-9.87856e-12
0
-1.09762e-12
1.09762e-12
-3.29285e-12
5.48809e-12
0
0
4.39047e-12
1.09762e-12
4.39047e-12
2.305e-11
3.29285e-12
-3.29285e-12
0
0
0
-3.29285e-12
0
0
0
7.68332e-12
-1.09762e-12
0
1.09762e-12
-1.09762e-12
0
6.5857e-12
0
4.39047e-12
9.83615
26.2942
35.1698
35.9852
31.1022
23.6968
16.2931
10.2598
5.97707
3.24531
1.6516
0.791429
0.358436
0.153922
0.0628484
0.02446
0.00909336
0.00323534
0.00110344
0.000361259
0.000113666
3.44041e-05
1.00254e-05
2.81446e-06
7.61643e-07
1.98785e-07
5.00766e-08
1.21989e-08
2.89442e-09
6.82718e-10
1.47081e-10
2.85381e-11
0
4.39047e-12
5.48809e-12
-1.09762e-12
0
-2.19524e-12
-1.09762e-12
-5.48809e-12
5.48809e-12
-1.09762e-12
-3.29285e-12
9.87856e-12
0
0
-3.29285e-12
0
0
-1.20738e-11
-2.19524e-12
0
-1.09762e-12
-3.29285e-12
0
8.78094e-12
1.4269e-11
1.4269e-11
-4.39047e-12
4.39047e-12
-1.09762e-12
2.19523e-12
8.78094e-12
0
-1.09762e-12
0
1.4269e-11
2.19523e-12
1.31714e-11
-1.09762e-12
2.19523e-12
5.48809e-12
6.58571e-12
8.78094e-12
2.19524e-12
4.3832
11.8231
16.0366
16.6756
14.6518
11.3399
7.91046
5.04661
2.9744
1.63175
0.838078
0.40489
0.184721
0.0798523
0.0328039
0.0128397
0.00479918
0.00171644
0.000588417
0.000193628
6.12351e-05
1.86299e-05
5.45692e-06
1.53992e-06
4.18896e-07
1.09917e-07
2.78367e-08
6.8206e-09
1.62996e-09
3.98435e-10
8.12237e-11
-2.19523e-12
-3.62214e-11
-3.40261e-11
0
-1.09762e-12
7.68332e-12
8.78094e-12
0
-6.58571e-12
-5.48809e-12
-2.19524e-12
1.09762e-12
0
5.48809e-12
8.78094e-12
-1.09762e-12
-4.39047e-12
1.09762e-12
4.39047e-12
-2.19524e-12
-1.09762e-12
0
0
0
-5.48809e-12
-1.97571e-11
-1.09762e-12
2.19523e-12
-1.09762e-12
-1.09762e-12
0
1.09762e-12
-1.09762e-12
-1.09762e-12
-1.09762e-12
-6.58571e-12
0
-1.09762e-12
0
1.09762e-12
0
-6.58571e-12
0
1.09762e-12
1.89082
5.13227
7.03358
7.40557
6.59302
5.1692
3.6503
2.35521
1.40247
0.776575
0.402215
0.195796
0.0899446
0.0391281
0.0161686
0.00636355
0.00239115
0.000859608
0.000296182
9.7957e-05
3.11365e-05
9.52129e-06
2.80323e-06
7.95123e-07
2.17414e-07
5.73714e-08
1.4617e-08
3.59579e-09
8.60532e-10
1.98669e-10
5.1588e-11
3.18309e-11
5.48809e-12
-5.48809e-12
1.75619e-11
2.19523e-12
2.19523e-12
-1.20738e-11
-6.5857e-12
5.48809e-12
1.75619e-11
0
3.29285e-12
1.09762e-12
6.5857e-12
0
3.29285e-12
-5.48809e-12
-1.09762e-12
1.20738e-11
2.19523e-12
0
2.19523e-12
4.39047e-12
2.19523e-12
1.09762e-12
-1.4269e-11
0
4.39047e-12
-1.09762e-12
3.29285e-12
1.4269e-11
-8.78094e-12
0
0
-9.87856e-12
-3.7319e-11
-1.09762e-12
0
0
-3.29285e-12
-5.48809e-12
0
-2.19523e-12
-3.29285e-12
0.78733
2.14683
2.96534
3.15293
2.83707
2.24846
1.6044
1.04539
0.628195
0.350767
0.183071
0.0897454
0.0414939
0.0181589
0.00754559
0.00298547
0.00112751
0.00040734
0.000141036
4.68716e-05
1.4971e-05
4.60032e-06
1.36103e-06
3.87959e-07
1.0662e-07
2.82823e-08
7.24867e-09
1.7946e-09
4.29168e-10
1.00981e-10
3.7319e-11
2.305e-11
4.60999e-11
3.51238e-11
2.19523e-12
0
-2.19524e-12
1.09762e-12
0
6.58571e-12
7.68332e-12
2.19524e-12
4.39047e-12
7.68332e-12
0
1.09762e-12
0
1.20738e-11
1.09762e-12
2.19523e-12
4.39047e-12
4.39047e-12
0
1.09762e-12
-1.09762e-12
-1.09762e-12
-3.29285e-12
0
-1.09762e-12
2.19524e-12
0
-1.09762e-12
5.48809e-12
0
-1.09762e-11
-5.48809e-12
-2.19524e-12
-1.09762e-12
0
1.09762e-12
0
0
4.39047e-12
0
1.09762e-12
0.315953
0.864505
1.20145
1.28753
1.16875
0.934703
0.672959
0.442266
0.26793
0.150741
0.0792281
0.0390923
0.0181834
0.00800221
0.00334266
0.00132913
0.00050436
0.000183055
6.36673e-05
2.1254e-05
6.81892e-06
2.10468e-06
6.25451e-07
1.79099e-07
4.94575e-08
1.31736e-08
3.407e-09
8.52849e-10
1.89888e-10
3.07333e-11
1.4269e-11
4.39047e-12
5.48809e-12
5.48809e-12
-2.19523e-11
0
1.09762e-11
1.64643e-11
9.87856e-12
0
-2.305e-11
0
-1.09762e-12
-3.29285e-12
-1.09762e-12
0
-1.09762e-12
4.39047e-12
0
1.09762e-12
0
1.09762e-12
0
0
-1.09762e-12
0
1.09762e-12
-8.78094e-12
-7.68332e-12
-3.29285e-12
-1.09762e-12
-1.4269e-11
1.09762e-12
-1.20738e-11
-1.09762e-12
1.09762e-11
2.305e-11
-2.19523e-12
0
0
-1.09762e-12
-4.39047e-12
-8.78094e-12
1.09762e-12
6.58571e-12
0.122102
0.335002
0.467859
0.504618
0.461436
0.371897
0.269848
0.178698
0.109049
0.0617768
0.0326799
0.0162222
0.00758805
0.00335686
0.00140908
0.000562869
0.000214523
7.81862e-05
2.7304e-05
9.15103e-06
2.94739e-06
9.13223e-07
2.72435e-07
7.83062e-08
2.169e-08
5.80201e-09
1.50922e-09
3.75385e-10
7.57356e-11
-5.48809e-12
2.19523e-12
1.4269e-11
-1.20738e-11
-8.78094e-12
-4.39047e-12
0
2.19523e-12
0
0
0
-2.19523e-12
-1.09762e-11
-6.5857e-12
-7.68332e-12
-5.48809e-12
-6.5857e-12
-1.09762e-12
-6.5857e-12
0
-1.09762e-12
0
-2.19523e-12
-1.09762e-12
1.09762e-12
0
0
4.39047e-12
0
1.09762e-12
0
-1.09762e-12
-1.09762e-12
-6.5857e-12
0
1.20738e-11
8.78094e-12
2.19523e-12
0
-1.09762e-12
-2.19523e-12
-6.5857e-12
4.39047e-12
0
0
0
0.0454319
0.124923
0.17517
0.189953
0.174788
0.141822
0.103618
0.0690881
0.0424417
0.0241967
0.0128772
0.00642827
0.00302267
0.00134371
0.000566584
0.000227274
8.69579e-05
3.18094e-05
1.1147e-05
3.74842e-06
1.21117e-06
3.7644e-07
1.12638e-07
3.2462e-08
8.99388e-09
2.3961e-09
6.04787e-10
1.36105e-10
2.85381e-11
4.39047e-12
5.48809e-12
2.19523e-12
-6.58571e-12
-2.19524e-12
4.39047e-12
0
-1.97571e-11
3.29285e-12
-9.87856e-12
0
5.48809e-12
1.09762e-12
-1.31714e-11
2.19523e-12
0
-5.48809e-12
4.39047e-12
0
-5.48809e-12
-1.09762e-12
0
-3.29285e-12
-8.78094e-12
0
-1.4269e-11
-1.09762e-12
0
7.68332e-12
8.78094e-12
6.58571e-12
1.09762e-12
-4.39047e-12
0
1.31714e-11
9.87856e-12
0
-1.09762e-12
2.19523e-12
-4.39047e-12
0
-7.68332e-12
3.29285e-12
8.78094e-12
9.87856e-12
-3.29285e-12
0.0162779
0.0448411
0.0630921
0.0687334
0.0635923
0.0519074
0.038161
0.0256042
0.0158263
0.00907665
0.00485788
0.00243796
0.00115202
0.000514442
0.000217812
8.76979e-05
3.3668e-05
1.23538e-05
4.34137e-06
1.46368e-06
4.74104e-07
1.47707e-07
4.42845e-08
1.27938e-08
3.56287e-09
9.3517e-10
2.25012e-10
4.50023e-11
1.31714e-11
4.39047e-12
8.78094e-12
-4.39047e-12
-7.68332e-12
-2.19524e-11
0
-1.09762e-12
0
4.39047e-12
0
-1.09762e-12
0
9.87856e-12
1.09762e-12
0
5.48809e-12
5.48809e-12
1.09762e-12
2.19524e-12
-1.09762e-12
0
1.09762e-12
-1.09762e-12
0
-2.19524e-12
0
-4.39047e-12
-4.39047e-12
0
8.78094e-12
-1.09762e-12
0
1.09762e-12
0
-2.19524e-12
5.48809e-12
-4.39047e-12
-1.09762e-12
-1.09762e-12
0
1.09762e-12
-4.39047e-12
-7.68332e-12
-2.19524e-12
2.19523e-12
5.48809e-12
0.00561805
0.0155007
0.0218745
0.0239277
0.0222465
0.0182577
0.0134999
0.00911113
0.00566465
0.00326726
0.00175814
0.000886809
0.000421001
0.000188792
8.02331e-05
3.24103e-05
1.2478e-05
4.58976e-06
1.61636e-06
5.45952e-07
1.77137e-07
5.52639e-08
1.65971e-08
4.80976e-09
1.3347e-09
3.5014e-10
9.00046e-11
2.52452e-11
-8.78094e-12
4.39047e-12
-1.75619e-11
-2.74404e-11
-4.39047e-12
-3.29285e-12
5.48809e-12
1.09762e-12
3.29285e-12
-4.39047e-12
8.78094e-12
-4.39047e-12
1.09762e-12
-1.09762e-11
1.4269e-11
5.48809e-12
-1.53666e-11
6.5857e-12
-5.48809e-12
0
7.68332e-12
0
-1.09762e-12
4.39047e-12
8.78094e-12
0
1.4269e-11
2.19523e-12
1.09762e-12
3.29285e-12
0
-2.19523e-12
-2.19523e-12
5.48809e-12
1.09762e-12
0
-9.87856e-12
-1.09762e-12
0
-3.29285e-12
4.39047e-12
-1.09762e-12
-3.29285e-12
5.48809e-12
-3.29285e-12
-9.87856e-12
-1.09762e-12
0.00186865
0.00516309
0.00730548
0.0080208
0.0074909
0.00617909
0.00459383
0.00311786
0.00194942
0.0011306
0.000611585
0.000309994
0.000147819
6.65478e-05
2.83772e-05
1.14955e-05
4.43598e-06
1.63465e-06
5.76475e-07
1.94932e-07
6.3282e-08
1.97363e-08
5.9414e-09
1.71558e-09
4.56609e-10
1.11957e-10
2.41476e-11
-8.78094e-12
-7.68332e-12
7.68332e-12
-2.08547e-11
-2.305e-11
-6.58571e-12
1.4269e-11
2.19523e-12
0
-1.09762e-12
-5.48809e-12
-1.09762e-12
1.09762e-12
0
1.09762e-12
0
0
-1.53666e-11
-2.19524e-12
0
-3.29285e-12
1.09762e-12
0
0
0
0
-1.09762e-12
-2.19524e-12
5.48809e-12
-1.09762e-12
-2.19524e-12
-9.87856e-12
0
0
-4.39047e-12
0
2.19524e-12
-4.39047e-12
1.09762e-12
8.78094e-12
4.39047e-12
0
0
9.87856e-12
1.20738e-11
5.48809e-12
-5.48809e-12
-4.39047e-12
0.000599314
0.00165806
0.00235183
0.00259106
0.00243022
0.00201442
0.00150553
0.00102745
0.000645984
0.000376689
0.000204821
0.000104313
4.99533e-05
2.25717e-05
9.65439e-06
3.92038e-06
1.51551e-06
5.59144e-07
1.9733e-07
6.67703e-08
2.16747e-08
6.74925e-09
2.02181e-09
5.58687e-10
1.58057e-10
2.305e-11
-1.64643e-11
-1.97571e-11
-3.29285e-12
-4.39047e-12
1.09762e-11
1.75619e-11
-1.09762e-12
7.68332e-12
-5.48809e-12
0
5.48809e-12
-1.09762e-12
0
5.48809e-12
-1.09762e-12
1.53666e-11
-1.09762e-12
-5.48809e-12
1.4269e-11
1.09762e-12
1.31714e-11
0
6.58571e-12
1.09762e-12
0
0
0
0
1.09762e-12
-2.19523e-12
-1.09762e-12
-1.09762e-12
-1.09762e-12
2.19524e-12
-1.09762e-12
-8.78094e-12
-1.09762e-12
0
-8.78094e-12
-9.87856e-12
0
2.19523e-12
4.39047e-12
1.09762e-12
1.31714e-11
-4.39047e-12
3.29285e-12
-1.09762e-12
-1.09762e-12
0.000185434
0.000513651
0.000730282
0.00080724
0.000760268
0.000633201
0.000475718
0.000326436
0.000206378
0.000120998
6.61301e-05
3.38377e-05
1.62712e-05
7.37782e-06
3.16437e-06
1.28757e-06
4.98386e-07
1.83994e-07
6.49296e-08
2.19447e-08
7.11037e-09
2.21719e-09
6.57473e-10
1.59155e-10
5.59785e-11
1.75619e-11
-1.31714e-11
-4.39047e-12
-1.53666e-11
-2.19523e-11
-1.31714e-11
7.68332e-12
7.68332e-12
4.39047e-12
0
0
1.09762e-12
-8.78094e-12
1.09762e-12
0
-1.09762e-12
6.5857e-12
-1.09762e-12
0
1.53666e-11
-8.78094e-12
1.09762e-12
1.09762e-12
-2.19523e-12
-8.78094e-12
0
-1.09762e-12
0
1.09762e-12
3.29285e-12
3.29285e-12
1.86595e-11
0
2.19523e-12
0
0
-6.5857e-12
-1.09762e-12
3.29285e-12
0
-1.09762e-12
-7.68332e-12
0
0
1.09762e-12
-4.39047e-12
-8.78094e-12
0
0
-5.48809e-12
5.53791e-05
0.000153583
0.000218854
0.000242706
0.000229519
0.000192069
0.000145056
0.000100087
6.36306e-05
3.75102e-05
2.06062e-05
1.05929e-05
5.11426e-06
2.32664e-06
1.00042e-06
4.07743e-07
1.57974e-07
5.8312e-08
2.05496e-08
6.92487e-09
2.2589e-09
7.29916e-10
2.23914e-10
5.48809e-11
4.39047e-12
5.48809e-12
-5.48809e-12
-1.09762e-12
-6.5857e-12
-1.97571e-11
-3.7319e-11
-1.75619e-11
3.29285e-12
5.48809e-12
0
0
-5.48809e-12
-6.58571e-12
0
0
1.09762e-12
1.09762e-12
1.09762e-12
0
-5.48809e-12
-1.09762e-12
-1.09762e-11
-4.39047e-12
-4.39047e-12
0
0
2.19524e-12
-1.09762e-12
2.19524e-12
-1.09762e-12
-1.09762e-12
9.87856e-12
0
0
-2.19524e-12
3.29285e-12
8.78094e-12
0
-1.86595e-11
8.78094e-12
1.09762e-11
0
1.09762e-12
-4.39047e-12
0
-1.20738e-11
0
0
-3.29285e-12
2.19524e-12
1.59706e-05
4.43434e-05
6.33318e-05
7.04621e-05
6.6907e-05
5.62582e-05
4.27126e-05
2.96358e-05
1.89477e-05
1.12311e-05
6.20158e-06
3.20276e-06
1.55238e-06
7.08455e-07
3.05325e-07
1.24603e-07
4.82831e-08
1.77891e-08
6.24874e-09
2.11511e-09
6.98085e-10
2.33793e-10
7.02475e-11
4.28071e-11
-7.68332e-12
7.68332e-12
2.19524e-12
-2.19524e-12
-6.5857e-12
-1.64643e-11
-2.19524e-11
-8.78094e-12
7.68332e-12
-1.09762e-12
2.19523e-12
0
1.09762e-12
9.87856e-12
1.09762e-12
-1.09762e-12
1.09762e-12
-7.68332e-12
2.19524e-12
-2.19523e-12
0
9.87856e-12
-1.09762e-12
0
0
7.68332e-12
0
1.09762e-12
0
1.09762e-12
-1.09762e-12
-2.19523e-12
-1.86595e-11
-7.68332e-12
-1.09762e-12
0
-1.09762e-12
1.09762e-11
1.09762e-12
-2.19524e-12
-1.09762e-12
-4.39047e-12
9.87856e-12
-1.09762e-12
2.19524e-12
-2.19524e-12
3.29285e-12
0
-2.19524e-12
3.29285e-12
-8.78094e-12
4.44907e-06
1.23679e-05
1.7704e-05
1.97616e-05
1.8842e-05
1.59199e-05
1.21515e-05
8.47883e-06
5.45184e-06
3.24944e-06
1.80349e-06
9.35671e-07
4.55263e-07
2.08387e-07
9.00343e-08
3.67921e-08
1.42591e-08
5.23564e-09
1.83083e-09
6.27837e-10
1.90985e-10
5.81737e-11
2.96357e-11
3.29285e-11
2.41476e-11
2.19523e-12
1.20738e-11
-1.20738e-11
0
-1.09762e-12
1.09762e-12
-7.68332e-12
9.87856e-12
-4.39047e-12
7.68332e-12
0
5.48809e-12
5.48809e-12
0
0
-1.09762e-12
-6.5857e-12
1.09762e-12
0
4.39047e-12
0
2.19523e-12
0
-1.09762e-12
2.19523e-12
1.09762e-12
-2.19523e-12
7.68332e-12
-3.29285e-12
-2.19523e-12
5.48809e-12
-7.68332e-12
1.20738e-11
1.09762e-12
0
1.09762e-12
-2.19523e-12
-1.09762e-12
1.31714e-11
0
1.31714e-11
0
-2.19523e-12
0
1.09762e-12
4.39047e-12
-2.19523e-12
0
2.19523e-12
-1.09762e-12
1.1976e-06
3.33333e-06
4.78243e-06
5.35584e-06
5.12791e-06
4.35382e-06
3.34121e-06
2.34461e-06
1.5162e-06
9.08675e-07
5.06915e-07
2.64171e-07
1.29049e-07
5.92505e-08
2.56579e-08
1.04987e-08
4.07436e-09
1.50374e-09
5.26856e-10
1.85497e-10
5.37833e-11
1.86595e-11
2.74404e-11
1.31714e-11
1.4269e-11
6.5857e-12
-2.19524e-12
-5.48809e-12
1.75619e-11
1.20738e-11
1.31714e-11
0
-1.86595e-11
3.29285e-12
1.09762e-12
-2.19524e-12
0
1.09762e-12
-1.09762e-12
2.19524e-12
1.09762e-12
3.29285e-12
-3.29285e-12
2.19523e-12
2.19524e-12
-1.09762e-12
-1.09762e-12
-5.48809e-12
-2.19524e-12
2.19523e-12
-7.68332e-12
-7.68332e-12
-1.09762e-12
0
-1.31714e-11
6.5857e-12
1.09762e-12
1.09762e-11
0
-1.09762e-12
1.09762e-12
0
-1.09762e-12
4.39047e-12
3.29285e-12
4.39047e-12
-9.87856e-12
0
-1.09762e-12
1.09762e-12
1.09762e-12
1.09762e-12
0
1.09762e-12
1.31714e-11
3.11754e-07
8.68725e-07
1.24927e-06
1.40366e-06
1.3496e-06
1.15148e-06
8.88449e-07
6.27005e-07
4.0778e-07
2.45727e-07
1.37789e-07
7.2119e-08
3.53795e-08
1.62886e-08
7.0489e-09
2.89991e-09
1.10969e-09
4.32461e-10
1.56959e-10
3.07333e-11
9.87856e-12
8.78094e-12
-1.09762e-11
-5.48809e-12
8.78094e-12
2.19523e-11
1.31714e-11
1.4269e-11
-4.39047e-12
-1.09762e-11
0
5.48809e-12
-1.09762e-11
-1.53666e-11
-7.68332e-12
-1.09762e-12
1.09762e-11
1.09762e-12
1.09762e-12
0
0
0
-1.09762e-12
0
0
1.53666e-11
-1.09762e-12
1.09762e-12
0
-1.09762e-12
-1.09762e-12
-3.29285e-12
-7.68332e-12
1.09762e-12
1.09762e-12
-4.39047e-12
0
-3.29285e-12
-2.19523e-12
2.19524e-12
-1.09762e-12
2.19523e-12
0
6.58571e-12
-2.19523e-12
-1.31714e-11
2.19524e-12
1.09762e-12
0
-1.09762e-12
7.68332e-12
3.29285e-12
0
3.29285e-12
-4.39047e-12
7.84401e-08
2.1879e-07
3.15381e-07
3.55507e-07
3.43286e-07
2.94313e-07
2.28306e-07
1.62032e-07
1.05976e-07
6.42172e-08
3.61753e-08
1.90195e-08
9.36597e-09
4.32022e-09
1.87034e-09
7.86992e-10
3.17211e-10
1.56959e-10
7.90285e-11
1.31714e-11
1.4269e-11
7.68332e-12
-8.78094e-12
7.68332e-12
1.75619e-11
-5.48809e-12
2.41476e-11
3.51238e-11
3.29285e-12
4.39047e-12
1.20738e-11
1.20738e-11
1.4269e-11
4.39047e-12
2.19523e-12
2.19523e-12
4.39047e-12
-7.68332e-12
0
-2.19523e-12
1.09762e-12
-1.09762e-12
0
1.09762e-12
-1.09762e-12
2.19523e-12
1.09762e-12
9.87856e-12
1.09762e-12
-2.19523e-12
7.68332e-12
6.5857e-12
2.19523e-12
-2.19523e-12
1.4269e-11
-6.5857e-12
-1.09762e-12
-3.29285e-12
1.09762e-12
2.19523e-12
-1.09762e-12
-2.19523e-12
2.19523e-12
-1.20738e-11
-3.29285e-12
-1.09762e-12
0
1.09762e-12
1.09762e-12
0
-7.68332e-12
0
-4.39047e-12
-1.4269e-11
-1.09762e-12
1.89405e-08
5.30983e-08
7.67498e-08
8.6815e-08
8.41982e-08
7.25525e-08
5.65954e-08
4.03868e-08
2.65799e-08
1.61789e-08
9.15193e-09
4.8361e-09
2.40159e-09
1.13494e-09
4.95025e-10
2.05254e-10
1.14152e-10
5.48809e-11
3.40261e-11
3.07333e-11
2.19524e-12
-1.97571e-11
9.87856e-12
7.68332e-12
-1.86595e-11
-1.64643e-11
-5.48809e-12
1.4269e-11
2.96357e-11
2.74404e-11
1.20738e-11
7.68332e-12
1.09762e-11
3.07333e-11
0
1.09762e-12
-1.20738e-11
-1.31714e-11
-2.19524e-12
0
0
6.58571e-12
1.09762e-12
0
-4.39047e-12
-1.64643e-11
1.09762e-12
1.09762e-12
1.09762e-11
0
-1.09762e-12
3.29285e-12
-6.5857e-12
0
-2.19524e-12
0
0
-7.68332e-12
4.39047e-12
-3.29285e-12
0
-1.09762e-12
-5.48809e-12
-2.08547e-11
2.19523e-12
0
-2.19524e-12
-3.29285e-12
1.09762e-12
-1.09762e-12
1.09762e-12
-2.19524e-12
0
0
1.31714e-11
4.48267e-09
1.27368e-08
1.84839e-08
2.09447e-08
2.04025e-08
1.76892e-08
1.38574e-08
9.9499e-09
6.55058e-09
3.99094e-09
2.27317e-09
1.21616e-09
6.05885e-10
2.91966e-10
1.10859e-10
5.81737e-11
3.40261e-11
1.75619e-11
-9.87856e-12
6.5857e-12
-6.58571e-12
-1.4269e-11
-1.31714e-11
-2.41476e-11
-3.62214e-11
-2.41476e-11
-2.41476e-11
-2.52452e-11
-5.48809e-12
1.86595e-11
1.64643e-11
8.78094e-12
1.09762e-12
-3.29285e-12
-4.39047e-12
2.19524e-12
-5.48809e-12
6.58571e-12
-8.78094e-12
2.19524e-12
-1.09762e-12
-1.09762e-12
-1.09762e-12
0
0
1.09762e-12
6.5857e-12
-2.19524e-12
8.78094e-12
-2.19523e-12
-1.09762e-12
1.09762e-12
0
3.29285e-12
0
-1.09762e-12
0
0
-1.09762e-12
0
0
3.29285e-12
-1.09762e-12
7.68332e-12
0
-1.09762e-12
0
0
6.58571e-12
4.39047e-12
6.5857e-12
-1.97571e-11
2.19524e-12
1.09762e-11
0
1.1503e-09
2.93283e-09
4.21705e-09
4.76366e-09
4.63414e-09
4.04362e-09
3.16663e-09
2.28085e-09
1.49386e-09
9.01144e-10
5.13685e-10
2.82088e-10
1.21836e-10
3.84166e-11
-5.48809e-12
0
1.09762e-12
-2.19523e-12
-1.20738e-11
1.20738e-11
1.53666e-11
1.09762e-12
-1.4269e-11
-1.31714e-11
-2.52452e-11
-3.62214e-11
-2.63428e-11
-3.07333e-11
-2.305e-11
-1.09762e-12
1.09762e-12
3.29285e-12
-3.29285e-12
-9.87856e-12
1.09762e-12
1.09762e-12
-5.48809e-12
1.20738e-11
-1.09762e-12
1.09762e-12
1.09762e-12
-6.5857e-12
-1.09762e-12
1.09762e-12
0
0
1.75619e-11
0
-1.09762e-11
0
2.19523e-12
0
2.08547e-11
0
0
0
8.78094e-12
0
-1.09762e-12
-2.19523e-12
-1.09762e-12
1.09762e-12
4.39047e-12
1.86595e-11
1.09762e-12
0
-1.09762e-12
1.31714e-11
0
1.09762e-12
-7.68332e-12
0
0
0
-7.68332e-12
2.94161e-10
5.40028e-10
7.77113e-10
8.71508e-10
7.88089e-10
6.95889e-10
5.35637e-10
3.67702e-10
2.48062e-10
1.58057e-10
1.04274e-10
5.37833e-11
1.86595e-11
-4.39047e-12
1.09762e-12
-1.86595e-11
-1.53666e-11
-3.29285e-11
9.87856e-12
8.78094e-12
9.87856e-12
-6.58571e-12
-8.78094e-12
-9.87856e-12
-3.29285e-12
-1.31714e-11
-2.52452e-11
-2.85381e-11
-1.86595e-11
-3.29285e-11
-2.52452e-11
-1.53666e-11
-4.39047e-12
1.09762e-12
2.19523e-12
0
1.09762e-12
0
8.78094e-12
0
-1.09762e-12
0
1.09762e-12
-2.19523e-12
0
-1.09762e-12
2.19523e-12
0
-7.68332e-12
2.19523e-12
-2.19524e-12
-1.31714e-11
-1.09762e-12
-2.19524e-12
1.09762e-12
3.29285e-12
7.68332e-12
-1.20738e-11
-1.09762e-12
2.19524e-12
-1.09762e-12
-5.48809e-12
-3.29285e-12
0
0
2.19524e-12
1.09762e-12
0
-8.78094e-12
4.39047e-12
1.09762e-12
2.41476e-11
2.19524e-12
4.39047e-12
0
1.66838e-10
3.99533e-10
5.1588e-10
5.77347e-10
5.1588e-10
4.21485e-10
3.28188e-10
2.28304e-10
1.383e-10
1.06469e-10
7.79308e-11
3.84166e-11
1.64643e-11
0
1.20738e-11
-1.64643e-11
-4.17095e-11
-3.84166e-11
-3.29285e-12
-1.31714e-11
0
8.78094e-12
-5.48809e-12
-2.08547e-11
-1.09762e-12
4.39047e-12
1.09762e-12
-2.19524e-12
-7.68332e-12
-1.64643e-11
-9.87856e-12
-2.08547e-11
4.39047e-12
-5.48809e-12
-6.5857e-12
-2.19524e-12
5.48809e-12
0
3.29285e-12
-2.19524e-12
-6.5857e-12
0
2.19524e-12
-2.19523e-12
0
0
-1.86595e-11
0
-1.09762e-12
-1.09762e-12
-4.39047e-12
-5.48809e-12
-1.4269e-11
2.19524e-12
2.19524e-12
0
-8.78094e-12
-1.64643e-11
-8.78094e-12
-1.20738e-11
-3.29285e-12
-1.09762e-12
1.09762e-12
-2.19524e-12
-1.09762e-12
-1.09762e-11
1.09762e-12
-6.5857e-12
-1.09762e-12
-1.09762e-12
-2.19523e-12
0
-9.87856e-12
0
5.48809e-12
2.19523e-11
7.4638e-11
-1.53666e-11
2.85381e-11
4.39047e-11
-1.31714e-11
-7.68332e-12
1.20738e-11
7.68332e-12
1.09762e-11
-4.39047e-12
-1.53666e-11
-1.31714e-11
-1.09762e-11
2.19523e-12
-1.53666e-11
-1.31714e-11
1.09762e-12
-1.53666e-11
7.68332e-12
1.75619e-11
2.41476e-11
2.41476e-11
1.86595e-11
7.68332e-12
2.19523e-12
2.96357e-11
2.305e-11
2.19523e-11
6.5857e-12
-1.20738e-11
-3.51238e-11
-3.18309e-11
-8.78094e-12
-2.19523e-12
-1.09762e-12
0
-1.20738e-11
-1.09762e-12
-1.09762e-12
0
3.29285e-12
5.48809e-12
4.39047e-12
-2.19523e-12
0
-9.87856e-12
-1.09762e-12
1.09762e-12
-4.39047e-12
1.09762e-12
1.31714e-11
1.09762e-12
0
-3.29285e-12
6.5857e-12
-7.68332e-12
7.68332e-12
-8.78094e-12
-2.19523e-12
-1.31714e-11
5.48809e-12
4.39047e-12
-7.68332e-12
1.09762e-12
-1.09762e-12
-1.09762e-12
1.09762e-12
2.19523e-12
-8.78094e-12
-1.31714e-11
-4.39047e-12
-6.5857e-12
-7.68332e-12
-1.09762e-12
-7.4638e-11
-1.53666e-10
-2.87576e-10
-2.74404e-10
-2.28304e-10
-2.21719e-10
-1.6574e-10
-9.65903e-11
-5.48809e-11
-3.84166e-11
-3.51238e-11
-2.85381e-11
-7.68332e-12
1.64643e-11
1.4269e-11
4.39047e-12
4.39047e-12
-2.19524e-12
-1.20738e-11
1.31714e-11
1.31714e-11
8.78094e-12
1.97571e-11
2.305e-11
1.86595e-11
2.19523e-11
8.78094e-12
6.58571e-12
1.4269e-11
-1.09762e-12
0
-1.31714e-11
-2.96357e-11
-4.39047e-12
0
0
-1.09762e-12
-9.87856e-12
-8.78094e-12
0
1.09762e-12
0
-2.19524e-12
-4.39047e-12
5.48809e-12
-8.78094e-12
0
-1.31714e-11
-1.09762e-12
1.09762e-12
0
1.09762e-12
-1.09762e-12
-1.31714e-11
-1.09762e-12
4.39047e-12
0
4.39047e-12
1.86595e-11
1.31714e-11
4.39047e-12
2.19523e-12
0
2.19524e-12
0
1.09762e-11
-2.19524e-12
0
0
5.48809e-12
8.78094e-12
0
9.87856e-12
2.19523e-12
-6.58571e-12
8.78094e-11
1.27324e-10
2.63428e-10
2.72209e-10
2.74404e-10
2.45866e-10
2.16231e-10
1.56959e-10
9.65903e-11
6.14666e-11
3.62214e-11
2.74404e-11
1.31714e-11
2.52452e-11
1.31714e-11
5.48809e-12
0
-9.87856e-12
1.09762e-12
-2.41476e-11
-1.09762e-12
1.86595e-11
1.09762e-12
-1.09762e-12
4.39047e-12
3.51238e-11
1.64643e-11
1.75619e-11
1.53666e-11
5.48809e-12
1.64643e-11
2.74404e-11
3.40261e-11
-4.39047e-12
0
-1.09762e-12
1.09762e-12
1.20738e-11
8.78094e-12
-4.39047e-12
0
-3.29285e-12
3.29285e-12
-1.64643e-11
1.09762e-12
2.19524e-12
0
0
-2.19524e-12
-4.39047e-12
1.09762e-12
3.29285e-12
0
-2.19524e-12
2.19524e-12
-2.305e-11
-1.09762e-12
0
7.68332e-12
1.09762e-12
1.4269e-11
-2.19523e-12
-1.09762e-12
-1.09762e-12
-4.39047e-12
1.09762e-12
-1.09762e-12
1.20738e-11
0
0
2.08547e-11
9.87856e-12
6.58571e-12
4.39047e-12
0
1.75619e-11
-3.51238e-11
1.53666e-11
-3.07333e-11
-3.29285e-11
-8.78094e-12
-5.48809e-12
-1.20738e-11
-7.68332e-12
-1.64643e-11
-1.53666e-11
1.09762e-12
-1.4269e-11
-1.75619e-11
-8.78094e-12
1.20738e-11
1.97571e-11
3.51238e-11
2.41476e-11
3.29285e-12
1.31714e-11
1.64643e-11
7.68332e-12
8.78094e-12
1.53666e-11
2.19523e-11
2.85381e-11
5.04904e-11
3.51238e-11
3.51238e-11
2.52452e-11
3.62214e-11
2.63428e-11
6.5857e-12
1.53666e-11
1.09762e-12
2.19523e-12
7.68332e-12
8.78094e-12
-1.09762e-12
1.4269e-11
-5.48809e-12
5.48809e-12
9.87856e-12
0
8.78094e-12
9.87856e-12
2.305e-11
2.19523e-12
-6.5857e-12
4.39047e-12
6.5857e-12
1.53666e-11
2.08547e-11
1.09762e-12
5.48809e-12
4.39047e-12
1.4269e-11
-1.09762e-11
0
0
-2.19523e-12
-1.09762e-12
0
-3.29285e-12
0
4.39047e-12
-4.39047e-12
-2.19523e-12
-1.31714e-11
-5.48809e-12
6.5857e-12
-1.09762e-12
-5.48809e-12
2.19523e-12
-1.14152e-10
-1.97571e-10
-3.3148e-10
-3.68799e-10
-3.09528e-10
-2.23914e-10
-1.49276e-10
-9.98832e-11
-5.81737e-11
-4.71976e-11
-2.52452e-11
-5.48809e-12
4.39047e-12
0
1.4269e-11
1.75619e-11
2.41476e-11
3.51238e-11
2.19524e-12
1.31714e-11
6.58571e-12
-1.09762e-11
2.19523e-12
1.86595e-11
2.96357e-11
1.53666e-11
3.07333e-11
2.96357e-11
2.19523e-11
2.305e-11
1.09762e-11
8.78094e-12
8.78094e-12
2.74404e-11
1.09762e-12
-5.48809e-12
-2.19524e-12
-1.09762e-12
-9.87856e-12
4.39047e-12
0
0
-2.19524e-12
1.86595e-11
1.09762e-12
-1.09762e-12
2.19523e-12
-1.09762e-12
1.09762e-12
8.78094e-12
1.09762e-12
4.39047e-12
1.4269e-11
1.09762e-12
-2.19524e-12
1.4269e-11
1.31714e-11
2.19524e-12
2.19523e-12
0
0
-2.19523e-12
2.19524e-12
8.78094e-12
3.29285e-12
-1.09762e-12
0
-1.20738e-11
1.09762e-12
0
-1.64643e-11
-9.87856e-12
1.09762e-12
-7.68332e-12
0
8.78094e-12
1.31714e-10
1.99766e-10
2.28304e-10
2.65623e-10
2.52452e-10
2.25012e-10
1.58057e-10
1.18543e-10
6.47594e-11
4.93928e-11
1.75619e-11
1.53666e-11
1.64643e-11
2.08547e-11
1.64643e-11
1.64643e-11
5.48809e-12
-6.58571e-12
-3.40261e-11
-1.4269e-11
-1.53666e-11
-8.78094e-12
5.48809e-12
1.09762e-12
1.53666e-11
1.64643e-11
-6.58571e-12
-2.19523e-12
1.75619e-11
1.4269e-11
1.09762e-12
-1.4269e-11
3.29285e-12
-9.87856e-12
0
-1.09762e-12
2.19524e-12
0
1.31714e-11
-9.87856e-12
1.09762e-11
-1.4269e-11
-4.39047e-12
1.09762e-12
0
-1.09762e-11
-7.68332e-12
0
5.48809e-12
0
-2.19524e-12
-1.4269e-11
-8.78094e-12
0
-2.08547e-11
-4.39047e-12
-4.39047e-12
1.09762e-12
0
0
-2.19523e-12
4.39047e-12
0
5.48809e-12
0
-1.09762e-12
0
6.58571e-12
1.53666e-11
5.48809e-12
-5.48809e-12
-8.78094e-12
1.09762e-12
-4.39047e-12
1.75619e-11
7.90285e-11
3.95142e-11
3.51238e-11
3.51238e-11
8.78094e-12
-1.31714e-11
-6.5857e-12
-3.29285e-12
-1.97571e-11
-8.78094e-12
-7.68332e-12
-6.5857e-12
7.68332e-12
1.09762e-12
1.31714e-11
1.09762e-12
-1.31714e-11
-1.09762e-12
-2.63428e-11
-3.84166e-11
-2.08547e-11
-2.19523e-12
-1.86595e-11
-7.68332e-12
8.78094e-12
-5.48809e-12
-1.4269e-11
-7.68332e-12
1.20738e-11
2.19523e-11
2.63428e-11
-6.5857e-12
-1.53666e-11
-2.19523e-12
5.48809e-12
1.09762e-12
2.19523e-12