/*--------------------------------*- C++ -*----------------------------------*\
  =========                 |
  \\      /  F ield         | OpenFOAM: The Open Source CFD Toolbox
   \\    /   O peration     | Website:  https://openfoam.org
    \\  /    A nd           | Version:  10
     \\/     M anipulation  |
\*---------------------------------------------------------------------------*/
FoamFile
{
    format      ascii;
    class       volScalarField;
    location    "375";
    object      T;
}
// * * * * * * * * * * * * * * * * * * * * * * * * * * * * * * * * * * * * * //

dimensions      [0 0 0 1 0 0 0];

internalField   nonuniform List<scalar> 
11250
(
249.858
167.604
139.438
127.053
120.307
116.037
113.055
110.835
109.107
107.719
106.578
105.624
104.817
104.129
103.537
103.027
102.586
102.204
101.874
101.589
101.342
101.13
100.948
100.792
100.659
100.546
100.451
100.37
100.303
100.247
100.2
100.161
100.129
100.103
100.082
100.065
100.051
100.04
100.031
100.024
100.019
100.014
100.011
100.008
100.006
100.005
100.004
100.003
100.002
100.001
100.001
100.001
100.001
100
100
100
100
100
100
100
100
100
100
100
100
100
100
100
100
100
100
100
100
100
100
331.547
248.73
202.543
175.531
158.46
146.838
138.424
132.034
127.004
122.933
119.571
116.752
114.36
112.315
110.556
109.037
107.723
106.585
105.6
104.748
104.013
103.379
102.835
102.369
101.972
101.634
101.349
101.108
100.906
100.738
100.598
100.482
100.387
100.309
100.246
100.194
100.153
100.12
100.093
100.072
100.056
100.043
100.033
100.025
100.019
100.014
100.01
100.008
100.006
100.004
100.003
100.002
100.002
100.001
100.001
100.001
100
100
100
100
100
100
100
100
100
100
100
100
100
100
100
100
100
100
100
359.153
293.239
246.499
214.1
191.207
174.482
161.825
151.939
144.009
137.512
132.099
127.53
123.637
120.295
117.413
114.919
112.758
110.884
109.26
107.855
106.64
105.593
104.694
103.923
103.266
102.708
102.235
101.836
101.502
101.223
100.991
100.799
100.641
100.512
100.407
100.322
100.253
100.198
100.155
100.12
100.092
100.071
100.054
100.041
100.031
100.023
100.017
100.013
100.01
100.007
100.005
100.004
100.003
100.002
100.001
100.001
100.001
100
100
100
100
100
100
100
100
100
100
100
100
100
100
100
100
100
100
370.987
318.6
276.156
243.219
217.859
198.142
182.551
169.993
159.698
151.13
143.909
137.763
132.492
127.946
124.011
120.596
117.629
115.052
112.814
110.875
109.198
107.751
106.507
105.441
104.531
103.757
103.101
102.549
102.085
101.698
101.376
101.11
100.891
100.712
100.566
100.447
100.352
100.276
100.215
100.166
100.128
100.098
100.075
100.057
100.043
100.032
100.024
100.018
100.013
100.01
100.007
100.005
100.004
100.003
100.002
100.001
100.001
100.001
100
100
100
100
100
100
100
100
100
100
100
100
100
100
100
100
100
377.192
334.052
296.362
264.841
238.965
217.792
200.38
185.93
173.819
163.568
154.82
147.302
140.805
135.17
130.269
126
122.281
119.043
116.226
113.78
111.662
109.833
108.259
106.909
105.755
104.773
103.942
103.24
102.652
102.16
101.751
101.412
101.134
100.906
100.72
100.57
100.448
100.351
100.274
100.212
100.163
100.125
100.096
100.073
100.055
100.041
100.031
100.023
100.017
100.012
100.009
100.007
100.005
100.003
100.002
100.002
100.001
100.001
100.001
100
100
100
100
100
100
100
100
100
100
100
100
100
100
100
100
380.936
344.099
310.472
280.917
255.494
233.833
215.415
199.718
186.282
174.721
164.726
156.049
148.491
141.892
136.125
131.081
126.672
122.821
119.464
116.545
114.012
111.822
109.935
108.315
106.929
105.75
104.75
103.906
103.197
102.605
102.112
101.704
101.368
101.093
100.869
100.688
100.541
100.424
100.33
100.256
100.197
100.152
100.116
100.088
100.066
100.05
100.037
100.028
100.02
100.015
100.011
100.008
100.006
100.004
100.003
100.002
100.002
100.001
100.001
100.001
100
100
100
100
100
100
100
100
100
100
100
100
100
100
100
383.408
350.988
320.597
292.985
268.412
246.811
227.935
211.475
197.115
184.569
173.587
163.955
155.499
148.067
141.536
135.8
130.767
126.359
122.507
119.149
116.231
113.704
111.524
109.65
108.046
106.679
105.52
104.541
103.718
103.03
102.457
101.983
101.593
101.273
101.012
100.801
100.631
100.494
100.385
100.298
100.23
100.177
100.135
100.102
100.077
100.058
100.043
100.032
100.024
100.018
100.013
100.009
100.007
100.005
100.004
100.002
100.002
100.001
100.001
100.001
100
100
100
100
100
100
100
100
100
100
100
100
100
100
100
385.139
355.91
328.048
302.154
278.538
257.273
238.281
221.397
206.424
193.159
181.413
171.014
161.811
153.671
146.479
140.133
134.546
129.636
125.335
121.577
118.306
115.468
113.016
110.906
109.099
107.557
106.248
105.141
104.211
103.433
102.785
102.248
101.806
101.444
101.149
100.909
100.716
100.561
100.437
100.339
100.261
100.201
100.153
100.116
100.088
100.066
100.049
100.037
100.027
100.02
100.015
100.011
100.008
100.006
100.004
100.003
100.002
100.001
100.001
100.001
100
100
100
100
100
100
100
100
100
100
100
100
100
100
100
386.398
359.538
333.648
309.207
286.514
265.704
246.793
229.713
214.352
200.578
188.254
177.248
167.435
158.702
150.946
144.073
137.997
132.643
127.939
123.821
120.228
117.107
114.406
112.078
110.082
108.378
106.93
105.705
104.675
103.812
103.094
102.498
102.008
101.605
101.277
101.011
100.796
100.624
100.486
100.377
100.291
100.223
100.171
100.13
100.098
100.074
100.055
100.041
100.03
100.022
100.016
100.012
100.009
100.006
100.004
100.003
100.002
100.002
100.001
100.001
100.001
100
100
100
100
100
100
100
100
100
100
100
100
100
100
387.341
362.274
337.931
314.693
292.832
272.506
253.779
236.647
221.059
206.935
194.182
182.703
172.399
163.176
154.944
147.618
141.12
135.375
130.315
125.874
121.993
118.615
115.688
113.163
110.994
109.141
107.564
106.231
105.107
104.167
103.382
102.732
102.196
101.757
101.398
101.107
100.872
100.683
100.533
100.413
100.319
100.245
100.187
100.142
100.107
100.081
100.06
100.045
100.033
100.024
100.018
100.013
100.009
100.007
100.005
100.003
100.002
100.002
100.001
100.001
100.001
100
100
100
100
100
100
100
100
100
100
100
100
100
100
388.061
364.375
341.251
319.001
297.864
278.003
259.507
242.411
226.703
212.346
199.281
187.438
176.744
167.12
158.491
150.782
143.92
137.836
132.463
127.738
123.6
119.992
116.862
114.157
111.832
109.843
108.15
106.716
105.507
104.495
103.65
102.95
102.372
101.897
101.51
101.196
100.942
100.739
100.576
100.447
100.345
100.265
100.202
100.154
100.116
100.087
100.065
100.049
100.036
100.026
100.019
100.014
100.01
100.007
100.005
100.004
100.003
100.002
100.001
100.001
100.001
100
100
100
100
100
100
100
100
100
100
100
100
100
100
388.618
366.01
343.854
322.41
301.892
282.455
264.202
247.189
231.434
216.928
203.639
191.52
180.517
170.569
161.613
153.582
146.411
140.035
134.39
129.415
125.051
121.239
117.927
115.062
112.596
110.485
108.686
107.161
105.875
104.796
103.896
103.15
102.533
102.027
101.614
101.278
101.008
100.79
100.616
100.478
100.369
100.283
100.216
100.164
100.124
100.093
100.07
100.052
100.038
100.028
100.021
100.015
100.011
100.008
100.006
100.004
100.003
100.002
100.001
100.001
100.001
100
100
100
100
100
100
100
100
100
100
100
100
100
100
389.056
367.295
345.911
325.125
305.127
286.066
268.048
251.142
235.387
220.79
207.343
195.016
183.773
173.564
164.339
156.04
148.608
141.983
136.104
130.913
126.35
122.36
118.887
115.879
113.288
111.066
109.172
107.565
106.21
105.072
104.122
103.333
102.681
102.146
101.709
101.354
101.067
100.837
100.653
100.507
100.391
100.3
100.23
100.174
100.132
100.099
100.074
100.055
100.041
100.03
100.022
100.016
100.012
100.008
100.006
100.004
100.003
100.002
100.002
100.001
100.001
100.001
100
100
100
100
100
100
100
100
100
100
100
100
100
389.401
368.314
347.547
327.298
307.735
288.999
271.198
254.408
238.678
224.033
210.476
197.995
186.564
176.148
166.704
158.183
150.532
143.696
137.618
132.24
127.506
123.359
119.745
116.611
113.909
111.59
109.611
107.931
106.512
105.321
104.326
103.499
102.816
102.255
101.796
101.423
101.122
100.88
100.687
100.533
100.412
100.316
100.242
100.184
100.139
100.104
100.078
100.058
100.043
100.032
100.023
100.017
100.012
100.009
100.006
100.005
100.003
100.002
100.002
100.001
100.001
100.001
100
100
100
100
100
100
100
100
100
100
100
100
100
389.676
369.125
348.855
329.043
309.842
291.385
273.778
257.102
241.413
226.745
213.114
200.519
188.944
178.364
168.743
160.039
152.207
145.193
138.945
133.407
128.525
124.243
120.506
117.263
114.463
112.058
110.004
108.259
106.784
105.545
104.51
103.649
102.938
102.353
101.875
101.486
101.172
100.919
100.717
100.557
100.43
100.33
100.253
100.192
100.145
100.109
100.082
100.061
100.045
100.033
100.024
100.018
100.013
100.009
100.007
100.005
100.003
100.002
100.002
100.001
100.001
100.001
100
100
100
100
100
100
100
100
100
100
100
100
100
389.896
369.774
349.905
330.448
311.547
293.326
275.889
259.32
243.678
229.006
215.327
202.648
190.962
180.252
170.489
161.637
153.653
146.491
140.1
134.427
129.419
125.02
121.177
117.838
114.953
112.473
110.353
108.551
107.027
105.746
104.674
103.783
103.047
102.441
101.945
101.542
101.217
100.955
100.745
100.579
100.447
100.343
100.262
100.2
100.151
100.113
100.085
100.063
100.047
100.034
100.025
100.018
100.013
100.01
100.007
100.005
100.003
100.002
100.002
100.001
100.001
100.001
100
100
100
100
100
100
100
100
100
100
100
100
100
390.072
370.294
350.749
331.582
312.927
294.905
277.616
261.143
245.55
230.885
217.176
204.436
192.666
181.854
171.977
163.003
154.896
147.611
141.1
135.312
130.196
125.698
121.764
118.343
115.384
112.838
110.661
108.809
107.242
105.923
104.82
103.903
103.144
102.519
102.008
101.593
101.256
100.986
100.77
100.598
100.462
100.355
100.271
100.206
100.156
100.117
100.088
100.065
100.048
100.036
100.026
100.019
100.014
100.01
100.007
100.005
100.004
100.003
100.002
100.001
100.001
100.001
100
100
100
100
100
100
100
100
100
100
100
100
100
390.213
370.713
351.429
332.497
314.046
296.189
279.025
262.638
247.094
232.441
218.714
205.931
194.097
183.205
173.237
164.165
155.957
148.57
141.959
136.075
130.868
126.285
122.274
118.782
115.76
113.158
110.931
109.035
107.43
106.08
104.949
104.008
103.229
102.588
102.064
101.637
101.292
101.014
100.792
100.615
100.475
100.365
100.279
100.212
100.161
100.121
100.09
100.067
100.05
100.037
100.027
100.02
100.014
100.01
100.007
100.005
100.004
100.003
100.002
100.001
100.001
100.001
100
100
100
100
100
100
100
100
100
100
100
100
100
390.327
371.05
351.976
333.236
314.952
297.232
280.175
263.863
248.363
233.726
219.99
207.176
195.294
184.339
174.299
165.148
156.857
149.386
142.693
136.729
131.446
126.792
122.715
119.163
116.086
113.436
111.166
109.233
107.595
106.217
105.062
104.101
103.305
102.65
102.113
101.677
101.323
101.039
100.811
100.63
100.487
100.374
100.286
100.218
100.165
100.124
100.093
100.069
100.051
100.038
100.028
100.02
100.015
100.011
100.008
100.005
100.004
100.003
100.002
100.001
100.001
100.001
100
100
100
100
100
100
100
100
100
100
100
100
100
390.418
371.321
352.417
333.833
315.685
298.079
281.111
264.864
249.403
234.784
221.044
208.208
196.29
185.287
175.189
165.975
157.617
150.078
143.316
137.286
131.939
127.225
123.092
119.49
116.367
113.676
111.369
109.404
107.739
106.336
105.16
104.181
103.371
102.703
102.156
101.711
101.351
101.061
100.828
100.644
100.498
100.382
100.292
100.222
100.168
100.127
100.095
100.071
100.052
100.039
100.028
100.021
100.015
100.011
100.008
100.006
100.004
100.003
100.002
100.001
100.001
100.001
100
100
100
100
100
100
100
100
100
100
100
100
100
390.492
371.539
352.773
334.315
316.277
298.765
281.872
265.679
250.254
235.651
221.911
209.061
197.115
186.075
175.932
166.668
158.255
150.66
143.842
137.757
132.358
127.594
123.415
119.769
116.608
113.882
111.544
109.551
107.862
106.438
105.245
104.251
103.428
102.749
102.194
101.741
101.375
101.08
100.843
100.655
100.507
100.39
100.298
100.227
100.171
100.129
100.097
100.072
100.053
100.039
100.029
100.021
100.015
100.011
100.008
100.006
100.004
100.003
100.002
100.001
100.001
100.001
100
100
100
100
100
100
100
100
100
100
100
100
100
390.551
371.714
353.059
334.702
316.755
299.32
282.489
266.342
250.948
236.361
222.623
209.763
197.796
186.727
176.549
167.244
158.788
151.147
144.284
138.154
132.711
127.906
123.688
120.007
116.813
114.057
111.693
109.677
107.968
106.527
105.318
104.311
103.477
102.789
102.226
101.767
101.395
101.096
100.856
100.666
100.514
100.396
100.303
100.23
100.174
100.131
100.098
100.073
100.054
100.04
100.029
100.021
100.015
100.011
100.008
100.006
100.004
100.003
100.002
100.001
100.001
100.001
100
100
100
100
100
100
100
100
100
100
100
100
100
390.598
371.855
353.288
335.014
317.141
299.768
282.988
266.879
251.511
236.939
223.204
210.338
198.356
187.265
177.058
167.721
159.23
151.553
144.652
138.486
133.007
128.168
123.918
120.207
116.986
114.206
111.82
109.784
108.058
106.602
105.381
104.363
103.519
102.823
102.253
101.789
101.413
101.11
100.867
100.674
100.521
100.401
100.307
100.233
100.177
100.133
100.1
100.074
100.055
100.04
100.03
100.022
100.016
100.011
100.008
100.006
100.004
100.003
100.002
100.001
100.001
100.001
100
100
100
100
100
100
100
100
100
100
100
100
100
390.636
371.967
353.473
335.265
317.45
300.129
283.39
267.314
251.968
237.408
223.678
210.807
198.814
187.705
177.477
168.115
159.596
151.889
144.959
138.762
133.254
128.387
124.11
120.375
117.131
114.331
111.927
109.875
108.134
106.665
105.434
104.406
103.555
102.852
102.277
101.808
101.428
101.122
100.877
100.682
100.527
100.405
100.31
100.236
100.179
100.135
100.101
100.075
100.056
100.041
100.03
100.022
100.016
100.011
100.008
100.006
100.004
100.003
100.002
100.001
100.001
100.001
100
100
100
100
100
100
100
100
100
100
100
100
100
390.667
372.057
353.62
335.465
317.698
300.418
283.713
267.664
252.337
237.788
224.061
211.188
199.187
188.065
177.82
168.438
159.897
152.167
145.212
138.991
133.459
128.569
124.271
120.515
117.253
114.435
112.016
109.951
108.198
106.719
105.478
104.443
103.585
102.877
102.297
101.824
101.441
101.132
100.885
100.688
100.532
100.409
100.313
100.238
100.18
100.136
100.102
100.076
100.056
100.041
100.03
100.022
100.016
100.012
100.008
100.006
100.004
100.003
100.002
100.001
100.001
100.001
100
100
100
100
100
100
100
100
100
100
100
100
100
390.691
372.129
353.737
335.625
317.897
300.65
283.973
267.945
252.633
238.094
224.371
211.497
199.49
188.358
178.1
168.702
160.143
152.394
145.419
139.179
133.628
128.719
124.404
120.632
117.354
114.523
112.091
110.014
108.252
106.764
105.515
104.474
103.61
102.898
102.314
101.838
101.452
101.141
100.892
100.693
100.536
100.413
100.316
100.24
100.182
100.137
100.103
100.076
100.057
100.042
100.031
100.022
100.016
100.012
100.008
100.006
100.004
100.003
100.002
100.001
100.001
100.001
100
100
100
100
100
100
100
100
100
100
100
100
100
390.71
372.186
353.831
335.753
318.055
300.835
284.18
268.17
252.871
238.34
224.621
211.745
199.734
188.595
178.326
168.916
160.343
152.579
145.589
139.333
133.767
128.843
124.513
120.728
117.437
114.595
112.153
110.067
108.296
106.801
105.547
104.5
103.631
102.915
102.328
101.849
101.461
101.148
100.898
100.698
100.54
100.415
100.318
100.242
100.183
100.138
100.103
100.077
100.057
100.042
100.031
100.022
100.016
100.012
100.008
100.006
100.004
100.003
100.002
100.001
100.001
100.001
100
100
100
100
100
100
100
100
100
100
100
100
100
390.725
372.232
353.905
335.854
318.181
300.982
284.345
268.349
253.061
238.537
224.821
211.945
199.931
188.786
178.509
169.089
160.505
152.729
145.727
139.459
133.88
128.944
124.602
120.806
117.506
114.654
112.203
110.11
108.333
106.832
105.572
104.521
103.649
102.929
102.34
101.858
101.469
101.154
100.902
100.702
100.543
100.418
100.32
100.243
100.184
100.139
100.104
100.077
100.057
100.042
100.031
100.023
100.016
100.012
100.008
100.006
100.004
100.003
100.002
100.001
100.001
100.001
100
100
100
100
100
100
100
100
100
100
100
100
100
390.737
372.267
353.964
335.934
318.28
301.098
284.476
268.492
253.212
238.693
224.98
212.105
200.088
188.939
178.656
169.228
160.636
152.851
145.839
139.56
133.972
129.026
124.675
120.87
117.562
114.702
112.245
110.146
108.363
106.857
105.593
104.539
103.663
102.941
102.349
101.866
101.475
101.159
100.906
100.705
100.545
100.42
100.321
100.244
100.185
100.139
100.104
100.078
100.058
100.042
100.031
100.023
100.016
100.012
100.009
100.006
100.004
100.003
100.002
100.001
100.001
100.001
100
100
100
100
100
100
100
100
100
100
100
100
100
390.747
372.296
354.01
335.997
318.359
301.191
284.58
268.604
253.332
238.818
225.107
212.232
200.213
189.061
178.773
169.34
160.741
152.948
145.929
139.642
134.046
129.092
124.734
120.922
117.607
114.742
112.279
110.175
108.387
106.878
105.611
104.553
103.675
102.951
102.357
101.873
101.48
101.163
100.91
100.707
100.547
100.421
100.322
100.245
100.186
100.14
100.105
100.078
100.058
100.043
100.031
100.023
100.017
100.012
100.009
100.006
100.004
100.003
100.002
100.002
100.001
100.001
100
100
100
100
100
100
100
100
100
100
100
100
100
390.754
372.318
354.047
336.047
318.421
301.263
284.661
268.693
253.426
238.916
225.207
212.332
200.313
189.158
178.867
169.429
160.825
153.026
146.001
139.708
134.105
129.146
124.782
120.964
117.644
114.774
112.306
110.198
108.407
106.895
105.625
104.565
103.685
102.959
102.364
101.878
101.484
101.167
100.912
100.71
100.549
100.422
100.323
100.246
100.186
100.14
100.105
100.078
100.058
100.043
100.031
100.023
100.017
100.012
100.009
100.006
100.004
100.003
100.002
100.002
100.001
100.001
100
100
100
100
100
100
100
100
100
100
100
100
100
390.76
372.335
354.075
336.086
318.469
301.32
284.725
268.763
253.5
238.993
225.286
212.412
200.391
189.235
178.941
169.5
160.891
153.088
146.058
139.76
134.153
129.188
124.82
120.998
117.673
114.799
112.329
110.217
108.423
106.908
105.636
104.574
103.693
102.965
102.369
101.882
101.488
101.17
100.915
100.711
100.55
100.423
100.324
100.247
100.187
100.141
100.105
100.079
100.058
100.043
100.031
100.023
100.017
100.012
100.009
100.006
100.004
100.003
100.002
100.002
100.001
100.001
100
100
100
100
100
100
100
100
100
100
100
100
100
390.765
372.349
354.097
336.116
318.507
301.364
284.776
268.818
253.559
239.054
225.348
212.474
200.453
189.295
178.999
169.555
160.944
153.138
146.103
139.802
134.19
129.222
124.85
121.024
117.697
114.82
112.346
110.232
108.436
106.919
105.645
104.582
103.699
102.971
102.373
101.886
101.49
101.172
100.916
100.713
100.551
100.424
100.325
100.247
100.187
100.141
100.106
100.079
100.058
100.043
100.032
100.023
100.017
100.012
100.009
100.006
100.004
100.003
100.002
100.002
100.001
100.001
100.001
100
100
100
100
100
100
100
100
100
100
100
100
390.768
372.359
354.114
336.14
318.536
301.399
284.814
268.86
253.604
239.101
225.397
212.523
200.502
189.342
179.045
169.599
160.985
153.176
146.139
139.835
134.22
129.249
124.874
121.046
117.716
114.836
112.36
110.244
108.447
106.928
105.653
104.588
103.704
102.975
102.376
101.888
101.493
101.174
100.918
100.714
100.552
100.425
100.325
100.248
100.188
100.141
100.106
100.079
100.058
100.043
100.032
100.023
100.017
100.012
100.009
100.006
100.004
100.003
100.002
100.002
100.001
100.001
100.001
100
100
100
100
100
100
100
100
100
100
100
100
390.771
372.367
354.128
336.158
318.559
301.426
284.845
268.894
253.639
239.138
225.434
212.561
200.539
189.379
179.081
169.633
161.017
153.206
146.167
139.86
134.243
129.27
124.893
121.062
117.73
114.849
112.371
110.254
108.455
106.935
105.659
104.593
103.708
102.978
102.379
101.891
101.494
101.175
100.919
100.715
100.553
100.426
100.326
100.248
100.188
100.141
100.106
100.079
100.059
100.043
100.032
100.023
100.017
100.012
100.009
100.006
100.004
100.003
100.002
100.002
100.001
100.001
100.001
100
100
100
100
100
100
100
100
100
100
100
100
390.773
372.374
354.138
336.172
318.577
301.446
284.868
268.919
253.666
239.166
225.463
212.59
200.569
189.408
179.109
169.66
161.043
153.23
146.189
139.881
134.262
129.287
124.908
121.075
117.742
114.859
112.38
110.261
108.461
106.94
105.663
104.597
103.711
102.981
102.381
101.892
101.496
101.176
100.92
100.715
100.554
100.426
100.326
100.248
100.188
100.142
100.106
100.079
100.059
100.043
100.032
100.023
100.017
100.012
100.009
100.006
100.004
100.003
100.002
100.002
100.001
100.001
100.001
100
100
100
100
100
100
100
100
100
100
100
100
390.775
372.378
354.146
336.183
318.59
301.462
284.886
268.939
253.687
239.188
225.486
212.613
200.591
189.43
179.13
169.68
161.062
153.248
146.206
139.896
134.276
129.3
124.919
121.086
117.751
114.867
112.387
110.267
108.466
106.945
105.667
104.6
103.714
102.983
102.383
101.894
101.497
101.177
100.92
100.716
100.554
100.426
100.326
100.249
100.188
100.142
100.106
100.079
100.059
100.043
100.032
100.023
100.017
100.012
100.009
100.006
100.004
100.003
100.002
100.002
100.001
100.001
100.001
100
100
100
100
100
100
100
100
100
100
100
100
390.776
372.382
354.152
336.191
318.6
301.474
284.9
268.954
253.703
239.205
225.503
212.63
200.608
189.447
179.147
169.696
161.077
153.263
146.219
139.908
134.287
129.31
124.928
121.094
117.758
114.873
112.392
110.272
108.47
106.948
105.67
104.602
103.716
102.984
102.384
101.895
101.498
101.178
100.921
100.716
100.554
100.427
100.327
100.249
100.188
100.142
100.106
100.079
100.059
100.043
100.032
100.023
100.017
100.012
100.009
100.006
100.004
100.003
100.002
100.002
100.001
100.001
100.001
100
100
100
100
100
100
100
100
100
100
100
100
390.777
372.385
354.157
336.197
318.608
301.483
284.91
268.965
253.716
239.218
225.516
212.644
200.622
189.46
179.159
169.708
161.089
153.273
146.229
139.918
134.296
129.317
124.935
121.1
117.763
114.878
112.396
110.276
108.473
106.951
105.672
104.604
103.717
102.986
102.385
101.896
101.499
101.178
100.921
100.717
100.555
100.427
100.327
100.249
100.188
100.142
100.106
100.079
100.059
100.043
100.032
100.023
100.017
100.012
100.009
100.006
100.004
100.003
100.002
100.002
100.001
100.001
100.001
100
100
100
100
100
100
100
100
100
100
100
100
390.777
372.387
354.16
336.202
318.614
301.49
284.918
268.974
253.725
239.228
225.526
212.654
200.632
189.47
179.169
169.718
161.097
153.282
146.237
139.925
134.302
129.323
124.94
121.105
117.768
114.881
112.4
110.278
108.476
106.953
105.673
104.605
103.719
102.987
102.386
101.896
101.499
101.179
100.922
100.717
100.555
100.427
100.327
100.249
100.188
100.142
100.106
100.079
100.059
100.043
100.032
100.023
100.017
100.012
100.009
100.006
100.004
100.003
100.002
100.002
100.001
100.001
100.001
100
100
100
100
100
100
100
100
100
100
100
100
390.778
372.389
354.163
336.206
318.619
301.496
284.924
268.98
253.732
239.235
225.534
212.662
200.639
189.478
179.176
169.725
161.104
153.288
146.243
139.93
134.307
129.328
124.944
121.108
117.771
114.884
112.402
110.28
108.477
106.954
105.675
104.606
103.719
102.987
102.387
101.897
101.499
101.179
100.922
100.717
100.555
100.427
100.327
100.249
100.189
100.142
100.106
100.079
100.059
100.043
100.032
100.023
100.017
100.012
100.009
100.006
100.004
100.003
100.002
100.002
100.001
100.001
100.001
100
100
100
100
100
100
100
100
100
100
100
100
390.778
372.39
354.165
336.208
318.622
301.5
284.928
268.985
253.737
239.24
225.54
212.667
200.645
189.483
179.182
169.73
161.109
153.293
146.247
139.934
134.311
129.331
124.947
121.111
117.773
114.886
112.404
110.282
108.479
106.955
105.676
104.607
103.72
102.988
102.387
101.897
101.5
101.179
100.922
100.717
100.555
100.427
100.327
100.249
100.189
100.142
100.106
100.079
100.059
100.043
100.032
100.023
100.017
100.012
100.009
100.006
100.004
100.003
100.002
100.002
100.001
100.001
100.001
100
100
100
100
100
100
100
100
100
100
100
100
390.779
372.391
354.166
336.21
318.624
301.503
284.932
268.989
253.741
239.245
225.544
212.672
200.65
189.488
179.186
169.734
161.113
153.296
146.251
139.937
134.314
129.334
124.95
121.113
117.775
114.888
112.405
110.283
108.48
106.956
105.676
104.608
103.721
102.988
102.388
101.898
101.5
101.179
100.922
100.718
100.555
100.427
100.327
100.249
100.189
100.142
100.106
100.079
100.059
100.043
100.032
100.023
100.017
100.012
100.009
100.006
100.004
100.003
100.002
100.002
100.001
100.001
100.001
100
100
100
100
100
100
100
100
100
100
100
100
390.779
372.391
354.167
336.212
318.626
301.505
284.934
268.992
253.744
239.248
225.547
212.675
200.653
189.491
179.189
169.737
161.116
153.299
146.253
139.94
134.316
129.336
124.951
121.115
117.776
114.889
112.406
110.284
108.481
106.957
105.677
104.608
103.721
102.989
102.388
101.898
101.5
101.18
100.923
100.718
100.555
100.427
100.327
100.249
100.189
100.142
100.106
100.079
100.059
100.043
100.032
100.023
100.017
100.012
100.009
100.006
100.004
100.003
100.002
100.002
100.001
100.001
100.001
100
100
100
100
100
100
100
100
100
100
100
100
390.779
372.392
354.168
336.213
318.628
301.507
284.936
268.994
253.746
239.25
225.549
212.677
200.655
189.493
179.191
169.739
161.118
153.301
146.255
139.941
134.317
129.337
124.953
121.116
117.777
114.89
112.407
110.285
108.481
106.957
105.677
104.609
103.721
102.989
102.388
101.898
101.5
101.18
100.923
100.718
100.555
100.427
100.327
100.249
100.189
100.142
100.106
100.079
100.059
100.043
100.032
100.023
100.017
100.012
100.009
100.006
100.004
100.003
100.002
100.002
100.001
100.001
100.001
100
100
100
100
100
100
100
100
100
100
100
100
390.779
372.392
354.169
336.214
318.629
301.508
284.938
268.995
253.748
239.252
225.551
212.679
200.657
189.495
179.193
169.741
161.12
153.302
146.256
139.943
134.319
129.338
124.954
121.117
117.778
114.891
112.408
110.285
108.482
106.958
105.678
104.609
103.722
102.989
102.388
101.898
101.5
101.18
100.923
100.718
100.555
100.427
100.327
100.249
100.189
100.142
100.106
100.079
100.059
100.043
100.032
100.023
100.017
100.012
100.009
100.006
100.004
100.003
100.002
100.002
100.001
100.001
100.001
100
100
100
100
100
100
100
100
100
100
100
100
390.779
372.393
354.169
336.214
318.629
301.509
284.939
268.996
253.749
239.253
225.552
212.68
200.658
189.496
179.194
169.742
161.121
153.304
146.257
139.944
134.319
129.339
124.954
121.117
117.779
114.891
112.408
110.286
108.482
106.958
105.678
104.609
103.722
102.989
102.388
101.898
101.5
101.18
100.923
100.718
100.555
100.428
100.327
100.249
100.189
100.142
100.107
100.079
100.059
100.043
100.032
100.023
100.017
100.012
100.009
100.006
100.004
100.003
100.002
100.002
100.001
100.001
100.001
100
100
100
100
100
100
100
100
100
100
100
100
390.779
372.393
354.169
336.215
318.63
301.509
284.939
268.997
253.75
239.254
225.553
212.681
200.659
189.497
179.195
169.743
161.122
153.304
146.258
139.944
134.32
129.34
124.955
121.118
117.779
114.892
112.409
110.286
108.482
106.958
105.678
104.609
103.722
102.989
102.389
101.898
101.501
101.18
100.923
100.718
100.555
100.428
100.327
100.249
100.189
100.142
100.107
100.079
100.059
100.043
100.032
100.023
100.017
100.012
100.009
100.006
100.004
100.003
100.002
100.002
100.001
100.001
100.001
100
100
100
100
100
100
100
100
100
100
100
100
390.779
372.393
354.17
336.215
318.63
301.51
284.94
268.998
253.751
239.255
225.554
212.682
200.66
189.498
179.196
169.744
161.122
153.305
146.259
139.945
134.321
129.34
124.955
121.118
117.779
114.892
112.409
110.286
108.482
106.958
105.678
104.609
103.722
102.99
102.389
101.898
101.501
101.18
100.923
100.718
100.556
100.428
100.327
100.249
100.189
100.142
100.107
100.079
100.059
100.043
100.032
100.023
100.017
100.012
100.009
100.006
100.004
100.003
100.002
100.002
100.001
100.001
100.001
100
100
100
100
100
100
100
100
100
100
100
100
390.779
372.393
354.17
336.215
318.631
301.51
284.94
268.998
253.751
239.255
225.554
212.682
200.66
189.498
179.196
169.744
161.123
153.305
146.259
139.945
134.321
129.34
124.956
121.118
117.78
114.892
112.409
110.286
108.483
106.959
105.678
104.609
103.722
102.99
102.389
101.898
101.501
101.18
100.923
100.718
100.556
100.428
100.327
100.249
100.189
100.142
100.107
100.079
100.059
100.043
100.032
100.023
100.017
100.012
100.009
100.006
100.004
100.003
100.002
100.002
100.001
100.001
100.001
100
100
100
100
100
100
100
100
100
100
100
100
390.779
372.393
354.17
336.216
318.631
301.51
284.94
268.998
253.751
239.255
225.555
212.683
200.661
189.499
179.197
169.744
161.123
153.306
146.259
139.946
134.321
129.341
124.956
121.118
117.78
114.892
112.409
110.286
108.483
106.959
105.678
104.61
103.722
102.99
102.389
101.898
101.501
101.18
100.923
100.718
100.556
100.428
100.327
100.249
100.189
100.142
100.107
100.079
100.059
100.043
100.032
100.023
100.017
100.012
100.009
100.006
100.004
100.003
100.002
100.002
100.001
100.001
100.001
100
100
100
100
100
100
100
100
100
100
100
100
390.779
372.393
354.17
336.216
318.631
301.511
284.941
268.999
253.752
239.256
225.555
212.683
200.661
189.499
179.197
169.745
161.123
153.306
146.26
139.946
134.321
129.341
124.956
121.119
117.78
114.892
112.409
110.287
108.483
106.959
105.679
104.61
103.722
102.99
102.389
101.898
101.501
101.18
100.923
100.718
100.556
100.428
100.327
100.249
100.189
100.142
100.107
100.079
100.059
100.043
100.032
100.023
100.017
100.012
100.009
100.006
100.004
100.003
100.002
100.002
100.001
100.001
100.001
100
100
100
100
100
100
100
100
100
100
100
100
390.779
372.393
354.17
336.216
318.631
301.511
284.941
268.999
253.752
239.256
225.555
212.683
200.661
189.499
179.197
169.745
161.123
153.306
146.26
139.946
134.321
129.341
124.956
121.119
117.78
114.892
112.409
110.287
108.483
106.959
105.679
104.61
103.722
102.99
102.389
101.898
101.501
101.18
100.923
100.718
100.556
100.428
100.327
100.249
100.189
100.142
100.107
100.079
100.059
100.043
100.032
100.023
100.017
100.012
100.009
100.006
100.004
100.003
100.002
100.002
100.001
100.001
100.001
100
100
100
100
100
100
100
100
100
100
100
100
390.779
372.393
354.17
336.216
318.631
301.511
284.941
268.999
253.752
239.256
225.555
212.683
200.661
189.499
179.197
169.745
161.123
153.306
146.26
139.946
134.322
129.341
124.956
121.119
117.78
114.892
112.409
110.287
108.483
106.959
105.679
104.61
103.722
102.99
102.389
101.898
101.501
101.18
100.923
100.718
100.556
100.428
100.327
100.249
100.189
100.142
100.107
100.079
100.059
100.043
100.032
100.023
100.017
100.012
100.009
100.006
100.004
100.003
100.002
100.002
100.001
100.001
100.001
100
100
100
100
100
100
100
100
100
100
100
100
390.779
372.393
354.17
336.216
318.631
301.511
284.941
268.999
253.752
239.256
225.555
212.683
200.661