/*--------------------------------*- C++ -*----------------------------------*\
  =========                 |
  \\      /  F ield         | OpenFOAM: The Open Source CFD Toolbox
   \\    /   O peration     | Website:  https://openfoam.org
    \\  /    A nd           | Version:  10
     \\/     M anipulation  |
\*---------------------------------------------------------------------------*/
FoamFile
{
    format      ascii;
    class       volScalarField;
    location    "450";
    object      gradTz;
}
// * * * * * * * * * * * * * * * * * * * * * * * * * * * * * * * * * * * * * //

dimensions      [0 -1 0 1 0 0 0];

internalField   nonuniform List<scalar> 
11250
(
-14341.6
-4137.27
-1517.31
-714.231
-410.13
-269.222
-192.633
-145.955
-115.097
-93.4305
-77.4928
-65.3211
-55.7351
-47.9899
-41.5978
-36.229
-31.6546
-27.7117
-24.2822
-21.2787
-18.6348
-16.2995
-14.2323
-12.4008
-10.7782
-9.34182
-8.07231
-6.95264
-5.9677
-5.10387
-4.34877
-3.69111
-3.1205
-2.62743
-2.20314
-1.83961
-1.52954
-1.26625
-1.04372
-0.856522
-0.699786
-0.569182
-0.460878
-0.371499
-0.298097
-0.238111
-0.189328
-0.149851
-0.118061
-0.0925872
-0.0722756
-0.0561597
-0.0434357
-0.0334393
-0.0256243
-0.0195448
-0.0148387
-0.0112135
-0.00843475
-0.00631518
-0.00470636
-0.00349119
-0.00257786
-0.00189476
-0.00138641
-0.00101003
-0.000732824
-0.000529846
-0.000382216
-0.000275767
-0.000199983
-0.000147165
-0.000111816
-9.01797e-05
-7.992e-05
-8229.04
-4827.24
-2734.9
-1643.55
-1067.05
-743.211
-547.861
-421.937
-336.003
-274.486
-228.652
-193.334
-165.337
-142.606
-123.774
-107.911
-94.3629
-82.6637
-72.4727
-63.5365
-55.6625
-48.7018
-42.5363
-37.0707
-32.2261
-27.936
-24.1431
-20.7969
-17.8527
-15.2699
-13.0119
-11.0449
-9.33813
-7.86307
-6.59366
-5.50595
-4.5781
-3.7902
-3.12423
-2.56396
-2.09484
-1.70392
-1.37973
-1.11218
-0.892455
-0.71288
-0.56684
-0.448654
-0.353481
-0.277216
-0.216404
-0.168153
-0.130056
-0.100126
-0.0767266
-0.0585235
-0.0444322
-0.0335775
-0.025257
-0.0189104
-0.014093
-0.0104543
-0.00771938
-0.0056739
-0.00415167
-0.00302458
-0.0021945
-0.00158667
-0.00114459
-0.000825819
-0.000598876
-0.000440707
-0.000334851
-0.00027006
-0.000239337
-5517.73
-4207.23
-2951
-2057.55
-1470.85
-1088.3
-833.289
-657.601
-532.21
-439.627
-369.113
-313.896
-269.593
-233.288
-202.995
-177.332
-155.315
-136.234
-119.564
-104.912
-91.9764
-80.5231
-70.3651
-61.3504
-53.3527
-46.2651
-39.9947
-34.4599
-29.5877
-25.312
-21.5726
-18.3143
-15.4862
-13.0415
-10.9373
-9.13391
-7.59534
-6.28866
-5.18406
-4.25468
-3.47642
-2.82784
-2.28993
-1.84597
-1.48133
-1.18332
-0.940937
-0.744778
-0.586806
-0.460214
-0.359268
-0.27917
-0.215927
-0.166239
-0.127392
-0.0971706
-0.0737753
-0.0557531
-0.0419383
-0.0314004
-0.0234015
-0.0173597
-0.0128185
-0.00942196
-0.00689426
-0.00502268
-0.00364426
-0.00263492
-0.00190078
-0.00137143
-0.000994557
-0.000731893
-0.000556101
-0.000448504
-0.000397484
-4116.05
-3532.09
-2803.49
-2164.01
-1669.76
-1305.17
-1038.77
-842.423
-695.142
-582.315
-493.974
-423.328
-365.717
-317.904
-277.608
-243.196
-213.485
-187.602
-164.895
-144.869
-127.139
-111.405
-97.4239
-84.9965
-73.9567
-64.1622
-55.4889
-47.827
-41.0778
-35.1514
-29.9658
-25.4453
-21.5202
-18.1262
-15.2039
-12.6988
-10.5611
-8.74525
-7.20992
-5.91792
-4.83586
-3.93397
-3.18589
-2.56841
-2.0612
-1.64662
-1.30941
-1.03649
-0.816683
-0.640528
-0.500052
-0.388581
-0.300563
-0.231407
-0.177337
-0.135271
-0.102705
-0.0776182
-0.0583869
-0.043717
-0.0325814
-0.02417
-0.0178476
-0.0131188
-0.00959947
-0.00699363
-0.0050744
-0.00366901
-0.0026468
-0.00190972
-0.00138494
-0.00101919
-0.000774407
-0.000624578
-0.000553534
-3297.13
-3000.41
-2565.7
-2124.14
-1737.96
-1422.88
-1173.36
-977.412
-822.967
-699.983
-600.721
-519.422
-451.856
-394.928
-346.364
-304.485
-268.04
-236.086
-207.906
-182.945
-160.769
-141.031
-123.449
-107.789
-93.8551
-81.4748
-70.4985
-60.7923
-52.2346
-44.7147
-38.1304
-32.3875
-27.3985
-23.0826
-19.3652
-16.1775
-13.4565
-11.1445
-9.18921
-7.54348
-6.16491
-5.01569
-4.06231
-3.27526
-2.62868
-2.10012
-1.67017
-1.32214
-1.04182
-0.817152
-0.637975
-0.495784
-0.383501
-0.295274
-0.226291
-0.17262
-0.131068
-0.099056
-0.0745156
-0.055795
-0.0415841
-0.0308494
-0.0227804
-0.016745
-0.0122532
-0.00892721
-0.0064775
-0.00468361
-0.0033788
-0.00243791
-0.00176803
-0.00130114
-0.000988654
-0.000797388
-0.000706694
-2773.37
-2605.2
-2333.3
-2027.46
-1733.76
-1473.79
-1253.27
-1069.93
-918.501
-793.241
-688.969
-601.397
-527.12
-463.49
-408.472
-360.502
-318.377
-281.169
-248.156
-218.767
-192.549
-169.133
-148.215
-129.54
-112.889
-98.0689
-84.9111
-73.2613
-62.9793
-53.9359
-46.0116
-39.095
-33.083
-27.8794
-23.3953
-19.5487
-16.2639
-13.472
-11.1103
-9.12193
-7.45596
-6.06686
-4.91427
-3.96259
-3.18065
-2.54135
-2.02124
-1.60019
-1.26101
-0.989144
-0.772306
-0.600213
-0.464307
-0.35751
-0.274001
-0.209024
-0.158716
-0.119957
-0.090242
-0.0675731
-0.0503642
-0.0373643
-0.0275921
-0.0202826
-0.0148423
-0.0108138
-0.00784659
-0.0056737
-0.00409315
-0.00295342
-0.00214194
-0.00157634
-0.0011978
-0.000966089
-0.000856218
-2415.9
-2311.9
-2133.03
-1916.94
-1694.21
-1483.79
-1294.66
-1129.35
-986.861
-864.682
-759.869
-669.609
-591.445
-523.324
-463.577
-410.867
-364.127
-322.511
-285.338
-252.064
-222.242
-195.506
-171.545
-150.095
-130.926
-113.833
-98.6313
-85.1534
-73.2437
-62.7578
-53.5611
-45.5278
-38.5402
-32.4886
-27.2711
-22.7931
-18.9677
-15.7151
-12.9627
-10.6447
-8.70209
-7.08191
-5.73728
-4.62681
-3.71425
-2.96803
-2.36083
-1.86922
-1.47315
-1.15565
-0.902377
-0.701351
-0.542582
-0.417807
-0.320233
-0.244307
-0.185517
-0.14022
-0.105491
-0.0789948
-0.0588796
-0.0436835
-0.0322599
-0.0237146
-0.0173544
-0.0126445
-0.00917525
-0.00663462
-0.00478653
-0.00345383
-0.00250493
-0.00184354
-0.00140086
-0.0011299
-0.00100142
-2160.25
-2091.29
-1967.88
-1811.04
-1640.49
-1470.76
-1310.67
-1164.56
-1033.73
-917.784
-815.454
-725.179
-645.389
-574.645
-511.697
-455.489
-405.143
-359.937
-319.274
-282.662
-249.687
-220.001
-193.305
-169.337
-147.865
-128.677
-111.583
-96.4032
-82.9718
-71.1326
-60.7387
-51.6517
-43.7416
-36.8865
-30.9727
-25.8946
-21.5544
-17.8625
-14.7373
-12.1045
-9.89726
-8.05594
-6.5274
-5.26478
-4.22696
-3.37815
-2.68737
-2.12799
-1.67726
-1.31589
-1.02759
-0.798738
-0.617971
-0.475894
-0.364779
-0.278309
-0.21135
-0.159754
-0.120194
-0.0900094
-0.0670927
-0.0497792
-0.0367631
-0.0270262
-0.0197785
-0.0144113
-0.0104577
-0.0075622
-0.00545592
-0.00393697
-0.00285543
-0.00210156
-0.00159698
-0.00128812
-0.00114166
-1971.05
-1922.68
-1833.77
-1716.57
-1583.81
-1446.1
-1310.93
-1182.91
-1064.38
-956.158
-858.115
-769.64
-689.901
-618.013
-553.136
-494.508
-441.462
-393.424
-349.904
-310.482
-274.796
-242.533
-213.414
-187.19
-163.634
-142.539
-123.709
-106.961
-92.1205
-79.0232
-67.5124
-57.4396
-48.6642
-41.0536
-34.4839
-28.8393
-24.0126
-19.905
-16.4264
-13.4948
-11.0363
-8.98479
-7.28129
-5.87378
-4.71662
-3.77
-2.99948
-2.37542
-1.87249
-1.46921
-1.14743
-0.891972
-0.690164
-0.531532
-0.407458
-0.310893
-0.23611
-0.178482
-0.134291
-0.100573
-0.0749705
-0.0556269
-0.0410838
-0.0302039
-0.0221051
-0.0161071
-0.0116888
-0.00845276
-0.00609866
-0.00440093
-0.00319205
-0.00234939
-0.00178537
-0.00144012
-0.0012764
-1827.42
-1791.87
-1725.27
-1635.09
-1529.7
-1416.68
-1302.05
-1190.01
-1083.23
-983.107
-890.239
-804.667
-726.127
-654.196
-588.393
-528.236
-473.267
-423.068
-377.267
-335.528
-297.552
-263.068
-231.83
-203.61
-178.193
-155.379
-134.973
-116.793
-100.659
-86.4026
-73.8588
-62.8711
-53.2904
-44.975
-37.792
-31.6167
-26.3333
-21.835
-18.0238
-14.8107
-12.1152
-9.86509
-7.99619
-6.45161
-5.18145
-4.14216
-3.29604
-2.61061
-2.05814
-1.61506
-1.26147
-0.980719
-0.758903
-0.584523
-0.448116
-0.341942
-0.25971
-0.196335
-0.147734
-0.110647
-0.082485
-0.061206
-0.0452067
-0.0332366
-0.0243257
-0.0177261
-0.0128642
-0.00930315
-0.00671249
-0.00484408
-0.00351361
-0.00258617
-0.00196538
-0.00158537
-0.00140517
-1716.26
-1689.05
-1637.4
-1566.03
-1480.55
-1386.43
-1288.35
-1189.93
-1093.74
-1001.44
-913.996
-831.892
-755.266
-684.055
-618.079
-557.096
-500.846
-449.061
-401.485
-357.872
-317.992
-281.623
-248.556
-218.589
-191.526
-167.177
-145.356
-125.88
-108.571
-93.2544
-79.7628
-67.9328
-57.6083
-48.6403
-40.8881
-34.2192
-28.5102
-23.6471
-19.525
-16.0483
-13.1306
-10.6943
-8.66999
-6.99655
-5.62006
-4.49351
-3.57615
-2.83286
-2.23365
-1.75299
-1.36936
-1.06471
-0.823979
-0.634706
-0.486631
-0.371362
-0.282077
-0.213259
-0.16048
-0.120201
-0.0896135
-0.0664994
-0.0491192
-0.0361151
-0.0264339
-0.0192632
-0.0139804
-0.0101108
-0.00729557
-0.00526509
-0.00381914
-0.00281118
-0.00213646
-0.00172344
-0.00152758
-1628.94
-1607.38
-1566.03
-1508
-1437.17
-1357.5
-1272.61
-1185.51
-1098.55
-1013.41
-931.255
-852.801
-778.472
-708.469
-642.849
-581.574
-524.552
-471.655
-422.737
-377.64
-336.2
-298.252
-263.625
-232.147
-203.643
-177.939
-154.856
-134.218
-115.848
-99.5715
-85.2172
-72.6176
-61.6114
-52.0435
-43.7667
-36.6418
-30.5391
-25.3378
-20.927
-17.2052
-14.0806
-11.4705
-9.30123
-7.50739
-6.03148
-4.82327
-3.83917
-3.04166
-2.3986
-1.88269
-1.47085
-1.14375
-0.88524
-0.681961
-0.522911
-0.399083
-0.303158
-0.229216
-0.1725
-0.129213
-0.0963386
-0.0714945
-0.0528119
-0.0388324
-0.0284243
-0.0207148
-0.0150346
-0.0108738
-0.00784645
-0.00566291
-0.0041079
-0.00302386
-0.0022982
-0.00185398
-0.00164332
-1559.57
-1541.94
-1507.87
-1459.49
-1399.53
-1330.93
-1256.48
-1178.69
-1099.59
-1020.81
-943.553
-868.682
-796.793
-728.273
-663.359
-602.176
-544.774
-491.144
-441.242
-394.993
-352.298
-313.043
-277.1
-244.327
-214.575
-187.683
-163.486
-141.815
-122.496
-105.356
-90.2221
-76.9247
-65.2982
-55.1828
-46.4258
-38.8828
-32.418
-26.9053
-22.2281
-18.2798
-14.9638
-12.1928
-9.88904
-7.98342
-6.41511
-5.13093
-4.08472
-3.23669
-2.55275
-2.00395
-1.56578
-1.2177
-0.942582
-0.726211
-0.556893
-0.425058
-0.322917
-0.244175
-0.183772
-0.137667
-0.102649
-0.0761822
-0.0562782
-0.0413836
-0.0302934
-0.0220781
-0.0160249
-0.0115906
-0.00836413
-0.00603681
-0.00437934
-0.00322382
-0.00245028
-0.00197674
-0.00175218
-1503.97
-1489.15
-1460.33
-1419.03
-1367.23
-1307.14
-1240.96
-1170.73
-1098.24
-1024.98
-952.127
-880.617
-811.147
-744.228
-680.229
-619.399
-561.904
-507.838
-457.243
-410.118
-366.427
-326.105
-289.064
-255.194
-224.368
-196.445
-171.272
-148.689
-128.528
-110.617
-94.7844
-80.8587
-68.6717
-58.06
-48.8667
-40.9427
-34.1473
-28.3496
-23.4282
-19.2721
-15.78
-12.8609
-10.4332
-8.4244
-6.77073
-5.41631
-4.31262
-3.41779
-2.69598
-2.11666
-1.65406
-1.28651
-0.995954
-0.767412
-0.588547
-0.44926
-0.341333
-0.258122
-0.194285
-0.145553
-0.108536
-0.0805574
-0.0595142
-0.0437658
-0.0320391
-0.0233517
-0.0169502
-0.0122605
-0.00884799
-0.00638636
-0.00463314
-0.00341082
-0.00259254
-0.00209159
-0.00185403
-1459.09
-1446.32
-1421.36
-1385.33
-1339.72
-1286.21
-1226.56
-1162.46
-1095.46
-1026.91
-957.942
-889.492
-822.317
-757.008
-694.025
-633.713
-576.328
-522.048
-470.99
-423.216
-378.748
-337.565
-299.616
-264.823
-233.082
-204.271
-178.251
-154.869
-133.965
-115.371
-98.9165
-84.429
-71.739
-60.6805
-51.0933
-42.8244
-35.7291
-29.6723
-24.5286
-20.1827
-16.5298
-13.4752
-10.9339
-8.8305
-7.09846
-5.67949
-4.52291
-3.58501
-2.82829
-2.22085
-1.73569
-1.35017
-1.04535
-0.805562
-0.617867
-0.471686
-0.358405
-0.271055
-0.204036
-0.15287
-0.114001
-0.0846189
-0.0625188
-0.0459783
-0.0336608
-0.0245351
-0.0178102
-0.0128832
-0.00929785
-0.00671139
-0.00486919
-0.00358477
-0.00272489
-0.00219846
-0.00194881
-1422.69
-1411.43
-1389.35
-1357.3
-1316.4
-1268.01
-1213.53
-1154.39
-1091.93
-1027.35
-961.743
-896.019
-830.955
-767.192
-705.251
-645.548
-588.407
-534.076
-482.73
-434.491
-389.425
-347.555
-308.864
-273.301
-240.787
-211.217
-184.465
-160.389
-138.836
-119.641
-102.635
-87.6489
-74.5106
-63.0525
-53.1119
-44.5328
-37.1672
-30.8764
-25.5314
-21.0135
-17.2146
-14.0367
-11.392
-9.20233
-7.39875
-5.9208
-4.71586
-3.73852
-2.94983
-2.3166
-1.81076
-1.40873
-1.09082
-0.840689
-0.644876
-0.492352
-0.374141
-0.282981
-0.21303
-0.159621
-0.119044
-0.0883687
-0.0652936
-0.048022
-0.0351591
-0.0256287
-0.0186051
-0.0134589
-0.00971385
-0.00701203
-0.00508756
-0.00374573
-0.00284738
-0.00229738
-0.00203655
-1393.04
-1382.92
-1363.01
-1333.98
-1296.73
-1252.33
-1201.96
-1146.81
-1088.07
-1026.83
-964.099
-900.76
-837.595
-775.27
-714.346
-655.289
-598.475
-544.204
-492.704
-444.141
-398.625
-356.213
-316.92
-280.722
-247.559
-217.344
-189.965
-165.29
-143.171
-123.451
-105.962
-90.5352
-76.9997
-65.1865
-54.931
-46.0747
-38.4669
-31.9659
-26.4399
-21.7671
-17.8363
-14.5469
-11.8086
-9.5408
-7.67232
-6.14079
-4.89188
-3.87866
-3.06084
-2.40411
-1.8794
-1.46231
-1.13244
-0.872855
-0.669618
-0.511291
-0.388568
-0.293918
-0.221282
-0.165817
-0.123674
-0.0918119
-0.0678422
-0.0498996
-0.0365361
-0.0266339
-0.0193359
-0.0139884
-0.0100965
-0.00728862
-0.00528851
-0.00389388
-0.00296015
-0.00238847
-0.00211735
-1368.82
-1359.56
-1341.32
-1314.61
-1280.18
-1238.91
-1191.8
-1139.88
-1084.19
-1025.73
-965.432
-904.157
-842.671
-781.652
-721.687
-663.273
-606.829
-552.693
-501.135
-452.359
-406.509
-363.675
-323.898
-287.178
-253.475
-222.717
-194.804
-169.614
-147.008
-126.83
-108.92
-93.1069
-79.2219
-67.0951
-56.5606
-47.458
-39.6346
-32.9461
-27.2582
-22.4465
-18.3975
-15.008
-12.1854
-9.84715
-7.92012
-6.34021
-5.05156
-4.00587
-3.16168
-2.48364
-1.94182
-1.51105
-1.17031
-0.902147
-0.692158
-0.528552
-0.401722
-0.303894
-0.228811
-0.171472
-0.127901
-0.0949566
-0.0701706
-0.0516155
-0.0377947
-0.027553
-0.0200043
-0.0144727
-0.0104466
-0.00754174
-0.00547245
-0.00402951
-0.00306341
-0.00247189
-0.00219136
-1349.01
-1340.41
-1323.44
-1298.53
-1266.3
-1227.5
-1182.99
-1133.66
-1080.47
-1024.3
-966.059
-906.549
-846.529
-786.676
-727.59
-669.794
-613.733
-559.777
-508.229
-459.323
-413.231
-370.072
-329.911
-292.765
-258.615
-227.401
-199.037
-173.409
-150.383
-129.811
-111.534
-95.3851
-81.1942
-68.7921
-58.0118
-48.6919
-40.6776
-33.8228
-27.9909
-23.0556
-18.9011
-15.4222
-12.5242
-10.1229
-8.14332
-6.51997
-5.19559
-4.12069
-3.25275
-2.55551
-1.99826
-1.55516
-1.2046
-0.928675
-0.712581
-0.544198
-0.413651
-0.312943
-0.235643
-0.176606
-0.13174
-0.0978133
-0.0722863
-0.0531751
-0.038939
-0.0283889
-0.0206122
-0.0149133
-0.0107652
-0.00777215
-0.00563992
-0.00415304
-0.00315747
-0.0025479
-0.0022588
-1332.77
-1324.68
-1308.7
-1285.2
-1254.69
-1217.84
-1175.4
-1128.17
-1077
-1022.74
-966.21
-908.2
-849.443
-790.615
-732.323
-675.102
-619.418
-565.666
-514.172
-465.196
-418.936
-375.53
-335.064
-297.575
-263.056
-231.463
-202.719
-176.719
-153.336
-132.425
-113.832
-97.3915
-82.9347
-70.2923
-59.297
-49.7861
-41.6039
-34.6024
-28.6434
-23.5986
-19.3505
-15.7921
-12.8272
-10.3696
-8.34324
-6.6811
-5.3248
-4.22377
-3.33456
-2.62012
-2.04902
-1.59484
-1.23547
-0.952569
-0.730985
-0.558304
-0.424409
-0.321109
-0.24181
-0.181241
-0.135207
-0.100394
-0.0741986
-0.054585
-0.0399738
-0.0291449
-0.0211623
-0.0153121
-0.0110536
-0.00798079
-0.00579161
-0.00426495
-0.00324271
-0.00261679
-0.00231993
-1319.45
-1311.77
-1296.56
-1274.15
-1245
-1209.7
-1168.91
-1123.37
-1073.85
-1021.15
-966.053
-909.307
-851.632
-793.695
-736.106
-679.409
-624.083
-570.543
-519.131
-470.13
-423.754
-380.163
-339.458
-301.693
-266.874
-234.967
-205.905
-179.591
-155.904
-134.705
-115.841
-99.1489
-84.462
-71.611
-60.4285
-50.7512
-42.4219
-35.2918
-29.2211
-24.08
-19.7494
-16.1208
-13.0965
-10.5892
-8.5213
-6.82474
-5.44006
-4.31578
-3.40764
-2.67786
-2.09442
-1.63035
-1.26311
-0.973974
-0.74748
-0.570952
-0.434059
-0.328436
-0.247347
-0.185404
-0.138322
-0.102714
-0.0759176
-0.055853
-0.0409047
-0.0298253
-0.0216574
-0.0156711
-0.0113134
-0.00816871
-0.00592827
-0.00436579
-0.00331954
-0.0026789
-0.00237506
-1308.54
-1301.16
-1286.56
-1265.01
-1236.93
-1202.86
-1163.39
-1119.21
-1071.04
-1019.62
-965.709
-910.023
-853.265
-796.096
-739.121
-682.893
-627.9
-574.567
-523.253
-474.256
-427.806
-384.078
-343.189
-305.203
-270.139
-237.973
-208.647
-182.07
-158.127
-136.682
-117.587
-100.68
-85.7949
-72.7639
-61.4194
-51.5975
-43.1404
-35.8981
-29.7297
-24.5043
-20.1013
-16.4111
-13.3347
-10.7835
-8.67903
-6.95207
-5.54231
-4.39747
-3.47256
-2.7292
-2.1348
-1.66196
-1.28772
-0.993045
-0.762183
-0.582231
-0.44267
-0.334977
-0.252291
-0.189123
-0.141106
-0.104788
-0.0774549
-0.0569872
-0.0417376
-0.0304342
-0.0221007
-0.0159927
-0.011546
-0.00833709
-0.00605075
-0.0044562
-0.00338843
-0.0027346
-0.0024245
-1299.59
-1292.46
-1278.33
-1257.46
-1230.23
-1197.13
-1158.72
-1115.64
-1068.56
-1018.2
-965.261
-910.459
-854.475
-797.96
-741.519
-685.705
-631.012
-577.876
-526.667
-477.693
-431.2
-387.373
-346.341
-308.179
-272.918
-240.54
-210.995
-184.199
-160.04
-138.388
-119.096
-102.006
-86.9517
-73.7664
-62.2823
-52.3356
-43.7679
-36.4284
-30.1752
-24.8763
-20.4102
-16.6662
-13.5442
-10.9546
-8.81799
-7.06434
-5.63254
-4.4696
-3.52993
-2.77458
-2.17053
-1.68994
-1.30952
-1.00995
-0.775219
-0.592237
-0.450311
-0.340783
-0.256682
-0.192427
-0.14358
-0.106631
-0.0788222
-0.0579964
-0.0424789
-0.0309763
-0.0224955
-0.0162791
-0.0117534
-0.00848717
-0.00615994
-0.00453682
-0.00344988
-0.0027843
-0.00246862
-1292.26
-1285.32
-1271.57
-1251.23
-1224.68
-1192.36
-1154.8
-1112.6
-1066.41
-1016.9
-964.768
-910.699
-855.364
-799.405
-743.421
-687.967
-633.543
-580.588
-529.484
-480.546
-434.03
-390.133
-348.992
-310.692
-275.271
-242.721
-212.996
-186.017
-161.678
-139.852
-120.395
-103.149
-87.9505
-74.6333
-63.0298
-52.9759
-44.313
-36.8896
-30.5631
-25.2007
-20.6799
-16.8891
-13.7274
-11.1044
-8.93974
-7.16279
-5.71172
-4.53295
-3.58035
-2.8145
-2.20197
-1.71457
-1.32873
-1.02484
-0.786715
-0.601065
-0.457056
-0.345911
-0.260561
-0.195347
-0.145768
-0.108262
-0.080032
-0.0588896
-0.0431353
-0.0314564
-0.0228452
-0.0165329
-0.0119371
-0.00862023
-0.00625678
-0.00460834
-0.00350441
-0.00282841
-0.00250778
-1286.27
-1279.48
-1266.02
-1246.11
-1220.1
-1188.39
-1151.51
-1110.02
-1064.55
-1015.74
-964.267
-910.806
-856.012
-800.519
-744.925
-689.783
-635.595
-582.805
-531.8
-482.904
-436.381
-392.435
-351.212
-312.804
-277.256
-244.565
-214.692
-187.562
-163.074
-141.103
-121.506
-104.128
-88.8082
-75.379
-63.6738
-53.5285
-44.7841
-37.2887
-30.8992
-25.482
-20.914
-17.0828
-13.8868
-11.2348
-9.04584
-7.24866
-5.78084
-4.58829
-3.62442
-2.84941
-2.22948
-1.73614
-1.34556
-1.0379
-0.7968
-0.608812
-0.462978
-0.350416
-0.26397
-0.197915
-0.147692
-0.109697
-0.0810968
-0.059676
-0.0437133
-0.0318794
-0.0231534
-0.0167566
-0.0120991
-0.00873759
-0.00634222
-0.00467145
-0.00355254
-0.00286736
-0.00254236
-1281.37
-1274.7
-1261.48
-1241.91
-1216.31
-1185.11
-1148.77
-1107.85
-1062.95
-1014.72
-963.786
-910.824
-856.479
-801.378
-746.113
-691.237
-637.253
-584.61
-533.698
-484.847
-438.327
-394.348
-353.063
-314.571
-278.921
-246.117
-216.123
-188.87
-164.258
-142.165
-122.451
-104.964
-89.5411
-76.0172
-64.2258
-54.0028
-45.1889
-37.6321
-31.1887
-25.7246
-21.1161
-17.2503
-14.0247
-11.3477
-9.13782
-7.32315
-5.84085
-4.63637
-3.66274
-2.87979
-2.25344
-1.75494
-1.36023
-1.04929
-0.805599
-0.615576
-0.468151
-0.354352
-0.26695
-0.20016
-0.149375
-0.110953
-0.082029
-0.0603647
-0.0442198
-0.0322501
-0.0234235
-0.0169528
-0.0122413
-0.00884057
-0.00641721
-0.00472686
-0.00359481
-0.00290157
-0.00257275
-1277.38
-1270.8
-1257.76
-1238.46
-1213.21
-1182.39
-1146.49
-1106.03
-1061.6
-1013.83
-963.337
-910.786
-856.812
-802.036
-747.048
-692.398
-638.591
-586.077
-535.249
-486.442
-439.931
-395.931
-354.601
-316.043
-280.312
-247.417
-217.325
-189.97
-165.256
-143.063
-123.252
-105.673
-90.1641
-76.5606
-64.6965
-54.4078
-45.5351
-37.9262
-31.4369
-25.9329
-21.2898
-17.3943
-14.1434
-11.445
-9.21713
-7.38744
-5.89267
-4.67792
-3.69588
-2.90608
-2.27418
-1.77122
-1.37295
-1.05917
-0.813237
-0.621449
-0.472645
-0.357773
-0.269542
-0.202113
-0.15084
-0.112046
-0.0828409
-0.0609648
-0.0446612
-0.0325732
-0.0236592
-0.017124
-0.0123653
-0.00893045
-0.00648268
-0.00477526
-0.00363174
-0.00293146
-0.0025993
-1274.13
-1267.63
-1254.73
-1235.65
-1210.66
-1180.16
-1144.61
-1104.52
-1060.47
-1013.06
-962.93
-910.715
-857.046
-802.54
-747.782
-693.323
-639.667
-587.264
-536.511
-487.747
-441.249
-397.236
-355.872
-317.264
-281.47
-248.501
-218.33
-190.893
-166.095
-143.819
-123.928
-106.272
-90.691
-77.0209
-65.0958
-54.7518
-45.8296
-38.1766
-31.6486
-26.1107
-21.4382
-17.5174
-14.245
-11.5284
-9.28516
-7.44263
-5.9372
-4.71365
-3.72439
-2.92871
-2.29206
-1.78526
-1.38391
-1.0677
-0.819831
-0.626523
-0.476529
-0.360731
-0.271784
-0.203803
-0.152108
-0.112993
-0.0835444
-0.0614849
-0.0450438
-0.0328535
-0.0238636
-0.0172725
-0.012473
-0.0090085
-0.00653955
-0.00481731
-0.00366384
-0.00295744
-0.00262238
-1271.49
-1265.05
-1252.27
-1233.35
-1208.58
-1178.33
-1143.05
-1103.26
-1059.51
-1012.41
-962.568
-910.626
-857.207
-802.923
-748.358
-694.058
-640.529
-588.222
-537.536
-488.81
-442.327
-398.308
-356.919
-318.273
-282.428
-249.402
-219.167
-191.662
-166.795
-144.451
-124.494
-106.775
-91.1344
-77.4089
-65.4329
-55.0426
-46.0788
-38.3888
-31.8281
-26.2616
-21.5644
-17.6223
-14.3316
-11.5995
-9.3432
-7.48975
-5.97525
-4.7442
-3.74879
-2.9481
-2.30737
-1.7973
-1.39333
-1.07502
-0.825495
-0.630883
-0.479868
-0.363276
-0.273713
-0.205259
-0.1532
-0.113809
-0.0841507
-0.0619333
-0.0453739
-0.0330954
-0.02404
-0.0174007
-0.0125659
-0.00907593
-0.00658869
-0.00485365
-0.00369159
-0.00297992
-0.00264235
-1269.35
-1262.96
-1250.27
-1231.48
-1206.88
-1176.83
-1141.78
-1102.22
-1058.72
-1011.85
-962.251
-910.531
-857.316
-803.215
-748.808
-694.641
-641.218
-588.993
-538.364
-489.674
-443.206
-399.184
-357.779
-319.102
-283.219
-250.146
-219.86
-192.3
-167.378
-144.978
-124.967
-107.196
-91.5058
-77.7343
-65.716
-55.2872
-46.2887
-38.5678
-31.9797
-26.3892
-21.6711
-17.711
-14.405
-11.6598
-9.39247
-7.52979
-6.0076
-4.7702
-3.76957
-2.96461
-2.32043
-1.80757
-1.40136
-1.08127
-0.830334
-0.63461
-0.482724
-0.365453
-0.275364
-0.206505
-0.154136
-0.114508
-0.0846705
-0.0623179
-0.0456571
-0.0333029
-0.0241915
-0.0175109
-0.0126458
-0.00913387
-0.00663094
-0.0048849
-0.00371546
-0.00299926
-0.00265954
-1267.62
-1261.27
-1248.65
-1229.97
-1205.5
-1175.61
-1140.73
-1101.37
-1058.06
-1011.39
-961.976
-910.436
-857.388
-803.435
-749.158
-695.102
-641.768
-589.612
-539.032
-490.373
-443.919
-399.899
-358.481
-319.782
-283.868
-250.759
-220.431
-192.828
-167.861
-145.416
-125.36
-107.546
-91.8153
-78.0059
-65.9525
-55.4918
-46.4645
-38.7178
-32.1069
-26.4964
-21.7609
-17.7858
-14.4668
-11.7107
-9.43409
-7.56363
-6.03496
-4.7922
-3.78716
-2.97861
-2.3315
-1.81628
-1.40818
-1.08658
-0.834448
-0.63778
-0.485154
-0.367306
-0.276771
-0.207567
-0.154934
-0.115104
-0.085114
-0.0626461
-0.0458989
-0.0334802
-0.0243209
-0.017605
-0.0127141
-0.00918341
-0.00666707
-0.00491164
-0.00373588
-0.00301581
-0.00267425
-1266.23
-1259.9
-1247.35
-1228.75
-1204.39
-1174.62
-1139.88
-1100.67
-1057.51
-1011
-961.741
-910.347
-857.433
-803.602
-749.431
-695.465
-642.205
-590.107
-539.569
-490.937
-444.497
-400.478
-359.052
-320.337
-284.399
-251.261
-220.901
-193.262
-168.259
-145.777
-125.685
-107.836
-92.072
-78.2315
-66.1493
-55.6622
-46.6111
-38.8431
-32.2133
-26.5861
-21.8361
-17.8484
-14.5187
-11.7534
-9.46905
-7.59208
-6.05799
-4.81073
-3.80199
-2.99041
-2.34085
-1.82364
-1.41394
-1.09107
-0.837927
-0.640462
-0.487211
-0.368876
-0.277962
-0.208467
-0.15561
-0.11561
-0.0854903
-0.0629248
-0.0461042
-0.0336308
-0.0244308
-0.017685
-0.0127722
-0.00922556
-0.00669781
-0.0049344
-0.00375327
-0.00302991
-0.00268678
-1265.11
-1258.8
-1246.29
-1227.76
-1203.49
-1173.82
-1139.19
-1100.1
-1057.07
-1010.68
-961.543
-910.265
-857.459
-803.727
-749.643
-695.751
-642.552
-590.501
-539.999
-491.39
-444.963
-400.947
-359.515
-320.787
-284.832
-251.67
-221.284
-193.618
-168.585
-146.073
-125.952
-108.075
-92.2839
-78.4179
-66.3121
-55.8035
-46.7327
-38.9471
-32.3017
-26.6608
-21.8988
-17.9006
-14.562
-11.789
-9.49827
-7.61588
-6.07726
-4.82626
-3.81442
-3.00031
-2.34869
-1.82982
-1.41878
-1.09485
-0.840853
-0.642719
-0.488943
-0.370198
-0.278967
-0.209226
-0.156181
-0.116037
-0.0858081
-0.0631601
-0.0462777
-0.033758
-0.0245238
-0.0177526
-0.0128213
-0.00926122
-0.00672384
-0.00495367
-0.00376801
-0.00304185
-0.0026974
-1264.21
-1257.93
-1245.45
-1226.97
-1202.76
-1173.18
-1138.64
-1099.63
-1056.7
-1010.42
-961.376
-910.191
-857.473
-803.82
-749.806
-695.975
-642.826
-590.815
-540.342
-491.753
-445.337
-401.325
-359.889
-321.152
-285.182
-252.003
-221.597
-193.908
-168.851
-146.316
-126.171
-108.271
-92.458
-78.5713
-66.4463
-55.9199
-46.8331
-39.0331
-32.3748
-26.7226
-21.9507
-17.944
-14.5979
-11.8187
-9.52258
-7.6357
-6.09332
-4.8392
-3.82479
-3.00858
-2.35524
-1.83498
-1.42283
-1.098
-0.843303
-0.64461
-0.490395
-0.371307
-0.279809
-0.209863
-0.15666
-0.116395
-0.086075
-0.0633579
-0.0464235
-0.0338651
-0.024602
-0.0178096
-0.0128626
-0.00929125
-0.00674576
-0.00496991
-0.00378042
-0.00305192
-0.00270635
-1263.49
-1257.22
-1244.78
-1226.34
-1202.18
-1172.66
-1138.19
-1099.26
-1056.41
-1010.2
-961.237
-910.127
-857.479
-803.89
-749.933
-696.15
-643.042
-591.063
-540.615
-492.043
-445.637
-401.628
-360.19
-321.446
-285.466
-252.273
-221.85
-194.143
-169.068
-146.514
-126.35
-108.431
-92.6004
-78.6969
-66.5562
-56.0155
-46.9156
-39.1038
-32.435
-26.7735
-21.9935
-17.9797
-14.6276
-11.8432
-9.54269
-7.65211
-6.10663
-4.84993
-3.8334
-3.01544
-2.36068
-1.83927
-1.4262
-1.10063
-0.845343
-0.646185
-0.491605
-0.372232
-0.280512
-0.210394
-0.15706
-0.116695
-0.086298
-0.0635232
-0.0465454
-0.0339546
-0.0246674
-0.0178572
-0.0128973
-0.0093164
-0.00676412
-0.00498352
-0.00379083
-0.00306036
-0.00271386
-1262.92
-1256.66
-1244.24
-1225.83
-1201.72
-1172.24
-1137.83
-1098.96
-1056.17
-1010.02
-961.122
-910.072
-857.48
-803.941
-750.03
-696.287
-643.212
-591.26
-540.831
-492.274
-445.876
-401.87
-360.431
-321.682
-285.693
-252.49
-222.054
-194.334
-169.244
-146.674
-126.495
-108.561
-92.7162
-78.7992
-66.6459
-56.0935
-46.9831
-39.1617
-32.4843
-26.8153
-22.0287
-18.0091
-14.6521
-11.8634
-9.55926
-7.66563
-6.1176
-4.85878
-3.84051
-3.02111
-2.36518
-1.84283
-1.42899
-1.10281
-0.847034
-0.647491
-0.492608
-0.372999
-0.281095
-0.210836
-0.157392
-0.116943
-0.0864835
-0.0636607
-0.0466469
-0.0340291
-0.0247219
-0.0178969
-0.0129261
-0.00933737
-0.00677944
-0.00499487
-0.00379952
-0.00306741
-0.00272013
-1262.47
-1256.22
-1243.81
-1225.43
-1201.35
-1171.91
-1137.54
-1098.72
-1055.97
-1009.88
-961.028
-910.025
-857.477
-803.979
-750.105
-696.393
-643.345
-591.414
-541.003
-492.457
-446.066
-402.063
-360.624
-321.871
-285.876
-252.664
-222.218
-194.487
-169.385
-146.804
-126.612
-108.666
-92.8101
-78.8822
-66.7187
-56.157
-47.0379
-39.2088
-32.5246
-26.8494
-22.0574
-18.0332
-14.672
-11.8799
-9.57283
-7.67671
-6.12661
-4.86605
-3.84634
-3.02577
-2.36888
-1.84575
-1.43128
-1.1046
-0.848427
-0.648568
-0.493436
-0.373632
-0.281577
-0.2112
-0.157667
-0.117149
-0.0866369
-0.0637745
-0.0467309
-0.0340908
-0.0247671
-0.0179298
-0.01295
-0.00935475
-0.00679214
-0.00500429
-0.00380672
-0.00307326
-0.00272533
-1262.11
-1255.87
-1243.47
-1225.11
-1201.05
-1171.65
-1137.31
-1098.52
-1055.82
-1009.76
-960.951
-909.985
-857.473
-804.008
-750.162
-696.475
-643.449
-591.536
-541.137
-492.601
-446.216
-402.216
-360.777
-322.021
-286.021
-252.803
-222.35
-194.61
-169.499
-146.907
-126.707
-108.751
-92.8858
-78.9492
-66.7776
-56.2083
-47.0824
-39.247
-32.5572
-26.8771
-22.0807
-18.0527
-14.6883
-11.8934
-9.5839
-7.68576
-6.13396
-4.87199
-3.85112
-3.02959
-2.37191
-1.84814
-1.43316
-1.10607
-0.84957
-0.649452
-0.494116
-0.374152
-0.281973
-0.2115
-0.157893
-0.117319
-0.0867632
-0.0638682
-0.0468001
-0.0341417
-0.0248043
-0.0179569
-0.0129697
-0.00936909
-0.00680262
-0.00501206
-0.00381268
-0.00307809
-0.00272963
-1261.83
-1255.59
-1243.2
-1224.86
-1200.82
-1171.44
-1137.13
-1098.37
-1055.7
-1009.67
-960.889
-909.952
-857.468
-804.028
-750.205
-696.539
-643.53
-591.63
-541.243
-492.714
-446.335
-402.337
-360.898
-322.14
-286.137
-252.914
-222.455
-194.708
-169.589
-146.991
-126.782
-108.819
-92.9466
-79.0031
-66.825
-56.2496
-47.1182
-39.2778
-32.5835
-26.8994
-22.0996
-18.0685
-14.7015
-11.9043
-9.59288
-7.6931
-6.13993
-4.87682
-3.855
-3.03269
-2.37438
-1.85009
-1.4347
-1.10727
-0.850503
-0.650174
-0.494672
-0.374578
-0.282297
-0.211746
-0.158078
-0.117457
-0.0868666
-0.063945
-0.0468568
-0.0341834
-0.0248348
-0.0179792
-0.0129859
-0.00938087
-0.00681123
-0.00501845
-0.00381757
-0.00308206
-0.00273317
-1261.6
-1255.37
-1242.99
-1224.66
-1200.64
-1171.27
-1136.98
-1098.25
-1055.6
-1009.6
-960.839
-909.925
-857.462
-804.043
-750.238
-696.588
-643.593
-591.704
-541.326
-492.803
-446.428
-402.432
-360.993
-322.235
-286.228
-253.001
-222.538
-194.785
-169.661
-147.057
-126.842
-108.873
-92.9951
-79.0461
-66.8629
-56.2828
-47.1469
-39.3026
-32.6047
-26.9174
-22.1148
-18.0813
-14.7121
-11.9131
-9.60012
-7.69904
-6.14476
-4.88073
-3.85814
-3.0352
-2.37638
-1.85167
-1.43594
-1.10824
-0.851261
-0.65076
-0.495123
-0.374923
-0.28256
-0.211945
-0.158228
-0.11757
-0.0869509
-0.0640076
-0.0469031
-0.0342174
-0.0248597
-0.0179974
-0.0129991
-0.00939048
-0.00681826
-0.00502367
-0.00382156
-0.00308531
-0.00273606
-1261.43
-1255.2
-1242.83
-1224.51
-1200.5
-1171.14
-1136.87
-1098.15
-1055.52
-1009.54
-960.799
-909.903
-857.457
-804.054
-750.264
-696.626
-643.641
-591.762
-541.39
-492.873
-446.501
-402.507
-361.068
-322.309
-286.301
-253.07
-222.603
-194.847
-169.718
-147.109
-126.89
-108.917
-93.0337
-79.0804
-66.8931
-56.3092
-47.1699
-39.3224
-32.6216
-26.9318
-22.1269
-18.0915
-14.7206
-11.9201
-9.60595
-7.70381
-6.14865
-4.88388
-3.86067
-3.03723
-2.37799
-1.85295
-1.43695
-1.10903
-0.851873
-0.651234
-0.495488
-0.375203
-0.282774
-0.212107
-0.15835
-0.117662
-0.0870192
-0.0640583
-0.0469406
-0.034245
-0.0248799
-0.0180121
-0.0130099
-0.0093983
-0.00682398
-0.00502791
-0.00382482
-0.00308795
-0.00273841
-1261.29
-1255.06
-1242.7
-1224.39
-1200.38
-1171.04
-1136.78
-1098.08
-1055.46
-1009.49
-960.766
-909.885
-857.453
-804.062
-750.283