/*--------------------------------*- C++ -*----------------------------------*\
  =========                 |
  \\      /  F ield         | OpenFOAM: The Open Source CFD Toolbox
   \\    /   O peration     | Website:  https://openfoam.org
    \\  /    A nd           | Version:  10
     \\/     M anipulation  |
\*---------------------------------------------------------------------------*/
FoamFile
{
    format      ascii;
    class       volScalarField;
    location    "456";
    object      gradTx;
}
// * * * * * * * * * * * * * * * * * * * * * * * * * * * * * * * * * * * * * //

dimensions      [0 -1 0 1 0 0 0];

internalField   nonuniform List<scalar> 
11250
(
14306.5
8123.79
5342.89
3872.47
2985.96
2396.08
1974.26
1656.26
1406.95
1205.66
1039.45
899.839
781.029
678.914
590.495
513.523
446.262
387.345
335.666
290.317
250.534
215.667
185.154
158.501
135.273
115.082
97.5822
82.4613
69.4392
58.2633
48.7066
40.5651
33.6559
27.8157
22.8989
18.7766
15.3348
12.4732
10.1043
8.15169
6.5492
5.23982
4.17468
3.31205
2.61656
2.05833
1.61229
1.25751
0.97658
0.755146
0.581399
0.445691
0.340178
0.258515
0.195601
0.147353
0.110521
0.0825328
0.0613625
0.0454226
0.0334756
0.0245623
0.0179427
0.0130488
0.00944696
0.00680762
0.00488166
0.00348151
0.00246654
0.0017316
0.00119812
0.000807241
0.000514367
0.000284976
9.11727e-05
4102.3
4722.51
4033.25
3289.71
2690.78
2229.78
1872.43
1589.79
1361.37
1173.17
1015.58
881.876
767.242
668.164
582.006
506.748
440.81
382.928
332.069
287.375
248.12
213.683
183.519
157.154
134.162
114.167
96.8284
81.8411
68.9295
57.8453
48.3644
40.2855
33.4281
27.6305
22.7488
18.6553
15.237
12.3947
10.0414
8.1015
6.50929
5.2082
4.14971
3.29241
2.60116
2.04631
1.60295
1.25026
0.970991
0.75085
0.578111
0.443184
0.338274
0.257076
0.194517
0.146539
0.109913
0.082081
0.0610279
0.0451758
0.0332944
0.0244298
0.0178462
0.0129789
0.00939645
0.00677132
0.0048557
0.00346304
0.00245349
0.00172246
0.00119181
0.000802996
0.000511667
0.000283483
9.06955e-05
1482.69
2631.21
2778.74
2563.49
2259.11
1961.57
1697.88
1471.31
1277.98
1112.66
970.556
847.662
740.794
647.427
565.557
493.576
430.18
374.296
325.024
281.604
243.38
209.78
180.303
154.5
131.973
112.362
95.3405
80.6163
67.9227
57.019
47.6877
39.7326
32.9773
27.264
22.4516
18.415
15.0433
12.2391
9.91684
8.00207
6.4302
5.14552
4.10021
3.25347
2.57064
2.02248
1.58441
1.2359
0.959906
0.742329
0.571587
0.43821
0.334496
0.254218
0.192365
0.144925
0.108708
0.0811842
0.0603637
0.0446858
0.0329345
0.0241666
0.0176546
0.0128399
0.00929613
0.00669923
0.00480414
0.00342636
0.00242756
0.0017043
0.00117927
0.000794561
0.0005063
0.000280513
8.9746e-05
680.12
1541.38
1887.82
1927.54
1822.06
1661.21
1488.2
1321.78
1168.96
1031.51
909.008
800.219
703.711
618.099
542.131
474.712
414.888
361.831
314.821
273.224
236.48
204.09
175.605
150.62
128.768
109.715
93.1575
78.8177
66.4431
55.8041
46.6921
38.9186
32.3134
26.724
22.0136
18.0608
14.7577
12.0096
9.73298
7.85529
6.31344
5.05296
4.02711
3.19594
2.52555
1.98726
1.55701
1.21467
0.94352
0.729732
0.561942
0.430854
0.32891
0.249993
0.189182
0.142538
0.106924
0.0798575
0.0593809
0.0439609
0.032402
0.0237772
0.0173709
0.0126342
0.00914766
0.00659253
0.00472781
0.00337206
0.00238918
0.00167741
0.0011607
0.000782072
0.000498354
0.000276114
8.83395e-05
376.687
966.881
1304.45
1437.92
1441.81
1374.68
1273.88
1160.82
1046.93
937.935
836.401
743.249
658.556
581.987
513.029
451.105
395.635
346.06
301.857
262.54
227.657
196.794
169.568
145.624
124.634
106.298
90.3349
76.4896
64.5261
54.2285
45.4
37.8614
31.4507
26.0218
21.4438
17.5997
14.3858
11.7106
9.49339
7.66396
6.16118
4.93224
3.93174
3.12088
2.46669
1.94129
1.52124
1.18695
0.922116
0.713275
0.549339
0.421242
0.321609
0.24447
0.185021
0.139416
0.104592
0.0781225
0.0580955
0.0430127
0.0317055
0.0232677
0.0169999
0.0123652
0.00895339
0.0064529
0.00462794
0.003301
0.00233895
0.00164222
0.0011364
0.000765725
0.000487951
0.000270357
8.64984e-05
236.596
645.491
925.962
1078.99
1133.95
1123.48
1073.72
1002.8
922.329
839.37
758.015
680.524
608.046
541.072
479.708
423.842
373.24
327.605
286.61
249.919
217.197
188.118
162.37
139.652
119.684
102.197
86.9427
73.6877
62.216
52.3279
43.8397
36.5837
30.4071
25.1718
20.7535
17.0409
13.9349
11.3478
9.20257
7.43163
5.97623
4.78554
3.8158
3.0296
2.3951
1.88535
1.47771
1.1532
0.896059
0.693235
0.53399
0.409533
0.312713
0.23774
0.17995
0.135612
0.101749
0.0760074
0.0565284
0.0418565
0.0308561
0.0226463
0.0165473
0.0120369
0.00871638
0.00628254
0.00450607
0.00321429
0.00227765
0.00159927
0.00110674
0.000745772
0.000475254
0.000263328
8.42509e-05
160.96
452.997
675.696
819.214
892.881
913.199
896.579
856.393
802.474
741.613
678.305
615.422
554.735
497.285
443.636
394.044
348.566
307.133
269.599
235.768
205.419
178.313
154.209
132.864
114.042
97.5141
83.0615
70.4767
59.5647
50.1435
42.0444
35.1119
29.2039
24.191
19.9564
16.3951
13.4133
10.9281
8.86588
7.16252
5.76191
4.61546
3.68135
2.9237
2.31201
1.82041
1.42715
1.114
0.865783
0.669946
0.516147
0.39592
0.302369
0.229912
0.174052
0.131185
0.0984413
0.0735457
0.0547042
0.0405105
0.0298671
0.0219228
0.0160202
0.0116546
0.00844032
0.00608409
0.0043641
0.00311325
0.00220622
0.00154922
0.00107217
0.000722517
0.000460455
0.000255136
8.16313e-05
115.36
330.301
505.37
630.331
706.476
741.426
744.808
725.734
691.753
648.648
600.638
550.685
500.812
452.358
406.177
362.783
322.455
285.308
251.349
220.505
192.655
167.644
145.297
125.428
107.846
92.3584
78.7793
66.9271
56.6289
47.7212
40.0508
33.4757
27.8648
23.0983
19.0675
15.6743
12.8309
10.4589
8.48935
6.86138
5.52194
4.42495
3.53066
2.80498
2.21882
1.74756
1.37041
1.06999
0.831781
0.643784
0.496099
0.380619
0.29074
0.22111
0.167417
0.126205
0.0947195
0.0707756
0.0526512
0.0389954
0.0287538
0.0211082
0.0154267
0.0112241
0.00812937
0.00586054
0.00420415
0.00299942
0.00212573
0.00149282
0.00103321
0.000696307
0.000443774
0.000245902
7.86783e-05
85.6878
247.92
385.882
491.276
562.539
602.74
617.235
611.926
592.272
562.855
527.297
488.343
448.007
407.729
368.508
331.017
295.683
262.759
232.367
204.537
179.235
156.377
135.85
117.519
101.235
86.8432
74.1878
63.1132
53.4686
45.1092
37.898
31.7063
26.4148
21.9139
18.103
14.8916
12.1977
9.94858
8.07946
6.53335
5.26039
4.21719
3.36625
2.67537
2.11705
1.66795
1.30839
1.02186
0.794591
0.615159
0.474157
0.363869
0.278007
0.21147
0.16015
0.120749
0.0906405
0.0677391
0.0504003
0.037334
0.0275327
0.0202145
0.0147756
0.0107517
0.00778814
0.00561518
0.00402857
0.00287445
0.00203736
0.00143089
0.000990429
0.000667523
0.000425453
0.000235761
7.5435e-05
65.3017
190.237
299.668
387.322
450.888
491.222
511.142
514.333
504.592
485.382
459.646
429.762
397.583
364.514
331.591
299.557
268.928
240.044
213.114
188.244
165.469
144.766
126.075
109.305
94.3475
81.0813
69.3788
59.1097
50.1444
42.3568
35.6255
29.8358
24.88
20.6585
17.0797
14.0602
11.5246
9.40559
7.64299
6.18381
4.9815
3.99551
3.19073
2.53693
2.00828
1.58284
1.24206
0.970371
0.754782
0.584508
0.450654
0.345922
0.264358
0.201135
0.152356
0.114896
0.0862641
0.0644805
0.0479844
0.0355503
0.0262215
0.0192548
0.0140761
0.0102442
0.00742151
0.00535152
0.00383987
0.00274013
0.00194237
0.00136431
0.000944428
0.00063657
0.000405751
0.000224853
7.19467e-05
50.7207
148.466
235.904
308.385
363.641
401.517
423.381
431.462
428.329
416.521
398.338
375.753
350.384
323.52
296.158
269.05
242.748
217.642
193.993
171.963
151.639
133.046
116.166
100.947
87.3162
75.1812
64.4412
54.9891
46.7157
39.5122
33.2729
27.8963
23.2863
19.3533
16.0144
13.1937
10.8224
8.83858
7.18683
5.8182
4.68958
3.76333
3.00677
2.39175
1.89416
1.4935
1.17239
0.916267
0.712935
0.552276
0.42593
0.327036
0.249992
0.190252
0.144147
0.108731
0.0816523
0.0610458
0.0454372
0.0336695
0.0248386
0.0182424
0.0133382
0.00970857
0.00703453
0.00507318
0.00364064
0.00259829
0.00184204
0.00129398
0.000895835
0.00060387
0.000384935
0.000213328
6.82609e-05
39.9659
117.392
187.737
247.561
294.889
329.158
350.929
361.509
362.599
356.019
343.523
326.697
306.904
285.277
262.731
239.983
217.584
195.939
175.341
155.984
137.991
121.424
106.297
92.5916
80.262
69.2436
59.4584
50.8204
43.239
36.622
30.8781
25.9186
21.6586
18.0184
14.9235
12.3054
10.1018
8.25607
6.71777
5.44194
4.38892
3.52401
2.81703
2.24192
1.77632
1.40118
1.10037
0.86031
0.669638
0.518912
0.400327
0.307471
0.235104
0.178971
0.135635
0.102335
0.0768675
0.0574813
0.0427932
0.0317166
0.0234025
0.0171908
0.0125715
0.00915203
0.00663233
0.00478385
0.00343351
0.0024508
0.0017377
0.00122083
0.000845286
0.00056985
0.000363277
0.000201337
6.44256e-05
31.8399
93.7685
150.699
200.072
240.253
270.558
291.116
302.661
306.299
303.314
295.02
282.664
267.364
250.089
231.647
212.697
193.759
175.236
157.426
140.544
124.732
110.077
96.6197
84.366
73.2934
63.3592
54.5061
46.6665
39.7665
33.7291
28.4764
23.9317
20.0208
16.6732
13.8227
11.4079
9.3728
7.66624
6.24235
5.06023
4.08365
3.28084
2.6241
2.08946
1.65633
1.30714
1.02696
0.803244
0.625461
0.484855
0.374183
0.287485
0.21989
0.167438
0.12693
0.0957925
0.0719713
0.0538328
0.0400861
0.0297167
0.0219313
0.0161133
0.0117857
0.00858156
0.00621999
0.00448717
0.00322108
0.0022995
0.00163066
0.00114578
0.000793412
0.000534934
0.000341047
0.000189027
6.04886e-05
25.5817
75.4904
121.793
162.567
196.492
222.893
241.683
253.244
258.282
257.693
252.448
243.513
231.788
218.082
203.093
187.405
171.496
155.748
140.452
125.826
112.025
99.1505
87.2608
76.3796
66.5033
57.6073
49.6512
42.5835
36.3451
30.8725
26.1001
21.9623
18.3946
15.3355
12.7264
10.513
8.64506
7.07675
5.76673
4.67799
3.77769
3.03692
2.43042
1.93631
1.53572
1.21255
0.953083
0.745781
0.580954
0.450528
0.347818
0.267321
0.204535
0.155794
0.118138
0.0891826
0.0670231
0.0501444
0.0373487
0.0276938
0.0204429
0.0150229
0.0109904
0.00800399
0.00580243
0.00418667
0.00300587
0.00214621
0.00152218
0.0010697
0.000740827
0.000499534
0.000318506
0.000176545
5.64962e-05
20.6874
61.1452
98.9522
132.653
161.192
183.957
200.762
211.779
217.45
218.393
215.32
208.97
200.059
189.25
177.133
164.217
150.929
137.617
124.559
111.967
99.9971
88.7589
78.3215
68.7215
59.9692
52.0543
44.9504
38.6195
33.0154
28.0863
23.7776
20.0338
16.7995
14.0213
11.6479
9.63138
7.92722
6.49461
5.29653
4.29974
3.47464
2.79511
2.23828
1.78426
1.41589
1.1185
0.879589
0.688587
0.536631
0.416325
0.321537
0.247213
0.189215
0.144173
0.10936
0.0825804
0.062079
0.0464579
0.0346118
0.0256707
0.018954
0.0139319
0.0101944
0.00742579
0.00538432
0.00388571
0.00279029
0.00199262
0.00141347
0.000993456
0.000688114
0.000464045
0.000295906
0.000164029
5.24928e-05
16.8123
49.7556
80.7206
108.596
132.54
152.024
166.825
176.994
182.8
184.665
183.108
178.689
171.971
163.492
153.743
143.16
132.116
120.924
109.838
99.0578
88.7369
78.9855
69.8785
61.4608
53.7525
46.7541
40.4504
34.8147
29.8114
25.3992
21.5332
18.1666
15.2524
12.7445
10.5985
8.77241
7.22695
5.92605
4.8368
3.92953
3.17776
2.55802
2.04972
1.63492
1.29813
1.02602
0.807264
0.632268
0.492963
0.38261
0.295617
0.227372
0.174092
0.132696
0.100687
0.0760554
0.0571909
0.042812
0.0319042
0.0236687
0.0174801
0.0128515
0.00940598
0.00685299
0.00497001
0.00358743
0.00257657
0.00184033
0.00130566
0.000917826
0.000635819
0.000428832
0.000273479
0.000151608
4.85196e-05
13.7135
40.6273
66.0461
89.1142
109.163
125.743
138.633
147.814
153.443
155.807
155.28
152.285
147.263
140.645
132.835
124.2
115.062
105.696
96.3312
87.1513
78.3006
69.8867
61.9861
54.6479
47.8991
41.7478
36.1877
31.2008
26.7608
22.835
19.3869
16.3776
13.7675
11.5171
9.58817
7.94419
6.55087
5.37646
4.3919
3.5709
2.88988
2.3279
1.86656
1.48975
1.18355
0.935974
0.736803
0.577367
0.450368
0.349706
0.270308
0.207989
0.159312
0.121474
0.0922038
0.0696702
0.0524058
0.0392417
0.0292518
0.0217068
0.0160353
0.0117923
0.00863275
0.00629105
0.00456347
0.00329466
0.00236677
0.00169079
0.00119978
0.000843534
0.000584441
0.000394231
0.00025144
0.0001394
4.46145e-05
11.2156
33.2561
54.1548
73.2484
90.0051
104.051
115.178
123.334
128.603
131.177
131.327
129.371
125.65
120.507
114.274
107.255
99.7246
91.9212
84.0468
76.2676
68.7162
61.4948
54.6779
48.3163
42.4408
37.0649
32.1889
27.8018
23.8845
20.4118
17.3544
14.6802
12.3561
10.3485
8.62478
7.15336
5.90445
4.85034
3.96552
3.22682
2.6134
2.10669
1.69033
1.34995
1.07313
0.84914
0.668807
0.524352
0.409213
0.317896
0.245828
0.189231
0.145001
0.110603
0.0839827
0.0634798
0.0477649
0.0357777
0.0266775
0.0198021
0.0146322
0.0107632
0.00788137
0.00574485
0.0041682
0.00300994
0.00216268
0.00154529
0.00109674
0.000771222
0.000534423
0.00036054
0.000229977
0.000127512
4.08112e-05
9.18937
27.2677
44.4666
60.2686
74.2505
86.1033
95.641
102.796
107.608
110.204
110.777
109.567
106.836
102.858
97.8998
92.2141
86.0312
79.5553
72.9625
66.4002
59.9884
53.8213
47.9698
42.4841
37.3965
32.7241
28.4717
24.6339
21.1974
18.143
15.4474
13.0846
11.0269
9.24621
7.71463
6.40515
5.29206
4.35128
3.5606
2.8997
2.35028
1.89598
1.52231
1.21656
0.967691
0.766154
0.60378
0.473619
0.369804
0.287417
0.222359
0.171238
0.131267
0.100167
0.0760861
0.0575314
0.0433037
0.0324464
0.024201
0.0179691
0.0132815
0.00977229
0.0071576
0.00521856
0.00378724
0.00273545
0.00196588
0.00140496
0.000997334
0.000701447
0.000486151
0.000328021
0.000209259
0.000116033
3.71391e-05
7.53746
22.3798
36.5398
49.612
61.2589
71.2271
79.3546
85.5698
89.8846
92.3813
93.1984
92.5145
90.5329
87.4687
83.5374
78.9459
73.8864
68.532
63.0342
57.5222
52.1026
46.8609
41.8628
37.1563
32.7739
28.7345
25.046
21.7069
18.7087
16.0371
13.6738
11.5977
9.78611
8.21548
6.86226
5.70343
4.71694
3.88202
3.1794
2.59141
2.10205
1.69699
1.36349
1.09037
0.867861
0.687526
0.542123
0.425483
0.33239
0.258463
0.200052
0.154127
0.1182
0.0902315
0.0685655
0.0518636
0.0390511
0.0292698
0.0218386
0.01622
0.0119921
0.00882603
0.00646624
0.0047157
0.00342313
0.00247304
0.00177769
0.00127074
0.000902233
0.000634678
0.000439951
0.000296892
0.000189422
0.000105043
3.3623e-05
6.18557
18.3755
30.033
40.839
50.5241
58.8811
65.7716
71.1261
74.9403
77.2663
78.2029
77.8832
76.4637
74.1136
71.0056
67.3083
63.1811
58.7692
54.2019
49.5908
45.0296
40.5946
36.3456
32.3274
28.5713
25.097
21.9142
19.0245
16.4227
14.0985
12.0377
10.2236
8.63739
7.25967
6.07063
5.05078
4.18132
3.44444
2.82352
2.30327
1.86981
1.51063
1.21462
0.971977
0.774124
0.61364
0.484143
0.380186
0.297159
0.231183
0.179021
0.137987
0.105867
0.0808502
0.0614609
0.046507
0.0350303
0.0262651
0.0196031
0.0145642
0.0107712
0.00792969
0.00581115
0.00423907
0.00307792
0.00222418
0.00159917
0.00114338
0.000811974
0.000571295
0.000396083
0.00026733
0.000170582
9.4604e-05
3.02829e-05
5.07608
15.0864
24.6792
33.6027
41.6416
48.6271
54.4423
59.023
62.3562
64.4736
65.4453
65.3706
64.3696
62.575
60.1247
57.1556
53.7987
50.1752
46.3945
42.552
38.7291
34.9929
31.3972
27.9827
24.7791
21.8056
19.0732
16.5852
14.3391
12.3278
10.5405
8.96368
7.58236
6.38038
5.34127
4.44861
3.68646
3.03964
2.49391
2.03611
1.65425
1.33749
1.07618
0.861782
0.686805
0.54476
0.43005
0.337897
0.264245
0.205681
0.15935
0.122882
0.0943196
0.0720615
0.0548017
0.041484
0.0312583
0.0234451
0.0175043
0.013009
0.00962398
0.00708722
0.00519522
0.00379079
0.00275315
0.00198999
0.00143113
0.00102346
0.000726968
0.000511588
0.000354752
0.000239471
0.000152826
8.47639e-05
2.71343e-05
4.16369
12.3796
20.2669
27.6264
34.2858
40.1081
44.9952
48.89
51.775
53.6688
54.6204
54.7041
54.0118
52.6476
50.721
48.3429
45.6202
42.6535
39.5346
36.3444
33.153
30.0189
26.9893
24.1011
21.3815
18.849
16.5147
14.3834
12.4543
10.7228
9.18059
7.8173
6.62072
5.57765
4.67441
3.89725
3.23276
2.66804
2.19097
1.7903
1.4557
1.17786
0.948429
0.760002
0.606088
0.481036
0.37997
0.298717
0.233732
0.182024
0.141091
0.108852
0.0835885
0.06389
0.0486073
0.0368093
0.0277463
0.0208184
0.0155485
0.0115593
0.00855418
0.0063013
0.00462045
0.00337233
0.00244989
0.00177124
0.00127412
0.00091139
0.000647507
0.000455761
0.000316099
0.000213413
0.000136214
7.55573e-05
2.41883e-05
3.41242
10.1494
16.6271
22.6874
28.1926
33.0313
37.1224
40.4158
42.8926
44.5624
45.4598
45.6399
45.1732
44.1409
42.6302
40.73
38.5277
36.1061
33.5417
30.9027
28.2487
25.6302
23.0884
20.6562
18.3581
16.2113
14.2268
12.4099
10.7614
9.27821
7.9544
6.78179
5.75063
4.85019
4.06917
3.39615
2.81987
2.32945
1.91462
1.5658
1.27419
1.03178
0.831406
0.666689
0.532024
0.422519
0.333948
0.262686
0.205651
0.160239
0.124267
0.0959179
0.0736896
0.0563484
0.0428875
0.0324907
0.0245003
0.0183896
0.0137393
0.0102177
0.00756381
0.00557348
0.00408798
0.00298455
0.00216876
0.0015684
0.00112849
0.000807413
0.000573764
0.000403941
0.000280211
0.000189215
0.000120785
6.70057e-05
2.14518e-05
2.79343
8.31084
13.6232
18.605
23.1459
27.1558
30.5676
33.3384
35.4494
36.9048
37.7284
37.9613
37.6575
36.8802
35.6986
34.1841
32.4074
30.4365
28.3347
26.1593
23.9605
21.7814
19.6579
17.6185
15.6852
13.8738
12.1946
10.6532
9.25129
7.98714
6.85647
5.85298
4.96893
4.19561
3.52378
2.94397
2.44679
2.02314
1.66433
1.36225
1.10943
0.899057
0.724985
0.581756
0.464554
0.369169
0.291957
0.229789
0.179996
0.140322
0.108876
0.0840785
0.0646236
0.0494377
0.0376435
0.0285295
0.0215216
0.0161598
0.0120777
0.00898505
0.00665349
0.00490425
0.0035982
0.00262773
0.00191001
0.00138164
0.000994372
0.000711625
0.000505811
0.000356176
0.000247125
0.000166902
0.000106557
5.9118e-05
1.89275e-05
2.28337
6.79514
11.1446
15.2317
18.9684
22.2819
25.1168
27.4369
29.2247
30.4805
31.2211
31.4768
31.2889
30.7068
29.785
28.5807
27.151
25.5516
23.8345
22.0473
20.2323
18.426
16.6591
14.9563
13.337
11.8154
10.4011
9.09964
7.91316
6.84096
5.88002
5.02554
4.27142
3.61065
3.0357
2.53876
2.11204
1.74795
1.4392
1.17898
0.960938
0.779312
0.628881
0.504989
0.40352
0.32087
0.253914
0.199962
0.156719
0.122241
0.0948946
0.073317
0.0563784
0.0431492
0.0328693
0.0249213
0.0188071
0.0141269
0.0105621
0.00786029
0.00582254
0.00429313
0.0031508
0.00230168
0.00167348
0.00121088
0.000871697
0.000623986
0.000443623
0.000312454
0.000216832
0.000146469
9.3524e-05
5.18927e-05
1.66151e-05
1.86322
5.54613
9.10033
12.4463
15.5137
18.2436
20.5909
22.5249
24.0299
25.1044
25.7595
26.0179
25.9112
25.4776
24.7604
23.805
22.6576
21.3633
19.9649
18.5016
17.0088
15.5172
14.0528
12.637
11.2866
10.0141
8.82826
7.73445
6.73504
5.83
5.01727
4.29326
3.65316
3.09139
2.60182
2.17807
1.8137
1.5024
1.2381
1.01507
0.828003
0.672012
0.542686
0.436076
0.348685
0.277442
0.219681
0.173103
0.135744
0.105937
0.0822798
0.0636017
0.0489305
0.0374658
0.0285522
0.0216571
0.0163502
0.0122861
0.00918917
0.00684095
0.00506916
0.00373885
0.00274486
0.00200574
0.00145873
0.00105578
0.000760247
0.000544345
0.000387094
0.0002727
0.000189283
0.000127881
8.16674e-05
4.53185e-05
1.45109e-05
1.51742
4.51775
7.41601
10.149
12.6604
14.9028
16.8394
18.4446
19.7047
20.6169
21.1888
21.4371
21.3858
21.065
20.5084
19.7523
18.8337
17.7893
16.6539
15.4598
14.2363
13.0092
11.8004
10.628
9.50657
8.44705
7.45725
6.54215
5.70424
4.9439
4.25982
3.64932
3.10868
2.63343
2.21864
1.85911
1.54955
1.28473
1.05963
0.869467
0.709788
0.576501
0.465891
0.374626
0.299747
0.238654
0.189083
0.149079
0.11697
0.0913336
0.070974
0.0548893
0.0422478
0.0323634
0.0246744
0.0187236
0.0141412
0.0106302
0.00795365
0.00592325
0.00439065
0.00323946
0.00237899
0.00173891
0.00126505
0.000915854
0.000659665
0.000472447
0.000336048
0.000236792
0.000164393
0.000111085
7.09514e-05
3.93762e-05
1.26089e-05
1.23313
3.67204
6.03002
8.25678
10.3074
12.1437
13.7359
15.0628
16.1124
16.8814
17.375
17.6054
17.5911
17.3552
16.9244
16.3275
15.594
14.7536
13.8346
12.8634
11.8643
10.8585
9.86447
8.89758
7.97018
7.09176
6.26922
5.50708
4.80778
4.172
3.59892
3.08661
2.63217
2.23208
1.88239
1.57885
1.31716
1.09303
0.902275
0.74095
0.605343
0.492035
0.397915
0.320185
0.256356
0.204235
0.161911
0.12773
0.100274
0.0783393
0.0609075
0.0471273
0.0362906
0.0278126
0.0212141
0.0161045
0.012168
0.00915049
0.00684903
0.00510245
0.00378353
0.00279245
0.00205137
0.0014999
0.00109149
0.000790427
0.000569477
0.000407961
0.00029025
0.000204568
0.000142051
9.60057e-05
6.1329e-05
3.40395e-05
1.09006e-05
0.999765
2.97762
4.89132
6.70093
8.37057
9.86972
11.1741
12.2664
13.1364
13.7807
14.2025
14.411
14.4202
14.248
13.9155
13.4454
12.8613
12.1869
11.4453
10.6581
9.84495
9.02363
8.20941
7.41518
6.6514
5.92623
5.24566
4.61374
4.03277
3.50357
3.02574
2.59785
2.2177
1.88252
1.58913
1.33413
1.11401
0.92524
0.764406
0.628233
0.513649
0.417811
0.338128
0.272262
0.218128
0.173889
0.137936
0.108879
0.0855231
0.0668505
0.0520018
0.0402563
0.0310142
0.0237797
0.0181459
0.0137811
0.0104167
0.00783656
0.00586777
0.004373
0.00324376
0.00239487
0.00175987
0.00128716
0.000936955
0.000678713
0.000489125
0.00035049
0.000249424
0.000175834
0.000122124
8.25532e-05
5.27433e-05
2.92773e-05
9.37608e-06
0.808537
2.40845
3.95755
5.42413
6.77964
7.99963
9.06453
9.96014
10.6778
11.2143
11.5717
11.7567
11.7799
11.6554
11.3994
11.03
10.566
10.0265
9.42994
8.79387
8.13446
7.46623
6.80183
6.15201
5.52557
4.92943
4.36875
3.8471
3.3666
2.92813
2.53155
2.17585
1.85935
1.57989
1.33493
1.12175
0.937492
0.779296
0.644357
0.529986
0.433648
0.352994
0.285872
0.23034
0.184661
0.1473
0.116915
0.0923392
0.0725712
0.0567566
0.0441725
0.0342122
0.0263702
0.0202281
0.0154425
0.011733
0.00887219
0.00667721
0.00500157
0.00372881
0.00276688
0.00204348
0.00150213
0.001099
0.000800228
0.000579837
0.000417984
0.000299593
0.000213256
0.000150373
0.000104462
7.06272e-05
4.51305e-05
2.50542e-05
8.02411e-06
0.652156
1.9429
3.19343
4.37863
5.47579
6.4654
7.3317
8.06312
8.65243
9.09672
9.39716
9.55867
9.58939
9.5001
9.30361
9.01411
8.64656
8.21614
7.73773
7.22551
6.69262
6.15093
5.61085
5.08128
4.56957
4.08154
3.62161
3.19286
2.79722
2.43557
2.10793
1.81361
1.55134
1.31943
1.11589
0.938528
0.785043
0.653114
0.540457
0.444871
0.364276
0.296736
0.240478
0.193892
0.155541
0.124148
0.0985969
0.0779161
0.0612695
0.047943
0.0373321
0.0289284
0.022308
0.0171199
0.0130754
0.00993862
0.00751841
0.00566058
0.00424166
0.00316342
0.00234817
0.00173483
0.00127566
0.000933601
0.00068
0.000492865
0.000355388
0.000254794
0.000181413
0.00012795
8.8904e-05
6.01197e-05
3.84221e-05
2.13324e-05
6.83248e-06
0.52456
1.56296
2.56959
3.52457
4.40988
5.20996
5.91219
6.50719
6.98896
7.3549
7.60565
7.74481
7.77857
7.71525
7.56485
7.33854
7.04815
6.70577
6.32332
5.91221
5.48307
5.04556
4.60821
4.17833
3.76201
3.36415
2.98846
2.6376
2.31326
2.0163
1.74685
1.50443
1.28811
1.09658
0.928252
0.781392
0.654155
0.544665
0.451068
0.371573
0.304479
0.248202
0.201281
0.162395
0.130356
0.10411
0.0827313
0.0654154
0.0514675
0.0402942
0.031392
0.0243373
0.0187765
0.0144162
0.0110152
0.00837624
0.00633907
0.00477453
0.00357907
0.00267023
0.00198278
0.00146537
0.00107788
0.0007891
0.000574926
0.000416829
0.000300645
0.000215604
0.000153549
0.000108323
7.52828e-05
5.09182e-05
3.25465e-05
1.80722e-05
5.78858e-06
0.420707
1.25367
2.06157
2.8287
3.54079
4.18548
4.75267
5.23479
5.62693
5.9268
6.13468
6.25322
6.28711
6.24277
6.12799
5.95153
5.72274
5.4512
5.14642
4.81756
4.47319
4.12111
3.76828
3.42069
3.08336
2.76034
2.45475
2.16886
1.90414
1.66139
1.44078
1.24203
1.06443
0.906976
0.768428
0.647403
0.542429
0.451998
0.374614
0.308822
0.253241
0.206576
0.167637
0.135338
0.108705
0.0868702
0.0690718
0.0546454
0.0430172
0.033696
0.0262647
0.0203722
0.0157247
0.0120786
0.00923308
0.007024
0.00531787
0.00400693
0.0030048
0.00224261
0.00166583
0.00123155
0.000906185
0.000663615
0.000483647
0.000350753
0.000253058
0.000181527
0.000129313
9.12466e-05
6.34289e-05
4.29089e-05
2.74312e-05
1.52334e-05
4.87962e-06
0.336401
1.00255
1.64896
2.26326
2.83416
3.35187
3.80834
4.19748
4.51528
4.75979
4.93107
5.03104
5.06325
5.03267
4.94533
4.8081
4.62834
4.41363
4.17153
3.90935
3.63397
3.35168
3.06812
2.78816
2.51592
2.25474
2.00721
1.77526
1.56014
1.36257
1.18277
1.02056
0.875414
0.746572
0.633066
0.5338
0.447605
0.373272
0.309598
0.25541
0.209589
0.171085
0.138927
0.112231
0.0902003
0.0721253
0.0573809
0.0454214
0.0357751
0.0280376
0.0218651
0.0169678
0.013103
0.0100693
0.00770053
0.00586058
0.00443884
0.0033459
0.00251004
0.00187403
0.00139254
0.00102986
0.000758025
0.00055529
0.000404822
0.000293674
0.000211937
0.00015207
0.000108357
7.64778e-05
5.31741e-05
3.59785e-05
2.30042e-05
1.27764e-05
4.09283e-06
0.268154
0.799236
1.31481
1.80514
2.26132
2.67562
3.04164
3.35451
3.61097
3.80938
3.94967
4.03322
4.06274
4.04202
3.97577
3.86934
3.7285
3.55924
3.36755
3.15924
2.9398
2.7143
2.48728
2.26267
2.04384
1.83352
1.63387
1.44647
1.27241
1.11232
0.96643
0.834634
0.716559
0.611616
0.519056
0.438019
0.367576
0.306766
0.254623
0.210207
0.172614
0.140997
0.114568
0.092611
0.0744766
0.0595872
0.0474327
0.0375672
0.0296046
0.0232135
0.018112
0.014062
0.0108641
0.00835252
0.00639035
0.00486548
0.00368663
0.00277998
0.00208628
0.00155821
0.00115827
0.000856893
0.000630922
0.000462327
0.000337153
0.000244656
0.000176612
0.000126758
9.03435e-05
6.37794e-05
4.43548e-05
3.00169e-05
1.91954e-05
1.06622e-05
3.41576e-06
0.213071
0.635114
1.045
1.43508
1.79837
2.12875
2.42116
2.67173
2.87782
3.03807
3.15231
3.22158
3.2479
3.23419
3.1841
3.10177
2.99175
2.85873
2.70744
2.5425
2.36827
2.1888
2.00772
1.82823
1.65303
1.48436
1.32399
1.17323
1.03301
0.903854
0.785999
0.679396
0.583774
0.498688
0.423557
0.357709
0.300409
0.250895
0.208398
0.172165
0.141471
0.115633
0.0940187
0.0760464
0.0611919
0.0489866
0.0390162
0.0309179
0.0243774
0.0191244
0.0149289
0.0115961
0.00896311
0.00689403
0.00527675
0.00401927
0.00304666
0.0022983
0.00172544
0.00128917
0.00095862
0.00070943
0.000522517
0.000383011
0.000279397
0.000202804
0.000146442
0.000105132
7.49499e-05
5.29247e-05
3.6814e-05
2.49184e-05
1.59375e-05
8.85356e-06
2.83649e-06
0.168748
0.503038
0.82782
1.1371
1.42541
1.68793
1.92068
2.12057
2.28549
2.41431
2.50685
2.56384
2.58682
2.57803
2.54027
2.47677
2.39107
2.28686
2.16786
2.0377
1.89986
1.75755
1.61367
1.47079
1.33108
1.19637
1.06809
0.94732
0.834832
0.73109
0.636304
0.550461
0.473372
0.404699
0.343996
0.290736
0.244344
0.204218
0.169745
0.140328
0.115386
0.0943726
0.0767796
0.0621401
0.0500312
0.0400747
0.0319356
0.0253205
0.0199743
0.015678
0.0122444
0.00951544
0.00735819
0.00566208
0.00433564
0.00330379
0.00250532
0.00189065
0.00141993
0.00106129
0.000789445
0.000584429
0.00043059
0.000315727
0.000230385
0.000167277
0.000120822
8.67634e-05
6.18703e-05
4.36993e-05
3.04035e-05
2.05833e-05
1.31669e-05
7.31523e-06
2.34377e-06
0.133197
0.397091
0.653566
0.897945
1.12594
1.33379
1.51836
1.6772
1.80862
1.91171
1.98627
2.03284
2.05257
2.04716
2.01879
1.96995
1.9034
1.82202
1.72873
1.62638
1.51772
1.40529
1.29141
1.17811
1.06715
0.959996
0.857805
0.76147
0.67162
0.588651
0.512751
0.443933
0.382063
0.326888
0.278065
0.235186
0.1978
0.165432
0.1376
0.113829
0.0936569
0.0766489
0.0623979
0.0505303
0.0407071
0.0326243
0.0260124
0.020635
0.0162864
0.0127896
0.00999339
0.00776969
0.00601091
0.00462737
0.00354482
0.00270228
0.00204999
0.00154763
0.00116274
0.000869374
0.00064691
0.000479071
0.00035308
0.000258975
0.00018903
0.000137291
9.91914e-05
7.12492e-05
5.08202e-05
3.59031e-05
2.49848e-05
1.69181e-05
1.0824e-05
6.01421e-06
1.92706e-06
0.104776
0.312384
0.514219
0.706639
0.886303
1.05027
1.19607
1.32179
1.42609
1.50822
1.56799
1.60579
1.62248
1.61937
1.59812
1.56067
1.50915
1.4458
1.37291
1.29271
1.20736
1.11887
1.02908
0.939593
0.851822
0.766931
0.685864
0.60934
0.537878
0.471808
0.411298
0.356373
0.306939
0.262808
0.223719
0.189355
0.159365
0.133377
0.111012
0.0918927
0.0756557
0.0619545
0.0504656
0.0408911
0.0329603
0.0264301
0.0210848
0.0167346
0.0132146
0.0103824
0.00811627
0.00631314
0.00488624
0.00376318
0.00288401
0.00219942
0.00166916
0.0012606
0.000947445
0.000708651
0.000527497
0.000390769
0.000288094
0.000211375
0.000154333
0.000112123
8.10308e-05
5.82201e-05
4.15375e-05
2.93521e-05
2.04304e-05
1.38368e-05
8.85395e-06
4.92013e-06
1.57657e-06
0.0821328
0.24489
0.403167
0.554138
0.695202
0.824068
0.938814
1.03793
1.12036
1.1855
1.23317
1.26366
1.27762
1.27603
1.26017
1.23154
1.19177
1.14262
1.08586
1.02324
0.956447
0.887064
0.816531
0.746133
0.676979
0.610003
0.545958
0.485426
0.428831
0.376446
0.328415
0.28477
0.245448
0.21031
0.179155
0.151741
0.127794
0.107025
0.0891362
0.073831
0.0608227
0.0498375
0.0406192
0.0329314
0.026559
0.0213085
0.0170078
0.0135056
0.0106701
0.0083872
0.00655961
0.00510461
0.00395259
0.00304541
0.00233489
0.00178136
0.00135242
0.00102177
0.000768222
0.000574803
0.000428011
0.000317175
0.000233912
0.000171675
0.000125384
9.11184e-05
6.5869e-05
4.73391e-05
3.37829e-05
2.38781e-05
1.66239e-05
1.12608e-05
7.20677e-06
4.00524e-06
1.28347e-06
0.0641549
0.191298
0.314975
0.432997
0.54335
0.644254
0.734213
0.812048
0.876924
0.928355
0.9662
0.990649
1.00219
1.00157
0.989779
0.967949
0.937356
0.899348
0.855301
0.806581
0.754504
0.700306
0.645118
0.589952
0.535685
0.483057
0.43267
0.38499
0.340359
0.299002
0.261043
0.226514
0.195375
0.167521
0.142802
0.121031
0.101998
0.0854761
0.0712334
0.0590384
0.0486654
0.0398992
0.0325376
0.026394
0.0212981
0.0170966
0.013653
0.010847
0.00857376
0.00674257
0.00527576
0.00410736
0.00318177
0.00245254
0.0018811
0.00143572
0.00109042
0.000824135
0.000619853
0.000463951
0.000345586
0.000256179
0.000188988
0.000138747
0.000101365
7.36847e-05
5.32811e-05
3.83025e-05
2.7341e-05
1.93295e-05
1.34601e-05
9.11939e-06
5.83716e-06
3.24443e-06
1.03973e-06
0.049932
0.148896
0.245187
0.337115
0.423123
0.501835
0.572089
0.632969
0.683819
0.724252
0.754148
0.773639
0.783092
0.783075
0.774332
0.757741
0.73428
0.704987
0.670927
0.633158
0.592704
0.550527
0.507513
0.464454
0.422041
0.380856
0.341378
0.303978
0.268931
0.236422
0.206552
0.179355
0.154804
0.132823
0.113299
0.0960885
0.081029
0.0679459
0.0566587
0.0469868
0.0387538
0.031791
0.0259398
0.0210533
0.0169975
0.0136514
0.0109072
0.00866977
0.00685607
0.00539424
0.00422265
0.00328891
0.00254885
0.00196548
0.00150813
0.00115151
0.000874896
0.000661485
0.000497697
0.000372649
0.00027767
0.000205901
0.000151945
0.000111586
8.1546e-05
5.92946e-05
4.28875e-05
3.0839e-05
2.20189e-05
1.55705e-05
1.08448e-05
7.34894e-06
4.70463e-06
2.61521e-06
8.38146e-07
0.0387207
0.11547
0.190164
0.261502
0.328286
0.389453
0.444106
0.491534
0.531226
0.562875
0.58638
0.601833
0.609508
0.609834
0.603377