/*--------------------------------*- C++ -*----------------------------------*\
  =========                 |
  \\      /  F ield         | OpenFOAM: The Open Source CFD Toolbox
   \\    /   O peration     | Website:  https://openfoam.org
    \\  /    A nd           | Version:  10
     \\/     M anipulation  |
\*---------------------------------------------------------------------------*/
FoamFile
{
    format      ascii;
    class       volScalarField;
    location    "381";
    object      T;
}
// * * * * * * * * * * * * * * * * * * * * * * * * * * * * * * * * * * * * * //

dimensions      [0 0 0 1 0 0 0];

internalField   nonuniform List<scalar> 
11250
(
249.861
167.611
139.449
127.068
120.326
116.059
113.081
110.863
109.138
107.751
106.612
105.659
104.853
104.164
103.572
103.061
102.619
102.236
101.904
101.617
101.369
101.155
100.971
100.813
100.678
100.563
100.466
100.384
100.315
100.257
100.209
100.169
100.136
100.109
100.087
100.069
100.054
100.043
100.033
100.026
100.02
100.015
100.012
100.009
100.007
100.005
100.004
100.003
100.002
100.002
100.001
100.001
100.001
100
100
100
100
100
100
100
100
100
100
100
100
100
100
100
100
100
100
100
100
100
100
331.554
248.75
202.576
175.576
158.517
146.905
138.501
132.119
127.096
123.031
119.673
116.856
114.466
112.421
110.66
109.139
107.822
106.68
105.69
104.833
104.092
103.453
102.903
102.431
102.028
101.685
101.393
101.148
100.941
100.768
100.624
100.505
100.406
100.325
100.259
100.206
100.163
100.128
100.1
100.078
100.06
100.046
100.035
100.027
100.02
100.015
100.012
100.009
100.006
100.005
100.003
100.003
100.002
100.001
100.001
100.001
100
100
100
100
100
100
100
100
100
100
100
100
100
100
100
100
100
100
100
359.164
293.272
246.554
214.175
191.302
174.594
161.953
152.08
144.162
137.674
132.268
127.703
123.812
120.47
117.586
115.089
112.922
111.042
109.41
107.996
106.772
105.716
104.806
104.026
103.359
102.791
102.309
101.902
101.56
101.273
101.035
100.837
100.674
100.54
100.43
100.341
100.27
100.212
100.165
100.129
100.1
100.077
100.059
100.045
100.034
100.026
100.019
100.014
100.011
100.008
100.006
100.004
100.003
100.002
100.002
100.001
100.001
100.001
100
100
100
100
100
100
100
100
100
100
100
100
100
100
100
100
100
371.002
318.646
276.232
243.324
217.99
198.298
182.729
170.189
159.91
151.355
144.144
138.004
132.736
128.19
124.252
120.832
117.858
115.271
113.023
111.072
109.382
107.921
106.664
105.584
104.66
103.873
103.205
102.64
102.166
101.768
101.437
101.163
100.936
100.75
100.598
100.474
100.375
100.294
100.23
100.179
100.138
100.107
100.082
100.062
100.047
100.036
100.027
100.02
100.015
100.011
100.008
100.006
100.004
100.003
100.002
100.002
100.001
100.001
100.001
100
100
100
100
100
100
100
100
100
100
100
100
100
100
100
100
377.212
334.111
296.459
264.974
239.132
217.991
200.606
186.181
174.09
163.856
155.119
147.609
141.116
135.481
130.577
126.301
122.573
119.323
116.492
114.031
111.897
110.05
108.459
107.091
105.92
104.921
104.074
103.357
102.754
102.249
101.828
101.479
101.191
100.955
100.761
100.604
100.477
100.375
100.293
100.228
100.176
100.136
100.104
100.079
100.06
100.045
100.034
100.025
100.019
100.014
100.01
100.008
100.005
100.004
100.003
100.002
100.001
100.001
100.001
100.001
100
100
100
100
100
100
100
100
100
100
100
100
100
100
100
380.96
344.17
310.589
281.079
255.696
234.073
215.689
200.022
186.61
175.069
165.088
156.421
148.867
142.269
136.497
131.445
127.025
123.16
119.787
116.848
114.296
112.085
110.177
108.535
107.129
105.929
104.909
104.047
103.321
102.713
102.206
101.785
101.438
101.152
100.919
100.729
100.576
100.453
100.354
100.275
100.213
100.164
100.126
100.096
100.073
100.055
100.041
100.031
100.023
100.017
100.012
100.009
100.007
100.005
100.003
100.002
100.002
100.001
100.001
100.001
100
100
100
100
100
100
100
100
100
100
100
100
100
100
100
383.436
351.071
320.734
293.173
268.649
247.091
228.256
211.83
197.499
184.976
174.01
164.39
155.939
148.507
141.971
136.226
131.179
126.755
122.883
119.503
116.563
114.011
111.806
109.908
108.279
106.889
105.707
104.706
103.863
103.157
102.567
102.078
101.674
101.342
101.07
100.85
100.671
100.527
100.412
100.321
100.248
100.191
100.147
100.112
100.085
100.064
100.048
100.036
100.027
100.02
100.014
100.011
100.008
100.006
100.004
100.003
100.002
100.001
100.001
100.001
100.001
100
100
100
100
100
100
100
100
100
100
100
100
100
100
385.17
356.005
328.204
302.369
278.807
257.593
238.646
221.801
206.861
193.622
181.895
171.509
162.312
154.172
146.974
140.618
135.016
130.087
125.763
121.981
118.683
115.818
113.338
111.2
109.364
107.795
106.46
105.33
104.377
103.577
102.91
102.356
101.899
101.522
101.215
100.964
100.762
100.599
100.468
100.364
100.282
100.217
100.167
100.127
100.096
100.073
100.055
100.041
100.03
100.022
100.016
100.012
100.009
100.006
100.005
100.003
100.002
100.002
100.001
100.001
100.001
100
100
100
100
100
100
100
100
100
100
100
100
100
100
386.434
359.644
333.822
309.447
286.815
266.061
247.2
230.163
214.839
201.095
188.793
177.801
167.995
159.262
151.499
144.614
138.522
133.146
128.418
124.272
120.65
117.497
114.765
112.406
110.379
108.644
107.167
105.916
104.86
103.974
103.234
102.619
102.111
101.693
101.351
101.073
100.848
100.666
100.521
100.406
100.314
100.242
100.185
100.141
100.107
100.081
100.061
100.045
100.034
100.025
100.018
100.013
100.01
100.007
100.005
100.004
100.003
100.002
100.001
100.001
100.001
100
100
100
100
100
100
100
100
100
100
100
100
100
100
387.38
362.391
338.122
314.957
293.163
272.898
254.227
237.143
221.595
207.503
194.774
183.311
173.014
163.792
155.553
148.214
141.697
135.929
130.841
126.37
122.456
119.044
116.082
113.522
111.32
109.433
107.826
106.462
105.311
104.344
103.536
102.865
102.309
101.853
101.479
101.175
100.928
100.73
100.571
100.445
100.344
100.265
100.203
100.155
100.118
100.089
100.067
100.05
100.037
100.027
100.02
100.015
100.011
100.008
100.006
100.004
100.003
100.002
100.001
100.001
100.001
100
100
100
100
100
100
100
100
100
100
100
100
100
100
388.103
364.501
341.459
319.287
298.223
278.429
259.993
242.949
227.285
212.963
199.923
188.098
177.411
167.788
159.152
151.428
144.546
138.437
133.034
128.276
124.103
120.458
117.29
114.548
112.186
110.161
108.433
106.967
105.728
104.687
103.817
103.093
102.494
102.002
101.598
101.27
101.004
100.789
100.618
100.481
100.372
100.287
100.22
100.168
100.127
100.096
100.072
100.054
100.04
100.03
100.022
100.016
100.012
100.008
100.006
100.004
100.003
100.002
100.002
100.001
100.001
100.001
100
100
100
100
100
100
100
100
100
100
100
100
100
388.664
366.146
344.077
322.717
302.277
282.912
264.723
247.767
232.059
217.59
204.328
192.228
181.234
171.286
162.322
154.275
147.083
140.679
135.003
129.993
125.591
121.74
118.387
115.481
112.976
110.826
108.99
107.43
106.112
105.003
104.076
103.304
102.665
102.139
101.709
101.358
101.073
100.844
100.661
100.515
100.399
100.307
100.236
100.18
100.136
100.103
100.077
100.058
100.043
100.032
100.023
100.017
100.012
100.009
100.006
100.005
100.003
100.002
100.002
100.001
100.001
100.001
100
100
100
100
100
100
100
100
100
100
100
100
100
389.104
367.44
346.148
325.452
305.538
286.553
268.603
251.757
236.051
221.495
208.077
195.77
184.536
174.328
165.094
156.778
149.323
142.669
136.757
131.528
126.925
122.892
119.376
116.326
113.692
111.43
109.496
107.852
106.462
105.292
104.312
103.497
102.822
102.266
101.81
101.439
101.138
100.895
100.701
100.546
100.423
100.326
100.25
100.191
100.145
100.109
100.082
100.061
100.046
100.034
100.025
100.018
100.013
100.01
100.007
100.005
100.004
100.002
100.002
100.001
100.001
100.001
100
100
100
100
100
100
100
100
100
100
100
100
100
389.453
368.466
347.798
327.643
308.169
289.514
271.785
255.058
239.38
224.777
211.251
198.79
187.37
176.954
167.501
158.963
151.288
144.421
138.307
132.889
128.112
123.921
120.262
117.083
114.336
111.974
109.953
108.234
106.779
105.553
104.527
103.672
102.964
102.381
101.902
101.512
101.196
100.942
100.737
100.574
100.445
100.343
100.263
100.201
100.152
100.115
100.086
100.065
100.048
100.036
100.026
100.019
100.014
100.01
100.007
100.005
100.004
100.003
100.002
100.001
100.001
100.001
100
100
100
100
100
100
100
100
100
100
100
100
100
389.73
369.285
349.119
329.405
310.297
291.925
274.393
257.783
242.149
227.526
213.928
201.354
189.789
179.209
169.579
160.858
152.999
145.953
139.668
134.089
129.162
124.833
121.048
117.757
114.91
112.46
110.363
108.577
107.064
105.789
104.721
103.831
103.093
102.485
101.986
101.579
101.25
100.984
100.77
100.6
100.465
100.359
100.275
100.21
100.159
100.12
100.09
100.068
100.05
100.037
100.027
100.02
100.015
100.011
100.008
100.005
100.004
100.003
100.002
100.001
100.001
100.001
100
100
100
100
100
100
100
100
100
100
100
100
100
389.952
369.94
350.18
330.826
312.021
293.889
276.531
260.03
244.446
229.82
216.175
203.519
191.844
181.134
171.361
162.49
154.48
147.284
140.854
135.138
130.082
125.635
121.743
118.354
115.42
112.892
110.727
108.882
107.318
106
104.895
103.973
103.209
102.578
102.061
101.64
101.298
101.022
100.8
100.624
100.483
100.373
100.286
100.218
100.166
100.125
100.094
100.07
100.052
100.039
100.028
100.021
100.015
100.011
100.008
100.006
100.004
100.003
100.002
100.001
100.001
100.001
100
100
100
100
100
100
100
100
100
100
100
100
100
390.13
370.467
351.034
331.974
313.42
295.489
278.282
261.88
246.348
231.73
218.056
205.339
193.581
182.769
172.882
163.889
155.754
148.434
141.882
136.05
130.885
126.336
122.351
118.878
115.868
113.274
111.049
109.153
107.544
106.187
105.049
104.1
103.312
102.662
102.129
101.694
101.341
101.056
100.827
100.645
100.5
100.386
100.296
100.226
100.171
100.13
100.097
100.073
100.054
100.04
100.029
100.022
100.016
100.011
100.008
100.006
100.004
100.003
100.002
100.001
100.001
100.001
100
100
100
100
100
100
100
100
100
100
100
100
100
390.273
370.892
351.723
332.902
314.554
296.792
279.713
263.4
247.917
233.314
219.623
206.864
195.042
184.15
174.171
165.08
156.843
149.42
142.767
136.837
131.58
126.945
122.88
119.335
116.26
113.608
111.332
109.39
107.743
106.352
105.185
104.212
103.403
102.736
102.189
101.742
101.379
101.086
100.851
100.663
100.514
100.397
100.305
100.233
100.177
100.133
100.1
100.075
100.056
100.041
100.03
100.022
100.016
100.012
100.008
100.006
100.004
100.003
100.002
100.002
100.001
100.001
100.001
100
100
100
100
100
100
100
100
100
100
100
100
390.389
371.234
352.279
333.653
315.475
297.853
280.883
264.647
249.21
234.624
220.925
208.136
196.266
185.312
175.26
166.089
157.768
150.261
143.524
137.513
132.178
127.47
123.338
119.732
116.601
113.899
111.579
109.598
107.917
106.497
105.305
104.31
103.484
102.802
102.241
101.784
101.413
101.113
100.872
100.68
100.527
100.407
100.312
100.238
100.181
100.137
100.103
100.077
100.057
100.042
100.031
100.023
100.017
100.012
100.009
100.006
100.004
100.003
100.002
100.002
100.001
100.001
100.001
100
100
100
100
100
100
100
100
100
100
100
100
390.482
371.509
352.728
334.26
316.221
298.715
281.837
265.667
250.272
235.704
222.003
209.193
197.286
186.284
176.175
166.94
158.551
150.974
144.168
138.089
132.69
127.921
123.732
120.073
116.895
114.15
111.792
109.778
108.068
106.623
105.409
104.396
103.554
102.859
102.288
101.821
101.442
101.136
100.891
100.695
100.539
100.416
100.319
100.244
100.185
100.14
100.105
100.079
100.058
100.043
100.032
100.023
100.017
100.012
100.009
100.006
100.005
100.003
100.002
100.002
100.001
100.001
100.001
100
100
100
100
100
100
100
100
100
100
100
100
390.556
371.731
353.09
334.751
316.825
299.415
282.613
266.5
251.141
236.592
222.891
210.067
198.133
187.093
176.939
167.653
159.209
151.576
144.713
138.578
133.125
128.304
124.068
120.365
117.147
114.366
111.976
109.934
108.199
106.732
105.5
104.47
103.615
102.908
102.328
101.854
101.468
101.157
100.907
100.707
100.549
100.424
100.325
100.248
100.189
100.143
100.107
100.08
100.06
100.044
100.032
100.024
100.017
100.013
100.009
100.006
100.005
100.003
100.002
100.002
100.001
100.001
100.001
100
100
100
100
100
100
100
100
100
100
100
100
390.617
371.91
353.382
335.147
317.313
299.982
283.244
267.178
251.852
237.319
223.621
210.787
198.834
187.765
177.575
168.248
159.76
152.08
145.171
138.99
133.492
128.63
124.353
120.614
117.362
114.551
112.134
110.067
108.311
106.826
105.578
104.535
103.668
102.951
102.363
101.882
101.491
101.175
100.921
100.719
100.558
100.43
100.33
100.252
100.192
100.145
100.109
100.081
100.061
100.045
100.033
100.024
100.018
100.013
100.009
100.007
100.005
100.003
100.002
100.002
100.001
100.001
100.001
100
100
100
100
100
100
100
100
100
100
100
100
390.665
372.054
353.617
335.466
317.708
300.441
283.755
267.729
252.43
237.912
224.219
211.379
199.41
188.319
178.101
168.742
160.219
152.502
145.554
139.336
133.801
128.904
124.594
120.824
117.544
114.708
112.267
110.181
108.406
106.906
105.644
104.59
103.713
102.988
102.392
101.906
101.51
101.19
100.933
100.728
100.565
100.436
100.335
100.256
100.194
100.147
100.11
100.083
100.061
100.046
100.033
100.025
100.018
100.013
100.009
100.007
100.005
100.003
100.002
100.002
100.001
100.001
100.001
100
100
100
100
100
100
100
100
100
100
100
100
390.704
372.169
353.805
335.723
318.025
300.811
284.168
268.176
252.9
238.396
224.706
211.863
199.883
188.775
178.535
169.15
160.598
152.851
145.873
139.624
134.059
129.133
124.797
121.001
117.698
114.84
112.381
110.277
108.487
106.974
105.701
104.636
103.751
103.02
102.418
101.926
101.527
101.203
100.944
100.736
100.571
100.441
100.339
100.259
100.197
100.149
100.112
100.084
100.062
100.046
100.034
100.025
100.018
100.013
100.009
100.007
100.005
100.003
100.002
100.002
100.001
100.001
100.001
100
100
100
100
100
100
100
100
100
100
100
100
390.735
372.262
353.957
335.929
318.28
301.109
284.501
268.536
253.279
238.787
225.103
212.257
200.269
189.148
178.891
169.485
160.911
153.14
146.137
139.863
134.274
129.324
124.965
121.149
117.826
114.951
112.476
110.358
108.556
107.031
105.749
104.676
103.784
103.046
102.44
101.944
101.541
101.215
100.953
100.743
100.577
100.445
100.342
100.261
100.199
100.15
100.113
100.084
100.063
100.047
100.034
100.025
100.018
100.013
100.01
100.007
100.005
100.003
100.002
100.002
100.001
100.001
100.001
100
100
100
100
100
100
100
100
100
100
100
100
390.76
372.336
354.078
336.093
318.485
301.348
284.769
268.826
253.586
239.104
225.423
212.576
200.583
189.452
179.181
169.76
161.168
153.377
146.354
140.06
134.451
129.482
125.105
121.272
117.933
115.043
112.555
110.425
108.613
107.079
105.789
104.709
103.811
103.069
102.458
101.959
101.552
101.224
100.96
100.749
100.582
100.449
100.345
100.264
100.2
100.151
100.114
100.085
100.063
100.047
100.035
100.025
100.018
100.013
100.01
100.007
100.005
100.003
100.002
100.002
100.001
100.001
100.001
100
100
100
100
100
100
100
100
100
100
100
100
390.78
372.395
354.174
336.225
318.648
301.539
284.983
269.059
253.832
239.359
225.682
212.835
200.837
189.698
179.417
169.983
161.377
153.571
146.532
140.222
134.597
129.613
125.221
121.373
118.022
115.12
112.621
110.481
108.66
107.119
105.822
104.737
103.834
103.088
102.473
101.971
101.562
101.232
100.967
100.754
100.586
100.452
100.347
100.265
100.202
100.153
100.115
100.086
100.064
100.047
100.035
100.026
100.019
100.013
100.01
100.007
100.005
100.004
100.002
100.002
100.001
100.001
100.001
100
100
100
100
100
100
100
100
100
100
100
100
390.796
372.442
354.251
336.33
318.778
301.691
285.154
269.245
254.029
239.563
225.89
213.043
201.042
189.897
179.608
170.165
161.547
153.729
146.678
140.354
134.717
129.719
125.315
121.456
118.095
115.183
112.675
110.528
108.7
107.152
105.85
104.76
103.853
103.103
102.486
101.981
101.571
101.239
100.972
100.759
100.589
100.455
100.349
100.267
100.203
100.153
100.115
100.086
100.064
100.048
100.035
100.026
100.019
100.014
100.01
100.007
100.005
100.004
100.003
100.002
100.001
100.001
100.001
100
100
100
100
100
100
100
100
100
100
100
100
390.808
372.479
354.312
336.413
318.882
301.812
285.29
269.393
254.186
239.726
226.056
213.209
201.206
190.057
179.762
170.311
161.684
153.857
146.795
140.462
134.814
129.806
125.393
121.525
118.154
115.235
112.72
110.566
108.732
107.18
105.873
104.779
103.869
103.116
102.497
101.99
101.578
101.244
100.976
100.762
100.592
100.457
100.351
100.268
100.204
100.154
100.116
100.087
100.065
100.048
100.035
100.026
100.019
100.014
100.01
100.007
100.005
100.004
100.003
100.002
100.001
100.001
100.001
100
100
100
100
100
100
100
100
100
100
100
100
390.818
372.508
354.36
336.479
318.963
301.908
285.398
269.511
254.311
239.856
226.189
213.342
201.337
190.185
179.885
170.428
161.795
153.96
146.89
140.548
134.892
129.877
125.455
121.58
118.203
115.277
112.756
110.597
108.759
107.202
105.892
104.795
103.882
103.127
102.505
101.997
101.583
101.249
100.98
100.765
100.594
100.459
100.352
100.269
100.205
100.155
100.116
100.087
100.065
100.048
100.035
100.026
100.019
100.014
100.01
100.007
100.005
100.004
100.003
100.002
100.001
100.001
100.001
100
100
100
100
100
100
100
100
100
100
100
100
390.826
372.531
354.398
336.531
319.028
301.984
285.484
269.604
254.41
239.959
226.294
213.448
201.442
190.287
179.984
170.522
161.883
154.042
146.966
140.618
134.955
129.934
125.506
121.625
118.242
115.311
112.786
110.623
108.78
107.221
105.907
104.808
103.893
103.136
102.513
102.003
101.588
101.253
100.983
100.767
100.596
100.46
100.354
100.27
100.205
100.155
100.117
100.087
100.065
100.048
100.035
100.026
100.019
100.014
100.01
100.007
100.005
100.004
100.003
100.002
100.001
100.001
100.001
100
100
100
100
100
100
100
100
100
100
100
100
390.832
372.55
354.428
336.571
319.079
302.043
285.551
269.677
254.488
240.04
226.377
213.531
201.525
190.368
180.062
170.596
161.954
154.108
147.027
140.674
135.006
129.979
125.547
121.661
118.274
115.339
112.81
110.643
108.798
107.235
105.92
104.818
103.901
103.143
102.518
102.008
101.592
101.256
100.985
100.769
100.597
100.461
100.354
100.271
100.206
100.156
100.117
100.088
100.065
100.048
100.036
100.026
100.019
100.014
100.01
100.007
100.005
100.004
100.003
100.002
100.001
100.001
100.001
100
100
100
100
100
100
100
100
100
100
100
100
390.837
372.564
354.451
336.603
319.118
302.09
285.603
269.734
254.549
240.104
226.442
213.597
201.59
190.432
180.124
170.656
162.01
154.16
147.076
140.718
135.046
130.016
125.579
121.69
118.299
115.361
112.829
110.66
108.812
107.247
105.93
104.827
103.908
103.148
102.523
102.011
101.595
101.258
100.987
100.771
100.599
100.462
100.355
100.272
100.206
100.156
100.117
100.088
100.065
100.048
100.036
100.026
100.019
100.014
100.01
100.007
100.005
100.004
100.003
100.002
100.001
100.001
100.001
100
100
100
100
100
100
100
100
100
100
100
100
390.84
372.575
354.469
336.628
319.149
302.126
285.644
269.779
254.597
240.154
226.493
213.648
201.641
190.483
180.172
170.702
162.054
154.201
147.114
140.753
135.078
130.045
125.605
121.713
118.319
115.378
112.844
110.673
108.823
107.257
105.938
104.833
103.914
103.153
102.527
102.014
101.598
101.26
100.989
100.772
100.6
100.463
100.356
100.272
100.207
100.156
100.118
100.088
100.066
100.049
100.036
100.026
100.019
100.014
100.01
100.007
100.005
100.004
100.003
100.002
100.001
100.001
100.001
100
100
100
100
100
100
100
100
100
100
100
100
390.843
372.583
354.483
336.647
319.173
302.155
285.676
269.814
254.634
240.193
226.533
213.689
201.681
190.522
180.211
170.739
162.088
154.234
147.144
140.781
135.104
130.067
125.626
121.731
118.335
115.392
112.856
110.683
108.832
107.264
105.944
104.839
103.918
103.157
102.53
102.017
101.6
101.262
100.99
100.773
100.6
100.464
100.356
100.272
100.207
100.157
100.118
100.088
100.066
100.049
100.036
100.026
100.019
100.014
100.01
100.007
100.005
100.004
100.003
100.002
100.001
100.001
100.001
100
100
100
100
100
100
100
100
100
100
100
100
390.845
372.59
354.494
336.662
319.192
302.176
285.701
269.841
254.663
240.223
226.564
213.72
201.713
190.552
180.24
170.767
162.115
154.259
147.167
140.803
135.123
130.085
125.642
121.745
118.348
115.403
112.866
110.691
108.839
107.27
105.949
104.843
103.922
103.16
102.532
102.019
101.601
101.263
100.991
100.774
100.601
100.464
100.357
100.273
100.207
100.157
100.118
100.088
100.066
100.049
100.036
100.026
100.019
100.014
100.01
100.007
100.005
100.004
100.003
100.002
100.001
100.001
100.001
100
100
100
100
100
100
100
100
100
100
100
100
390.847
372.595
354.503
336.673
319.206
302.193
285.72
269.862
254.686
240.246
226.588
213.744
201.737
190.576
180.263
170.789
162.136
154.279
147.186
140.82
135.139
130.099
125.654
121.756
118.358
115.412
112.873
110.698
108.845
107.275
105.953
104.846
103.925
103.162
102.534
102.02
101.602
101.264
100.992
100.775
100.602
100.465
100.357
100.273
100.208
100.157
100.118
100.088
100.066
100.049
100.036
100.026
100.019
100.014
100.01
100.007
100.005
100.004
100.003
100.002
100.001
100.001
100.001
100
100
100
100
100
100
100
100
100
100
100
100
390.848
372.599
354.509
336.682
319.217
302.206
285.735
269.878
254.703
240.264
226.607
213.763
201.755
190.594
180.281
170.806
162.152
154.294
147.2
140.833
135.151
130.11
125.664
121.765
118.366
115.419
112.879
110.703
108.849
107.279
105.956
104.849
103.927
103.164
102.536
102.022
101.603
101.265
100.993
100.775
100.602
100.465
100.357
100.273
100.208
100.157
100.118
100.088
100.066
100.049
100.036
100.026
100.019
100.014
100.01
100.007
100.005
100.004
100.003
100.002
100.001
100.001
100.001
100
100
100
100
100
100
100
100
100
100
100
100
390.849
372.602
354.514
336.689
319.225
302.216
285.746
269.89
254.716
240.278
226.621
213.777
201.77
190.609
180.295
170.819
162.165
154.306
147.211
140.843
135.16
130.118
125.671
121.772
118.371
115.424
112.884
110.707
108.853
107.282
105.959
104.851
103.929
103.165
102.537
102.023
101.604
101.266
100.993
100.775
100.602
100.465
100.358
100.273
100.208
100.157
100.118
100.088
100.066
100.049
100.036
100.026
100.019
100.014
100.01
100.007
100.005
100.004
100.003
100.002
100.001
100.001
100.001
100
100
100
100
100
100
100
100
100
100
100
100
390.85
372.604
354.518
336.694
319.232
302.224
285.754
269.9
254.726
240.288
226.631
213.788
201.78
190.619
180.305
170.829
162.174
154.315
147.219
140.851
135.167
130.125
125.677
121.777
118.376
115.428
112.887
110.71
108.855
107.284
105.961
104.853
103.93
103.166
102.538
102.023
101.605
101.266
100.994
100.776
100.602
100.465
100.358
100.273
100.208
100.157
100.118
100.089
100.066
100.049
100.036
100.026
100.019
100.014
100.01
100.007
100.005
100.004
100.003
100.002
100.001
100.001
100.001
100
100
100
100
100
100
100
100
100
100
100
100
390.851
372.606
354.521
336.698
319.237
302.229
285.761
269.907
254.733
240.296
226.64
213.797
201.789
190.627
180.313
170.837
162.182
154.322
147.226
140.856
135.173
130.13
125.682
121.781
118.38
115.431
112.89
110.712
108.857
107.286
105.962
104.854
103.931
103.167
102.538
102.024
101.605
101.266
100.994
100.776
100.603
100.466
100.358
100.273
100.208
100.157
100.118
100.089
100.066
100.049
100.036
100.026
100.019
100.014
100.01
100.007
100.005
100.004
100.003
100.002
100.001
100.001
100.001
100
100
100
100
100
100
100
100
100
100
100
100
390.851
372.607
354.523
336.701
319.24
302.234
285.766
269.912
254.739
240.302
226.646
213.803
201.795
190.634
180.319
170.843
162.187
154.327
147.231
140.861
135.177
130.134
125.685
121.784
118.382
115.434
112.892
110.714
108.859
107.287
105.963
104.855
103.932
103.168
102.539
102.024
101.606
101.267
100.994
100.776
100.603
100.466
100.358
100.274
100.208
100.157
100.118
100.089
100.066
100.049
100.036
100.026
100.019
100.014
100.01
100.007
100.005
100.004
100.003
100.002
100.001
100.001
100.001
100
100
100
100
100
100
100
100
100
100
100
100
390.852
372.608
354.524
336.703
319.243
302.237
285.769
269.916
254.743
240.307
226.65
213.808
201.8
190.638
180.324
170.847
162.191
154.331
147.234
140.864
135.18
130.136
125.688
121.786
118.384
115.435
112.894
110.716
108.86
107.288
105.964
104.855
103.932
103.168
102.539
102.025
101.606
101.267
100.994
100.776
100.603
100.466
100.358
100.274
100.208
100.157
100.118
100.089
100.066
100.049
100.036
100.026
100.019
100.014
100.01
100.007
100.005
100.004
100.003
100.002
100.001
100.001
100.001
100
100
100
100
100
100
100
100
100
100
100
100
390.852
372.609
354.525
336.705
319.245
302.239
285.772
269.919
254.747
240.31
226.654
213.811
201.803
190.642
180.327
170.851
162.195
154.334
147.237
140.867
135.182
130.139
125.69
121.788
118.386
115.437
112.895
110.717
108.861
107.289
105.965
104.856
103.933
103.169
102.54
102.025
101.606
101.267
100.995
100.776
100.603
100.466
100.358
100.274
100.208
100.157
100.118
100.089
100.066
100.049
100.036
100.026
100.019
100.014
100.01
100.007
100.005
100.004
100.003
100.002
100.001
100.001
100.001
100
100
100
100
100
100
100
100
100
100
100
100
390.852
372.609
354.526
336.706
319.247
302.241
285.774
269.921
254.749
240.313
226.657
213.814
201.806
190.644
180.33
170.853
162.197
154.336
147.239
140.869
135.184
130.14
125.691
121.789
118.387
115.438
112.896
110.717
108.861
107.289
105.965
104.856
103.933
103.169
102.54
102.025
101.606
101.267
100.995
100.777
100.603
100.466
100.358
100.274
100.208
100.157
100.118
100.089
100.066
100.049
100.036
100.026
100.019
100.014
100.01
100.007
100.005
100.004
100.003
100.002
100.001
100.001
100.001
100
100
100
100
100
100
100
100
100
100
100
100
390.852
372.61
354.527
336.707
319.248
302.242
285.775
269.923
254.751
240.315
226.658
213.816
201.808
190.646
180.332
170.855
162.199
154.338
147.241
140.87
135.185
130.141
125.692
121.79
118.388
115.439
112.896
110.718
108.862
107.29
105.966
104.857
103.933
103.169
102.54
102.025
101.606
101.267
100.995
100.777
100.603
100.466
100.358
100.274
100.208
100.157
100.118
100.089
100.066
100.049
100.036
100.026
100.019
100.014
100.01
100.007
100.005
100.004
100.003
100.002
100.001
100.001
100.001
100
100
100
100
100
100
100
100
100
100
100
100
390.852
372.61
354.528
336.707
319.249
302.243
285.777
269.924
254.752
240.316
226.66
213.817
201.809
190.648
180.333
170.856
162.2
154.339
147.242
140.871
135.186
130.142
125.693
121.791
118.389
115.439
112.897
110.718
108.862
107.29
105.966
104.857
103.934
103.169
102.54
102.025
101.606
101.267
100.995
100.777
100.603
100.466
100.358
100.274
100.208
100.157
100.118
100.089
100.066
100.049
100.036
100.026
100.019
100.014
100.01
100.007
100.005
100.004
100.003
100.002
100.001
100.001
100.001
100
100
100
100
100
100
100
100
100
100
100
100
390.852
372.61
354.528
336.708
319.249
302.244
285.777
269.925
254.753
240.317
226.661
213.818
201.81
190.649
180.334
170.857
162.201
154.34
147.243
140.872
135.187
130.143
125.694
121.791
118.389
115.44
112.897
110.719
108.863
107.29
105.966
104.857
103.934
103.169
102.54
102.025
101.607
101.268
100.995
100.777
100.603
100.466
100.358
100.274
100.208
100.157
100.118
100.089
100.066
100.049
100.036
100.026
100.019
100.014
100.01
100.007
100.005
100.004
100.003
100.002
100.001
100.001
100.001
100
100
100
100
100
100
100
100
100
100
100
100
390.852
372.611
354.528
336.708
319.25
302.245
285.778
269.926
254.754
240.318
226.662
213.819
201.811
190.65
180.335
170.858
162.202
154.341
147.243
140.873
135.188
130.144
125.694
121.792
118.389
115.44
112.898
110.719
108.863
107.29
105.966
104.857
103.934
103.17
102.54
102.026
101.607
101.268
100.995
100.777
100.603
100.466
100.358
100.274
100.208
100.157
100.118
100.089
100.066
100.049
100.036
100.026
100.019
100.014
100.01
100.007
100.005
100.004
100.003
100.002
100.001
100.001
100.001
100
100
100
100
100
100
100
100
100
100
100
100
390.852
372.611
354.528
336.709
319.25
302.245
285.778
269.926
254.754
240.318
226.662
213.819
201.812
190.65
180.335
170.858
162.202
154.341
147.244
140.873
135.188
130.144
125.694
121.792
118.39
115.44
112.898
110.719
108.863
107.291
105.966
104.857
103.934
103.17
102.54
102.026
101.607
101.268
100.995
100.777
100.603
100.466
100.358
100.274
100.208
100.157
100.118
100.089
100.066
100.049
100.036
100.026
100.019
100.014
100.01
100.007
100.005
100.004
100.003
100.002
100.001
100.001
100.001
100
100
100
100
100
100
100
100
100
100
100
100
390.852
372.611
354.528
336.709
319.25
302.245
285.779
269.927
254.755
240.319
226.663
213.82
201.812
190.651
180.336
170.859
162.202
154.341
147.244
140.874
135.188
130.144
125.695
121.792
118.39
115.44
112.898
110.719
108.863
107.291
105.966
104.857
103.934
103.17
102.541
102.026
101.607
101.268
100.995
100.777
100.603
100.466
100.358
100.274
100.208
100.157
100.118
100.089
100.066
100.049
100.036
100.026
100.019
100.014
100.01
100.007
100.005
100.004
100.003
100.002
100.001
100.001
100.001
100
100
100
100
100
100
100
100
100
100
100
100
390.852
372.611
354.529
336.709
319.25
302.245
285.779
269.927
254.755
240.319
226.663
213.82
201.812
190.651
180.336
170.859
162.203
154.342
147.244
140.874
135.188
130.144
125.695
121.793
118.39
115.44
112.898
110.719
108.863
107.291
105.966
104.857
103.934
103.17
102.541
102.026
101.607
101.268
100.995
100.777
100.603
100.466
100.358
100.274
100.208
100.157
100.118
100.089
100.066
100.049
100.036
100.026
100.019
100.014
100.01
100.007
100.005
100.004
100.003
100.002
100.001
100.001
100.001
100
100
100
100
100
100
100
100
100
100
100
100
390.852
372.611
354.529
336.709
319.25
302.246
285.779
269.927
254.755
240.319
226.663
213.82
201.813
190.651
180.336
170.859
162.203
154.342
147.245
140.874
135.189
130.144
125.695
121.793
118.39
115.44
112.898
110.719
108.863
107.291
105.966
104.857
103.934
103.17
102.541
102.026
101.607
101.268
100.995
100.777
100.603
100.466
100.358
100.274
100.208
100.157
100.118
100.089
100.066
100.049
100.036
100.026
100.019
100.014
100.01
100.007
100.005
100.004
100.003
100.002
100.001
100.001
100.001
100
100
100
100
100
100
100
100
100
100
100
100
390.852
372.611
354.529
336.709
319.251
302.246
285.779
269.927
254.755
240.319
226.663
213.821
201.813
190.651
180.336
170.859
162.203
154.342
147.245
140.874
135.189
130.145
125.695
121.793
118.39
115.44
112.898
110.719
108.863
107.291
105.967
104.857
103.934
103.17
102.541
102.026
101.607
101.268
100.995
100.777
100.603
100.466
100.358
100.274
100.208
100.157
100.118
100.089
100.066
100.049
100.036
100.026
100.019
100.014
100.01
100.007
100.005
100.004
100.003
100.002
100.001
100.001
100.001
100
100
100
100
100
100
100
100
100
100
100
100
390.852
372.611
354.529
336.709
319.251