/*--------------------------------*- C++ -*----------------------------------*\
  =========                 |
  \\      /  F ield         | OpenFOAM: The Open Source CFD Toolbox
   \\    /   O peration     | Website:  https://openfoam.org
    \\  /    A nd           | Version:  10
     \\/     M anipulation  |
\*---------------------------------------------------------------------------*/
FoamFile
{
    format      ascii;
    class       volScalarField;
    location    "396";
    object      gradTz;
}
// * * * * * * * * * * * * * * * * * * * * * * * * * * * * * * * * * * * * * //

dimensions      [0 -1 0 1 0 0 0];

internalField   nonuniform List<scalar> 
11250
(
-14344
-4139.64
-1519.61
-716.416
-412.173
-271.094
-194.309
-147.417
-116.329
-94.4252
-78.2458
-65.8341
-56.0143
-48.0462
-41.4457
-35.8863
-31.1414
-27.0502
-23.4956
-20.3903
-17.6681
-15.2769
-13.1751
-11.3286
-9.7086
-8.29035
-7.05215
-5.97468
-5.04054
-4.23393
-3.54047
-2.947
-2.44152
-2.0131
-1.65184
-1.34877
-1.09586
-0.885925
-0.712605
-0.570289
-0.454069
-0.359683
-0.283451
-0.222223
-0.173319
-0.134475
-0.103794
-0.0796959
-0.0608731
-0.0462529
-0.0349604
-0.0262865
-0.0196613
-0.0146288
-0.0108274
-0.00797186
-0.00583868
-0.00425392
-0.00308308
-0.00222282
-0.00159422
-0.00113741
-0.000807267
-0.000569976
-0.000400359
-0.000279789
-0.000194568
-0.00013469
-9.28937e-05
-6.39512e-05
-4.41318e-05
-3.08078e-05
-2.21669e-05
-1.70075e-05
-1.45998e-05
-8236.25
-4834.34
-2741.78
-1650.1
-1073.17
-748.817
-552.881
-426.315
-339.694
-277.465
-230.907
-194.87
-166.174
-142.774
-123.319
-106.884
-92.8262
-80.6828
-70.1168
-60.8761
-52.7674
-45.6394
-39.3703
-33.8597
-29.023
-24.7872
-21.088
-17.8682
-15.0761
-12.6647
-10.5912
-8.81652
-7.30475
-6.02333
-4.94266
-4.036
-3.27934
-2.65122
-2.13262
-1.70676
-1.35898
-1.07652
-0.848384
-0.665141
-0.518776
-0.402517
-0.310688
-0.238558
-0.182217
-0.138455
-0.104653
-0.0786894
-0.0588571
-0.0437927
-0.0324132
-0.023865
-0.0174792
-0.012735
-0.00922996
-0.0066546
-0.00477274
-0.00340519
-0.00241682
-0.00170642
-0.00119862
-0.000837657
-0.000582518
-0.000403251
-0.000278118
-0.000191467
-0.000132129
-9.22381e-05
-6.63676e-05
-5.09209e-05
-4.37124e-05
-5529.71
-4219.02
-2962.42
-2068.42
-1481.01
-1097.61
-841.628
-664.871
-538.341
-444.574
-372.858
-316.447
-270.982
-233.568
-202.239
-175.627
-152.763
-132.944
-115.651
-100.493
-87.1682
-75.4371
-65.1069
-56.0176
-48.033
-41.0355
-34.9208
-29.5959
-24.9763
-20.9852
-17.5524
-14.6133
-12.1091
-9.98603
-8.19524
-6.69257
-5.43832
-4.39701
-3.53716
-2.83102
-2.25428
-1.78583
-1.40745
-1.1035
-0.860709
-0.667849
-0.515506
-0.395838
-0.302362
-0.229753
-0.173666
-0.130584
-0.0976749
-0.0726767
-0.0537929
-0.0396071
-0.0290095
-0.0211362
-0.0153191
-0.0110449
-0.00792166
-0.00565191
-0.00401148
-0.00283239
-0.00198955
-0.00139041
-0.00096692
-0.000669362
-0.000461657
-0.000317826
-0.00021933
-0.000153114
-0.00011017
-8.45295e-05
-7.2564e-05
-4132.74
-3548.52
-2819.39
-2179.15
-1683.91
-1318.13
-1050.39
-852.547
-703.68
-589.205
-499.19
-426.881
-367.652
-318.294
-276.554
-240.822
-209.93
-183.02
-159.446
-138.716
-120.443
-104.322
-90.1011
-77.5698
-66.5482
-56.8791
-48.4227
-41.053
-34.6556
-29.1256
-24.3669
-20.291
-16.817
-13.8708
-11.3851
-9.29884
-7.55709
-6.11077
-4.9163
-3.9352
-3.13379
-2.48277
-1.95686
-1.53437
-1.19685
-0.928726
-0.716912
-0.550518
-0.420534
-0.319561
-0.24156
-0.181642
-0.135871
-0.1011
-0.0748334
-0.0551007
-0.0403586
-0.0294059
-0.0213134
-0.0153671
-0.0110218
-0.00786398
-0.00558162
-0.00394109
-0.00276838
-0.00193474
-0.00134548
-0.000931439
-0.000642421
-0.000442279
-0.000305219
-0.000213075
-0.000153317
-0.000117636
-0.000100985
-3318.43
-3021.38
-2586.01
-2143.46
-1756.03
-1439.43
-1188.18
-990.339
-833.869
-708.779
-607.381
-523.959
-454.326
-395.426
-345.019
-301.454
-263.502
-230.236
-200.949
-175.089
-152.219
-131.987
-114.099
-98.3072
-84.396
-72.1759
-61.4765
-52.1433
-44.0349
-37.021
-30.9818
-25.8065
-21.3934
-17.6494
-14.4894
-11.8364
-9.6209
-7.78075
-6.26069
-5.01192
-3.99168
-3.16277
-2.49306
-1.95497
-1.52506
-1.1835
-0.91364
-0.701632
-0.536001
-0.407326
-0.30792
-0.231553
-0.173212
-0.128892
-0.0954082
-0.0702528
-0.0514587
-0.0374949
-0.0271772
-0.0195955
-0.014055
-0.0100284
-0.00711807
-0.00502608
-0.0035306
-0.00246749
-0.00171601
-0.00118797
-0.000819369
-0.000564111
-0.000389304
-0.000271781
-0.000195562
-0.000150052
-0.000128814
-2799.18
-2630.61
-2357.9
-2050.88
-1755.65
-1493.85
-1271.23
-1085.59
-931.71
-803.9
-697.039
-606.894
-530.113
-464.094
-406.843
-356.829
-312.879
-274.082
-239.727
-209.248
-182.19
-158.176
-136.887
-118.051
-101.427
-86.8016
-73.9792
-62.7814
-53.0437
-44.6136
-37.3496
-31.1209
-25.8067
-21.296
-17.4873
-14.2885
-11.6163
-9.39616
-7.56175
-6.05437
-4.8226
-3.82162
-3.01274
-2.36275
-1.84335
-1.43063
-1.10452
-0.848283
-0.648082
-0.492534
-0.372357
-0.280026
-0.209485
-0.155891
-0.1154
-0.0849773
-0.0622469
-0.0453575
-0.0328775
-0.0237065
-0.0170043
-0.0121331
-0.00861225
-0.00608131
-0.00427198
-0.00298571
-0.00207646
-0.00143754
-0.000991529
-0.000682654
-0.000471124
-0.000328909
-0.000236675
-0.000181601
-0.000155901
-2446.09
-2341.61
-2161.8
-1944.33
-1719.82
-1507.25
-1315.67
-1147.67
-1002.31
-877.15
-769.308
-676.04
-594.946
-524.03
-461.671
-406.571
-357.697
-314.22
-275.479
-240.93
-210.126
-182.689
-158.294
-136.656
-117.519
-100.653
-85.8443
-72.8951
-61.622
-51.8533
-43.4291
-36.2003
-30.029
-24.7879
-20.3603
-16.6401
-13.5312
-10.9474
-8.81183
-7.05649
-5.62173
-4.45554
-3.51297
-2.75539
-2.14993
-1.66874
-1.28848
-0.989665
-0.756161
-0.57472
-0.434523
-0.3268
-0.244492
-0.181954
-0.134701
-0.0991956
-0.0726657
-0.052952
-0.0383842
-0.0276784
-0.0198541
-0.0141671
-0.0100564
-0.0071013
-0.00498867
-0.00348672
-0.00242497
-0.00167887
-0.00115801
-0.000797299
-0.00055026
-0.000384168
-0.000276445
-0.000212123
-0.000182106
-2194.67
-2125.17
-2000.69
-1842.27
-1669.69
-1497.51
-1334.63
-1185.45
-1051.35
-932
-826.217
-732.511
-649.381
-575.451
-509.524
-450.592
-397.811
-350.485
-308.033
-269.967
-235.872
-205.388
-178.197
-154.015
-132.579
-113.651
-97.0034
-82.4265
-69.7209
-58.6995
-49.1862
-41.0166
-34.0371
-28.1061
-23.093
-18.8788
-15.3556
-12.4263
-10.0044
-8.01304
-6.38493
-5.06126
-3.99115
-3.1309
-2.44324
-1.89664
-1.46462
-1.12507
-0.8597
-0.653475
-0.494109
-0.371644
-0.278063
-0.206952
-0.153217
-0.112838
-0.0826647
-0.0602417
-0.0436707
-0.031492
-0.0225907
-0.0161206
-0.0114435
-0.00808116
-0.00567724
-0.00396813
-0.00275988
-0.0019108
-0.00131804
-0.000907504
-0.000626338
-0.000437296
-0.000314686
-0.000241473
-0.000207306
-2009.54
-1960.57
-1870.45
-1751.49
-1616.46
-1476.01
-1337.72
-1206.27
-1084.08
-972.054
-870.15
-777.839
-694.365
-618.915
-550.708
-489.033
-433.264
-382.855
-337.334
-296.287
-259.349
-226.193
-196.52
-170.056
-146.543
-125.737
-107.407
-91.3325
-77.3036
-65.1207
-54.5947
-45.5475
-37.8127
-31.2354
-25.6729
-20.9943
-17.0811
-13.8261
-11.134
-8.91969
-7.10877
-5.63606
-4.44517
-3.48759
-2.72198
-2.11331
-1.63213
-1.25389
-0.958243
-0.728452
-0.550853
-0.414361
-0.310049
-0.230776
-0.170868
-0.125847
-0.0922004
-0.067195
-0.0487141
-0.0351309
-0.0252024
-0.0179852
-0.0127677
-0.00901669
-0.00633476
-0.00442788
-0.00307977
-0.00213235
-0.00147091
-0.0010128
-0.000699035
-0.000488068
-0.000351235
-0.000269527
-0.000231396
-1869.8
-1833.58
-1765.66
-1673.54
-1565.64
-1449.61
-1331.54
-1215.73
-1104.92
-1000.61
-903.49
-813.695
-731.042
-655.189
-585.72
-522.208
-464.241
-411.433
-363.428
-319.9
-280.544
-245.078
-213.23
-184.746
-159.375
-136.879
-117.024
-99.5852
-84.3453
-71.0953
-59.6357
-49.7773
-41.3422
-34.1645
-28.0904
-22.9788
-18.7012
-15.1417
-12.1964
-9.77306
-7.79053
-6.17779
-4.8733
-3.82414
-2.98511
-2.31793
-1.7904
-1.37565
-1.05142
-0.799372
-0.604544
-0.454792
-0.340333
-0.253338
-0.187588
-0.138171
-0.101237
-0.073786
-0.0534958
-0.0385816
-0.0276794
-0.0197539
-0.0140241
-0.00990444
-0.00695877
-0.00486427
-0.00338344
-0.0023427
-0.00161608
-0.00111279
-0.000768081
-0.000536298
-0.000385957
-0.000296182
-0.000254286
-1762.34
-1734.4
-1681.31
-1607.83
-1519.63
-1422.24
-1320.43
-1217.9
-1117.32
-1020.47
-928.405
-841.708
-760.612
-685.135
-615.172
-550.543
-491.033
-436.41
-386.439
-340.881
-299.5
-262.062
-228.333
-198.078
-171.066
-147.063
-125.84
-107.17
-90.8326
-76.611
-64.2981
-53.6959
-44.6171
-36.886
-30.3394
-24.827
-20.2117
-16.3693
-13.1887
-10.5707
-8.42826
-6.68488
-5.27432
-4.13955
-3.23185
-2.5099
-1.93896
-1.48999
-1.13895
-0.866021
-0.65502
-0.492815
-0.368821
-0.27457
-0.203326
-0.149776
-0.109748
-0.0799946
-0.0580011
-0.0418335
-0.0300142
-0.0214215
-0.0152088
-0.0107417
-0.00754738
-0.00527597
-0.00366997
-0.00254121
-0.00175308
-0.00120719
-0.000833267
-0.000581836
-0.000418747
-0.000321356
-0.000275905
-1678.52
-1656.18
-1613.28
-1552.98
-1479.22
-1396.03
-1307.11
-1215.6
-1123.92
-1033.89
-946.758
-863.363
-784.224
-709.632
-639.723
-574.524
-513.995
-458.045
-406.549
-359.358
-316.305
-277.207
-241.867
-210.079
-181.629
-156.297
-133.858
-114.088
-96.7628
-81.664
-68.5778
-57.2992
-47.6333
-39.3962
-32.4165
-26.536
-21.6099
-17.5069
-14.1091
-11.3113
-9.02077
-7.15634
-5.64742
-4.43319
-3.46168
-2.68882
-2.07749
-1.59667
-1.22065
-0.928254
-0.70217
-0.528345
-0.395452
-0.294422
-0.218047
-0.160633
-0.117713
-0.0858068
-0.0622196
-0.0448792
-0.0322015
-0.0229839
-0.0163191
-0.0115265
-0.00809921
-0.005662
-0.00393868
-0.0027274
-0.00188162
-0.00129575
-0.000894436
-0.000624575
-0.000449526
-0.00034499
-0.000296204
-1612.44
-1593.98
-1558.26
-1507.46
-1444.37
-1372.01
-1293.28
-1210.77
-1126.65
-1042.65
-960.086
-879.946
-802.927
-729.514
-660.026
-594.659
-533.516
-476.631
-423.98
-375.498
-331.082
-290.601
-253.897
-220.794
-191.099
-164.603
-141.093
-120.347
-102.143
-86.2586
-72.4772
-60.5885
-50.3912
-41.6949
-34.3213
-28.1053
-22.8954
-18.5538
-14.9569
-11.994
-9.56754
-7.59176
-5.99223
-4.70475
-3.67438
-2.85449
-2.20583
-1.69555
-1.29641
-0.985993
-0.745933
-0.561336
-0.420188
-0.31287
-0.231731
-0.170728
-0.125121
-0.091214
-0.0661454
-0.0477141
-0.0342379
-0.024439
-0.0173532
-0.0122576
-0.00861342
-0.00602179
-0.00418917
-0.00290099
-0.00200147
-0.00137834
-0.000951493
-0.000664447
-0.000478244
-0.000367045
-0.000315148
-1559.92
-1544.21
-1513.65
-1469.79
-1414.68
-1350.62
-1279.9
-1204.69
-1126.88
-1048.09
-969.624
-892.539
-817.64
-745.543
-676.702
-611.444
-549.991
-492.479
-438.975
-389.488
-343.975
-302.355
-264.509
-230.289
-199.523
-172.02
-147.574
-125.97
-106.988
-90.406
-76.0046
-63.5696
-52.8951
-43.7853
-36.056
-29.5363
-24.0689
-19.5108
-15.7327
-12.6194
-10.0687
-7.99121
-6.30881
-4.95425
-3.86992
-3.0069
-2.32396
-1.78661
-1.36623
-1.03922
-0.786295
-0.591776
-0.443021
-0.329904
-0.24437
-0.180056
-0.131969
-0.0962134
-0.069776
-0.0503367
-0.0361222
-0.0257857
-0.0183105
-0.0129346
-0.00908965
-0.00635506
-0.00442124
-0.00306185
-0.00211255
-0.00145491
-0.00100439
-0.000701421
-0.000504879
-0.000387503
-0.000332722
-1517.91
-1504.21
-1477.42
-1438.7
-1389.6
-1331.92
-1267.5
-1198.16
-1125.57
-1051.21
-976.337
-902.026
-829.144
-758.391
-690.318
-625.351
-563.805
-505.902
-451.785
-401.528
-355.145
-312.596
-273.802
-238.641
-206.963
-178.593
-153.336
-130.984
-111.32
-94.1231
-79.1727
-66.2524
-55.1525
-45.6729
-37.6248
-30.8322
-25.1331
-20.3795
-16.4377
-13.1882
-10.5251
-8.35526
-6.59757
-5.18199
-4.04854
-3.14621
-2.432
-1.86994
-1.43014
-1.08798
-0.823286
-0.619686
-0.463964
-0.345535
-0.255973
-0.188622
-0.138258
-0.100807
-0.0731132
-0.052748
-0.0378552
-0.0270245
-0.0191914
-0.0135576
-0.00952804
-0.00666193
-0.00463497
-0.00321002
-0.00221489
-0.00152546
-0.00105315
-0.000735503
-0.000529436
-0.000406368
-0.000348929
-1484.17
-1471.94
-1447.94
-1413.07
-1368.54
-1315.78
-1256.32
-1191.7
-1123.39
-1052.75
-980.972
-909.12
-838.092
-768.638
-701.378
-636.809
-575.319
-517.201
-462.659
-411.823
-364.756
-321.458
-281.883
-245.936
-213.488
-184.379
-158.424
-135.425
-115.167
-97.4314
-81.9987
-68.6502
-57.1738
-47.3659
-39.034
-31.998
-26.0916
-21.1629
-17.0742
-13.7024
-10.938
-8.68488
-6.85923
-5.38853
-4.21063
-3.27271
-2.53018
-1.94571
-1.48829
-1.13236
-0.856973
-0.645115
-0.483055
-0.359788
-0.266557
-0.19644
-0.144001
-0.105002
-0.0761617
-0.0549514
-0.0394392
-0.0281571
-0.019997
-0.0141276
-0.00992916
-0.00694276
-0.00483061
-0.00334568
-0.0023086
-0.00159008
-0.00109781
-0.000766732
-0.000551941
-0.000423659
-0.000363787
-1456.97
-1445.84
-1423.94
-1391.98
-1350.95
-1302.01
-1246.45
-1185.61
-1120.79
-1053.24
-984.094
-914.384
-845.017
-776.775
-710.32
-646.203
-584.866
-526.658
-471.834
-420.571
-372.973
-329.077
-288.864
-252.266
-219.172
-189.436
-162.887
-139.33
-118.559
-100.356
-84.5023
-70.7788
-58.9714
-48.8742
-40.2914
-33.0397
-26.9493
-21.8647
-17.6451
-14.164
-11.309
-8.9814
-7.09481
-5.57462
-4.3568
-3.38687
-2.61883
-2.01417
-1.54087
-1.17251
-0.887461
-0.66814
-0.500349
-0.372706
-0.276154
-0.20353
-0.149211
-0.10881
-0.0789296
-0.0569525
-0.0408782
-0.0291864
-0.0207293
-0.0146458
-0.010294
-0.00719823
-0.00500861
-0.00346914
-0.00239391
-0.00164892
-0.00113849
-0.000795176
-0.000572444
-0.000439415
-0.000377326
-1435
-1424.69
-1404.39
-1374.65
-1336.31
-1290.34
-1237.86
-1180.04
-1118.06
-1053.06
-986.13
-918.26
-850.355
-783.211
-717.52
-653.869
-592.743
-534.532
-479.533
-427.962
-379.957
-335.587
-294.858
-257.724
-224.091
-193.829
-166.774
-142.742
-121.53
-102.924
-86.7057
-72.6559
-60.5597
-50.2091
-41.406
-33.9644
-27.7117
-22.4894
-18.1538
-14.5757
-11.6403
-9.24642
-7.30556
-5.74124
-4.48778
-3.48923
-2.69838
-2.07564
-1.5881
-1.20859
-0.914881
-0.688859
-0.515917
-0.384341
-0.2848
-0.209921
-0.153909
-0.112245
-0.0814273
-0.058759
-0.0421777
-0.0301161
-0.021391
-0.0151142
-0.0106237
-0.00742922
-0.00516961
-0.00358083
-0.0024711
-0.00170216
-0.0011753
-0.000820928
-0.00059101
-0.000453686
-0.000389591
-1417.23
-1407.55
-1388.46
-1360.43
-1324.16
-1280.52
-1230.47
-1175.07
-1115.39
-1052.49
-987.398
-921.09
-854.451
-788.284
-723.296
-660.1
-599.213
-541.055
-485.959
-434.171
-385.859
-341.116
-299.972
-262.4
-228.322
-197.619
-170.14
-145.705
-124.117
-105.165
-88.6323
-74.3006
-61.9538
-51.3828
-42.3876
-34.78
-28.3851
-23.0418
-18.6042
-14.9407
-11.9343
-9.4818
-7.49291
-5.88948
-4.60439
-3.58044
-2.76931
-2.13048
-1.63026
-1.24083
-0.939389
-0.707387
-0.529847
-0.394755
-0.292544
-0.215647
-0.15812
-0.115325
-0.0836676
-0.0603798
-0.0433439
-0.0309508
-0.0219851
-0.0155349
-0.01092
-0.00763684
-0.00531434
-0.00368126
-0.00254052
-0.00175006
-0.00120843
-0.000844107
-0.000607724
-0.000466535
-0.000400635
-1402.85
-1393.65
-1375.49
-1348.78
-1314.13
-1272.3
-1224.18
-1170.7
-1112.87
-1051.69
-988.131
-923.138
-857.583
-792.269
-727.913
-665.145
-604.504
-546.435
-491.297
-439.361
-390.819
-345.785
-304.31
-266.383
-231.938
-200.87
-173.035
-148.261
-126.354
-107.107
-90.3062
-75.7324
-63.1698
-52.4083
-43.2466
-35.4948
-28.976
-23.5272
-19.0004
-15.2622
-12.1935
-9.68953
-7.65839
-6.02054
-4.70757
-3.6612
-2.83216
-2.17911
-1.66768
-1.26945
-0.96116
-0.723855
-0.542234
-0.404021
-0.299436
-0.220745
-0.161871
-0.11807
-0.0856649
-0.0618252
-0.0443844
-0.0316957
-0.0225156
-0.0159105
-0.0111847
-0.00782232
-0.00544368
-0.00377103
-0.00260259
-0.0017929
-0.00123806
-0.000864844
-0.000622682
-0.000478037
-0.000410522
-1391.21
-1382.39
-1364.94
-1339.25
-1305.86
-1265.46
-1218.85
-1166.92
-1110.58
-1050.8
-988.5
-924.603
-859.967
-795.389
-731.592
-669.215
-608.814
-550.853
-495.71
-443.678
-394.965
-349.708
-307.97
-269.755
-235.012
-203.642
-175.511
-150.452
-128.277
-108.781
-91.7515
-76.9711
-64.2237
-53.2987
-43.9936
-36.1173
-29.4913
-23.9511
-19.3469
-15.5435
-12.4206
-9.87171
-7.80367
-6.13569
-4.7983
-3.73228
-2.88751
-2.22197
-1.70067
-1.29471
-0.980382
-0.738403
-0.553182
-0.412214
-0.305534
-0.225258
-0.165192
-0.120501
-0.0874346
-0.0631065
-0.045307
-0.0323565
-0.0229862
-0.016244
-0.0114197
-0.00798705
-0.00555857
-0.00385079
-0.00265775
-0.00183098
-0.00126441
-0.000883287
-0.000635988
-0.00048827
-0.000419321
-1381.8
-1373.26
-1356.37
-1331.47
-1299.07
-1259.79
-1214.38
-1163.67
-1108.54
-1049.89
-988.627
-925.641
-861.776
-797.826
-734.514
-672.487
-612.311
-554.465
-499.342
-447.25
-398.415
-352.986
-311.041
-272.596
-237.609
-205.992
-177.616
-152.32
-129.92
-110.214
-92.9919
-78.0362
-65.1316
-54.0669
-44.6392
-36.6561
-29.938
-24.319
-19.6479
-15.7882
-12.6184
-10.0305
-7.93041
-6.23624
-4.8776
-3.79444
-2.93595
-2.2595
-1.72959
-1.31685
-0.997248
-0.751175
-0.562799
-0.419414
-0.310895
-0.229228
-0.168115
-0.122641
-0.0889935
-0.0642355
-0.0461202
-0.0329391
-0.0234013
-0.0165382
-0.0116271
-0.00813247
-0.00566003
-0.00392124
-0.00270649
-0.00186463
-0.0012877
-0.000899594
-0.000647755
-0.000497322
-0.000427104
-1374.19
-1365.88
-1349.42
-1325.14
-1293.5
-1255.11
-1210.65
-1160.92
-1106.75
-1049.02
-988.6
-926.364
-863.143
-799.724
-736.829
-675.109
-615.139
-557.407
-502.319
-450.193
-401.27
-355.71
-313.604
-274.975
-239.792
-207.972
-179.395
-153.902
-131.315
-111.434
-94.0499
-78.9465
-65.9089
-54.7258
-45.1937
-37.1196
-30.3227
-24.6362
-19.9078
-15.9998
-12.7895
-10.1681
-8.0403
-6.3235
-4.94647
-3.84847
-2.9781
-2.29218
-1.75477
-1.33616
-1.01196
-0.762321
-0.571196
-0.425705
-0.315581
-0.232699
-0.170672
-0.124515
-0.0903582
-0.0652243
-0.0468328
-0.0334497
-0.0237653
-0.0167962
-0.011809
-0.00826008
-0.00574909
-0.0039831
-0.00274929
-0.00189419
-0.00130817
-0.000913926
-0.0006581
-0.000505282
-0.00043395
-1368.06
-1359.92
-1343.8
-1320
-1288.97
-1251.26
-1207.56
-1158.6
-1105.21
-1048.21
-988.481
-926.86
-864.172
-801.197
-738.656
-677.204
-617.417
-559.794
-504.747
-452.607
-403.623
-357.965
-315.732
-276.957
-241.616
-209.632
-180.89
-155.236
-132.494
-112.467
-94.9471
-79.7199
-66.5704
-55.2874
-45.6671
-37.5158
-30.6521
-24.9082
-20.1308
-16.1816
-12.9367
-10.2865
-8.13501
-6.39877
-5.00593
-3.89516
-3.01453
-2.32045
-1.77658
-1.35289
-1.02471
-0.771989
-0.578484
-0.431167
-0.319652
-0.235716
-0.172896
-0.126144
-0.091546
-0.0660853
-0.0474533
-0.0338946
-0.0240825
-0.0170211
-0.0119677
-0.00837141
-0.0058268
-0.0040371
-0.00278667
-0.00192001
-0.00132605
-0.000926449
-0.000667141
-0.00051224
-0.000439935
-1363.11
-1355.11
-1339.25
-1315.83
-1285.27
-1248.11
-1205
-1156.66
-1103.89
-1047.49
-988.311
-927.192
-864.944
-802.338
-740.096
-678.871
-619.246
-561.722
-506.72
-454.578
-405.552
-359.82
-317.49
-278.6
-243.132
-211.016
-182.139
-156.353
-133.483
-113.336
-95.7035
-80.3731
-67.1301
-55.7634
-46.0689
-37.8526
-30.9324
-25.1399
-20.3211
-16.3369
-13.0625
-10.3879
-8.21614
-6.4633
-5.05695
-3.93525
-3.04585
-2.34477
-1.79535
-1.36729
-1.0357
-0.780325
-0.584771
-0.435882
-0.323168
-0.238323
-0.174818
-0.127553
-0.0925735
-0.0668303
-0.0479906
-0.0342799
-0.0243573
-0.0172161
-0.0121052
-0.00846796
-0.00589422
-0.00408395
-0.0028191
-0.00194242
-0.00134157
-0.000937327
-0.000674997
-0.000518288
-0.000445137
-1359.14
-1351.25
-1335.59
-1312.47
-1282.28
-1245.55
-1202.91
-1155.06
-1102.77
-1046.85
-988.12
-927.409
-865.52
-803.219
-741.226
-680.195
-620.708
-563.274
-508.317
-456.18
-407.126
-361.34
-318.935
-279.954
-244.386
-212.163
-183.178
-157.284
-134.31
-114.063
-96.3375
-80.9216
-67.6009
-56.1644
-46.4079
-38.1371
-31.1696
-25.3362
-20.4825
-16.4687
-13.1695
-10.4741
-8.28522
-6.5183
-5.10047
-3.96948
-3.07261
-2.36556
-1.81141
-1.37962
-1.04511
-0.78747
-0.590163
-0.439928
-0.326186
-0.240562
-0.17647
-0.128765
-0.0934572
-0.0674714
-0.0484531
-0.0346117
-0.024594
-0.0173841
-0.0122238
-0.00855119
-0.00595235
-0.00412437
-0.00284709
-0.00196177
-0.00135497
-0.00094672
-0.000681782
-0.000523512
-0.000449632
-1355.96
-1348.15
-1332.65
-1309.76
-1279.86
-1243.46
-1201.19
-1153.73
-1101.83
-1046.29
-987.926
-927.545
-865.948
-803.898
-742.111
-681.242
-621.875
-564.519
-509.604
-457.477
-408.406
-362.58
-320.117
-281.066
-245.418
-213.11
-184.036
-158.055
-134.996
-114.667
-96.866
-81.3796
-67.9946
-56.5002
-46.6923
-38.3762
-31.369
-25.5015
-20.6186
-16.5799
-13.2598
-10.547
-8.3437
-6.5649
-5.13737
-3.99852
-3.09533
-2.38323
-1.82507
-1.39011
-1.05313
-0.793557
-0.594759
-0.443378
-0.328762
-0.242474
-0.17788
-0.1298
-0.0942127
-0.0680196
-0.0488487
-0.0348956
-0.0247967
-0.017528
-0.0123254
-0.00862252
-0.00600219
-0.00415902
-0.0028711
-0.00197837
-0.00136648
-0.000954784
-0.000687609
-0.000528
-0.000453494
-1353.42
-1345.66
-1330.3
-1307.58
-1277.91
-1241.78
-1199.8
-1152.64
-1101.06
-1045.82
-987.74
-927.624
-866.264
-804.419
-742.802
-682.068
-622.801
-565.514
-510.637
-458.523
-409.441
-363.587
-321.079
-281.973
-246.262
-213.886
-184.742
-158.691
-135.562
-115.168
-97.304
-81.7598
-68.322
-56.78
-46.9295
-38.5758
-31.5358
-25.6399
-20.7326
-16.6733
-13.3357
-10.6083
-8.39291
-6.60415
-5.16847
-4.02302
-3.11451
-2.39815
-1.83661
-1.39899
-1.05992
-0.798713
-0.598654
-0.446304
-0.330946
-0.244096
-0.179078
-0.13068
-0.0948548
-0.0684858
-0.0491853
-0.0351373
-0.0249692
-0.0176505
-0.0124119
-0.0086833
-0.00604467
-0.00418857
-0.00289157
-0.00199253
-0.00137629
-0.000961667
-0.000692583
-0.000531832
-0.000456792
-1351.39
-1343.68
-1328.41
-1305.84
-1276.34
-1240.42
-1198.67
-1151.76
-1100.41
-1045.42
-987.57
-927.667
-866.497
-804.818
-743.34
-682.717
-623.535
-566.305
-511.463
-459.362
-410.275
-364.4
-321.859
-282.711
-246.95
-214.52
-185.32
-159.212
-136.028
-115.58
-97.6651
-82.0738
-68.5927
-57.0116
-47.1261
-38.7415
-31.6745
-25.7551
-20.8277
-16.7511
-13.3991
-10.6596
-8.43408
-6.63701
-5.19454
-4.04357
-3.13061
-2.41069
-1.84632
-1.40646
-1.06563
-0.803054
-0.601936
-0.44877
-0.332789
-0.245465
-0.18009
-0.131423
-0.0953974
-0.0688798
-0.0494699
-0.0353417
-0.0251152
-0.0177542
-0.0124851
-0.00873479
-0.00608067
-0.00421362
-0.00290893
-0.00200453
-0.00138462
-0.000967507
-0.000696805
-0.000535085
-0.000459592
-1349.77
-1342.11
-1326.91
-1304.45
-1275.09
-1239.33
-1197.76
-1151.04
-1099.89
-1045.08
-987.417
-927.684
-866.668
-805.123
-743.758
-683.226
-624.113
-566.933
-512.121
-460.032
-410.944
-365.054
-322.488
-283.307
-247.507
-215.035
-185.791
-159.637
-136.408
-115.917
-97.9611
-82.3315
-68.8154
-57.2023
-47.2883
-38.8783
-31.7891
-25.8504
-20.9064
-16.8157
-13.4517
-10.7022
-8.46832
-6.66436
-5.21626
-4.0607
-3.14404
-2.42116
-1.85442
-1.4127
-1.0704
-0.806688
-0.604684
-0.450837
-0.334334
-0.246614
-0.180938
-0.132046
-0.0958531
-0.0692109
-0.0497091
-0.0355136
-0.025238
-0.0178414
-0.0125468
-0.00877815
-0.00611099
-0.00423472
-0.00292356
-0.00201466
-0.00139164
-0.000972433
-0.000700368
-0.000537831
-0.000461956
-1348.49
-1340.86
-1325.72
-1303.34
-1274.1
-1238.46
-1197.03
-1150.46
-1099.46
-1044.81
-987.284
-927.686
-866.793
-805.355
-744.081
-683.624
-624.568
-567.429
-512.643
-460.566
-411.477
-365.577
-322.993
-283.786
-247.957
-215.451
-186.171
-159.981
-136.717
-116.191
-98.2025
-82.542
-68.9974
-57.3586
-47.4213
-38.9907
-31.8833
-25.9289
-20.9713
-16.869
-13.4952
-10.7373
-8.49663
-6.687
-5.23424
-4.0749
-3.15518
-2.42985
-1.86116
-1.41789
-1.07438
-0.809713
-0.606973
-0.452559
-0.335622
-0.247571
-0.181647
-0.132567
-0.0962337
-0.0694876
-0.0499091
-0.0356573
-0.0253408
-0.0179145
-0.0125985
-0.00881445
-0.00613638
-0.0042524
-0.00293582
-0.00202314
-0.00139753
-0.000976565
-0.000703357
-0.000540135
-0.00046394
-1347.48
-1339.87
-1324.78
-1302.47
-1273.31
-1237.77
-1196.45
-1149.99
-1099.11
-1044.58
-987.17
-927.679
-866.883
-805.531
-744.331
-683.933
-624.925
-567.819
-513.055
-460.989
-411.902
-365.994
-323.397
-284.171
-248.318
-215.786
-186.478
-160.26
-136.967
-116.413
-98.3982
-82.713
-69.1455
-57.4858
-47.5297
-39.0824
-31.9603
-25.9931
-21.0244
-16.9126
-13.5308
-10.7662
-8.51991
-6.70563
-5.24906
-4.08661
-3.16437
-2.43702
-1.86672
-1.42217
-1.07766
-0.812215
-0.608868
-0.453985
-0.33669
-0.248365
-0.182234
-0.132999
-0.0965496
-0.0697174
-0.0500752
-0.0357768
-0.0254262
-0.0179752
-0.0126414
-0.00884467
-0.00615753
-0.00426712
-0.00294604
-0.00203022
-0.00140243
-0.000980011
-0.00070585
-0.000542057
-0.000465596
-1346.69
-1339.1
-1324.04
-1301.78
-1272.68
-1237.22
-1195.99
-1149.62
-1098.83
-1044.39
-987.074
-927.667
-866.948
-805.665
-744.523
-684.173
-625.203
-568.125
-513.379
-461.323
-412.238
-366.326
-323.718
-284.477
-248.606
-216.054
-186.724
-160.483
-137.168
-116.592
-98.5561
-82.8511
-69.2653
-57.5888
-47.6177
-39.1569
-32.0229
-26.0453
-21.0677
-16.9482
-13.5599
-10.7898
-8.53894
-6.72088
-5.26119
-4.0962
-3.17191
-2.4429
-1.87129
-1.4257
-1.08036
-0.814274
-0.610427
-0.455159
-0.337569
-0.24902
-0.182719
-0.133355
-0.0968105
-0.0699071
-0.0502125
-0.0358755
-0.0254968
-0.0180255
-0.012677
-0.00886968
-0.00617503
-0.00427932
-0.0029545
-0.00203608
-0.0014065
-0.000982867
-0.000707917
-0.000543652
-0.000466969
-1346.06
-1338.49
-1323.46
-1301.24
-1272.19
-1236.79
-1195.62
-1149.32
-1098.61
-1044.24
-986.993
-927.653
-866.994
-805.765
-744.67
-684.359
-625.419
-568.364
-513.634
-461.586
-412.503
-366.587
-323.972
-284.72
-248.835
-216.267
-186.92
-160.662
-137.328
-116.735
-98.6828
-82.9621
-69.3617
-57.6718
-47.6886
-39.217
-32.0735
-26.0876
-21.1027
-16.9771
-13.5835
-10.809
-8.55441
-6.73328
-5.27106
-4.10401
-3.17805
-2.4477
-1.87502
-1.42857
-1.08257
-0.815957
-0.611704
-0.456121
-0.338289
-0.249557
-0.183116
-0.133648
-0.0970246
-0.0700629
-0.0503252
-0.0359566
-0.0255549
-0.0180668
-0.0127062
-0.00889026
-0.00618944
-0.00428936
-0.00296147
-0.0020409
-0.00140985
-0.000985222
-0.000709622
-0.000544967
-0.000468102
-1345.58
-1338.01
-1323
-1300.81
-1271.8
-1236.45
-1195.33
-1149.09
-1098.43
-1044.12
-986.927
-927.638
-867.027
-805.841
-744.782
-684.502
-625.587
-568.55
-513.832
-461.792
-412.71
-366.793
-324.172
-284.911
-249.016
-216.436
-187.076
-160.803
-137.456
-116.85
-98.784
-83.0508
-69.4388
-57.7383
-47.7455
-39.2653
-32.1142
-26.1216
-21.1309
-17.0004
-13.6025
-10.8245
-8.56692
-6.74331
-5.27906
-4.11035
-3.18304
-2.4516
-1.87804
-1.43091
-1.08436
-0.817327
-0.612742
-0.456904
-0.338876
-0.249994
-0.18344
-0.133886
-0.0971993
-0.0701901
-0.0504173
-0.0360229
-0.0256023
-0.0181005
-0.0127301
-0.00890709
-0.00620123
-0.00429758
-0.00296717
-0.00204486
-0.0014126
-0.000987152
-0.000711019
-0.000546045
-0.000469031
-1345.2
-1337.64
-1322.65
-1300.48
-1271.5
-1236.18
-1195.1
-1148.9
-1098.29
-1044.02
-986.872
-927.624
-867.051
-805.898
-744.868
-684.612
-625.716
-568.695
-513.986
-461.952
-412.872
-366.954
-324.329
-285.062
-249.158
-216.569
-187.199
-160.916
-137.558
-116.94
-98.8643
-83.1214
-69.5002
-57.7913
-47.7909
-39.3039
-32.1467
-26.1488
-21.1536
-17.019
-13.6178
-10.8369
-8.57697
-6.75138
-5.2855
-4.11545
-3.18705
-2.45474
-1.88049
-1.4328
-1.08581
-0.818434
-0.613583
-0.457538
-0.339352
-0.250348
-0.183702
-0.13408
-0.097341
-0.0702934
-0.0504921
-0.0360768
-0.0256409
-0.018128
-0.0127496
-0.00892079
-0.00621083
-0.00430427
-0.00297182
-0.00204808
-0.00141484
-0.000988724
-0.000712158
-0.000546924
-0.000469789
-1344.9
-1337.35
-1322.37
-1300.22
-1271.27
-1235.98
-1194.93
-1148.76
-1098.18
-1043.95
-986.828
-927.612
-867.067
-805.94
-744.933
-684.696
-625.816
-568.806
-514.106
-462.076
-412.999
-367.079
-324.451
-285.18
-249.27
-216.673
-187.295
-161.004
-137.638
-117.012
-98.9278
-83.1771
-69.5488
-57.8334
-47.8269
-39.3345
-32.1726
-26.1705
-21.1716
-17.0339
-13.63
-10.8469
-8.585
-6.75784
-5.29065
-4.11953
-3.19027
-2.45726
-1.88245
-1.43432
-1.08698
-0.819324
-0.614259
-0.458048
-0.339734
-0.250634
-0.183914
-0.134236
-0.0974554
-0.0703767
-0.0505525
-0.0361203
-0.0256721
-0.0181502
-0.0127653
-0.00893187
-0.00621859
-0.00430968
-0.00297558
-0.00205069
-0.00141665
-0.000989998
-0.000713081
-0.000547637
-0.000470403
-1344.67
-1337.13
-1322.16
-1300.02
-1271.08
-1235.82
-1194.79
-1148.65
-1098.09
-1043.88
-986.793
-927.6
-867.078
-805.971
-744.982
-684.76
-625.892
-568.891
-514.198
-462.172
-413.096
-367.177
-324.547
-285.272
-249.357
-216.755
-187.371
-161.073
-137.7
-117.068
-98.9776
-83.221
-69.5871
-57.8665
-47.8553
-39.3587
-32.193
-26.1876
-21.1859
-17.0457
-13.6397
-10.8548
-8.59139
-6.76297
-5.29475
-4.12279
-3.19284
-2.45927
-1.88401
-1.43553
-1.08791
-0.820036
-0.614799
-0.458457
-0.340041
-0.250862
-0.184084
-0.134361
-0.0975471
-0.0704436
-0.050601
-0.0361552
-0.0256971
-0.018168
-0.0127779
-0.00894077
-0.00622484
-0.00431404
-0.00297861
-0.00205279
-0.00141811
-0.000991025
-0.000713825
-0.000548211
-0.000470898
-1344.5
-1336.96
-1322
-1299.87
-1270.94
-1235.69
-1194.68
-1148.56
-1098.03
-1043.84
-986.765
-927.591
-867.086
-805.995
-745.019
-684.809
-625.95
-568.957
-514.268
-462.246
-413.172
-367.252
-324.62
-285.343
-249.425
-216.818
-187.43
-161.127
-137.749
-117.112
-99.0166
-83.2554
-69.6172
-57.8925
-47.8777
-39.3778
-32.2091
-26.2011
-21.1971
-17.055
-13.6474
-10.861
-8.59644
-6.76703
-5.298
-4.12537
-3.19487
-2.46087
-1.88526
-1.43649
-1.08865
-0.820602
-0.61523
-0.458782
-0.340285
-0.251045
-0.184219
-0.134461
-0.0976203
-0.070497
-0.0506396
-0.0361831
-0.0257171
-0.0181823
-0.012788
-0.0089479
-0.00622983
-0.00431753
-0.00298103
-0.00205447
-0.00141928
-0.000991847
-0.000714421
-0.000548672
-0.000471295
-1344.37
-1336.82
-1321.87
-1299.75
-1270.84
-1235.6
-1194.6
-1148.49
-1097.97
-1043.8
-986.743
-927.583
-867.092
-806.012
-745.047
-684.846
-625.994
-569.007
-514.322
-462.302
-413.23
-367.31
-324.677
-285.397
-249.477
-216.867
-187.475
-161.169
-137.787
-117.146
-99.0469
-83.2822
-69.6406
-57.9128
-47.8951
-39.3926
-32.2217
-26.2117
-21.2059
-17.0623
-13.6534
-10.8659
-8.60041
-6.77023
-5.30056
-4.1274
-3.19648
-2.46213
-1.88624
-1.43725
-1.08924
-0.82105
-0.61557
-0.459039
-0.340478
-0.251189
-0.184326
-0.13454
-0.0976783
-0.0705393
-0.0506704
-0.0362053
-0.025733
-0.0181936
-0.0127961
-0.00895356
-0.00623381
-0.0043203
-0.00298296
-0.00205581
-0.00142021
-0.000992502
-0.000714896
-0.000549039
-0.000471611
-1344.26
-1336.72
-1321.77
-1299.66
-1270.75
-1235.52
-1194.54
-1148.44
-1097.93
-1043.77
-986.725
-927.576
-867.095
-806.025
-745.068
-684.874
-626.028
-569.045
-514.363
-462.346
-413.274
-367.354
-324.72
-285.44
-249.517
-216.905
-187.51
-161.201
-137.816
-117.172
-99.0704
-83.3029
-69.6587
-57.9285