/*--------------------------------*- C++ -*----------------------------------*\
  =========                 |
  \\      /  F ield         | OpenFOAM: The Open Source CFD Toolbox
   \\    /   O peration     | Website:  https://openfoam.org
    \\  /    A nd           | Version:  10
     \\/     M anipulation  |
\*---------------------------------------------------------------------------*/
FoamFile
{
    format      ascii;
    class       volScalarField;
    location    "458";
    object      T;
}
// * * * * * * * * * * * * * * * * * * * * * * * * * * * * * * * * * * * * * //

dimensions      [0 0 0 1 0 0 0];

internalField   nonuniform List<scalar> 
11250
(
249.884
167.681
139.565
127.227
120.526
116.297
113.354
111.166
109.467
108.102
106.979
106.038
105.239
104.553
103.96
103.444
102.993
102.598
102.252
101.948
101.682
101.448
101.244
101.065
100.909
100.774
100.657
100.555
100.468
100.393
100.329
100.274
100.227
100.188
100.155
100.127
100.104
100.085
100.069
100.055
100.044
100.036
100.028
100.023
100.018
100.014
100.011
100.009
100.007
100.005
100.004
100.003
100.002
100.002
100.001
100.001
100.001
100.001
100
100
100
100
100
100
100
100
100
100
100
100
100
100
100
100
100
331.624
248.959
202.922
176.052
159.117
147.619
139.317
133.027
128.081
124.08
120.772
117.992
115.623
113.586
111.822
110.285
108.942
107.765
106.732
105.825
105.029
104.331
103.72
103.186
102.721
102.316
101.965
101.661
101.4
101.175
100.983
100.819
100.68
100.563
100.464
100.38
100.311
100.253
100.205
100.166
100.133
100.107
100.085
100.068
100.053
100.042
100.033
100.026
100.02
100.015
100.012
100.009
100.007
100.005
100.004
100.003
100.002
100.002
100.001
100.001
100.001
100.001
100
100
100
100
100
100
100
100
100
100
100
100
100
359.281
293.621
247.128
214.967
192.298
175.779
163.309
153.587
145.799
139.417
134.094
129.589
125.733
122.406
119.515
116.992
114.782
112.843
111.14
109.643
108.328
107.175
106.164
105.281
104.51
103.84
103.258
102.755
102.322
101.95
101.631
101.359
101.129
100.934
100.769
100.631
100.516
100.42
100.341
100.275
100.221
100.177
100.141
100.112
100.089
100.07
100.055
100.043
100.033
100.026
100.02
100.015
100.012
100.009
100.007
100.005
100.004
100.003
100.002
100.002
100.001
100.001
100.001
100
100
100
100
100
100
100
100
100
100
100
100
371.165
319.131
277.032
244.426
219.377
199.948
184.618
172.288
162.189
153.782
146.686
140.629
135.412
130.886
126.938
123.482
120.448
117.779
115.431
113.365
111.549
109.953
108.555
107.331
106.263
105.333
104.527
103.829
103.227
102.71
102.268
101.89
101.57
101.298
101.07
100.878
100.718
100.584
100.474
100.383
100.308
100.246
100.197
100.156
100.123
100.097
100.076
100.059
100.046
100.036
100.028
100.021
100.016
100.012
100.009
100.007
100.005
100.004
100.003
100.002
100.002
100.001
100.001
100.001
100
100
100
100
100
100
100
100
100
100
100
377.419
334.73
297.48
266.381
240.903
220.098
203.017
188.861
176.999
166.954
158.366
150.961
144.533
138.923
134.006
129.685
125.88
122.525
119.567
116.959
114.663
112.645
110.873
109.321
107.966
106.786
105.761
104.874
104.109
103.452
102.889
102.408
102
101.655
101.364
101.119
100.915
100.745
100.604
100.488
100.392
100.314
100.251
100.199
100.157
100.124
100.097
100.076
100.059
100.046
100.035
100.027
100.021
100.016
100.012
100.009
100.007
100.005
100.004
100.003
100.002
100.002
100.001
100.001
100.001
100
100
100
100
100
100
100
100
100
100
381.212
344.92
311.826
282.784
257.842
236.626
218.61
203.269
190.135
178.823
169.021
160.482
153.007
146.439
140.653
135.545
131.031
127.04
123.512
120.396
117.648
115.228
113.102
111.238
109.609
108.188
106.954
105.885
104.963
104.17
103.491
102.911
102.418
102.001
101.649
101.354
101.107
100.901
100.731
100.59
100.475
100.38
100.303
100.241
100.191
100.15
100.118
100.092
100.071
100.055
100.043
100.033
100.025
100.019
100.014
100.011
100.008
100.006
100.005
100.003
100.002
100.002
100.001
100.001
100.001
100.001
100
100
100
100
100
100
100
100
100
383.73
351.949
322.182
295.167
271.158
250.077
231.672
215.627
201.622
189.366
178.61
169.139
160.78
153.384
146.831
141.02
135.865
131.292
127.24
123.653
120.483
117.687
115.228
113.069
111.179
109.531
108.098
106.856
105.783
104.861
104.07
103.395
102.821
102.334
101.924
101.58
101.292
101.052
100.854
100.689
100.555
100.444
100.354
100.282
100.223
100.175
100.138
100.107
100.084
100.065
100.05
100.038
100.029
100.022
100.017
100.013
100.01
100.007
100.005
100.004
100.003
100.002
100.002
100.001
100.001
100.001
100
100
100
100
100
100
100
100
100
385.506
357.006
329.854
304.642
281.668
260.997
242.541
226.13
211.56
198.627
187.139
176.923
167.831
159.732
152.515
146.084
140.357
135.26
130.731
126.712
123.153
120.009
117.238
114.804
112.671
110.808
109.187
107.781
106.566
105.52
104.623
103.857
103.206
102.654
102.188
101.797
101.47
101.197
100.971
100.785
100.631
100.506
100.403
100.321
100.254
100.2
100.157
100.122
100.095
100.074
100.057
100.044
100.033
100.025
100.019
100.014
100.011
100.008
100.006
100.004
100.003
100.002
100.002
100.001
100.001
100.001
100
100
100
100
100
100
100
100
100
386.808
360.762
335.667
311.988
290.013
269.866
251.554
235.003
220.094
206.691
194.655
183.854
174.165
165.478
157.694
150.725
144.494
138.93
133.971
129.561
125.647
122.183
119.125
116.435
114.075
112.013
110.216
108.656
107.307
106.146
105.149
104.297
103.572
102.958
102.44
102.004
101.639
101.336
101.084
100.876
100.705
100.565
100.45
100.358
100.283
100.223
100.175
100.137
100.106
100.082
100.063
100.049
100.037
100.028
100.021
100.016
100.012
100.009
100.007
100.005
100.004
100.003
100.002
100.001
100.001
100.001
100.001
100
100
100
100
100
100
100
100
387.792
363.622
340.153
317.754
296.683
277.087
259.02
242.47
227.379
213.663
201.228
189.974
179.807
170.634
162.372
154.941
148.271
142.296
136.955
132.193
127.958
124.203
120.883
117.958
115.389
113.141
111.181
109.479
108.005
106.735
105.645
104.713
103.919
103.246
102.678
102.2
101.8
101.467
101.19
100.962
100.774
100.62
100.495
100.393
100.311
100.245
100.192
100.15
100.117
100.091
100.07
100.054
100.041
100.031
100.024
100.018
100.013
100.01
100.007
100.006
100.004
100.003
100.002
100.002
100.001
100.001
100.001
100
100
100
100
100
100
100
100
388.551
365.84
343.666
322.328
302.05
282.982
265.204
248.74
233.573
219.659
206.939
195.342
184.795
175.226
166.565
158.741
151.693
145.358
139.68
134.606
130.083
126.066
122.509
119.37
116.61
114.192
112.081
110.247
108.657
107.287
106.109
105.102
104.244
103.516
102.901
102.384
101.951
101.59
101.291
101.043
100.84
100.673
100.537
100.427
100.338
100.266
100.209
100.163
100.127
100.098
100.076
100.058
100.044
100.034
100.026
100.019
100.015
100.011
100.008
100.006
100.004
100.003
100.002
100.002
100.001
100.001
100.001
100
100
100
100
100
100
100
100
389.146
367.586
346.451
325.988
306.394
287.81
270.329
253.996
238.823
224.794
211.875
200.02
189.177
179.288
170.296
162.143
154.771
148.125
142.153
136.802
132.024
127.772
124.001
120.669
117.736
115.163
112.915
110.959
109.263
107.8
106.542
105.465
104.547
103.769
103.11
102.557
102.093
101.706
101.385
101.12
100.902
100.723
100.577
100.459
100.363
100.286
100.224
100.175
100.136
100.106
100.081
100.063
100.048
100.036
100.028
100.021
100.016
100.012
100.009
100.006
100.005
100.004
100.003
100.002
100.001
100.001
100.001
100.001
100
100
100
100
100
100
100
389.619
368.975
348.68
328.939
309.927
291.775
274.58
258.399
243.263
229.176
216.123
204.078
193.004
182.859
173.596
165.166
157.52
150.608
144.38
138.788
133.785
129.324
125.363
121.857
118.767
116.054
113.681
111.615
109.822
108.274
106.942
105.802
104.829
104.003
103.305
102.717
102.225
101.814
101.473
101.191
100.959
100.769
100.614
100.488
100.386
100.304
100.239
100.187
100.145
100.113
100.087
100.067
100.051
100.039
100.029
100.022
100.017
100.012
100.009
100.007
100.005
100.004
100.003
100.002
100.001
100.001
100.001
100.001
100
100
100
100
100
100
100
389.997
370.09
350.477
331.333
312.812
295.039
278.108
262.085
247.011
232.904
219.765
207.581
196.331
185.982
176.498
167.839
159.961
152.821
146.373
140.572
135.371
130.727
126.596
122.936
119.706
116.867
114.382
112.215
110.335
108.709
107.31
106.111
105.088
104.219
103.484
102.866
102.347
101.914
101.555
101.257
101.013
100.812
100.648
100.515
100.408
100.322
100.252
100.197
100.154
100.119
100.092
100.07
100.054
100.041
100.031
100.023
100.018
100.013
100.01
100.007
100.005
100.004
100.003
100.002
100.002
100.001
100.001
100.001
100
100
100
100
100
100
100
390.302
370.992
351.934
333.283
315.178
297.732
281.04
265.17
250.169
236.067
222.876
210.594
199.208
188.698
179.035
170.186
162.116
154.783
148.146
142.164
136.791
131.987
127.707
123.91
120.555
117.604
115.018
112.762
110.802
109.106
107.646
106.395
105.326
104.418
103.649
103.002
102.459
102.006
101.63
101.318
101.062
100.852
100.68
100.541
100.428
100.338
100.265
100.207
100.161
100.125
100.096
100.074
100.057
100.043
100.033
100.025
100.019
100.014
100.01
100.008
100.006
100.004
100.003
100.002
100.002
100.001
100.001
100.001
100
100
100
100
100
100
100
390.55
371.725
353.121
334.879
317.121
299.957
283.476
267.749
252.827
238.746
225.526
213.174
201.686
191.049
181.242
172.239
164.007
156.511
149.714
143.576
138.056
133.111
128.701
124.784
121.319
118.268
115.592
113.256
111.225
109.467
107.952
106.652
105.542
104.599
103.8
103.126
102.562
102.09
101.698
101.374
101.107
100.888
100.709
100.564
100.447
100.352
100.277
100.216
100.168
100.13
100.101
100.077
100.059
100.045
100.034
100.026
100.019
100.014
100.011
100.008
100.006
100.004
100.003
100.002
100.002
100.001
100.001
100.001
100
100
100
100
100
100
100
390.752
372.322
354.092
336.187
318.722
301.798
285.502
269.904
255.06
241.009
227.777
215.377
203.813
193.077
183.154
174.024
165.658
158.026
151.094
144.823
139.174
134.109
129.585
125.563
122.002
118.862
116.107
113.7
111.606
109.792
108.228
106.885
105.738
104.762
103.936
103.24
102.655
102.167
101.761
101.425
101.148
100.921
100.736
100.585
100.464
100.366
100.287
100.224
100.175
100.135
100.104
100.08
100.061
100.047
100.035
100.027
100.02
100.015
100.011
100.008
100.006
100.005
100.003
100.002
100.002
100.001
100.001
100.001
100
100
100
100
100
100
100
390.917
372.811
354.888
337.262
320.041
303.321
287.185
271.704
256.934
242.917
229.684
217.253
205.631
194.818
184.803
175.569
167.093
159.347
152.3
145.916
140.159
134.989
130.367
126.254
122.608
119.392
116.567
114.097
111.947
110.083
108.476
107.095
105.915
104.91
104.059
103.342
102.74
102.236
101.818
101.471
101.186
100.951
100.76
100.605
100.479
100.378
100.297
100.232
100.181
100.14
100.108
100.083
100.063
100.048
100.037
100.028
100.021
100.016
100.012
100.009
100.006
100.005
100.003
100.002
100.002
100.001
100.001
100.001
100
100
100
100
100
100
100
391.052
373.212
355.541
338.147
321.13
304.582
288.584
273.206
258.503
244.522
231.295
218.843
207.18
196.307
186.218
176.901
168.334
160.494
153.35
146.871
141.021
135.762
131.056
126.863
123.144
119.861
116.975
114.45
112.25
110.343
108.697
107.282
106.073
105.043
104.17
103.434
102.815
102.299
101.869
101.513
101.219
100.979
100.782
100.622
100.493
100.389
100.305
100.239
100.186
100.144
100.111
100.085
100.065
100.05
100.038
100.028
100.021
100.016
100.012
100.009
100.007
100.005
100.004
100.003
100.002
100.001
100.001
100.001
100
100
100
100
100
100
100
391.163
373.541
356.078
338.875
322.029
305.626
289.746
274.457
259.816
245.869
232.652
220.189
208.495
197.576
187.429
178.043
169.402
161.483
154.26
147.701
141.772
136.437
131.658
127.397
123.615
120.274
117.335
114.761
112.519
110.573
108.893
107.449
106.213
105.161
104.268
103.516
102.883
102.354
101.915
101.55
101.25
101.003
100.802
100.638
100.505
100.399
100.313
100.245
100.191
100.148
100.114
100.088
100.067
100.051
100.039
100.029
100.022
100.016
100.012
100.009
100.007
100.005
100.004
100.003
100.002
100.001
100.001
100.001
100.001
100
100
100
100
100
100
391.253
373.811
356.519
339.475
322.771
306.49
290.71
275.498
260.912
246.998
233.793
221.324
209.608
198.654
188.46
179.02
170.318
162.334
155.044
148.418
142.422
137.023
132.183
127.864
124.027
120.636
117.65
115.036
112.755
110.776
109.066
107.596
106.338
105.265
104.356
103.588
102.943
102.404
101.955
101.583
101.277
101.025
100.819
100.652
100.517
100.408
100.32
100.25
100.195
100.151
100.117
100.09
100.069
100.052
100.04
100.03
100.022
100.017
100.013
100.009
100.007
100.005
100.004
100.003
100.002
100.001
100.001
100.001
100.001
100
100
100
100
100
100
391.328
374.033
356.882
339.969
323.382
307.204
291.509
276.363
261.825
247.941
234.749
222.278
210.547
199.565
189.335
179.851
171.099
163.063
155.717
149.035
142.983
137.53
132.637
128.268
124.386
120.951
117.926
115.275
112.962
110.954
109.219
107.726
106.447
105.357
104.433
103.653
102.997
102.448
101.991
101.613
101.301
101.044
100.835
100.665
100.527
100.416
100.326
100.255
100.199
100.154
100.119
100.091
100.07
100.053
100.04
100.031
100.023
100.017
100.013
100.009
100.007
100.005
100.004
100.003
100.002
100.001
100.001
100.001
100.001
100
100
100
100
100
100
391.39
374.215
357.181
340.376
323.887
307.793
292.17
277.081
262.584
248.727
235.549
223.078
211.336
200.334
190.075
180.555
171.764
163.683
156.292
149.563
143.465
137.965
133.029
128.618
124.696
121.224
118.165
115.484
113.143
111.11
109.352
107.839
106.543
105.438
104.501
103.709
103.044
102.487
102.023
101.639
101.322
101.061
100.849
100.676
100.535
100.423
100.332
100.26
100.202
100.157
100.121
100.093
100.071
100.054
100.041
100.031
100.023
100.017
100.013
100.01
100.007
100.005
100.004
100.003
100.002
100.001
100.001
100.001
100.001
100
100
100
100
100
100
391.44
374.365
357.426
340.71
324.302
308.28
292.716
277.675
263.214
249.381
236.215
223.747
211.997
200.98
190.698
181.15
172.326
164.21
156.781
150.013
143.876
138.338
133.365
128.918
124.963
121.46
118.372
115.664
113.299
111.244
109.467
107.937
106.627
105.509
104.56
103.759
103.085
102.521
102.051
101.662
101.34
101.076
100.861
100.685
100.543
100.429
100.337
100.264
100.205
100.159
100.123
100.094
100.072
100.055
100.042
100.032
100.024
100.018
100.013
100.01
100.007
100.005
100.004
100.003
100.002
100.001
100.001
100.001
100.001
100
100
100
100
100
100
391.481
374.488
357.627
340.985
324.643
308.68
293.166
278.165
263.735
249.923
236.769
224.304
212.55
201.52
191.221
181.651
172.8
164.655
157.195
150.395
144.226
138.656
133.651
129.175
125.191
121.662
118.55
115.819
113.434
111.361
109.567
108.023
106.699
105.57
104.611
103.801
103.12
102.55
102.075
101.682
101.357
101.09
100.871
100.694
100.55
100.434
100.341
100.267
100.208
100.161
100.125
100.096
100.073
100.056
100.042
100.032
100.024
100.018
100.013
100.01
100.007
100.005
100.004
100.003
100.002
100.002
100.001
100.001
100.001
100
100
100
100
100
100
391.515
374.588
357.791
341.209
324.923
309.009
293.536
278.57
264.166
250.372
237.229
224.767
213.01
201.971
191.658
182.07
173.198
165.03
157.544
150.718
144.522
138.926
133.895
129.394
125.386
121.834
118.702
115.952
113.55
111.461
109.653
108.096
106.761
105.623
104.656
103.839
103.151
102.576
102.096
101.699
101.371
101.101
100.881
100.701
100.556
100.439
100.345
100.27
100.21
100.163
100.126
100.097
100.074
100.056
100.043
100.032
100.024
100.018
100.014
100.01
100.007
100.005
100.004
100.003
100.002
100.002
100.001
100.001
100.001
100
100
100
100
100
100
391.542
374.67
357.926
341.394
325.152
309.278
293.84
278.903
264.521
250.743
237.609
225.151
213.391
202.346
192.023
182.42
173.531
165.343
157.837
150.989
144.772
139.153
134.101
129.579
125.552
121.981
118.831
116.065
113.648
111.546
109.727
108.159
106.815
105.668
104.694
103.871
103.178
102.598
102.115
101.714
101.383
101.111
100.889
100.708
100.561
100.443
100.348
100.272
100.212
100.165
100.127
100.098
100.075
100.057
100.043
100.033
100.025
100.018
100.014
100.01
100.008
100.006
100.004
100.003
100.002
100.002
100.001
100.001
100.001
100
100
100
100
100
100
391.565
374.737
358.036
341.544
325.34
309.499
294.09
279.175
264.812
251.047
237.922
225.467
213.707
202.657
192.325
182.711
173.809
165.605
158.083
151.217
144.981
139.345
134.275
129.736
125.691
122.105
118.941
116.162
113.732
111.619
109.789
108.213
106.861
105.707
104.727
103.898
103.201
102.617
102.13
101.726
101.393
101.119
100.895
100.713
100.566
100.446
100.351
100.275
100.214
100.166
100.128
100.099
100.075
100.057
100.044
100.033
100.025
100.019
100.014
100.01
100.008
100.006
100.004
100.003
100.002
100.002
100.001
100.001
100.001
100
100
100
100
100
100
391.583
374.792
358.125
341.666
325.493
309.679
294.293
279.399
265.051
251.297
238.179
225.728
213.967
202.914
192.575
182.952
174.039
165.823
158.287
151.407
145.156
139.505
134.42
129.867
125.809
122.21
119.033
116.243
113.803
111.68
109.842
108.258
106.899
105.74
104.754
103.921
103.22
102.633
102.143
101.737
101.402
101.127
100.901
100.718
100.569
100.45
100.353
100.277
100.215
100.167
100.129
100.099
100.076
100.058
100.044
100.033
100.025
100.019
100.014
100.01
100.008
100.006
100.004
100.003
100.002
100.002
100.001
100.001
100.001
100
100
100
100
100
100
391.598
374.836
358.198
341.766
325.617
309.826
294.459
279.581
265.246
251.502
238.39
225.941
214.181
203.125
192.781
183.151
174.229
166.004
158.456
151.564
145.302
139.638
134.541
129.976
125.907
122.297
119.111
116.311
113.863
111.732
109.887
108.297
106.932
105.768
104.778
103.941
103.237
102.647
102.155
101.747
101.41
101.133
100.906
100.722
100.573
100.452
100.355
100.278
100.217
100.168
100.13
100.1
100.076
100.058
100.044
100.033
100.025
100.019
100.014
100.01
100.008
100.006
100.004
100.003
100.002
100.002
100.001
100.001
100.001
100
100
100
100
100
100
391.61
374.872
358.257
341.847
325.718
309.945
294.594
279.729
265.404
251.669
238.562
226.116
214.356
203.298
192.95
183.315
174.386
166.152
158.596
151.695
145.422
139.749
134.642
130.067
125.989
122.37
119.175
116.368
113.913
111.776
109.925
108.329
106.96
105.791
104.798
103.958
103.251
102.658
102.164
101.755
101.416
101.138
100.911
100.725
100.575
100.454
100.357
100.28
100.218
100.169
100.131
100.1
100.077
100.059
100.044
100.034
100.025
100.019
100.014
100.01
100.008
100.006
100.004
100.003
100.002
100.002
100.001
100.001
100.001
100
100
100
100
100
100
391.62
374.901
358.305
341.912
325.8
310.041
294.704
279.849
265.533
251.804
238.702
226.258
214.499
203.439
193.089
183.449
174.515
166.274
158.711
151.802
145.522
139.84
134.725
130.143
126.057
122.431
119.229
116.415
113.954
111.812
109.956
108.356
106.983
105.811
104.814
103.972
103.262
102.668
102.172
101.761
101.422
101.143
100.914
100.728
100.578
100.456
100.359
100.281
100.219
100.17
100.131
100.101
100.077
100.059
100.045
100.034
100.025
100.019
100.014
100.011
100.008
100.006
100.004
100.003
100.002
100.002
100.001
100.001
100.001
100
100
100
100
100
100
391.628
374.924
358.343
341.965
325.866
310.119
294.792
279.946
265.638
251.914
238.815
226.374
214.615
203.554
193.202
183.559
174.62
166.374
158.805
151.89
145.603
139.916
134.794
130.205
126.113
122.481
119.274
116.455
113.989
111.842
109.982
108.378
107.002
105.827
104.828
103.983
103.272
102.676
102.179
101.767
101.426
101.146
100.917
100.731
100.58
100.458
100.36
100.282
100.22
100.17
100.132
100.101
100.077
100.059
100.045
100.034
100.025
100.019
100.014
100.011
100.008
100.006
100.004
100.003
100.002
100.002
100.001
100.001
100.001
100
100
100
100
100
100
391.634
374.943
358.374
342.007
325.919
310.182
294.863
280.025
265.722
252.003
238.907
226.467
214.709
203.648
193.293
183.648
174.705
166.456
158.882
151.962
145.67
139.977
134.85
130.256
126.159
122.522
119.31
116.487
114.017
111.867
110.003
108.397
107.018
105.84
104.84
103.993
103.28
102.683
102.185
101.771
101.43
101.149
100.92
100.733
100.581
100.459
100.361
100.283
100.22
100.171
100.132
100.101
100.078
100.059
100.045
100.034
100.026
100.019
100.014
100.011
100.008
100.006
100.004
100.003
100.002
100.002
100.001
100.001
100.001
100
100
100
100
100
100
391.639
374.958
358.399
342.041
325.961
310.232
294.92
280.088
265.79
252.074
238.981
226.543
214.785
203.723
193.367
183.72
174.775
166.522
158.944
152.021
145.725
140.027
134.896
130.298
126.197
122.556
119.341
116.514
114.04
111.887
110.021
108.412
107.031
105.852
104.849
104.001
103.287
102.688
102.189
101.775
101.433
101.152
100.922
100.734
100.583
100.46
100.362
100.283
100.221
100.171
100.132
100.102
100.078
100.059
100.045
100.034
100.026
100.019
100.014
100.011
100.008
100.006
100.004
100.003
100.002
100.002
100.001
100.001
100.001
100
100
100
100
100
100
391.643
374.97
358.419
342.068
325.995
310.272
294.966
280.138
265.844
252.131
239.04
226.603
214.846
203.784
193.427
183.778
174.831
166.575
158.995
152.068
145.769
140.068
134.934
130.332
126.227
122.584
119.365
116.535
114.06
111.904
110.036
108.425
107.042
105.861
104.857
104.008
103.292
102.693
102.193
101.778
101.436
101.154
100.924
100.736
100.584
100.461
100.362
100.284
100.221
100.172
100.133
100.102
100.078
100.06
100.045
100.034
100.026
100.019
100.014
100.011
100.008
100.006
100.004
100.003
100.002
100.002
100.001
100.001
100.001
100
100
100
100
100
100
391.646
374.979
358.434
342.09
326.022
310.304
295.002
280.178
265.887
252.177
239.088
226.652
214.895
203.833
193.475
183.824
174.876
166.618
159.036
152.106
145.804
140.101
134.964
130.359
126.252
122.606
119.385
116.553
114.075
111.917
110.048
108.435
107.051
105.868
104.863
104.013
103.297
102.697
102.196
101.781
101.438
101.156
100.925
100.737
100.585
100.462
100.363
100.284
100.222
100.172
100.133
100.102
100.078
100.06
100.045
100.034
100.026
100.019
100.014
100.011
100.008
100.006
100.004
100.003
100.002
100.002
100.001
100.001
100.001
100
100
100
100
100
100
391.649
374.987
358.447
342.107
326.044
310.33
295.031
280.211
265.922
252.214
239.126
226.691
214.934
203.871
193.513
183.862
174.912
166.653
159.069
152.137
145.833
140.128
134.988
130.382
126.272
122.624
119.401
116.567
114.088
111.928
110.057
108.443
107.058
105.875
104.869
104.017
103.301
102.7
102.199
101.783
101.44
101.157
100.926
100.738
100.585
100.462
100.364
100.285
100.222
100.172
100.133
100.102
100.078
100.06
100.045
100.034
100.026
100.019
100.014
100.011
100.008
100.006
100.004
100.003
100.002
100.002
100.001
100.001
100.001
100
100
100
100
100
100
391.651
374.993
358.457
342.121
326.061
310.35
295.054
280.236
265.949
252.242
239.156
226.721
214.965
203.902
193.544
183.892
174.941
166.681
159.095
152.162
145.856
140.149
135.008
130.4
126.288
122.639
119.414
116.579
114.098
111.937
110.065
108.45
107.064
105.88
104.873
104.021
103.304
102.702
102.201
101.785
101.441
101.158
100.927
100.739
100.586
100.463
100.364
100.285
100.222
100.172
100.133
100.102
100.078
100.06
100.045
100.034
100.026
100.019
100.014
100.011
100.008
100.006
100.004
100.003
100.002
100.002
100.001
100.001
100.001
100
100
100
100
100
100
391.652
374.998
358.464
342.131
326.074
310.366
295.073
280.256
265.971
252.265
239.179
226.746
214.989
203.927
193.568
183.915
174.964
166.703
159.116
152.181
145.874
140.166
135.023
130.414
126.301
122.65
119.425
116.588
114.106
111.945
110.071
108.455
107.068
105.884
104.876
104.024
103.306
102.705
102.203
101.786
101.442
101.159
100.928
100.739
100.587
100.463
100.364
100.285
100.222
100.172
100.133
100.102
100.078
100.06
100.045
100.034
100.026
100.019
100.014
100.011
100.008
100.006
100.004
100.003
100.002
100.002
100.001
100.001
100.001
100
100
100
100
100
100
391.654
375.002
358.471
342.14
326.085
310.378
295.087
280.272
265.988
252.283
239.198
226.765
215.009
203.946
193.587
183.934
174.982
166.72
159.132
152.197
145.889
140.179
135.036
130.425
126.312
122.66
119.433
116.596
114.113
111.95
110.076
108.46
107.072
105.887
104.879
104.026
103.308
102.706
102.204
101.787
101.443
101.16
100.929
100.74
100.587
100.464
100.365
100.285
100.222
100.173
100.133
100.103
100.079
100.06
100.045
100.034
100.026
100.019
100.014
100.011
100.008
100.006
100.004
100.003
100.002
100.002
100.001
100.001
100.001
100
100
100
100
100
100
391.655
375.004
358.475
342.146
326.093
310.388
295.098
280.284
266.001
252.298
239.213
226.78
215.024
203.962
193.602
183.949
174.996
166.734
159.145
152.209
145.901
140.19
135.046
130.434
126.32
122.667
119.439
116.601
114.118
111.955
110.08
108.463
107.075
105.889
104.881
104.028
103.31
102.707
102.205
101.788
101.444
101.161
100.929
100.74
100.587
100.464
100.365
100.286
100.223
100.173
100.133
100.103
100.079
100.06
100.045
100.034
100.026
100.019
100.014
100.011
100.008
100.006
100.004
100.003
100.002
100.002
100.001
100.001
100.001
100
100
100
100
100
100
391.655
375.007
358.479
342.152
326.1
310.396
295.107
280.294
266.012
252.309
239.224
226.792
215.036
203.974
193.614
183.96
175.007
166.744
159.155
152.219
145.91
140.198
135.054
130.441
126.326
122.673
119.445
116.606
114.122
111.958
110.083
108.466
107.077
105.891
104.883
104.029
103.311
102.708
102.206
101.789
101.445
101.161
100.929
100.741
100.588
100.464
100.365
100.286
100.223
100.173
100.134
100.103
100.079
100.06
100.045
100.034
100.026
100.019
100.014
100.011
100.008
100.006
100.004
100.003
100.002
100.002
100.001
100.001
100.001
100
100
100
100
100
100
391.656
375.008
358.482
342.156
326.105
310.402
295.114
280.301
266.02
252.317
239.233
226.801
215.045
203.983
193.624
183.969
175.016
166.753
159.163
152.226
145.917
140.205
135.06
130.447
126.331
122.677
119.449
116.61
114.125
111.961
110.086
108.468
107.079
105.893
104.884
104.031
103.312
102.709
102.207
101.79
101.445
101.162
100.93
100.741
100.588
100.464
100.365
100.286
100.223
100.173
100.134
100.103
100.079
100.06
100.046
100.034
100.026
100.019
100.014
100.011
100.008
100.006
100.004
100.003
100.002
100.002
100.001
100.001
100.001
100
100
100
100
100
100
391.656
375.01
358.484
342.159
326.109
310.406
295.119
280.307
266.026
252.324
239.24
226.808
215.053
203.99
193.631
183.976
175.023
166.759
159.17
152.232
145.922
140.21
135.064
130.451
126.335
122.681
119.452
116.613
114.128
111.964
110.088
108.47
107.081
105.894
104.885
104.032
103.313
102.71
102.207
101.79
101.445
101.162
100.93
100.741
100.588
100.464
100.365
100.286
100.223
100.173
100.134
100.103
100.079
100.06
100.046
100.034
100.026
100.019
100.014
100.011
100.008
100.006
100.004
100.003
100.002
100.002
100.001
100.001
100.001
100
100
100
100
100
100
391.657
375.011
358.486
342.161
326.112
310.41
295.123
280.312
266.031
252.329
239.246
226.814
215.058
203.996
193.636
183.982
175.028
166.765
159.175
152.237
145.927
140.214
135.068
130.455
126.339
122.684
119.455
116.615
114.13
111.965
110.089
108.471
107.082
105.895
104.886
104.032
103.313
102.71
102.208
101.79
101.446
101.162
100.93
100.741
100.588
100.464
100.365
100.286
100.223
100.173
100.134
100.103
100.079
100.06
100.046
100.034
100.026
100.019
100.014
100.011
100.008
100.006
100.004
100.003
100.002
100.002
100.001
100.001
100.001
100
100
100
100
100
100
391.657
375.012
358.487
342.163
326.114
310.413
295.126
280.315
266.035
252.333
239.25
226.818
215.063
204
193.641
183.986
175.032
166.768
159.178
152.241
145.93
140.217
135.071
130.457
126.341
122.686
119.457
116.617
114.131
111.967
110.091
108.472
107.083
105.896
104.887
104.033
103.314
102.711
102.208
101.791
101.446
101.162
100.93
100.741
100.588
100.465
100.365
100.286
100.223
100.173
100.134
100.103
100.079
100.06
100.046
100.034
100.026
100.019
100.014
100.011
100.008
100.006
100.004
100.003
100.002
100.002
100.001
100.001
100.001
100
100
100
100
100
100
391.657
375.012
358.488
342.164
326.116
310.415
295.128
280.318
266.038
252.336
239.253
226.822
215.066
204.004
193.644
183.989
175.035
166.772
159.181
152.243
145.932
140.22
135.073
130.459
126.343
122.688
119.458
116.618
114.132
111.968
110.091
108.473
107.084
105.897
104.887
104.033
103.314
102.711
102.208
101.791
101.446
101.163
100.93
100.741
100.588
100.465
100.365
100.286
100.223
100.173
100.134
100.103
100.079
100.06
100.046
100.034
100.026
100.019
100.014
100.011
100.008
100.006
100.004
100.003
100.002
100.002
100.001
100.001
100.001
100
100
100
100
100
100
391.657
375.013
358.489
342.165
326.117
310.417
295.13
280.32
266.04
252.339
239.256
226.824
215.069
204.006
193.647
183.992
175.038
166.774
159.183
152.245
145.934
140.222
135.075
130.461
126.344
122.689
119.459
116.619
114.133
111.969
110.092
108.474
107.084
105.897
104.888
104.034
103.314
102.711
102.209
101.791
101.446
101.163
100.931
100.742
100.588
100.465
100.365
100.286
100.223
100.173
100.134
100.103
100.079
100.06
100.046
100.034
100.026
100.019
100.014
100.011
100.008
100.006
100.004
100.003
100.002
100.002
100.001
100.001
100.001
100
100
100
100
100
100
391.658
375.013
358.49
342.166
326.118
310.418
295.132
280.321
266.042
252.34
239.258
226.826
215.07
204.008
193.648
183.994
175.04
166.776
159.185
152.247
145.936
140.223
135.076
130.462
126.345
122.69
119.46
116.62
114.134
111.969
110.093
108.474
107.085
105.897
104.888
104.034
103.315
102.712
102.209
101.791
101.446
101.163
100.931
100.742
100.588
100.465
100.365
100.286
100.223
100.173
100.134
100.103
100.079
100.06
100.046
100.034
100.026
100.019
100.014
100.011
100.008
100.006
100.004
100.003
100.002
100.002
100.001
100.001
100.001
100
100
100
100
100
100
391.658
375.013
358.49
342.167
326.119
310.419
295.133
280.323
266.043
252.342
239.259
226.827
215.072
204.01
193.65
183.995
175.041
166.777
159.186
152.248
145.937
140.224
135.077
130.463
126.346
122.691
119.461
116.62
114.135
111.97
110.093
108.474
107.085
105.898
104.888
104.034
103.315
102.712
102.209
101.791
101.446
101.163
100.931
100.742
100.588
100.465
100.365
100.286
100.223
100.173
100.134
100.103
100.079
100.06
100.046
100.034
100.026
100.019
100.014
100.011
100.008
100.006
100.004
100.003
100.002
100.002
100.001
100.001
100.001
100
100
100
100
100
100
391.658
375.014
358.491
342.167
326.12
310.419
295.134
280.324
266.044
252.343
239.26
226.828
215.073
204.011
193.651
183.996
175.042
166.778
159.187
152.249
145.938
140.225
135.078
130.464
126.347
122.691
119.461
116.621
114.135
111.97
110.094
108.475
107.085
105.898
104.888
104.034
103.315
102.712
102.209
101.791
101.447
101.163
100.931
100.742
100.588
100.465
100.365
100.286
100.223
100.173
100.134
100.103
100.079
100.06
100.046
100.034
100.026
100.019
100.014
100.011
100.008
100.006