/*--------------------------------*- C++ -*----------------------------------*\
  =========                 |
  \\      /  F ield         | OpenFOAM: The Open Source CFD Toolbox
   \\    /   O peration     | Website:  https://openfoam.org
    \\  /    A nd           | Version:  10
     \\/     M anipulation  |
\*---------------------------------------------------------------------------*/
FoamFile
{
    format      ascii;
    class       volScalarField;
    location    "326";
    object      T;
}
// * * * * * * * * * * * * * * * * * * * * * * * * * * * * * * * * * * * * * //

dimensions      [0 0 0 1 0 0 0];

internalField   nonuniform List<scalar> 
11250
(
249.837
167.541
139.334
126.909
120.127
115.823
112.813
110.567
108.819
107.415
106.263
105.303
104.494
103.807
103.221
102.72
102.291
101.923
101.609
101.341
101.114
100.92
100.757
100.62
100.505
100.41
100.33
100.265
100.211
100.168
100.132
100.104
100.081
100.063
100.049
100.037
100.028
100.022
100.016
100.012
100.009
100.007
100.005
100.004
100.003
100.002
100.001
100.001
100.001
100
100
100
100
100
100
100
100
100
100
100
100
100
100
100
100
100
100
100
100
100
100
100
100
100
100
331.483
248.539
202.23
175.1
157.921
146.2
137.698
131.233
126.141
122.023
118.628
115.789
113.391
111.352
109.61
108.118
106.84
105.744
104.808
104.008
103.328
102.751
102.263
101.853
101.51
101.224
100.988
100.792
100.632
100.502
100.396
100.311
100.243
100.188
100.145
100.111
100.085
100.064
100.049
100.036
100.027
100.02
100.015
100.011
100.008
100.006
100.004
100.003
100.002
100.001
100.001
100.001
100
100
100
100
100
100
100
100
100
100
100
100
100
100
100
100
100
100
100
100
100
100
100
359.047
292.923
245.979
213.386
190.313
173.423
160.62
150.61
142.578
136.002
130.533
125.932
122.027
118.696
115.842
113.393
111.292
109.489
107.945
106.626
105.503
104.55
103.745
103.067
102.5
102.027
101.635
101.312
101.047
100.831
100.656
100.515
100.402
100.312
100.241
100.185
100.141
100.107
100.08
100.06
100.045
100.033
100.024
100.018
100.013
100.009
100.007
100.005
100.003
100.002
100.002
100.001
100.001
100.001
100
100
100
100
100
100
100
100
100
100
100
100
100
100
100
100
100
100
100
100
100
370.839
318.16
275.432
242.226
216.614
196.668
180.875
168.143
157.706
149.029
141.731
135.539
130.254
125.721
121.825
118.473
115.589
113.11
110.985
109.167
107.617
106.301
105.187
104.25
103.465
102.81
102.268
101.82
101.453
101.153
100.91
100.715
100.558
100.433
100.334
100.256
100.195
100.148
100.112
100.084
100.062
100.046
100.034
100.025
100.018
100.013
100.009
100.007
100.005
100.003
100.002
100.002
100.001
100.001
100.001
100
100
100
100
100
100
100
100
100
100
100
100
100
100
100
100
100
100
100
100
377.004
333.491
295.44
263.574
237.378
215.914
198.243
183.573
171.28
160.89
152.043
144.467
137.951
132.333
127.483
123.294
119.68
116.568
113.893
111.602
109.646
107.984
106.576
105.39
104.396
103.567
102.879
102.311
101.845
101.465
101.157
100.908
100.709
100.55
100.425
100.326
100.249
100.188
100.142
100.106
100.079
100.059
100.043
100.032
100.023
100.017
100.012
100.009
100.006
100.004
100.003
100.002
100.001
100.001
100.001
100
100
100
100
100
100
100
100
100
100
100
100
100
100
100
100
100
100
100
100
380.709
343.421
309.356
279.385
253.574
231.56
212.83
196.867
183.211
171.481
161.367
152.62
145.039
138.462
132.755
127.808
123.526
119.827
116.643
113.91
111.574
109.585
107.9
106.478
105.286
104.29
103.464
102.781
102.221
101.764
101.393
101.094
100.854
100.663
100.512
100.393
100.3
100.227
100.171
100.128
100.096
100.071
100.052
100.038
100.028
100.02
100.014
100.01
100.007
100.005
100.004
100.003
100.002
100.001
100.001
100.001
100
100
100
100
100
100
100
100
100
100
100
100
100
100
100
100
100
100
100
383.143
350.197
319.295
291.197
266.171
244.158
224.918
208.146
193.531
180.788
169.666
159.953
151.469
144.062
137.603
131.979
127.095
122.864
119.213
116.073
113.385
111.093
109.148
107.506
106.127
104.976
104.019
103.228
102.579
102.049
101.619
101.271
100.993
100.771
100.595
100.457
100.349
100.264
100.199
100.149
100.111
100.082
100.061
100.044
100.032
100.023
100.017
100.012
100.009
100.006
100.004
100.003
100.002
100.001
100.001
100.001
100
100
100
100
100
100
100
100
100
100
100
100
100
100
100
100
100
100
100
384.837
355.01
326.567
300.12
275.989
254.256
234.849
217.611
202.347
188.858
176.953
166.461
157.228
149.116
142.005
135.788
130.369
125.662
121.589
118.079
115.068
112.498
110.314
108.468
106.916
105.619
104.54
103.649
102.916
102.317
101.831
101.439
101.124
100.873
100.674
100.517
100.395
100.3
100.226
100.169
100.126
100.093
100.069
100.05
100.037
100.026
100.019
100.014
100.01
100.007
100.005
100.003
100.002
100.002
100.001
100.001
100.001
100
100
100
100
100
100
100
100
100
100
100
100
100
100
100
100
100
100
386.061
358.534
331.997
306.939
283.671
262.339
242.966
225.49
209.805
195.781
183.281
172.171
162.324
153.622
145.956
139.226
133.339
128.21
123.761
119.919
116.617
113.794
111.392
109.359
107.648
106.217
105.026
104.04
103.23
102.568
102.03
101.595
101.247
100.968
100.748
100.574
100.438
100.333
100.251
100.188
100.14
100.104
100.076
100.056
100.041
100.029
100.021
100.015
100.011
100.008
100.005
100.004
100.003
100.002
100.001
100.001
100.001
100
100
100
100
100
100
100
100
100
100
100
100
100
100
100
100
100
100
386.971
361.172
336.117
312.203
289.711
268.812
249.578
232.012
216.067
201.668
188.722
177.129
166.788
157.599
149.466
142.298
136.006
130.509
125.728
121.591
118.029
114.978
112.379
110.177
108.322
106.768
105.474
104.403
103.521
102.8
102.214
101.741
101.361
101.057
100.817
100.627
100.479
100.363
100.274
100.206
100.153
100.114
100.084
100.061
100.045
100.032
100.023
100.017
100.012
100.008
100.006
100.004
100.003
100.002
100.001
100.001
100.001
100
100
100
100
100
100
100
100
100
100
100
100
100
100
100
100
100
100
387.66
363.181
339.286
316.302
294.482
273.999
254.954
237.386
221.293
206.638
193.363
181.397
170.662
161.075
152.554
145.015
138.377
132.561
127.492
123.095
119.303
116.05
113.275
110.921
108.935
107.271
105.884
104.734
103.788
103.014
102.384
101.875
101.466
101.139
100.88
100.676
100.516
100.392
100.296
100.222
100.165
100.123
100.09
100.066
100.048
100.035
100.025
100.018
100.013
100.009
100.006
100.004
100.003
100.002
100.001
100.001
100.001
100
100
100
100
100
100
100
100
100
100
100
100
100
100
100
100
100
100
388.189
364.729
341.746
319.516
298.264
278.161
259.318
241.801
225.633
210.807
197.292
185.041
173.995
164.087
155.245
147.397
140.466
134.378
129.058
124.436
120.443
117.012
114.081
111.591
109.49
107.726
106.255
105.036
104.031
103.208
102.538
101.997
101.562
101.214
100.938
100.721
100.551
100.418
100.316
100.237
100.176
100.131
100.096
100.071
100.051
100.037
100.027
100.019
100.014
100.01
100.007
100.005
100.003
100.002
100.002
100.001
100.001
100
100
100
100
100
100
100
100
100
100
100
100
100
100
100
100
100
100
388.599
365.934
343.671
322.049
301.273
281.503
262.858
245.417
229.221
214.285
200.598
188.131
176.841
166.675
157.573
149.467
142.29
135.971
130.438
125.622
121.453
117.867
114.799
112.191
109.986
108.135
106.589
105.307
104.25
103.384
102.678
102.108
101.649
101.282
100.991
100.762
100.582
100.442
100.334
100.25
100.187
100.138
100.102
100.075
100.054
100.039
100.028
100.02
100.014
100.01
100.007
100.005
100.003
100.002
100.002
100.001
100.001
100.001
100
100
100
100
100
100
100
100
100
100
100
100
100
100
100
100
100
388.92
366.878
345.185
324.054
303.67
284.188
265.726
248.371
232.177
217.173
203.364
190.734
179.255
168.883
159.569
151.252
143.87
137.357
131.643
126.66
122.341
118.62
115.434
112.722
110.427
108.499
106.887
105.549
104.446
103.541
102.804
102.207
101.727
101.343
101.039
100.799
100.61
100.463
100.35
100.263
100.196
100.145
100.107
100.078
100.057
100.041
100.03
100.021
100.015
100.011
100.007
100.005
100.004
100.002
100.002
100.001
100.001
100.001
100
100
100
100
100
100
100
100
100
100
100
100
100
100
100
100
100
389.172
367.621
346.382
325.646
305.585
286.345
268.046
250.778
234.603
219.56
205.665
192.914
181.288
170.754
161.269
152.78
145.229
138.553
132.686
127.563
123.116
119.28
115.991
113.188
110.816
108.82
107.151
105.764
104.619
103.68
102.915
102.295
101.797
101.398
101.081
100.831
100.635
100.483
100.364
100.274
100.204
100.151
100.112
100.082
100.059
100.043
100.031
100.022
100.016
100.011
100.008
100.005
100.004
100.003
100.002
100.001
100.001
100.001
100
100
100
100
100
100
100
100
100
100
100
100
100
100
100
100
100
389.371
368.208
347.329
326.911
307.114
288.078
269.921
252.735
236.588
221.525
207.57
194.729
182.991
172.329
162.707
154.077
146.387
139.577
133.583
128.341
123.786
119.851
116.475
113.595
111.155
109.101
107.382
105.953
104.772
103.804
103.014
102.374
101.859
101.447
101.119
100.861
100.658
100.5
100.378
100.283
100.211
100.157
100.116
100.085
100.062
100.045
100.032
100.023
100.016
100.012
100.008
100.006
100.004
100.003
100.002
100.001
100.001
100.001
100
100
100
100
100
100
100
100
100
100
100
100
100
100
100
100
100
389.528
368.673
348.081
327.917
308.335
289.469
271.433
254.321
238.205
223.135
209.14
196.233
184.408
173.646
163.914
155.172
147.369
140.448
134.348
129.008
124.361
120.344
116.893
113.947
111.45
109.345
107.583
106.117
104.906
103.911
103.1
102.442
101.913
101.489
101.152
100.886
100.678
100.515
100.389
100.292
100.218
100.162
100.119
100.087
100.064
100.046
100.033
100.024
100.017
100.012
100.008
100.006
100.004
100.003
100.002
100.001
100.001
100.001
100
100
100
100
100
100
100
100
100
100
100
100
100
100
100
100
100
389.652
369.041
348.677
328.718
309.31
290.583
272.65
255.604
239.52
224.449
210.428
197.472
185.581
174.741
164.923
156.09
148.194
141.183
134.997
129.574
124.851
120.764
117.251
114.25
111.703
109.555
107.757
106.26
105.022
104.005
103.175
102.502
101.96
101.526
101.181
100.909
100.695
100.528
100.399
100.3
100.224
100.166
100.122
100.09
100.065
100.047
100.034
100.024
100.017
100.012
100.009
100.006
100.004
100.003
100.002
100.001
100.001
100.001
100
100
100
100
100
100
100
100
100
100
100
100
100
100
100
100
100
389.751
369.332
349.15
329.355
310.088
291.475
273.627
256.639
240.584
225.518
211.48
198.488
186.547
175.646
165.76
156.854
148.884
141.799
135.542
130.051
125.265
121.121
117.555
114.507
111.919
109.735
107.906
106.382
105.121
104.086
103.24
102.554
102.001
101.558
101.207
100.928
100.71
100.54
100.408
100.306
100.229
100.17
100.125
100.092
100.067
100.048
100.035
100.025
100.018
100.012
100.009
100.006
100.004
100.003
100.002
100.001
100.001
100.001
100
100
100
100
100
100
100
100
100
100
100
100
100
100
100
100
100
389.829
369.563
349.525
329.861
310.707
292.187
274.41
257.47
241.442
226.383
212.334
199.317
187.338
176.39
166.45
157.487
149.457
142.313
135.997
130.451
125.614
121.421
117.812
114.725
112.102
109.888
108.032
106.486
105.206
104.154
103.295
102.598
102.036
101.586
101.228
100.945
100.723
100.55
100.415
100.312
100.233
100.173
100.127
100.093
100.068
100.049
100.035
100.025
100.018
100.013
100.009
100.006
100.004
100.003
100.002
100.001
100.001
100.001
100
100
100
100
100
100
100
100
100
100
100
100
100
100
100
100
100
389.89
369.746
349.822
330.262
311.199
292.754
275.035
258.136
242.132
227.081
213.026
199.99
187.982
176.998
167.016
158.007
149.93
142.738
136.375
130.784
125.904
121.672
118.027
114.908
112.256
110.017
108.139
106.574
105.278
104.213
103.342
102.636
102.066
101.61
101.247
100.96
100.734
100.558
100.422
100.317
100.237
100.176
100.13
100.095
100.069
100.05
100.036
100.026
100.018
100.013
100.009
100.006
100.004
100.003
100.002
100.001
100.001
100.001
100
100
100
100
100
100
100
100
100
100
100
100
100
100
100
100
100
389.939
369.89
350.057
330.58
311.589
293.204
275.533
258.668
242.684
227.641
213.582
200.534
188.505
177.492
167.477
158.432
150.318
143.087
136.687
131.059
126.145
121.881
118.206
115.06
112.385
110.125
108.229
106.648
105.339
104.262
103.382
102.668
102.091
101.63
101.262
100.972
100.744
100.566
100.427
100.321
100.24
100.178
100.131
100.096
100.07
100.051
100.037
100.026
100.019
100.013
100.009
100.006
100.004
100.003
100.002
100.001
100.001
100.001
100
100
100
100
100
100
100
100
100
100
100
100
100
100
100
100
100
389.977
370.003
350.242
330.83
311.897
293.561
275.928
259.091
243.124
228.089
214.029
200.971
188.926
177.891
167.852
158.778
150.634
143.373
136.942
131.285
126.343
122.053
118.354
115.187
112.492
110.215
108.304
106.71
105.39
104.303
103.415
102.694
102.113
101.646
101.275
100.982
100.752
100.572
100.432
100.325
100.242
100.18
100.133
100.097
100.071
100.051
100.037
100.026
100.019
100.013
100.009
100.007
100.005
100.003
100.002
100.001
100.001
100.001
100
100
100
100
100
100
100
100
100
100
100
100
100
100
100
100
100
390.007
370.092
350.387
331.027
312.14
293.842
276.241
259.426
243.474
228.446
214.385
201.32
189.263
178.213
168.153
159.058
150.89
143.604
137.15
131.47
126.504
122.194
118.476
115.291
112.58
110.289
108.365
106.761
105.432
104.337
103.443
102.716
102.13
101.66
101.286
100.991
100.758
100.577
100.436
100.328
100.245
100.182
100.134
100.098
100.072
100.052
100.037
100.027
100.019
100.013
100.009
100.007
100.005
100.003
100.002
100.001
100.001
100.001
100
100
100
100
100
100
100
100
100
100
100
100
100
100
100
100
100
390.031
370.162
350.501
331.182
312.33
294.064
276.487
259.69
243.751
228.729
214.668
201.599
189.533
178.47
168.395
159.283
151.096
143.792
137.318
131.619
126.636
122.308
118.575
115.375
112.652
110.35
108.416
106.803
105.466
104.366
103.466
102.735
102.145
101.672
101.296
100.998
100.764
100.581
100.439
100.33
100.247
100.183
100.135
100.099
100.072
100.052
100.038
100.027
100.019
100.014
100.01
100.007
100.005
100.003
100.002
100.001
100.001
100.001
100
100
100
100
100
100
100
100
100
100
100
100
100
100
100
100
100
390.049
370.216
350.59
331.303
312.48
294.237
276.68
259.898
243.968
228.951
214.892
201.819
189.747
178.674
168.588
159.462
151.261
143.942
137.453
131.739
126.742
122.401
118.655
115.444
112.711
110.399
108.458
106.837
105.494
104.389
103.484
102.75
102.157
101.682
101.303
101.004
100.768
100.585
100.442
100.332
100.248
100.184
100.136
100.1
100.073
100.053
100.038
100.027
100.019
100.014
100.01
100.007
100.005
100.003
100.002
100.001
100.001
100.001
100
100
100
100
100
100
100
100
100
100
100
100
100
100
100
100
100
390.063
370.259
350.659
331.397
312.596
294.373
276.831
260.061
244.139
229.127
215.068
201.993
189.916
178.836
168.741
159.605
151.393
144.062
137.561
131.836
126.827
122.475
118.72
115.5
112.758
110.439
108.491
106.865
105.517
104.408
103.5
102.762
102.167
101.689
101.309
101.008
100.772
100.587
100.444
100.334
100.249
100.185
100.137
100.1
100.073
100.053
100.038
100.027
100.019
100.014
100.01
100.007
100.005
100.003
100.002
100.002
100.001
100.001
100
100
100
100
100
100
100
100
100
100
100
100
100
100
100
100
100
390.074
370.292
350.713
331.47
312.686
294.478
276.948
260.187
244.272
229.263
215.206
202.13
190.049
178.964
168.861
159.717
151.497
144.157
137.647
131.912
126.895
122.535
118.771
115.544
112.796
110.471
108.518
106.888
105.536
104.423
103.512
102.772
102.175
101.696
101.314
101.012
100.775
100.59
100.446
100.335
100.25
100.186
100.137
100.101
100.073
100.053
100.038
100.027
100.019
100.014
100.01
100.007
100.005
100.003
100.002
100.002
100.001
100.001
100
100
100
100
100
100
100
100
100
100
100
100
100
100
100
100
100
390.083
370.317
350.754
331.526
312.756
294.559
277.039
260.286
244.376
229.37
215.313
202.236
190.152
179.063
168.956
159.806
151.579
144.231
137.715
131.973
126.949
122.582
118.812
115.58
112.826
110.497
108.539
106.906
105.551
104.435
103.522
102.78
102.181
101.701
101.318
101.016
100.778
100.592
100.447
100.336
100.251
100.187
100.138
100.101
100.074
100.053
100.038
100.027
100.02
100.014
100.01
100.007
100.005
100.003
100.002
100.002
100.001
100.001
100
100
100
100
100
100
100
100
100
100
100
100
100
100
100
100
100
390.089
370.336
350.786
331.569
312.81
294.622
277.109
260.362
244.456
229.452
215.397
202.318
190.233
179.141
169.03
159.875
151.643
144.29
137.768
132.021
126.991
122.619
118.845
115.608
112.85
110.517
108.557
106.92
105.563
104.445
103.53
102.786
102.186
101.705
101.322
101.018
100.78
100.593
100.449
100.337
100.252
100.187
100.138
100.101
100.074
100.053
100.039
100.028
100.02
100.014
100.01
100.007
100.005
100.003
100.002
100.002
100.001
100.001
100
100
100
100
100
100
100
100
100
100
100
100
100
100
100
100
100
390.094
370.351
350.811
331.603
312.851
294.67
277.163
260.42
244.517
229.516
215.461
202.382
190.295
179.201
169.087
159.929
151.692
144.336
137.809
132.058
127.024
122.649
118.87
115.63
112.869
110.533
108.57
106.931
105.572
104.452
103.536
102.792
102.19
101.708
101.324
101.02
100.781
100.594
100.45
100.338
100.253
100.188
100.138
100.101
100.074
100.054
100.039
100.028
100.02
100.014
100.01
100.007
100.005
100.003
100.002
100.002
100.001
100.001
100
100
100
100
100
100
100
100
100
100
100
100
100
100
100
100
100
390.098
370.363
350.829
331.628
312.882
294.707
277.204
260.465
244.564
229.564
215.51
202.431
190.343
179.247
169.131
159.97
151.731
144.371
137.841
132.087
127.05
122.671
118.89
115.647
112.884
110.546
108.581
106.94
105.579
104.458
103.541
102.796
102.194
101.711
101.326
101.022
100.782
100.595
100.45
100.339
100.253
100.188
100.139
100.102
100.074
100.054
100.039
100.028
100.02
100.014
100.01
100.007
100.005
100.003
100.002
100.002
100.001
100.001
100
100
100
100
100
100
100
100
100
100
100
100
100
100
100
100
100
390.101
370.371
350.843
331.647
312.906
294.735
277.235
260.499
244.6
229.601
215.548
202.469
190.38
179.283
169.165
160.002
151.761
144.398
137.866
132.109
127.07
122.689
118.905
115.66
112.895
110.556
108.589
106.947
105.585
104.463
103.545
102.799
102.196
101.713
101.328
101.023
100.783
100.596
100.451
100.339
100.253
100.188
100.139
100.102
100.074
100.054
100.039
100.028
100.02
100.014
100.01
100.007
100.005
100.003
100.002
100.002
100.001
100.001
100
100
100
100
100
100
100
100
100
100
100
100
100
100
100
100
100
390.103
370.378
350.854
331.662
312.924
294.756
277.259
260.524
244.628
229.63
215.576
202.497
190.408
179.31
169.19
160.026
151.783
144.419
137.885
132.126
127.085
122.702
118.917
115.67
112.904
110.563
108.595
106.952
105.589
104.467
103.548
102.801
102.198
101.714
101.329
101.024
100.784
100.597
100.451
100.339
100.254
100.188
100.139
100.102
100.074
100.054
100.039
100.028
100.02
100.014
100.01
100.007
100.005
100.003
100.002
100.002
100.001
100.001
100
100
100
100
100
100
100
100
100
100
100
100
100
100
100
100
100
390.105
370.383
350.862
331.673
312.938
294.772
277.277
260.544
244.648
229.651
215.598
202.519
190.429
179.33
169.21
160.045
151.8
144.435
137.9
132.139
127.097
122.713
118.926
115.678
112.911
110.569
108.6
106.956
105.593
104.469
103.55
102.803
102.2
101.716
101.33
101.025
100.785
100.597
100.452
100.34
100.254
100.188
100.139
100.102
100.074
100.054
100.039
100.028
100.02
100.014
100.01
100.007
100.005
100.003
100.002
100.002
100.001
100.001
100
100
100
100
100
100
100
100
100
100
100
100
100
100
100
100
100
390.106
370.386
350.868
331.681
312.948
294.784
277.29
260.558
244.663
229.667
215.614
202.535
190.445
179.346
169.225
160.059
151.814
144.447
137.911
132.149
127.106
122.721
118.933
115.684
112.916
110.573
108.604
106.959
105.595
104.472
103.552
102.804
102.201
101.716
101.331
101.025
100.785
100.598
100.452
100.34
100.254
100.189
100.139
100.102
100.074
100.054
100.039
100.028
100.02
100.014
100.01
100.007
100.005
100.003
100.002
100.002
100.001
100.001
100
100
100
100
100
100
100
100
100
100
100
100
100
100
100
100
100
390.107
370.389
350.872
331.687
312.956
294.792
277.3
260.569
244.675
229.679
215.626
202.547
190.457
179.357
169.236
160.069
151.823
144.456
137.919
132.157
127.113
122.726
118.938
115.689
112.92
110.577
108.607
106.962
105.597
104.473
103.553
102.805
102.202
101.717
101.331
101.026
100.785
100.598
100.452
100.34
100.254
100.189
100.139
100.102
100.074
100.054
100.039
100.028
100.02
100.014
100.01
100.007
100.005
100.003
100.002
100.002
100.001
100.001
100
100
100
100
100
100
100
100
100
100
100
100
100
100
100
100
100
390.108
370.391
350.876
331.691
312.961
294.799
277.308
260.577
244.683
229.687
215.635
202.556
190.466
179.366
169.244
160.077
151.831
144.463
137.925
132.162
127.118
122.731
118.942
115.692
112.923
110.579
108.609
106.964
105.599
104.475
103.554
102.806
102.202
101.718
101.332
101.026
100.786
100.598
100.452
100.34
100.254
100.189
100.139
100.102
100.074
100.054
100.039
100.028
100.02
100.014
100.01
100.007
100.005
100.003
100.002
100.002
100.001
100.001
100
100
100
100
100
100
100
100
100
100
100
100
100
100
100
100
100
390.108
370.393
350.878
331.695
312.965
294.804
277.313
260.583
244.69
229.694
215.642
202.563
190.472
179.372
169.25
160.083
151.836
144.468
137.93
132.167
127.121
122.734
118.945
115.695
112.925
110.581
108.61
106.965
105.6
104.475
103.555
102.807
102.203
101.718
101.332
101.026
100.786
100.598
100.453
100.34
100.254
100.189
100.139
100.102
100.075
100.054
100.039
100.028
100.02
100.014
100.01
100.007
100.005
100.003
100.002
100.002
100.001
100.001
100
100
100
100
100
100
100
100
100
100
100
100
100
100
100
100
100
390.109
370.394
350.88
331.697
312.968
294.807
277.317
260.587
244.694
229.699
215.646
202.567
190.477
179.377
169.255
160.087
151.84
144.472
137.933
132.17
127.124
122.737
118.947
115.697
112.927
110.582
108.612
106.966
105.601
104.476
103.556
102.807
102.203
101.718
101.332
101.026
100.786
100.598
100.453
100.34
100.254
100.189
100.139
100.102
100.075
100.054
100.039
100.028
100.02
100.014
100.01
100.007
100.005
100.003
100.002
100.002
100.001
100.001
100
100
100
100
100
100
100
100
100
100
100
100
100
100
100
100
100
390.109
370.394
350.881
331.699
312.97
294.81
277.32
260.591
244.698
229.702
215.65
202.571
190.481
179.38
169.258
160.09
151.843
144.474
137.935
132.172
127.126
122.738
118.949
115.698
112.928
110.584
108.613
106.967
105.601
104.477
103.556
102.808
102.203
101.719
101.332
101.027
100.786
100.598
100.453
100.34
100.254
100.189
100.139
100.102
100.075
100.054
100.039
100.028
100.02
100.014
100.01
100.007
100.005
100.003
100.002
100.002
100.001
100.001
100
100
100
100
100
100
100
100
100
100
100
100
100
100
100
100
100
390.109
370.395
350.882
331.7
312.972
294.812
277.322
260.593
244.7
229.705
215.653
202.574
190.483
179.383
169.26
160.092
151.845
144.476
137.937
132.174
127.128
122.74
118.95
115.699
112.929
110.584
108.613
106.967
105.602
104.477
103.556
102.808
102.204
101.719
101.333
101.027
100.786
100.598
100.453
100.34
100.254
100.189
100.139
100.102
100.075
100.054
100.039
100.028
100.02
100.014
100.01
100.007
100.005
100.003
100.002
100.002
100.001
100.001
100
100
100
100
100
100
100
100
100
100
100
100
100
100
100
100
100
390.109
370.395
350.883
331.701
312.973
294.813
277.324
260.595
244.702
229.707
215.654
202.576
190.485
179.385
169.262
160.094
151.847
144.478
137.939
132.175
127.129
122.741
118.951
115.7
112.93
110.585
108.614
106.968
105.602
104.477
103.557
102.808
102.204
101.719
101.333
101.027
100.786
100.599
100.453
100.34
100.254
100.189
100.139
100.102
100.075
100.054
100.039
100.028
100.02
100.014
100.01
100.007
100.005
100.003
100.002
100.002
100.001
100.001
100
100
100
100
100
100
100
100
100
100
100
100
100
100
100
100
100
390.109
370.396
350.883
331.702
312.974
294.814
277.325
260.596
244.703
229.708
215.656
202.577
190.487
179.386
169.263
160.095
151.848
144.479
137.94
132.176
127.129
122.741
118.952
115.7
112.93
110.585
108.614
106.968
105.602
104.478
103.557
102.808
102.204
101.719
101.333
101.027
100.786
100.599
100.453
100.34
100.254
100.189
100.139
100.102
100.075
100.054
100.039
100.028
100.02
100.014
100.01
100.007
100.005
100.003
100.002
100.002
100.001
100.001
100
100
100
100
100
100
100
100
100
100
100
100
100
100
100
100
100
390.109
370.396
350.884
331.702
312.975
294.815
277.325
260.597
244.704
229.709
215.657
202.578
190.487
179.387
169.264
160.096
151.849
144.48
137.94
132.176
127.13
122.742
118.952
115.701
112.93
110.586
108.614
106.968
105.603
104.478
103.557
102.808
102.204
101.719
101.333
101.027
100.786
100.599
100.453
100.34
100.254
100.189
100.139
100.102
100.075
100.054
100.039
100.028
100.02
100.014
100.01
100.007
100.005
100.003
100.002
100.002
100.001
100.001
100
100
100
100
100
100
100
100
100
100
100
100
100
100
100
100
100
390.109
370.396
350.884
331.703
312.975
294.815
277.326
260.597
244.705
229.71
215.657
202.579
190.488
179.388
169.265
160.097
151.849
144.48
137.941
132.177
127.13
122.742
118.952
115.701
112.931
110.586
108.614
106.968
105.603
104.478
103.557
102.809
102.204
101.719
101.333
101.027
100.786
100.599
100.453
100.34
100.254
100.189
100.139
100.102
100.075
100.054
100.039
100.028
100.02
100.014
100.01
100.007
100.005
100.003
100.002
100.002
100.001
100.001
100
100
100
100
100
100
100
100
100
100
100
100
100
100
100
100
100
390.11
370.396
350.884
331.703
312.975
294.816
277.326
260.598
244.705
229.71
215.658
202.579
190.489
179.388
169.265
160.097
151.85
144.481
137.941
132.177
127.131
122.743
118.953
115.701
112.931
110.586
108.615
106.968
105.603
104.478
103.557
102.809
102.204
101.719
101.333
101.027
100.786
100.599
100.453
100.34
100.254
100.189
100.139
100.102
100.075
100.054
100.039
100.028
100.02
100.014
100.01
100.007
100.005
100.003
100.002
100.002
100.001
100.001
100
100
100
100
100
100
100
100
100
100
100
100
100
100
100
100
100
390.11
370.396
350.884
331.703
312.976
294.816
277.327
260.598
244.706
229.71
215.658
202.579
190.489
179.388
169.266
160.097
151.85
144.481
137.941
132.177
127.131
122.743
118.953
115.701
112.931
110.586
108.615
106.968
105.603
104.478
103.557
102.809
102.204
101.719
101.333
101.027
100.786
100.599
100.453
100.34
100.254
100.189
100.139
100.102
100.075
100.054
100.039
100.028
100.02
100.014
100.01
100.007
100.005
100.003
100.002
100.002
100.001
100.001
100
100
100
100
100
100
100
100
100
100
100
100
100
100
100
100
100
390.11
370.396
350.884
331.703
312.976
294.816
277.327
260.598
244.706
229.711
215.659
202.58
190.489
179.389
169.266
160.098
151.85
144.481
137.941
132.177
127.131
122.743
118.953
115.702
112.931
110.586
108.615
106.968
105.603
104.478
103.557
102.809
102.204
101.719
101.333
101.027
100.786
100.599
100.453
100.34
100.254
100.189
100.139
100.102
100.075
100.054
100.039
100.028
100.02
100.014
100.01
100.007
100.005
100.003
100.002
100.002
100.001
100.001
100
100
100
100
100
100
100
100
100
100
100
100
100
100
100
100
100
390.11
370.396
350.884
331.703
312.976
294.816
277.327
260.598
244.706
229.711
215.659
202.58
190.489
179.389
169.266
160.098
151.85
144.481
137.942
132.177
127.131
122.743
118.953
115.702
112.931
110.586
108.615
106.969
105.603
104.478
103.557
102.809
102.204
101.719
101.333
101.027
100.786
100.599
100.453
100.34
100.254
100.189
100.139
100.102
100.075
100.054
100.039
100.028
100.02
100.014
100.01
100.007
100.005
100.003
100.002
100.002
100.001
100.001
100
100
100
100
100
100
100
100
100
100
100
100
100
100
100
100
100
390.11
370.396
350.884
331.703
312.976
294.816
277.327
260.598
244.706
229.711
215.659
202.58
190.489
179.389
169.266
160.098
151.85
144.481
137.942
132.178
127.131
122.743
118.953
115.702
112.931
110.586
108.615
106.969
105.603
104.478
103.557
102.809
102.204
101.719
101.333
101.027
100.787
100.599
100.453
100.34
100.254
100.189
100.139
100.102
100.075
100.054
100.039
100.028
100.02
100.014
100.01
100.007
100.005
100.003
100.002
100.002
100.001
100.001
100
100
100
100
100
100
100
100
100
100
100
100
100
100
100
100
100
390.11
370.396
350.884
331.703
312.976
294.816
277.327
260.598
244.706
229.711
215.659
202.58
190.49
179.389
169.266
160.098
151.85
144.481
137.942
132.178
127.131
122.743
118.953
115.702
112.931
110.586
108.615
106.969
105.603
104.478
103.557
102.809
102.204
101.719
101.333
101.027
100.787
100.599
100.453
100.34
100.254
100.189
100.139
100.102
100.075
100.054
100.039
100.028
100.02
100.014
100.01
100.007
100.005
100.003
100.002
100.002
100.001
100.001
100
100
100
100
100
100
100
100
100
100
100
100
100
100
100
100
100
390.11
370.396
350.884
331.703
312.976
294.816
277.327
260.598
244.706
229.711
215.659
202.58
190.49
179.389
169.266
160.098
151.85
144.481
137.942
132.178
127.131
122.743
118.953
115.702
112.931
110.586
108.615
106.969
105.603
104.478
103.557
102.809
102.204
101.719
101.333
101.027
100.787
100.599
100.453
100.34
100.254
100.189
100.139
100.102
100.075
100.054
100.039
100.028
100.02
100.014
100.01
100.007
100.005
100.003
100.002
100.002
100.001
100.001
100
100
100
100
100
100
100
100
100
100
100
100
100
100
100
100
100
390.11
370.396
350.884
331.703
312.976
294.816
277.327
260.598
244.706
229.711
215.659
202.58
190.49
179.389
169.266
160.098
151.85
144.481
137.942
132.178
127.131
122.743
118.953
115.702
112.931
110.586
108.615
106.969
105.603
104.478
103.557
102.809
102.204
101.719
101.333
101.027
100.787
100.599
100.453
100.34
100.254
100.189
100.139
100.102
100.075
100.054
100.039
100.028
100.02
100.014
100.01
100.007
100.005
100.003
100.002
100.002
100.001
100.001
100
100
100
100
100
100
100
100
100
100
100
100
100
100
100
100
100
390.11
370.396
350.884
331.703
312.976
294.816
277.327
260.599
244.706
229.711
215.659
202.58
190.49
179.389
169.266
160.098
151.85
144.481
137.942
132.178
127.131
122.743
118.953
115.702
112.931
110.586
108.615
106.969
105.603
104.478
103.557
102.809
102.204
101.719
101.333
101.027
100.787
100.599
100.453
100.34
100.254
100.189
100.139
100.102
100.075
100.054
100.039
100.028
100.02
100.014
100.01
100.007
100.005
100.003
100.002
100.002
100.001
100.001
100
100
100
100
100
100
100
100
100
100
100
100
100
100
100
100
100
390.11
370.396
350.884
331.703
312.976
294.816
277.327
260.599
244.706
229.711
215.659
202.58
190.49
179.389
169.266
160.098
151.85
144.481
137.942
132.178
127.131
122.743
118.953
115.702
112.931
110.586
108.615
106.969
105.603
104.478
103.557
102.809
102.204
101.719
101.333
101.027
100.787
100.599
100.453
100.34
100.254
100.189
100.139
100.102
100.075
100.054
100.039
100.028
100.02
100.014
100.01
100.007
100.005
100.003
100.002
100.002
100.001
100.001
100
100
100
100
100
100
100
100
100
100
100
100
100
100
100
100
100
390.11
370.396
350.884
331.703
312.976