/*--------------------------------*- C++ -*----------------------------------*\
  =========                 |
  \\      /  F ield         | OpenFOAM: The Open Source CFD Toolbox
   \\    /   O peration     | Website:  https://openfoam.org
    \\  /    A nd           | Version:  10
     \\/     M anipulation  |
\*---------------------------------------------------------------------------*/
FoamFile
{
    format      ascii;
    class       volScalarField;
    location    "162";
    object      gradTx;
}
// * * * * * * * * * * * * * * * * * * * * * * * * * * * * * * * * * * * * * //

dimensions      [0 -1 0 1 0 0 0];

internalField   nonuniform List<scalar> 
11250
(
14274.7
8029.4
5188.5
3662.29
2725.61
2092.32
1634.64
1288.83
1019.92
807.067
636.911
500.302
390.609
302.779
232.813
177.455
134.008
100.217
74.1941
54.3601
39.4067
28.2589
20.0429
14.0583
9.75038
6.68635
4.5332
3.03838
2.01317
1.31856
0.853651
0.546262
0.345488
0.215942
0.133371
0.0813837
0.049053
0.0291962
0.017154
0.00994493
0.00568619
0.00320466
0.0017792
0.000972447
0.000522905
0.000276444
0.000143596
7.32416e-05
3.66617e-05
1.80005e-05
8.66521e-06
4.08817e-06
1.88974e-06
8.55602e-07
3.7936e-07
1.64688e-07
7.00017e-08
2.91176e-08
1.18532e-08
4.72305e-09
1.82205e-09
6.88206e-10
2.51354e-10
6.0369e-11
3.07333e-11
-1.09762e-12
-1.09762e-12
0
1.09762e-12
0
-5.48809e-12
0
-7.68332e-12
0
-9.87856e-12
4070.84
4629
3880.29
3081.47
2432.83
1928.8
1535.91
1225.7
977.835
778.162
616.635
485.874
380.246
295.297
227.399
173.538
131.182
98.1854
72.7406
53.3269
38.6776
27.7482
19.6883
13.8142
9.58395
6.57395
4.45803
2.98863
1.98058
1.29744
0.840112
0.537678
0.340106
0.212608
0.13133
0.0801495
0.0483165
0.0287627
0.0169026
0.00980133
0.00560551
0.00316013
0.00175507
0.000959633
0.000516241
0.000273055
0.000141912
7.24255e-05
3.62763e-05
1.78234e-05
8.58607e-06
4.05389e-06
1.87534e-06
8.49793e-07
3.77095e-07
1.63845e-07
6.96899e-08
2.90155e-08
1.18159e-08
4.72415e-09
1.8407e-09
7.05768e-10
2.60135e-10
1.16347e-10
3.7319e-11
2.19523e-12
-1.09762e-12
1.09762e-12
-1.09762e-12
0
-8.78094e-12
0
8.78094e-12
2.19523e-12
0
1451.81
2539.42
2628.59
2359.08
2005.89
1666.09
1367.48
1113.81
901.341
724.712
578.684
458.629
360.549
281.003
217.015
166.004
125.73
94.258
69.9268
51.3241
37.2623
26.7561
18.9988
13.3393
9.25984
6.35493
4.31151
2.8916
1.917
1.25621
0.813672
0.520908
0.32959
0.206089
0.127338
0.0777346
0.0468748
0.0279137
0.0164098
0.00951971
0.00544717
0.00307264
0.00170762
0.000934399
0.000503099
0.000266359
0.000138578
7.08061e-05
3.55093e-05
1.74697e-05
8.42754e-06
3.98487e-06
1.84625e-06
8.37921e-07
3.72446e-07
1.62107e-07
6.90709e-08
2.88267e-08
1.17796e-08
4.71756e-09
1.85717e-09
7.13451e-10
2.65623e-10
8.8907e-11
1.09762e-12
2.19524e-12
3.29285e-12
2.19523e-12
0
0
3.29285e-12
8.78094e-12
0
-1.09762e-12
8.78094e-12
650.085
1452.12
1741.8
1728.73
1575.76
1373.76
1166.75
973.915
802.419
653.889
527.496
421.388
333.352
261.112
202.477
155.403
118.029
88.6923
65.9287
48.4718
35.243
25.3383
18.012
12.6588
8.79502
6.04054
4.10101
2.75211
1.82553
1.19687
0.775594
0.496744
0.314429
0.196687
0.121576
0.0742477
0.0447918
0.0266862
0.0156968
0.00911177
0.00521755
0.0029456
0.00163861
0.000897633
0.00048391
0.000256559
0.000133686
6.84213e-05
3.43755e-05
1.69446e-05
8.19086e-06
3.88122e-06
1.80217e-06
8.19767e-07
3.65241e-07
1.59359e-07
6.80863e-08
2.84733e-08
1.16754e-08
4.68353e-09
1.83851e-09
6.95889e-10
2.68916e-10
1.00981e-10
3.51238e-11
1.4269e-11
0
1.09762e-12
0
2.19524e-12
5.48809e-12
0
-1.09762e-12
-1.09762e-12
-5.48809e-12
347.746
880.863
1163.72
1246.31
1204.4
1097.59
963.957
825.365
693.396
573.625
468.242
377.574
300.947
237.176
184.842
142.461
108.58
81.8334
60.984
44.9337
32.7319
23.5714
16.78
11.8078
8.21294
5.64636
3.83679
2.57685
1.71051
1.1222
0.727642
0.466292
0.29531
0.184821
0.1143
0.069841
0.042157
0.025132
0.0147929
0.00859403
0.00492567
0.00278383
0.00155055
0.000850605
0.000459296
0.000243948
0.000127366
6.53275e-05
3.28973e-05
1.62559e-05
7.87832e-06
3.74321e-06
1.74292e-06
7.95078e-07
3.55261e-07
1.55464e-07
6.66232e-08
2.79344e-08
1.14712e-08
4.61548e-09
1.82205e-09
7.09061e-10
2.74404e-10
1.04274e-10
3.40261e-11
6.5857e-12
-1.09762e-12
-3.29285e-12
0
-1.09762e-12
-9.87856e-12
-1.20738e-11
-7.68332e-12
-1.09762e-12
-1.09762e-12
208.962
563.353
791.577
895.999
907.189
858.77
777.584
682.192
584.35
490.988
405.838
330.598
265.707
210.847
165.266
127.987
97.9454
74.075
55.3667
40.8999
29.8601
21.5454
15.3641
10.8278
7.54148
5.19097
3.53114
2.37387
1.57715
1.03553
0.671937
0.430888
0.273062
0.171003
0.105819
0.0646995
0.0390796
0.0233145
0.0137345
0.00798676
0.00458268
0.0025933
0.00144657
0.000794908
0.000430044
0.000228899
0.000119791
6.15989e-05
3.11048e-05
1.54148e-05
7.49351e-06
3.57167e-06
1.6685e-06
7.63673e-07
3.42372e-07
1.50337e-07
6.46519e-08
2.7233e-08
1.12319e-08
4.52548e-09
1.7968e-09
7.06866e-10
2.73307e-10
9.00046e-11
3.07333e-11
5.48809e-12
0
0
0
-2.19524e-12
4.39047e-12
1.09762e-12
-4.39047e-12
0
0
134.81
375.268
548.514
646.007
678.213
662.555
616.114
552.67
482.192
411.356
344.319
283.429
229.791
183.685
144.868
112.78
86.6949
65.8195
49.3603
36.5687
26.7657
19.3557
13.8297
9.76348
6.81072
4.69447
3.19738
2.1519
1.43113
0.940529
0.610809
0.391996
0.248599
0.155794
0.0964747
0.0590281
0.0356808
0.0213044
0.012562
0.00731273
0.00420112
0.00238081
0.00133024
0.000732377
0.000397068
0.000211855
0.000111164
5.73269e-05
2.90365e-05
1.44366e-05
7.04179e-06
3.36815e-06
1.57909e-06
7.25407e-07
3.26437e-07
1.43869e-07
6.21153e-08
2.62561e-08
1.08686e-08
4.39047e-09
1.7529e-09
6.78328e-10
2.5355e-10
1.00981e-10
5.70761e-11
2.63428e-11
5.48809e-12
0
-1.20738e-11
1.09762e-12
1.31714e-11
2.19524e-12
0
-7.68332e-12
0
90.8334
257.394
386.067
467.832
505.042
506.179
481.499
440.498
390.855
338.252
286.595
238.361
194.956
157.01
124.626
97.5571
75.3505
57.4432
43.2338
32.1308
23.5827
17.0956
12.2414
8.65886
6.0506
4.177
2.84889
1.91978
1.27821
0.840901
0.546626
0.351114
0.222855
0.139769
0.086618
0.0530383
0.0320862
0.019175
0.0113177
0.00659584
0.00379428
0.00215355
0.00120541
0.000665004
0.000361375
0.000193309
0.000101721
5.26184e-05
2.67393e-05
1.33405e-05
6.53067e-06
3.1353e-06
1.47551e-06
6.80431e-07
3.07408e-07
1.3603e-07
5.89618e-08
2.50246e-08
1.03933e-08
4.2368e-09
1.69582e-09
6.57473e-10
2.25012e-10
8.67118e-11
2.63428e-11
1.53666e-11
6.5857e-12
-1.09762e-12
0
1.09762e-12
-1.09762e-12
0
6.5857e-12
0
4.39047e-12
62.8842
180.131
274.943
340.144
375.156
383.846
372.152
346.336
311.982
273.582
234.475
196.959
162.484
131.836
105.322
82.911
64.3531
49.2704
37.2228
27.7557
20.4316
14.8501
10.6583
7.55477
5.28897
3.65736
2.49826
1.68581
1.12383
0.740178
0.48165
0.309672
0.196726
0.123485
0.0765885
0.046935
0.0284178
0.0169981
0.010043
0.00585975
0.00337538
0.0019188
0.00107597
0.000594841
0.000324017
0.000173786
9.17157e-05
4.75934e-05
2.42675e-05
1.21504e-05
5.97005e-06
2.87704e-06
1.35921e-06
6.29258e-07
2.85397e-07
1.26781e-07
5.51465e-08
2.35011e-08
9.80282e-09
4.01948e-09
1.60472e-09
6.37716e-10
2.46964e-10
7.35404e-11
5.48809e-12
-1.09762e-12
9.87856e-12
2.19523e-12
1.31714e-11
-1.09762e-12
2.19523e-12
5.48809e-12
6.58571e-12
8.78094e-12
2.19524e-12
44.2812
127.745
197.385
247.958
278.055
289.264
284.942
269.106
245.67
218.023
188.85
160.128
133.193
108.856
87.5196
69.2841
54.0429
41.5579
31.518
23.5828
17.4131
12.6908
9.13088
6.48641
4.55004
3.15202
2.15657
1.45737
0.972843
0.641511
0.417907
0.268962
0.171023
0.107445
0.0666956
0.0409059
0.024788
0.0148402
0.00877664
0.00512664
0.00295695
0.00168351
0.000945718
0.00052391
0.000286051
0.000153827
8.14176e-05
4.23822e-05
2.16828e-05
1.08945e-05
5.37246e-06
2.59872e-06
1.23237e-06
5.72715e-07
2.60713e-07
1.16228e-07
5.0711e-08
2.16659e-08
9.05864e-09
3.69897e-09
1.47849e-09
5.79542e-10
2.32695e-10
8.23213e-11
3.51238e-11
0
-6.58571e-12
0
-1.09762e-12
0
1.09762e-12
0
-6.58571e-12
0
1.09762e-12
31.5059
91.3386
142.389
180.943
205.551
216.727
216.328
206.891
191.095
171.414
149.924
128.233
107.496
88.467
71.5681
56.9689
44.6552
34.4894
26.2595
19.717
14.6043
10.6738
7.69914
5.48185
3.85333
2.67439
1.83289
1.24055
0.829271
0.547534
0.3571
0.230069
0.146433
0.0920782
0.0572041
0.0351124
0.0212943
0.0127591
0.00755271
0.00441626
0.00255027
0.00145402
0.000818152
0.000454114
0.00024849
0.000133961
7.10977e-05
3.71208e-05
1.90516e-05
9.60453e-06
4.75277e-06
2.30712e-06
1.09801e-06
5.12074e-07
2.3394e-07
1.04655e-07
4.58091e-08
1.96353e-08
8.22335e-09
3.3642e-09
1.35556e-09
5.36735e-10
2.06352e-10
9.54927e-11
5.70761e-11
6.5857e-12
-3.62214e-11
-1.09762e-12
0
0
-3.29285e-12
-5.48809e-12
0
-2.19523e-12
-3.29285e-12
22.5452
65.5949
102.935
131.968
151.457
161.441
162.927
157.499
146.965
133.089
117.428
101.246
85.4925
70.8219
57.6336
46.122
36.3266
28.178
21.5376
16.2282
12.0582
8.83813
6.39156
4.56152
3.21324
2.23445
1.53408
1.03997
0.6962
0.460279
0.300551
0.193845
0.123497
0.077724
0.048325
0.0296845
0.0180153
0.0108022
0.00639931
0.0037451
0.00216489
0.00123578
0.000696347
0.000387158
0.000212266
0.000114687
6.10193e-05
3.19451e-05
1.64429e-05
8.31475e-06
4.12761e-06
2.01016e-06
9.59792e-07
4.49073e-07
2.05821e-07
9.23546e-08
4.0557e-08
1.74324e-08
7.3244e-09
3.01845e-09
1.22275e-09
4.87342e-10
2.08547e-10
9.43951e-11
2.52452e-11
1.4269e-11
-2.19524e-12
-1.09762e-12
0
1.09762e-12
0
0
4.39047e-12
0
1.09762e-12
16.1714
47.1774
74.4089
96.0574
111.148
119.534
121.749
118.774
111.816
102.114
90.8115
78.8716
67.0488
55.886
45.7349
36.7871
29.1088
22.6744
17.3972
13.154
9.80478
7.20706
5.22559
3.73825
2.63902
1.83877
1.26469
0.858757
0.575743
0.381155
0.249186
0.16089
0.102601
0.0646272
0.0402119
0.0247171
0.0150097
0.00900518
0.00533786
0.00312592
0.00180833
0.00103319
0.000582836
0.000324482
0.000178185
9.64506e-05
5.1424e-05
2.6984e-05
1.39241e-05
7.05979e-06
3.51435e-06
1.71636e-06
8.21863e-07
3.85647e-07
1.77225e-07
7.97309e-08
3.5115e-08
1.51131e-08
6.37057e-09
2.61782e-09
1.0603e-09
4.18192e-10
1.72326e-10
7.24428e-11
2.19523e-11
3.07333e-11
2.96357e-11
-2.19523e-12
0
0
-1.09762e-12
-4.39047e-12
-8.78094e-12
1.09762e-12
6.58571e-12
11.598
33.9056
53.6885
69.69
81.1729
87.9409
90.2641
88.7492
84.1952
77.4634
69.3772
60.6567
51.8841
43.4943
35.7823
28.9215
22.9867
17.9785
13.8456
10.5042
7.85403
5.78956
4.20874
3.01799
2.13519
1.49069
1.02716
0.698622
0.469089
0.310969
0.203548
0.131564
0.0839775
0.0529386
0.032961
0.0202712
0.0123154
0.00739152
0.00438288
0.0025676
0.00148598
0.000849468
0.00047953
0.000267207
0.000146898
7.96227e-05
4.25194e-05
2.23517e-05
1.15568e-05
5.8722e-06
2.92982e-06
1.43426e-06
6.8844e-07
3.23822e-07
1.49151e-07
6.72587e-08
2.96906e-08
1.28125e-08
5.43321e-09
2.24133e-09
8.91265e-10
3.58921e-10
1.45983e-10
8.12237e-11
5.04904e-11
2.52452e-11
1.09762e-12
0
-1.09762e-12
-2.19523e-12
-6.5857e-12
4.39047e-12
0
0
0
8.30068
24.3063
38.6097
50.3393
58.9518
64.2576
66.386
65.7102
62.7569
58.1186
52.3813
46.0729
39.6332
33.4009
27.6144
22.4219
17.8963
14.0518
10.8605
8.26679
6.1999
4.58302
3.34021
2.40086
1.70227
1.19082
0.822029
0.560038
0.376605
0.249999
0.163836
0.106007
0.067724
0.0427233
0.0266156
0.0163754
0.00995117
0.00597344
0.00354223
0.00207517
0.00120102
0.000686632
0.000387686
0.000216106
0.000118871
6.44805e-05
3.44674e-05
1.81408e-05
9.39276e-06
4.78011e-06
2.38901e-06
1.17162e-06
5.63419e-07
2.65517e-07
1.22529e-07
5.53627e-08
2.44725e-08
1.05975e-08
4.5134e-09
1.89559e-09
7.7382e-10
3.11723e-10
1.28421e-10
6.0369e-11
4.93928e-11
1.97571e-11
2.41476e-11
2.19523e-12
-4.39047e-12
0
-7.68332e-12
3.29285e-12
8.78094e-12
9.87856e-12
-3.29285e-12
5.91946
17.3565
27.6407
36.1685
42.5464
46.613
48.4237
48.2075
46.31
43.1358
39.0971
34.5755
29.8968
25.3189
21.0288
17.148
13.7417
10.8299
8.39919
6.41373
4.82438
3.57598
2.61284
1.88243
1.33757
0.937545
0.648371
0.44246
0.297985
0.198075
0.129961
0.0841729
0.0538192
0.0339731
0.0211737
0.0130304
0.00791886
0.00475293
0.00281774
0.00165013
0.000954624
0.000545533
0.000307905
0.000171591
9.4375e-05
5.11978e-05
2.73756e-05
1.44158e-05
7.46952e-06
3.80485e-06
1.90366e-06
9.34734e-07
4.50102e-07
2.12401e-07
9.81896e-08
4.44217e-08
1.96693e-08
8.54276e-09
3.6397e-09
1.52898e-09
6.39911e-10
2.65623e-10
1.05371e-10
2.85381e-11
2.19523e-11
1.09762e-11
2.52452e-11
-1.09762e-12
0
1.09762e-12
-4.39047e-12
-7.68332e-12
-2.19524e-12
2.19523e-12
5.48809e-12
4.20105
12.3312
19.6791
25.8277
30.4959
33.555
35.0233
35.0406
33.8332
31.6754
28.8544
25.6424
22.2771
18.9507
15.8068
12.9415
10.4099
8.23306
6.40624
4.90692
3.70151
2.75097
2.015
1.45503
1.03607
0.727638
0.504112
0.34458
0.232409
0.154689
0.10161
0.0658732
0.0421501
0.0266211
0.0165966
0.0102142
0.00620634
0.00372356
0.00220613
0.00129094
0.000746146
0.000425977
0.000240188
0.000133728
7.34904e-05
3.9842e-05
2.12939e-05
1.12106e-05
5.80872e-06
2.95948e-06
1.48132e-06
7.27827e-07
3.50758e-07
1.65685e-07
7.66719e-08
3.47528e-08
1.54259e-08
6.70425e-09
2.84283e-09
1.18433e-09
4.75268e-10
1.97571e-10
9.11023e-11
3.18309e-11
2.19523e-12
-1.31714e-11
-1.4269e-11
-3.29285e-12
4.39047e-12
-1.09762e-12
-3.29285e-12
5.48809e-12
-3.29285e-12
-9.87856e-12
-1.09762e-12
2.96424
8.70865
13.9221
18.3179
21.6969
23.961
25.111
25.2319
24.4714
23.0143
21.059
18.7975
16.4005
14.0092
11.7311
9.64057
7.78216
6.17532
4.82015
3.70289
2.80094
2.08701
1.53234
1.10897
0.791294
0.556797
0.386434
0.264568
0.178703
0.119094
0.0783144
0.050816
0.0325371
0.0205584
0.0128188
0.00788822
0.00479101
0.00287239
0.00170016
0.000993652
0.000573496
0.000326896
0.000184018
0.000102285
5.61218e-05
3.03816e-05
1.62172e-05
8.52889e-06
4.41566e-06
2.24847e-06
1.12507e-06
5.52743e-07
2.66424e-07
1.25888e-07
5.82802e-08
2.64625e-08
1.17511e-08
5.11051e-09
2.1634e-09
9.00046e-10
3.67702e-10
1.4269e-10
5.37833e-11
3.7319e-11
9.87856e-12
4.39047e-12
-2.19524e-12
1.75619e-11
0
0
9.87856e-12
1.20738e-11
5.48809e-12
-5.48809e-12
-4.39047e-12
2.07777
6.10886
9.78028
12.8955
15.3153
16.9666
17.8432
17.9966
17.5227
16.5454
15.2006
13.6223
11.9315
10.2303
8.59789
7.09032
5.74248
4.57111
3.57857
2.7568
2.09079
1.56172
1.14932
0.833582
0.595994
0.42016
0.292108
0.200304
0.135486
0.0904045
0.0595102
0.0386461
0.024759
0.0156485
0.0097573
0.00600237
0.0036432
0.00218203
0.0012898
0.000752562
0.000433504
0.000246564
0.000138475
7.67863e-05
4.20309e-05
2.27015e-05
1.20919e-05
6.34724e-06
3.28074e-06
1.66826e-06
8.33858e-07
4.09314e-07
1.97181e-07
9.31493e-08
4.3155e-08
1.9587e-08
8.71728e-09
3.81093e-09
1.62118e-09
6.70644e-10
2.71112e-10
8.56142e-11
2.08547e-11
1.64643e-11
-8.78094e-12
2.19524e-12
-3.29285e-12
2.19523e-12
4.39047e-12
1.09762e-12
1.31714e-11
-4.39047e-12
3.29285e-12
-1.09762e-12
-1.09762e-12
1.44583
4.25361
6.8185
9.00656
10.7211
11.9094
12.5627
12.7124
12.4205
11.7696
10.8519
9.76005
8.57896
7.38123
6.22421
5.14942
4.18344
3.33991
2.62205
2.0253
1.53987
1.15295
0.850382
0.618063
0.44277
0.312711
0.217772
0.149559
0.1013
0.0676736
0.0445908
0.0289789
0.0185744
0.0117418
0.00732024
0.00450085
0.00272938
0.00163259
0.000963378
0.000560927
0.000322323
0.000182823
0.00010237
5.6588e-05
3.08763e-05
1.66244e-05
8.8284e-06
4.62124e-06
2.38255e-06
1.20885e-06
6.03094e-07
2.95566e-07
1.42201e-07
6.71061e-08
3.10757e-08
1.41e-08
6.29703e-09
2.74843e-09
1.17884e-09
4.8844e-10
1.93181e-10
6.25642e-11
7.68332e-12
-2.19523e-12
-1.64643e-11
-1.97571e-11
-1.31714e-11
-1.31714e-11
0
1.09762e-12
-4.39047e-12
-8.78094e-12
0
0
-5.48809e-12
0.998241
2.9384
4.71524
6.23803
7.44027
8.28431
8.76201
8.89203
8.71444
8.28393
7.66275
6.91412
6.097
5.26239
4.45121
3.69359
3.00936
2.40921
1.89639
1.46848
1.11919
0.83987
0.620796
0.452111
0.3245
0.229587
0.160145
0.110146
0.0747032
0.0499619
0.0329505
0.0214283
0.0137401
0.00868626
0.00541371
0.0033263
0.00201485
0.00120329
0.000708603
0.000411554
0.000235798
0.000133303
7.43714e-05
4.09527e-05
2.22565e-05
1.19356e-05
6.31375e-06
3.29271e-06
1.69181e-06
8.55741e-07
4.25739e-07
2.08163e-07
9.99139e-08
4.70614e-08
2.1735e-08
9.82477e-09
4.36742e-09
1.89119e-09
8.18823e-10
3.32578e-10
1.36105e-10
6.25642e-11
6.58571e-12
-1.86595e-11
-1.20738e-11
-7.68332e-12
5.48809e-12
1.09762e-12
-4.39047e-12
0
-1.20738e-11
0
0
-3.29285e-12
2.19524e-12
0.683513
2.01291
3.23309
4.28294
5.11718
5.70937
6.05266
6.15814
6.05154
5.76889
5.35179
4.8431
4.28325
3.70763
3.14502
2.61695
2.13788
1.71596
1.35406
1.05102
0.802844
0.60378
0.447206
0.326323
0.234645
0.166298
0.116183
0.0800236
0.0543426
0.0363838
0.024016
0.0156274
0.0100234
0.0063363
0.00394737
0.00242326
0.00146589
0.000873847
0.000513395
0.000297327
0.00016978
9.56149e-05
5.31201e-05
2.91185e-05
1.57502e-05
8.40592e-06
4.42543e-06
2.29729e-06
1.17523e-06
5.92056e-07
2.93468e-07
1.43024e-07
6.84485e-08
3.21613e-08
1.47992e-08
6.65815e-09
2.93722e-09
1.26446e-09
5.24661e-10
2.17328e-10
8.23213e-11
3.18309e-11
1.09762e-12
-2.08547e-11
-1.97571e-11
5.48809e-12
1.86595e-11
-1.09762e-12
2.19524e-12
-2.19524e-12
3.29285e-12
0
-2.19524e-12
3.29285e-12
-8.78094e-12
0.463962
1.3669
2.19723
2.91412
3.48697
3.8975
4.14033
4.22199
4.15894
3.97474
3.69699
3.35447
2.97461
2.58168
2.19564
1.83165
1.50007
1.20693
0.954603
0.742623
0.56849
0.428414
0.317939
0.232431
0.167426
0.118855
0.083164
0.0573608
0.0390003
0.0261386
0.0172672
0.0112418
0.00721199
0.0045584
0.0028382
0.00174058
0.00105133
0.000625442
0.0003665
0.000211582
0.000120367
6.74983e-05
3.7322e-05
2.03536e-05
1.09497e-05
5.81127e-06
3.04232e-06
1.57063e-06
7.99238e-07
4.00647e-07
1.97681e-07
9.59241e-08
4.57542e-08
2.14057e-08
9.80611e-09
4.4234e-09
1.93949e-09
8.44068e-10
3.49042e-10
1.45983e-10
7.35404e-11
1.4269e-11
-5.48809e-12
-1.20738e-11
3.29285e-12
1.86595e-11
-1.09762e-11
-2.19523e-12
0
1.09762e-12
4.39047e-12
-2.19523e-12
0
2.19523e-12
-1.09762e-12
0.312105
0.919833
1.47962
1.96438
2.35363
2.6349
2.80414
2.86518
2.82849
2.70935
2.52596
2.29744
2.04221
1.77674
1.51469
1.26657
1.03968
0.838384
0.664551
0.518068
0.397394
0.30006
0.223101
0.163391
0.117894
0.083826
0.0587408
0.0405699
0.0276166
0.0185273
0.0122484
0.00797805
0.00511894
0.00323472
0.00201271
0.00123294
0.000743478
0.000441317
0.000257879
0.000148365
8.40631e-05
4.69217e-05
2.58101e-05
1.39959e-05
7.48401e-06
3.947e-06
2.05312e-06
1.0532e-06
5.32635e-07
2.65431e-07
1.30232e-07
6.28606e-08
2.98365e-08
1.39024e-08
6.34203e-09
2.85929e-09
1.2436e-09
5.3454e-10
2.16231e-10
8.34189e-11
4.06118e-11
1.86595e-11
1.09762e-12
3.29285e-12
3.07333e-11
4.39047e-12
-2.08547e-11
0
-1.09762e-12
1.09762e-12
1.09762e-12
1.09762e-12
0
1.09762e-12
1.31714e-11
0.208009
0.613232
0.987033
1.31158
1.57331
1.7638
1.88011
1.92446
1.90347
1.82702
1.70696
1.55591
1.38611
1.20858
1.0326
0.865319
0.71182
0.575199
0.456859
0.356858
0.274256
0.207464
0.154528
0.113363
0.0819305
0.0583447
0.0409436
0.0283152
0.0192968
0.0129582
0.00857277
0.00558634
0.0035847
0.00226456
0.00140802
0.000861464
0.000518559
0.000307087
0.00017891
0.00010256
5.78623e-05
3.21382e-05
1.75803e-05
9.47509e-06
5.03338e-06
2.63624e-06
1.36154e-06
6.93451e-07
3.48233e-07
1.72351e-07
8.40292e-08
4.03254e-08
1.90261e-08
8.83582e-09
4.03265e-09
1.77814e-09
7.83699e-10
3.32578e-10
1.28421e-10
5.92713e-11
6.58571e-12
3.29285e-12
8.78094e-12
1.4269e-11
-1.09762e-12
-6.58571e-12
2.19524e-12
1.09762e-12
0
-1.09762e-12
7.68332e-12
3.29285e-12
0
3.29285e-12
-4.39047e-12
0.137318
0.404938
0.652122
0.867236
1.04136
1.16889
1.24775
1.27922
1.26745
1.21876
1.14085
1.04193
0.930074
0.812586
0.695652
0.584116
0.481441
0.389783
0.310171
0.242721
0.186871
0.141605
0.10565
0.0776324
0.0561946
0.0400771
0.0281636
0.0195019
0.0133056
0.00894338
0.00592087
0.00385986
0.00247702
0.0015643
0.000971875
0.000593859
0.00035682
0.000210793
0.000122433
6.99224e-05
3.9274e-05
2.17022e-05
1.18028e-05
6.3204e-06
3.33412e-06
1.7333e-06
8.88295e-07
4.48881e-07
2.23638e-07
1.09831e-07
5.3162e-08
2.53429e-08
1.18949e-08
5.4804e-09
2.49488e-09
1.08884e-09
4.78561e-10
2.12938e-10
9.87856e-11
4.50023e-11
1.86595e-11
1.09762e-12
1.09762e-11
-1.97571e-11
-2.52452e-11
-5.48809e-12
0
1.09762e-12
1.09762e-12
0
-7.68332e-12
0
-4.39047e-12
-1.4269e-11
-1.09762e-12
0.0897747
0.264801
0.426645
0.567778
0.682396
0.766807
0.819576
0.841433
0.834971
0.804212
0.754087
0.689921
0.616961
0.540004
0.463136
0.389582
0.321674
0.26089
0.207962
0.163012
0.12571
0.0954132
0.0712993
0.0524718
0.0380388
0.0271678
0.0191179
0.0132549
0.00905361
0.00609112
0.00403542
0.00263184
0.00168908
0.00106636
0.000661994
0.000403987
0.000242287
0.000142781
8.26723e-05
4.70359e-05
2.63002e-05
1.44571e-05
7.81578e-06
4.15758e-06
2.17725e-06
1.12304e-06
5.70845e-07
2.86016e-07
1.41274e-07
6.87822e-08
3.29977e-08
1.56136e-08
7.26293e-09
3.3159e-09
1.48288e-09
6.51985e-10
2.61233e-10
9.98832e-11
4.71976e-11
3.29285e-12
8.78094e-12
-2.19523e-12
-1.53666e-11
-2.41476e-11
-2.19523e-12
-2.19524e-12
-1.09762e-12
-3.29285e-12
1.09762e-12
-1.09762e-12
1.09762e-12
-2.19524e-12
0
0
1.31714e-11
0.0581163
0.171457
0.276365
0.368012
0.442656
0.497893
0.532753
0.547645
0.54418
0.524895
0.492929
0.451695
0.404578
0.354688
0.304695
0.25672
0.212312
0.172466
0.137691
0.108096
0.0834862
0.0634599
0.0474913
0.0350013
0.02541
0.0181734
0.0128056
0.00888956
0.00607878
0.00409363
0.00271406
0.00177088
0.00113666
0.000717394
0.000445028
0.000271241
0.000162378
9.54579e-05
5.51015e-05
3.12314e-05
1.73846e-05
9.50613e-06
5.10838e-06
2.69909e-06
1.40298e-06
7.17843e-07
3.61745e-07
1.79609e-07
8.79104e-08
4.23955e-08
2.01512e-08
9.45049e-09
4.35535e-09
1.98559e-09
8.72606e-10
3.74288e-10
1.40495e-10
3.51238e-11
0
-1.4269e-11
-2.85381e-11
-7.68332e-12
-1.09762e-11
2.41476e-11
9.87856e-12
-5.48809e-12
-4.39047e-12
0
6.58571e-12
4.39047e-12
6.5857e-12
-1.97571e-11
2.19524e-12
1.09762e-11
0
0.0372481
0.109911
0.177226
0.236123
0.284215
0.319951
0.342688
0.352653
0.350841
0.33884
0.318631
0.292382
0.262254
0.230245
0.198076
0.167128
0.138414
0.112595
0.0900168
0.0707657
0.0547292
0.0416573
0.0312171
0.0230382
0.0167477
0.0119941
0.0084625
0.00588193
0.00402673
0.00271441
0.00180106
0.00117576
0.000754815
0.000476294
0.000295267
0.000179752
0.000107422
6.30026e-05
3.62584e-05
2.04756e-05
1.13473e-05
6.17285e-06
3.29746e-06
1.73058e-06
8.92824e-07
4.5309e-07
2.26305e-07
1.11301e-07
5.39501e-08
2.57743e-08
1.21364e-08
5.61651e-09
2.57611e-09
1.15579e-09
5.07099e-10
2.16231e-10
8.34189e-11
8.78094e-12
-1.86595e-11
-3.62214e-11
-4.06118e-11
-1.31714e-11
3.29285e-12
2.305e-11
3.29285e-12
-6.5857e-12
-7.68332e-12
1.31714e-11
0
1.09762e-12
-7.68332e-12
0
0
0
-7.68332e-12
0.0236337
0.069749
0.112502
0.149958
0.180608
0.203465
0.218108
0.224662
0.223737
0.216321
0.203655
0.187101
0.168026
0.1477
0.127221
0.107476
0.0891198
0.0725837
0.0580985
0.0457279
0.0354075
0.0269829
0.0202451
0.0149594
0.0108885
0.00780794
0.00551597
0.00383867
0.00263099
0.00177538
0.001179
0.000770127
0.000494542
0.000312026
0.000193326
0.000117568
7.01477e-05
4.10511e-05
2.35582e-05
1.32569e-05
7.31568e-06
3.95985e-06
2.10312e-06
1.09651e-06
5.61517e-07
2.82619e-07
1.39903e-07
6.81566e-08
3.26881e-08
1.54556e-08
7.20257e-09
3.27858e-09
1.47081e-09
6.45399e-10
2.94161e-10
1.30616e-10
5.04904e-11
-1.4269e-11
-2.08547e-11
-2.85381e-11
-3.84166e-11
-3.40261e-11
-1.09762e-11
-5.48809e-12
-3.29285e-12
-1.09762e-12
2.19524e-12
0
-8.78094e-12
4.39047e-12
1.09762e-12
2.41476e-11
2.19524e-12
4.39047e-12
0
0.0148438
0.0438136
0.0706875
0.0942581
0.11358
0.128032
0.137342
0.14158
0.141118
0.136565
0.128692
0.118349
0.106391
0.0936163
0.0807189
0.0682606
0.0566591
0.0461922
0.0370106
0.0291592
0.0226009
0.0172412
0.0129497
0.00957944
0.0069807
0.00501175
0.00354495
0.00247003
0.00169494
0.00114498
0.000761059
0.00049747
0.000319578
0.000201638
0.000124881
7.58772e-05
4.5208e-05
2.64032e-05
1.51124e-05
8.47624e-06
4.65887e-06
2.50986e-06
1.3257e-06
6.86836e-07
3.4923e-07
1.74366e-07
8.55439e-08
4.12913e-08
1.95881e-08
9.15193e-09
4.20607e-09
1.89668e-09
8.28701e-10
3.83069e-10
1.69033e-10
7.35404e-11
2.96357e-11
-1.31714e-11
-2.305e-11
-1.53666e-11
-1.31714e-11
-1.64643e-11
-1.64643e-11
-1.4269e-11
0
-1.64643e-11
6.58571e-12
-6.5857e-12
-1.09762e-12
-1.09762e-12
-2.19523e-12
0
-9.87856e-12
0
5.48809e-12
0.00922815
0.027241
0.0439587
0.0586342
0.0706812
0.0797122
0.0855556
0.08825
0.0880211
0.0852425
0.0803884
0.0739846
0.0665616
0.0586158
0.0505803
0.0428071
0.0355592
0.0290124
0.0232634
0.0183425
0.0142284
0.0108633
0.00816665
0.00604702
0.00441116
0.0031705
0.00224522
0.00156631
0.00107609
0.000727747
0.000484207
0.000316754
0.000203589
0.000128477
7.95511e-05
4.83011e-05
2.87432e-05
1.67575e-05
9.56881e-06
5.35087e-06
2.93028e-06
1.5717e-06
8.25929e-07
4.2539e-07
2.14841e-07
1.06471e-07
5.18054e-08
2.47721e-08
1.16523e-08
5.37833e-09
2.4433e-09
1.12396e-09
5.02709e-10
2.27207e-10
8.56142e-11
4.60999e-11
2.08547e-11
1.4269e-11
-3.29285e-12
8.78094e-12
1.20738e-11
1.09762e-11
-1.20738e-11
-3.51238e-11
-1.97571e-11
-2.08547e-11
-7.68332e-12
1.09762e-12
2.19523e-12
-8.78094e-12
-1.31714e-11
-4.39047e-12
-6.5857e-12
-7.68332e-12
-1.09762e-12
0.00567823
0.016763
0.0270542
0.0360936
0.0435212
0.0490981
0.0527174
0.054401
0.0542853
0.0525978
0.0496285
0.0456995
0.0411367
0.0362455
0.0312934
0.0264981
0.0220229
0.0179774
0.0144225
0.0113777
0.0088308
0.00674644
0.00507528
0.00376098
0.00274601
0.00197567
0.00140063
0.000978245
0.000672877
0.000455586
0.000303445
0.00019868
0.00012778
8.0663e-05
4.99427e-05
3.03089e-05
1.80188e-05
1.04893e-05
5.97724e-06
3.33356e-06
1.81953e-06
9.72062e-07
5.08418e-07
2.60426e-07
1.30728e-07
6.43248e-08
3.1079e-08
1.47169e-08
6.85572e-09
3.14358e-09
1.4302e-09
6.5418e-10
2.95259e-10
1.11957e-10
5.70761e-11
2.08547e-11
1.09762e-12
1.97571e-11
3.62214e-11
3.51238e-11
3.62214e-11
2.96357e-11
1.53666e-11
-1.20738e-11
-1.09762e-11
5.48809e-12
-2.19524e-12
1.09762e-12
0
5.48809e-12
8.78094e-12
0
9.87856e-12
2.19523e-12
-6.58571e-12
0.00345788
0.0102086
0.0164769
0.0219845
0.0265121
0.0299144
0.0321257
0.0331589
0.0330964
0.0320758
0.0302731
0.0278839
0.0251066
0.0221272
0.0191089
0.0161846
0.0134543
0.0109854
0.00881516
0.00695602
0.00540056
0.00412741
0.00310648
0.00230339
0.00168301
0.00121192
0.000860038
0.000601342
0.00041411
0.00028071
0.000187174
0.00012267
7.89543e-05
4.98645e-05
3.08776e-05
1.87336e-05
1.11292e-05
6.47082e-06
3.68094e-06
2.04816e-06
1.11471e-06
5.93418e-07
3.09078e-07
1.57537e-07
7.86487e-08
3.84627e-08
1.84422e-08
8.67008e-09
3.98655e-09
1.82753e-09
8.39677e-10
3.7319e-10
1.75619e-10
6.91499e-11
3.62214e-11
-8.78094e-12
-7.68332e-12
9.87856e-12
2.63428e-11
1.09762e-11
2.305e-11
9.87856e-12
9.87856e-12
2.19524e-12
5.48809e-12
9.87856e-12
1.09762e-12
1.20738e-11
0
0
2.08547e-11
9.87856e-12
6.58571e-12
4.39047e-12
0
0.00208388
0.00615209
0.00992951
0.0132482
0.0159763
0.018026
0.0193581
0.0199803
0.0199422
0.019327
0.0182404
0.0168005
0.0151267
0.013331
0.0115119
0.00974956
0.00810424
0.00661657
0.00530911
0.00418928
0.00325259
0.0024861
0.00187158
0.00138825
0.00101488
0.000731328
0.000519438
0.000363561
0.000250642
0.000170097
0.000113547
7.44925e-05
4.79863e-05
3.03245e-05
1.87834e-05
1.13952e-05
6.76638e-06
3.93052e-06
2.23271e-06
1.23993e-06
6.7318e-07
3.57266e-07
1.85427e-07
9.41405e-08
4.67651e-08
2.27624e-08
1.08412e-08
5.09185e-09
2.32805e-09
1.05591e-09
4.9283e-10
2.40378e-10
1.33909e-10
8.78094e-11
3.84166e-11
2.52452e-11
2.41476e-11
2.41476e-11
4.39047e-12
0
0
6.5857e-12
2.08547e-11
2.305e-11
-6.5857e-12
1.31714e-11
2.41476e-11
-1.09762e-12
-2.19523e-12
-1.31714e-11
-5.48809e-12
6.5857e-12
-1.09762e-12
-5.48809e-12
2.19523e-12
0.00124267
0.00366844
0.00592021
0.00789762
0.00952189
0.0107409
0.0115315
0.0118987
0.0118723
0.0115023
0.010852
0.0099919
0.00899317
0.00792266
0.00683891
0.00578963
0.00481064
0.00392599
0.003149
0.00248394
0.00192802
0.00147341
0.00110916
0.000822828
0.000601719
0.000433823
0.00030835
0.000216011
0.000149073
0.00010128
6.76842e-05
4.44513e-05
2.86607e-05
1.81248e-05
1.12316e-05
6.81462e-06
4.04543e-06
2.34841e-06
1.33252e-06
7.38878e-07
4.00297e-07
2.11902e-07
1.0963e-07
5.5478e-08
2.7447e-08
1.32965e-08
6.29374e-09
2.92076e-09
1.36214e-09
6.17959e-10
3.0404e-10
1.67935e-10
9.7688e-11
5.59785e-11
1.4269e-11
2.41476e-11
2.74404e-11
2.305e-11
1.75619e-11
1.09762e-11
6.58571e-12
1.53666e-11
2.305e-11
2.52452e-11
8.78094e-12
-1.09762e-12
3.29285e-12
-1.20738e-11
1.09762e-12
0
-1.64643e-11
-9.87856e-12
1.09762e-12
-7.68332e-12
0
0.000733177
0.00216414
0.00349174
0.00465648
0.0056118
0.00632712
0.00678905
0.00700098
0.00698102
0.00675895
0.00637247
0.00586327
0.00527343
0.00464231
0.00400431
0.00338739
0.00281249
0.00229358
0.00183833
0.00144911
0.00112413
0.000858656
0.00064617
0.000479287
0.000350518
0.000252789
0.000179772
0.00012603
8.70555e-05
5.92064e-05
3.96098e-05
2.6041e-05
1.68065e-05
1.06367e-05
6.59505e-06
4.00256e-06
2.37596e-06
1.3787e-06
7.81691e-07
4.32931e-07
2.34147e-07
1.23687e-07
6.37858e-08
3.2169e-08
1.58705e-08
7.65039e-09
3.5936e-09
1.66179e-09
7.70527e-10
3.63311e-10
1.63545e-10
8.78094e-11
3.7319e-11
5.48809e-12
-7.68332e-12
-1.97571e-11
4.39047e-12
1.75619e-11
2.305e-11
1.75619e-11
2.19524e-12
-1.09762e-11
1.09762e-12
-1.09762e-12
1.20738e-11
-1.20738e-11
-2.305e-11
-4.39047e-12
6.58571e-12
1.53666e-11
5.48809e-12
-5.48809e-12
-8.78094e-12
1.09762e-12
-4.39047e-12
0.000427927
0.00126289
0.00203689
0.00271493
0.00326976
0.00368367
0.00394914
0.00406854
0.00405287
0.00391985
0.00369176
0.00339307
0.00304837
0.00268056
0.00230958
0.00195157
0.00161854
0.00131847
0.00105564
0.000831295
0.000644269
0.000491726
0.000369807
0.00027418
0.000200477
0.00014459
0.000102859
7.21508e-05
4.98768e-05
3.39527e-05
2.27378e-05
1.49641e-05
9.66689e-06
6.12319e-06
3.79903e-06
2.30659e-06
1.36939e-06
7.94458e-07
4.50205e-07
2.491e-07
1.34554e-07
7.09445e-08
3.65122e-08
1.83511e-08
9.02132e-09
4.32022e-09
2.03279e-09
9.56025e-10
4.22583e-10
2.04157e-10
7.4638e-11
2.63428e-11
8.78094e-12
-3.29285e-12
4.39047e-12
4.39047e-12
1.53666e-11
3.29285e-11
2.85381e-11
2.41476e-11
4.39047e-12
-3.29285e-12
1.09762e-12
-8.78094e-12
-9.87856e-12
-2.08547e-11
-4.39047e-12
-1.09762e-12
0
6.5857e-12
8.78094e-12
-2.19523e-12
-4.39047e-12
8.78094e-12
0
0.000247036
0.000728864
0.00117498
0.00156495
0.00188302
0.00211905
0.00226896
0.00233444
0.00232217
0.00224268
0.00210904
0.00193549
0.00173624
0.00152444