/*--------------------------------*- C++ -*----------------------------------*\
  =========                 |
  \\      /  F ield         | OpenFOAM: The Open Source CFD Toolbox
   \\    /   O peration     | Website:  https://openfoam.org
    \\  /    A nd           | Version:  10
     \\/     M anipulation  |
\*---------------------------------------------------------------------------*/
FoamFile
{
    format      ascii;
    class       volScalarField;
    location    "162";
    object      gradTz;
}
// * * * * * * * * * * * * * * * * * * * * * * * * * * * * * * * * * * * * * //

dimensions      [0 -1 0 1 0 0 0];

internalField   nonuniform List<scalar> 
11250
(
-14373
-4167.77
-1546.11
-740.567
-433.381
-288.902
-208.417
-157.686
-122.776
-97.2088
-77.6449
-62.2222
-49.8309
-39.7681
-31.56
-24.8668
-19.4297
-15.041
-11.528
-8.74291
-6.5585
-4.86473
-3.56705
-2.58507
-1.85133
-1.31008
-0.91596
-0.632701
-0.431766
-0.291084
-0.193866
-0.127556
-0.0829116
-0.05324
-0.0337723
-0.021162
-0.0130974
-0.00800534
-0.00483108
-0.00287772
-0.00169131
-0.000980308
-0.00056005
-0.00031517
-0.000174593
-9.51398e-05
-5.09619e-05
-2.68147e-05
-1.38502e-05
-7.01821e-06
-3.48696e-06
-1.69788e-06
-8.09901e-07
-3.78349e-07
-1.7303e-07
-7.74589e-08
-3.39372e-08
-1.45489e-08
-6.10824e-09
-2.50696e-09
-1.00652e-09
-3.95142e-10
-1.75619e-10
-6.25642e-11
2.19523e-12
1.09762e-12
-1.09762e-12
0
1.09762e-12
-1.09762e-12
0
-5.48809e-12
-1.09762e-12
6.5857e-12
0
-8322.88
-4918.46
-2821.01
-1722.32
-1136.59
-802.073
-595.076
-457.031
-358.983
-285.799
-229.12
-184.08
-147.693
-118.028
-93.764
-73.9377
-57.8075
-44.7729
-34.3295
-26.0444
-19.5427
-14.4991
-10.6335
-7.70749
-5.52062
-3.90711
-2.73201
-1.88733
-1.28805
-0.868433
-0.57843
-0.380607
-0.247408
-0.158876
-0.100786
-0.0631565
-0.0390901
-0.0238936
-0.0144201
-0.0085901
-0.00504896
-0.00292668
-0.00167217
-0.00094112
-0.00052141
-0.00028417
-0.000152241
-8.01191e-05
-4.13909e-05
-2.09783e-05
-1.04254e-05
-5.0776e-06
-2.42267e-06
-1.13203e-06
-5.17886e-07
-2.319e-07
-1.01634e-07
-4.35974e-08
-1.82885e-08
-7.52088e-09
-3.02942e-09
-1.17665e-09
-4.50023e-10
-1.58057e-10
-6.5857e-11
-3.29285e-11
1.09762e-12
2.19523e-12
-1.09762e-12
-4.39047e-12
1.09762e-12
4.39047e-12
0
-8.78094e-12
8.78094e-12
-5673.16
-4358.32
-3093.64
-2188.03
-1586.05
-1185.82
-911.523
-715.764
-570.313
-458.408
-369.933
-298.611
-240.408
-192.616
-153.318
-121.084
-94.7828
-73.4819
-56.3864
-42.806
-32.1372
-23.854
-17.501
-12.6895
-9.09161
-6.43599
-4.50128
-3.11015
-2.12296
-1.43155
-0.953628
-0.627561
-0.407981
-0.262016
-0.166231
-0.104176
-0.0644842
-0.0394193
-0.0237924
-0.0141748
-0.00833251
-0.00483075
-0.00276055
-0.001554
-0.00086117
-0.000469469
-0.000251591
-0.00013245
-6.84523e-05
-3.47084e-05
-1.72564e-05
-8.40861e-06
-4.01399e-06
-1.87659e-06
-8.58977e-07
-3.84864e-07
-1.68764e-07
-7.24252e-08
-3.03996e-08
-1.24821e-08
-5.0238e-09
-1.97571e-09
-7.67235e-10
-2.84283e-10
-1.10859e-10
-3.62214e-11
-2.19524e-12
0
0
-1.09762e-11
0
1.20738e-11
1.09762e-12
-1.09762e-12
-1.09762e-12
-4331.65
-3741.68
-3001.35
-2345.01
-1829.58
-1440.48
-1147.35
-923.174
-748.077
-608.456
-495.203
-402.215
-325.318
-261.562
-208.763
-165.223
-129.553
-100.576
-77.2633
-58.709
-44.1107
-32.7626
-24.0504
-17.4464
-12.5049
-8.85544
-6.19534
-4.28184
-2.92344
-1.97176
-1.31374
-0.864689
-0.562227
-0.361128
-0.229141
-0.143619
-0.088911
-0.0543586
-0.0328141
-0.0195528
-0.011496
-0.00666623
-0.00381041
-0.00214564
-0.00118945
-0.00064869
-0.000347794
-0.000183188
-9.47273e-05
-4.80601e-05
-2.39102e-05
-1.16589e-05
-5.56962e-06
-2.60583e-06
-1.1937e-06
-5.35275e-07
-2.34913e-07
-1.00891e-07
-4.23966e-08
-1.74433e-08
-7.03353e-09
-2.76709e-09
-1.07237e-09
-4.2368e-10
-1.53666e-10
-3.18309e-11
0
0
-2.19524e-12
0
8.78094e-12
1.09762e-12
-9.87856e-12
0
0
-3570.95
-3266.61
-2817.02
-2354.06
-1941.01
-1594.82
-1311.37
-1080.1
-890.339
-733.331
-602.434
-492.755
-400.685
-323.491
-259.028
-205.532
-161.493
-125.582
-96.6069
-73.4916
-55.2707
-41.085
-30.1806
-21.9065
-15.7098
-11.13
-7.78972
-5.38563
-3.67819
-2.48149
-1.65376
-1.08873
-0.708039
-0.454869
-0.28867
-0.18096
-0.112046
-0.0685143
-0.0413668
-0.024654
-0.0144987
-0.00840969
-0.00480852
-0.0027087
-0.00150224
-0.000819693
-0.000439729
-0.000231761
-0.000119929
-6.08931e-05
-3.03198e-05
-1.47973e-05
-7.07545e-06
-3.31352e-06
-1.51939e-06
-6.8202e-07
-2.9965e-07
-1.28836e-07
-5.41883e-08
-2.2319e-08
-9.01144e-09
-3.5464e-09
-1.36324e-09
-5.19173e-10
-1.95376e-10
-7.13451e-11
-1.75619e-11
1.09762e-12
2.19523e-12
-5.48809e-12
-2.19523e-12
4.39047e-12
0
-5.48809e-12
5.48809e-12
-3103.04
-2925.7
-2635.9
-2304.33
-1978.31
-1680.93
-1419.58
-1193.74
-999.817
-833.61
-691.255
-569.51
-465.716
-377.666
-303.477
-241.485
-190.181
-148.172
-114.163
-86.961
-65.473
-48.7145
-35.814
-26.0135
-18.6664
-13.2316
-9.26485
-6.40812
-4.37809
-2.95462
-1.96964
-1.29702
-0.843697
-0.542138
-0.344121
-0.215763
-0.13362
-0.0817227
-0.0493521
-0.02942
-0.0173062
-0.0100414
-0.00574364
-0.00323689
-0.00179611
-0.00098062
-0.000526414
-0.000277658
-0.000143799
-7.3079e-05
-3.64228e-05
-1.77943e-05
-8.51776e-06
-3.99349e-06
-1.83331e-06
-8.23912e-07
-3.62444e-07
-1.56041e-07
-6.57166e-08
-2.70947e-08
-1.094e-08
-4.31583e-09
-1.67606e-09
-6.60766e-10
-2.52452e-10
-6.80523e-11
-6.58571e-12
0
0
-1.09762e-11
-2.19523e-12
4.39047e-12
1.09762e-12
4.39047e-12
3.29285e-12
-2798.64
-2684
-2484.38
-2238.45
-1978.24
-1724.43
-1487.95
-1273.33
-1081.54
-911.844
-762.825
-632.886
-520.435
-423.932
-341.888
-272.853
-215.406
-168.161
-129.782
-98.9982
-74.6251
-55.5811
-40.8982
-29.729
-21.3467
-15.1403
-10.6068
-7.33963
-5.01653
-3.3867
-2.2584
-1.4876
-0.967923
-0.622112
-0.394973
-0.2477
-0.153431
-0.0938594
-0.0566946
-0.0338058
-0.0198921
-0.0115458
-0.00660692
-0.00372522
-0.00206825
-0.00112995
-0.000607029
-0.000320447
-0.000166113
-8.45044e-05
-4.2163e-05
-2.06223e-05
-9.88344e-06
-4.63964e-06
-2.13272e-06
-9.59739e-07
-4.22754e-07
-1.82258e-07
-7.68958e-08
-3.17519e-08
-1.28311e-08
-5.0688e-09
-1.97791e-09
-7.65039e-10
-2.82088e-10
-9.98832e-11
-2.19524e-11
-1.09762e-12
0
0
0
-4.39047e-12
-1.09762e-12
0
5.48809e-12
-2592.96
-2512
-2365.16
-2174.63
-1961.76
-1743.02
-1529.46
-1327.66
-1141.13
-971.482
-819.182
-684.039
-565.461
-462.59
-374.382
-299.658
-237.142
-185.506
-143.414
-109.556
-82.686
-61.6506
-45.4062
-33.0325
-23.7354
-16.8449
-11.8074
-8.17437
-5.58947
-3.77495
-2.51818
-1.65923
-1.0799
-0.694262
-0.440887
-0.276557
-0.171344
-0.104842
-0.0633437
-0.0377809
-0.0222381
-0.0129122
-0.00739207
-0.00417006
-0.00231663
-0.00126652
-0.000680942
-0.000359785
-0.000186689
-9.50737e-05
-4.74913e-05
-2.3257e-05
-1.11605e-05
-5.24615e-06
-2.41485e-06
-1.08824e-06
-4.80057e-07
-2.07286e-07
-8.75811e-08
-3.62115e-08
-1.46521e-08
-5.81298e-09
-2.2578e-09
-8.55044e-10
-3.24895e-10
-1.20738e-10
-3.40261e-11
-1.75619e-11
0
1.31714e-11
1.09762e-12
-8.78094e-12
-8.78094e-12
4.39047e-12
1.09762e-11
-2450.41
-2388.76
-2273.94
-2119.48
-1939.9
-1747.97
-1553.63
-1363.98
-1183.79
-1016.1
-862.716
-724.525
-601.786
-494.262
-401.341
-322.128
-255.519
-200.278
-155.094
-118.649
-89.6603
-66.9224
-49.3349
-35.9198
-25.8286
-18.342
-12.864
-8.91031
-6.0954
-4.11828
-2.74819
-1.81137
-1.17927
-0.758348
-0.481704
-0.302231
-0.187294
-0.114628
-0.0692737
-0.0413292
-0.0243344
-0.0141347
-0.00809546
-0.00456925
-0.00253995
-0.0013896
-0.000747719
-0.000395428
-0.000205391
-0.000104713
-5.23682e-05
-2.56775e-05
-1.23383e-05
-5.80775e-06
-2.67712e-06
-1.20818e-06
-5.33759e-07
-2.30826e-07
-9.76836e-08
-4.04494e-08
-1.64105e-08
-6.53961e-09
-2.54867e-09
-9.65903e-10
-3.53433e-10
-1.1964e-10
-3.7319e-11
-6.5857e-12
1.09762e-12
-1.09762e-12
0
1.09762e-12
0
-1.09762e-12
0
-2349.95
-2299.94
-2205.15
-2074.42
-1918.06
-1746.03
-1566.97
-1387.83
-1213.88
-1048.99
-895.805
-756.03
-630.584
-519.751
-423.308
-340.627
-270.782
-212.636
-164.928
-126.347
-95.5916
-71.4239
-52.7015
-38.4018
-27.6328
-19.6356
-13.779
-9.5488
-6.5351
-4.41713
-2.94868
-1.94415
-1.26609
-0.814399
-0.517437
-0.324727
-0.201281
-0.123216
-0.0744821
-0.0444485
-0.0261791
-0.0152116
-0.00871603
-0.00492202
-0.00273768
-0.00149883
-0.000807135
-0.000427233
-0.000222132
-0.000113371
-5.67647e-05
-2.78678e-05
-1.34083e-05
-6.31996e-06
-2.91733e-06
-1.31849e-06
-5.83335e-07
-2.5263e-07
-1.07066e-07
-4.44085e-08
-1.80339e-08
-7.17293e-09
-2.81978e-09
-1.09542e-09
-3.99533e-10
-1.17445e-10
-3.07333e-11
-1.64643e-11
-1.09762e-12
2.19524e-12
5.48809e-12
-2.19524e-12
-5.48809e-12
0
0
-2278.39
-2235.66
-2153.73
-2038.81
-1898.59
-1741.08
-1573.79
-1403.25
-1234.87
-1072.92
-920.611
-780.183
-653.058
-539.935
-440.913
-355.604
-283.246
-222.803
-173.07
-132.754
-100.552
-75.2045
-55.5394
-40.5007
-29.1629
-20.7355
-14.5587
-10.094
-6.91126
-4.67322
-3.12074
-2.05826
-1.34078
-0.862676
-0.548243
-0.344139
-0.21336
-0.130639
-0.0789872
-0.0471489
-0.0277776
-0.0161459
-0.00925506
-0.00522892
-0.00291003
-0.00159423
-0.000859164
-0.000455163
-0.000236879
-0.000121023
-6.06639e-05
-2.98176e-05
-1.43643e-05
-6.7794e-06
-3.13361e-06
-1.41819e-06
-6.2832e-07
-2.72478e-07
-1.15649e-07
-4.80306e-08
-1.95288e-08
-7.7843e-09
-3.04808e-09
-1.16347e-09
-4.35754e-10
-1.60252e-10
-3.7319e-11
-1.09762e-12
0
0
1.09762e-12
-6.5857e-12
0
5.48809e-12
0
-2227.1
-2189.06
-2115.54
-2011.26
-1882.27
-1735.25
-1576.81
-1413.06
-1249.36
-1090.16
-938.986
-798.457
-670.35
-555.68
-454.806
-367.54
-293.262
-231.032
-179.701
-138.002
-104.635
-78.3291
-57.8935
-42.2476
-30.4402
-21.6561
-15.2128
-10.5524
-7.22812
-4.8893
-3.26615
-2.15482
-1.40408
-0.903628
-0.574403
-0.360637
-0.223634
-0.136958
-0.0828249
-0.049451
-0.0291413
-0.0169438
-0.00971593
-0.00549168
-0.00305784
-0.00167622
-0.000903975
-0.00047928
-0.000249648
-0.00012767
-6.40621e-05
-3.15226e-05
-1.52033e-05
-7.18403e-06
-3.32474e-06
-1.50662e-06
-6.68357e-07
-2.90216e-07
-1.23336e-07
-5.12763e-08
-2.08613e-08
-8.32214e-09
-3.26322e-09
-1.2436e-09
-4.87342e-10
-2.09645e-10
-3.95142e-11
2.19523e-11
0
0
0
0
-2.19524e-12
-3.29285e-12
5.48809e-12
-2190.25
-2155.27
-2087.35
-1990.29
-1869.12
-1729.61
-1577.73
-1419.21
-1259.28
-1102.46
-952.454
-812.119
-683.482
-567.793
-465.613
-376.911
-301.19
-237.592
-185.019
-142.234
-107.942
-80.8712
-59.816
-43.679
-31.49
-22.4147
-15.7532
-10.9319
-7.49096
-5.06887
-3.38718
-2.23531
-1.4569
-0.937848
-0.596283
-0.374449
-0.232242
-0.142255
-0.0860444
-0.0513833
-0.0302869
-0.0176144
-0.0101037
-0.005713
-0.0031825
-0.00174548
-0.000941906
-0.000499739
-0.000260509
-0.000133338
-6.69685e-05
-3.29854e-05
-1.59254e-05
-7.53337e-06
-3.49033e-06
-1.58345e-06
-7.03244e-07
-3.05713e-07
-1.30063e-07
-5.41312e-08
-2.20588e-08
-8.7996e-09
-3.43884e-09
-1.34787e-09
-5.1588e-10
-1.87693e-10
-5.37833e-11
2.19523e-12
1.09762e-12
0
-1.09762e-12
0
0
1.09762e-12
-1.09762e-12
-2163.75
-2130.82
-2066.66
-1974.52
-1858.8
-1724.65
-1577.57
-1423
-1266.02
-1111.17
-962.229
-822.22
-693.335
-576.994
-473.905
-384.166
-307.374
-242.744
-189.221
-145.594
-110.582
-82.9082
-61.3623
-44.8341
-32.3397
-23.0304
-16.1928
-11.2414
-7.70572
-5.21586
-3.48641
-2.30141
-1.50034
-0.966017
-0.614313
-0.385839
-0.239346
-0.14663
-0.0887042
-0.0529805
-0.0312341
-0.0181693
-0.0104246
-0.00589633
-0.00328587
-0.00180298
-0.000973441
-0.000516779
-0.000269573
-0.00013808
-6.94055e-05
-3.42151e-05
-1.6534e-05
-7.82866e-06
-3.63066e-06
-1.64873e-06
-7.32975e-07
-3.18959e-07
-1.3583e-07
-5.65888e-08
-2.3062e-08
-9.21121e-09
-3.60787e-09
-1.39397e-09
-5.29052e-10
-2.01962e-10
-7.24428e-11
-7.68332e-12
1.09762e-12
-1.09762e-12
-4.39047e-12
-7.68332e-12
3.29285e-12
1.31714e-11
-3.29285e-12
-2144.74
-2113.18
-2051.57
-1962.8
-1850.87
-1720.52
-1576.92
-1425.28
-1270.57
-1117.28
-969.26
-829.612
-700.644
-583.895
-480.185
-389.707
-312.133
-246.733
-192.494
-148.225
-112.657
-84.5165
-62.5875
-45.7525
-33.0173
-23.5227
-16.5452
-11.49
-7.87861
-5.33441
-3.56658
-2.35488
-1.53553
-0.988864
-0.62895
-0.395094
-0.245122
-0.150188
-0.0908683
-0.0542802
-0.032005
-0.0186209
-0.0106859
-0.00604563
-0.00337009
-0.00184986
-0.000999177
-0.000530702
-0.000276989
-0.000141966
-7.14065e-05
-3.52268e-05
-1.70358e-05
-8.07267e-06
-3.74689e-06
-1.70291e-06
-7.5769e-07
-3.29969e-07
-1.40636e-07
-5.86709e-08
-2.39401e-08
-9.54598e-09
-3.71873e-09
-1.44227e-09
-5.70761e-10
-2.37085e-10
-7.79308e-11
-1.09762e-12
0
-4.39047e-12
4.39047e-12
5.48809e-12
-4.39047e-12
1.09762e-12
-1.09762e-12
-2131.15
-2100.51
-2040.63
-1954.18
-1844.88
-1717.22
-1576.12
-1426.62
-1273.61
-1121.54
-974.275
-834.968
-706.007
-589.012
-484.884
-393.884
-315.745
-249.78
-195.006
-150.255
-114.265
-85.7679
-63.5444
-46.4721
-33.5498
-23.9106
-16.8236
-11.6868
-8.01576
-5.42863
-3.6304
-2.39752
-1.56362
-1.00713
-0.640661
-0.402504
-0.249748
-0.153039
-0.0926024
-0.0553217
-0.0326226
-0.0189826
-0.0108952
-0.00616515
-0.00343749
-0.00188738
-0.00101978
-0.000541854
-0.000282933
-0.000145083
-7.3014e-05
-3.60407e-05
-1.74401e-05
-8.26956e-06
-3.84081e-06
-1.74679e-06
-7.77739e-07
-3.38918e-07
-1.44532e-07
-6.03273e-08
-2.46481e-08
-9.85551e-09
-3.85703e-09
-1.4741e-09
-5.71859e-10
-2.29402e-10
-8.8907e-11
-3.51238e-11
0
-6.58571e-12
-1.09762e-12
9.87856e-12
9.87856e-12
1.09762e-12
-8.78094e-12
-2121.47
-2091.46
-2032.76
-1947.9
-1840.42
-1714.64
-1575.33
-1427.39
-1275.64
-1124.49
-977.821
-838.812
-709.901
-592.763
-488.356
-396.994
-318.451
-252.075
-196.91
-151.8
-115.495
-86.728
-64.2811
-47.0278
-33.9622
-24.2119
-17.0403
-11.8404
-8.123
-5.50243
-3.68048
-2.43102
-1.58573
-1.02151
-0.649893
-0.408349
-0.253399
-0.155289
-0.0939711
-0.0561434
-0.0331096
-0.0192676
-0.0110599
-0.00625916
-0.00349048
-0.00191686
-0.00103596
-0.000550608
-0.0002876
-0.000147531
-7.42766e-05
-3.66803e-05
-1.77582e-05
-8.42458e-06
-3.91487e-06
-1.78143e-06
-7.9357e-07
-3.46e-07
-1.47648e-07
-6.16729e-08
-2.52024e-08
-1.00783e-08
-3.95691e-09
-1.52569e-09
-5.89421e-10
-2.32695e-10
-8.8907e-11
-2.85381e-11
2.19523e-12
-6.5857e-12
-4.39047e-12
6.5857e-12
4.39047e-12
8.78094e-12
-7.68332e-12
-2114.61
-2085.03
-2027.13
-1943.36
-1837.15
-1712.69
-1574.63
-1427.81
-1276.98
-1126.52
-980.308
-841.545
-712.699
-595.483
-490.893
-399.281
-320.453
-253.783
-198.333
-152.96
-116.421
-87.4544
-64.8403
-47.451
-34.2772
-24.4426
-17.2067
-11.9585
-8.20565
-5.55943
-3.71922
-2.45698
-1.60288
-1.03268
-0.657067
-0.412894
-0.256239
-0.157039
-0.095035
-0.0567817
-0.0334876
-0.0194886
-0.0111874
-0.00633184
-0.00353138
-0.00193958
-0.00104841
-0.000557339
-0.000291184
-0.000149411
-7.52456e-05
-3.71712e-05
-1.80023e-05
-8.54364e-06
-3.97175e-06
-1.80803e-06
-8.05787e-07
-3.515e-07
-1.50054e-07
-6.26948e-08
-2.56338e-08
-1.02386e-08
-4.02387e-09
-1.56301e-09
-6.15763e-10
-2.44769e-10
-8.01261e-11
-1.53666e-11
1.09762e-12
-1.4269e-11
4.39047e-12
9.87856e-12
-3.29285e-12
4.39047e-12
-1.09762e-12
-2109.79
-2080.5
-2023.15
-1940.12
-1834.78
-1711.23
-1574.06
-1428.03
-1277.86
-1127.9
-982.038
-843.471
-714.689
-597.433
-492.725
-400.943
-321.916
-255.037
-199.382
-153.819
-117.111
-87.9966
-65.2591
-47.7689
-34.5144
-24.6168
-17.3325
-12.0481
-8.26847
-5.60282
-3.74876
-2.4768
-1.61599
-1.04123
-0.662563
-0.416377
-0.258415
-0.15838
-0.0958498
-0.05727
-0.0337764
-0.0196571
-0.0112845
-0.00638706
-0.00356238
-0.00195676
-0.00105781
-0.000562409
-0.00029388
-0.000150822
-7.59723e-05
-3.7539e-05
-1.8185e-05
-8.63272e-06
-4.0143e-06
-1.82796e-06
-8.1492e-07
-3.55589e-07
-1.5186e-07
-6.34664e-08
-2.59608e-08
-1.03933e-08
-4.06118e-09
-1.57069e-09
-6.22349e-10
-2.45866e-10
-7.79308e-11
-2.41476e-11
-1.31714e-11
0
9.87856e-12
3.29285e-12
-1.4269e-11
-2.19523e-12
3.29285e-12
-2106.43
-2077.33
-2020.35
-1937.83
-1833.08
-1710.16
-1573.6
-1428.13
-1278.43
-1128.84
-983.231
-844.815
-716.091
-598.816
-494.033
-402.136
-322.972
-255.947
-200.147
-154.448
-117.617
-88.3959
-65.5685
-48.0043
-34.6906
-24.7465
-17.4265
-12.1151
-8.31555
-5.6354
-3.77098
-2.49173
-1.62587
-1.04768
-0.666714
-0.419008
-0.260059
-0.159392
-0.0964645
-0.057638
-0.0339936
-0.0197836
-0.0113572
-0.00642829
-0.00358547
-0.00196952
-0.00106477
-0.00056615
-0.000295863
-0.000151858
-7.65046e-05
-3.78079e-05
-1.83184e-05
-8.69767e-06
-4.04531e-06
-1.84247e-06
-8.21566e-07
-3.58595e-07
-1.53192e-07
-6.40471e-08
-2.62188e-08
-1.04888e-08
-4.09192e-09
-1.59374e-09
-6.30032e-10
-2.38183e-10
-8.01261e-11
-8.78094e-12
-1.09762e-12
-4.39047e-12
0
-1.09762e-12
0
0
1.09762e-12
-2104.09
-2075.13
-2018.39
-1936.22
-1831.88
-1709.39
-1573.25
-1428.17
-1278.8
-1129.47
-984.047
-845.744
-717.068
-599.788
-494.957
-402.984
-323.726
-256.599
-200.697
-154.901
-117.983
-88.6861
-65.794
-48.1765
-34.8197
-24.8418
-17.4957
-12.1646
-8.35035
-5.65953
-3.78745
-2.50282
-1.63322
-1.05248
-0.669804
-0.420968
-0.261283
-0.160146
-0.0969215
-0.0579111
-0.0341545
-0.019877
-0.0114107
-0.00645855
-0.00360235
-0.00197881
-0.00106981
-0.000568855
-0.000297292
-0.000152601
-7.68856e-05
-3.79999e-05
-1.84135e-05
-8.74384e-06
-4.0673e-06
-1.85274e-06
-8.26271e-07
-3.60707e-07
-1.5412e-07
-6.44521e-08
-2.63867e-08
-1.05788e-08
-4.12485e-09
-1.59594e-09
-6.38813e-10
-2.41476e-10
-7.02475e-11
-1.31714e-11
0
-2.19524e-12
-2.19523e-12
6.58571e-12
-3.29285e-12
-7.68332e-12
8.78094e-12
-2102.49
-2073.61
-2017.05
-1935.1
-1831.03
-1708.84
-1572.99
-1428.18
-1279.04
-1129.89
-984.601
-846.38
-717.743
-600.462
-495.602
-403.578
-324.257
-257.06
-201.088
-155.225
-118.245
-88.8943
-65.9562
-48.3006
-34.9131
-24.9108
-17.546
-12.2006
-8.37573
-5.67715
-3.79951
-2.51094
-1.63862
-1.05601
-0.672074
-0.422407
-0.262182
-0.160698
-0.0972562
-0.0581108
-0.0342718
-0.019945
-0.0114495
-0.0064804
-0.00361448
-0.00198546
-0.00107341
-0.000570772
-0.0002983
-0.000153124
-7.71522e-05
-3.81337e-05
-1.84795e-05
-8.77585e-06
-4.08254e-06
-1.85984e-06
-8.29499e-07
-3.62145e-07
-1.5475e-07
-6.47276e-08
-2.6491e-08
-1.06194e-08
-4.17424e-09
-1.6102e-09
-6.20154e-10
-2.22816e-10
-6.91499e-11
-1.97571e-11
0
-1.31714e-11
0
1.20738e-11
-3.29285e-12
1.09762e-12
2.19524e-12
-2101.4
-2072.58
-2016.12
-1934.33
-1830.45
-1708.45
-1572.8
-1428.18
-1279.19
-1130.17
-984.973
-846.812
-718.204
-600.926
-496.047
-403.991
-324.627
-257.383
-201.362
-155.453
-118.43
-89.0418
-66.0715
-48.389
-34.9798
-24.9602
-17.582
-12.2264
-8.39399
-5.68986
-3.80821
-2.51681
-1.64252
-1.05856
-0.673717
-0.423449
-0.262833
-0.161098
-0.097498
-0.0582547
-0.0343562
-0.0199937
-0.0114772
-0.00649592
-0.00362306
-0.00199014
-0.00107592
-0.000572106
-0.000298998
-0.000153483
-7.73346e-05
-3.82249e-05
-1.85244e-05
-8.79749e-06
-4.09281e-06
-1.8646e-06
-8.31666e-07
-3.63117e-07
-1.55169e-07
-6.48955e-08
-2.65711e-08
-1.0659e-08
-4.17863e-09
-1.6146e-09
-6.12471e-10
-2.03059e-10
-7.68332e-11
-3.18309e-11
-2.19523e-12
-1.09762e-12
2.19523e-12
0
0
-1.09762e-11
1.20738e-11
-2100.66
-2071.88
-2015.5
-1933.81
-1830.05
-1708.19
-1572.67
-1428.16
-1279.28
-1130.36
-985.221
-847.103
-718.515
-601.241
-496.352
-404.274
-324.881
-257.606
-201.552
-155.611
-118.559
-89.1449
-66.1522
-48.4511
-35.0267
-24.9951
-17.6074
-12.2447
-8.40696
-5.69889
-3.81441
-2.521
-1.6453
-1.06038
-0.674891
-0.424194
-0.263297
-0.161383
-0.0976701
-0.0583569
-0.0344159
-0.0200281
-0.0114967
-0.00650677
-0.00362902
-0.00199337
-0.00107765
-0.000573016
-0.00029947
-0.000153725
-7.74569e-05
-3.82856e-05
-1.85541e-05
-8.8118e-06
-4.09953e-06
-1.8677e-06
-8.33076e-07
-3.63736e-07
-1.55448e-07
-6.50031e-08
-2.66216e-08
-1.06974e-08
-4.19948e-09
-1.60472e-09
-5.89421e-10
-2.35988e-10
-9.11023e-11
-6.5857e-12
1.09762e-12
-5.48809e-12
-2.19523e-12
6.58571e-12
-1.09762e-12
-1.09762e-12
2.19524e-12
-2100.17
-2071.41
-2015.08
-1933.46
-1829.78
-1708
-1572.57
-1428.15
-1279.34
-1130.47
-985.385
-847.296
-718.724
-601.453
-496.557
-404.466
-325.055
-257.758
-201.682
-155.72
-118.648
-89.216
-66.2081
-48.4942
-35.0593
-25.0194
-17.6252
-12.2575
-8.41604
-5.70522
-3.81876
-2.52394
-1.64726
-1.06166
-0.675719
-0.424718
-0.263624
-0.161584
-0.0977909
-0.0584285
-0.0344576
-0.020052
-0.0115102
-0.00651425
-0.00363311
-0.00199557
-0.00107882
-0.000573626
-0.000299785
-0.000153886
-7.75372e-05
-3.83253e-05
-1.85733e-05
-8.82099e-06
-4.10385e-06
-1.8697e-06
-8.33992e-07
-3.64144e-07
-1.55619e-07
-6.50723e-08
-2.6637e-08
-1.06996e-08
-4.1929e-09
-1.58496e-09
-6.11373e-10
-2.5355e-10
-8.34189e-11
-8.78094e-12
0
0
0
0
1.09762e-12
1.09762e-12
-2.19524e-12
-2099.84
-2071.1
-2014.8
-1933.23
-1829.6
-1707.88
-1572.51
-1428.14
-1279.38
-1130.55
-985.492
-847.424
-718.863
-601.595
-496.695
-404.595
-325.171
-257.861
-201.77
-155.793
-118.709
-89.2646
-66.2463
-48.5237
-35.0817
-25.0361
-17.6375
-12.2664
-8.42231
-5.70961
-3.82178
-2.52598
-1.64862
-1.06256
-0.676294
-0.425083
-0.263852
-0.161723
-0.0978746
-0.058478
-0.0344863
-0.0200683
-0.0115193
-0.00651932
-0.00363586
-0.00199704
-0.00107959
-0.000574029
-0.000299991
-0.00015399
-7.75889e-05
-3.83506e-05
-1.85856e-05
-8.82679e-06
-4.10658e-06
-1.87095e-06
-8.34524e-07
-3.6439e-07
-1.5572e-07
-6.5126e-08
-2.66765e-08
-1.06963e-08
-4.1907e-09
-1.6135e-09
-6.09178e-10
-2.33793e-10
-8.12237e-11
-1.09762e-11
0
0
2.19523e-12
0
-2.19523e-12
-5.48809e-12
5.48809e-12
-2099.62
-2070.89
-2014.62
-1933.07
-1829.48
-1707.8
-1572.46
-1428.13
-1279.4
-1130.6
-985.562
-847.507
-718.954
-601.688
-496.786
-404.68
-325.249
-257.929
-201.829
-155.843
-118.749
-89.2973
-66.2721
-48.5437
-35.0969
-25.0474
-17.6458
-12.2724
-8.4266
-5.71261
-3.82384
-2.52738
-1.64955
-1.06317
-0.676689
-0.425334
-0.264007
-0.161818
-0.0979318
-0.0585117
-0.0345058
-0.0200794
-0.0115255
-0.00652272
-0.0036377
-0.00199801
-0.0010801
-0.000574291
-0.000300124
-0.000154056
-7.76217e-05
-3.83666e-05
-1.85932e-05
-8.83039e-06
-4.10824e-06
-1.87171e-06
-8.34867e-07
-3.64526e-07
-1.55787e-07
-6.51502e-08
-2.66809e-08
-1.07084e-08
-4.21156e-09
-1.62008e-09
-5.96006e-10
-2.29402e-10
-7.79308e-11
-8.78094e-12
-1.09762e-12
-6.58571e-12
0
2.19524e-12
-1.4269e-11
4.39047e-12
1.31714e-11
-2099.48
-2070.76
-2014.5
-1932.97
-1829.4
-1707.74
-1572.43
-1428.12
-1279.42
-1130.63
-985.606
-847.561
-719.013
-601.748
-496.845
-404.736
-325.3
-257.974
-201.868
-155.876
-118.776
-89.319
-66.2893
-48.557
-35.107
-25.055
-17.6514
-12.2764
-8.42948
-5.71463
-3.82524
-2.52833
-1.65019
-1.06358
-0.676957
-0.425503
-0.264113
-0.161883
-0.0979704
-0.0585343
-0.0345189
-0.0200868
-0.0115296
-0.00652496
-0.0036389
-0.00199865
-0.00108043
-0.000574458
-0.000300209
-0.000154098
-7.76421e-05
-3.83764e-05
-1.85978e-05
-8.83257e-06
-4.10925e-06
-1.87217e-06
-8.35075e-07
-3.64604e-07
-1.55817e-07
-6.51656e-08
-2.66842e-08
-1.07193e-08
-4.21156e-09
-1.60033e-09
-5.88323e-10
-2.32695e-10
-8.23213e-11
-6.5857e-12
0
0
0
0
0
8.78094e-12
-8.78094e-12
-2099.39
-2070.68
-2014.42
-1932.9
-1829.35
-1707.71
-1572.41
-1428.12
-1279.43
-1130.65
-985.635
-847.595
-719.051
-601.788
-496.884
-404.772
-325.333
-258.004
-201.894
-155.897
-118.794
-89.3333
-66.3006
-48.5658
-35.1137
-25.06
-17.6551
-12.2791
-8.43139
-5.71597
-3.82617
-2.52896
-1.65061
-1.06386
-0.677135
-0.425616
-0.264183
-0.161925
-0.097996
-0.0585494
-0.0345276
-0.0200917
-0.0115323
-0.00652642
-0.00363968
-0.00199905
-0.00108064
-0.000574564
-0.000300262
-0.000154124
-7.76546e-05
-3.83824e-05
-1.86006e-05
-8.83387e-06
-4.10985e-06
-1.87245e-06
-8.35206e-07
-3.64667e-07
-1.55838e-07
-6.51787e-08
-2.66721e-08
-1.06908e-08
-4.18083e-09
-1.59923e-09
-6.25642e-10
-2.43671e-10
-7.35404e-11
4.39047e-12
3.29285e-12
-8.78094e-12
-2.41476e-11
-1.09762e-12
1.64643e-11
2.19523e-12
2.19523e-12
-2099.34
-2070.62
-2014.37
-1932.86
-1829.32
-1707.68
-1572.4
-1428.12
-1279.43
-1130.66
-985.653
-847.617
-719.075
-601.813
-496.909
-404.796
-325.355
-258.023
-201.91
-155.911
-118.805
-89.3425
-66.3079
-48.5715
-35.1181
-25.0633
-17.6575
-12.2809
-8.43264
-5.71686
-3.82678
-2.52938
-1.65089
-1.06404
-0.677253
-0.425691
-0.26423
-0.161954
-0.0980129
-0.0585592
-0.0345332
-0.0200949
-0.0115341
-0.00652736
-0.00364018
-0.00199931
-0.00108077
-0.000574631
-0.000300294
-0.00015414
-7.76622e-05
-3.83859e-05
-1.86023e-05
-8.83464e-06
-4.11019e-06
-1.87259e-06
-8.35283e-07
-3.64704e-07
-1.55861e-07
-6.51875e-08
-2.66611e-08
-1.06765e-08
-4.17643e-09
-1.60033e-09
-6.19056e-10
-2.43671e-10
-6.25642e-11
1.09762e-12
-9.87856e-12
-6.58571e-12
-1.09762e-12
5.48809e-12
0
0
0
-2099.3
-2070.59
-2014.34
-1932.84
-1829.29
-1707.67
-1572.39
-1428.11
-1279.44
-1130.67
-985.664
-847.631
-719.09
-601.828
-496.924
-404.811
-325.368
-258.035
-201.92
-155.92
-118.813
-89.3484
-66.3126
-48.5751
-35.1209
-25.0654
-17.6591
-12.282
-8.43345
-5.71743
-3.82717
-2.52965
-1.65107
-1.06416
-0.67733
-0.425739
-0.26426
-0.161972
-0.0980238
-0.0585656
-0.0345369
-0.0200969
-0.0115352
-0.00652796
-0.00364049
-0.00199948
-0.00108085
-0.000574672
-0.000300314
-0.000154149
-7.76668e-05
-3.83881e-05
-1.86033e-05
-8.83504e-06
-4.11037e-06
-1.87269e-06
-8.35347e-07
-3.6474e-07
-1.55854e-07
-6.51952e-08
-2.66787e-08
-1.06623e-08
-4.15229e-09
-1.59264e-09
-6.21252e-10
-2.35988e-10
-7.24428e-11
-8.78094e-12
7.68332e-12
1.09762e-12
-4.39047e-12
0
-2.19524e-12
0
-2.19524e-12
-2099.28
-2070.57
-2014.32
-1932.82
-1829.28
-1707.66
-1572.39
-1428.11
-1279.44
-1130.68
-985.671
-847.639
-719.1
-601.838
-496.934
-404.82
-325.377
-258.042
-201.927
-155.925
-118.817
-89.3522
-66.3156
-48.5774
-35.1226
-25.0667
-17.66
-12.2827
-8.43397
-5.71779
-3.82742
-2.52982
-1.65118
-1.06424
-0.677379
-0.42577
-0.264279
-0.161984
-0.0980308
-0.0585697
-0.0345392
-0.0200982
-0.0115359
-0.00652834
-0.00364069
-0.00199958
-0.0010809
-0.000574697
-0.000300326
-0.000154155
-7.76695e-05
-3.83893e-05
-1.86038e-05
-8.8353e-06
-4.1105e-06
-1.87274e-06
-8.35373e-07
-3.64756e-07
-1.55862e-07
-6.51776e-08
-2.66622e-08
-1.06787e-08
-4.17534e-09
-1.58386e-09
-6.21251e-10
-2.37085e-10
-5.1588e-11
-6.5857e-12
-4.39047e-12
-7.68332e-12
-1.09762e-12
-1.09762e-12
0
1.64643e-11
-6.5857e-12
-2099.26
-2070.55
-2014.31
-1932.81
-1829.27
-1707.65
-1572.38
-1428.11
-1279.44
-1130.68
-985.675
-847.645
-719.105
-601.844
-496.94
-404.826
-325.382
-258.047
-201.931
-155.929
-118.82
-89.3545
-66.3174
-48.5789
-35.1237
-25.0676
-17.6607
-12.2832
-8.43429
-5.71802
-3.82758
-2.52993
-1.65125
-1.06429
-0.67741
-0.42579
-0.264291
-0.161991
-0.0980352
-0.0585723
-0.0345406
-0.020099
-0.0115364
-0.00652857
-0.00364081
-0.00199964
-0.00108094
-0.000574712
-0.000300334
-0.000154159
-7.7671e-05
-3.839e-05
-1.86042e-05
-8.83546e-06
-4.11055e-06
-1.87275e-06
-8.35377e-07
-3.64764e-07
-1.55861e-07
-6.51798e-08
-2.66765e-08
-1.06853e-08
-4.19729e-09
-1.60142e-09
-6.0808e-10
-2.25012e-10
-5.04904e-11
0
-1.09762e-12
-1.31714e-11
0
6.58571e-12
-4.39047e-12
6.5857e-12
4.39047e-12
-2099.26
-2070.54
-2014.3
-1932.8
-1829.27
-1707.65
-1572.38
-1428.11
-1279.44
-1130.68
-985.678
-847.648
-719.109
-601.848
-496.944
-404.829
-325.385
-258.05
-201.934
-155.931
-118.822
-89.3559
-66.3185
-48.5798
-35.1244
-25.0681
-17.661
-12.2835
-8.43449
-5.71816
-3.82768
-2.52999
-1.6513
-1.06432
-0.677429
-0.425802
-0.264299
-0.161996
-0.098038
-0.0585739
-0.0345415
-0.0200995
-0.0115366
-0.00652872
-0.00364088
-0.00199968
-0.00108095
-0.000574721
-0.000300338
-0.00015416
-7.7672e-05
-3.83905e-05
-1.86044e-05
-8.83554e-06
-4.11058e-06
-1.87279e-06
-8.35376e-07
-3.64724e-07
-1.55844e-07
-6.51787e-08
-2.66677e-08
-1.07007e-08
-4.21595e-09
-1.60911e-09
-6.02592e-10
-2.29402e-10
-5.59785e-11
-2.19523e-12
0
-2.19524e-12
-5.48809e-12
1.09762e-12
1.09762e-12
-1.09762e-12
0
-2099.25
-2070.54
-2014.3
-1932.8
-1829.27
-1707.65
-1572.38
-1428.11
-1279.44
-1130.68
-985.68
-847.65
-719.111
-601.85
-496.946
-404.831
-325.387
-258.052
-201.935
-155.932
-118.823
-89.3568
-66.3192
-48.5803
-35.1248
-25.0684
-17.6613
-12.2836
-8.43461
-5.71824
-3.82774
-2.53003
-1.65133
-1.06433
-0.677441
-0.42581
-0.264304
-0.161999
-0.0980397
-0.0585748
-0.0345421
-0.0200998
-0.0115368
-0.00652881
-0.00364093
-0.0019997
-0.00108097
-0.000574726
-0.000300341
-0.000154162
-7.76725e-05
-3.83907e-05
-1.86045e-05
-8.8356e-06
-4.11063e-06
-1.8728e-06
-8.35359e-07
-3.64727e-07
-1.55861e-07
-6.51864e-08
-2.66743e-08
-1.06996e-08
-4.20717e-09
-1.60472e-09
-5.98202e-10
-2.28304e-10
-5.04904e-11
-1.09762e-12
-1.31714e-11
8.78094e-12
1.31714e-11
-1.09762e-11
-1.09762e-11
-1.09762e-12
1.09762e-12
-2099.25
-2070.54
-2014.3
-1932.8
-1829.26
-1707.65
-1572.38
-1428.11
-1279.44
-1130.68
-985.68
-847.651
-719.112
-601.852
-496.947
-404.833
-325.388
-258.053
-201.936
-155.933
-118.824
-89.3573
-66.3196
-48.5806
-35.1251
-25.0686
-17.6614
-12.2837
-8.43469
-5.7183
-3.82778
-2.53006
-1.65134
-1.06435
-0.677448
-0.425814
-0.264306
-0.162
-0.0980407
-0.0585754
-0.0345424
-0.0201
-0.0115369
-0.00652886
-0.00364096
-0.00199971
-0.00108097
-0.000574729
-0.000300342
-0.000154162
-7.76728e-05
-3.83908e-05
-1.86045e-05
-8.83564e-06
-4.11065e-06
-1.87281e-06
-8.35376e-07
-3.64745e-07
-1.55867e-07
-6.51809e-08
-2.66622e-08
-1.06798e-08
-4.19948e-09
-1.63435e-09
-6.15763e-10
-1.97571e-10
-6.91499e-11
-3.07333e-11
-1.20738e-11
-6.58571e-12
1.53666e-11
5.48809e-12
-8.78094e-12
0
3.29285e-12
-2099.25
-2070.54
-2014.29
-1932.8
-1829.26
-1707.65
-1572.38
-1428.11
-1279.44
-1130.68
-985.681
-847.652
-719.113
-601.852
-496.948
-404.833
-325.389
-258.053
-201.937
-155.934
-118.824
-89.3576
-66.3199
-48.5808
-35.1252
-25.0687
-17.6615
-12.2838
-8.43473
-5.71833
-3.8278
-2.53007
-1.65135
-1.06435
-0.677453
-0.425817
-0.264308
-0.162001
-0.0980413
-0.0585758
-0.0345426
-0.0201001
-0.0115369
-0.00652889
-0.00364097
-0.00199972
-0.00108098
-0.000574731
-0.000300343
-0.000154163
-7.7673e-05
-3.83909e-05
-1.86046e-05
-8.83568e-06
-4.11066e-06
-1.87279e-06
-8.35359e-07
-3.64736e-07
-1.55873e-07
-6.51952e-08
-2.66721e-08
-1.06831e-08
-4.19509e-09
-1.62228e-09
-6.24544e-10
-2.32695e-10
-6.14666e-11
-5.48809e-12
-1.09762e-12
-7.68332e-12
1.09762e-12
7.68332e-12
-8.78094e-12
0
7.68332e-12
-2099.24
-2070.53
-2014.29
-1932.8
-1829.26
-1707.65
-1572.38
-1428.11
-1279.44
-1130.68
-985.681
-847.652
-719.114
-601.853
-496.948
-404.834
-325.389
-258.054
-201.937
-155.934
-118.824
-89.3578
-66.32
-48.5809
-35.1253
-25.0687
-17.6615
-12.2838
-8.43475
-5.71834
-3.82781
-2.53008
-1.65136
-1.06436
-0.677455
-0.425819
-0.264309
-0.162002
-0.0980416
-0.058576