/*--------------------------------*- C++ -*----------------------------------*\
  =========                 |
  \\      /  F ield         | OpenFOAM: The Open Source CFD Toolbox
   \\    /   O peration     | Website:  https://openfoam.org
    \\  /    A nd           | Version:  10
     \\/     M anipulation  |
\*---------------------------------------------------------------------------*/
FoamFile
{
    format      ascii;
    class       volScalarField;
    location    "1650";
    object      T;
}
// * * * * * * * * * * * * * * * * * * * * * * * * * * * * * * * * * * * * * //

dimensions      [0 0 0 1 0 0 0];

internalField   nonuniform List<scalar> 
11250
(
249.968
167.932
139.98
127.803
121.258
117.178
114.375
112.319
110.742
109.488
108.465
107.612
106.889
106.266
105.724
105.247
104.823
104.444
104.103
103.794
103.512
103.255
103.02
102.803
102.603
102.418
102.247
102.088
101.94
101.802
101.674
101.554
101.443
101.339
101.242
101.151
101.067
100.988
100.914
100.845
100.781
100.721
100.666
100.614
100.565
100.52
100.478
100.439
100.403
100.37
100.338
100.31
100.283
100.258
100.235
100.214
100.194
100.176
100.159
100.144
100.129
100.116
100.104
100.092
100.082
100.072
100.063
100.054
100.046
100.038
100.031
100.024
100.017
100.01
100.003
331.875
249.711
204.167
177.778
161.308
150.257
142.377
136.482
131.902
128.235
125.226
122.708
120.567
118.72
117.109
115.689
114.427
113.297
112.278
111.356
110.516
109.748
109.043
108.395
107.797
107.243
106.73
106.254
105.812
105.4
105.016
104.658
104.324
104.013
103.722
103.451
103.197
102.961
102.74
102.534
102.342
102.162
101.995
101.839
101.694
101.559
101.434
101.317
101.208
101.108
101.014
100.928
100.848
100.773
100.705
100.641
100.582
100.528
100.478
100.431
100.388
100.348
100.311
100.277
100.245
100.216
100.188
100.162
100.137
100.114
100.092
100.071
100.05
100.03
100.01
359.699
294.87
249.198
217.837
195.943
180.166
168.398
159.335
152.154
146.327
141.501
137.434
133.957
130.945
128.309
125.98
123.906
122.045
120.366
118.843
117.455
116.185
115.019
113.945
112.954
112.036
111.186
110.396
109.661
108.977
108.34
107.746
107.192
106.674
106.191
105.74
105.319
104.926
104.558
104.216
103.896
103.598
103.32
103.061
102.819
102.595
102.386
102.192
102.011
101.844
101.688
101.544
101.411
101.287
101.173
101.067
100.969
100.879
100.795
100.718
100.646
100.58
100.518
100.461
100.408
100.359
100.313
100.27
100.229
100.19
100.153
100.118
100.083
100.05
100.016
371.748
320.875
279.92
248.432
224.465
206.071
191.721
180.31
171.059
163.426
157.025
151.58
146.89
142.805
139.213
136.028
133.182
130.624
128.311
126.208
124.29
122.532
120.916
119.427
118.051
116.777
115.595
114.496
113.475
112.523
111.636
110.808
110.036
109.315
108.642
108.013
107.425
106.877
106.365
105.886
105.44
105.024
104.636
104.274
103.938
103.624
103.333
103.061
102.809
102.576
102.359
102.157
101.971
101.798
101.639
101.491
101.354
101.228
101.111
101.003
100.903
100.81
100.724
100.645
100.571
100.502
100.437
100.377
100.32
100.266
100.214
100.164
100.116
100.069
100.023
378.166
336.963
301.179
271.511
247.418
227.939
212.113
199.132
188.358
179.304
171.605
164.984
159.231
154.186
149.726
145.752
142.189
138.975
136.062
133.408
130.982
128.756
126.707
124.816
123.067
121.445
119.94
118.541
117.238
116.024
114.891
113.835
112.848
111.927
111.066
110.262
109.511
108.809
108.154
107.542
106.971
106.438
105.941
105.478
105.047
104.645
104.272
103.924
103.602
103.302
103.024
102.766
102.527
102.306
102.101
101.912
101.736
101.574
101.424
101.286
101.158
101.039
100.929
100.827
100.732
100.643
100.561
100.483
100.41
100.341
100.274
100.211
100.149
100.089
100.03
382.12
347.636
316.324
289.022
265.764
246.16
229.672
215.759
203.948
193.841
185.122
177.535
170.882
165.002
159.771
155.086
150.867
147.048
143.575
140.404
137.498
134.827
132.364
130.088
127.979
126.023
124.205
122.514
120.938
119.468
118.097
116.816
115.62
114.503
113.458
112.482
111.57
110.718
109.922
109.178
108.484
107.836
107.232
106.669
106.144
105.656
105.201
104.779
104.386
104.021
103.683
103.369
103.078
102.809
102.559
102.329
102.115
101.918
101.735
101.566
101.41
101.266
101.132
101.007
100.892
100.784
100.683
100.589
100.5
100.415
100.334
100.257
100.182
100.108
100.036
384.797
355.139
327.465
302.495
280.464
261.276
244.665
230.3
217.848
207.009
197.524
189.174
181.78
175.193
169.293
163.979
159.172
154.802
150.815
147.164
143.81
140.719
137.865
135.222
132.771
130.494
128.376
126.402
124.562
122.845
121.242
119.744
118.344
117.035
115.811
114.667
113.598
112.598
111.664
110.791
109.976
109.215
108.506
107.844
107.228
106.654
106.12
105.623
105.161
104.732
104.334
103.965
103.623
103.306
103.013
102.741
102.49
102.258
102.043
101.844
101.66
101.49
101.333
101.186
101.05
100.923
100.805
100.693
100.588
100.489
100.394
100.302
100.214
100.128
100.042
386.728
360.66
335.907
313.038
292.33
273.829
257.428
242.942
230.153
218.843
208.812
199.881
191.896
184.724
178.256
172.397
167.069
162.206
157.752
153.661
149.891
146.411
143.189
140.201
137.425
134.843
132.438
130.195
128.101
126.145
124.318
122.609
121.012
119.517
118.119
116.811
115.588
114.445
113.376
112.377
111.444
110.572
109.76
109.002
108.295
107.637
107.024
106.455
105.925
105.433
104.977
104.553
104.16
103.797
103.46
103.148
102.86
102.593
102.347
102.119
101.908
101.712
101.531
101.363
101.207
101.061
100.925
100.797
100.676
100.562
100.452
100.347
100.246
100.147
100.049
388.182
364.871
342.472
321.428
302
284.294
268.293
253.906
240.998
229.422
219.025
209.669
201.226
193.583
186.641
180.317
174.536
169.236
164.364
159.874
155.725
151.884
148.32
145.009
141.928
139.058
136.38
133.88
131.544
129.36
127.317
125.406
123.617
121.943
120.376
118.91
117.538
116.254
115.054
113.932
112.884
111.905
110.991
110.138
109.344
108.603
107.914
107.273
106.677
106.123
105.609
105.132
104.69
104.28
103.901
103.55
103.225
102.924
102.646
102.389
102.151
101.931
101.727
101.537
101.361
101.196
101.043
100.898
100.762
100.633
100.51
100.392
100.277
100.165
100.055
389.314
368.173
347.691
328.21
309.962
293.069
277.563
263.411
250.537
238.845
228.227
218.575
209.789
201.774
194.447
187.731
181.562
175.881
170.638
165.789
161.295
157.124
153.246
149.635
146.268
143.127
140.192
137.449
134.882
132.48
130.232
128.126
126.154
124.308
122.578
120.958
119.442
118.023
116.695
115.454
114.293
113.209
112.197
111.252
110.372
109.551
108.787
108.076
107.415
106.8
106.23
105.701
105.21
104.755
104.334
103.944
103.583
103.249
102.941
102.655
102.391
102.146
101.919
101.709
101.513
101.33
101.159
100.999
100.848
100.704
100.567
100.436
100.308
100.184
100.061
390.217
370.821
351.917
333.772
316.584
300.475
285.499
271.66
258.922
247.224
236.493
226.65
217.617
209.317
201.68
194.642
188.143
182.133
176.564
171.397
166.593
162.123
157.956
154.068
150.437
147.042
143.866
140.893
138.109
135.501
133.057
130.765
128.618
126.605
124.719
122.952
121.297
119.747
118.296
116.938
115.669
114.483
113.376
112.342
111.377
110.478
109.641
108.862
108.137
107.464
106.838
106.258
105.72
105.221
104.759
104.331
103.935
103.569
103.23
102.916
102.626
102.357
102.108
101.877
101.662
101.461
101.274
101.097
100.931
100.774
100.623
100.479
100.339
100.202
100.067
390.951
372.983
355.391
338.389
322.143
306.765
292.322
278.835
266.294
254.667
243.905
233.954
224.752
216.24
208.361
201.059
194.286
187.994
182.142
176.694
171.614
166.873
162.444
158.302
154.426
150.797
147.396
144.208
141.219
138.416
135.786
133.318
131.004
128.833
126.797
124.888
123.099
121.423
119.853
118.384
117.01
115.725
114.525
113.404
112.359
111.384
110.476
109.63
108.844
108.113
107.434
106.804
106.219
105.677
105.175
104.71
104.28
103.882
103.513
103.172
102.857
102.565
102.294
102.042
101.808
101.59
101.386
101.194
101.013
100.842
100.678
100.521
100.369
100.22
100.073
391.558
374.774
358.286
342.264
326.849
312.143
298.212
285.09
272.784
261.279
250.546
240.547
231.24
222.576
214.511
207
199.999
193.47
187.375
181.68
176.355
171.372
166.706
162.333
158.233
154.387
150.777
147.389
144.208
141.22
138.415
135.781
133.307
130.986
128.807
126.762
124.845
123.048
121.365
119.788
118.313
116.933
115.644
114.439
113.315
112.266
111.289
110.38
109.533
108.746
108.015
107.336
106.706
106.123
105.582
105.081
104.617
104.188
103.791
103.423
103.083
102.768
102.475
102.204
101.952
101.716
101.496
101.289
101.094
100.909
100.732
100.563
100.398
100.237
100.079
392.065
376.277
360.724
345.548
330.865
316.768
303.321
290.561
278.506
267.155
256.493
246.495
237.13
228.364
220.162
212.485
205.3
198.571
192.268
186.36
180.82
175.621
170.741
166.159
161.854
157.808
154.006
150.431
147.071
143.911
140.941
138.15
135.526
133.061
130.747
128.573
126.534
124.622
122.829
121.149
119.576
118.105
116.729
115.444
114.244
113.124
112.081
111.109
110.204
109.363
108.581
107.855
107.182
106.557
105.978
105.442
104.946
104.486
104.061
103.668
103.303
102.966
102.653
102.362
102.092
101.839
101.603
101.382
101.173
100.974
100.785
100.603
100.427
100.254
100.085
392.495
377.55
362.797
348.352
334.316
320.768
307.769
295.36
283.562
272.384
261.82
251.856
242.472
233.643
225.342
217.538
210.204
203.312
196.832
190.74
185.011
179.622
174.552
169.78
165.289
161.061
157.081
153.334
149.807
146.487
143.363
140.423
137.658
135.058
132.614
130.319
128.163
126.14
124.243
122.465
120.799
119.24
117.781
116.418
115.145
113.957
112.849
111.817
110.856
109.962
109.132
108.36
107.644
106.98
106.364
105.794
105.266
104.777
104.325
103.906
103.518
103.159
102.826
102.516
102.228
101.96
101.708
101.472
101.249
101.038
100.836
100.643
100.455
100.271
100.09
392.862
378.639
364.574
350.766
337.299
324.245
311.659
299.581
288.037
277.04
266.593
256.688
247.314
238.452
230.084
222.186
214.734
207.707
201.079
194.83
188.937
183.38
178.14
173.199
168.539
164.145
160.002
156.097
152.415
148.946
145.677
142.599
139.701
136.974
134.409
131.997
129.731
127.603
125.606
123.734
121.979
120.336
118.798
117.36
116.017
114.763
113.593
112.503
111.488
110.544
109.666
108.85
108.093
107.391
106.74
106.136
105.578
105.06
104.582
104.138
103.728
103.347
102.994
102.666
102.361
102.077
101.81
101.56
101.324
101.1
100.887
100.681
100.482
100.287
100.095
393.177
379.576
366.108
352.855
339.892
327.28
315.072
303.305
292.007
281.193
270.872
261.043
251.699
242.83
234.42
226.453
218.91
211.774
205.023
198.64
192.605
186.902
181.511
176.418
171.607
167.062
162.771
158.719
154.895
151.287
147.885
144.677
141.654
138.808
136.128
133.607
131.236
129.009
126.918
124.955
123.116
121.392
119.778
118.269
116.859
115.541
114.312
113.167
112.1
111.107
110.183
109.325
108.528
107.789
107.104
106.468
105.88
105.335
104.831
104.364
103.931
103.53
103.158
102.812
102.491
102.191
101.91
101.646
101.397
101.161
100.935
100.719
100.508
100.303
100.101
393.45
380.389
367.44
354.675
342.157
329.942
318.078
306.599
295.535
284.902
274.713
264.97
255.672
246.812
238.381
230.367
222.755
215.531
208.679
202.183
196.026
190.195
184.672
179.443
174.495
169.815
165.388
161.203
157.248
153.512
149.985
146.657
143.518
140.559
137.772
135.147
132.678
130.357
128.176
126.129
124.208
122.408
120.722
119.145
117.67
116.292
115.006
113.807
112.69
111.65
110.683
109.784
108.949
108.174
107.456
106.79
106.173
105.601
105.072
104.582
104.128
103.707
103.317
102.954
102.616
102.301
102.006
101.729
101.468
101.22
100.983
100.755
100.534
100.319
100.106
393.688
381.097
368.602
356.266
344.144
332.285
320.733
309.521
298.677
288.219
278.162
268.511
259.269
250.433
241.997
233.953
226.29
218.998
212.062
205.471
199.211
193.268
187.628
182.28
177.21
172.406
167.857
163.55
159.475
155.621
151.98
148.539
145.292
142.228
139.34
136.619
134.057
131.647
129.381
127.253
125.256
123.384
121.629
119.987
118.45
117.015
115.675
114.425
113.26
112.175
111.165
110.227
109.356
108.547
107.796
107.101
106.456
105.859
105.306
104.793
104.319
103.879
103.471
103.091
102.738
102.408
102.1
101.81
101.536
101.277
101.029
100.79
100.559
100.333
100.111
393.896
381.717
369.622
357.664
345.893
334.354
323.085
312.118
301.48
291.19
281.263
271.707
262.527
253.724
245.296
237.236
229.537
222.192
215.189
208.519
202.17
196.13
190.389
184.935
179.756
174.842
170.181
165.763
161.579
157.617
153.869
150.325
146.977
143.816
140.833
138.021
135.372
132.879
130.533
128.329
126.26
124.318
122.498
120.794
119.2
117.709
116.317
115.018
113.807
112.679
111.63
110.654
109.747
108.905
108.124
107.4
106.729
106.107
105.531
104.998
104.503
104.045
103.619
103.224
102.856
102.512
102.19
101.888
101.603
101.332
101.073
100.824
100.583
100.348
100.116
394.079
382.262
370.519
358.897
347.439
336.186
325.174
314.431
303.985
293.853
284.052
274.592
265.479
256.716
248.304
240.239
232.517
225.131
218.075
211.339
204.915
198.793
192.963
187.415
182.139
177.126
172.365
167.847
163.562
159.501
155.655
152.016
148.574
145.322
142.252
139.355
136.624
134.052
131.632
129.356
127.218
125.212
123.33
121.567
119.917
118.374
116.933
115.588
114.333
113.164
112.076
111.064
110.124
109.251
108.44
107.689
106.992
106.347
105.749
105.195
104.681
104.205
103.763
103.352
102.969
102.612
102.278
101.963
101.667
101.385
101.116
100.857
100.607
100.362
100.12
394.241
382.743
371.312
359.987
348.809
337.814
327.033
316.496
306.227
296.244
286.564
277.198
268.154
259.436
251.046
242.985
235.249
227.834
220.735
213.946
207.459
201.265
195.358
189.728
184.366
179.264
174.413
169.804
165.428
161.276
157.341
153.613
150.086
146.75
143.597
140.621
137.814
135.169
132.678
130.335
128.132
126.064
124.124
122.306
120.604
119.011
117.523
116.133
114.837
113.629
112.504
111.458
110.486
109.582
108.744
107.966
107.245
106.577
105.958
105.384
104.852
104.359
103.901
103.475
103.078
102.708
102.362
102.036
101.728
101.436
101.158
100.889
100.629
100.375
100.125
394.383
383.17
372.014
360.954
350.026
339.262
328.692
318.343
308.237
298.393
288.828
279.553
270.578
261.907
253.546
245.494
237.752
230.317
223.186
216.352
209.812
203.558
197.584
191.882
186.444
181.263
176.331
171.639
167.18
162.946
158.929
155.12
151.513
148.099
144.871
141.821
138.943
136.229
133.672
131.265
129.002
126.877
124.881
123.011
121.259
119.619
118.086
116.655
115.319
114.074
112.915
111.836
110.832
109.901
109.035
108.233
107.488
106.798
106.159
105.566
105.017
104.507
104.034
103.594
103.184
102.801
102.443
102.106
101.788
101.486
101.197
100.92
100.651
100.388
100.129
394.51
383.548
372.638
361.815
351.11
340.554
330.174
319.996
310.041
300.327
290.87
281.683
272.775
264.153
255.823
247.787
240.045
232.597
225.44
218.572
211.987
205.682
199.65
193.884
188.379
183.128
178.123
173.357
168.824
164.514
160.422
156.539
152.858
149.372
146.074
142.956
140.011
137.233
134.615
132.149
129.829
127.649
125.602
123.682
121.883
120.199
118.624
117.153
115.78
114.499
113.307
112.197
111.164
110.205
109.314
108.488
107.721
107.01
106.352
105.741
105.174
104.649
104.161
103.707
103.285
102.89
102.521
102.173
101.845
101.533
101.236
100.949
100.672
100.401
100.133
394.623
383.884
373.194
362.581
352.077
341.709
331.501
321.479
311.662
302.068
292.713
283.609
274.767
266.195
257.898
249.88
242.143
234.687
227.513
220.616
213.996
207.646
201.564
195.744
190.18
184.866
179.796
174.964
170.362
165.984
161.823
157.872
154.124
150.572
147.208
144.027
141.021
138.183
135.507
132.986
130.613
128.381
126.286
124.319
122.476
120.75
119.136
117.627
116.218
114.905
113.681
112.541
111.481
110.496
109.581
108.732
107.944
107.213
106.536
105.908
105.326
104.785
104.283
103.817
103.382
102.976
102.595
102.238
101.9
101.579
101.273
100.978
100.692
100.413
100.137
394.723
384.185
373.69
363.266
352.942
342.742
332.691
322.81
313.12
303.637
294.377
285.352
276.574
268.05
259.788
251.791
244.062
236.604
229.416
222.498
215.848
209.461
203.336
197.468
191.852
186.483
181.355
176.462
171.799
167.359
163.136
159.122
155.313
151.699
148.276
145.037
141.973
139.08
136.35
133.777
131.354
129.075
126.934
124.924
123.04
121.274
119.622
118.078
116.636
115.291
114.037
112.869
111.783
110.773
109.835
108.965
108.157
107.407
106.712
106.068
105.47
104.916
104.4
103.921
103.475
103.057
102.667
102.299
101.952
101.623
101.308
101.005
100.711
100.424
100.141
394.813
384.453
374.133
363.879
353.716
343.668
333.759
324.007
314.433
305.052
295.881
286.931
278.213
269.737
261.509
253.534
245.817
238.36
231.164
224.229
217.554
211.137
204.975
199.065
193.403
187.985
182.805
177.859
173.141
168.644
164.364
160.294
156.428
152.758
149.28
145.986
142.87
139.926
137.146
134.525
132.055
129.732
127.548
125.497
123.573
121.771
120.084
118.506
117.033
115.658
114.376
113.182
112.071
111.038
110.078
109.187
108.359
107.592
106.881
106.221
105.608
105.04
104.512
104.021
103.563
103.136
102.735
102.358
102.002
101.664
101.341
101.031
100.73
100.435
100.145
394.894
384.693
374.53
364.427
354.41
344.5
334.718
325.084
315.616
306.33
297.24
288.36
279.7
271.269
263.076
255.125
247.421
239.968
232.767
225.819
219.124
212.681
206.488
200.542
194.84
189.379
184.153
179.159
174.391
169.843
165.512
161.39
157.471
153.751
150.222
146.878
143.713
140.721
137.895
135.229
132.717
130.352
128.128
126.039
124.078
122.241
120.521
118.912
117.409
116.006
114.697
113.478
112.344
111.289
110.308
109.398
108.552
107.768
107.041
106.366
105.74
105.159
104.619
104.116
103.648
103.21
102.8
102.415
102.05
101.704
101.374
101.056
100.747
100.446
100.148
394.965
384.908
374.885
364.92
355.033
345.247
335.581
326.054
316.683
307.483
298.47
289.655
281.049
272.662
264.502
256.575
248.886
241.439
234.236
227.279
220.569
214.104
207.885
201.907
196.171
190.671
185.404
180.366
175.553
170.96
166.582
162.413
158.447
154.68
151.104
147.714
144.505
141.468
138.6
135.892
133.339
130.936
128.674
126.55
124.555
122.686
120.935
119.296
117.765
116.336
115.002
113.76
112.603
111.527
110.527
109.598
108.736
107.935
107.193
106.504
105.865
105.271
104.72
104.207
103.728
103.281
102.862
102.468
102.096
101.742
101.404
101.079
100.764
100.455
100.151
395.03
385.101
375.205
365.362
355.593
345.919
336.358
326.928
317.645
308.525
299.582
290.828
282.273
273.928
265.801
257.898
250.224
242.785
235.582
228.619
221.896
215.414
209.171
203.167
197.4
191.866
186.563
181.487
176.634
172
167.579
163.367
159.358
155.548
151.929
148.497
145.246
142.169
139.261
136.515
133.925
131.485
129.189
127.031
125.005
123.105
121.325
119.659
118.102
116.647
115.291
114.026
112.848
111.753
110.734
109.788
108.91
108.094
107.338
106.635
105.984
105.379
104.816
104.293
103.805
103.349
102.922
102.519
102.139
101.779
101.434
101.102
100.78
100.465
100.155
395.088
385.274
375.491
365.759
356.097
346.524
337.058
327.716
318.514
309.467
300.588
291.89
283.384
275.079
266.982
259.103
251.445
244.015
236.814
229.847
223.115
216.618
210.356
204.329
198.535
192.971
187.636
182.526
177.637
172.965
168.506
164.255
160.207
156.357
152.7
149.229
145.94
142.826
139.881
137.099
134.475
132.001
129.673
127.484
125.429
123.5
121.693
120.001
118.419
116.942
115.563
114.278
113.081
111.967
110.931
109.968
109.074
108.245
107.475
106.76
106.097
105.48
104.908
104.375
103.878
103.413
102.978
102.568
102.181
101.813
101.461
101.123
100.795
100.474
100.158
395.14
385.43
375.749
366.116
356.55
347.068
337.688
328.427
319.299
310.318
301.499
292.854
284.392
276.124
268.057
260.201
252.559
245.138
237.942
230.973
224.233
217.724
211.446
205.399
199.582
193.992
188.628
183.487
178.566
173.861
169.367
165.081
160.998
157.112
153.419
149.913
146.588
143.439
140.461
137.646
134.99
132.485
130.128
127.91
125.826
123.871
122.039
120.323
118.718
117.219
115.82
114.515
113.3
112.168
111.116
110.138
109.23
108.387
107.604
106.878
106.203
105.577
104.994
104.452
103.947
103.474
103.031
102.614
102.22
101.846
101.488
101.143
100.809
100.483
100.16
395.187
385.57
375.981
366.438
356.958
347.559
338.257
329.068
320.007
311.088
302.324
293.727
285.306
277.073
269.035
261.201
253.575
246.164
238.972
232.003
225.258
218.74
212.448
206.384
200.546
194.934
189.545
184.376
179.426
174.691
170.166
165.848
161.732
157.814
154.088
150.549
147.193
144.012
141.003
138.158
135.472
132.939
130.553
128.309
126.2
124.22
122.364
120.626
119
117.48
116.062
114.739
113.506
112.358
111.291
110.299
109.377
108.521
107.727
106.989
106.304
105.668
105.076
104.525
104.012
103.532
103.081
102.658
102.257
101.876
101.513
101.162
100.823
100.491
100.163
395.229
385.697
376.19
366.728
357.326
348.002
338.77
329.648
320.648
311.785
303.071
294.518
286.136
277.935
269.925
262.111
254.501
247.101
239.914
232.945
226.197
219.671
213.368
207.289
201.434
195.801
190.39
185.198
180.221
175.459
170.906
166.559
162.414
158.466
154.71
151.142
147.756
144.546
141.508
138.635
135.922
133.363
130.952
128.682
126.549
124.547
122.669
120.91
119.264
117.725
116.289
114.949
113.7
112.537
111.456
110.45
109.516
108.648
107.842
107.094
106.399
105.754
105.154
104.595
104.073
103.586
103.129
102.699
102.292
101.906
101.536
101.181
100.836
100.498
100.166
395.267
385.81
376.378
366.989
357.657
348.401
339.233
330.171
321.227
312.415
303.747
295.234
286.888
278.718
270.733
262.939
255.345
247.955
240.774
233.807
227.056
220.524
214.212
208.121
202.25
196.6
191.169
185.955
180.956
176.169
171.591
167.218
163.046
159.071
155.288
151.693
148.28
145.044
141.979
139.081
136.342
133.759
131.324
129.032
126.877
124.853
122.955
121.176
119.512
117.955
116.502
115.146
113.882
112.706
111.611
110.592
109.646
108.767
107.951
107.193
106.489
105.835
105.227
104.66
104.132
103.637
103.174
102.738
102.325
101.933
101.559
101.198
100.848
100.506
100.168
395.301
385.913
376.548
367.224
357.956
348.761
339.651
330.643
321.75
312.984
304.359
295.884
287.571
279.429
271.467
263.693
256.113
248.733
241.559
234.594
227.842
221.305
214.985
208.883
203
197.334
191.886
186.653
181.633
176.824
172.223
167.827
163.631
159.631
155.824
152.204
148.766
145.506
142.417
139.495
136.734
134.128
131.671
129.358
127.182
125.139
123.222
121.425
119.743
118.171
116.702
115.331
114.054
112.863
111.756
110.726
109.769
108.879
108.053
107.286
106.573
105.911
105.295
104.722
104.186
103.686
103.216
102.774
102.356
101.959
101.58
101.214
100.859
100.512
100.17
395.332
386.005
376.701
367.436
358.226
349.085
340.029
331.07
322.223
313.5
304.912
296.472
288.19
280.074
272.135
264.378
256.812
249.443
242.275
235.313
228.56
222.02
215.694
209.583
203.688
198.009
192.545
187.295
182.257
177.429
172.807
168.389
164.172
160.15
156.32
152.678
149.218
145.935
142.824
139.88
137.098
134.471
131.994
129.661
127.467
125.406
123.471
121.658
119.96
118.372
116.889
115.505
114.214
113.011
111.892
110.851
109.883
108.984
108.149
107.373
106.653
105.983
105.36
104.779
104.238
103.731
103.256
102.809
102.386
101.984
101.599
101.229
100.87
100.519
100.172
395.36
386.088
376.839
367.627
358.469
349.378
340.369
331.456
322.65
313.966
305.414
297.005
288.751
280.66
272.741
265.001
257.449
250.089
242.927
235.969
229.216
222.673
216.342
210.223
204.319
198.628
193.15
187.885
182.831
177.985
173.345
168.908
164.671
160.629
156.779
153.116
149.636
146.333
143.202
140.238
137.436
134.79
132.295
129.944
127.733
125.654
123.704
121.875
120.162
118.561
117.064
115.667
114.364
113.15
112.02
110.968
109.991
109.083
108.239
107.455
106.727
106.05
105.42
104.834
104.286
103.774
103.294
102.841
102.413
102.007
101.618
101.244
100.88
100.525
100.174
395.385
386.163
376.963
367.8
358.689
349.643
340.677
331.804
323.036
314.387
305.867
297.488
289.259
281.19
273.29
265.567
258.027
250.677
243.522
236.566
229.815
223.27
216.934
210.809
204.896
199.195
193.706
188.427
183.359
178.497
173.841
169.387
165.132
161.072
157.203
153.522
150.022
146.701
143.552
140.57
137.75
135.087
132.574
130.207
127.979
125.886
123.92
122.077
120.351
118.736
117.227
115.818
114.504
113.279
112.139
111.078
110.092
109.175
108.323
107.532
106.797
106.113
105.477
104.884
104.331
103.814
103.329
102.872
102.439
102.028
101.635
101.257
100.89
100.531
100.176
395.408
386.23
377.075
367.955
358.886
349.882
340.954
332.118
323.385
314.768
306.278
297.925
289.72
281.672
273.789
266.081
258.553
251.211
244.063
237.111
230.361
223.815
217.475
211.345
205.425
199.715
194.215
188.925
183.843
178.968
174.297
169.827
165.556
161.48
157.594
153.896
150.38
147.041
143.875
140.877
138.041
135.361
132.833
130.451
128.209
126.101
124.121
122.265
120.526
118.899
117.379
115.959
114.634
113.399
112.25
111.18
110.186
109.261
108.402
107.604
106.862
106.172
105.53
104.932
104.374
103.852
103.362
102.9
102.464
102.049
101.652
101.27
100.899
100.536
100.178
395.428
386.291
377.176
368.096
359.065
350.097
341.205
332.402
323.701
315.112
306.649
298.32
290.137
282.108
274.242
266.547
259.03
251.697
244.555
237.607
230.858
224.311
217.969
211.835
205.908
200.19
194.681
189.381
184.287
179.4
174.715
170.232
165.946
161.855
157.955
154.241
150.709
147.355
144.174
141.161
138.309
135.615
133.073
130.677
128.421
126.3
124.308
122.44
120.689
119.051
117.52
116.09
114.755
113.512
112.354
111.276
110.273
109.341
108.475
107.671
106.923
106.227
105.58
104.977
104.413
103.887
103.392
102.927
102.486
102.068
101.667
101.281
100.907
100.541
100.18
395.446
386.346
377.267
368.222
359.226
350.291
341.431
332.658
323.985
315.424
306.984
298.678
290.514
282.503
274.652
266.97
259.463
252.139
245.002
238.058
231.311
224.764
218.42
212.281
206.349
200.625
195.108
189.798
184.694
179.796
175.099
170.604
166.305
162.2
158.286
154.559
151.013
147.645
144.45
141.423
138.558
135.85
133.295
130.886
128.618
126.485
124.481
122.602
120.841
119.192
117.651
116.211
114.868
113.616
112.45
111.364
110.355
109.416
108.544
107.733
106.979
106.278
105.626
105.018
104.45
103.919
103.421
102.952
102.507
102.085
101.681
101.292
100.915
100.546
100.181
395.463
386.396
377.349
368.336
359.371
350.466
341.635
332.89
324.242
315.705
307.287
299.001
290.856
282.86
275.023
267.353
259.856
252.539
245.408
238.468
231.722
225.176
218.83
212.688
206.752
201.022
195.498
190.18
185.067
180.158
175.451
170.944
166.634
162.518
158.591
154.851
151.293
147.912
144.704
141.664
138.787
136.067
133.5
131.079
128.8
126.656
124.642
122.752
120.981
119.323
117.772
116.324
114.973
113.713
112.539
111.447
110.431
109.486
108.607
107.791
107.032
106.326
105.669
105.057
104.485
103.95
103.448
102.975
102.527
102.102
101.695
101.303
100.922
100.55
100.183
395.478
386.44
377.423
368.439
359.502
350.624
341.819
333.098
324.474
315.958
307.561
299.293
291.164
283.184
275.36
267.7
260.212
252.903
245.777
238.84
232.097
225.55
219.204
213.059
207.119
201.384
195.853
190.528
185.408
180.49
175.774
171.257
166.936
162.808
158.871
155.119
151.549
148.157
144.938
141.887
138.998
136.267
133.689
131.258
128.968
126.813
124.79
122.89
121.11
119.444
117.885
116.429
115.07
113.803
112.622
111.523
110.501
109.55
108.666
107.845
107.081
106.371
105.709
105.093
104.517
103.978
103.473
102.996
102.546
102.117
101.707
101.312
100.929
100.554
100.184
395.491
386.48
377.489
368.531
359.619
350.766
341.985
333.287
324.684
316.187
307.809
299.557
291.444
283.476
275.664
268.015
260.535
253.232
246.111
239.178
232.437
225.891
219.543
213.397
207.453
201.713
196.178
190.846
185.719
180.793
176.068
171.542
167.212
163.075
159.127
155.365
151.785
148.383
145.153
142.091
139.192
136.451
133.863
131.422
129.122
126.959
124.926
123.018
121.23
119.555
117.989
116.526
115.16
113.886
112.699
111.594
110.566
109.61
108.721
107.895
107.126
106.412
105.746
105.126
104.547
104.005
103.496
103.016
102.563
102.131
101.719
101.321
100.935
100.558
100.185
395.503
386.516
377.549
368.615
359.726
350.895
342.134
333.456
324.872
316.394
308.032
299.796
291.696
283.741
275.939
268.299
260.827
253.531
246.415
239.485
232.745
226.2
219.852
213.704
207.757
202.014
196.473
191.136
186.002
181.07
176.338
171.803
167.465
163.319
159.362
155.591
152.001
148.589
145.35
142.279
139.371
136.621
134.023
131.573
129.265
127.093
125.052
123.137
121.34
119.659
118.085
116.615
115.243
113.963
112.77
111.66
110.627
109.666
108.772
107.941
107.169
106.45
105.781
105.157
104.574
104.029
103.517
103.035
102.579
102.145
101.729
101.329
100.941
100.561
100.187
395.514
386.549
377.603
368.69
359.821
351.01
342.269
333.609
325.043
316.58
308.233
300.011
291.923
283.979
276.188
268.556
261.092
253.801
246.689
239.763
233.025
226.481
220.132
213.983
208.034
202.287
196.742
191.401
186.261
181.322
176.583
172.042
167.696
163.542
159.577
155.797
152.199
148.779
145.531
142.451
139.535
136.776
134.17
131.712
129.396
127.217
125.168
123.245
121.442
119.754
118.174
116.698
115.319
114.034
112.836
111.72
110.682
109.717
108.819
107.984
107.208
106.485
105.813
105.186
104.6
104.052
103.537
103.052
102.593
102.157
101.739
101.337
100.946
100.565
100.188
395.524
386.578
377.652
368.757
359.907
351.114
342.39
333.747
325.196
316.748
308.415
300.205
292.129
284.195
276.412
268.788
261.33
254.045
246.938
240.014
233.279
226.735
220.386
214.236
208.285
202.535
196.987
191.641
186.496
181.552
176.807
172.259
167.906
163.745
159.773
155.986
152.38
148.952
145.696
142.609
139.685
136.918
134.305
131.84
129.517
127.33
125.275
123.345
121.536
119.841
118.255
116.774
115.39
114.099
112.897
111.776
110.734
109.764
108.862
108.024
107.244
106.518
105.842
105.212
104.624
104.073
103.555
103.068
102.607
102.168
101.748
101.344
100.952
100.568
100.189
395.533
386.604
377.695
368.818
359.985
351.208
342.499
333.871
325.334
316.9
308.578
300.38
292.314
284.389
276.615
268.998
261.546
254.266
247.162
240.242
233.508
226.965
220.617
214.465
208.513
202.76
197.209
191.859
186.71
181.761
177.011
172.457
168.098
163.931
159.952
156.158
152.546
149.11
145.848
142.753
139.822
137.049
134.429
131.957
129.627
127.434
125.373
123.437
121.622
119.921
118.33
116.843
115.455
114.16
112.952
111.828
110.781
109.808
108.902
108.06
107.277
106.548
105.869
105.237
104.645
104.092
103.572
103.083
102.619
102.179
101.757
101.351
100.956
100.57
100.19
395.541
386.628
377.735
368.872
360.054
351.292
342.597
333.982
325.458
317.036
308.725
300.537
292.481
284.565
276.798
269.187
261.741
254.465
247.365
240.447
233.715
227.174
220.825
214.673
208.719
202.965
197.411
192.057
186.904
181.951
177.196
172.637
168.273
164.1
160.115
156.315
152.697
149.255
145.986
142.885
139.947
137.168