/*--------------------------------*- C++ -*----------------------------------*\
  =========                 |
  \\      /  F ield         | OpenFOAM: The Open Source CFD Toolbox
   \\    /   O peration     | Website:  https://openfoam.org
    \\  /    A nd           | Version:  10
     \\/     M anipulation  |
\*---------------------------------------------------------------------------*/
FoamFile
{
    format      ascii;
    class       volScalarField;
    location    "78";
    object      gradTz;
}
// * * * * * * * * * * * * * * * * * * * * * * * * * * * * * * * * * * * * * //

dimensions      [0 -1 0 1 0 0 0];

internalField   nonuniform List<scalar> 
11250
(
-14425.7
-4217.12
-1589.18
-775.079
-457.911
-302.979
-212.461
-152.854
-110.734
-79.8836
-56.9916
-40.033
-27.607
-18.6544
-12.3353
-7.97554
-5.03944
-3.11085
-1.87578
-1.10476
-0.635567
-0.357193
-0.196137
-0.105248
-0.0552022
-0.028307
-0.014195
-0.00696298
-0.00334188
-0.0015698
-0.000721897
-0.000325093
-0.000143405
-6.19825e-05
-2.62567e-05
-1.09044e-05
-4.44086e-06
-1.77402e-06
-6.95325e-07
-2.67465e-07
-1.00987e-07
-3.74551e-08
-1.365e-08
-4.8833e-09
-1.71558e-09
-5.8503e-10
-2.05254e-10
-6.80523e-11
-1.53666e-11
-1.09762e-12
0
1.31714e-11
0
-1.4269e-11
0
0
0
0
0
0
0
0
-2.08547e-11
-1.09762e-12
2.19523e-11
1.09762e-12
-1.09762e-12
0
1.09762e-12
-1.09762e-12
0
-5.48809e-12
-1.09762e-12
6.5857e-12
0
-8479.76
-5065.46
-2949.33
-1825.13
-1209.68
-844.03
-607.15
-442.664
-323.136
-234.211
-167.612
-117.988
-81.4905
-55.1267
-36.4842
-23.6051
-14.9231
-9.21602
-5.55902
-3.27502
-1.88458
-1.05937
-0.581809
-0.31225
-0.163797
-0.0840034
-0.0421294
-0.0206675
-0.00992023
-0.00466025
-0.00214325
-0.00096524
-0.000425814
-0.000184056
-7.79732e-05
-3.23838e-05
-1.31891e-05
-5.269e-06
-2.06527e-06
-7.94473e-07
-2.99995e-07
-1.11241e-07
-4.05427e-08
-1.45182e-08
-5.07977e-09
-1.74411e-09
-6.20154e-10
-1.92083e-10
-4.39047e-11
-1.20738e-11
0
0
0
0
0
0
-2.19523e-12
0
5.48809e-12
-1.09762e-12
-3.29285e-12
1.09762e-12
1.09762e-12
8.78094e-12
-1.09762e-12
-1.20738e-11
1.09762e-12
2.19523e-12
-1.09762e-12
-4.39047e-12
1.09762e-12
4.39047e-12
0
-8.78094e-12
8.78094e-12
-5930.98
-4599.91
-3304.53
-2357.03
-1706.23
-1254.85
-931.458
-692.246
-511.484
-373.694
-268.892
-190.014
-131.605
-89.2157
-59.1404
-38.3119
-24.2451
-14.9851
-9.04496
-5.33168
-3.06949
-1.72612
-0.948321
-0.509103
-0.26713
-0.137029
-0.0687367
-0.0337264
-0.016191
-0.00760722
-0.00349903
-0.00157603
-0.00069534
-0.000300588
-0.000127353
-5.28972e-05
-2.15456e-05
-8.60804e-06
-3.37431e-06
-1.29812e-06
-4.90228e-07
-1.81792e-07
-6.62412e-08
-2.37009e-08
-8.32214e-09
-2.87356e-09
-9.72489e-10
-3.16114e-10
-9.87856e-11
-4.39047e-11
-5.48809e-12
1.53666e-11
8.78094e-12
-1.31714e-11
-1.53666e-11
-2.19523e-12
6.58571e-12
9.87856e-12
0
5.48809e-12
0
0
1.09762e-12
5.48809e-12
-1.09762e-12
-5.48809e-12
0
0
0
-1.09762e-11
0
1.20738e-11
1.09762e-12
-1.09762e-12
-1.09762e-12
-4685.18
-4072.97
-3290.59
-2576.85
-1994.51
-1535.31
-1174.87
-891.107
-667.573
-492.421
-356.737
-253.338
-176.11
-119.72
-79.5337
-51.6113
-32.7064
-20.2375
-12.2265
-7.21267
-4.15511
-2.33792
-1.28505
-0.690164
-0.362265
-0.18589
-0.0932731
-0.045777
-0.0219812
-0.0103298
-0.00475222
-0.00214085
-0.000944689
-0.000408439
-0.000173071
-7.18953e-05
-2.92872e-05
-1.17023e-05
-4.58775e-06
-1.76511e-06
-6.66652e-07
-2.47224e-07
-9.00584e-08
-3.22315e-08
-1.13252e-08
-3.91301e-09
-1.33031e-09
-4.4234e-10
-1.49276e-10
-4.17095e-11
-3.29285e-12
3.29285e-12
1.09762e-11
-4.39047e-12
-1.09762e-11
0
3.29285e-12
1.09762e-12
-2.19523e-12
0
-1.09762e-12
0
-1.20738e-11
-1.09762e-12
1.4269e-11
1.09762e-12
0
0
-2.19524e-12
0
8.78094e-12
1.09762e-12
-9.87856e-12
0
0
-4013.34
-3681.19
-3179.04
-2644.32
-2147.61
-1713.75
-1346.1
-1040.26
-789.861
-588.336
-429.295
-306.509
-213.947
-145.904
-97.1709
-63.1826
-40.104
-24.8478
-15.0285
-8.87382
-5.11609
-2.88057
-1.58424
-0.85128
-0.447034
-0.229477
-0.115184
-0.056548
-0.0271608
-0.0127672
-0.00587487
-0.00264716
-0.00116833
-0.000505222
-0.000214117
-8.896e-05
-3.62439e-05
-1.4484e-05
-5.67897e-06
-2.18524e-06
-8.25457e-07
-3.06161e-07
-1.11516e-07
-3.99039e-08
-1.4044e-08
-4.84598e-09
-1.63874e-09
-5.5759e-10
-1.8879e-10
-4.93928e-11
1.09762e-12
0
0
0
0
0
-5.48809e-12
0
1.20738e-11
0
-8.78094e-12
0
2.19523e-12
1.09762e-12
5.48809e-12
-2.19523e-12
-4.39047e-12
1.09762e-12
2.19523e-12
-5.48809e-12
-2.19523e-12
4.39047e-12
0
-5.48809e-12
5.48809e-12
-3626.22
-3416.04
-3064.15
-2647.81
-2222.93
-1821.95
-1461.06
-1147.03
-881.35
-662.417
-486.677
-349.319
-244.835
-167.512
-111.853
-72.8824
-46.3407
-28.7531
-17.4113
-10.2912
-5.9384
-3.34604
-1.84143
-0.990036
-0.520156
-0.26713
-0.134136
-0.0658753
-0.0316508
-0.014882
-0.00684979
-0.00308718
-0.00136284
-0.00058945
-0.00024986
-0.000103829
-4.23085e-05
-1.69101e-05
-6.6312e-06
-2.552e-06
-9.64118e-07
-3.57617e-07
-1.30275e-07
-4.66411e-08
-1.64039e-08
-5.67139e-09
-1.92303e-09
-6.22349e-10
-2.04157e-10
-5.92713e-11
-9.87856e-12
-9.87856e-12
0
0
2.19524e-12
0
-5.48809e-12
-6.58571e-12
6.5857e-12
4.39047e-12
-1.09762e-12
0
4.39047e-12
0
-5.48809e-12
1.09762e-12
0
0
0
-1.09762e-11
-2.19523e-12
4.39047e-12
1.09762e-12
4.39047e-12
3.29285e-12
-3393.8
-3241.85
-2971.69
-2629.45
-2256.91
-1885.32
-1535.66
-1220.72
-947.241
-717.462
-530.334
-382.492
-269.118
-184.697
-123.638
-80.7281
-51.4172
-31.9487
-19.3698
-11.4606
-6.61904
-3.73241
-2.05543
-1.10574
-0.581245
-0.29864
-0.150019
-0.073703
-0.0354236
-0.0166609
-0.00767069
-0.00345803
-0.0015269
-0.000660553
-0.000280056
-0.000116398
-4.74386e-05
-1.89637e-05
-7.43764e-06
-2.86279e-06
-1.08167e-06
-4.01287e-07
-1.46215e-07
-5.233e-08
-1.83895e-08
-6.34752e-09
-2.1656e-09
-7.35404e-10
-2.40378e-10
-5.81737e-11
0
7.68332e-12
-3.29285e-12
-1.09762e-12
4.39047e-12
0
-2.19524e-12
0
2.19523e-12
2.19524e-12
0
1.09762e-12
-1.09762e-12
-1.09762e-12
1.09762e-12
-1.09762e-12
0
0
0
0
0
-4.39047e-12
-1.09762e-12
0
5.48809e-12
-3250.96
-3128.82
-2904.11
-2607.24
-2270.31
-1921.48
-1582.84
-1270.11
-993.201
-757.008
-562.421
-407.315
-287.551
-197.895
-132.777
-86.8607
-55.4117
-34.4773
-20.927
-12.3942
-7.16437
-4.04293
-2.22789
-1.1992
-0.630696
-0.324195
-0.162923
-0.0800718
-0.0384973
-0.0181121
-0.00834111
-0.00376122
-0.00166116
-0.000718792
-0.000304809
-0.00012671
-5.16502e-05
-2.06507e-05
-8.10058e-06
-3.1184e-06
-1.1784e-06
-4.37223e-07
-1.59363e-07
-5.70761e-08
-2.00425e-08
-6.90731e-09
-2.35439e-09
-7.83699e-10
-2.52452e-10
-6.14666e-11
1.09762e-12
-1.09762e-12
-1.09762e-12
1.09762e-12
-7.68332e-12
0
-5.48809e-12
0
8.78094e-12
0
2.19523e-12
0
3.29285e-12
0
0
-1.09762e-12
0
-1.20738e-11
0
1.31714e-11
1.09762e-12
-8.78094e-12
-8.78094e-12
4.39047e-12
1.09762e-11
-3162.2
-3056.08
-2857.15
-2587.81
-2274.18
-1941.64
-1612.07
-1302.42
-1024.38
-784.582
-585.277
-425.301
-301.096
-207.705
-139.634
-91.4997
-58.4541
-36.4144
-22.1259
-13.1161
-7.58762
-4.28473
-2.36256
-1.27238
-0.669502
-0.34429
-0.173088
-0.0850974
-0.0409265
-0.0192605
-0.00887234
-0.00400174
-0.00176779
-0.000765088
-0.000324504
-0.000134921
-5.5007e-05
-2.19964e-05
-8.62976e-06
-3.32259e-06
-1.25573e-06
-4.65986e-07
-1.69842e-07
-6.08322e-08
-2.13882e-08
-7.36392e-09
-2.47293e-09
-8.29799e-10
-2.97454e-10
-6.80523e-11
5.48809e-12
2.19524e-12
0
0
5.48809e-12
2.305e-11
-5.48809e-12
-2.41476e-11
0
1.09762e-12
1.09762e-12
-1.09762e-12
0
0
1.09762e-12
6.58571e-12
-1.09762e-12
-6.5857e-12
1.09762e-12
-1.09762e-12
0
1.09762e-12
0
-1.09762e-12
0
-3106.91
-3009.69
-2825.58
-2572.85
-2274.1
-1952.67
-1629.87
-1323.11
-1045.03
-803.296
-601.096
-437.951
-310.748
-214.773
-144.622
-94.9004
-60.6995
-37.8525
-23.0204
-13.6572
-7.90607
-4.46727
-2.46455
-1.32794
-0.699039
-0.359618
-0.180857
-0.0889452
-0.0427894
-0.0201425
-0.0092809
-0.00418695
-0.00184999
-0.000800818
-0.000339719
-0.000141272
-5.7605e-05
-2.30387e-05
-9.04001e-06
-3.48101e-06
-1.31577e-06
-4.88316e-07
-1.77982e-07
-6.37408e-08
-2.24068e-08
-7.72832e-09
-2.61672e-09
-8.6602e-10
-3.16114e-10
-8.56142e-11
1.20738e-11
1.09762e-12
-4.39047e-12
1.09762e-12
3.29285e-12
1.4269e-11
0
-1.75619e-11
0
3.29285e-12
0
9.87856e-12
0
-9.87856e-12
0
1.64643e-11
1.09762e-12
-1.64643e-11
-1.09762e-12
2.19524e-12
5.48809e-12
-2.19524e-12
-5.48809e-12
0
0
-3072.58
-2980.39
-2804.89
-2562.14
-2272.71
-1958.58
-1640.54
-1336.11
-1058.39
-815.683
-611.756
-446.6
-317.429
-219.718
-148.142
-97.3192
-62.3072
-38.8882
-23.6679
-14.0505
-8.13851
-4.60098
-2.53948
-1.36888
-0.720856
-0.370966
-0.186621
-0.091805
-0.0441764
-0.0208002
-0.00958598
-0.00432544
-0.00191153
-0.000827599
-0.000351136
-0.000146041
-5.95583e-05
-2.38231e-05
-9.34897e-06
-3.60042e-06
-1.36107e-06
-5.05155e-07
-1.84126e-07
-6.59471e-08
-2.32036e-08
-8.01919e-09
-2.73087e-09
-9.13218e-10
-3.05138e-10
-8.23213e-11
-2.19523e-12
3.29285e-12
2.19523e-12
1.09762e-12
0
2.19523e-12
-1.09762e-12
-2.19523e-12
-2.19523e-12
1.09762e-12
1.09762e-12
0
-1.09762e-12
-1.09762e-12
1.09762e-12
1.09762e-12
1.09762e-12
-1.09762e-12
0
0
1.09762e-12
-6.5857e-12
0
5.48809e-12
0
-3051.43
-2962.12
-2791.62
-2554.83
-2271.14
-1961.69
-1646.85
-1344.13
-1066.86
-823.692
-618.759
-452.36
-321.929
-223.08
-150.556
-98.9902
-63.4251
-39.6124
-24.123
-14.3282
-8.30323
-4.69607
-2.59294
-1.39817
-0.736504
-0.379124
-0.190773
-0.0938693
-0.0451792
-0.0212766
-0.00980728
-0.00442603
-0.00195629
-0.000847101
-0.00035946
-0.000149522
-6.09853e-05
-2.43967e-05
-9.5751e-06
-3.68789e-06
-1.39429e-06
-5.1755e-07
-1.88656e-07
-6.75726e-08
-2.37931e-08
-8.24201e-09
-2.80551e-09
-9.31877e-10
-2.94161e-10
-7.35404e-11
-5.48809e-12
0
0
1.09762e-12
1.09762e-12
-2.19523e-12
0
-1.09762e-12
-1.09762e-12
3.29285e-12
1.4269e-11
-2.19523e-12
-1.31714e-11
0
-9.87856e-12
-2.08547e-11
8.78094e-12
2.19523e-11
0
0
0
0
-2.19524e-12
-3.29285e-12
5.48809e-12
-3038.53
-2950.87
-2783.29
-2550.03
-2269.81
-1963.29
-1650.53
-1348.99
-1072.12
-828.755
-623.25
-456.098
-324.881
-225.306
-152.167
-100.113
-64.1807
-40.1045
-24.4337
-14.5186
-8.41662
-4.76176
-2.62998
-1.41852
-0.747407
-0.384821
-0.193679
-0.095317
-0.0458839
-0.0216118
-0.00996327
-0.00449704
-0.00198793
-0.000860904
-0.000365358
-0.000151992
-6.19987e-05
-2.48045e-05
-9.73606e-06
-3.75022e-06
-1.41797e-06
-5.26382e-07
-1.91902e-07
-6.87559e-08
-2.41992e-08
-8.36165e-09
-2.83185e-09
-9.46146e-10
-3.13919e-10
-8.01261e-11
-1.09762e-11
-4.39047e-12
-2.19523e-12
-1.09762e-12
0
0
0
0
0
2.19524e-12
-2.19524e-12
6.5857e-12
0
-1.86595e-11
-4.39047e-12
9.87856e-12
3.29285e-12
3.29285e-12
1.09762e-12
0
-1.09762e-12
0
0
1.09762e-12
-1.09762e-12
-3030.77
-2944.06
-2778.16
-2546.96
-2268.82
-1964.09
-1652.64
-1351.89
-1075.32
-831.886
-626.064
-458.466
-326.768
-226.74
-153.213
-100.846
-64.6774
-40.4298
-24.64
-14.6456
-8.49252
-4.80587
-2.65494
-1.43227
-0.754792
-0.38869
-0.195657
-0.096304
-0.0463652
-0.0218412
-0.0100702
-0.00454578
-0.00200967
-0.000870403
-0.000369422
-0.000153695
-6.26986e-05
-2.50864e-05
-9.84744e-06
-3.79341e-06
-1.43439e-06
-5.32538e-07
-1.94183e-07
-6.95604e-08
-2.44791e-08
-8.45934e-09
-2.83954e-09
-9.3517e-10
-3.11723e-10
-8.78094e-11
-1.86595e-11
0
-2.19523e-12
1.09762e-12
0
-1.09762e-12
-8.78094e-12
-8.78094e-12
4.39047e-12
8.78094e-12
4.39047e-12
0
-1.20738e-11
-1.09762e-12
1.31714e-11
2.19523e-12
-2.19523e-12
-1.09762e-12
1.09762e-12
-1.09762e-12
-4.39047e-12
-7.68332e-12
3.29285e-12
1.31714e-11
-3.29285e-12
-3026.17
-2940
-2775.06
-2545.06
-2268.14
-1964.48
-1653.84
-1353.59
-1077.23
-833.781
-627.786
-459.93
-327.944
-227.642
-153.874
-101.313
-64.9953
-40.6389
-24.7732
-14.7279
-8.54193
-4.83469
-2.67129
-1.44131
-0.759657
-0.391244
-0.196965
-0.0969584
-0.0466849
-0.0219939
-0.0101414
-0.00457832
-0.00202421
-0.000876762
-0.000372146
-0.000154838
-6.31688e-05
-2.5276e-05
-9.92241e-06
-3.82248e-06
-1.44547e-06
-5.36681e-07
-1.95695e-07
-7.01257e-08
-2.46986e-08
-8.51971e-09
-2.85381e-09
-9.52732e-10
-3.17211e-10
-7.57356e-11
-4.39047e-12
-2.19524e-12
2.19523e-12
0
-2.19524e-12
5.48809e-12
0
-5.48809e-12
1.09762e-12
0
-2.19524e-12
0
1.09762e-12
0
4.39047e-12
0
-4.39047e-12
-1.09762e-12
0
-4.39047e-12
4.39047e-12
5.48809e-12
-4.39047e-12
1.09762e-12
-1.09762e-12
-3023.49
-2937.62
-2773.22
-2543.91
-2267.7
-1964.66
-1654.51
-1354.57
-1078.35
-834.905
-628.818
-460.814
-328.661
-228.194
-154.283
-101.603
-65.1935
-40.77
-24.8571
-14.7799
-8.57324
-4.85301
-2.68172
-1.44708
-0.762775
-0.392885
-0.197808
-0.0973807
-0.0468915
-0.0220927
-0.0101876
-0.00459945
-0.00203367
-0.000880904
-0.000373923
-0.000155585
-6.34762e-05
-2.54001e-05
-9.97154e-06
-3.84154e-06
-1.45271e-06
-5.39402e-07
-1.96707e-07
-7.04802e-08
-2.48237e-08
-8.55483e-09
-2.89003e-09
-9.70294e-10
-3.09528e-10
-8.45165e-11
-1.31714e-11
-9.87856e-12
3.29285e-12
-5.48809e-12
-2.19524e-12
1.53666e-11
-1.09762e-12
0
5.48809e-12
1.09762e-12
-8.78094e-12
-1.09762e-12
5.48809e-12
8.78094e-12
0
-8.78094e-12
0
-4.39047e-12
0
-6.58571e-12
-1.09762e-12
9.87856e-12
9.87856e-12
1.09762e-12
-8.78094e-12
-3021.95
-2936.25
-2772.16
-2543.23
-2267.42
-1964.75
-1654.88
-1355.12
-1078.99
-835.557
-629.422
-461.336
-329.087
-228.525
-154.528
-101.778
-65.314
-40.8499
-24.9085
-14.8119
-8.59257
-4.86435
-2.68819
-1.45068
-0.764721
-0.393912
-0.198336
-0.0976459
-0.0470216
-0.022155
-0.0102168
-0.00461281
-0.00203966
-0.000883531
-0.000375051
-0.00015606
-6.36719e-05
-2.54792e-05
-1.00029e-05
-3.85372e-06
-1.45737e-06
-5.41132e-07
-1.97337e-07
-7.07074e-08
-2.48973e-08
-8.60861e-09
-2.89881e-09
-9.77977e-10
-3.38066e-10
-8.34189e-11
-7.68332e-12
0
-1.09762e-12
1.09762e-12
-4.39047e-12
-1.09762e-12
6.5857e-12
8.78094e-12
-1.09762e-12
-8.78094e-12
0
0
-2.19523e-12
4.39047e-12
2.19523e-12
-5.48809e-12
-2.19523e-12
0
2.19523e-12
-6.5857e-12
-4.39047e-12
6.5857e-12
4.39047e-12
8.78094e-12
-7.68332e-12
-3021.09
-2935.48
-2771.55
-2542.84
-2267.25
-1964.78
-1655.07
-1355.43
-1079.36
-835.927
-629.768
-461.637
-329.334
-228.718
-154.672
-101.882
-65.3854
-40.8975
-24.9392
-14.8311
-8.60419
-4.87119
-2.69211
-1.45286
-0.765904
-0.394537
-0.198658
-0.0978081
-0.0471013
-0.0221932
-0.0102348
-0.00462104
-0.00204335
-0.000885153
-0.000375749
-0.000156354
-6.37933e-05
-2.55283e-05
-1.00223e-05
-3.8613e-06
-1.46026e-06
-5.42213e-07
-1.97717e-07
-7.08655e-08
-2.49434e-08
-8.61081e-09
-2.92625e-09
-9.7688e-10
-3.25992e-10
-9.21999e-11
-1.97571e-11
0
-1.09762e-12
0
2.19524e-12
0
-1.09762e-12
0
-1.09762e-12
0
0
1.09762e-12
-1.09762e-12
0
0
0
-1.09762e-12
0
1.09762e-12
-1.4269e-11
4.39047e-12
9.87856e-12
-3.29285e-12
4.39047e-12
-1.09762e-12
-3020.61
-2935.05
-2771.21
-2542.61
-2267.16
-1964.8
-1655.18
-1355.59
-1079.55
-836.134
-629.962
-461.807
-329.474
-228.828
-154.755
-101.941
-65.4266
-40.9252
-24.957
-14.8423
-8.611
-4.87522
-2.69442
-1.45415
-0.766605
-0.394908
-0.19885
-0.0979048
-0.0471489
-0.0222161
-0.0102455
-0.00462598
-0.00204557
-0.00088613
-0.000376169
-0.000156531
-6.38665e-05
-2.5558e-05
-1.00341e-05
-3.86587e-06
-1.462e-06
-5.42873e-07
-1.98e-07
-7.09654e-08
-2.49785e-08
-8.62947e-09
-2.93064e-09
-9.64806e-10
-3.18309e-10
-9.7688e-11
-1.86595e-11
0
-1.09762e-12
-1.09762e-12
0
1.09762e-12
-1.09762e-12
0
1.09762e-12
0
-3.29285e-12
0
3.29285e-12
0
1.09762e-12
8.78094e-12
0
-9.87856e-12
0
0
9.87856e-12
3.29285e-12
-1.4269e-11
-2.19523e-12
3.29285e-12
-3020.35
-2934.82
-2771.03
-2542.49
-2267.1
-1964.8
-1655.23
-1355.68
-1079.66
-836.246
-630.069
-461.901
-329.552
-228.89
-154.801
-101.975
-65.4499
-40.9408
-24.9672
-14.8487
-8.6149
-4.87752
-2.69574
-1.45489
-0.76701
-0.395123
-0.198962
-0.097961
-0.0471766
-0.0222295
-0.0102518
-0.00462887
-0.00204687
-0.000886702
-0.000376416
-0.000156635
-6.39097e-05
-2.55755e-05
-1.00411e-05
-3.86859e-06
-1.46304e-06
-5.4328e-07
-1.98156e-07
-7.09895e-08
-2.49862e-08
-8.64374e-09
-2.94052e-09
-9.72489e-10
-3.38066e-10
-1.09762e-10
-5.48809e-12
0
0
1.09762e-12
1.09762e-12
-2.19523e-12
1.09762e-12
-1.09762e-12
2.19523e-12
-2.19523e-12
-1.09762e-11
3.29285e-12
7.68332e-12
-8.78094e-12
-1.09762e-11
9.87856e-12
9.87856e-12
5.48809e-12
-1.09762e-12
-4.39047e-12
0
-1.09762e-12
0
0
1.09762e-12
-3020.21
-2934.69
-2770.93
-2542.43
-2267.07
-1964.8
-1655.26
-1355.73
-1079.72
-836.306
-630.126
-461.952
-329.594
-228.923
-154.827
-101.993
-65.4628
-40.9495
-24.9728
-14.8522
-8.61707
-4.87882
-2.69649
-1.45531
-0.767238
-0.395245
-0.199024
-0.0979929
-0.0471923
-0.0222371
-0.0102554
-0.00463052
-0.00204761
-0.00088703
-0.000376558
-0.000156695
-6.39345e-05
-2.55855e-05
-1.0045e-05
-3.87016e-06
-1.46364e-06
-5.43493e-07
-1.98242e-07
-7.1051e-08
-2.50202e-08
-8.64484e-09
-2.91417e-09
-9.83465e-10
-3.60019e-10
-9.21999e-11
6.58571e-12
0
0
1.09762e-12
2.19524e-12
1.86595e-11
-4.39047e-12
-1.75619e-11
1.09762e-12
0
-1.09762e-11
-1.09762e-12
1.31714e-11
0
-2.19523e-12
0
1.09762e-12
-1.09762e-12
0
-2.19524e-12
-2.19523e-12
6.58571e-12
-3.29285e-12
-7.68332e-12
8.78094e-12
-3020.14
-2934.63
-2770.88
-2542.39
-2267.05
-1964.81
-1655.28
-1355.75
-1079.75
-836.338
-630.156
-461.979
-329.617
-228.941
-154.84
-102.003
-65.4697
-40.9541
-24.9759
-14.8542
-8.61826
-4.87952
-2.69689
-1.45554
-0.767364
-0.395312
-0.199059
-0.0980105
-0.047201
-0.0222413
-0.0102574
-0.00463144
-0.00204803
-0.000887213
-0.000376637
-0.000156729
-6.39484e-05
-2.55912e-05
-1.00473e-05
-3.87101e-06
-1.46397e-06
-5.43635e-07
-1.98287e-07
-7.10828e-08
-2.50323e-08
-8.64923e-09
-2.95479e-09
-9.71391e-10
-3.20504e-10
-9.43951e-11
1.09762e-12
0
1.09762e-12
0
-3.29285e-12
9.87856e-12
0
-9.87856e-12
0
0
0
0
-1.64643e-11
0
1.64643e-11
0
1.09762e-12
0
0
-1.31714e-11
0
1.20738e-11
-3.29285e-12
1.09762e-12
2.19524e-12
-3020.1
-2934.59
-2770.85
-2542.37
-2267.04
-1964.81
-1655.28
-1355.77
-1079.76
-836.354
-630.172
-461.992
-329.628
-228.95
-154.847
-102.008
-65.4733
-40.9566
-24.9775
-14.8552
-8.61889
-4.8799
-2.69711
-1.45566
-0.767431
-0.395347
-0.199078
-0.09802
-0.0472057
-0.0222435
-0.0102584
-0.00463194
-0.00204825
-0.000887312
-0.00037668
-0.000156747
-6.3956e-05
-2.55943e-05
-1.00486e-05
-3.87152e-06
-1.46418e-06
-5.43698e-07
-1.98305e-07
-7.10916e-08
-2.50389e-08
-8.65142e-09
-2.93832e-09
-9.80172e-10
-3.18309e-10
-8.45165e-11
-6.5857e-12
0
-1.09762e-12
1.09762e-12
0
-1.09762e-12
-7.68332e-12
-1.09762e-12
7.68332e-12
1.09762e-12
0
0
0
-1.09762e-12
-4.39047e-12
1.20738e-11
4.39047e-12
-1.09762e-11
-2.19523e-12
-1.09762e-12
2.19523e-12
0
0
-1.09762e-11
1.20738e-11
-3020.08
-2934.58
-2770.84
-2542.36
-2267.04
-1964.8
-1655.29
-1355.77
-1079.77
-836.362
-630.179
-461.999
-329.634
-228.955
-154.851
-102.011
-65.4752
-40.9579
-24.9784
-14.8557
-8.61922
-4.88009
-2.69723
-1.45573
-0.767466
-0.395366
-0.199088
-0.098025
-0.0472082
-0.0222448
-0.010259
-0.0046322
-0.00204837
-0.000887365
-0.000376703
-0.000156756
-6.396e-05
-2.55959e-05
-1.00492e-05
-3.87179e-06
-1.46428e-06
-5.43733e-07
-1.98321e-07
-7.10872e-08
-2.50235e-08
-8.64264e-09
-2.9504e-09
-9.84563e-10
-3.06235e-10
-8.8907e-11
-1.86595e-11
5.48809e-12
0
-7.68332e-12
3.29285e-12
2.19523e-12
7.68332e-12
1.09762e-12
-1.20738e-11
0
-1.09762e-12
-1.09762e-12
-2.19524e-12
0
1.75619e-11
0
-1.4269e-11
0
1.09762e-12
-5.48809e-12
-2.19523e-12
6.58571e-12
-1.09762e-12
-1.09762e-12
2.19524e-12
-3020.07
-2934.57
-2770.83
-2542.36
-2267.04
-1964.8
-1655.29
-1355.77
-1079.78
-836.366
-630.183
-462.003
-329.637
-228.957
-154.853
-102.012
-65.4762
-40.9585
-24.9788
-14.856
-8.61938
-4.88019
-2.69728
-1.45576
-0.767484
-0.395376
-0.199093
-0.0980276
-0.0472095
-0.0222454
-0.0102593
-0.00463234
-0.00204843
-0.000887393
-0.000376715
-0.000156762
-6.39621e-05
-2.55968e-05
-1.00496e-05
-3.87194e-06
-1.46435e-06
-5.43768e-07
-1.98341e-07
-7.10696e-08
-2.50114e-08
-8.65142e-09
-2.95149e-09
-9.91149e-10
-3.17211e-10
-9.11023e-11
-1.64643e-11
5.48809e-12
8.78094e-12
-1.31714e-11
6.58571e-12
1.53666e-11
-2.19524e-12
-3.29285e-12
-5.48809e-12
2.19524e-12
1.09762e-12
-3.29285e-12
4.39047e-12
4.39047e-12
-4.39047e-12
-2.19524e-12
0
0
0
0
0
0
1.09762e-12
1.09762e-12
-2.19524e-12
-3020.07
-2934.57
-2770.83
-2542.36
-2267.04
-1964.8
-1655.29
-1355.78
-1079.78
-836.368
-630.185
-462.005
-329.639
-228.959
-154.854
-102.013
-65.4766
-40.9589
-24.979
-14.8561
-8.61947
-4.88024
-2.69731
-1.45578
-0.767493
-0.395381
-0.199095
-0.0980289
-0.0472102
-0.0222457
-0.0102594
-0.00463241
-0.00204847
-0.000887407
-0.000376721
-0.000156764
-6.39632e-05
-2.55972e-05
-1.00497e-05
-3.872e-06
-1.46439e-06
-5.43812e-07
-1.98358e-07
-7.10784e-08
-2.50026e-08
-8.65142e-09
-2.96357e-09
-9.75782e-10
-3.16114e-10
-9.54927e-11
-1.64643e-11
-1.09762e-12
3.29285e-12
0
0
0
8.78094e-12
-2.19523e-12
-5.48809e-12
1.09762e-12
-2.19523e-12
0
2.19523e-12
-2.19523e-12
-2.19523e-12
4.39047e-12
1.09762e-12
-3.29285e-12
0
0
2.19523e-12
0
-2.19523e-12
-5.48809e-12
5.48809e-12
-3020.07
-2934.56
-2770.83
-2542.36
-2267.04
-1964.8
-1655.29
-1355.78
-1079.78
-836.369
-630.186
-462.005
-329.639
-228.959
-154.854
-102.013
-65.4769
-40.959
-24.9791
-14.8562
-8.61951
-4.88027
-2.69733
-1.45578
-0.767498
-0.395383
-0.199097
-0.0980295
-0.0472105
-0.0222458
-0.0102595
-0.00463244
-0.00204848
-0.000887414
-0.000376724
-0.000156765
-6.39637e-05
-2.55974e-05
-1.00498e-05
-3.87202e-06
-1.46437e-06
-5.43787e-07
-1.98352e-07
-7.10905e-08
-2.50169e-08
-8.64813e-09
-2.93832e-09
-9.88953e-10
-3.40261e-10
-9.98832e-11
-1.86595e-11
0
0
0
0
2.19523e-12
0
-1.09762e-12
0
0
-2.19524e-12
0
-4.39047e-12
-1.09762e-12
5.48809e-12
1.09762e-12
0
2.19523e-12
-1.09762e-12
-6.58571e-12
0
2.19524e-12
-1.4269e-11
4.39047e-12
1.31714e-11
-3020.07
-2934.56
-2770.83
-2542.36
-2267.04
-1964.8
-1655.29
-1355.78
-1079.78
-836.369
-630.187
-462.006
-329.64
-228.959
-154.854
-102.013
-65.477
-40.9591
-24.9791
-14.8562
-8.61953
-4.88028
-2.69733
-1.45579
-0.7675
-0.395384
-0.199097
-0.0980298
-0.0472106
-0.0222459
-0.0102596
-0.00463246
-0.00204849
-0.000887417
-0.000376725
-0.000156766
-6.3964e-05
-2.55976e-05
-1.00499e-05
-3.87203e-06
-1.46438e-06
-5.43777e-07
-1.98344e-07
-7.10916e-08
-2.50158e-08
-8.62398e-09
-2.93283e-09
-9.82368e-10
-3.32578e-10
-1.26226e-10
-3.40261e-11
-5.48809e-12
-1.09762e-12
5.48809e-12
0
2.19523e-12
0
1.09762e-12
0
-2.19524e-12
0
-5.48809e-12
-1.75619e-11
4.39047e-12
1.86595e-11
0
-1.09762e-12
1.09762e-12
0
0
0
0
0
8.78094e-12
-8.78094e-12
-3020.07
-2934.56
-2770.83
-2542.36
-2267.04
-1964.8
-1655.29
-1355.78
-1079.78
-836.369
-630.187
-462.006
-329.64
-228.96
-154.854
-102.013
-65.477
-40.9591
-24.9792
-14.8562
-8.61954
-4.88028
-2.69734
-1.45579
-0.767501
-0.395385
-0.199098
-0.09803
-0.0472107
-0.022246
-0.0102596
-0.00463246
-0.00204849
-0.000887419
-0.000376726
-0.000156766
-6.39641e-05
-2.55976e-05
-1.00499e-05
-3.87205e-06
-1.46439e-06
-5.43775e-07
-1.98327e-07
-7.10532e-08
-2.49873e-08
-8.63276e-09
-2.94381e-09
-9.86758e-10
-3.47945e-10
-1.31714e-10
-2.63428e-11
1.09762e-12
2.19523e-12
-1.09762e-12
-2.19523e-12
0
0
0
-1.09762e-12
0
1.09762e-12
-1.09762e-12
0
1.09762e-12
-3.29285e-12
0
3.29285e-12
9.87856e-12
3.29285e-12
-8.78094e-12
-2.41476e-11
-1.09762e-12
1.64643e-11
2.19523e-12
2.19523e-12
-3020.07
-2934.56
-2770.83
-2542.36
-2267.04
-1964.8
-1655.29
-1355.78
-1079.78
-836.37
-630.187
-462.006
-329.64
-228.96
-154.854
-102.013
-65.477
-40.9591
-24.9792
-14.8562
-8.61954
-4.88029
-2.69734
-1.45579
-0.767501
-0.395385
-0.199098
-0.09803
-0.0472107
-0.022246
-0.0102596
-0.00463247
-0.00204849
-0.000887419
-0.000376726
-0.000156767
-6.39642e-05
-2.55976e-05
-1.00499e-05
-3.87204e-06
-1.46438e-06
-5.43782e-07
-1.98324e-07
-7.10674e-08
-2.50037e-08
-8.6141e-09
-2.94601e-09
-9.90051e-10
-3.2709e-10
-1.22933e-10
-2.74404e-11
1.31714e-11
0
-1.53666e-11
0
1.20738e-11
-1.09762e-12
-9.87856e-12
0
-1.09762e-12
1.09762e-12
0
0
0
0
0
9.87856e-12
2.19523e-12
-9.87856e-12
-6.58571e-12
-1.09762e-12
5.48809e-12
0
0
0
-3020.07
-2934.56
-2770.83
-2542.36
-2267.04
-1964.8
-1655.29
-1355.78
-1079.78
-836.37
-630.187
-462.006
-329.64
-228.96
-154.854
-102.013
-65.477
-40.9591
-24.9792
-14.8562
-8.61954
-4.88029
-2.69734
-1.45579
-0.767502
-0.395385
-0.199098
-0.0980301
-0.0472107
-0.022246
-0.0102596
-0.00463247
-0.00204849
-0.00088742
-0.000376726
-0.000156767
-6.39642e-05
-2.55976e-05
-1.00499e-05
-3.87206e-06
-1.46438e-06
-5.43771e-07
-1.98341e-07
-7.10674e-08
-2.50026e-08
-8.62288e-09
-2.92296e-09
-9.86758e-10
-3.38066e-10
-1.05371e-10
-2.41476e-11
1.09762e-12
1.09762e-11
1.09762e-12
2.19524e-12
8.78094e-12
-1.31714e-11
-9.87856e-12
1.20738e-11
-1.09762e-12
-4.39047e-12
-3.29285e-12
4.39047e-12
3.29285e-12
0
0
1.09762e-12
-1.09762e-12
7.68332e-12
1.09762e-12
-4.39047e-12
0
-2.19524e-12
0
-2.19524e-12
-3020.07
-2934.56
-2770.83
-2542.36
-2267.04
-1964.8
-1655.29
-1355.78
-1079.78
-836.37
-630.187
-462.006
-329.64
-228.96
-154.854
-102.013
-65.477
-40.9591
-24.9792
-14.8562
-8.61954
-4.88029
-2.69734
-1.45579
-0.767502
-0.395385
-0.199098
-0.0980301
-0.0472108
-0.022246
-0.0102596
-0.00463247
-0.00204849
-0.00088742
-0.000376726
-0.000156767
-6.39642e-05
-2.55976e-05
-1.00499e-05
-3.87207e-06
-1.46439e-06
-5.43763e-07
-1.98331e-07
-7.10795e-08
-2.50136e-08
-8.63386e-09
-2.92735e-09
-9.69196e-10
-3.23797e-10
-9.7688e-11
-2.19523e-11
2.19523e-12
7.68332e-12
0
-2.19523e-12
0
-1.75619e-11
-9.87856e-12
5.48809e-12
5.48809e-12
1.20738e-11
4.39047e-12
-2.19523e-12
0
-7.68332e-12
0
1.4269e-11
0
-4.39047e-12
-7.68332e-12
-1.09762e-12
-1.09762e-12
0
1.64643e-11
-6.5857e-12
-3020.07
-2934.56
-2770.83
-2542.36
-2267.04
-1964.8
-1655.29
-1355.78
-1079.78
-836.37
-630.187
-462.006
-329.64
-228.96
-154.854
-102.013
-65.477
-40.9591
-24.9792
-14.8562
-8.61954
-4.88029
-2.69734
-1.45579
-0.767502
-0.395385
-0.199098
-0.0980301
-0.0472108
-0.022246
-0.0102596
-0.00463247
-0.00204849
-0.00088742
-0.000376726
-0.000156767
-6.39642e-05
-2.55976e-05
-1.00499e-05
-3.87204e-06
-1.46436e-06
-5.4375e-07
-1.98322e-07
-7.1085e-08
-2.50169e-08
-8.62837e-09
-2.92515e-09
-9.73587e-10
-3.36969e-10
-1.09762e-10
-8.78094e-12
1.09762e-12
-1.09762e-12
-1.09762e-12
8.78094e-12
3.29285e-12
-1.09762e-11
-9.87856e-12
1.09762e-12
-5.48809e-12
1.09762e-12
1.31714e-11
-5.48809e-12
-1.09762e-12
6.5857e-12
0
1.09762e-12
0
-1.09762e-12
-1.31714e-11
0
6.58571e-12
-4.39047e-12
6.5857e-12
4.39047e-12
-3020.07
-2934.56
-2770.83
-2542.36
-2267.04
-1964.8
-1655.29
-1355.78
-1079.78
-836.37
-630.187
-462.006
-329.64
-228.96
-154.854
-102.013
-65.477
-40.9591
-24.9792
-14.8562
-8.61954
-4.88029
-2.69734
-1.45579
-0.767502
-0.395385
-0.199098
-0.0980301
-0.0472108
-0.022246
-0.0102596
-0.00463247
-0.00204849
-0.00088742
-0.000376726
-0.000156767
-6.39642e-05
-2.55976e-05
-1.00499e-05
-3.87204e-06
-1.46436e-06
-5.43755e-07
-1.98334e-07
-7.10663e-08
-2.5007e-08
-8.62727e-09
-2.93393e-09
-9.96637e-10
-3.21602e-10
-9.87856e-11
-1.75619e-11
3.29285e-12
-7.68332e-12
1.09762e-12
1.53666e-11
1.09762e-12
-1.75619e-11
8.78094e-12
1.31714e-11
-8.78094e-12
2.19524e-12
0
-2.19524e-12
-1.09762e-12
1.09762e-12
-3.29285e-12
4.39047e-12
4.39047e-12
1.09762e-12
-2.19524e-12
-5.48809e-12
1.09762e-12
1.09762e-12
-1.09762e-12
0
-3020.07
-2934.56
-2770.83
-2542.36
-2267.04
-1964.8
-1655.29
-1355.78
-1079.78
-836.37
-630.187
-462.006
-329.64
-228.96
-154.854
-102.013
-65.477
-40.9591
-24.9792
-14.8562
-8.61954
-4.88029
-2.69734
-1.45579
-0.767502
-0.395385
-0.199098
-0.0980301
-0.0472108
-0.022246
-0.0102596
-0.00463247
-0.00204849
-0.00088742
-0.000376726
-0.000156767
-6.39642e-05
-2.55976e-05
-1.00499e-05
-3.87204e-06
-1.46435e-06
-5.43754e-07
-1.9833e-07
-7.10751e-08
-2.50004e-08
-8.63825e-09
-2.94381e-09
-1.00322e-09
-3.56726e-10
-9.00046e-11
1.20738e-11
0
-7.68332e-12
1.09762e-12
-1.09762e-11
-1.09762e-12
9.87856e-12
0
3.29285e-12
-1.09762e-12
-2.19523e-12
-1.09762e-12
-5.48809e-12
-2.19523e-12
7.68332e-12
4.39047e-12
1.31714e-11
0
-1.31714e-11
8.78094e-12
1.31714e-11
-1.09762e-11
-1.09762e-11
-1.09762e-12
1.09762e-12
-3020.07
-2934.56
-2770.83
-2542.36
-2267.04
-1964.8
-1655.29
-1355.78
-1079.78
-836.37
-630.187
-462.006
-329.64
-228.96
-154.854
-102.013
-65.477
-40.9591
-24.9792
-14.8562
-8.61954
-4.88029
-2.69734
-1.45579
-0.767502
-0.395385
-0.199098
-0.0980301
-0.0472108
-0.022246
-0.0102596
-0.00463247
-0.0020485
-0.00088742
-0.000376726
-0.000156767
-6.39642e-05
-2.55976e-05
-1.00499e-05
-3.87202e-06
-1.46435e-06
-5.43753e-07
-1.98288e-07
-7.10652e-08
-2.5018e-08
-8.65142e-09
-2.94601e-09
-1.00542e-09
-3.74288e-10
-1.00981e-10
6.58571e-12
1.4269e-11
7.68332e-12
-1.4269e-11
0
4.39047e-12
-8.78094e-12
-5.48809e-12
0
0
0
0
0
-3.29285e-12
0
4.39047e-12
0
-1.09762e-12
-8.78094e-12
-6.58571e-12
1.53666e-11
5.48809e-12
-8.78094e-12
0
3.29285e-12
-3020.07
-2934.56
-2770.83
-2542.36
-2267.04
-1964.8
-1655.29
-1355.78
-1079.78
-836.37
-630.187
-462.006
-329.64
-228.96
-154.854
-102.013
-65.477
-40.9591
-24.9792
-14.8562
-8.61954
-4.88029
-2.69734
-1.45579
-0.767502
-0.395385
-0.199098
-0.0980301
-0.0472108
-0.022246
-0.0102596
-0.00463247
-0.0020485
-0.00088742
-0.000376726
-0.000156767
-6.39642e-05
-2.55976e-05
-1.00499e-05
-3.87203e-06
-1.46436e-06
-5.43739e-07
-1.9829e-07
-7.10565e-08
-2.50125e-08
-8.66679e-09
-2.97454e-09
-9.92246e-10
-3.5014e-10
-1.14152e-10
4.39047e-12
1.4269e-11
-8.78094e-12
-1.53666e-11
0
1.53666e-11
0
-1.31714e-11
0
-1.09762e-12
-3.29285e-12
-1.09762e-12
4.39047e-12
0
0
0
0
1.09762e-12
-1.09762e-12
-7.68332e-12
1.09762e-12
7.68332e-12
-8.78094e-12
0
7.68332e-12
-3020.07
-2934.56
-2770.83
-2542.36
-2267.04
-1964.8
-1655.29
-1355.78
-1079.78
-836.37
-630.187
-462.006
-329.64
-228.96
-154.854
-102.013
-65.477
-40.9591
-24.9792
-14.8562
-8.61954
-4.88029
-2.69734
-1.45579
-0.767502
-0.395385
-0.199098
-0.0980301
-0.0472108
-0.022246
-0.0102596
-0.00463247
-0.0020485
-0.00088742
-0.000376726
-0.000156767
-6.39642e-05
-2.55976e-05
-1.00499e-05
-3.87203e-06
-1.46438e-06
-5.43776e-07
-1.98291e-07
-7.10191e-08
-2.50092e-08
-8.68435e-09
-2.96686e-09
-9.91149e-10
-3.43554e-10
-1.10859e-10
-1.86595e-11
0
0
-1.09762e-12
-9.87856e-12
0
4.39047e-12
0
5.48809e-12
0
-2.19523e-12
5.48809e-12
2.19523e-12
-4.39047e-12
0
-1.09762e-12
0
7.68332e-12
7.68332e-12
-6.5857e-12
-9.87856e-12
-7.68332e-12
-2.19523e-12
3.29285e-12
7.68332e-12
-3020.07
-2934.56
-2770.83
-2542.36
-2267.04
-1964.8
-1655.29
-1355.78
-1079.78
-836.37
-630.187
-462.006
-329.64
-228.96
-154.854
-102.013
-65.477
-40.9591
-24.9792
-14.8562
-8.61954
-4.88029