/*--------------------------------*- C++ -*----------------------------------*\
  =========                 |
  \\      /  F ield         | OpenFOAM: The Open Source CFD Toolbox
   \\    /   O peration     | Website:  https://openfoam.org
    \\  /    A nd           | Version:  10
     \\/     M anipulation  |
\*---------------------------------------------------------------------------*/
FoamFile
{
    format      ascii;
    class       volScalarField;
    location    "176";
    object      T;
}
// * * * * * * * * * * * * * * * * * * * * * * * * * * * * * * * * * * * * * //

dimensions      [0 0 0 1 0 0 0];

internalField   nonuniform List<scalar> 
11250
(
249.698
167.126
138.657
125.989
118.989
114.499
111.336
108.976
107.15
105.705
104.546
103.611
102.855
102.243
101.75
101.355
101.041
100.793
100.598
100.447
100.331
100.243
100.176
100.127
100.09
100.063
100.044
100.03
100.021
100.014
100.009
100.006
100.004
100.003
100.002
100.001
100.001
100
100
100
100
100
100
100
100
100
100
100
100
100
100
100
100
100
100
100
100
100
100
100
100
100
100
100
100
100
100
100
100
100
100
100
100
100
100
331.066
247.301
200.206
172.348
154.518
142.239
133.283
126.474
121.15
116.91
113.496
110.731
108.49
106.675
105.212
104.037
103.102
102.363
101.783
101.333
100.987
100.724
100.525
100.378
100.268
100.189
100.132
100.091
100.062
100.042
100.028
100.018
100.012
100.008
100.005
100.003
100.002
100.001
100.001
100
100
100
100
100
100
100
100
100
100
100
100
100
100
100
100
100
100
100
100
100
100
100
100
100
100
100
100
100
100
100
100
100
100
100
100
358.356
290.872
242.627
208.829
184.678
166.864
153.309
142.728
134.313
127.534
122.034
117.556
113.911
110.951
108.558
106.635
105.101
103.887
102.935
102.195
101.626
101.193
100.866
100.622
100.443
100.312
100.217
100.15
100.102
100.069
100.046
100.03
100.02
100.013
100.008
100.005
100.003
100.002
100.001
100.001
100
100
100
100
100
100
100
100
100
100
100
100
100
100
100
100
100
100
100
100
100
100
100
100
100
100
100
100
100
100
100
100
100
100
100
369.882
315.316
270.784
235.907
208.801
187.574
170.737
157.215
146.245
137.286
129.944
123.924
118.997
114.98
111.723
109.099
107.002
105.34
104.035
103.02
102.238
101.642
101.193
100.857
100.61
100.43
100.299
100.206
100.141
100.095
100.063
100.042
100.027
100.018
100.011
100.007
100.004
100.003
100.002
100.001
100.001
100
100
100
100
100
100
100
100
100
100
100
100
100
100
100
100
100
100
100
100
100
100
100
100
100
100
100
100
100
100
100
100
100
100
375.789
329.881
289.539
255.553
227.459
204.368
185.372
169.698
156.728
145.981
137.078
129.718
123.658
118.694
114.653
111.39
108.775
106.698
105.065
103.793
102.813
102.065
101.501
101.079
100.768
100.541
100.377
100.26
100.177
100.12
100.08
100.053
100.035
100.022
100.014
100.009
100.006
100.003
100.002
100.001
100.001
100
100
100
100
100
100
100
100
100
100
100
100
100
100
100
100
100
100
100
100
100
100
100
100
100
100
100
100
100
100
100
100
100
100
379.247
339.077
302.257
269.734
241.64
217.668
197.344
180.172
165.701
153.54
143.357
134.87
127.836
122.045
117.312
113.477
110.397
107.945
106.014
104.508
103.345
102.457
101.786
101.285
100.915
100.645
100.45
100.31
100.212
100.143
100.095
100.063
100.041
100.027
100.017
100.011
100.007
100.004
100.003
100.002
100.001
100.001
100
100
100
100
100
100
100
100
100
100
100
100
100
100
100
100
100
100
100
100
100
100
100
100
100
100
100
100
100
100
100
100
100
381.447
345.158
311.06
280
252.327
228.042
206.951
188.777
173.215
159.97
148.767
139.355
131.505
125.009
119.679
115.345
111.854
109.07
106.872
105.155
103.829
102.814
102.047
101.474
101.05
100.74
100.516
100.356
100.243
100.164
100.11
100.073
100.047
100.031
100.02
100.012
100.008
100.005
100.003
100.002
100.001
100.001
100
100
100
100
100
100
100
100
100
100
100
100
100
100
100
100
100
100
100
100
100
100
100
100
100
100
100
100
100
100
100
100
100
382.921
349.319
317.265
287.473
260.35
236.051
214.553
195.729
179.394
165.338
153.341
143.187
134.667
127.583
121.746
116.985
113.14
110.067
107.636
105.733
104.261
103.135
102.282
101.644
101.172
100.826
100.576
100.398
100.272
100.184
100.123
100.081
100.053
100.034
100.022
100.014
100.009
100.005
100.003
100.002
100.001
100.001
100
100
100
100
100
100
100
100
100
100
100
100
100
100
100
100
100
100
100
100
100
100
100
100
100
100
100
100
100
100
100
100
100
383.941
352.236
321.702
292.943
266.364
242.191
220.502
201.27
184.399
169.745
157.141
146.403
137.345
129.779
123.523
118.403
114.257
110.935
108.303
106.241
104.642
103.417
102.489
101.794
101.28
100.903
100.63
100.435
100.297
100.201
100.134
100.089
100.058
100.038
100.024
100.015
100.01
100.006
100.004
100.002
100.001
100.001
100
100
100
100
100
100
100
100
100
100
100
100
100
100
100
100
100
100
100
100
100
100
100
100
100
100
100
100
100
100
100
100
100
384.663
354.315
324.909
296.964
270.867
246.872
225.116
205.637
188.399
173.312
160.251
149.062
139.577
131.623
125.024
119.607
115.211
111.681
108.879
106.679
104.973
103.663
102.67
101.926
101.374
100.97
100.677
100.468
100.32
100.216
100.145
100.096
100.063
100.04
100.026
100.016
100.01
100.006
100.004
100.002
100.001
100.001
100
100
100
100
100
100
100
100
100
100
100
100
100
100
100
100
100
100
100
100
100
100
100
100
100
100
100
100
100
100
100
100
100
385.18
355.813
327.243
299.928
274.234
250.425
228.668
209.043
191.558
176.162
162.761
151.227
141.41
133.148
126.273
120.615
116.013
112.31
109.367
107.052
105.254
103.874
102.825
102.039
101.455
101.028
100.718
100.496
100.339
100.229
100.153
100.102
100.066
100.043
100.028
100.017
100.011
100.007
100.004
100.003
100.002
100.001
100.001
100
100
100
100
100
100
100
100
100
100
100
100
100
100
100
100
100
100
100
100
100
100
100
100
100
100
100
100
100
100
100
100
385.554
356.9
328.949
302.116
276.747
253.108
231.383
211.677
194.028
178.412
164.761
152.966
142.893
134.391
127.297
121.447
116.677
112.834
109.774
107.365
105.492
104.051
102.956
102.134
101.524
101.077
100.753
100.52
100.356
100.241
100.161
100.107
100.07
100.045
100.029
100.018
100.011
100.007
100.004
100.003
100.002
100.001
100.001
100
100
100
100
100
100
100
100
100
100
100
100
100
100
100
100
100
100
100
100
100
100
100
100
100
100
100
100
100
100
100
100
385.825
357.692
330.199
303.73
278.618
255.124
233.443
213.696
195.939
180.169
166.335
154.346
144.079
135.39
128.125
122.122
117.22
113.264
110.11
107.624
105.688
104.199
103.066
102.215
101.582
101.118
100.782
100.541
100.37
100.25
100.167
100.111
100.073
100.047
100.03
100.019
100.012
100.007
100.005
100.003
100.002
100.001
100.001
100
100
100
100
100
100
100
100
100
100
100
100
100
100
100
100
100
100
100
100
100
100
100
100
100
100
100
100
100
100
100
100
386.022
358.269
331.113
304.919
280.005
256.632
234.997
215.231
197.404
181.526
167.561
155.427
145.014
136.183
128.786
122.664
117.657
113.612
110.382
107.835
105.849
104.319
103.156
102.28
101.63
101.153
100.806
100.558
100.382
100.258
100.173
100.114
100.075
100.049
100.031
100.02
100.012
100.008
100.005
100.003
100.002
100.001
100.001
100
100
100
100
100
100
100
100
100
100
100
100
100
100
100
100
100
100
100
100
100
100
100
100
100
100
100
100
100
100
100
100
386.166
358.69
331.782
305.793
281.031
257.754
236.16
216.389
198.516
182.564
168.504
156.265
145.742
136.805
129.307
123.093
118.005
113.889
110.601
108.004
105.978
104.417
103.229
102.334
101.669
101.181
100.826
100.572
100.391
100.265
100.177
100.117
100.077
100.05
100.032
100.02
100.013
100.008
100.005
100.003
100.002
100.001
100.001
100
100
100
100
100
100
100
100
100
100
100
100
100
100
100
100
100
100
100
100
100
100
100
100
100
100
100
100
100
100
100
100
386.27
358.995
332.269
306.431
281.784
258.582
237.025
217.254
199.354
183.35
169.223
156.907
146.303
137.286
129.712
123.428
118.278
114.108
110.773
108.138
106.081
104.495
103.287
102.377
101.7
101.203
100.842
100.583
100.399
100.27
100.181
100.12
100.078
100.051
100.033
100.021
100.013
100.008
100.005
100.003
100.002
100.001
100.001
100
100
100
100
100
100
100
100
100
100
100
100
100
100
100
100
100
100
100
100
100
100
100
100
100
100
100
100
100
100
100
100
386.345
359.216
332.622
306.896
282.335
259.191
237.663
217.897
199.978
183.94
169.765
157.394
146.731
137.654
130.023
123.686
118.489
114.278
110.908
108.243
106.162
104.557
103.333
102.411
101.725
101.221
100.855
100.592
100.405
100.274
100.184
100.122
100.08
100.052
100.033
100.021
100.013
100.008
100.005
100.003
100.002
100.001
100.001
100
100
100
100
100
100
100
100
100
100
100
100
100
100
100
100
100
100
100
100
100
100
100
100
100
100
100
100
100
100
100
100
386.399
359.376
332.878
307.233
282.735
259.634
238.131
218.369
200.44
184.378
170.169
157.758
147.053
137.933
130.26
123.884
118.651
114.408
111.011
108.324
106.225
104.604
103.369
102.438
101.745
101.235
100.865
100.599
100.41
100.278
100.186
100.123
100.081
100.052
100.034
100.021
100.013
100.008
100.005
100.003
100.002
100.001
100.001
100
100
100
100
100
100
100
100
100
100
100
100
100
100
100
100
100
100
100
100
100
100
100
100
100
100
100
100
100
100
100
100
386.438
359.49
333.061
307.475
283.024
259.956
238.471
218.714
200.778
184.7
170.468
158.029
147.292
138.141
130.437
124.032
118.773
114.507
111.09
108.386
106.273
104.641
103.396
102.458
101.759
101.246
100.872
100.604
100.414
100.28
100.188
100.124
100.082
100.053
100.034
100.021
100.013
100.008
100.005
100.003
100.002
100.001
100.001
100
100
100
100
100
100
100
100
100
100
100
100
100
100
100
100
100
100
100
100
100
100
100
100
100
100
100
100
100
100
100
100
386.466
359.571
333.192
307.648
283.23
260.186
238.715
218.964
201.024
184.934
170.687
158.228
147.469
138.295
130.569
124.143
118.864
114.581
111.149
108.433
106.309
104.669
103.417
102.473
101.771
101.254
100.878
100.608
100.417
100.282
100.189
100.125
100.082
100.053
100.034
100.022
100.014
100.008
100.005
100.003
100.002
100.001
100.001
100
100
100
100
100
100
100
100
100
100
100
100
100
100
100
100
100
100
100
100
100
100
100
100
100
100
100
100
100
100
100
100
386.485
359.629
333.284
307.771
283.377
260.351
238.89
219.142
201.2
185.104
170.845
158.372
147.598
138.407
130.665
124.224
118.931
114.636
111.193
108.468
106.336
104.689
103.433
102.485
101.779
101.26
100.883
100.611
100.419
100.284
100.19
100.126
100.083
100.054
100.034
100.022
100.014
100.008
100.005
100.003
100.002
100.001
100.001
100
100
100
100
100
100
100
100
100
100
100
100
100
100
100
100
100
100
100
100
100
100
100
100
100
100
100
100
100
100
100
100
386.499
359.669
333.349
307.857
283.481
260.467
239.014
219.269
201.326
185.225
170.958
158.476
147.691
138.489
130.735
124.283
118.981
114.676
111.226
108.493
106.356
104.705
103.444
102.494
101.786
101.265
100.886
100.614
100.421
100.285
100.191
100.127
100.083
100.054
100.034
100.022
100.014
100.009
100.005
100.003
100.002
100.001
100.001
100
100
100
100
100
100
100
100
100
100
100
100
100
100
100
100
100
100
100
100
100
100
100
100
100
100
100
100
100
100
100
100
386.509
359.697
333.395
307.918
283.554
260.549
239.101
219.359
201.415
185.31
171.039
158.549
147.757
138.547
130.786
124.326
119.016
114.705
111.249
108.512
106.37
104.716
103.453
102.5
101.791
101.268
100.888
100.615
100.422
100.286
100.192
100.127
100.083
100.054
100.035
100.022
100.014
100.009
100.005
100.003
100.002
100.001
100.001
100
100
100
100
100
100
100
100
100
100
100
100
100
100
100
100
100
100
100
100
100
100
100
100
100
100
100
100
100
100
100
100
386.515
359.717
333.426
307.96
283.604
260.605
239.162
219.421
201.477
185.37
171.095
158.602
147.804
138.588
130.821
124.356
119.041
114.726
111.266
108.525
106.381
104.724
103.459
102.505
101.794
101.271
100.89
100.617
100.423
100.286
100.192
100.127
100.083
100.054
100.035
100.022
100.014
100.009
100.005
100.003
100.002
100.001
100.001
100
100
100
100
100
100
100
100
100
100
100
100
100
100
100
100
100
100
100
100
100
100
100
100
100
100
100
100
100
100
100
100
386.52
359.73
333.448
307.988
283.639
260.644
239.204
219.464
201.52
185.412
171.134
158.638
147.837
138.617
130.846
124.377
119.059
114.741
111.278
108.535
106.388
104.73
103.463
102.508
101.796
101.272
100.891
100.618
100.423
100.287
100.192
100.127
100.084
100.054
100.035
100.022
100.014
100.009
100.005
100.003
100.002
100.001
100.001
100
100
100
100
100
100
100
100
100
100
100
100
100
100
100
100
100
100
100
100
100
100
100
100
100
100
100
100
100
100
100
100
386.523
359.739
333.462
308.008
283.662
260.671
239.232
219.494
201.549
185.441
171.162
158.663
147.859
138.637
130.864
124.392
119.072
114.751
111.286
108.541
106.394
104.734
103.466
102.51
101.798
101.274
100.892
100.618
100.424
100.287
100.192
100.128
100.084
100.054
100.035
100.022
100.014
100.009
100.005
100.003
100.002
100.001
100.001
100
100
100
100
100
100
100
100
100
100
100
100
100
100
100
100
100
100
100
100
100
100
100
100
100
100
100
100
100
100
100
100
386.525
359.745
333.472
308.021
283.678
260.689
239.252
219.514
201.569
185.46
171.18
158.68
147.875
138.651
130.876
124.402
119.08
114.758
111.292
108.546
106.397
104.736
103.468
102.512
101.799
101.275
100.893
100.619
100.424
100.287
100.193
100.128
100.084
100.054
100.035
100.022
100.014
100.009
100.005
100.003
100.002
100.001
100.001
100
100
100
100
100
100
100
100
100
100
100
100
100
100
100
100
100
100
100
100
100
100
100
100
100
100
100
100
100
100
100
100
386.526
359.749
333.479
308.03
283.689
260.701
239.265
219.527
201.583
185.473
171.192
158.691
147.885
138.66
130.884
124.409
119.086
114.763
111.296
108.549
106.4
104.738
103.47
102.513
101.8
101.275
100.893
100.619
100.424
100.288
100.193
100.128
100.084
100.054
100.035
100.022
100.014
100.009
100.005
100.003
100.002
100.001
100.001
100
100
100
100
100
100
100
100
100
100
100
100
100
100
100
100
100
100
100
100
100
100
100
100
100
100
100
100
100
100
100
100
386.527
359.752
333.483
308.036
283.696
260.709
239.273
219.536
201.592
185.482
171.201
158.699
147.892
138.667
130.889
124.414
119.09
114.766
111.298
108.551
106.401
104.74
103.471
102.514
101.801
101.276
100.894
100.619
100.424
100.288
100.193
100.128
100.084
100.054
100.035
100.022
100.014
100.009
100.005
100.003
100.002
100.001
100.001
100
100
100
100
100
100
100
100
100
100
100
100
100
100
100
100
100
100
100
100
100
100
100
100
100
100
100
100
100
100
100
100
386.528
359.754
333.486
308.04
283.701
260.714
239.279
219.542
201.598
185.488
171.206
158.704
147.897
138.671
130.893
124.417
119.093
114.768
111.3
108.553
106.402
104.741
103.472
102.514
101.801
101.276
100.894
100.619
100.425
100.288
100.193
100.128
100.084
100.054
100.035
100.022
100.014
100.009
100.005
100.003
100.002
100.001
100.001
100
100
100
100
100
100
100
100
100
100
100
100
100
100
100
100
100
100
100
100
100
100
100
100
100
100
100
100
100
100
100
100
386.528
359.755
333.488
308.042
283.704
260.718
239.283
219.546
201.602
185.492
171.21
158.708
147.9
138.674
130.895
124.419
119.094
114.77
111.301
108.553
106.403
104.741
103.472
102.515
101.801
101.276
100.894
100.62
100.425
100.288
100.193
100.128
100.084
100.054
100.035
100.022
100.014
100.009
100.005
100.003
100.002
100.001
100.001
100
100
100
100
100
100
100
100
100
100
100
100
100
100
100
100
100
100
100
100
100
100
100
100
100
100
100
100
100
100
100
100
386.528
359.756
333.489
308.044
283.706
260.72
239.285
219.549
201.604
185.494
171.212
158.71
147.902
138.675
130.897
124.421
119.095
114.771
111.302
108.554
106.404
104.741
103.472
102.515
101.801
101.276
100.894
100.62
100.425
100.288
100.193
100.128
100.084
100.054
100.035
100.022
100.014
100.009
100.005
100.003
100.002
100.001
100.001
100
100
100
100
100
100
100
100
100
100
100
100
100
100
100
100
100
100
100
100
100
100
100
100
100
100
100
100
100
100
100
100
386.529
359.756
333.49
308.045
283.707
260.721
239.287
219.55
201.606
185.496
171.214
158.711
147.903
138.676
130.898
124.421
119.096
114.771
111.303
108.555
106.404
104.742
103.472
102.515
101.802
101.276
100.894
100.62
100.425
100.288
100.193
100.128
100.084
100.054
100.035
100.022
100.014
100.009
100.005
100.003
100.002
100.001
100.001
100
100
100
100
100
100
100
100
100
100
100
100
100
100
100
100
100
100
100
100
100
100
100
100
100
100
100
100
100
100
100
100
386.529
359.757
333.49
308.045
283.708
260.722
239.288
219.551
201.607
185.497
171.215
158.712
147.904
138.677
130.898
124.422
119.097
114.772
111.303
108.555
106.404
104.742
103.473
102.515
101.802
101.276
100.894
100.62
100.425
100.288
100.193
100.128
100.084
100.054
100.035
100.022
100.014
100.009
100.005
100.003
100.002
100.001
100.001
100
100
100
100
100
100
100
100
100
100
100
100
100
100
100
100
100
100
100
100
100
100
100
100
100
100
100
100
100
100
100
100
386.529
359.757
333.491
308.046
283.708
260.723
239.288
219.552
201.607
185.497
171.215
158.713
147.904
138.678
130.899
124.422
119.097
114.772
111.303
108.555
106.404
104.742
103.473
102.515
101.802
101.276
100.894
100.62
100.425
100.288
100.193
100.128
100.084
100.054
100.035
100.022
100.014
100.009
100.005
100.003
100.002
100.001
100.001
100
100
100
100
100
100
100
100
100
100
100
100
100
100
100
100
100
100
100
100
100
100
100
100
100
100
100
100
100
100
100
100
386.529
359.757
333.491
308.046
283.708
260.723
239.289
219.552
201.608
185.498
171.216
158.713
147.905
138.678
130.899
124.423
119.097
114.772
111.303
108.555
106.404
104.742
103.473
102.515
101.802
101.276
100.894
100.62
100.425
100.288
100.193
100.128
100.084
100.054
100.035
100.022
100.014
100.009
100.005
100.003
100.002
100.001
100.001
100
100
100
100
100
100
100
100
100
100
100
100
100
100
100
100
100
100
100
100
100
100
100
100
100
100
100
100
100
100
100
100
386.529
359.757
333.491
308.046
283.709
260.723
239.289
219.552
201.608
185.498
171.216
158.713
147.905
138.678
130.899
124.423
119.097
114.772
111.303
108.555
106.404
104.742
103.473
102.515
101.802
101.276
100.894
100.62
100.425
100.288
100.193
100.128
100.084
100.054
100.035
100.022
100.014
100.009
100.005
100.003
100.002
100.001
100.001
100
100
100
100
100
100
100
100
100
100
100
100
100
100
100
100
100
100
100
100
100
100
100
100
100
100
100
100
100
100
100
100
386.529
359.757
333.491
308.046
283.709
260.723
239.289
219.553
201.608
185.498
171.216
158.713
147.905
138.678
130.899
124.423
119.097
114.772
111.303
108.555
106.405
104.742
103.473
102.515
101.802
101.276
100.894
100.62
100.425
100.288
100.193
100.128
100.084
100.054
100.035
100.022
100.014
100.009
100.005
100.003
100.002
100.001
100.001
100
100
100
100
100
100
100
100
100
100
100
100
100
100
100
100
100
100
100
100
100
100
100
100
100
100
100
100
100
100
100
100
386.529
359.757
333.491
308.046
283.709
260.723
239.289
219.553
201.608
185.498
171.216
158.713
147.905
138.678
130.899
124.423
119.097
114.772
111.303
108.555
106.405
104.742
103.473
102.515
101.802
101.276
100.894
100.62
100.425
100.288
100.193
100.128
100.084
100.054
100.035
100.022
100.014
100.009
100.005
100.003
100.002
100.001
100.001
100
100
100
100
100
100
100
100
100
100
100
100
100
100
100
100
100
100
100
100
100
100
100
100
100
100
100
100
100
100
100
100
386.529
359.757
333.491
308.046
283.709
260.724
239.289
219.553
201.608
185.498
171.216
158.713
147.905
138.678
130.899
124.423
119.097
114.772
111.303
108.555
106.405
104.742
103.473
102.515
101.802
101.276
100.894
100.62
100.425
100.288
100.193
100.128
100.084
100.054
100.035
100.022
100.014
100.009
100.005
100.003
100.002
100.001
100.001
100
100
100
100
100
100
100
100
100
100
100
100
100
100
100
100
100
100
100
100
100
100
100
100
100
100
100
100
100
100
100
100
386.529
359.757
333.491
308.046
283.709
260.724
239.289
219.553
201.608
185.498
171.216
158.713
147.905
138.678
130.899
124.423
119.097
114.772
111.303
108.555
106.405
104.742
103.473
102.515
101.802
101.276
100.894
100.62
100.425
100.288
100.193
100.128
100.084
100.054
100.035
100.022
100.014
100.009
100.005
100.003
100.002
100.001
100.001
100
100
100
100
100
100
100
100
100
100
100
100
100
100
100
100
100
100
100
100
100
100
100
100
100
100
100
100
100
100
100
100
386.529
359.757
333.491
308.046
283.709
260.724
239.289
219.553
201.608
185.498
171.216
158.713
147.905
138.678
130.899
124.423
119.097
114.772
111.303
108.555
106.405
104.742
103.473
102.515
101.802
101.276
100.894
100.62
100.425
100.288
100.193
100.128
100.084
100.054
100.035
100.022
100.014
100.009
100.005
100.003
100.002
100.001
100.001
100
100
100
100
100
100
100
100
100
100
100
100
100
100
100
100
100
100
100
100
100
100
100
100
100
100
100
100
100
100
100
100
386.529
359.757
333.491
308.046
283.709
260.724
239.289
219.553
201.608
185.498
171.216
158.713
147.905
138.678
130.899
124.423
119.097
114.772
111.303
108.555
106.405
104.742
103.473
102.515
101.802
101.276
100.894
100.62
100.425
100.288
100.193
100.128
100.084
100.054
100.035
100.022
100.014
100.009
100.005
100.003
100.002
100.001
100.001
100
100
100
100
100
100
100
100
100
100
100
100
100
100
100
100
100
100
100
100
100
100
100
100
100
100
100
100
100
100
100
100
386.529
359.757
333.491
308.046
283.709
260.724
239.289
219.553
201.608
185.498
171.216
158.713
147.905
138.678
130.899
124.423
119.097
114.772
111.303
108.555
106.405
104.742
103.473
102.515
101.802
101.276
100.894
100.62
100.425
100.288
100.193
100.128
100.084
100.054
100.035
100.022
100.014
100.009
100.005
100.003
100.002
100.001
100.001
100
100
100
100
100
100
100
100
100
100
100
100
100
100
100
100
100
100
100
100
100
100
100
100
100
100
100
100
100
100
100
100
386.529
359.757
333.491
308.046
283.709
260.724
239.289
219.553
201.608
185.498
171.216
158.713
147.905
138.678
130.899
124.423
119.097
114.772
111.303
108.555
106.405
104.742
103.473
102.515
101.802
101.276
100.894
100.62
100.425
100.288
100.193
100.128
100.084
100.054
100.035
100.022
100.014
100.009
100.005
100.003
100.002
100.001
100.001
100
100
100
100
100
100
100
100
100
100
100
100
100
100
100
100
100
100
100
100
100
100
100
100
100
100
100
100
100
100
100
100
386.529
359.757
333.491
308.046
283.709
260.724
239.289
219.553
201.608
185.498
171.216
158.713
147.905
138.678
130.899
124.423
119.097
114.772
111.303
108.555
106.405
104.742
103.473
102.515
101.802
101.276
100.894
100.62
100.425
100.288
100.193
100.128
100.084
100.054
100.035
100.022
100.014
100.009
100.005
100.003
100.002
100.001
100.001
100
100
100
100
100
100
100
100
100
100
100
100
100
100
100
100
100
100
100
100
100
100
100
100
100
100
100
100
100
100
100
100
386.529
359.757
333.491
308.046
283.709
260.724
239.289
219.553
201.608
185.498
171.216
158.713
147.905
138.678
130.899
124.423
119.097
114.772
111.303
108.555
106.405
104.742
103.473
102.515
101.802
101.276
100.894
100.62
100.425
100.288
100.193
100.128
100.084
100.054
100.035
100.022
100.014
100.009
100.005
100.003
100.002
100.001
100.001
100
100
100
100
100
100
100
100
100
100
100
100
100
100
100
100
100
100
100
100
100
100
100
100
100
100
100
100
100
100
100
100
386.529
359.757
333.491
308.046
283.709
260.724
239.289
219.553
201.608
185.498
171.216
158.713
147.905
138.678
130.899
124.423
119.097
114.772
111.303
108.555
106.405
104.742
103.473
102.515
101.802
101.276
100.894
100.62
100.425
100.288
100.193
100.128
100.084
100.054
100.035
100.022
100.014
100.009
100.005
100.003
100.002
100.001
100.001
100
100
100
100
100
100
100
100
100
100
100
100
100
100
100
100
100
100
100
100
100
100
100
100
100
100
100
100
100
100
100
100
386.529
359.757
333.491
308.046
283.709
260.724
239.289
219.553
201.608
185.498
171.216
158.713
147.905
138.678
130.899
124.423
119.097
114.772
111.303
108.555
106.405
104.742
103.473
102.515
101.802
101.276
100.894
100.62
100.425
100.288
100.193
100.128
100.084
100.054
100.035
100.022
100.014
100.009
100.005
100.003
100.002
100.001
100.001
100
100
100
100
100
100
100
100
100
100
100
100
100
100
100
100
100
100
100
100
100
100
100
100
100
100
100
100
100
100
100
100
386.529
359.757
333.491
308.046
283.709
260.724
239.289
219.553
201.608
185.498
171.216
158.713
147.905
138.678
130.899
124.423
119.097
114.772
111.303
108.555
106.405
104.742
103.473
102.515
101.802
101.276
100.894
100.62
100.425
100.288
100.193
100.128
100.084
100.054
100.035
100.022
100.014
100.009
100.005
100.003
100.002
100.001
100.001
100
100
100
100
100
100
100
100
100
100
100
100
100
100
100
100
100
100
100
100
100
100
100
100
100
100
100
100
100
100
100
100
386.529
359.757
333.491
308.046
283.709
260.724
239.289
219.553
201.608
185.498
171.216
158.713
147.905
138.678
130.899
124.423
119.097
114.772
111.303
108.555
106.405
104.742
103.473
102.515
101.802
101.276
100.894
100.62
100.425
100.288
100.193
100.128
100.084
100.054
100.035
100.022
100.014
100.009
100.005
100.003
100.002
100.001
100.001
100
100
100
100
100
100
100
100
100
100
100
100
100
100
100
100
100
100
100
100
100
100
100
100
100
100
100
100
100
100
100
100
386.529
359.757
333.491
308.046
283.709
260.724
239.289
219.553
201.608
185.498
171.216
158.713
147.905
138.678
130.899
124.423
119.097
114.772
111.303
108.555
106.405
104.742
103.473
102.515
101.802
101.276
100.894
100.62
100.425
100.288
100.193
100.128
100.084
100.054
100.035
100.022
100.014
100.009
100.005
100.003
100.002
100.001
100.001
100
100
100
100
100
100
100
100
100
100
100
100
100
100
100
100
100
100
100
100
100
100
100
100
100
100
100
100
100
100
100
100
386.529
359.757
333.491
308.046
283.709
260.724
239.289
219.553
201.608
185.498
171.216
158.713
147.905
138.678
130.899
124.423
119.097
114.772
111.303
108.555
106.405
104.742
103.473
102.515
101.802
101.276
100.894
100.62
100.425
100.288
100.193
100.128
100.084
100.054
100.035
100.022
100.014
100.009
100.005
100.003
100.002
100.001
100.001
100
100
100
100
100
100
100
100
100
100
100
100
100
100
100
100
100
100
100
100
100
100
100
100
100
100
100
100
100
100
100
100
386.529
359.757
333.491
308.046
283.709
260.724
239.289
219.553
201.608
185.498
171.216
158.713
147.905
138.678
130.899
124.423
119.097
114.772
111.303
108.555
106.405
104.742
103.473
102.515
101.802
101.276
100.894
100.62
100.425
100.288
100.193
100.128
100.084
100.054
100.035
100.022
100.014
100.009
100.005
100.003
100.002
100.001
100.001
100
100
100
100
100
100
100
100
100
100
100
100
100
100
100
100
100
100
100
100
100
100
100
100
100
100
100
100
100
100
100
100
386.529
359.757
333.491
308.046
283.709
260.724
239.289
219.553
201.608
185.498
171.216
158.713
147.905
138.678
130.899
124.423
119.097
114.772
111.303
108.555
106.405
104.742
103.473
102.515
101.802
101.276
100.894
100.62
100.425
100.288
100.193
100.128
100.084
100.054
100.035
100.022
100.014
100.009
100.005
100.003
100.002
100.001
100.001
100
100
100
100
100
100
100
100
100
100
100
100
100
100
100
100
100
100
100
100
100
100
100
100
100
100
100
100
100
100
100
100
386.529
359.757
333.491
308.046
283.709
260.724
239.289
219.553
201.608
185.498
171.216
158.713
147.905
138.678
130.899
124.423
119.097
114.772
111.303
108.555
106.405
104.742
103.473
102.515
101.802
101.276
100.894
100.62
100.425
100.288
100.193
100.128
100.084
100.054
100.035
100.022
100.014
100.009
100.005
100.003
100.002
100.001
100.001
100
100
100
100
100
100
100
100
100
100
100
100
100
100
100
100
100
100
100
100
100
100
100
100
100
100
100
100
100
100
100
100
386.529
359.757
333.491
308.046
283.709
260.724
239.289
219.553
201.608
185.498
171.216
158.713
147.905
138.678
130.899
124.423
119.097
114.772
111.303
108.555
106.405
104.742
103.473
102.515
101.802
101.276
100.894
100.62
100.425
100.288
100.193
100.128
100.084
100.054
100.035
100.022
100.014
100.009
100.005
100.003
100.002
100.001
100.001
100
100
100
100
100
100
100
100
100
100
100
100
100
100
100
100
100
100
100
100
100
100
100
100
100
100
100
100
100
100
100
100
386.529
359.757
333.491
308.046
283.709
260.724
239.289
219.553
201.608
185.498
171.216
158.713
147.905
138.678
130.899
124.423
119.097
114.772
111.303
108.555
106.405
104.742
103.473
102.515
101.802
101.276
100.894
100.62
100.425
100.288
100.193
100.128
100.084
100.054
100.035
100.022
100.014
100.009
100.005
100.003
100.002
100.001
100.001
100
100
100
100
100
100
100
100
100
100
100
100
100
100
100
100
100
100
100
100
100
100
100
100
100
100
100
100
100
100
100
100
386.529
359.757
333.491
308.046
283.709
260.724
239.289
219.553
201.608
185.498
171.216
158.713
147.905
138.678
130.899
124.423
119.097
114.772
111.303
108.555
106.405
104.742
103.473
102.515
101.802
101.276
100.894
100.62
100.425
100.288
100.193
100.128
100.084
100.054
100.035
100.022
100.014
100.009
100.005
100.003
100.002
100.001
100.001
100
100
100
100
100
100
100
100
100
100
100
100
100
100
100
100
100
100
100
100
100
100
100
100
100
100
100
100
100
100
100
100
386.529
359.757
333.491
308.046
283.709
260.724
239.289
219.553
201.608
185.498
171.216
158.713
147.905
138.678
130.899
124.423
119.097
114.772
111.303
108.555
106.405
104.742
103.473
102.515
101.802
101.276
100.894
100.62
100.425
100.288
100.193
100.128
100.084
100.054
100.035
100.022
100.014
100.009
100.005
100.003
100.002
100.001
100.001
100
100
100
100
100
100
100
100
100
100
100
100
100
100
100
100
100
100
100
100
100
100
100
100
100
100
100
100
100
100
100
100
386.529
359.757
333.491
308.046
283.709
260.724
239.289
219.553
201.608
185.498
171.216
158.713
147.905
138.678
130.899
124.423
119.097
114.772
111.303
108.555
106.405
104.742
103.473
102.515
101.802
101.276
100.894
100.62
100.425
100.288
100.193
100.128
100.084
100.054
100.035
100.022
100.014
100.009
100.005
100.003
100.002
100.001
100.001
100
100
100
100
100
100
100
100
100
100
100
100
100
100
100
100
100
100
100
100
100
100
100
100
100
100
100
100
100
100
100
100
386.529
359.757
333.491
308.046
283.709
260.724
239.289
219.553
201.608
185.498
171.216
158.713
147.905
138.678
130.899
124.423
119.097
114.772
111.303
108.555
106.405
104.742
103.473
102.515
101.802
101.276
100.894
100.62
100.425
100.288
100.193
100.128
100.084
100.054
100.035
100.022
100.014
100.009
100.005
100.003
100.002
100.001
100.001
100
100
100
100
100
100
100
100
100
100
100
100
100
100
100
100
100
100
100
100
100
100
100
100
100
100
100
100
100
100
100
100
386.529
359.757
333.491
308.046
283.709
260.724
239.289
219.553
201.608
185.498
171.216
158.713
147.905
138.678
130.899
124.423
119.097
114.772
111.303
108.555
106.405
104.742
103.473
102.515
101.802
101.276
100.894
100.62
100.425
100.288
100.193
100.128
100.084
100.054
100.035
100.022
100.014
100.009
100.005