/*--------------------------------*- C++ -*----------------------------------*\
  =========                 |
  \\      /  F ield         | OpenFOAM: The Open Source CFD Toolbox
   \\    /   O peration     | Website:  https://openfoam.org
    \\  /    A nd           | Version:  10
     \\/     M anipulation  |
\*---------------------------------------------------------------------------*/
FoamFile
{
    format      ascii;
    class       volScalarField;
    location    "86";
    object      gradTx;
}
// * * * * * * * * * * * * * * * * * * * * * * * * * * * * * * * * * * * * * //

dimensions      [0 -1 0 1 0 0 0];

internalField   nonuniform List<scalar> 
11250
(
14231.1
7901.01
4982.92
3391.28
2403.95
1736.44
1261.22
913.527
656.323
466.027
326.221
224.721
152.142
101.138
65.969
42.1998
26.4649
16.2671
9.79854
5.78344
3.34479
1.89546
1.05256
0.572794
0.305503
0.159718
0.0818606
0.0411385
0.0202744
0.00980053
0.00464768
0.00216267
0.000987638
0.000442737
0.00019486
8.42202e-05
3.57533e-05
1.49111e-05
6.11066e-06
2.46113e-06
9.74413e-07
3.79331e-07
1.45181e-07
5.46361e-08
2.02049e-08
7.36721e-09
2.64306e-09
9.3078e-10
3.23797e-10
1.05371e-10
7.68332e-12
0
1.4269e-11
0
1.09762e-12
0
1.09762e-12
-2.19524e-12
0
2.19524e-12
0
1.09762e-12
0
-2.19524e-11
9.87856e-12
-1.09762e-12
-1.09762e-12
0
1.09762e-12
0
-5.48809e-12
0
-7.68332e-12
0
-9.87856e-12
4028.03
4503.13
3678.76
2815.79
2117.47
1579.87
1169.76
857.662
621.24
443.65
311.855
215.498
146.249
97.4051
63.6308
40.7544
25.5844
15.7393
9.48746
5.60326
3.2423
1.83823
1.02119
0.555917
0.296595
0.155104
0.0795159
0.0399692
0.0197022
0.00952573
0.00451814
0.00210273
0.000960406
0.000430589
0.000189537
8.19296e-05
3.47848e-05
1.45088e-05
5.94636e-06
2.39521e-06
9.4839e-07
3.69219e-07
1.4135e-07
5.32114e-08
1.97099e-08
7.17952e-09
2.56074e-09
9.05534e-10
3.12821e-10
9.11023e-11
2.19523e-12
0
-1.4269e-11
8.78094e-12
-1.31714e-11
-6.5857e-12
-1.4269e-11
0
-4.39047e-12
0
0
-1.09762e-12
0
2.41476e-11
5.48809e-12
0
-1.09762e-12
1.09762e-12
-1.09762e-12
0
-8.78094e-12
0
8.78094e-12
2.19523e-12
0
1410.67
2418.45
2434.9
2103.71
1702.74
1330.62
1015.41
759.858
558.327
402.867
285.373
198.357
135.231
90.3929
59.2223
38.0213
23.9159
14.7372
8.89583
5.26014
3.0469
1.72899
0.961256
0.523654
0.279553
0.146272
0.0750247
0.0377284
0.018605
0.00899855
0.00426952
0.00198763
0.000908092
0.000407241
0.000179304
7.75235e-05
3.29211e-05
1.37342e-05
5.62997e-06
2.26817e-06
8.98245e-07
3.49745e-07
1.33928e-07
5.04487e-08
1.87034e-08
6.81511e-09
2.4433e-09
8.6602e-10
2.98552e-10
8.34189e-11
3.40261e-11
2.19524e-12
5.48809e-12
8.78094e-12
0
-2.19523e-12
0
4.39047e-12
0
-2.19524e-12
0
0
0
-1.4269e-11
-1.09762e-11
2.19524e-12
3.29285e-12
2.19523e-12
0
0
3.29285e-12
8.78094e-12
0
-1.09762e-12
8.78094e-12
611.322
1338.13
1559.27
1488.06
1290.01
1057.49
834.748
640.057
478.777
350.118
250.552
175.542
120.43
80.9061
53.2247
34.2865
21.6275
13.3587
8.08004
4.78604
2.77643
1.57757
0.878074
0.478822
0.255848
0.133976
0.0687673
0.034604
0.0170743
0.00826262
0.00392226
0.00182678
0.000834952
0.000374584
0.000164984
7.13559e-05
3.03114e-05
1.26492e-05
5.18664e-06
2.09012e-06
8.27944e-07
3.22424e-07
1.23489e-07
4.65313e-08
1.72469e-08
6.27618e-09
2.2578e-09
7.85894e-10
2.63428e-10
7.35404e-11
4.17095e-11
0
0
-8.78094e-12
1.31714e-11
5.48809e-12
1.4269e-11
-4.39047e-12
5.48809e-12
6.58571e-12
0
-2.19523e-12
0
-1.09762e-12
-4.39047e-12
3.29285e-12
0
1.09762e-12
0
2.19524e-12
5.48809e-12
0
-1.09762e-12
-1.09762e-12
-5.48809e-12
311.931
775.544
995.061
1023.88
940.256
805.155
656.881
516.464
393.827
292.323
211.657
149.678
103.459
69.93
46.2359
29.9093
18.9329
11.7293
7.11262
4.22228
2.45407
1.39673
0.778562
0.425109
0.227411
0.119208
0.0612439
0.0308441
0.0152307
0.00737556
0.00350339
0.00163265
0.000746623
0.000335124
0.000147672
6.38963e-05
2.71536e-05
1.13357e-05
4.64973e-06
1.87438e-06
7.42728e-07
2.89319e-07
1.10848e-07
4.17643e-08
1.54753e-08
5.62309e-09
2.00205e-09
6.98085e-10
2.49159e-10
1.00981e-10
4.17095e-11
-1.09762e-12
-5.48809e-12
-9.87856e-12
0
5.48809e-12
1.09762e-12
-8.78094e-12
-5.48809e-12
0
0
0
0
1.86595e-11
0
-1.09762e-12
-1.09762e-12
-3.29285e-12
0
-1.09762e-12
-9.87856e-12
-1.20738e-11
-7.68332e-12
-1.09762e-12
-1.09762e-12
176.508
467.914
638.716
694.366
667.683
593.53
498.956
401.785
312.278
235.364
172.531
123.24
85.8891
58.4512
38.8668
25.263
16.0568
9.98208
6.07122
3.61342
2.10494
1.20041
0.6703
0.366566
0.196365
0.103062
0.0530083
0.0267235
0.0132082
0.00640152
0.00304307
0.00141914
0.000649408
0.000291666
0.000128595
5.56711e-05
2.36699e-05
9.88593e-06
4.05683e-06
1.63603e-06
6.48514e-07
2.5274e-07
9.68439e-08
3.64837e-08
1.35139e-08
4.9316e-09
1.7485e-09
6.05885e-10
1.94278e-10
7.4638e-11
1.97571e-11
-1.09762e-12
0
-3.29285e-12
-1.09762e-12
0
-1.09762e-12
2.19524e-12
1.09762e-12
-6.58571e-12
1.09762e-12
2.19523e-12
1.09762e-12
0
-1.09762e-12
-4.39047e-12
0
0
0
-2.19524e-12
4.39047e-12
1.09762e-12
-4.39047e-12
0
0
105.962
290.425
412.604
466.693
465.151
426.511
368.044
302.884
239.685
183.358
136.076
98.2012
69.0276
47.3158
31.6547
20.6822
13.2039
8.24002
5.02837
3.00144
1.7529
1.00189
0.560565
0.3071
0.164772
0.0866037
0.0446008
0.0225113
0.0111381
0.00540353
0.00257096
0.00119996
0.000549529
0.000246983
0.000108966
4.72025e-05
2.00809e-05
8.39151e-06
3.44532e-06
1.3901e-06
5.51284e-07
2.14962e-07
8.23938e-08
3.10329e-08
1.14822e-08
4.18851e-09
1.49715e-09
5.07099e-10
1.51471e-10
4.06118e-11
8.78094e-12
1.75619e-11
0
-1.09762e-12
0
-9.87856e-12
-1.09762e-12
-7.68332e-12
4.39047e-12
-4.39047e-12
0
-2.19523e-12
1.09762e-12
-5.48809e-12
2.19523e-12
2.19524e-12
0
0
-1.20738e-11
1.09762e-12
1.31714e-11
2.19524e-12
0
-7.68332e-12
0
65.6716
183.385
267.49
311.345
319.038
300.02
264.722
222.088
178.663
138.602
104.09
75.879
53.7965
37.1467
25.0081
16.4283
10.5373
6.60281
4.04367
2.42124
1.41797
0.812444
0.455563
0.250064
0.134406
0.0707555
0.0364914
0.0184424
0.00913582
0.00443698
0.00211321
0.000987229
0.000452497
0.000203535
8.98646e-05
3.89552e-05
1.65831e-05
6.93413e-06
2.84862e-06
1.14997e-06
4.56303e-07
1.77995e-07
6.82707e-08
2.57347e-08
9.51854e-09
3.4531e-09
1.23262e-09
4.4234e-10
1.43788e-10
3.29285e-11
1.4269e-11
6.5857e-12
5.48809e-12
4.39047e-12
1.09762e-12
4.39047e-12
2.305e-11
3.29285e-12
-3.29285e-12
0
0
0
-3.29285e-12
0
0
0
7.68332e-12
-1.09762e-12
0
1.09762e-12
-1.09762e-12
0
6.5857e-12
0
4.39047e-12
41.3423
116.763
173.394
206.088
215.75
207.078
186.17
158.823
129.665
101.892
77.3788
56.9548
40.7188
28.3212
19.1871
12.6737
8.16828
5.13996
3.15952
1.89807
1.11483
0.640424
0.359945
0.197993
0.10662
0.0562246
0.0290425
0.0146987
0.00729079
0.00354515
0.00169032
0.000790475
0.000362659
0.000163269
7.2146e-05
3.12986e-05
1.33334e-05
5.57913e-06
2.29346e-06
9.26411e-07
3.67802e-07
1.43529e-07
5.50675e-08
2.08009e-08
7.72393e-09
2.82088e-09
1.00981e-09
3.7319e-10
1.29519e-10
3.40261e-11
7.68332e-12
-4.39047e-12
-1.09762e-12
-3.29285e-12
0
8.78094e-12
1.4269e-11
1.4269e-11
-4.39047e-12
4.39047e-12
-1.09762e-12
2.19523e-12
8.78094e-12
0
-1.09762e-12
0
1.4269e-11
2.19523e-12
1.31714e-11
-1.09762e-12
2.19523e-12
5.48809e-12
6.58571e-12
8.78094e-12
2.19524e-12
26.1724
74.4695
111.991
135.19
143.902
140.418
128.231
110.984
91.7963
72.9779
55.9945
41.5909
29.9733
20.9944
14.3116
9.50501
6.15562
3.89004
2.40028
1.44684
0.852374
0.490984
0.276627
0.152499
0.0822854
0.043471
0.022492
0.0114007
0.00566282
0.00275709
0.00131614
0.000616167
0.000282978
0.000127519
5.63989e-05
2.44877e-05
1.04402e-05
4.37176e-06
1.7984e-06
7.26951e-07
2.88793e-07
1.12778e-07
4.33252e-08
1.63863e-08
6.11922e-09
2.25231e-09
8.13335e-10
2.71112e-10
1.04274e-10
4.60999e-11
5.48809e-12
2.19524e-12
-5.48809e-12
0
0
-5.48809e-12
-1.97571e-11
-1.09762e-12
2.19523e-12
-1.09762e-12
-1.09762e-12
0
1.09762e-12
-1.09762e-12
-1.09762e-12
-1.09762e-12
-6.58571e-12
0
-1.09762e-12
0
1.09762e-12
0
-6.58571e-12
0
1.09762e-12
16.5531
47.3425
71.8506
87.7591
94.6409
93.5932
86.5942
75.8779
63.4806
50.9949
39.4967
29.5851
21.4822
15.1482
10.3883
6.9362
4.51341
2.86439
1.77416
1.07309
0.634129
0.366285
0.206889
0.114313
0.0618094
0.0327155
0.0169564
0.00860855
0.00428222
0.00208774
0.000997866
0.00046771
0.000215032
9.69991e-05
4.29417e-05
1.86615e-05
7.96299e-06
3.33712e-06
1.37385e-06
5.55769e-07
2.20962e-07
8.63583e-08
3.32117e-08
1.25677e-08
4.69671e-09
1.7046e-09
6.13568e-10
1.98669e-10
6.5857e-11
4.60999e-11
3.29285e-12
-3.29285e-12
2.19523e-12
4.39047e-12
2.19523e-12
1.09762e-12
-1.4269e-11
0
4.39047e-12
-1.09762e-12
3.29285e-12
1.4269e-11
-8.78094e-12
0
0
-9.87856e-12
-3.7319e-11
-1.09762e-12
0
0
-3.29285e-12
-5.48809e-12
0
-2.19523e-12
-3.29285e-12
10.4123
29.8912
45.6766
56.2964
61.3421
61.3279
57.3643
50.7985
42.9244
34.8026
27.1854
20.5216
15.0059
10.6486
7.34436
4.92906
3.22224
2.05351
1.27671
0.774838
0.459296
0.266041
0.150651
0.0834336
0.0452085
0.0239753
0.0124487
0.00633045
0.00315381
0.00153977
0.000736924
0.000345827
0.000159178
7.18806e-05
3.18537e-05
1.38561e-05
5.91781e-06
2.48219e-06
1.02274e-06
4.14041e-07
1.64744e-07
6.44312e-08
2.47842e-08
9.37475e-09
3.47506e-09
1.27104e-09
4.54414e-10
1.76716e-10
6.91499e-11
4.39047e-11
3.62214e-11
1.53666e-11
3.29285e-12
1.09762e-12
-1.09762e-12
-1.09762e-12
-3.29285e-12
0
-1.09762e-12
2.19524e-12
0
-1.09762e-12
5.48809e-12
0
-1.09762e-11
-5.48809e-12
-2.19524e-12
-1.09762e-12
0
1.09762e-12
0
0
4.39047e-12
0
1.09762e-12
6.49302
18.6925
28.7141
35.6416
39.1595
39.5021
37.2887
33.32
28.4007
23.2165
18.2744
13.8926
10.2247
7.29888
5.06127
3.41351
2.24146
1.43427
0.895006
0.545007
0.324049
0.188226
0.106859
0.0593193
0.0322113
0.0171164
0.00890355
0.00453533
0.00226303
0.00110648
0.000530272
0.000249164
0.000114822
5.19086e-05
2.30274e-05
1.00266e-05
4.28635e-06
1.7995e-06
7.42088e-07
3.00658e-07
1.19704e-07
4.68518e-08
1.80042e-08
6.78767e-09
2.50037e-09
9.06632e-10
3.25992e-10
1.37202e-10
6.69547e-11
4.50023e-11
5.1588e-11
2.85381e-11
5.48809e-12
0
-1.09762e-12
0
1.09762e-12
-8.78094e-12
-7.68332e-12
-3.29285e-12
-1.09762e-12
-1.4269e-11
1.09762e-12
-1.20738e-11
-1.09762e-12
1.09762e-11
2.305e-11
-2.19523e-12
0
0
-1.09762e-12
-4.39047e-12
-8.78094e-12
1.09762e-12
6.58571e-12
4.00458
11.5537
17.821
22.2457
24.6063
25.0059
23.7872
21.4205
18.3966
15.1479
12.0054
9.18558
6.80082
4.88156
3.40222
2.30528
1.52021
0.976561
0.611572
0.373634
0.222823
0.129786
0.0738686
0.0411016
0.022367
0.011909
0.00620624
0.00316678
0.00158267
0.000774979
0.00037192
0.000174985
8.0737e-05
3.65415e-05
1.62279e-05
7.0733e-06
3.02675e-06
1.27186e-06
5.24951e-07
2.12872e-07
8.48294e-08
3.32238e-08
1.27752e-08
4.81964e-09
1.77375e-09
6.16861e-10
2.21719e-10
7.4638e-11
1.97571e-11
1.09762e-11
1.4269e-11
5.48809e-12
-2.19523e-12
1.09762e-12
0
0
4.39047e-12
0
1.09762e-12
0
-1.09762e-12
-1.09762e-12
-6.5857e-12
0
1.20738e-11
8.78094e-12
2.19523e-12
0
-1.09762e-12
-2.19523e-12
-6.5857e-12
4.39047e-12
0
0
0
2.4384
7.0472
10.9056
13.6755
15.2104
15.553
14.8918
13.4996
11.6705
9.67141
7.71222
5.93517
4.41833
3.18763
2.23217
1.51912
1.00584
0.648557
0.407561
0.249788
0.149403
0.0872568
0.0497873
0.0277666
0.0151427
0.00807859
0.00421785
0.00215591
0.0010792
0.000529242
0.000254347
0.000119827
5.53566e-05
2.50839e-05
1.11521e-05
4.86602e-06
2.08429e-06
8.76668e-07
3.62152e-07
1.46987e-07
5.86424e-08
2.30116e-08
8.87204e-09
3.37627e-09
1.25458e-09
4.54414e-10
1.83302e-10
4.82952e-11
3.29285e-12
-8.78094e-12
-2.305e-11
-2.63428e-11
-1.4269e-11
0
-1.4269e-11
-1.09762e-12
0
7.68332e-12
8.78094e-12
6.58571e-12
1.09762e-12
-4.39047e-12
0
1.31714e-11
9.87856e-12
0
-1.09762e-12
2.19523e-12
-4.39047e-12
0
-7.68332e-12
3.29285e-12
8.78094e-12
9.87856e-12
-3.29285e-12
1.46387
4.23658
6.57358
8.27404
9.24498
9.50225
9.14895
8.34132
7.2528
6.0446
4.84666
3.74955
2.80524
2.03339
1.43018
0.977329
0.649594
0.420343
0.265022
0.162926
0.0977266
0.0572268
0.0327328
0.0182968
0.00999944
0.00534524
0.00279591
0.00143156
0.000717768
0.000352529
0.000169663
8.00382e-05
3.70221e-05
1.67961e-05
7.47593e-06
3.26552e-06
1.40018e-06
5.8949e-07
2.43767e-07
9.90424e-08
3.95603e-08
1.55488e-08
6.01494e-09
2.29622e-09
8.90168e-10
3.47945e-10
1.39397e-10
6.14666e-11
2.52452e-11
2.19523e-12
-1.86595e-11
-1.20738e-11
-2.19523e-12
-2.19524e-12
0
-4.39047e-12
-4.39047e-12
0
8.78094e-12
-1.09762e-12
0
1.09762e-12
0
-2.19524e-12
5.48809e-12
-4.39047e-12
-1.09762e-12
-1.09762e-12
0
1.09762e-12
-4.39047e-12
-7.68332e-12
-2.19524e-12
2.19523e-12
5.48809e-12
0.865565
2.50787
3.89978
4.92381
5.52275
5.70139
5.51558
5.05373
4.41647
3.69929
2.98076
2.31701
1.74138
1.26771
0.895296
0.614165
0.409687
0.265998
0.168238
0.103732
0.0623912
0.0366286
0.0210011
0.0117653
0.00644328
0.003451
0.0018084
0.000927526
0.0004658
0.000229123
0.000110428
5.21649e-05
2.41601e-05
1.09742e-05
4.89025e-06
2.13843e-06
9.17875e-07
3.86827e-07
1.60126e-07
6.51205e-08
2.60366e-08
1.02199e-08
3.97008e-09
1.53118e-09
5.8064e-10
2.52452e-10
8.67118e-11
5.48809e-11
2.19523e-11
-2.19523e-12
-1.09762e-11
7.68332e-12
1.64643e-11
4.39047e-12
1.4269e-11
2.19523e-12
1.09762e-12
3.29285e-12
0
-2.19523e-12
-2.19523e-12
5.48809e-12
1.09762e-12
0
-9.87856e-12
-1.09762e-12
0
-3.29285e-12
4.39047e-12
-1.09762e-12
-3.29285e-12
5.48809e-12
-3.29285e-12
-9.87856e-12
-1.09762e-12
0.503673
1.4607
2.27556
2.88056
3.24146
3.35885
3.26273
3.00248
2.63554
2.21742
1.79461
1.40099
1.05731
0.772781
0.547829
0.377155
0.252439
0.164425
0.104307
0.0644943
0.0388936
0.0228902
0.0131545
0.00738551
0.00405295
0.00217491
0.00114176
0.000586598
0.000295059
0.000145356
7.01561e-05
3.31856e-05
1.53896e-05
6.99895e-06
3.12245e-06
1.36691e-06
5.87345e-07
2.47788e-07
1.02655e-07
4.17973e-08
1.67233e-08
6.59888e-09
2.56074e-09
9.77977e-10
3.52335e-10
1.45983e-10
4.50023e-11
5.48809e-12
1.4269e-11
-4.39047e-12
-8.78094e-12
1.09762e-12
3.29285e-12
-1.09762e-12
-2.19524e-12
5.48809e-12
-1.09762e-12
-2.19524e-12
-9.87856e-12
0
0
-4.39047e-12
0
2.19524e-12
-4.39047e-12
1.09762e-12
8.78094e-12
4.39047e-12
0
0
9.87856e-12
1.20738e-11
5.48809e-12
-5.48809e-12
-4.39047e-12
0.288258
0.836638
1.30536
1.65605
1.86869
1.94261
1.89373
1.74928
1.54152
1.30212
1.058
0.829165
0.628133
0.460776
0.327792
0.226425
0.152033
0.0993241
0.0631881
0.0391747
0.0236842
0.0139722
0.00804754
0.00452777
0.00248965
0.00133851
0.00070392
0.000362257
0.000182503
9.0042e-05
4.35206e-05
2.06142e-05
9.57194e-06
4.3585e-06
1.94672e-06
8.53177e-07
3.67005e-07
1.54996e-07
6.42864e-08
2.62188e-08
1.05042e-08
4.17643e-09
1.6146e-09
6.10275e-10
2.56842e-10
8.8907e-11
4.06118e-11
7.68332e-12
6.58571e-12
-2.19523e-11
1.09762e-12
-6.58571e-12
-7.68332e-12
-4.39047e-12
1.09762e-12
-2.19523e-12
-1.09762e-12
-1.09762e-12
-1.09762e-12
2.19524e-12
-1.09762e-12
-8.78094e-12
-1.09762e-12
0
-8.78094e-12
-9.87856e-12
0
2.19523e-12
4.39047e-12
1.09762e-12
1.31714e-11
-4.39047e-12
3.29285e-12
-1.09762e-12
-1.09762e-12
0.162178
0.471021
0.735866
0.935321
1.05793
1.10284
1.07843
0.999481
0.883832
0.749215
0.610924
0.480474
0.365241
0.268827
0.191861
0.132942
0.0895298
0.0586559
0.0374162
0.0232561
0.0140942
0.00833366
0.00481032
0.00271195
0.00149409
0.000804737
0.000423942
0.000218531
0.000110266
5.44829e-05
2.63706e-05
1.25076e-05
5.8152e-06
2.65114e-06
1.18552e-06
5.20155e-07
2.23993e-07
9.46915e-08
3.93375e-08
1.60581e-08
6.44631e-09
2.55525e-09
9.97734e-10
3.81971e-10
1.58057e-10
5.26856e-11
3.07333e-11
2.19523e-11
-1.20738e-11
-1.64643e-11
1.4269e-11
7.68332e-12
3.29285e-12
1.09762e-12
3.29285e-12
3.29285e-12
1.86595e-11
0
2.19523e-12
0
0
-6.5857e-12
-1.09762e-12
3.29285e-12
0
-1.09762e-12
-7.68332e-12
0
0
1.09762e-12
-4.39047e-12
-8.78094e-12
0
0
-5.48809e-12
0.0896659
0.26057
0.407539
0.518842
0.588065
0.614518
0.602548
0.560078
0.4968
0.422468
0.345593
0.272668
0.207928
0.153513
0.10989
0.0763643
0.0515705
0.0338767
0.0216647
0.0134984
0.00819943
0.00485882
0.00281042
0.00158759
0.000876283
0.00047282
0.000249507
0.000128821
6.51001e-05
3.2213e-05
1.56133e-05
7.41522e-06
3.45198e-06
1.57568e-06
7.05446e-07
3.09855e-07
1.33567e-07
5.65152e-08
2.35022e-08
9.59757e-09
3.88118e-09
1.53337e-09
6.17959e-10
2.45866e-10
6.91499e-11
2.305e-11
-6.5857e-12
-1.75619e-11
-3.29285e-12
1.53666e-11
5.48809e-12
1.20738e-11
-1.09762e-12
2.19524e-12
-1.09762e-12
-1.09762e-12
9.87856e-12
0
0
-2.19524e-12
3.29285e-12
8.78094e-12
0
-1.86595e-11
8.78094e-12
1.09762e-11
0
1.09762e-12
-4.39047e-12
0
-1.20738e-11
0
0
-3.29285e-12
2.19524e-12
0.0487046
0.141606
0.221692
0.282635
0.32092
0.336069
0.330313
0.30783
0.273802
0.233499
0.191563
0.15158
0.115924
0.0858295
0.0616103
0.0429291
0.0290664
0.0191415
0.0122707
0.00766295
0.004665
0.00277018
0.00160552
0.000908675
0.000502462
0.000271585
0.000143551
7.42325e-05
3.75699e-05
1.86171e-05
9.03586e-06
4.29703e-06
2.0029e-06
9.15359e-07
4.10309e-07
1.80437e-07
7.78836e-08
3.30076e-08
1.37378e-08
5.60773e-09
2.26768e-09
8.81387e-10
3.55628e-10
1.40495e-10
4.71976e-11
1.86595e-11
-4.39047e-12
-1.97571e-11
4.39047e-12
1.86595e-11
-2.19524e-12
1.4269e-11
-5.48809e-12
1.09762e-12
-1.09762e-12
-2.19523e-12
-1.86595e-11
-7.68332e-12
-1.09762e-12
0
-1.09762e-12
1.09762e-11
1.09762e-12
-2.19524e-12
-1.09762e-12
-4.39047e-12
9.87856e-12
-1.09762e-12
2.19524e-12
-2.19524e-12
3.29285e-12
0
-2.19524e-12
3.29285e-12
-8.78094e-12
0.025986
0.0755859
0.118434
0.151177
0.171926
0.180379
0.177666
0.165957
0.147976
0.126517
0.104067
0.0825646
0.0633097
0.0469969
0.033822
0.0236257
0.0160353
0.0105848
0.00680081
0.00425631
0.00259655
0.00154498
0.000897144
0.000508687
0.000281777
0.000152558
8.07668e-05
4.18297e-05
2.12015e-05
1.05208e-05
5.11321e-06
2.43474e-06
1.13628e-06
5.19914e-07
2.33325e-07
1.02747e-07
4.44162e-08
1.88615e-08
7.85565e-09
3.21821e-09
1.27214e-09
4.95025e-10
1.86595e-10
6.14666e-11
2.85381e-11
1.4269e-11
1.97571e-11
9.87856e-12
3.29285e-12
1.53666e-11
1.09762e-12
5.48809e-12
6.5857e-12
-3.29285e-12
-2.19523e-12
5.48809e-12
-7.68332e-12
1.20738e-11
1.09762e-12
0
1.09762e-12
-2.19523e-12
-1.09762e-12
1.31714e-11
0
1.31714e-11
0
-2.19523e-12
0
1.09762e-12
4.39047e-12
-2.19523e-12
0
2.19523e-12
-1.09762e-12
0.013617
0.039623
0.0621304
0.0793937
0.0904158
0.0950193
0.0937668
0.0877688
0.0784324
0.067214
0.055419
0.0440744
0.0338778
0.0252092
0.0181854
0.0127327
0.00866164
0.00573013
0.00368952
0.00231386
0.00141437
0.000843181
0.000490522
0.00027862
0.000154597
8.38369e-05
4.44538e-05
2.30573e-05
1.17034e-05
5.81558e-06
2.83017e-06
1.34934e-06
6.30478e-07
2.8882e-07
1.29768e-07
5.72111e-08
2.47644e-08
1.05327e-08
4.39596e-09
1.81546e-09
7.13451e-10
2.85381e-10
9.21999e-11
2.41476e-11
2.305e-11
1.64643e-11
1.97571e-11
8.78094e-12
9.87856e-12
9.87856e-12
-8.78094e-12
-2.63428e-11
0
0
-1.31714e-11
6.5857e-12
1.09762e-12
1.09762e-11
0
-1.09762e-12
1.09762e-12
0
-1.09762e-12
4.39047e-12
3.29285e-12
4.39047e-12
-9.87856e-12
0
-1.09762e-12
1.09762e-12
1.09762e-12
1.09762e-12
0
1.09762e-12
1.31714e-11
0.00700746
0.0203973
0.0320048
0.0409368
0.0466777
0.0491269
0.0485613
0.0455396
0.0407766
0.0350176
0.0289352
0.0230629
0.0177669
0.0132502
0.00957949
0.00672175
0.00458234
0.00303776
0.00195991
0.00123155
0.000754224
0.000450453
0.000262513
0.000149362
8.30115e-05
4.50871e-05
2.39432e-05
1.24369e-05
6.32153e-06
3.14547e-06
1.53274e-06
7.31695e-07
3.42291e-07
1.56981e-07
7.06317e-08
3.11899e-08
1.35215e-08
5.7581e-09
2.43342e-09
1.02627e-09
4.32461e-10
1.71228e-10
5.37833e-11
1.75619e-11
1.53666e-11
1.97571e-11
-2.19523e-12
7.68332e-12
1.4269e-11
5.48809e-12
7.68332e-12
-4.39047e-12
-7.68332e-12
1.09762e-12
1.09762e-12
-4.39047e-12
0
-3.29285e-12
-2.19523e-12
2.19524e-12
-1.09762e-12
2.19523e-12
0
6.58571e-12
-2.19523e-12
-1.31714e-11
2.19524e-12
1.09762e-12
0
-1.09762e-12
7.68332e-12
3.29285e-12
0
3.29285e-12
-4.39047e-12
0.00354132
0.0103112
0.0161884
0.020724
0.0236564
0.0249307
0.0246811
0.0231842
0.0207969
0.0178938
0.0148151
0.0118324
0.00913397
0.00682598
0.00494511
0.00347693
0.00237502
0.00157755
0.00101974
0.000641968
0.00039386
0.000235639
0.000137556
7.8393e-05
4.36373e-05
2.37372e-05
1.26239e-05
6.56657e-06
3.34225e-06
1.66523e-06
8.12481e-07
3.88346e-07
1.8191e-07
8.35364e-08
3.76428e-08
1.66245e-08
7.20915e-09
3.05247e-09
1.2897e-09
5.36735e-10
2.46964e-10
1.16347e-10
6.25642e-11
3.7319e-11
2.08547e-11
2.52452e-11
1.09762e-11
3.7319e-11
2.19523e-11
6.5857e-12
4.39047e-12
8.78094e-12
3.29285e-12
-2.19523e-12
1.4269e-11
-6.5857e-12
-1.09762e-12
-3.29285e-12
1.09762e-12
2.19523e-12
-1.09762e-12
-2.19523e-12
2.19523e-12
-1.20738e-11
-3.29285e-12
-1.09762e-12
0
1.09762e-12
1.09762e-12
0
-7.68332e-12
0
-4.39047e-12
-1.4269e-11
-1.09762e-12
0.00175751
0.00511865
0.00804042
0.0103011
0.0117703
0.0124191
0.0123116
0.0115825
0.010407
0.00896983
0.00743999
0.0059532
0.00460428
0.00344744
0.00250228
0.0017627
0.00120632
0.000802742
0.000519836
0.000327833
0.000201477
0.00012074
7.05971e-05
4.0296e-05
2.24646e-05
1.22379e-05
6.51758e-06
3.39489e-06
1.73025e-06
8.63187e-07
4.21676e-07
2.01793e-07
9.46432e-08
4.35282e-08
1.96122e-08
8.65691e-09
3.74397e-09
1.56959e-09
6.3113e-10
2.43671e-10
9.00046e-11
5.04904e-11
3.95142e-11
2.41476e-11
1.20738e-11
6.58571e-12
4.06118e-11
4.39047e-11
2.52452e-11
5.48809e-12
-1.97571e-11
-2.19524e-12
-5.48809e-12
0
-2.19524e-12
0
0
-7.68332e-12
4.39047e-12
-3.29285e-12
0
-1.09762e-12
-5.48809e-12
-2.08547e-11
2.19523e-12
0
-2.19524e-12
-3.29285e-12
1.09762e-12
-1.09762e-12
1.09762e-12
-2.19524e-12
0
0
1.31714e-11
0.000856582
0.00249536
0.00392157
0.00502763
0.00574984
0.00607334
0.00602826
0.0056791
0.00511037
0.00441169
0.00366536
0.00293793
0.00227622
0.00170734
0.00124146
0.000876084
0.000600611
0.000400368
0.00025971
0.000164059
0.00010099
6.06175e-05
3.5498e-05
2.02923e-05
1.13292e-05
6.18049e-06
3.29606e-06
1.71912e-06
8.77295e-07
4.38228e-07
2.14348e-07
1.02693e-07
4.82074e-08
2.2173e-08
9.97844e-09
4.41572e-09
1.88022e-09
7.95773e-10
2.98552e-10
1.11957e-10
1.4269e-11
-1.31714e-11
-1.97571e-11
-5.48809e-12
9.87856e-12
2.41476e-11
3.51238e-11
1.20738e-11
2.19524e-11
0
-4.39047e-12
1.09762e-12
-3.29285e-12
3.29285e-12
0
-1.09762e-12
0
0
-1.09762e-12
0
0
3.29285e-12
-1.09762e-12
7.68332e-12
0
-1.09762e-12
0
0
6.58571e-12
4.39047e-12
6.5857e-12
-1.97571e-11
2.19524e-12
1.09762e-11
0
0.000410024
0.00119472
0.00187836
0.00240965
0.00275802
0.00291605
0.00289768
0.00273329
0.00246294
0.00212933
0.00177183
0.00142245
0.00110387
0.000829355
0.000604052
0.000426983
0.000293208
0.000195773
0.000127199
8.04789e-05
4.96177e-05
2.98273e-05
1.74929e-05
1.00142e-05
5.59882e-06
3.0585e-06
1.63327e-06
8.5295e-07
4.35812e-07
2.17959e-07
1.06728e-07
5.11885e-08
2.40433e-08
1.10508e-08
4.96452e-09
2.17877e-09
9.03339e-10
3.84166e-10
1.383e-10
4.06118e-11
0
-2.19523e-11
-3.18309e-11
-1.09762e-11
-8.78094e-12
-1.09762e-12
-2.19523e-12
-1.31714e-11
-2.19523e-12
2.19523e-12
1.53666e-11
0
2.08547e-11
0
0
0
8.78094e-12
0
-1.09762e-12
-2.19523e-12
-1.09762e-12
1.09762e-12
4.39047e-12
1.86595e-11
1.09762e-12
0
-1.09762e-12
1.31714e-11
0
1.09762e-12
-7.68332e-12
0
0
0
-7.68332e-12
0.000192775
0.000561818
0.00088364
0.00113422
0.00129915
0.00137482
0.00136757
0.00129147
0.0011652
0.00100873
0.000840567
0.000675816
0.000525251
0.000395238
0.000288316
0.000204119
0.000140386
9.38799e-05
6.10897e-05
3.87099e-05
2.39012e-05
1.43889e-05
8.4507e-06
4.8445e-06
2.71218e-06
1.48356e-06
7.9324e-07
4.14767e-07
2.12184e-07
1.06213e-07
5.20512e-08
2.49829e-08
1.17412e-08
5.39808e-09
2.41256e-09
1.04493e-09
4.26973e-10
1.69033e-10
6.47594e-11
6.58571e-12
-1.4269e-11
-1.64643e-11
-1.97571e-11
-2.63428e-11
-3.84166e-11
-4.50023e-11
-3.40261e-11
-2.74404e-11
-2.19524e-11
-8.78094e-12
2.19524e-12
-1.64643e-11
0
-2.19524e-12
1.09762e-12
3.29285e-12
7.68332e-12
-1.20738e-11
-1.09762e-12
2.19524e-12
-1.09762e-12
-5.48809e-12
-3.29285e-12
0
0
2.19524e-12
1.09762e-12
0
-8.78094e-12
4.39047e-12
1.09762e-12
2.41476e-11
2.19524e-12
4.39047e-12
0
8.90302e-05
0.000259514
0.000408314
0.000524372
0.00060103
0.000636555
0.000633798
0.00059917
0.000541217
0.000469123
0.00039143
0.000315142
0.000245278
0.000184832
0.000135027
9.57355e-05
6.59407e-05
4.41608e-05
2.87782e-05
1.82616e-05
1.12915e-05
6.80713e-06
4.00333e-06
2.29803e-06
1.28824e-06
7.05572e-07
3.77738e-07
1.97761e-07
1.01279e-07
5.0756e-08
2.49038e-08
1.19476e-08
5.62309e-09
2.57611e-09
1.13055e-09
4.99416e-10
2.16231e-10
7.02475e-11
2.96357e-11
3.29285e-12
-3.07333e-11
-1.75619e-11
-1.09762e-11
-2.08547e-11
-2.19524e-11
-3.29285e-11
-4.71976e-11
-2.52452e-11
-3.29285e-11
-2.305e-11
-2.08547e-11
-2.41476e-11
-1.4269e-11
2.19524e-12
2.19524e-12
0
-8.78094e-12
-1.64643e-11
-8.78094e-12
-1.20738e-11
-3.29285e-12
-1.09762e-12
1.09762e-12
-2.19524e-12
-1.09762e-12
-1.09762e-11
1.09762e-12
-6.5857e-12
-1.09762e-12
-1.09762e-12
-2.19523e-12
0
-9.87856e-12
0
5.48809e-12
4.03941e-05
0.000117765
0.000185348
0.000238144
0.000273127
0.000289488
0.000288486
0.000272992
0.000246853
0.000214218
0.00017896
0.000144265
0.000112431
8.48385e-05
6.20632e-05
4.40644e-05
3.03929e-05
2.03826e-05
1.3301e-05
8.45193e-06
5.23306e-06
3.15899e-06
1.86028e-06
1.06925e-06
6.00151e-07
3.2911e-07
1.76435e-07
9.24973e-08
4.7439e-08
2.38018e-08
1.16797e-08
5.59126e-09
2.61452e-09
1.20957e-09
5.29052e-10
2.18426e-10
9.43951e-11
9.87856e-12
-1.75619e-11
-1.75619e-11
-8.78094e-12
-9.87856e-12
9.87856e-12
1.53666e-11
-4.39047e-12
-4.39047e-12
-7.68332e-12
-7.68332e-12
-4.39047e-12
-1.86595e-11
-1.97571e-11
1.4269e-11
0
0
-3.29285e-12
6.5857e-12
-7.68332e-12
7.68332e-12
-8.78094e-12
-2.19523e-12
-1.31714e-11
5.48809e-12
4.39047e-12
-7.68332e-12
1.09762e-12
-1.09762e-12
-1.09762e-12
1.09762e-12
2.19523e-12
-8.78094e-12
-1.31714e-11
-4.39047e-12
-6.5857e-12
-7.68332e-12
-1.09762e-12
1.80073e-05
5.25064e-05
8.26636e-05
0.000106256
0.000121935
0.000129329
0.000128985
0.000122169
0.000110581
9.60654e-05
8.03455e-05
6.48466e-05
5.06e-05
3.82303e-05
2.80034e-05
1.99083e-05
1.37496e-05
9.23313e-06
6.03316e-06
3.83871e-06
2.37983e-06
1.43844e-06
8.48155e-07
4.88118e-07
2.74315e-07
1.50626e-07
8.08406e-08
4.24284e-08
2.17998e-08
1.09432e-08
5.38491e-09
2.5816e-09
1.1986e-09
5.60883e-10
2.42573e-10
8.01261e-11
1.97571e-11
-1.4269e-11
-2.96357e-11
-2.19524e-11
-4.39047e-12
2.19524e-12
8.78094e-12
-3.29285e-12
1.4269e-11
2.19524e-12
2.63428e-11
-5.48809e-12
-5.48809e-12
-2.19523e-12
1.20738e-11
1.64643e-11
0
-1.31714e-11
-1.09762e-12
4.39047e-12
0
4.39047e-12
1.86595e-11
1.31714e-11
4.39047e-12
2.19523e-12
0
2.19524e-12
0
1.09762e-11
-2.19524e-12
0
0
5.48809e-12
8.78094e-12
0
9.87856e-12
2.19523e-12
-6.58571e-12
7.88842e-06
2.30045e-05
3.62274e-05
4.65857e-05
5.34879e-05
5.67677e-05
5.66593e-05
5.37103e-05
4.86612e-05
4.2316e-05
3.54293e-05
2.86269e-05
2.23637e-05
1.69169e-05
1.24067e-05
8.83113e-06
6.10683e-06
4.106e-06
2.68635e-06
1.71133e-06
1.06228e-06
6.42881e-07
3.79514e-07
2.18667e-07
1.23041e-07
6.76725e-08
3.63707e-08
1.91205e-08
9.84453e-09
4.96233e-09
2.46415e-09
1.20409e-09
5.8503e-10
2.54647e-10
1.29519e-10
4.60999e-11
2.96357e-11
2.08547e-11
2.305e-11
-1.09762e-12
2.305e-11
1.64643e-11
1.75619e-11
3.29285e-12
2.96357e-11
1.97571e-11
1.4269e-11
2.19524e-12
-1.86595e-11
1.09762e-12
1.64643e-11
3.29285e-12
-1.09762e-12
-2.19524e-12
2.19524e-12
-2.305e-11
-1.09762e-12
0
7.68332e-12
1.09762e-12
1.4269e-11
-2.19523e-12
-1.09762e-12
-1.09762e-12
-4.39047e-12
1.09762e-12
-1.09762e-12
1.20738e-11
0
0
2.08547e-11
9.87856e-12
6.58571e-12
4.39047e-12
0
3.39626e-06
9.90559e-06
1.56033e-05
2.00722e-05
2.30574e-05
2.44859e-05
2.44562e-05
2.32016e-05
2.10388e-05
1.83125e-05
1.53476e-05
1.2414e-05
9.70859e-06
7.35231e-06
5.39836e-06
3.84713e-06
2.66351e-06
1.79302e-06
1.17448e-06
7.49099e-07
4.65549e-07
2.82081e-07
1.66712e-07
9.61776e-08
5.41949e-08
2.98475e-08
1.60801e-08
8.49995e-09
4.39267e-09
2.24024e-09
1.11957e-09
5.70761e-10
2.85381e-10
1.29519e-10
9.00046e-11
3.84166e-11
3.07333e-11
3.7319e-11
1.75619e-11
-2.19523e-12
3.84166e-11
1.20738e-11
3.84166e-11
5.59785e-11
4.06118e-11
4.71976e-11
2.08547e-11
3.62214e-11
5.48809e-12
1.09762e-12
1.4269e-11
1.97571e-11
2.08547e-11
2.08547e-11
1.09762e-12
5.48809e-12
4.39047e-12
1.4269e-11
-1.09762e-11
0
0
-2.19523e-12
-1.09762e-12
0
-3.29285e-12
0
4.39047e-12
-4.39047e-12
-2.19523e-12
-1.31714e-11
-5.48809e-12
6.5857e-12
-1.09762e-12
-5.48809e-12
2.19523e-12
1.43726e-06
4.19254e-06
6.60559e-06
8.50049e-06
9.76924e-06
1.03803e-05
1.03745e-05
9.84958e-06
8.93869e-06
7.78727e-06
6.53262e-06
5.2892e-06
4.14081e-06
3.13919e-06
2.30746e-06
1.64625e-06
1.14106e-06
7.69024e-07
5.0429e-07
3.2203e-07
2.00357e-07
1.21512e-07
7.19126e-08
4.15492e-08
2.34561e-08
1.29343e-08
6.99073e-09
3.70556e-09
1.91754e-09
9.90051e-10
4.9283e-10
2.52452e-10
1.29519e-10
7.57356e-11
2.63428e-11
7.68332e-12
-5.48809e-12
1.4269e-11
-1.09762e-12
1.20738e-11
4.39047e-12
1.09762e-11
1.86595e-11
5.04904e-11
4.17095e-11
4.17095e-11
1.53666e-11
7.68332e-12
2.96357e-11
1.31714e-11
2.19524e-11
2.63428e-11
2.52452e-11
1.09762e-12
-2.19524e-12
1.4269e-11
1.31714e-11
2.19524e-12
2.19523e-12
0
0
-2.19523e-12
2.19524e-12
8.78094e-12
3.29285e-12
-1.09762e-12
0
-1.20738e-11
1.09762e-12
0
-1.64643e-11
-9.87856e-12
1.09762e-12
-7.68332e-12
0
5.97978e-07
1.7446e-06
2.74938e-06
3.53923e-06
4.06924e-06
4.32603e-06
4.32626e-06
4.11017e-06
3.73294e-06
3.25478e-06
2.73284e-06
2.21473e-06
1.73557e-06
1.31711e-06
9.69159e-07
6.92175e-07
4.80288e-07
3.24025e-07
2.12712e-07
1.3595e-07
8.46779e-08
5.14146e-08
3.04556e-08
1.76168e-08
9.94661e-09
5.50236e-09
2.97893e-09
1.55862e-09
8.13335e-10
4.37949e-10
2.27207e-10
1.09762e-10
3.84166e-11
1.86595e-11
-6.5857e-12
1.09762e-12
-7.68332e-12
9.87856e-12
2.08547e-11
4.06118e-11
6.5857e-12
1.20738e-11
-1.86595e-11
7.68332e-12
3.07333e-11
1.97571e-11
-1.09762e-12
3.29285e-12
1.86595e-11
2.19523e-11
6.58571e-12
4.39047e-12
-8.78094e-12
-8.78094e-12
0
-2.08547e-11
-4.39047e-12
-4.39047e-12
1.09762e-12
0
0
-2.19523e-12
4.39047e-12
0
5.48809e-12
0
-1.09762e-12
0
6.58571e-12
1.53666e-11
5.48809e-12
-5.48809e-12
-8.78094e-12
1.09762e-12
-4.39047e-12
2.44663e-07
7.13864e-07
1.12517e-06
1.44887e-06
1.66648e-06
1.7725e-06
1.77357e-06
1.68609e-06
1.53245e-06
1.33718e-06
1.12369e-06
9.1146e-07
7.14929e-07
5.43089e-07
4.00006e-07
2.85985e-07
1.98636e-07
1.34139e-07
8.81617e-08
5.6389e-08
3.51369e-08
2.13607e-08
1.26698e-08
7.31562e-09
4.13692e-09