/*--------------------------------*- C++ -*----------------------------------*\
  =========                 |
  \\      /  F ield         | OpenFOAM: The Open Source CFD Toolbox
   \\    /   O peration     | Website:  https://openfoam.org
    \\  /    A nd           | Version:  10
     \\/     M anipulation  |
\*---------------------------------------------------------------------------*/
FoamFile
{
    format      ascii;
    class       volScalarField;
    location    "1900";
    object      gradTx;
}
// * * * * * * * * * * * * * * * * * * * * * * * * * * * * * * * * * * * * * //

dimensions      [0 -1 0 1 0 0 0];

internalField   nonuniform List<scalar> 
11250
(
14319.8
8163.5
5408.66
3963.72
3101.87
2535.64
2136.23
1839.26
1609.45
1425.99
1275.84
1150.45
1043.97
952.272
872.358
802.001
739.515
683.597
633.225
587.589
546.034
508.029
473.136
440.993
411.295
383.787
358.248
334.493
312.36
291.707
272.414
254.37
237.482
221.665
206.841
192.942
179.908
167.681
156.21
145.449
135.353
125.882
117
108.672
100.864
93.5477
86.6932
80.2739
74.2642
68.6399
63.3783
58.4573
53.8563
49.5555
45.5358
41.7793
38.2686
34.9871
31.9187
29.0481
26.3606
23.8419
21.4782
19.2563
17.1632
15.1865
13.3141
11.534
9.8349
8.20535
6.63431
5.11091
3.6244
2.16416
0.719639
4115.54
4762.1
4098.83
3380.68
2806.34
2368.91
2033.92
1772.25
1563.27
1392.85
1251.28
1131.75
1029.41
940.726
863.051
794.395
733.223
678.337
628.787
583.813
542.798
505.237
470.714
438.881
409.444
382.158
356.809
333.218
311.225
290.696
271.509
253.56
236.755
221.01
206.251
192.41
179.427
167.246
155.817
145.092
135.029
125.589
116.733
108.429
100.644
93.3477
86.5114
80.1086
74.1139
68.5034
63.2542
58.3446
53.7539
49.4625
45.4516
41.703
38.1995
34.9246
31.8623
28.9973
26.3149
23.8009
21.4416
19.2237
17.1344
15.1612
13.292
11.515
9.81875
8.19193
6.6235
5.1026
3.61852
2.16065
0.718474
1495.85
2670.55
2843.92
2653.92
2373.99
2099.87
1858.41
1652.68
1478.68
1331.04
1204.86
1096.07
1001.43
918.403
844.975
779.567
720.921
668.027
620.07
576.384
536.421
499.73
465.93
434.704
405.781
378.931
353.957
330.688
308.975
288.688
269.714
251.951
235.309
219.709
205.079
191.352
178.471
166.381
155.033
144.382
134.385
125.004
116.203
107.947
100.206
92.9492
86.1492
79.7793
73.8145
68.2312
63.0068
58.1198
53.5498
49.2773
45.2836
41.5508
38.0617
34.8
31.7498
28.896
26.2238
23.7192
21.3686
19.1588
17.0769
15.1107
13.248
11.4771
9.78654
8.16516
6.60193
5.08603
3.60679
2.15365
0.71615
693.156
1580.38
1952.42
2017.16
1935.9
1798.26
1647.29
1501.54
1367.87
1247.95
1141.24
1046.44
962.069
886.715
819.13
758.241
703.141
653.066
607.377
565.535
527.087
491.651
458.9
428.556
400.381
374.17
349.743
326.947
305.643
285.713
267.052
249.563
233.164
217.778
203.337
189.78
177.05
165.095
153.868
143.325
133.426
124.133
115.412
107.229
99.5528
92.3554
85.6092
79.2883
73.3681
67.8253
62.6379
57.7846
53.2454
49.001
45.0329
41.3236
37.856
34.614
31.5819
28.7447
26.0878
23.5973
21.2597
19.0618
16.9911
15.0352
13.1822
11.4204
9.73843
8.12518
6.56971
5.06127
3.58927
2.14321
0.712678
389.567
1005.4
1368.27
1526.47
1554.29
1510.1
1431.07
1338.44
1243.49
1151.82
1065.91
986.594
913.908
847.494
786.838
731.389
680.61
634.005
591.131
551.596
515.054
481.205
449.787
420.57
393.354
367.962
344.242
322.055
301.282
281.816
263.56
246.429
230.345
215.238
201.046
187.71
175.177
163.399
152.331
141.931
132.161
122.985
114.368
106.28
98.69
91.5708
84.8956
78.6392
72.7777
67.2885
62.1498
57.3411
52.8425
48.6352
44.7011
41.0229
37.5838
34.3678
31.3596
28.5444
25.9077
23.4358
21.1153
18.9334
16.8774
14.9353
13.0951
11.3453
9.67468
8.0722
6.52701
5.02846
3.56605
2.12936
0.708077
249.283
683.439
988.829
1166.22
1244.76
1256.9
1228.59
1177.79
1115.99
1050.12
984.165
920.324
859.696
802.748
749.589
700.128
654.176
611.496
571.841
534.965
500.638
468.647
438.797
410.912
384.835
360.422
337.546
316.092
295.958
277.051
259.286
242.588
226.887
212.12
198.231
185.165
172.873
161.312
150.438
140.213
130.601
121.567
113.079
105.108
97.6242
90.6013
84.0135
77.8367
72.0477
66.6245
61.546
56.7922
52.3439
48.1824
44.2903
40.6504
37.2465
34.0628
31.0842
28.2961
25.6845
23.2356
20.9364
18.7742
16.7365
14.8113
12.987
11.2522
9.59562
8.00649
6.47405
4.98777
3.53725
2.11219
0.70237
173.421
490.268
737.442
904.883
1001.71
1044.24
1048.7
1028.3
992.727
948.661
900.5
851.046
802.022
754.448
708.888
665.619
624.74
586.245
550.062
516.086
484.195
454.264
426.164
399.775
374.983
351.679
329.765
309.15
289.749
271.484
254.286
238.088
222.831
208.46
194.922
182.17
170.161
158.852
148.206
138.187
128.759
119.893
111.557
103.723
96.3637
89.4541
82.9694
76.8864
71.1829
65.8377
60.8304
56.1416
51.7526
47.6454
43.8029
40.2085
36.8463
33.7008
30.7572
28.0014
25.4194
22.9979
20.7239
18.585
16.569
14.6641
12.8586
11.1415
9.50167
7.9284
6.41112
4.93941
3.50302
2.09177
0.695586
127.562
366.798
565.835
714.226
813.059
869.766
893.797
894.108
878.11
851.472
818.317
781.54
743.118
704.367
666.141
628.976
593.191
558.961
526.365
495.419
466.1
438.361
412.14
387.368
363.972
341.88
321.022
301.331
282.74
265.19
248.623
232.985
218.225
204.297
191.155
178.758
167.066
156.044
145.656
135.869
126.652
117.976
109.812
102.135
94.918
88.1377
81.7708
75.7951
70.1895
64.9335
60.0077
55.3933
51.0724
47.0275
43.242
39.6998
36.3854
33.2838
30.3806
27.6618
25.1139
22.7239
20.479
18.367
16.376
14.4943
12.7106
11.0139
9.39332
7.83834
6.33852
4.88362
3.46353
2.06822
0.68776
97.6019
283.556
444.921
573.194
666.614
728.066
762.733
776.366
774.288
760.97
739.942
713.882
684.759
653.991
622.577
591.208
560.354
530.321
501.305
473.421
446.73
421.252
396.985
373.906
351.983
331.178
311.447
292.745
275.027
258.249
242.366
227.337
213.119
199.675
186.968
174.96
163.619
152.913
142.809
133.28
124.296
115.831
107.859
100.356
93.2977
86.6617
80.4261
74.5703
69.0739
63.9178
59.0832
54.5522
50.3075
46.3324
42.6109
39.1273
35.8666
32.8143
29.9564
27.2793
24.7698
22.4151
20.2029
18.1212
16.1583
14.3028
12.5436
10.8699
9.27111
7.73675
6.25663
4.82069
3.41899
2.04166
0.678932
76.9007
224.93
357.147
467.078
552.221
613.253
652.823
674.47
681.86
678.347
666.785
649.486
628.259
604.488
579.207
553.18
526.958
500.939
475.398
450.525
426.447
403.242
380.955
359.607
339.201
319.728
301.171
283.507
266.708
250.745
235.588
221.207
207.569
194.644
182.402
170.815
159.852
149.486
139.692
130.441
121.711
113.476
105.713
98.4
91.5147
85.0364
78.9447
73.2201
67.8437
62.7971
58.0627
53.6234
49.4626
45.5644
41.9133
38.4942
35.2928
32.2949
29.487
26.8559
24.3888
22.0732
19.8972
17.849
15.9172
14.0907
12.3587
10.7104
9.13566
7.62414
6.16586
4.75093
3.3696
2.01221
0.669145
61.9806
182.146
291.705
385.816
462.023
520.001
560.953
586.968
600.486
603.941
599.548
589.215
574.517
556.721
536.824
515.596
493.623
471.35
449.103
427.124
405.588
384.618
364.297
344.682
325.806
307.687
290.33
273.731
257.881
242.764
228.364
214.66
201.63
189.252
177.502
166.359
155.797
145.794
136.328
127.377
118.917
110.928
103.39
96.2807
89.5816
83.2732
77.3366
71.7537
66.5068
61.5787
56.9527
52.6127
48.5428
44.728
41.1532
37.8043
34.6673
31.7285
28.975
26.394
23.973
21.7001
19.5634
17.5518
15.6539
13.859
12.1566
10.5362
8.98766
7.50109
6.06666
4.67469
3.31563
1.98002
0.658447
50.8657
149.995
241.755
322.521
390.137
443.874
484.137
512.095
529.326
537.548
538.433
533.504
524.081
511.278
496.007
479.003
460.849
442.002
422.818
403.568
384.459
365.645
347.241
329.331
311.972
295.204
279.052
263.531
248.645
234.393
220.769
207.762
195.361
183.549
172.312
161.631
151.489
141.867
132.747
124.109
115.935
108.207
100.906
94.0131
87.5117
81.3838
75.6123
70.1804
65.0716
60.27
55.7599
51.526
47.5535
43.8279
40.3351
37.0614
33.9935
31.1183
28.4232
25.896
23.5246
21.2975
19.2033
17.231
15.3697
13.6089
11.9384
10.348
8.82784
7.3682
5.95951
4.59233
3.25732
1.94524
0.64689
42.3617
125.241
202.846
272.438
332.211
381.318
419.741
448.08
467.323
478.656
483.312
482.478
477.233
468.523
457.155
443.804
429.022
413.259
396.874
380.155
363.325
346.56
329.996
313.736
297.859
282.421
267.464
253.016
239.096
225.715
212.876
200.579
188.818
177.587
166.876
156.673
146.964
137.736
128.975
120.664
112.788
105.331
98.2784
91.6128
85.3189
79.3807
73.783
68.5101
63.5471
58.8791
54.4914
50.3699
46.5004
42.8694
39.4635
36.2696
33.275
30.4673
27.8344
25.3645
23.046
20.8677
18.8187
16.8883
15.066
13.3417
11.7052
10.1468
8.65696
7.22609
5.84493
4.50425
3.19497
1.90805
0.634529
35.7106
105.788
171.995
232.237
285.029
329.541
365.544
393.291
413.377
426.6
433.858
436.055
434.054
428.643
420.517
410.276
398.428
385.398
371.536
357.13
342.412
327.567
312.745
298.064
283.614
269.468
255.679
242.289
229.326
216.811
204.758
193.173
182.059
171.416
161.239
151.522
142.257
133.433
125.04
117.065
109.497
102.322
95.5258
89.0956
83.0172
77.2766
71.8599
66.753
61.9423
57.4139
53.1545
49.1507
45.3894
41.8577
38.5431
35.4332
32.5158
29.7792
27.2118
24.8022
22.5395
20.4128
18.4115
16.5254
14.7444
13.0585
11.4581
9.93365
8.47584
7.07546
5.72345
4.41087
3.12885
1.86861
0.621422
30.4118
90.2335
147.152
199.547
246.206
286.37
319.715
346.292
366.435
380.67
389.636
394.016
394.487
391.693
386.22
378.592
369.263
358.626
347.01
334.694
321.907
308.841
295.649
282.458
269.37
256.465
243.806
231.445
219.42
207.758
196.482
185.606
175.138
165.084
155.444
146.218
137.401
128.988
120.97
113.339
106.085
99.1974
92.6655
86.4774
80.6211
75.0843
69.8546
64.9195
60.2665
55.8831
51.7568
47.8753
44.2265
40.7983
37.5788
34.5564
31.7197
29.0573
26.5584
24.212
22.0076
19.9349
17.9837
16.1441
14.4063
12.7608
11.1983
9.70944
8.28533
6.917
5.59565
4.31262
3.05928
1.82712
0.60763
26.1234
77.6082
126.874
172.654
213.956
250.11
280.764
305.853
325.542
340.166
350.173
356.069
358.383
357.631
354.301
348.842
341.652
333.085
323.446
312.998
301.961
290.524
278.842
267.046
255.241
243.516
231.941
220.572
209.456
198.627
188.114
177.935
168.106
158.637
149.534
140.799
132.432
124.431
116.792
109.508
102.573
95.9783
89.7153
83.7743
78.1449
72.8167
67.7788
63.02
58.5292
54.2949
50.3058
46.5506
43.0179
39.6966
36.5756
33.6439
30.8907
28.3054
25.8775
23.5967
21.453
19.4364
17.5373
15.7461
14.0533
12.45
10.9269
9.47525
8.0863
6.75142
5.46211
4.20993
2.98657
1.78374
0.593215
22.6057
67.2273
110.126
150.296
186.929
219.442
247.487
270.938
289.852
304.432
314.987
321.887
325.539
326.353
324.731
321.05
315.658
308.866
300.951
292.155
282.688
272.73
262.435
251.931
241.327
230.714
220.167
209.748
199.506
189.483
179.71
170.214
161.012
152.12
143.547
135.299
127.381
119.792
112.532
105.597
98.983
92.6839
86.6927
81.0018
75.6028
70.4867
65.644
61.065
56.7397
52.6579
48.8092
45.1833
41.7698
38.5583
35.5385
32.7001
30.0329
27.527
25.1723
22.9593
20.8782
18.9197
17.0744
15.3332
13.6871
12.1274
10.6452
9.23211
7.87964
6.57948
5.32341
4.10328
2.91104
1.73869
0.578239
19.6861
58.595
96.146
131.536
164.097
193.331
218.911
240.681
258.631
272.876
283.62
291.133
295.723
297.714
297.433
295.196
291.298
286.014
279.589
272.244
264.174
255.549
246.515
237.2
227.71
218.137
208.559
199.04
189.634
180.384
171.327
162.492
153.901
145.573
137.521
129.754
122.279
115.099
108.216
101.629
95.336
89.3328
83.6146
78.1755
73.0087
68.1067
63.4615
59.0647
54.9073
50.9804
47.2746
43.7804
40.4884
37.389
34.4725
31.7295
29.1504
26.7257
24.4462
22.3027
20.2859
18.387
16.5971
14.9074
13.3093
11.7945
10.3545
8.9811
7.66625
6.40191
5.18015
3.99312
2.83302
1.69214
0.562769
17.2379
51.345
84.3686
115.659
144.667
170.962
194.25
214.362
231.25
244.967
255.645
263.476
268.691
271.546
272.303
271.223
268.557
264.541
259.395
253.315
246.479
239.045
231.152
222.921
214.457
205.851
197.18
188.509
179.894
171.382
163.011
154.813
146.814
139.034
131.49
124.194
117.154
110.378
103.868
97.6257
91.6515
85.9431
80.4975
75.3102
70.3761
65.6891
61.2425
57.0291
53.0412
49.2707
45.7094
42.3487
39.1798
36.1941
33.3827
30.7367
28.2472
25.9054
23.7025
21.6298
19.6787
17.8407
16.1074
14.4704
12.9215
11.4527
10.0559
8.72328
7.44704
6.21947
5.03295
3.8799
2.75284
1.6443
0.546868
15.1664
45.2025
74.3643
102.122
128.019
151.689
172.865
191.383
207.171
220.242
230.675
238.605
244.204
247.671
249.215
249.051
247.39
244.435
240.377
235.391
229.638
223.263
216.395
209.148
201.624
193.91
186.082
178.205
170.337
162.524
154.806
147.219
139.788
132.538
125.487
118.649
112.035
105.653
99.5097
93.6076
87.9484
82.5321
77.3569
72.4201
67.718
63.2457
58.9977
54.9681
51.1502
47.537
44.121
40.8946
37.85
34.9792
32.2739
29.726
27.3273
25.0694
22.9443
20.9436
19.0592
17.2832
15.6075
14.0241
12.5253
11.1034
9.75075
8.45973
7.22292
6.03291
4.8824
3.7641
2.67082
1.59536
0.530601
13.3997
39.9577
65.8032
90.5004
113.668
134.993
154.239
171.248
185.938
198.295
208.362
216.231
222.03
225.908
228.036
228.587
227.738
225.663
222.525
218.48
213.671
208.231
202.279
195.92
189.251
182.356
175.307
168.171
161.001
153.847
146.749
139.743
132.857
126.116
119.54
113.145
106.945
100.948
95.1628
89.5939
84.2445
79.1158
74.2077
69.5189
65.0467
60.7877
56.7375
52.8911
49.2429
45.7868
42.5164
39.4247
36.5048
33.7494
31.1509
28.7018
26.3946
24.2215
22.1748
20.2469
18.43
16.7167
15.0993
13.5704
12.1224
10.7482
9.44024
8.19149
6.99476
5.84297
4.7291
3.64618
2.58728
1.54552
0.514033
11.8822
35.4482
58.4285
80.4617
101.228
120.459
137.946
153.543
167.163
178.775
188.399
196.093
201.949
206.084
208.63
209.73
209.53
208.176
205.811
202.57
198.582
193.964
188.825
183.264
177.369
171.221
164.891
158.439
151.921
145.385
138.871
132.416
126.048
119.794
113.674
107.707
101.906
96.283
90.8463
85.6025
80.556
75.7094
71.0639
66.6193
62.3741
58.3259
54.4715
50.8069
47.3274
44.0278
40.9024
37.9452
35.1499
32.5099
30.0183
27.6684
25.4529
23.3649
21.3972
19.5425
17.7936
16.1435
14.585
13.111
11.7144
10.3882
9.12559
7.91962
6.76347
5.65038
4.57364
3.52658
2.50255
1.49496
0.497227
10.5704
31.5471
52.0381
71.7421
90.3891
107.749
123.639
137.924
150.518
161.38
170.512
177.95
183.76
188.029
190.862
192.373
192.685
191.92
190.2
187.643
184.362
180.462
176.043
171.194
165.999
160.531
154.857
149.038
143.125
137.166
131.2
125.264
119.387
113.596
107.913
102.355
96.9393
91.6767
86.5777
81.6496
76.8981
72.3269
67.9383
63.7331
59.7109
55.8704
52.2092
48.7241
45.4115
42.2669
39.2855
36.4619
33.7906
31.2656
28.8807
26.6297
24.506
22.5032
20.6144
18.8331
17.1525
15.5658
14.0664
12.6476
11.3026
10.025
8.80798
7.64512
6.5299
5.45586
4.41661
3.40575
2.41695
1.44388
0.480246
9.43008
28.1533
46.4711
64.1303
80.902
96.5887
111.029
124.102
135.722
145.846
154.463
161.592
167.278
171.587
174.602
176.413
177.122
176.832
175.646
173.667
170.993
167.72
163.934
159.72
155.152
150.299
145.225
139.987
134.633
129.21
123.757
118.309
112.896
107.544
102.275
97.1095
92.062
87.1461
82.3726
77.7499
73.2845
68.981
64.8427
60.8714
57.0675
53.4305
49.959
46.6507
43.5026
40.511
37.6718
34.9805
32.4321
30.0212
27.7423
25.5897
23.5574
21.6393
19.8294
18.1213
16.5089
14.9857
13.5455
12.182
10.8888
9.65974
8.48853
7.36897
6.29488
5.26011
4.25855
3.28412
2.33077
1.39245
0.463149
8.43375
25.1863
41.5981
57.4553
72.563
86.7511
99.878
111.834
122.539
131.948
140.041
146.827
152.335
156.613
159.726
161.747
162.758
162.847
162.1
160.606
158.452
155.721
152.493
148.84
144.834
140.537
136.008
131.3
126.462
121.536
116.56
111.569
106.591
101.654
96.7787
91.9852
87.2897
82.706
78.2452
73.9167
69.7276
65.6834
61.7881
58.0442
54.4531
51.0149
47.7291
44.594
41.6073
38.7662
36.0672
33.5063
31.0791
28.7811
26.6071
24.5519
22.6103
20.7765
19.0449
17.4097
15.8651
14.4052
13.024
11.7157
10.4743
9.29378
8.16837
7.09214
6.05923
5.06379
4.10002
3.16211
2.24431
1.34085
0.445995
7.55927
22.5807
37.3141
51.5778
65.2051
78.0491
89.9855
100.915
110.766
119.49
127.063
133.487
138.778
142.972
146.119
148.276
149.512
149.898
149.509
148.422
146.71
144.447
141.705
138.549
135.044
131.246
127.211
122.989
118.623
114.156
109.623
105.057
100.488
95.9405
91.4369
86.9965
82.6359
78.369
74.2077
70.1616
66.2384
62.4444
58.7841
55.2607
51.8762
48.6316
45.5267
42.5608
39.7321
37.0385
34.4769
32.0442
29.7364
27.5494
25.4789
23.5201
21.668
19.9175
18.2635
16.7006
15.2234
13.8263
12.5038
11.2503
10.0604
8.9283
7.84854
6.81554
5.82372
4.86756
3.94153
3.04012
2.15786
1.28925
0.428841
6.78858
20.2833
33.5331
46.3831
58.6902
70.327
81.1845
91.174
100.228
108.302
115.368
121.421
126.471
130.542
133.672
135.908
137.304
137.921
137.821
137.07
135.732
133.873
131.554
128.836
125.776
122.427
118.838
115.056
111.123
107.078
102.955
98.7854
94.5973
90.4154
86.2616
82.1549
78.1117
74.1463
70.2706
66.4947
62.8267
59.2732
55.8394
52.529
49.3446
46.2876
43.3586
40.5574
37.8828
35.3331
32.906
30.5987
28.408
26.3302
24.3613
22.4972
20.7334
19.0652
17.4878
15.9963
14.5856
13.2507
11.9863
10.7873
9.64845
8.56444
7.53005
6.54002
5.58909
4.67202
3.78357
2.91853
2.07168
1.23782
0.41174
6.10685
18.2502
30.1843
41.7765
52.9035
63.4544
73.3337
82.4621
90.7781
98.2377
104.814
110.497
115.29
119.21
122.286
124.554
126.059
126.85
126.981
126.507
125.485
123.971
122.021
119.687
117.021
114.072
110.886
107.504
103.966
100.308
96.5631
92.7607
88.9275
85.0876
81.2621
77.4696
73.7266
70.047
66.443
62.9247
59.5007
56.1779
52.9617
49.8564
46.8649
43.9894
41.2308
38.5893
36.0644
33.6549
31.3589
29.1741
27.0978
25.1268
23.2576
21.4864
19.8093
18.2219
16.7199
15.2987
13.9538
12.6802
11.4733
10.3281
9.23972
8.2033
7.21385
6.26641
5.35603
4.47776
3.62663
2.7977
1.98604
1.18669
0.394743
5.5018
16.4451
27.2089
37.679
47.7487
57.3217
66.3136
74.654
82.2867
89.1704
95.278
100.597
105.126
108.876
111.869
114.133
115.704
116.623
116.936
116.689
115.932
114.712
113.08
111.083
108.767
106.175
103.35
100.33
97.1516
93.8484
90.4513
86.9882
83.4847
79.9636
76.4454
72.9482
69.488
66.0787
62.7323
59.459
56.2676
53.1652
50.1575
47.2491
44.4434
41.7427
39.1486
36.6617
34.2819
32.0083
29.8397
27.7741
25.8094
23.9426
22.1708
20.4905
18.8982
17.3901
15.9621
14.61
13.3296
12.1164
10.966
9.87384
8.83534
7.84588
6.90082
5.99549
5.12521
4.28532
3.47113
2.67797
1.90116
1.13603
0.377897
4.9632
14.8377
24.5575
34.0241
43.1449
51.8357
60.0224
67.6421
74.6437
80.9888
86.6509
91.6156
95.8791
99.4477
102.337
104.569
106.172
107.182
107.635
107.572
107.035
106.066
104.709
103.006
100.998
98.7242
96.2228
93.5295
90.6776
87.6984
84.6206
81.4706
78.2724
75.0479
71.8166
68.5961
65.4018
62.2473
59.1445
56.1037
53.1334
50.241
47.4325
44.7126
42.085
39.5525
37.1168
34.7789
32.5392
30.3973
28.3521
26.4023
24.5459
22.7805
21.1035
19.512
18.0026
16.5719
15.2162
13.9318
12.7147
11.5607
10.4659
9.42583
8.43636
7.49313
6.59179
5.72796
4.89723
4.09522
3.3175
2.55966
1.81729
1.08595
0.361249
4.48245
13.4025
22.1888
30.756
39.0234
46.9176
54.373
61.3336
67.7532
73.5963
78.8373
83.461
87.4616
90.8419
93.6126
95.7912
97.4009
98.4696
99.0288
99.1131
98.7583
98.0019
96.8815
95.4343
93.6973
91.7059
89.4944
87.0954
84.5395
81.8555
79.0703
76.2083
73.2924
70.3431
67.3791
64.4171
61.4722
58.5574
55.6845
52.8634
50.1029
47.4101
44.7914
42.2514
39.7943
37.4229
35.1393
32.9449
30.8402
28.8253
26.8994
25.0616
23.3102
21.6432
20.0584
18.5531
17.1244
15.7692
14.4841
13.2658
12.1105
11.0146
9.97408
8.98514
8.04376
7.14592
6.28753
5.46448
4.67266
3.90793
3.16611
2.44307
1.73462
1.0366
0.344838
4.05229
12.1179
20.0677
27.827
35.3259
42.4996
49.2905
55.6485
61.5321
66.9082
71.753
76.0507
79.7942
82.9837
85.6264
87.7358
89.3302
90.4328
91.0697
91.2704
91.0657
90.488
89.5704
88.3458
86.8469
85.1058
83.1532
81.0188
78.7307
76.3153
73.7975
71.2002
68.5446
65.8501
63.1345
60.4137
57.702
55.0122
52.3556
49.7419
47.1797
44.6764
42.2379
39.8694
37.5749
35.3575
33.2197
31.1628
29.188
27.2952
25.4844
23.7547
22.1048
20.533
19.0375
17.6158
16.2655
14.9837
13.7674
12.6135
11.5185
10.4791
9.49176
8.55277
7.65844
6.80503
5.98872
5.20567
4.45202
3.72387
3.01732
2.32845
1.65335
0.988075
0.328703
3.66655
10.9658
18.1641
25.1967
32.0022
38.5238
44.7104
50.5175
55.9076
60.8505
65.3235
69.3113
72.8058
75.8052
78.3143
80.3429
81.9058
83.0218
83.713
84.0041
83.9217
83.494
82.7497
81.7179
80.4279
78.908
77.1863
75.2895
73.2432
71.0718
68.798
66.4433
64.0273
61.5684
59.0832
56.5868
54.0929
51.6137
49.1602
46.7418
44.3669
42.0426
39.7751
37.5694
35.4298
33.3594
31.3607
29.4356
27.5851
25.8098
24.1095
22.4839
20.9318
19.452
18.0428
16.7021
15.4277
14.2171
13.0675
11.9761
10.9398
9.95551
9.0199
8.12961
7.28121
6.47119
5.69601
4.95208
4.23577
3.54345
2.87144
2.21607
1.57365
0.940488
0.312879
3.31996
9.93035
16.4527
22.8303
29.0094
34.9399
40.5768
45.8802
50.8164
55.3578
59.4832
63.1778
66.4328
69.2454
71.618
73.558
75.0769
76.1903
76.9163
77.2761
77.2925
76.9897
76.393
75.528
74.4206
73.0962
71.5799
69.896
68.0678
66.1175
64.0661
61.9334
59.7377
57.496
55.2241
52.9361
50.6452
48.3629
46.0996
43.8647
41.6661
39.5109
37.4052
35.3539
33.3613
31.4307
29.5648
27.7654
26.0339
24.371
22.7768
21.2511
19.7932
18.4019
17.0759
15.8134
14.6123
13.4706
12.3856
11.3548
10.3755
9.44468
8.55937
7.71646
6.91277
6.14504
5.40996
4.70419
4.02434
3.36701
2.72876
2.10614
1.49569
0.893931
0.297397
3.008
8.99816
14.9113
20.6977
26.3102
31.7046
36.841
41.6839
46.2029
50.3727
54.1738
57.592
60.6182
63.2488
65.4846
67.3309
68.7967
69.8945
70.6398
71.0501
71.1452
70.946
70.4745
69.7533
68.8053
67.6532
66.3196
64.8262
63.1944
61.4442
59.5951
57.6652
55.6716
53.63
51.5552
49.4606
47.3583
45.2596
43.1743
41.1114
39.0785
37.0826
35.1296
33.2243
31.3711
29.5733
27.8336
26.154
24.536
22.9806
21.4879
20.058
18.6904
17.3842
16.1382
14.951
13.8207
12.7454
11.7228
10.7507
9.82648
8.94749
8.11097
7.31404
6.55377
5.82713
5.13106
4.46244
3.81811
3.19488
2.58953
1.99885
1.41959
0.848488
0.282285
2.72675
8.15761
13.5209
18.7731
23.8725
28.7802
33.4607
37.8824
42.0179
45.8444
49.3435
52.5019
55.3107
57.7655
59.8659
61.6157
63.0217
64.0942
64.8459
65.2918
65.4486
65.3346
64.9689
64.3714
63.5623
62.5619
61.3903
60.0673
58.612
57.0428
55.3775
53.6326
51.8241
49.9665
48.0736
46.1578
44.2308
42.303
40.3839
38.4819
36.6045
34.7583
32.9491
31.1817
29.4603
27.7883
26.1684
24.6028
23.0929
21.6399
20.2442
18.9059
17.6248
16.4001
15.231
14.116
13.0538
12.0425
11.0801
10.1646
9.29356
8.46467
7.67534
6.92294
6.20475
5.51797
4.85976
4.22722
3.61739
3.02731
2.45399
1.89439
1.34549
0.804232
0.267567
2.47284
7.39864
12.2651
17.0338
21.6681
26.1336
30.3987
34.4352
38.2184
41.7277
44.9462
47.8612
50.4642
52.7502
54.7181
56.3703
57.7121
58.7517
59.4997
59.9687
60.1731
60.1286
59.8519
59.3604
58.6721
57.805
56.777
55.606
54.3092
52.9035
51.4048
49.8287
48.1894
46.5008
44.7754
43.025
41.2604
39.4915
37.7272
35.9755
34.2437
32.538
30.8641
29.2266
27.6296
26.0765
24.5701
23.1125
21.7054
20.3498
19.0465
17.7957
16.5972
15.4506
14.355
13.3094
12.3125
11.3626
10.4582
9.5971
8.77739
7.99682
7.25306
6.54368
5.86618
5.21798
4.59643
3.99884
3.42247
2.86456
2.32231
1.7929
1.27349
0.761228
0.253265
2.24332
6.71246
11.1294
15.4602
19.6725
23.7358
27.6222
31.3064
34.7661
37.9827
40.9407
43.6283
46.037
48.1619
50.0012
51.5563
52.8311
53.8322
54.5685
55.0504
55.2905
55.3021
55.0998
54.6991
54.1156
53.3654
52.4645
51.429
50.2744
49.016
47.6685
46.2458
44.7613
43.2275
41.6562
40.0584
38.4441
36.8226
35.2024
33.5909
31.9952
30.4211
28.8741
27.3588
25.879
24.4382
23.0391
21.6838
20.3741
19.1112
17.8957
16.7281
15.6084
14.5362
13.511
12.5318
11.5974
10.7065
9.8576
9.04889
8.2785
7.54444
6.84458
6.17668
5.53845
4.92749
4.34137
3.77758
3.23359
2.70682
2.19467
1.6945
1.20367
0.719529
0.239397
2.03562
6.09141
10.1011
14.0349
17.864
21.5615
25.1025
28.4643
31.6271
34.5738
37.2903
39.7656
41.9917
43.9635
45.6789
47.1383
48.3448
49.3035
50.0217
50.5084
50.774
50.8304
50.6901
50.3666
49.8739
49.2261
48.4377
47.5228
46.4957
45.37
44.1592
42.876
41.5327
40.1407
38.7111
37.2539
35.7785
34.2936
32.8071
31.3263
29.8575
28.4065
26.9784
25.5778
24.2083
22.8733
21.5754
20.3168
19.0993
17.9241
16.792
15.7036
14.6588
13.6576
12.6995
11.7836
10.909
10.0746
9.27889
8.52036
7.79732
7.10793
6.45027
5.82228
5.22186
4.6468
4.09484
3.56367
3.05094
2.55425
2.07119
1.5993
1.13612
0.67918
0.225977
1.84746
5.52876
9.16935
12.7428
16.2238
19.5883
22.8141
25.881
28.7712
31.4692
33.9621
36.2398
38.2945
40.1214
41.718
43.0841
44.2219
45.1355
45.8309
46.3156
46.5987
46.6902
46.6012
46.3433
45.929
45.3708
44.6816
43.8741
42.961
41.9548
40.8676
39.7111
38.4964
37.2342
35.9345
34.6067
33.2595
31.901
30.5387
29.1792
27.8287
26.4926
25.1759
23.8827
22.6167
21.3811
20.1786
19.0113
17.8809
16.7887
15.7357
14.7223
13.7487
12.815
11.9207
11.0652
10.2477
9.46718
8.72234
8.01183
7.33413
6.68757
6.0704
5.48074
4.91665
4.37611
3.85703
3.35728
2.87467
2.40699
1.95198
1.50739
1.0709
0.640214
0.213017
1.67688
5.01857
8.32426
11.5706
14.7349
17.7961
20.7343
23.5315
26.1715
28.6405
30.9266
33.0204
34.9148
36.605
38.0882
39.3639
40.4337
41.3006
41.9697
42.4472
42.7409
42.8594
42.8123
42.61
42.2633
41.7834
41.1816
40.4695
39.6585
38.7597
37.7842
36.7426
35.6451
34.5014
33.3208
32.1119
30.8829
29.6412
28.3938
27.147
25.9065
24.6776
23.4648
22.2721
21.1032
19.961
18.8482
17.7668
16.7186
15.7048
14.7264
13.7841
12.8781
12.0084
11.1748
10.3768
9.61361
8.88442
8.18813
7.52349
6.88913
6.28355
5.70515
5.15223
4.62299
4.11558
3.62808
3.15852
2.70489
2.26512
1.83713
1.41881
1.00804
0.60266
0.200526
1.5221
4.55561
7.55723
10.5062
13.3826
16.1675
18.8431
21.3934
23.804
26.0621
28.157
30.0802
31.8249
33.3864
34.7619
35.9507
36.9536
37.7732
38.4134
38.8796
39.1782
39.317
39.3041
39.1485
38.86
38.4483
37.9236
37.2962
36.5762
35.774
34.8992
33.9618
32.9708
31.9353
30.8637
29.7641
28.6438
27.5099
26.3689
25.2265
24.0883
22.9591
21.8432
20.7445
19.6664
18.6118
17.5831
16.5825
15.6117
14.6718
13.764
12.8889
12.0467
11.2377
10.4617
9.7182
9.0067
8.32639
7.67633
7.05541
6.46241
5.89598
5.35464
4.83685
4.34097
3.86531
3.40809
2.9675
2.54167
2.1287
1.72667
1.33362
0.947571
0.566535
0.18851
1.38157
4.13523
6.86062
9.53933
12.1536
14.6866
17.1226
19.447
21.647
23.7111
25.6296
27.3945
28.9995
30.4403
31.714
32.8195
33.7574
34.5295
35.1392
35.5908
35.89
36.0432
36.0578
35.9415
35.7028
35.3505
34.8936
34.3413
33.7027
32.987
32.2032
31.36
30.4659
29.5291
28.5572
27.5577
26.5375
25.5029
24.4601
23.4145
22.3712
21.3346
20.309
19.298
18.3047
17.332
16.3823
15.4575
14.5594
13.6892
12.8478
12.0361
11.2543
10.5027
9.78115
9.08938
8.42688
7.793
7.18689
6.60759
6.05398
5.52485
5.01887
4.53463
4.07064
3.62533
3.19709
2.78423
2.38505
1.99778
1.62065
1.25184
0.889519
0.531849
0.176972
1.2539
3.7533
6.2276
8.66046
11.0361
13.3395
15.5565
17.6744
19.6813
21.567
23.3226
24.9409
26.416
27.7437
28.9213
29.9475
30.8225
31.5477
32.1258
32.5605
32.8566
33.0196
33.0559
32.9723
32.7763
32.4756
32.0783
31.5926
31.0266
30.3885
29.6866
28.9287
28.1226
27.2755
26.3948
25.4871
24.5587
23.6157
22.6635
21.7074
20.7519
19.8014
18.8598
17.9304
17.0163
16.1202
15.2443
14.3906
13.5607
12.7559
11.9771
11.2251
10.5003
9.80285
9.13283
8.48999
7.87392
7.28406
6.71967
6.17989
5.66374
5.17011
4.69781
4.24555
3.81197
3.39564
2.99508
2.60873
2.23503
1.87236
1.51906
1.17347
0.833883
0.498605
0.165914
1.13787
3.40614
5.65211
7.86126
10.0195
12.1135
14.1307
16.0595
17.8894
19.6111
21.2166
22.6991
24.0534
25.2755
26.3627
27.3136
28.1282
28.8075
29.3536
29.7696
30.0597
30.2286
30.2818
30.2253
30.0657
29.8099
29.4648
29.038
28.5367
27.9682
27.34
26.6593
25.9329
25.1676
24.3701
23.5463
22.7023
21.8434
20.9748
20.1013
19.2272
18.3565
17.4928
16.6394
15.7991
14.9744
14.1676
13.3804
12.6145
11.871
11.151
10.4552
9.78396
9.13764
8.51625
7.91964
7.34747
6.79928
6.27442
5.77213
5.29153
4.83163
4.39135
3.96952
3.5649
3.17619
2.80201
2.44097
2.0916
1.75241
1.42189
1.0985
0.780657
0.466799
0.155334
1.03236
3.09045
5.12871
7.13422
9.09447
10.9975
12.8322
14.588
16.2556
17.8266
19.2937
20.6509
21.8931
23.0166
24.0189
24.8986
25.6554
26.29
26.8041
27.2004
27.4822
27.6538
27.7199
27.6857
27.557
27.3399
27.0408
26.666
26.2223
25.7162
25.1543
24.5432
23.8891
23.1983
22.4766
21.7297
20.9629
20.1813
19.3897
18.5924
17.7935
16.9966
16.2053
15.4225
14.6508
13.8928
13.1504
12.4254
11.7193
11.0333
10.3685
9.72539
9.1046
8.50637
7.9308
7.37779
6.84709
6.33827
5.85081
5.38401
4.9371
4.50919
4.0993
3.70638
3.3293
2.96685
2.61781
2.28086
1.95468
1.6379
1.32911
1.0269
0.729824
0.436421
0.145228
0.936395
2.80328
4.65253
6.47264
8.25245
9.98132
11.6492
13.2469
14.7658
16.1984
17.5381
18.7793
19.9176
20.9494
21.8722
22.6847
23.3865
23.9779
24.4604
24.8362
25.1081
25.2797
25.3552
25.3393
25.2368
25.0533
24.7942
24.4655
24.073
23.6227
23.1205
22.5723
21.9837
21.3605
20.7079
20.0311
19.3351
18.6245
17.9037
17.1766
16.4472
15.7187
14.9944
14.277
13.5692
12.8731
12.1908
11.5238
10.8737
10.2415
9.62831
9.03472
8.46127
7.90825
7.37579
6.86385
6.37223
5.90058
5.44843
5.01518
4.60015
4.20254
3.82145
3.45595
3.105
2.76751
2.44234
2.12832
1.82421
1.52875
1.24067
0.958646
0.681355
0.407454
0.135591
0.84908
2.54199
4.2192
5.87045
7.48582
9.0558
10.5714
12.0244
13.407
14.7125
15.935
17.0693
18.1113
19.0578
19.9064
20.6557
21.3052
21.8552
22.3067
22.6616
22.9223
23.0919
23.1741
23.1728
23.0924
22.9378
22.7139
22.4258
22.0789
21.6785
21.2299
20.7384
20.2091
19.6472
19.0576
18.4449
17.8137
17.1682
16.5124
15.85
15.1846
14.5193
13.857
13.2003
12.5517
11.9133
11.2869
10.674
10.0761
9.49419
8.92929
8.38205
7.85297
7.34239
6.85044
6.37712
5.92229
5.48565
5.06681
4.66524
4.28032
3.91135
3.55752
3.21798
2.89179
2.57797
2.27547
1.98321
1.70006
1.42489
1.15649
0.893673
0.635214
0.379877
0.126417
0.769618
2.30418
3.82475
5.32222
6.7877
8.21272
9.58926
10.9099
12.1677
13.3566
14.4712
15.5069
16.4599
17.3271
18.1064
18.7964
19.3965
19.9069
20.3283
20.6623
20.9109
21.0769
21.1633
21.1736
21.1119
20.9821
20.7889
20.5367
20.2303
19.8745
19.474
19.0336
18.558
18.0518
17.5195
16.9652
16.3932
15.8074
15.2113
14.6084
14.002
13.3949
12.79
12.1896
11.5959
11.011
10.4365
9.87401
9.32475
8.7898
8.27004
7.76615
7.27863
6.80781
6.35387
5.91683
5.49658
5.09289
4.70542
4.3337
3.97719
3.63526
3.30719
2.9922
2.68945
2.39803
2.117
1.84538
1.58213
1.32619
1.07649
0.831921
0.591356
0.353663
0.117696
0.697288
2.0877
3.46565
4.823
6.15185
7.44462
8.69415
9.89374
11.0373
12.1192
13.1347
14.0795
14.9501
15.7439
16.4586
17.0931
17.6466
18.1192
18.5116
18.8248
19.0608
19.2218
19.3105
19.3301
19.2838
19.1755
19.009
18.7884
18.518
18.202
17.8447
17.4504