/*--------------------------------*- C++ -*----------------------------------*\
  =========                 |
  \\      /  F ield         | OpenFOAM: The Open Source CFD Toolbox
   \\    /   O peration     | Website:  https://openfoam.org
    \\  /    A nd           | Version:  10
     \\/     M anipulation  |
\*---------------------------------------------------------------------------*/
FoamFile
{
    format      ascii;
    class       volScalarField;
    location    "237";
    object      gradTz;
}
// * * * * * * * * * * * * * * * * * * * * * * * * * * * * * * * * * * * * * //

dimensions      [0 -1 0 1 0 0 0];

internalField   nonuniform List<scalar> 
11250
(
-14357.5
-4152.8
-1532.18
-728.121
-422.781
-280.41
-202.182
-153.747
-121.067
-97.5704
-79.8451
-65.9748
-54.8185
-45.6628
-38.0429
-31.6433
-26.2409
-21.6716
-17.809
-14.5521
-11.8171
-9.53226
-7.63529
-6.07117
-4.79105
-3.75159
-2.91445
-2.24593
-1.71668
-1.30135
-0.978325
-0.729338
-0.539153
-0.3952
-0.287232
-0.206989
-0.147896
-0.104775
-0.0735938
-0.0512521
-0.0353889
-0.0242274
-0.0164449
-0.0110672
-0.00738472
-0.00488554
-0.0032046
-0.00208408
-0.00134378
-0.000859038
-0.000544445
-0.000342091
-0.00021309
-0.000131583
-8.05435e-05
-4.8869e-05
-2.93889e-05
-1.75166e-05
-1.03467e-05
-6.05622e-06
-3.51251e-06
-2.0184e-06
-1.14907e-06
-6.47995e-07
-3.61932e-07
-2.00221e-07
-1.09708e-07
-5.95304e-08
-3.19802e-08
-1.70164e-08
-8.97193e-09
-4.71646e-09
-2.48281e-09
-1.36983e-09
-9.25292e-10
-8276.53
-4873.71
-2779.38
-1685.12
-1104.91
-776.693
-576.441
-445.257
-353.872
-286.878
-235.694
-195.293
-162.596
-135.643
-113.137
-94.1883
-78.1623
-64.5879
-53.1003
-43.4055
-35.2583
-28.4485
-22.792
-18.1263
-14.3066
-11.2042
-8.70512
-6.70903
-5.12852
-3.88806
-2.92316
-2.17934
-1.61114
-1.18103
-0.858415
-0.61863
-0.442036
-0.313164
-0.219974
-0.153199
-0.105784
-0.0724223
-0.0491594
-0.0330846
-0.0220764
-0.0146055
-0.00958043
-0.00623065
-0.0040175
-0.0025683
-0.00162777
-0.0010228
-0.000637113
-0.000393423
-0.000240823
-0.000146119
-8.78748e-05
-5.23767e-05
-3.09383e-05
-1.81095e-05
-1.05035e-05
-6.03577e-06
-3.43613e-06
-1.93778e-06
-1.08245e-06
-5.98855e-07
-3.28097e-07
-1.78018e-07
-9.56596e-08
-5.0913e-08
-2.6828e-08
-1.40451e-08
-7.4155e-09
-4.14241e-09
-2.76819e-09
-5596.51
-4284.32
-3024.78
-2126.51
-1533.66
-1143.84
-880.7
-696.288
-561.856
-460.189
-380.801
-317.152
-265.054
-221.747
-185.358
-154.575
-128.447
-106.255
-87.4329
-71.5214
-58.1316
-46.9275
-37.6129
-29.9241
-23.6256
-18.5073
-14.3826
-11.087
-8.47661
-6.42736
-4.83296
-3.60364
-2.6644
-1.95331
-1.41986
-1.02333
-0.731267
-0.518108
-0.363955
-0.253487
-0.175044
-0.119844
-0.0813528
-0.0547532
-0.0365368
-0.0241732
-0.0158569
-0.0103129
-0.00664993
-0.00425129
-0.00269452
-0.00169313
-0.0010547
-0.000651307
-0.000398692
-0.000241914
-0.000145489
-8.67198e-05
-5.12262e-05
-2.99859e-05
-1.73924e-05
-9.9949e-06
-5.69031e-06
-3.20915e-06
-1.7927e-06
-9.91846e-07
-5.43442e-07
-2.94858e-07
-1.58442e-07
-8.43311e-08
-4.44557e-08
-2.32717e-08
-1.22801e-08
-6.84694e-09
-4.62426e-09
-4225.57
-3639.26
-2906.05
-2259.87
-1757.07
-1382.38
-1104.69
-896.21
-736.364
-610.911
-510.236
-427.87
-359.423
-301.876
-253.104
-211.575
-176.147
-145.937
-120.237
-98.4571
-80.0937
-64.7036
-51.8924
-41.3062
-32.6268
-25.5685
-19.8768
-15.3268
-11.7213
-8.88967
-6.68585
-4.98615
-3.68718
-2.70353
-1.96547
-1.41673
-1.0125
-0.717438
-0.504025
-0.351073
-0.24245
-0.166006
-0.112696
-0.0758531
-0.0506196
-0.0334924
-0.0219712
-0.0142902
-0.00921497
-0.00589137
-0.00373419
-0.00234652
-0.00146178
-0.000902727
-0.00055262
-0.000335328
-0.000201678
-0.000120217
-7.1017e-05
-4.1573e-05
-2.41144e-05
-1.38587e-05
-7.89053e-06
-4.45032e-06
-2.48619e-06
-1.37561e-06
-7.53775e-07
-4.09027e-07
-2.19788e-07
-1.1696e-07
-6.16652e-08
-3.23139e-08
-1.70745e-08
-9.50976e-09
-6.40131e-09
-3436.61
-3136.9
-2696.33
-2246.23
-1849.17
-1521.23
-1257.32
-1045.94
-875.491
-736.426
-621.458
-525.232
-443.865
-374.537
-315.177
-264.232
-220.502
-183.033
-151.036
-123.838
-100.85
-81.5462
-65.4512
-52.1338
-41.2029
-32.3054
-25.125
-19.381
-14.8268
-11.2483
-8.46203
-6.31229
-4.66884
-3.42397
-2.48965
-1.79486
-1.28292
-0.909173
-0.638801
-0.444999
-0.307346
-0.210461
-0.142887
-0.0961818
-0.0641906
-0.0424746
-0.0278654
-0.018125
-0.0116885
-0.00747323
-0.00473711
-0.0029769
-0.00185458
-0.00114537
-0.000701195
-0.000425507
-0.00025593
-0.000152566
-9.01321e-05
-5.27664e-05
-3.06093e-05
-1.75926e-05
-1.00173e-05
-5.65029e-06
-3.15685e-06
-1.74687e-06
-9.5731e-07
-5.19506e-07
-2.79172e-07
-1.48591e-07
-7.83457e-08
-4.10531e-08
-2.16856e-08
-1.20957e-08
-8.12676e-09
-2941.87
-2770.09
-2491.1
-2174.96
-1868.12
-1592.62
-1354.72
-1152.73
-981.983
-837.301
-714.057
-608.454
-517.504
-438.894
-370.831
-311.904
-260.974
-217.099
-179.469
-147.372
-120.167
-97.2698
-78.1427
-62.2919
-49.2646
-38.6491
-30.0743
-23.2094
-17.7627
-13.4805
-10.1445
-7.56947
-5.60014
-4.1079
-2.98758
-2.15424
-1.54007
-1.09158
-0.767072
-0.534426
-0.369155
-0.252815
-0.17166
-0.115561
-0.0771312
-0.0510417
-0.0334885
-0.0217841
-0.0140493
-0.00898325
-0.00569467
-0.00357889
-0.00222977
-0.00137717
-0.00084316
-0.00051169
-0.000307789
-0.000183493
-0.000108412
-6.34729e-05
-3.68232e-05
-2.11659e-05
-1.20531e-05
-6.79931e-06
-3.79921e-06
-2.10253e-06
-1.15234e-06
-6.25437e-07
-3.36148e-07
-1.78931e-07
-9.43644e-08
-4.94718e-08
-2.61255e-08
-1.45522e-08
-9.78855e-09
-2612.3
-2504.09
-2316.96
-2088.87
-1850.83
-1622.32
-1412.94
-1225.9
-1060.9
-916.083
-789.16
-677.887
-580.289
-494.705
-419.75
-354.264
-297.256
-247.86
-205.298
-168.858
-137.879
-111.739
-89.8578
-71.6934
-56.7431
-44.5457
-34.6829
-26.7797
-20.5045
-15.5676
-11.7193
-8.74742
-6.47352
-4.74981
-3.45526
-2.49201
-1.78189
-1.2632
-0.887826
-0.61865
-0.427394
-0.292737
-0.198791
-0.133841
-0.0893412
-0.0591275
-0.0387972
-0.0252397
-0.0162793
-0.0104099
-0.00659959
-0.00414791
-0.00258449
-0.00159637
-0.000977441
-0.000593228
-0.000356864
-0.000212768
-0.000125719
-7.36125e-05
-4.27097e-05
-2.4552e-05
-1.39828e-05
-7.88879e-06
-4.4085e-06
-2.44007e-06
-1.33753e-06
-7.2602e-07
-3.90244e-07
-2.0775e-07
-1.09605e-07
-5.75009e-08
-3.03623e-08
-1.69121e-08
-1.1379e-08
-2383.27
-2309.54
-2176.76
-2006.3
-1818.37
-1628.1
-1445.03
-1274.25
-1117.86
-976.216
-848.783
-734.646
-632.787
-542.21
-461.987
-391.263
-329.248
-275.198
-228.405
-188.187
-153.887
-124.869
-100.525
-80.28
-63.5912
-49.9576
-38.9211
-30.0689
-23.0344
-17.4961
-13.1763
-9.83843
-7.28326
-5.34549
-3.88961
-2.80594
-2.0068
-1.42293
-1.00027
-0.697124
-0.481682
-0.329969
-0.224104
-0.150902
-0.100742
-0.0666798
-0.0437573
-0.0284692
-0.018364
-0.0117441
-0.00744604
-0.00468031
-0.00291646
-0.00180157
-0.00110318
-0.000669597
-0.000402841
-0.000240202
-0.000141942
-8.31203e-05
-4.82312e-05
-2.77292e-05
-1.57942e-05
-8.9118e-06
-4.98086e-06
-2.75725e-06
-1.51161e-06
-8.20645e-07
-4.41169e-07
-2.34884e-07
-1.23961e-07
-6.50602e-08
-3.43752e-08
-1.91589e-08
-1.28685e-08
-2219.32
-2165.64
-2066.3
-1933.95
-1781.85
-1621.28
-1460.54
-1305.08
-1158.1
-1021.28
-895.297
-780.261
-675.955
-581.987
-497.874
-423.079
-357.032
-299.137
-248.78
-205.332
-168.157
-136.624
-110.112
-88.0216
-69.7829
-54.8629
-42.7711
-33.0627
-25.3411
-19.2571
-14.5087
-10.8374
-8.02551
-5.89208
-4.28854
-3.09452
-2.21371
-1.56998
-1.10386
-0.769457
-0.53175
-0.364324
-0.247473
-0.16666
-0.111275
-0.0736606
-0.0483436
-0.0314565
-0.0202929
-0.0129789
-0.00822972
-0.00517338
-0.00322399
-0.00199173
-0.00121973
-0.000740407
-0.000445483
-0.000265654
-0.000156999
-9.19472e-05
-5.33591e-05
-3.06811e-05
-1.74777e-05
-9.86304e-06
-5.51329e-06
-3.05242e-06
-1.6737e-06
-9.08801e-07
-4.88644e-07
-2.60218e-07
-1.37333e-07
-7.20663e-08
-3.81071e-08
-2.12674e-08
-1.42877e-08
-2099.44
-2058.08
-1980.07
-1873.3
-1746.71
-1608.67
-1466.03
-1323.94
-1185.99
-1054.55
-931.074
-816.403
-710.945
-614.816
-527.929
-450.048
-380.822
-319.81
-266.502
-220.335
-180.711
-147.013
-118.618
-94.9142
-75.3124
-59.2554
-46.2267
-35.7556
-27.4197
-20.8468
-15.7132
-11.7417
-8.69828
-6.38807
-4.65091
-3.3569
-2.402
-1.7039
-1.19827
-0.835422
-0.577438
-0.395691
-0.26882
-0.181062
-0.120907
-0.0800465
-0.0525408
-0.0341913
-0.0220595
-0.0141102
-0.00894792
-0.00562539
-0.00350601
-0.00216615
-0.00132667
-0.000805402
-0.000484636
-0.000289032
-0.000170833
-0.00010006
-5.80742e-05
-3.33963e-05
-1.9027e-05
-1.07389e-05
-6.00372e-06
-3.32444e-06
-1.82313e-06
-9.90129e-07
-5.32487e-07
-2.83594e-07
-1.49685e-07
-7.85872e-08
-4.15668e-08
-2.31828e-08
-1.56246e-08
-2010.49
-1977
-1913.01
-1823.7
-1715.32
-1594.15
-1465.8
-1334.87
-1204.99
-1078.81
-958.277
-844.701
-738.959
-641.57
-552.78
-472.615
-400.929
-337.431
-281.718
-233.298
-191.617
-156.08
-126.072
-100.977
-80.1912
-63.142
-49.2921
-38.1495
-29.2714
-22.2655
-16.7899
-12.5512
-9.30134
-6.8332
-4.97648
-3.59287
-2.57149
-1.82455
-1.28339
-0.894943
-0.618691
-0.424031
-0.288118
-0.194088
-0.129623
-0.0858279
-0.0563423
-0.0366693
-0.0236608
-0.0151361
-0.00959942
-0.00603557
-0.00376201
-0.00232454
-0.00142381
-0.000864461
-0.000520226
-0.000310289
-0.000183417
-0.000107443
-6.23665e-05
-3.58692e-05
-2.04385e-05
-1.15372e-05
-6.45099e-06
-3.57269e-06
-1.9596e-06
-1.06441e-06
-5.72533e-07
-3.04983e-07
-1.61034e-07
-8.45725e-08
-4.47005e-08
-2.49379e-08
-1.68385e-08
-1943.79
-1915.51
-1860.96
-1783.76
-1688.43
-1579.83
-1462.56
-1340.7
-1217.7
-1096.33
-978.762
-866.636
-761.15
-663.13
-573.089
-491.275
-417.72
-352.271
-294.625
-244.363
-200.977
-163.899
-132.527
-106.246
-84.4458
-66.5411
-51.9799
-40.2537
-30.9023
-23.5174
-17.7416
-13.2679
-9.83599
-7.22834
-5.26583
-3.80281
-2.72244
-1.9321
-1.35933
-0.948085
-0.655549
-0.449368
-0.305382
-0.205748
-0.137429
-0.0910082
-0.0597503
-0.0388917
-0.0250976
-0.0160568
-0.0101844
-0.00640401
-0.00399205
-0.00246692
-0.00151116
-0.000917586
-0.000552251
-0.000329424
-0.000194749
-0.000114094
-6.6235e-05
-3.80988e-05
-2.17119e-05
-1.22576e-05
-6.85487e-06
-3.79698e-06
-2.08294e-06
-1.13159e-06
-6.08777e-07
-3.24361e-07
-1.71313e-07
-8.99739e-08
-4.75894e-08
-2.65547e-08
-1.78988e-08
-1893.43
-1868.68
-1820.63
-1751.92
-1666.01
-1566.74
-1457.98
-1343.34
-1226.05
-1108.86
-994.066
-883.494
-778.567
-680.333
-589.513
-506.538
-431.586
-364.627
-305.449
-253.699
-208.918
-170.565
-138.053
-110.774
-88.1139
-69.4804
-54.3104
-42.0824
-32.3229
-24.6099
-18.5737
-13.8955
-10.3049
-7.57533
-5.52023
-3.98761
-2.85544
-2.02695
-1.42636
-0.995036
-0.688137
-0.471786
-0.320668
-0.216077
-0.144349
-0.0956026
-0.0627742
-0.0408647
-0.0263736
-0.016875
-0.0107044
-0.00673162
-0.00419667
-0.00259361
-0.00158892
-0.000964892
-0.000580779
-0.000346476
-0.000204851
-0.000120026
-6.96864e-05
-4.00889e-05
-2.28489e-05
-1.29013e-05
-7.21588e-06
-3.99753e-06
-2.19333e-06
-1.19176e-06
-6.41254e-07
-3.41752e-07
-1.80542e-07
-9.48276e-08
-5.01578e-08
-2.79805e-08
-1.8879e-08
-1855.23
-1832.92
-1789.41
-1726.73
-1647.64
-1555.31
-1453.04
-1344.08
-1231.42
-1117.76
-1005.42
-896.355
-792.124
-693.937
-602.67
-518.896
-442.918
-374.805
-314.426
-261.491
-215.58
-176.184
-142.732
-114.621
-91.2412
-71.994
-56.3087
-43.6543
-33.5466
-25.553
-19.2932
-14.4392
-10.7116
-7.8768
-5.74155
-4.14856
-2.97141
-2.10974
-1.48493
-1.03609
-0.716653
-0.491417
-0.334062
-0.225135
-0.15042
-0.0996357
-0.0654301
-0.0425983
-0.0274954
-0.0175945
-0.0111619
-0.00701999
-0.00437685
-0.00270521
-0.00165744
-0.00100659
-0.000605936
-0.000361519
-0.000213766
-0.000125262
-7.27346e-05
-4.18473e-05
-2.3854e-05
-1.34706e-05
-7.53529e-06
-4.1751e-06
-2.29113e-06
-1.24511e-06
-6.70068e-07
-3.57181e-07
-1.8872e-07
-9.91368e-08
-5.24288e-08
-2.92416e-08
-1.97846e-08
-1826.18
-1805.59
-1765.28
-1706.93
-1632.82
-1545.64
-1448.3
-1343.73
-1234.77
-1124.02
-1013.8
-906.102
-802.599
-704.606
-613.115
-528.809
-452.088
-383.104
-321.796
-267.925
-221.11
-180.87
-146.649
-117.855
-93.8787
-74.1203
-58.0038
-44.991
-34.5896
-26.3584
-19.9089
-14.9051
-11.0608
-8.13597
-5.93205
-4.28728
-3.07147
-2.18125
-1.53556
-1.07161
-0.741349
-0.508432
-0.345679
-0.232996
-0.155692
-0.10314
-0.0677391
-0.0441063
-0.0284716
-0.0182209
-0.0115604
-0.00727126
-0.00453391
-0.00280252
-0.00171721
-0.00104298
-0.000627897
-0.000374655
-0.000221554
-0.000129839
-7.53997e-05
-4.33853e-05
-2.47335e-05
-1.39689e-05
-7.81509e-06
-4.33073e-06
-2.37687e-06
-1.2919e-06
-6.95373e-07
-3.70715e-07
-1.95863e-07
-1.02891e-07
-5.44539e-08
-3.04106e-08
-2.05606e-08
-1804.08
-1784.7
-1746.69
-1691.46
-1620.98
-1537.62
-1444.01
-1342.85
-1236.8
-1128.4
-1019.94
-913.445
-810.638
-712.911
-621.34
-536.69
-459.44
-389.807
-327.787
-273.184
-225.654
-184.737
-149.896
-120.545
-96.0798
-75.9001
-59.4266
-46.1157
-35.4692
-27.039
-20.4302
-15.3003
-11.3575
-8.35644
-6.09434
-4.4056
-3.15691
-2.24238
-1.57888
-1.10203
-0.762519
-0.523028
-0.355652
-0.239749
-0.160224
-0.106155
-0.0697264
-0.0454049
-0.0293126
-0.0187609
-0.011904
-0.007488
-0.00466944
-0.00288653
-0.00176883
-0.00107442
-0.000646874
-0.000386011
-0.000228289
-0.000133797
-7.7706e-05
-4.47168e-05
-2.54953e-05
-1.44007e-05
-8.05759e-06
-4.46568e-06
-2.45126e-06
-1.33252e-06
-7.17334e-07
-3.82481e-07
-2.02135e-07
-1.0621e-07
-5.61859e-08
-3.1382e-08
-2.12619e-08
-1787.27
-1768.76
-1732.4
-1679.43
-1611.61
-1531.09
-1440.29
-1341.73
-1237.97
-1131.44
-1024.42
-918.948
-816.768
-719.33
-627.766
-542.905
-465.283
-395.171
-332.61
-277.442
-229.35
-187.897
-152.559
-122.759
-97.8978
-77.3745
-60.6083
-47.0523
-36.2032
-27.6082
-20.8669
-15.632
-11.6069
-8.54207
-6.23117
-4.50548
-3.22913
-2.2941
-1.61558
-1.12783
-0.780482
-0.535424
-0.364128
-0.245493
-0.164081
-0.108722
-0.0714195
-0.0465118
-0.0300299
-0.0192216
-0.0121973
-0.00767309
-0.00478522
-0.00295832
-0.00181295
-0.0011013
-0.000663108
-0.000395728
-0.000234054
-0.000137187
-7.96814e-05
-4.58576e-05
-2.61482e-05
-1.4771e-05
-8.26564e-06
-4.58149e-06
-2.51513e-06
-1.3674e-06
-7.36203e-07
-3.92604e-07
-2.0751e-07
-1.09058e-07
-5.77105e-08
-3.22326e-08
-2.1847e-08
-1774.5
-1756.62
-1721.45
-1670.13
-1604.26
-1525.85
-1437.16
-1340.59
-1238.58
-1133.53
-1027.68
-923.049
-821.416
-724.258
-632.75
-547.766
-469.887
-399.426
-336.458
-280.857
-232.329
-190.454
-154.722
-124.564
-99.3843
-78.5835
-61.58
-47.8242
-36.8096
-28.0794
-21.2292
-15.9076
-11.8144
-8.69678
-6.34536
-4.58894
-3.28955
-2.33742
-1.64634
-1.14947
-0.79557
-0.545844
-0.371259
-0.250328
-0.16733
-0.110886
-0.0728477
-0.0474459
-0.0306355
-0.0196107
-0.0124451
-0.00782957
-0.00488313
-0.00301906
-0.00185029
-0.00112406
-0.000676854
-0.000403959
-0.000238939
-0.00014006
-8.13562e-05
-4.68252e-05
-2.67021e-05
-1.50852e-05
-8.44227e-06
-4.67984e-06
-2.56938e-06
-1.39707e-06
-7.52288e-07
-4.01227e-07
-2.12067e-07
-1.11467e-07
-5.90343e-08
-3.29812e-08
-2.22992e-08
-1764.83
-1747.4
-1713.09
-1662.97
-1598.54
-1521.69
-1434.58
-1339.51
-1238.86
-1134.96
-1030.03
-926.092
-824.919
-728.016
-636.588
-551.539
-473.486
-402.772
-339.501
-283.57
-234.706
-192.503
-156.462
-126.021
-100.588
-79.5651
-62.3709
-48.454
-37.3055
-28.4655
-21.5266
-16.1343
-11.9853
-8.82441
-6.4397
-4.65799
-3.33959
-2.37333
-1.67188
-1.16746
-0.808117
-0.554517
-0.377199
-0.254359
-0.17004
-0.112692
-0.0740403
-0.0482265
-0.0311418
-0.0199362
-0.0126525
-0.00796053
-0.00496512
-0.00306992
-0.00188157
-0.00114313
-0.000688377
-0.00041086
-0.000243035
-0.00014247
-8.27615e-05
-4.76372e-05
-2.71671e-05
-1.53491e-05
-8.59064e-06
-4.76248e-06
-2.61498e-06
-1.42202e-06
-7.65802e-07
-4.0846e-07
-2.15929e-07
-1.13521e-07
-6.01319e-08
-3.36112e-08
-2.27053e-08
-1757.52
-1740.42
-1706.74
-1657.49
-1594.12
-1518.43
-1432.49
-1338.56
-1238.94
-1135.93
-1031.73
-928.337
-827.544
-730.864
-639.522
-554.446
-476.276
-405.381
-341.886
-285.707
-236.586
-194.13
-157.848
-127.185
-101.553
-80.3543
-63.0085
-48.9629
-37.707
-28.7787
-21.7683
-16.3188
-12.1247
-8.92866
-6.51687
-4.71454
-3.38062
-2.40282
-1.69287
-1.18225
-0.818448
-0.561664
-0.382097
-0.257685
-0.172279
-0.114184
-0.0750264
-0.0488721
-0.0315608
-0.0202057
-0.0128243
-0.00806905
-0.00503307
-0.0031121
-0.00190752
-0.00115895
-0.000697938
-0.000416587
-0.000246436
-0.000144471
-8.39285e-05
-4.83118e-05
-2.75534e-05
-1.55684e-05
-8.71396e-06
-4.83119e-06
-2.65292e-06
-1.44273e-06
-7.77019e-07
-4.14494e-07
-2.19161e-07
-1.15243e-07
-6.10242e-08
-3.41172e-08
-2.30456e-08
-1752.02
-1735.16
-1701.94
-1653.33
-1590.73
-1515.89
-1430.83
-1337.74
-1238.91
-1136.58
-1032.94
-929.986
-829.501
-733.01
-641.751
-556.669
-478.423
-407.399
-343.74
-287.375
-238.059
-195.41
-158.943
-128.108
-102.319
-80.9828
-63.5174
-49.3701
-38.029
-29.0304
-21.9629
-16.4676
-12.2373
-9.01298
-6.57936
-4.76039
-3.41394
-2.42679
-1.70994
-1.1943
-0.82687
-0.567495
-0.386097
-0.260403
-0.174109
-0.115405
-0.0758337
-0.049401
-0.0319042
-0.0204266
-0.0129652
-0.00815808
-0.00508884
-0.00314672
-0.00192882
-0.00117194
-0.000705792
-0.000421292
-0.00024923
-0.000146116
-8.48877e-05
-4.88662e-05
-2.78711e-05
-1.57486e-05
-8.81537e-06
-4.88771e-06
-2.68411e-06
-1.4598e-06
-7.86273e-07
-4.19467e-07
-2.21818e-07
-1.16613e-07
-6.17706e-08
-3.45486e-08
-2.33397e-08
-1747.9
-1731.21
-1698.32
-1650.18
-1588.14
-1513.93
-1429.52
-1337.07
-1238.82
-1137.02
-1033.81
-931.191
-830.951
-734.616
-643.432
-558.357
-480.063
-408.948
-345.169
-288.666
-239.205
-196.408
-159.799
-128.831
-102.922
-81.4786
-63.9198
-49.6928
-38.2846
-29.2307
-22.118
-16.5864
-12.3274
-9.0805
-6.62948
-4.79722
-3.44072
-2.44608
-1.7237
-1.20402
-0.833668
-0.572206
-0.389331
-0.262603
-0.175591
-0.116394
-0.0764881
-0.04983
-0.0321828
-0.0206059
-0.0130796
-0.0082304
-0.00513415
-0.00317485
-0.00194614
-0.0011825
-0.000712177
-0.000425118
-0.000251502
-0.000147453
-8.56678e-05
-4.93172e-05
-2.81295e-05
-1.58953e-05
-8.89786e-06
-4.93367e-06
-2.70947e-06
-1.47368e-06
-7.93813e-07
-4.23529e-07
-2.23967e-07
-1.1777e-07
-6.23963e-08
-3.48768e-08
-2.35746e-08
-1744.83
-1728.26
-1695.61
-1647.81
-1586.19
-1512.43
-1428.5
-1336.52
-1238.72
-1137.3
-1034.42
-932.068
-832.02
-735.81
-644.691
-559.63
-481.305
-410.128
-346.262
-289.658
-240.087
-197.18
-160.463
-129.394
-103.392
-81.866
-64.2351
-49.9461
-38.4857
-29.3885
-22.2404
-16.6804
-12.3987
-9.13406
-6.66928
-4.8265
-3.46205
-2.46145
-1.73468
-1.21178
-0.839103
-0.575975
-0.39192
-0.264365
-0.176779
-0.117188
-0.0770134
-0.0501745
-0.0324066
-0.0207501
-0.0131715
-0.00828857
-0.0051706
-0.00319749
-0.00196007
-0.001191
-0.000717317
-0.000428198
-0.000253331
-0.00014853
-8.62958e-05
-4.96802e-05
-2.83374e-05
-1.60134e-05
-8.96427e-06
-4.97066e-06
-2.72992e-06
-1.48488e-06
-7.99868e-07
-4.26755e-07
-2.2569e-07
-1.18716e-07
-6.28957e-08
-3.5171e-08
-2.37426e-08
-1742.54
-1726.07
-1693.59
-1646.03
-1584.71
-1511.3
-1427.72
-1336.09
-1238.61
-1137.49
-1034.86
-932.702
-832.804
-736.693
-645.629
-560.582
-482.24
-411.019
-347.091
-290.412
-240.761
-197.771
-160.973
-129.827
-103.755
-82.166
-64.4797
-50.143
-38.6424
-29.5117
-22.3361
-16.7539
-12.4546
-9.17613
-6.70059
-4.84956
-3.47886
-2.47359
-1.74335
-1.21792
-0.843405
-0.578962
-0.393973
-0.265764
-0.177722
-0.117819
-0.077431
-0.0504484
-0.0325847
-0.0208648
-0.0132448
-0.00833489
-0.00519963
-0.00321553
-0.00197118
-0.00119778
-0.000721413
-0.000430652
-0.000254788
-0.000149388
-8.67961e-05
-4.99694e-05
-2.85031e-05
-1.61074e-05
-9.01712e-06
-5.00016e-06
-2.74622e-06
-1.49376e-06
-8.04658e-07
-4.29346e-07
-2.27086e-07
-1.19435e-07
-6.32831e-08
-3.53839e-08
-2.39006e-08
-1740.86
-1724.45
-1692.1
-1644.72
-1583.62
-1510.45
-1427.12
-1335.75
-1238.51
-1137.61
-1035.16
-933.159
-833.375
-737.342
-646.322
-561.29
-482.937
-411.687
-347.715
-290.982
-241.271
-198.22
-161.361
-130.158
-104.033
-82.3962
-64.6678
-50.2948
-38.7634
-29.6069
-22.4103
-16.811
-12.4981
-9.20887
-6.72499
-4.86755
-3.492
-2.48308
-1.75014
-1.22273
-0.846779
-0.581305
-0.395586
-0.266862
-0.178464
-0.118315
-0.0777597
-0.0506642
-0.0327251
-0.0209552
-0.0133025
-0.00837142
-0.00522253
-0.00322976
-0.00197994
-0.00120312
-0.000724643
-0.000432588
-0.000255938
-0.000150064
-8.71905e-05
-5.01974e-05
-2.86336e-05
-1.61815e-05
-9.0588e-06
-5.02338e-06
-2.75903e-06
-1.50078e-06
-8.08475e-07
-4.31377e-07
-2.28152e-07
-1.19992e-07
-6.3563e-08
-3.55639e-08
-2.40631e-08
-1739.62
-1723.26
-1691
-1643.75
-1582.8
-1509.81
-1426.67
-1335.49
-1238.42
-1137.68
-1035.38
-933.486
-833.788
-737.816
-646.831
-561.812
-483.454
-412.184
-348.18
-291.409
-241.654
-198.558
-161.655
-130.409
-104.244
-82.5713
-64.8112
-50.4107
-38.8559
-29.6799
-22.4672
-16.8549
-12.5316
-9.2341
-6.74382
-4.88145
-3.50215
-2.49043
-1.7554
-1.22646
-0.849399
-0.583127
-0.39684
-0.267718
-0.179042
-0.118701
-0.078016
-0.0508325
-0.0328346
-0.0210258
-0.0133476
-0.00839994
-0.00524042
-0.00324087
-0.00198678
-0.00120729
-0.000727166
-0.000434099
-0.000256835
-0.000150592
-8.74983e-05
-5.03752e-05
-2.87354e-05
-1.62392e-05
-9.09126e-06
-5.04144e-06
-2.76899e-06
-1.50623e-06
-8.11429e-07
-4.32957e-07
-2.28971e-07
-1.20435e-07
-6.38319e-08
-3.57242e-08
-2.4152e-08
-1738.72
-1722.39
-1690.2
-1643.04
-1582.2
-1509.34
-1426.34
-1335.28
-1238.35
-1137.73
-1035.52
-933.719
-834.086
-738.16
-647.203
-562.195
-483.835
-412.551
-348.525
-291.726
-241.94
-198.811
-161.875
-130.597
-104.403
-82.7032
-64.9194
-50.4984
-38.9261
-29.7354
-22.5105
-16.8883
-12.5571
-9.25337
-6.75821
-4.8921
-3.50994
-2.49607
-1.75944
-1.22933
-0.851414
-0.584529
-0.397806
-0.268377
-0.179488
-0.119
-0.0782139
-0.0509626
-0.0329192
-0.0210804
-0.0133824
-0.008422
-0.00525425
-0.00324946
-0.00199207
-0.00121052
-0.000729117
-0.000435268
-0.000257529
-0.000151
-8.7736e-05
-5.05124e-05
-2.8814e-05
-1.62838e-05
-9.11627e-06
-5.05538e-06
-2.77667e-06
-1.51041e-06
-8.13704e-07
-4.34203e-07
-2.2963e-07
-1.20774e-07
-6.40163e-08
-3.5812e-08
-2.42222e-08
-1738.07
-1721.76
-1689.61
-1642.52
-1581.77
-1508.99
-1426.09
-1335.13
-1238.29
-1137.76
-1035.63
-933.884
-834.3
-738.407
-647.472
-562.474
-484.113
-412.819
-348.779
-291.96
-242.151
-198.998
-162.038
-130.737
-104.521
-82.8018
-65.0005
-50.5642
-38.9788
-29.7771
-22.5431
-16.9136
-12.5763
-9.26795
-6.76912
-4.90017
-3.51585
-2.50035
-1.76252
-1.23151
-0.85295
-0.585599
-0.398544
-0.268881
-0.179829
-0.119228
-0.0783653
-0.051062
-0.032984
-0.0211221
-0.0134091
-0.00843889
-0.00526484
-0.00325604
-0.00199612
-0.00121299
-0.00073061
-0.000436162
-0.000258059
-0.000151311
-8.79176e-05
-5.06173e-05
-2.8874e-05
-1.63178e-05
-9.13536e-06
-5.06601e-06
-2.78253e-06
-1.51361e-06
-8.15435e-07
-4.35124e-07
-2.30134e-07
-1.21035e-07
-6.41228e-08
-3.58701e-08
-2.43078e-08
-1737.6
-1721.31
-1689.19
-1642.14
-1581.45
-1508.74
-1425.91
-1335.02
-1238.25
-1137.77
-1035.7
-934
-834.451
-738.585
-647.665
-562.675
-484.314
-413.015
-348.963
-292.131
-242.306
-199.135
-162.158
-130.84
-104.608
-82.8748
-65.0606
-50.613
-39.018
-29.8081
-22.5675
-16.9324
-12.5908
-9.27887
-6.7773
-4.90623
-3.5203
-2.50358
-1.76484
-1.23316
-0.854109
-0.586407
-0.399101
-0.269262
-0.180086
-0.119401
-0.07848
-0.0511374
-0.0330331
-0.0211538
-0.0134294
-0.0084517
-0.00527287
-0.00326103
-0.00199919
-0.00121486
-0.000731741
-0.000436839
-0.000258461
-0.000151548
-8.80551e-05
-5.06966e-05
-2.89193e-05
-1.63434e-05
-9.14981e-06
-5.07403e-06
-2.78692e-06
-1.516e-06
-8.16728e-07
-4.35835e-07
-2.30536e-07
-1.21238e-07
-6.42227e-08
-3.59404e-08
-2.43155e-08
-1737.26
-1720.98
-1688.89
-1641.87
-1581.22
-1508.56
-1425.77
-1334.94
-1238.21
-1137.78
-1035.75
-934.082
-834.559
-738.711
-647.804
-562.819
-484.459
-413.156
-349.097
-292.254
-242.418
-199.236
-162.246
-130.916
-104.673
-82.9285
-65.1048
-50.649
-39.0469
-29.8311
-22.5855
-16.9464
-12.6015
-9.28699
-6.78339
-4.91074
-3.52361
-2.50598
-1.76656
-1.23439
-0.854976
-0.587011
-0.399519
-0.269547
-0.18028
-0.11953
-0.0785661
-0.0511941
-0.03307
-0.0211776
-0.0134446
-0.00846132
-0.00527891
-0.00326478
-0.00200149
-0.00121627
-0.00073259
-0.000437347
-0.000258762
-0.000151724
-8.8158e-05
-5.07559e-05
-2.89532e-05
-1.63626e-05
-9.16057e-06
-5.08001e-06
-2.79021e-06
-1.51779e-06
-8.17705e-07
-4.3636e-07
-2.30799e-07
-1.21365e-07
-6.43149e-08
-3.59898e-08
-2.43364e-08
-1737.02
-1720.75
-1688.67
-1641.68
-1581.06
-1508.43
-1425.68
-1334.88
-1238.19
-1137.79
-1035.78
-934.138
-834.634
-738.8
-647.902
-562.922
-484.562
-413.257
-349.193
-292.344
-242.499
-199.308
-162.309
-130.971
-104.719
-82.9675
-65.1371
-50.6753
-39.0681
-29.8479
-22.5987
-16.9566
-12.6094
-9.29296
-6.78787
-4.91407
-3.52606
-2.50776
-1.76784
-1.2353
-0.855619
-0.58746
-0.399829
-0.269759
-0.180423
-0.119627
-0.0786301
-0.0512362
-0.0330974
-0.0211953
-0.0134559
-0.00846848
-0.0052834
-0.00326757
-0.00200321
-0.00121731
-0.000733221
-0.000437724
-0.000258985
-0.000151856
-8.82343e-05
-5.07999e-05
-2.89782e-05
-1.63768e-05
-9.16852e-06
-5.08442e-06
-2.79265e-06
-1.51914e-06
-8.18393e-07
-4.36702e-07
-2.30989e-07
-1.21488e-07
-6.43829e-08
-3.60194e-08
-2.43583e-08
-1736.85
-1720.59
-1688.52
-1641.54
-1580.94
-1508.33
-1425.61
-1334.83
-1238.17
-1137.79
-1035.8
-934.178
-834.687
-738.863
-647.971
-562.995
-484.636
-413.329
-349.262
-292.407
-242.557
-199.36
-162.355
-131.01
-104.753
-82.9956
-65.1604
-50.6943
-39.0834
-29.8601
-22.6083
-16.9641
-12.6151
-9.29732
-6.79114
-4.91651
-3.52785
-2.50907
-1.76878
-1.23597
-0.85609
-0.587789
-0.400057
-0.269915
-0.180529
-0.119698
-0.0786772
-0.0512672
-0.0331176
-0.0212083
-0.0134642
-0.00847376
-0.0052867
-0.00326962
-0.00200447
-0.00121808
-0.000733686
-0.000438002
-0.00025915
-0.000151952
-8.82903e-05
-5.08321e-05
-2.89966e-05
-1.63872e-05
-9.17433e-06
-5.08765e-06
-2.79441e-06
-1.52009e-06
-8.18916e-07
-4.36986e-07
-2.31143e-07
-1.21591e-07
-6.44225e-08
-3.59997e-08
-2.43693e-08
-1736.73
-1720.47
-1688.41
-1641.45
-1580.86
-1508.27
-1425.56
-1334.8
-1238.15
-1137.79
-1035.82
-934.205
-834.723
-738.907
-648.02
-563.046
-484.687
-413.379
-349.31
-292.452
-242.599
-199.397
-162.387
-131.038
-104.777
-83.0158
-65.1771
-50.708
-39.0944
-29.8689
-22.6152
-16.9695
-12.6192
-9.30047
-6.79351
-4.91827
-3.52914
-2.51001
-1.76946
-1.23645
-0.856433
-0.588029
-0.400222
-0.270029
-0.180606
-0.119749
-0.0787116
-0.0512898
-0.0331323
-0.0212179
-0.0134703
-0.00847761
-0.00528912
-0.00327112
-0.00200539
-0.00121865
-0.000734024
-0.000438204
-0.000259269
-0.000152022
-8.8331e-05
-5.08555e-05
-2.901e-05
-1.63948e-05
-9.17853e-06
-5.08997e-06
-2.79567e-06
-1.52076e-06
-8.19298e-07
-4.37204e-07
-2.31252e-07
-1.2164e-07
-6.44532e-08
-3.6037e-08
-2.43495e-08
-1736.65
-1720.39
-1688.34
-1641.38
-1580.8
-1508.22
-1425.53
-1334.78
-1238.14
-1137.79
-1035.83
-934.223
-834.748
-738.937
-648.053
-563.081
-484.724
-413.415
-349.344
-292.484
-242.628
-199.423
-162.41
-131.058
-104.794
-83.0301
-65.1889
-50.7177
-39.1023
-29.8752
-22.6202
-16.9733
-12.6222
-9.30273
-6.79521
-4.91954
-3.53007
-2.51069
-1.76995
-1.2368
-0.85668
-0.588201
-0.400342
-0.270111
-0.180662
-0.119787
-0.0787364
-0.0513062
-0.033143
-0.0212248
-0.0134747
-0.0084804
-0.00529087
-0.0032722
-0.00200606
-0.00121905
-0.000734268
-0.00043835
-0.000259355
-0.000152073
-8.83603e-05
-5.08724e-05
-2.90196e-05
-1.64001e-05
-9.18153e-06
-5.09164e-06
-2.7966e-06
-1.52127e-06
-8.19562e-07
-4.37342e-07
-2.31335e-07
-1.21683e-07
-6.44664e-08
-3.60545e-08
-2.43594e-08
-1736.59
-1720.34
-1688.29
-1641.33
-1580.76
-1508.19
-1425.5
-1334.76
-1238.13
-1137.79
-1035.83
-934.236
-834.766
-738.958
-648.076
-563.106
-484.749
-413.439
-349.367
-292.506
-242.648
-199.441
-162.426
-131.072
-104.806
-83.0401
-65.1973
-50.7245
-39.1078
-29.8796
-22.6236
-16.9761
-12.6243
-9.30433
-6.79642
-4.92044
-3.53074
-2.51117
-1.7703
-1.23705
-0.856857
-0.588325
-0.400428
-0.27017
-0.180701
-0.119814
-0.0787542
-0.0513179
-0.0331507
-0.0212297
-0.0134779
-0.00848239
-0.00529212
-0.00327298
-0.00200654
-0.00121934
-0.000734443
-0.000438454
-0.000259417
-0.000152109
-8.83812e-05
-5.08844e-05
-2.90264e-05
-1.6404e-05
-9.18366e-06
-5.09281e-06
-2.79725e-06
-1.52163e-06
-8.19749e-07
-4.37412e-07
-2.31363e-07
-1.21732e-07
-6.45103e-08
-3.60655e-08
-2.43594e-08
-1736.55
-1720.3
-1688.25
-1641.3
-1580.73
-1508.17
-1425.48
-1334.75
-1238.13
-1137.79
-1035.84
-934.244
-834.777
-738.972
-648.092
-563.123
-484.766
-413.456
-349.384
-292.521
-242.662
-199.453
-162.437
-131.082
-104.814
-83.0471
-65.2031
-50.7293
-39.1117
-29.8827
-22.6261
-16.978
-12.6258
-9.30545
-6.79727
-4.92107
-3.53121
-2.51152
-1.77055
-1.23723
-0.856982
-0.588412
-0.400488
-0.270211
-0.18073
-0.119833
-0.0787669
-0.0513262
-0.0331561
-0.0212332
-0.0134801
-0.00848381
-0.005293
-0.00327353
-0.00200687
-0.00121955
-0.000734566
-0.000438528
-0.000259461
-0.000152134
-8.83959e-05
-5.08928e-05
-2.90312e-05
-1.64067e-05
-9.18519e-06
-5.09361e-06
-2.7977e-06
-1.52189e-06
-8.19887e-07
-4.37498e-07
-2.31403e-07
-1.21732e-07
-6.45223e-08
-3.60611e-08
-2.43627e-08
-1736.52
-1720.27
-1688.23
-1641.28
-1580.72
-1508.15
-1425.47
-1334.74
-1238.13
-1137.79
-1035.84
-934.25
-834.785
-738.981
-648.103
-563.134
-484.777
-413.468
-349.395
-292.532
-242.671
-199.462
-162.445
-131.088
-104.82
-83.052
-65.2072
-50.7327
-39.1144
-29.8849
-22.6278
-16.9793
-12.6268
-9.30624
-6.79786
-4.92151
-3.53153
-2.51175
-1.77072
-1.23735
-0.857069
-0.588474
-0.400531
-0.27024
-0.18075
-0.119846
-0.0787757
-0.0513321
-0.0331599
-0.0212357
-0.0134817
-0.0084848
-0.00529363
-0.00327392
-0.00200711
-0.00121969
-0.000734653
-0.000438579
-0.000259491
-0.000152152
-8.84062e-05
-5.08987e-05
-2.90345e-05
-1.64086e-05
-9.18623e-06
-5.0942e-06
-2.798e-06
-1.52204e-06
-8.19982e-07
-4.37571e-07
-2.31437e-07
-1.21744e-07
-6.45344e-08
-3.60611e-08
-2.43572e-08
-1736.51
-1720.26
-1688.21
-1641.27
-1580.7
-1508.14
-1425.47
-1334.74
-1238.12
-1137.79
-1035.84
-934.253
-834.791
-738.988
-648.11
-563.142
-484.785
-413.476
-349.402
-292.539
-242.678
-199.468
-162.45
-131.093
-104.824
-83.0553
-65.2099
-50.7349
-39.1162
-29.8864
-22.629
-16.9802
-12.6275
-9.30678
-6.79827
-4.92182
-3.53176
-2.51192
-1.77084
-1.23744
-0.85713
-0.588516
-0.40056
-0.270261
-0.180763
-0.119855
-0.0787819
-0.0513361
-0.0331626
-0.0212374
-0.0134828
-0.0084855
-0.00529406
-0.00327419
-0.00200728
-0.00121979
-0.000734713
-0.000438615
-0.000259512
-0.000152164