/*--------------------------------*- C++ -*----------------------------------*\
  =========                 |
  \\      /  F ield         | OpenFOAM: The Open Source CFD Toolbox
   \\    /   O peration     | Website:  https://openfoam.org
    \\  /    A nd           | Version:  10
     \\/     M anipulation  |
\*---------------------------------------------------------------------------*/
FoamFile
{
    format      ascii;
    class       volScalarField;
    location    "316";
    object      T;
}
// * * * * * * * * * * * * * * * * * * * * * * * * * * * * * * * * * * * * * //

dimensions      [0 0 0 1 0 0 0];

internalField   nonuniform List<scalar> 
11250
(
249.832
167.525
139.308
126.875
120.084
115.772
112.755
110.504
108.75
107.343
106.189
105.227
104.418
103.733
103.149
102.65
102.225
101.861
101.551
101.288
101.064
100.876
100.717
100.584
100.474
100.382
100.306
100.244
100.194
100.153
100.12
100.093
100.072
100.056
100.043
100.033
100.025
100.019
100.014
100.01
100.008
100.006
100.004
100.003
100.002
100.002
100.001
100.001
100.001
100
100
100
100
100
100
100
100
100
100
100
100
100
100
100
100
100
100
100
100
100
100
100
100
100
100
331.468
248.493
202.154
174.996
157.791
146.046
137.524
131.042
125.937
121.808
118.406
115.564
113.166
111.13
109.393
107.91
106.641
105.558
104.633
103.847
103.18
102.617
102.143
101.746
101.416
101.142
100.916
100.731
100.58
100.457
100.358
100.28
100.217
100.167
100.128
100.097
100.074
100.055
100.041
100.031
100.023
100.017
100.012
100.009
100.006
100.005
100.003
100.002
100.002
100.001
100.001
100.001
100
100
100
100
100
100
100
100
100
100
100
100
100
100
100
100
100
100
100
100
100
100
100
359.021
292.847
245.854
213.214
190.097
173.168
160.332
150.293
142.239
135.646
130.166
125.559
121.655
118.328
115.483
113.048
110.963
109.179
107.656
106.359
105.259
104.329
103.546
102.89
102.343
101.89
101.516
101.21
100.96
100.757
100.594
100.463
100.359
100.277
100.212
100.161
100.122
100.092
100.069
100.051
100.038
100.028
100.02
100.015
100.011
100.008
100.005
100.004
100.003
100.002
100.001
100.001
100.001
100
100
100
100
100
100
100
100
100
100
100
100
100
100
100
100
100
100
100
100
100
100
370.803
318.054
275.258
241.986
216.314
196.314
180.474
167.703
157.234
148.533
141.22
135.021
129.735
125.21
121.327
117.993
115.132
112.679
110.583
108.795
107.277
105.992
104.91
104.004
103.247
102.62
102.102
101.677
101.331
101.05
100.824
100.642
100.498
100.384
100.294
100.224
100.17
100.128
100.095
100.071
100.052
100.038
100.028
100.02
100.015
100.01
100.007
100.005
100.004
100.003
100.002
100.001
100.001
100.001
100
100
100
100
100
100
100
100
100
100
100
100
100
100
100
100
100
100
100
100
100
376.958
333.356
295.217
263.269
236.996
215.463
197.732
183.011
170.678
160.258
151.392
143.806
137.291
131.682
126.848
122.682
119.098
116.018
113.381
111.129
109.213
107.591
106.223
105.076
104.119
103.324
102.668
102.129
101.69
101.334
101.046
100.816
100.633
100.488
100.374
100.285
100.216
100.162
100.121
100.09
100.067
100.049
100.036
100.026
100.019
100.013
100.01
100.007
100.005
100.003
100.002
100.002
100.001
100.001
100.001
100
100
100
100
100
100
100
100
100
100
100
100
100
100
100
100
100
100
100
100
380.654
343.257
309.087
279.017
253.113
231.016
212.213
196.189
182.484
170.718
160.58
151.821
144.24
137.674
131.987
127.068
122.821
119.164
116.024
113.338
111.05
109.111
107.473
106.099
104.951
103.997
103.209
102.562
102.034
101.606
101.26
100.983
100.762
100.588
100.45
100.343
100.26
100.196
100.146
100.109
100.08
100.059
100.043
100.031
100.022
100.016
100.011
100.008
100.006
100.004
100.003
100.002
100.001
100.001
100.001
100
100
100
100
100
100
100
100
100
100
100
100
100
100
100
100
100
100
100
100
383.079
350.006
318.982
290.766
265.633
243.523
224.199
207.356
192.684
179.898
168.748
159.022
150.538
143.144
136.708
131.117
126.273
122.091
118.491
115.406
112.774
110.539
108.651
107.064
105.737
104.633
103.722
102.973
102.361
101.864
101.463
101.142
100.886
100.683
100.524
100.399
100.302
100.227
100.17
100.126
100.093
100.069
100.05
100.036
100.026
100.019
100.013
100.009
100.007
100.005
100.003
100.002
100.002
100.001
100.001
100
100
100
100
100
100
100
100
100
100
100
100
100
100
100
100
100
100
100
100
384.764
354.793
326.211
299.631
275.378
253.535
234.032
216.713
201.384
187.847
175.911
165.404
156.17
148.072
140.988
134.808
129.436
124.782
120.768
117.321
114.375
111.869
109.749
107.965
106.472
105.23
104.203
103.358
102.668
102.107
101.654
101.291
101.002
100.773
100.593
100.452
100.342
100.257
100.193
100.143
100.106
100.078
100.057
100.041
100.03
100.021
100.015
100.011
100.008
100.005
100.004
100.003
100.002
100.001
100.001
100.001
100
100
100
100
100
100
100
100
100
100
100
100
100
100
100
100
100
100
100
385.98
358.293
331.6
306.395
282.991
261.536
242.055
224.49
208.733
194.655
182.12
170.993
161.146
152.46
144.824
138.135
132.3
127.231
122.848
119.075
115.845
113.094
110.763
108.799
107.154
105.784
104.65
103.717
102.954
102.334
101.833
101.431
101.111
100.857
100.657
100.501
100.379
100.286
100.214
100.159
100.118
100.086
100.063
100.046
100.033
100.024
100.017
100.012
100.008
100.006
100.004
100.003
100.002
100.001
100.001
100.001
100
100
100
100
100
100
100
100
100
100
100
100
100
100
100
100
100
100
100
386.882
360.908
335.682
311.606
288.965
267.931
248.58
230.915
214.891
200.434
187.449
175.838
165.497
156.325
148.225
141.102
134.867
129.435
124.727
120.666
117.182
114.211
111.689
109.563
107.78
106.293
105.062
104.048
103.218
102.544
101.999
101.561
101.212
100.935
100.717
100.547
100.414
100.312
100.234
100.174
100.128
100.094
100.069
100.05
100.036
100.026
100.018
100.013
100.009
100.006
100.004
100.003
100.002
100.001
100.001
100.001
100
100
100
100
100
100
100
100
100
100
100
100
100
100
100
100
100
100
100
387.564
362.894
338.815
315.656
293.675
273.046
253.873
236.199
220.021
205.302
191.985
179.999
169.264
159.696
151.21
143.721
137.145
131.4
126.408
122.094
118.387
115.219
112.529
110.256
108.349
106.757
105.438
104.351
103.46
102.736
102.15
101.68
101.305
101.007
100.773
100.589
100.446
100.336
100.252
100.187
100.138
100.102
100.074
100.054
100.039
100.028
100.02
100.014
100.01
100.007
100.005
100.003
100.002
100.002
100.001
100.001
100
100
100
100
100
100
100
100
100
100
100
100
100
100
100
100
100
100
100
388.086
364.423
341.242
318.824
297.4
277.14
258.162
240.53
224.271
209.377
195.818
183.545
172.499
162.611
153.807
146.012
139.146
133.134
127.898
123.365
119.462
116.122
113.282
110.88
108.862
107.176
105.778
104.625
103.68
102.911
102.289
101.789
101.389
101.073
100.823
100.628
100.476
100.359
100.268
100.2
100.148
100.109
100.079
100.058
100.041
100.03
100.021
100.015
100.011
100.007
100.005
100.004
100.002
100.002
100.001
100.001
100.001
100
100
100
100
100
100
100
100
100
100
100
100
100
100
100
100
100
100
388.49
365.609
343.136
321.316
300.356
280.42
261.631
244.068
227.776
212.768
199.034
186.544
175.254
165.109
156.047
147.997
140.89
134.651
129.207
124.484
120.413
116.923
113.951
111.436
109.32
107.552
106.083
104.871
103.877
103.068
102.413
101.887
101.466
101.132
100.869
100.663
100.503
100.379
100.284
100.211
100.156
100.115
100.084
100.061
100.044
100.031
100.022
100.016
100.011
100.008
100.005
100.004
100.003
100.002
100.001
100.001
100.001
100
100
100
100
100
100
100
100
100
100
100
100
100
100
100
100
100
100
388.805
366.536
344.622
323.282
302.705
283.048
264.434
246.951
230.656
215.576
201.717
189.063
177.584
167.235
157.963
149.705
142.397
135.968
130.347
125.463
121.246
117.627
114.542
111.927
109.726
107.885
106.354
105.09
104.054
103.209
102.525
101.974
101.535
101.185
100.91
100.694
100.527
100.397
100.297
100.221
100.164
100.12
100.088
100.064
100.046
100.033
100.024
100.017
100.012
100.008
100.006
100.004
100.003
100.002
100.001
100.001
100.001
100
100
100
100
100
100
100
100
100
100
100
100
100
100
100
100
100
100
389.052
367.263
345.793
324.838
304.575
285.154
266.696
249.294
233.012
217.89
203.943
191.167
179.541
169.031
159.589
151.162
143.688
137.1
131.332
126.311
121.971
118.241
115.058
112.358
110.082
108.178
106.593
105.284
104.21
103.333
102.624
102.052
101.596
101.233
100.947
100.723
100.548
100.413
100.31
100.23
100.17
100.125
100.092
100.066
100.048
100.034
100.024
100.017
100.012
100.009
100.006
100.004
100.003
100.002
100.001
100.001
100.001
100
100
100
100
100
100
100
100
100
100
100
100
100
100
100
100
100
100
389.246
367.836
346.717
326.072
306.065
286.84
268.518
251.192
234.934
219.789
205.781
192.914
181.175
170.538
160.961
152.396
144.786
138.068
132.175
127.041
122.595
118.772
115.505
112.732
110.393
108.433
106.802
105.454
104.347
103.443
102.711
102.121
101.649
101.275
100.979
100.748
100.567
100.428
100.32
100.239
100.176
100.13
100.095
100.069
100.05
100.036
100.025
100.018
100.013
100.009
100.006
100.004
100.003
100.002
100.001
100.001
100.001
100
100
100
100
100
100
100
100
100
100
100
100
100
100
100
100
100
100
389.399
368.288
347.448
327.05
307.25
288.188
269.982
252.727
236.496
221.34
207.29
194.356
182.531
171.794
162.11
153.434
145.713
138.887
132.892
127.663
123.13
119.228
115.89
113.054
110.661
108.655
106.984
105.602
104.466
103.538
102.787
102.181
101.697
101.312
101.008
100.769
100.584
100.44
100.33
100.246
100.182
100.134
100.098
100.071
100.051
100.037
100.026
100.019
100.013
100.009
100.006
100.004
100.003
100.002
100.001
100.001
100.001
100
100
100
100
100
100
100
100
100
100
100
100
100
100
100
100
100
100
389.519
368.645
348.026
327.826
308.194
289.265
271.156
253.963
237.76
222.602
208.523
195.54
183.649
172.834
163.065
154.3
146.49
139.576
133.498
128.189
123.584
119.615
116.219
113.33
110.891
108.845
107.14
105.729
104.568
103.621
102.852
102.233
101.738
101.344
101.032
100.788
100.598
100.451
100.338
100.252
100.186
100.137
100.1
100.073
100.053
100.038
100.027
100.019
100.013
100.009
100.007
100.004
100.003
100.002
100.001
100.001
100.001
100
100
100
100
100
100
100
100
100
100
100
100
100
100
100
100
100
100
389.615
368.926
348.483
328.44
308.943
290.124
272.096
254.956
238.779
223.624
209.527
196.507
184.566
173.691
163.855
155.02
147.137
140.152
134.005
128.632
123.966
119.943
116.497
113.565
111.087
109.007
107.273
105.838
104.657
103.692
102.909
102.278
101.773
101.371
101.054
100.805
100.611
100.461
100.346
100.257
100.191
100.14
100.102
100.074
100.054
100.039
100.027
100.019
100.014
100.01
100.007
100.005
100.003
100.002
100.001
100.001
100.001
100
100
100
100
100
100
100
100
100
100
100
100
100
100
100
100
100
100
389.69
369.148
348.843
328.926
309.538
290.806
272.846
255.75
239.599
224.448
210.339
197.293
185.314
174.393
164.504
155.612
147.672
140.63
134.427
129.001
124.286
120.218
116.731
113.762
111.252
109.144
107.386
105.93
104.732
103.752
102.957
102.316
101.803
101.395
101.072
100.819
100.622
100.469
100.352
100.262
100.194
100.143
100.104
100.076
100.055
100.039
100.028
100.02
100.014
100.01
100.007
100.005
100.003
100.002
100.001
100.001
100.001
100
100
100
100
100
100
100
100
100
100
100
100
100
100
100
100
100
100
389.748
369.323
349.128
329.31
310.008
291.348
273.442
256.385
240.254
225.11
210.994
197.928
185.921
174.964
165.034
156.098
148.112
141.024
134.776
129.307
124.552
120.447
116.926
113.927
111.391
109.26
107.481
106.008
104.795
103.803
102.998
102.349
101.829
101.415
101.088
100.831
100.631
100.476
100.357
100.266
100.197
100.145
100.106
100.077
100.056
100.04
100.028
100.02
100.014
100.01
100.007
100.005
100.003
100.002
100.002
100.001
100.001
100
100
100
100
100
100
100
100
100
100
100
100
100
100
100
100
100
100
389.795
369.46
349.351
329.612
310.379
291.776
273.914
256.889
240.777
225.639
211.518
198.439
186.411
175.426
165.464
156.493
148.471
141.346
135.063
129.559
124.771
120.636
117.088
114.064
111.506
109.356
107.561
106.073
104.848
103.846
103.032
102.376
101.85
101.432
101.101
100.841
100.639
100.482
100.362
100.269
100.2
100.147
100.107
100.078
100.056
100.04
100.029
100.02
100.014
100.01
100.007
100.005
100.003
100.002
100.002
100.001
100.001
100
100
100
100
100
100
100
100
100
100
100
100
100
100
100
100
100
100
389.831
369.568
349.527
329.85
310.671
292.114
274.288
257.288
241.192
226.06
211.937
198.848
186.804
175.798
165.811
156.813
148.762
141.608
135.296
129.765
124.951
120.791
117.221
114.177
111.601
109.435
107.627
106.127
104.892
103.882
103.061
102.399
101.868
101.446
101.112
100.85
100.645
100.487
100.365
100.272
100.202
100.148
100.109
100.079
100.057
100.041
100.029
100.021
100.015
100.01
100.007
100.005
100.003
100.002
100.002
100.001
100.001
100
100
100
100
100
100
100
100
100
100
100
100
100
100
100
100
100
100
389.859
369.652
349.664
330.035
310.9
292.379
274.582
257.602
241.52
226.394
212.27
199.174
187.117
176.095
166.09
157.07
148.997
141.82
135.485
129.932
125.097
120.918
117.329
114.27
111.679
109.5
107.681
106.171
104.928
103.911
103.084
102.418
101.883
101.457
101.121
100.857
100.651
100.491
100.368
100.275
100.203
100.15
100.109
100.08
100.057
100.041
100.029
100.021
100.015
100.01
100.007
100.005
100.003
100.002
100.002
100.001
100.001
100
100
100
100
100
100
100
100
100
100
100
100
100
100
100
100
100
100
389.882
369.718
349.771
330.181
311.079
292.586
274.812
257.85
241.778
226.657
212.533
199.432
187.367
176.332
166.312
157.276
149.185
141.99
135.637
130.067
125.215
121.02
117.418
114.345
111.742
109.553
107.725
106.208
104.958
103.935
103.104
102.433
101.895
101.467
101.129
100.863
100.655
100.495
100.371
100.277
100.205
100.151
100.11
100.08
100.058
100.042
100.03
100.021
100.015
100.01
100.007
100.005
100.003
100.002
100.002
100.001
100.001
100
100
100
100
100
100
100
100
100
100
100
100
100
100
100
100
100
100
389.899
369.769
349.854
330.293
311.218
292.748
274.992
258.043
241.98
226.864
212.74
199.636
187.563
176.52
166.488
157.44
149.335
142.126
135.759
130.175
125.31
121.103
117.489
114.406
111.794
109.597
107.761
106.237
104.982
103.955
103.12
102.446
101.905
101.475
101.135
100.868
100.659
100.498
100.373
100.278
100.206
100.152
100.111
100.081
100.058
100.042
100.03
100.021
100.015
100.01
100.007
100.005
100.003
100.002
100.002
100.001
100.001
100
100
100
100
100
100
100
100
100
100
100
100
100
100
100
100
100
100
389.912
369.808
349.918
330.381
311.326
292.873
275.131
258.193
242.137
227.025
212.901
199.795
187.718
176.667
166.627
157.569
149.454
142.234
135.856
130.261
125.386
121.169
117.546
114.454
111.835
109.631
107.79
106.261
105.002
103.971
103.133
102.456
101.914
101.482
101.14
100.871
100.662
100.5
100.375
100.28
100.207
100.152
100.112
100.081
100.059
100.042
100.03
100.021
100.015
100.01
100.007
100.005
100.003
100.002
100.002
100.001
100.001
100
100
100
100
100
100
100
100
100
100
100
100
100
100
100
100
100
100
389.922
369.838
349.968
330.448
311.409
292.97
275.239
258.31
242.26
227.15
213.027
199.919
187.838
176.783
166.736
157.671
149.547
142.319
135.932
130.329
125.446
121.221
117.591
114.493
111.868
109.659
107.813
106.28
105.017
103.983
103.143
102.464
101.92
101.487
101.144
100.875
100.665
100.502
100.376
100.281
100.208
100.153
100.112
100.081
100.059
100.042
100.03
100.021
100.015
100.011
100.007
100.005
100.003
100.002
100.002
100.001
100.001
100
100
100
100
100
100
100
100
100
100
100
100
100
100
100
100
100
100
389.93
369.862
350.006
330.5
311.473
293.045
275.323
258.4
242.354
227.247
213.125
200.016
187.932
176.873
166.821
157.75
149.62
142.386
135.993
130.382
125.493
121.262
117.627
114.524
111.894
109.681
107.831
106.296
105.03
103.994
103.151
102.471
101.925
101.491
101.147
100.877
100.667
100.503
100.378
100.282
100.209
100.154
100.112
100.082
100.059
100.042
100.03
100.021
100.015
100.011
100.007
100.005
100.003
100.002
100.002
100.001
100.001
100
100
100
100
100
100
100
100
100
100
100
100
100
100
100
100
100
100
389.936
369.879
350.035
330.54
311.522
293.102
275.387
258.469
242.427
227.322
213.2
200.09
188.005
176.942
166.887
157.811
149.677
142.438
136.039
130.424
125.53
121.295
117.655
114.548
111.915
109.698
107.845
106.308
105.04
104.002
103.158
102.476
101.93
101.494
101.15
100.879
100.668
100.504
100.379
100.282
100.209
100.154
100.113
100.082
100.059
100.042
100.03
100.021
100.015
100.011
100.007
100.005
100.003
100.002
100.002
100.001
100.001
100
100
100
100
100
100
100
100
100
100
100
100
100
100
100
100
100
100
389.941
369.893
350.057
330.57
311.56
293.146
275.435
258.521
242.482
227.379
213.258
200.147
188.06
176.996
166.938
157.859
149.721
142.478
136.076
130.456
125.559
121.32
117.676
114.567
111.931
109.712
107.857
106.317
105.047
104.008
103.163
102.48
101.933
101.497
101.152
100.881
100.669
100.505
100.379
100.283
100.209
100.154
100.113
100.082
100.059
100.043
100.03
100.021
100.015
100.011
100.007
100.005
100.003
100.002
100.002
100.001
100.001
100
100
100
100
100
100
100
100
100
100
100
100
100
100
100
100
100
100
389.944
369.903
350.074
330.593
311.588
293.179
275.472
258.561
242.524
227.422
213.302
200.191
188.103
177.037
166.977
157.895
149.755
142.509
136.104
130.482
125.581
121.339
117.693
114.581
111.943
109.722
107.866
106.324
105.054
104.013
103.167
102.484
101.935
101.499
101.153
100.882
100.67
100.506
100.38
100.283
100.21
100.154
100.113
100.082
100.059
100.043
100.03
100.022
100.015
100.011
100.007
100.005
100.004
100.002
100.002
100.001
100.001
100
100
100
100
100
100
100
100
100
100
100
100
100
100
100
100
100
100
389.947
369.911
350.087
330.61
311.609
293.204
275.5
258.592
242.556
227.455
213.335
200.224
188.135
177.068
167.006
157.923
149.781
142.532
136.125
130.501
125.598
121.354
117.706
114.592
111.953
109.73
107.873
106.33
105.058
104.017
103.17
102.486
101.937
101.5
101.155
100.883
100.671
100.507
100.38
100.284
100.21
100.155
100.113
100.082
100.059
100.043
100.03
100.022
100.015
100.011
100.007
100.005
100.004
100.002
100.002
100.001
100.001
100
100
100
100
100
100
100
100
100
100
100
100
100
100
100
100
100
100
389.949
369.917
350.096
330.623
311.625
293.222
275.521
258.614
242.58
227.48
213.36
200.249
188.16
177.092
167.029
157.944
149.8
142.55
136.141
130.515
125.611
121.366
117.716
114.601
111.96
109.737
107.878
106.334
105.062
104.02
103.172
102.488
101.939
101.502
101.156
100.884
100.672
100.507
100.381
100.284
100.21
100.155
100.113
100.082
100.059
100.043
100.03
100.022
100.015
100.011
100.007
100.005
100.004
100.002
100.002
100.001
100.001
100
100
100
100
100
100
100
100
100
100
100
100
100
100
100
100
100
100
389.95
369.921
350.103
330.633
311.637
293.236
275.537
258.631
242.598
227.499
213.379
200.268
188.178
177.109
167.046
157.96
149.815
142.564
136.154
130.526
125.621
121.375
117.724
114.608
111.966
109.741
107.882
106.338
105.065
104.022
103.174
102.489
101.94
101.503
101.156
100.884
100.672
100.508
100.381
100.284
100.21
100.155
100.113
100.082
100.06
100.043
100.03
100.022
100.015
100.011
100.007
100.005
100.004
100.002
100.002
100.001
100.001
100
100
100
100
100
100
100
100
100
100
100
100
100
100
100
100
100
100
389.951
369.924
350.109
330.64
311.646
293.247
275.549
258.644
242.612
227.513
213.393
200.282
188.192
177.123
167.058
157.972
149.826
142.574
136.163
130.535
125.628
121.381
117.73
114.613
111.97
109.745
107.885
106.34
105.067
104.024
103.176
102.491
101.941
101.503
101.157
100.885
100.672
100.508
100.381
100.284
100.211
100.155
100.113
100.082
100.06
100.043
100.03
100.022
100.015
100.011
100.007
100.005
100.004
100.002
100.002
100.001
100.001
100
100
100
100
100
100
100
100
100
100
100
100
100
100
100
100
100
100
389.952
369.927
350.112
330.645
311.653
293.255
275.557
258.653
242.621
227.523
213.403
200.292
188.202
177.132
167.068
157.981
149.834
142.582
136.17
130.541
125.634
121.386
117.734
114.616
111.973
109.748
107.887
106.342
105.068
104.025
103.177
102.491
101.942
101.504
101.157
100.885
100.673
100.508
100.381
100.284
100.211
100.155
100.113
100.082
100.06
100.043
100.031
100.022
100.015
100.011
100.007
100.005
100.004
100.002
100.002
100.001
100.001
100
100
100
100
100
100
100
100
100
100
100
100
100
100
100
100
100
100
389.953
369.928
350.115
330.649
311.658
293.26
275.563
258.66
242.629
227.53
213.411
200.3
188.21
177.14
167.075
157.988
149.84
142.587
136.175
130.546
125.638
121.39
117.737
114.619
111.975
109.75
107.889
106.344
105.07
104.026
103.178
102.492
101.942
101.504
101.158
100.885
100.673
100.508
100.381
100.284
100.211
100.155
100.113
100.083
100.06
100.043
100.031
100.022
100.015
100.011
100.007
100.005
100.004
100.002
100.002
100.001
100.001
100
100
100
100
100
100
100
100
100
100
100
100
100
100
100
100
100
100
389.953
369.93
350.117
330.652
311.661
293.264
275.568
258.665
242.634
227.536
213.417
200.305
188.215
177.145
167.08
157.992
149.845
142.591
136.179
130.549
125.641
121.392
117.74
114.621
111.977
109.751
107.89
106.345
105.07
104.027
103.178
102.493
101.943
101.505
101.158
100.886
100.673
100.508
100.381
100.284
100.211
100.155
100.114
100.083
100.06
100.043
100.031
100.022
100.015
100.011
100.007
100.005
100.004
100.002
100.002
100.001
100.001
100
100
100
100
100
100
100
100
100
100
100
100
100
100
100
100
100
100
389.953
369.931
350.119
330.654
311.664
293.267
275.572
258.669
242.638
227.54
213.421
200.309
188.219
177.149
167.084
157.996
149.848
142.594
136.182
130.552
125.643
121.394
117.741
114.623
111.979
109.752
107.891
106.346
105.071
104.027
103.179
102.493
101.943
101.505
101.158
100.886
100.673
100.508
100.382
100.284
100.211
100.155
100.114
100.083
100.06
100.043
100.031
100.022
100.015
100.011
100.007
100.005
100.004
100.002
100.002
100.001
100.001
100
100
100
100
100
100
100
100
100
100
100
100
100
100
100
100
100
100
389.953
369.931
350.12
330.655
311.666
293.27
275.574
258.672
242.641
227.543
213.424
200.312
188.222
177.152
167.086
157.999
149.851
142.597
136.184
130.553
125.645
121.396
117.743
114.624
111.98
109.753
107.892
106.346
105.072
104.028
103.179
102.493
101.943
101.505
101.158
100.886
100.673
100.508
100.382
100.285
100.211
100.155
100.114
100.083
100.06
100.043
100.031
100.022
100.015
100.011
100.007
100.005
100.004
100.002
100.002
100.001
100.001
100
100
100
100
100
100
100
100
100
100
100
100
100
100
100
100
100
100
389.954
369.932
350.121
330.656
311.667
293.271
275.576
258.674
242.643
227.545
213.426
200.315
188.224
177.154
167.088
158
149.852
142.598
136.185
130.555
125.646
121.397
117.744
114.625
111.98
109.754
107.892
106.347
105.072
104.028
103.179
102.493
101.943
101.505
101.158
100.886
100.673
100.508
100.382
100.285
100.211
100.155
100.114
100.083
100.06
100.043
100.031
100.022
100.015
100.011
100.007
100.005
100.004
100.002
100.002
100.001
100.001
100
100
100
100
100
100
100
100
100
100
100
100
100
100
100
100
100
100
389.954
369.932
350.121
330.657
311.668
293.272
275.577
258.675
242.644
227.547
213.427
200.316
188.226
177.155
167.09
158.002
149.854
142.599
136.186
130.556
125.647
121.398
117.744
114.625
111.981
109.754
107.893
106.347
105.072
104.028
103.179
102.494
101.943
101.505
101.159
100.886
100.673
100.509
100.382
100.285
100.211
100.155
100.114
100.083
100.06
100.043
100.031
100.022
100.015
100.011
100.007
100.005
100.004
100.002
100.002
100.001
100.001
100
100
100
100
100
100
100
100
100
100
100
100
100
100
100
100
100
100
389.954
369.932
350.122
330.658
311.669
293.273
275.578
258.676
242.645
227.548
213.429
200.317
188.227
177.156
167.091
158.003
149.855
142.6
136.187
130.556
125.648
121.398
117.745
114.626
111.981
109.755
107.893
106.347
105.072
104.028
103.179
102.494
101.944
101.505
101.159
100.886
100.673
100.509
100.382
100.285
100.211
100.155
100.114
100.083
100.06
100.043
100.031
100.022
100.015
100.011
100.007
100.005
100.004
100.002
100.002
100.001
100.001
100
100
100
100
100
100
100
100
100
100
100
100
100
100
100
100
100
100
389.954
369.933
350.122
330.658
311.669
293.274
275.579
258.677
242.646
227.548
213.429
200.318
188.228
177.157
167.092
158.003
149.855
142.601
136.187
130.557
125.648
121.399
117.745
114.626
111.981
109.755
107.893
106.347
105.072
104.029
103.18
102.494
101.944
101.505
101.159
100.886
100.673
100.509
100.382
100.285
100.211
100.155
100.114
100.083
100.06
100.043
100.031
100.022
100.015
100.011
100.007
100.005
100.004
100.002
100.002
100.001
100.001
100
100
100
100
100
100
100
100
100
100
100
100
100
100
100
100
100
100
389.954
369.933
350.122
330.658
311.669
293.274
275.579
258.677
242.647
227.549
213.43
200.318
188.228
177.158
167.092
158.004
149.856
142.601
136.188
130.557
125.649
121.399
117.745
114.626
111.982
109.755
107.893
106.347
105.073
104.029
103.18
102.494
101.944
101.505
101.159
100.886
100.673
100.509
100.382
100.285
100.211
100.155
100.114
100.083
100.06
100.043
100.031
100.022
100.015
100.011
100.007
100.005
100.004
100.002
100.002
100.001
100.001
100
100
100
100
100
100
100
100
100
100
100
100
100
100
100
100
100
100
389.954
369.933
350.122
330.658
311.67
293.274
275.579
258.678
242.647
227.549
213.43
200.319
188.229
177.158
167.092
158.004
149.856
142.602
136.188
130.558
125.649
121.399
117.745
114.626
111.982
109.755
107.893
106.347
105.073
104.029
103.18
102.494
101.944
101.505
101.159
100.886
100.673
100.509
100.382
100.285
100.211
100.155
100.114
100.083
100.06
100.043
100.031
100.022
100.015
100.011
100.007
100.005
100.004
100.002
100.002
100.001
100.001
100
100
100
100
100
100
100
100
100
100
100
100
100
100
100
100
100
100
389.954
369.933
350.122
330.659
311.67
293.274
275.579
258.678
242.647
227.55
213.431
200.319
188.229
177.158
167.093
158.004
149.856
142.602
136.188
130.558
125.649
121.399
117.746
114.626
111.982
109.755
107.893
106.347
105.073
104.029
103.18
102.494
101.944
101.505
101.159
100.886
100.673
100.509
100.382
100.285
100.211
100.155
100.114
100.083
100.06
100.043
100.031
100.022
100.015
100.011
100.007
100.005
100.004
100.002
100.002
100.001
100.001
100
100
100
100
100
100
100
100
100
100
100
100
100
100
100
100
100
100
389.954
369.933
350.123
330.659
311.67
293.275
275.58
258.678
242.647
227.55
213.431
200.319
188.229
177.159
167.093
158.005
149.856
142.602
136.188
130.558
125.649
121.399
117.746
114.626
111.982
109.755
107.893
106.347
105.073
104.029
103.18
102.494
101.944
101.505
101.159
100.886
100.673
100.509
100.382
100.285
100.211
100.155
100.114
100.083
100.06
100.043
100.031
100.022
100.015
100.011
100.007
100.005
100.004
100.002
100.002
100.001
100.001
100
100
100
100
100
100
100
100
100
100
100
100
100
100
100
100
100
100
389.954
369.933
350.123
330.659
311.67
293.275
275.58
258.678
242.648
227.55
213.431
200.319
188.229
177.159
167.093
158.005
149.856
142.602
136.189
130.558
125.649
121.399
117.746
114.626
111.982
109.755
107.893
106.348
105.073
104.029
103.18
102.494
101.944
101.505
101.159
100.886
100.673
100.509
100.382
100.285
100.211
100.155
100.114
100.083
100.06
100.043
100.031
100.022
100.015
100.011
100.007
100.005
100.004
100.002
100.002
100.001
100.001
100
100
100
100
100
100
100
100
100
100
100
100
100
100
100
100
100
100
389.954
369.933
350.123
330.659
311.67
293.275
275.58
258.678
242.648
227.55
213.431
200.32
188.229
177.159
167.093
158.005
149.857
142.602
136.189
130.558
125.649
121.399
117.746
114.626
111.982
109.755
107.893
106.348
105.073
104.029
103.18
102.494
101.944
101.505
101.159
100.886
100.673
100.509
100.382
100.285
100.211
100.155
100.114
100.083
100.06
100.043
100.031
100.022
100.015
100.011
100.007
100.005
100.004
100.002
100.002
100.001
100.001
100
100
100
100
100
100
100
100
100
100
100
100
100
100
100
100
100
100
389.954
369.933
350.123
330.659
311.67
293.275
275.58
258.678
242.648
227.55
213.431
200.32
188.229
177.159
167.093
158.005
149.857
142.602
136.189
130.558
125.649
121.399
117.746
114.627
111.982
109.755
107.893
106.348
105.073
104.029
103.18
102.494
101.944
101.505
101.159
100.886
100.673
100.509
100.382
100.285
100.211
100.155
100.114
100.083
100.06
100.043
100.031
100.022
100.015
100.011
100.007
100.005
100.004
100.002
100.002
100.001
100.001
100
100
100
100
100
100
100
100
100
100
100
100
100
100
100
100
100
100
389.954
369.933
350.123
330.659
311.67
293.275
275.58
258.678
242.648
227.55
213.431
200.32
188.229
177.159
167.093
158.005
149.857
142.602
136.189
130.558
125.649
121.399
117.746
114.627
111.982
109.755
107.893
106.348
105.073
104.029
103.18
102.494
101.944
101.505
101.159
100.886
100.673
100.509
100.382
100.285
100.211
100.155
100.114
100.083
100.06
100.043
100.031
100.022
100.015
100.011
100.007
100.005
100.004
100.002
100.002
100.001
100.001
100
100
100
100
100
100
100
100
100
100
100
100
100
100
100
100
100
100
389.954
369.933
350.123
330.659
311.67
293.275
275.58
258.678
242.648
227.55
213.431
200.32
188.229
177.159
167.093
158.005
149.857
142.602
136.189
130.558
125.649
121.399
117.746
114.627
111.982
109.755
107.893
106.348
105.073
104.029
103.18
102.494
101.944
101.505
101.159
100.886
100.673
100.509
100.382
100.285
100.211
100.155
100.114
100.083
100.06
100.043
100.031
100.022
100.015
100.011
100.007
100.005
100.004
100.002
100.002
100.001
100.001
100
100
100
100
100
100
100
100
100
100
100
100
100
100
100
100
100
100
389.954
369.933
350.123
330.659
311.67
293.275
275.58
258.678
242.648
227.55
213.431
200.32
188.229
177.159
167.093
158.005
149.857
142.602
136.189
130.558
125.649
121.399
117.746
114.627
111.982
109.755
107.893
106.348
105.073
104.029
103.18
102.494
101.944
101.505
101.159
100.886
100.673
100.509
100.382
100.285
100.211
100.155
100.114
100.083
100.06
100.043
100.031
100.022
100.015
100.011
100.007
100.005
100.004
100.002
100.002
100.001
100.001
100
100
100
100
100
100
100
100
100
100
100
100
100
100
100
100
100
100
389.954
369.933
350.123
330.659
311.67
293.275
275.58
258.678
242.648
227.55
213.431
200.32
188.229
177.159
167.093
158.005
149.857
142.602
136.189
130.558
125.649
121.399
117.746
114.627
111.982
109.755
107.893
106.348
105.073
104.029
103.18
102.494
101.944
101.505
101.159
100.886
100.673
100.509
100.382
100.285
100.211
100.155
100.114
100.083
100.06
100.043
100.031
100.022
100.015
100.011
100.007
100.005
100.004
100.002
100.002
100.001
100.001
100
100
100
100
100
100
100
100
100
100
100
100
100
100
100
100
100
100
389.954
369.933
350.123
330.659
311.67
293.275
275.58
258.678
242.648
227.55
213.431
200.32
188.229
177.159
167.093
158.005
149.857
142.602
136.189
130.558
125.649
121.399
117.746
114.627
111.982
109.755
107.894