/*--------------------------------*- C++ -*----------------------------------*\
  =========                 |
  \\      /  F ield         | OpenFOAM: The Open Source CFD Toolbox
   \\    /   O peration     | Website:  https://openfoam.org
    \\  /    A nd           | Version:  10
     \\/     M anipulation  |
\*---------------------------------------------------------------------------*/
FoamFile
{
    format      ascii;
    class       volScalarField;
    location    "422";
    object      gradTz;
}
// * * * * * * * * * * * * * * * * * * * * * * * * * * * * * * * * * * * * * //

dimensions      [0 -1 0 1 0 0 0];

internalField   nonuniform List<scalar> 
11250
(
-14342.8
-4138.42
-1518.43
-715.298
-411.13
-270.141
-193.459
-146.68
-115.712
-93.9328
-77.8795
-65.5926
-55.8938
-48.0407
-41.547
-36.0847
-31.426
-27.409
-23.9163
-20.8605
-18.1754
-15.8097
-13.7223
-11.8802
-10.2557
-8.82509
-7.56806
-6.46649
-5.50417
-4.66647
-3.94005
-3.31268
-2.77319
-2.31135
-1.9178
-1.58404
-1.30236
-1.06579
-0.868112
-0.703757
-0.567806
-0.455926
-0.364332
-0.289732
-0.229291
-0.180576
-0.141518
-0.110365
-0.0856492
-0.0661421
-0.050827
-0.038866
-0.0295735
-0.0223919
-0.0168708
-0.0126483
-0.00943594
-0.00700473
-0.00517431
-0.00380337
-0.00278191
-0.00202477
-0.00146648
-0.00105694
-0.000758096
-0.000541178
-0.000384588
-0.000272205
-0.000192082
-0.000135429
-9.58443e-05
-6.8729e-05
-5.08524e-05
-4.00388e-05
-3.49497e-05
-8232.55
-4830.69
-2738.25
-1646.75
-1070.04
-745.963
-550.336
-424.107
-337.847
-275.99
-229.81
-194.147
-165.813
-142.758
-123.622
-107.479
-93.6783
-81.7572
-71.3767
-62.284
-54.2867
-47.2348
-41.0089
-35.5115
-30.6612
-26.3885
-22.6329
-19.3409
-16.4644
-13.96
-11.7878
-9.91157
-8.29796
-6.91644
-5.73911
-4.74054
-3.89772
-3.18985
-2.5983
-2.10644
-1.69957
-1.36473
-1.09059
-0.867301
-0.686387
-0.540569
-0.423652
-0.3304
-0.256411
-0.198015
-0.152167
-0.11636
-0.0885401
-0.06704
-0.0505106
-0.0378691
-0.0282515
-0.0209726
-0.0154923
-0.0113877
-0.00832939
-0.00606248
-0.00439089
-0.00316469
-0.0022699
-0.00162041
-0.00115155
-0.000815055
-0.000575148
-0.000405514
-0.000286988
-0.000205797
-0.00015227
-0.000119891
-0.000104653
-5523.56
-4212.97
-2956.57
-2062.86
-1475.82
-1092.87
-837.4
-661.206
-535.273
-442.126
-371.036
-315.246
-270.383
-233.541
-202.743
-176.614
-154.178
-134.728
-117.743
-102.831
-89.6911
-78.0865
-67.8282
-58.7607
-50.7535
-43.6947
-37.4863
-32.0415
-27.2819
-23.1362
-19.5394
-16.4318
-13.7585
-11.4692
-9.51784
-7.86255
-6.46522
-5.29147
-4.31048
-3.49474
-2.81988
-2.26444
-1.80966
-1.43922
-1.13905
-0.897104
-0.7031
-0.548355
-0.425572
-0.32866
-0.25257
-0.193141
-0.146968
-0.111282
-0.0838463
-0.062863
-0.0468986
-0.0348159
-0.0257188
-0.018905
-0.013828
-0.0100648
-0.00728975
-0.00525408
-0.00376858
-0.0026903
-0.0019119
-0.00135323
-0.000954925
-0.000673288
-0.000476499
-0.000341698
-0.000252826
-0.000199066
-0.000173766
-4124.17
-3540.09
-2811.24
-2171.4
-1676.68
-1311.53
-1044.5
-847.443
-699.408
-585.795
-496.653
-425.209
-366.817
-318.256
-277.256
-242.196
-211.901
-185.505
-162.359
-141.971
-123.956
-108.011
-93.8903
-81.3893
-70.3362
-60.5818
-51.995
-44.4584
-37.866
-32.1207
-27.1337
-22.8231
-19.1136
-15.936
-13.2268
-10.928
-8.98698
-7.35626
-5.9931
-4.8594
-3.92135
-3.14921
-2.51691
-2.00183
-1.58443
-1.24795
-0.978128
-0.76289
-0.592098
-0.457285
-0.35143
-0.26875
-0.204509
-0.154857
-0.116682
-0.0874835
-0.0652684
-0.0484543
-0.0357944
-0.0263119
-0.0192463
-0.0140087
-0.0101465
-0.00731321
-0.00524563
-0.0037448
-0.00266133
-0.00188371
-0.00132928
-0.00093725
-0.000663321
-0.000475675
-0.000351962
-0.000277126
-0.000241908
-3307.5
-3010.63
-2575.6
-2133.58
-1746.81
-1431.01
-1180.67
-983.823
-828.415
-704.427
-604.143
-521.824
-453.261
-395.377
-345.915
-303.208
-266.017
-233.408
-204.667
-179.244
-156.704
-136.696
-118.936
-103.183
-89.2314
-76.9024
-66.0366
-56.4903
-48.1329
-40.8443
-34.5137
-29.0388
-24.3251
-20.2856
-16.8403
-13.916
-11.4462
-9.37063
-7.63524
-6.19167
-4.99702
-4.01349
-3.20798
-2.5517
-2.01981
-1.59099
-1.24709
-0.97273
-0.755006
-0.583134
-0.448171
-0.342748
-0.260831
-0.197514
-0.148829
-0.111591
-0.083257
-0.0618109
-0.0456628
-0.0335671
-0.0245538
-0.0178724
-0.0129453
-0.00933073
-0.00669291
-0.00477811
-0.00339575
-0.00240359
-0.00169618
-0.00119597
-0.000846439
-0.000607004
-0.000449143
-0.00035365
-0.000308711
-2785.94
-2617.58
-2345.29
-2038.9
-1744.48
-1483.65
-1262.13
-1077.7
-925.104
-798.628
-693.117
-604.308
-528.822
-464.035
-407.927
-358.954
-315.925
-277.923
-244.231
-214.282
-187.622
-163.88
-142.746
-123.957
-107.285
-92.5271
-79.5031
-68.0473
-58.008
-49.2449
-41.628
-35.0363
-29.358
-24.4894
-20.3351
-16.8076
-13.8274
-11.3221
-9.22684
-7.48349
-6.04043
-4.85216
-3.87878
-3.08561
-2.44268
-1.92426
-1.50845
-1.17669
-0.91338
-0.705505
-0.542256
-0.414727
-0.315625
-0.239019
-0.180113
-0.135054
-0.100767
-0.0748138
-0.0552709
-0.0406316
-0.0297225
-0.0216354
-0.0156714
-0.011296
-0.00810283
-0.00578482
-0.00411132
-0.00291016
-0.00205371
-0.00144809
-0.00102491
-0.000735004
-0.000543868
-0.000428245
-0.000373832
-2430.61
-2326.38
-2147.07
-1930.32
-1706.76
-1495.32
-1305.03
-1138.44
-994.587
-870.985
-764.721
-673.016
-593.438
-523.961
-462.939
-409.055
-361.259
-318.713
-280.746
-246.816
-216.478
-189.359
-165.145
-143.562
-124.369
-107.348
-92.3035
-79.0526
-67.4268
-57.2689
-48.4319
-40.7788
-34.1817
-28.522
-23.6903
-19.5859
-16.1168
-13.1995
-10.7589
-8.72761
-7.0458
-5.66059
-4.52566
-3.60067
-2.85075
-2.24597
-1.76082
-1.37368
-1.06639
-0.823759
-0.633195
-0.484313
-0.368609
-0.27916
-0.210374
-0.157753
-0.11771
-0.0873973
-0.0645704
-0.0474701
-0.0347264
-0.0252788
-0.0183112
-0.0131992
-0.00946838
-0.00675995
-0.0048045
-0.00340092
-0.00240012
-0.0016924
-0.00119785
-0.000859053
-0.000635676
-0.000500547
-0.000436954
-2177.03
-2107.81
-1983.89
-1826.31
-1654.8
-1483.91
-1322.5
-1174.93
-1042.55
-924.973
-820.989
-729.065
-647.662
-575.372
-510.97
-453.423
-401.871
-355.605
-314.036
-276.676
-243.111
-212.99
-186.006
-161.886
-140.386
-121.281
-104.365
-89.4446
-76.337
-64.8719
-54.8883
-46.2349
-38.7702
-32.3622
-26.8885
-22.2363
-18.3025
-14.9932
-12.2236
-9.91775
-8.00806
-6.43476
-5.14541
-4.09434
-3.24203
-2.55456
-2.00298
-1.56277
-1.2133
-0.937328
-0.720555
-0.551177
-0.41953
-0.317748
-0.239469
-0.179583
-0.134006
-0.0995028
-0.073518
-0.0540508
-0.0395424
-0.0287859
-0.0208525
-0.0150317
-0.0107833
-0.00769904
-0.00547213
-0.00387365
-0.00273382
-0.00192777
-0.00136448
-0.000978587
-0.000724151
-0.000570231
-0.000497794
-1989.82
-1941.16
-1851.68
-1733.65
-1599.82
-1460.81
-1324.16
-1194.51
-1074.24
-964.2
-864.307
-773.987
-692.443
-618.826
-552.323
-492.197
-437.802
-388.578
-344.044
-303.786
-267.441
-234.69
-205.248
-178.854
-155.268
-134.266
-115.636
-99.1767
-84.6986
-72.0198
-60.968
-51.3802
-43.103
-35.9926
-29.9151
-24.7471
-20.3749
-16.6952
-13.6144
-11.0486
-8.92299
-7.17126
-5.73532
-4.56446
-3.61482
-2.84869
-2.23388
-1.74313
-1.35347
-1.04573
-0.803963
-0.615034
-0.468175
-0.35462
-0.267277
-0.20045
-0.149588
-0.11108
-0.0820764
-0.0603464
-0.0441505
-0.0321421
-0.0232848
-0.0167858
-0.0120422
-0.00859821
-0.00611147
-0.00432639
-0.00305346
-0.00215323
-0.00152412
-0.00109312
-0.000808933
-0.000637012
-0.000556102
-1848.09
-1812.22
-1745
-1653.91
-1547.33
-1432.88
-1316.62
-1202.79
-1094.09
-991.965
-897.059
-809.455
-728.927
-655.091
-587.497
-525.69
-469.235
-417.73
-370.813
-328.152
-289.45
-254.429
-222.836
-194.428
-168.977
-146.265
-126.08
-108.218
-92.4839
-78.6881
-66.6498
-56.1965
-47.1645
-39.4
-32.7593
-27.1089
-22.3263
-18.2992
-14.9263
-12.1161
-9.7872
-7.86738
-6.2932
-5.00931
-3.96775
-3.12727
-2.45268
-1.9141
-1.4864
-1.14856
-0.883113
-0.67565
-0.514364
-0.389639
-0.293695
-0.22028
-0.164398
-0.122085
-0.0902143
-0.0663339
-0.0485339
-0.0353352
-0.0255993
-0.0184553
-0.0132405
-0.00945421
-0.00672019
-0.00475751
-0.00335786
-0.00236799
-0.0016762
-0.00120224
-0.000889716
-0.00070065
-0.00061167
-1738.74
-1711.2
-1658.86
-1586.5
-1499.73
-1404.06
-1304.21
-1203.83
-1105.55
-1011.07
-921.416
-837.101
-758.313
-685.029
-617.104
-554.328
-496.46
-443.254
-394.464
-349.849
-309.178
-272.226
-238.772
-208.601
-181.501
-157.264
-135.682
-116.552
-99.6772
-84.8624
-71.9207
-60.672
-50.9445
-42.5757
-35.4133
-29.3155
-24.1512
-19.8008
-16.1555
-13.1171
-10.5982
-8.52108
-6.81743
-5.42757
-4.29976
-3.38948
-2.65871
-2.07517
-1.61168
-1.24552
-0.957766
-0.732842
-0.557958
-0.422701
-0.318644
-0.239012
-0.178391
-0.132487
-0.0979071
-0.071995
-0.0526791
-0.0383554
-0.027789
-0.0200349
-0.0143745
-0.0102644
-0.00729644
-0.00516569
-0.00364612
-0.00257137
-0.00182024
-0.00130561
-0.000966254
-0.000760951
-0.000664328
-1653.15
-1631.22
-1589.13
-1530.04
-1457.82
-1376.48
-1289.68
-1200.48
-1111.27
-1023.79
-939.242
-858.408
-781.752
-709.518
-641.8
-578.594
-519.832
-465.405
-415.179
-369.003
-326.713
-288.136
-253.092
-221.395
-192.851
-167.266
-144.441
-124.177
-106.274
-90.5375
-76.7751
-64.8013
-54.4377
-45.5149
-37.873
-31.3629
-25.8466
-21.1972
-17.2996
-14.0496
-11.3543
-9.13102
-7.3069
-5.81834
-4.61013
-3.63474
-2.85152
-2.22598
-1.72904
-1.33637
-1.02775
-0.786478
-0.598856
-0.453728
-0.342064
-0.256601
-0.191535
-0.142259
-0.105137
-0.0773164
-0.0565765
-0.0411956
-0.0298485
-0.0215209
-0.0154415
-0.0110269
-0.00783884
-0.00554995
-0.00391752
-0.0027629
-0.00195591
-0.00140297
-0.00103836
-0.000817768
-0.000713948
-1585.4
-1567.38
-1532.53
-1483
-1421.56
-1351.17
-1274.69
-1194.65
-1113.16
-1031.88
-952.076
-874.665
-800.292
-729.392
-662.24
-598.996
-539.737
-484.475
-433.178
-385.777
-342.174
-302.249
-265.862
-232.855
-203.06
-176.295
-152.374
-131.101
-112.281
-95.7164
-81.2144
-68.5846
-57.6437
-48.2166
-40.1372
-33.2501
-27.411
-22.4872
-18.3575
-14.9128
-12.0548
-9.6965
-7.76103
-6.18114
-4.89848
-3.86273
-3.03085
-2.36631
-1.8383
-1.421
-1.09297
-0.836477
-0.636995
-0.482673
-0.36392
-0.27302
-0.203808
-0.151387
-0.111891
-0.0822893
-0.0602195
-0.043851
-0.0317744
-0.0229109
-0.0164397
-0.0117404
-0.00834645
-0.00590963
-0.0041716
-0.00294223
-0.00208295
-0.00149418
-0.00110591
-0.000871001
-0.000760441
-1531.32
-1516.08
-1486.44
-1443.92
-1390.56
-1328.58
-1260.24
-1187.64
-1112.61
-1036.7
-961.151
-886.952
-814.853
-745.413
-679.044
-616.032
-556.57
-500.776
-448.704
-400.36
-355.708
-314.676
-277.164
-243.046
-212.174
-184.387
-159.505
-137.344
-117.711
-100.41
-85.246
-72.0272
-60.5662
-50.6833
-42.2075
-34.978
-28.8452
-23.6711
-19.3296
-15.7066
-12.6996
-10.2175
-8.17973
-6.51589
-5.1647
-4.07335
-3.19663
-2.49611
-1.9394
-1.49935
-1.15337
-0.882809
-0.67235
-0.509515
-0.384195
-0.288257
-0.215201
-0.159862
-0.118164
-0.0869095
-0.063605
-0.0463194
-0.0335651
-0.0242035
-0.0173682
-0.0124042
-0.00881879
-0.00624439
-0.00440812
-0.0031092
-0.00220126
-0.00157912
-0.00116883
-0.000920595
-0.000803762
-1487.86
-1474.65
-1448.82
-1411.52
-1364.25
-1308.76
-1246.84
-1180.25
-1110.58
-1039.24
-967.435
-896.157
-826.215
-758.255
-692.778
-630.171
-570.717
-514.619
-462.007
-412.952
-367.472
-325.542
-287.098
-252.044
-220.256
-191.587
-165.872
-142.935
-122.586
-104.634
-88.8826
-75.1388
-63.2126
-52.9207
-44.0882
-36.5499
-30.1516
-24.7508
-20.2171
-16.432
-13.2894
-10.6944
-8.56338
-6.82284
-5.40899
-4.26675
-3.34894
-2.61544
-2.0324
-1.57145
-1.20899
-0.925485
-0.704931
-0.53426
-0.402893
-0.302315
-0.225716
-0.167687
-0.123958
-0.0911772
-0.0667331
-0.0486006
-0.0352205
-0.0253987
-0.018227
-0.0130182
-0.00925582
-0.00655417
-0.00462704
-0.00326377
-0.00231081
-0.00165778
-0.00122711
-0.000966541
-0.000843899
-1452.78
-1441.06
-1418.07
-1384.68
-1342.07
-1291.6
-1234.75
-1172.99
-1107.73
-1040.25
-971.672
-902.989
-835.032
-768.496
-703.948
-641.844
-582.54
-526.306
-473.336
-423.756
-377.632
-334.981
-295.772
-259.937
-227.373
-197.951
-171.52
-147.908
-126.935
-108.411
-92.1415
-77.9328
-65.5932
-54.9369
-45.7857
-37.9707
-31.334
-25.7292
-21.0221
-17.0908
-13.8256
-11.1284
-8.91273
-7.10258
-5.63179
-4.44326
-3.48803
-2.72447
-2.11743
-1.63741
-1.25989
-0.964563
-0.734777
-0.556938
-0.420036
-0.315207
-0.235362
-0.174868
-0.129276
-0.0950965
-0.0696066
-0.0506968
-0.0367419
-0.0264975
-0.0190166
-0.0135829
-0.00965788
-0.00683923
-0.00482852
-0.00340605
-0.00241166
-0.00173022
-0.0012808
-0.00100887
-0.000880878
-1424.35
-1413.75
-1392.9
-1362.48
-1323.43
-1276.87
-1224.03
-1166.17
-1104.52
-1040.25
-974.429
-908.012
-841.838
-776.627
-712.991
-651.435
-592.37
-536.12
-482.93
-432.972
-386.354
-343.13
-303.298
-266.816
-233.602
-203.541
-176.495
-152.303
-130.789
-111.766
-95.0431
-80.4256
-67.7212
-56.7423
-47.308
-39.2467
-32.3973
-26.6102
-21.748
-17.6854
-14.3099
-11.5208
-9.22893
-7.35596
-5.83375
-4.60337
-3.61429
-2.82351
-2.1947
-1.69739
-1.3062
-1.00013
-0.761957
-0.5776
-0.435662
-0.326963
-0.244162
-0.181421
-0.134131
-0.0986752
-0.0722312
-0.052612
-0.0381324
-0.027502
-0.0197387
-0.0140994
-0.0100257
-0.00710005
-0.00501291
-0.0035363
-0.00250401
-0.00179656
-0.00132997
-0.00104764
-0.000914758
-1401.25
-1391.5
-1372.27
-1344.13
-1307.84
-1264.34
-1214.67
-1159.93
-1101.23
-1039.63
-976.132
-911.668
-847.065
-783.058
-720.283
-659.281
-600.506
-544.32
-491.011
-440.79
-393.8
-350.124
-309.789
-272.775
-239.019
-208.42
-180.853
-156.163
-134.182
-114.728
-97.6102
-82.6356
-69.6114
-58.3487
-48.6648
-40.3857
-33.3478
-27.3987
-22.3983
-18.2188
-14.7449
-11.8735
-9.51337
-7.5841
-6.01573
-4.74774
-3.72822
-2.91293
-2.26452
-1.75161
-1.34809
-1.03232
-0.786566
-0.596315
-0.449821
-0.33762
-0.252142
-0.187366
-0.138537
-0.101924
-0.0746147
-0.0543517
-0.0393958
-0.0284149
-0.0203951
-0.0145691
-0.0103602
-0.00733734
-0.00518071
-0.00365484
-0.00258807
-0.00185696
-0.00137475
-0.00108297
-0.000945625
-1382.46
-1373.35
-1355.37
-1328.98
-1294.83
-1253.73
-1206.57
-1154.34
-1098.04
-1038.64
-977.097
-914.298
-851.062
-788.126
-726.142
-665.676
-607.21
-551.141
-497.786
-447.388
-400.121
-356.093
-315.356
-277.908
-243.702
-212.653
-184.645
-159.532
-137.152
-117.327
-99.8675
-84.5829
-71.2801
-59.7693
-49.8666
-41.3961
-34.1921
-28.1001
-22.9775
-18.6943
-15.1331
-12.1886
-9.76772
-7.78827
-6.17872
-4.87716
-3.83041
-2.9932
-2.32722
-1.80034
-1.38575
-1.06128
-0.808716
-0.613168
-0.462577
-0.347226
-0.259337
-0.192728
-0.142513
-0.104857
-0.0767669
-0.0559231
-0.0405373
-0.02924
-0.0209885
-0.0149938
-0.0106628
-0.00755201
-0.00533254
-0.00376214
-0.00266418
-0.00191166
-0.00141531
-0.00111496
-0.000973591
-1367.15
-1358.54
-1341.52
-1316.49
-1284.02
-1244.8
-1199.64
-1149.42
-1095.06
-1037.47
-977.556
-916.165
-854.103
-792.106
-730.834
-670.87
-612.714
-556.789
-503.438
-452.93
-405.46
-361.162
-320.104
-282.303
-247.728
-216.305
-187.926
-162.456
-139.736
-119.593
-101.84
-86.2884
-72.7443
-61.0181
-50.9247
-42.2871
-34.9377
-28.7202
-23.4902
-19.1157
-15.4775
-12.4685
-9.9938
-7.96991
-6.32385
-4.99247
-3.92154
-3.06482
-2.38321
-1.84387
-1.41942
-1.08719
-0.828538
-0.628257
-0.474004
-0.355834
-0.265788
-0.197537
-0.14608
-0.107489
-0.0786991
-0.0573343
-0.0415628
-0.0299814
-0.0215219
-0.0153757
-0.0109349
-0.00774513
-0.00546917
-0.00385871
-0.00273269
-0.00196091
-0.00145184
-0.00114379
-0.000998786
-1354.68
-1346.46
-1330.18
-1306.21
-1275.05
-1237.31
-1193.74
-1145.14
-1092.36
-1036.25
-977.678
-917.468
-856.406
-795.223
-734.581
-675.073
-617.215
-561.448
-508.134
-457.562
-409.948
-365.442
-324.132
-286.047
-251.169
-219.436
-190.749
-164.978
-141.971
-121.558
-103.555
-87.7733
-74.0215
-62.1092
-51.8508
-43.068
-35.5921
-29.2652
-23.9414
-19.487
-15.7812
-12.7155
-10.1936
-8.13056
-6.45231
-5.09462
-4.00232
-3.12836
-2.43291
-1.88254
-1.44934
-1.11022
-0.846174
-0.641689
-0.48418
-0.363503
-0.271538
-0.201826
-0.149262
-0.109838
-0.080424
-0.0585946
-0.0424789
-0.030644
-0.0219987
-0.0157171
-0.0111783
-0.00791788
-0.00559141
-0.00394514
-0.00279403
-0.00200502
-0.00148456
-0.00116961
-0.00102136
-1344.53
-1336.6
-1320.91
-1297.76
-1267.63
-1231.07
-1188.76
-1141.46
-1089.94
-1035.05
-977.584
-918.359
-858.143
-797.656
-737.564
-678.464
-620.884
-565.276
-512.019
-461.417
-413.703
-369.041
-327.532
-289.219
-254.096
-222.108
-193.164
-167.142
-143.894
-123.251
-105.036
-89.0586
-75.1291
-63.0571
-52.6565
-43.7485
-36.1631
-29.7414
-24.3361
-19.8122
-16.0475
-12.9323
-10.3691
-8.27181
-6.56535
-5.18459
-4.07352
-3.1844
-2.47678
-1.91669
-1.47579
-1.13059
-0.861775
-0.653578
-0.493191
-0.370298
-0.276634
-0.205628
-0.152085
-0.111922
-0.0819552
-0.0597137
-0.0432926
-0.0312327
-0.0224224
-0.0160207
-0.0113947
-0.00807156
-0.00570018
-0.00402206
-0.00284863
-0.00204429
-0.0015137
-0.00119262
-0.00104147
-1336.26
-1328.57
-1313.33
-1290.84
-1261.51
-1225.88
-1184.58
-1138.31
-1087.83
-1033.91
-977.361
-918.953
-859.445
-799.551
-739.932
-681.192
-623.863
-568.409
-515.22
-464.612
-416.83
-372.051
-330.387
-291.894
-256.571
-224.374
-195.219
-168.988
-145.537
-124.703
-106.308
-90.1648
-76.0841
-63.8757
-53.3536
-44.338
-36.6586
-30.1551
-24.6793
-20.0953
-16.2796
-13.1215
-10.5224
-8.39529
-6.66426
-5.26336
-4.13591
-3.23354
-2.51527
-1.94668
-1.49902
-1.14849
-0.875498
-0.66404
-0.501125
-0.376283
-0.281125
-0.208981
-0.154574
-0.113761
-0.0833067
-0.0607018
-0.0440114
-0.0317528
-0.022797
-0.0162891
-0.0115861
-0.00820749
-0.00579643
-0.00409014
-0.00289696
-0.00207906
-0.00153952
-0.001213
-0.00105929
-1329.54
-1322.03
-1307.15
-1285.16
-1256.47
-1221.58
-1181.08
-1135.64
-1085.99
-1032.87
-977.068
-919.335
-860.417
-801.021
-741.808
-683.38
-626.276
-570.965
-517.848
-467.248
-419.422
-374.557
-332.774
-294.137
-258.654
-226.288
-196.959
-170.555
-146.936
-125.941
-107.394
-91.1115
-76.9029
-64.5788
-53.9531
-44.8459
-37.0859
-30.5124
-24.9762
-20.3404
-16.4808
-13.2856
-10.6555
-8.50262
-6.7503
-5.33195
-4.19027
-3.27638
-2.54886
-1.97286
-1.51932
-1.16414
-0.8875
-0.673195
-0.508071
-0.381525
-0.285061
-0.21192
-0.156757
-0.115374
-0.0844929
-0.0615694
-0.0446427
-0.0322098
-0.0231261
-0.016525
-0.0117544
-0.00832707
-0.00588111
-0.00415005
-0.00293952
-0.00210968
-0.00156225
-0.00123095
-0.001075
-1324.08
-1316.72
-1302.11
-1280.53
-1252.35
-1218.04
-1178.17
-1133.4
-1084.41
-1031.94
-976.745
-919.566
-861.138
-802.16
-743.289
-685.13
-628.223
-573.043
-519.996
-469.415
-421.563
-376.635
-334.76
-296.01
-260.398
-227.894
-198.423
-171.877
-148.119
-126.99
-108.317
-91.9172
-77.601
-65.1793
-54.4659
-45.2809
-37.4524
-30.8193
-25.2315
-20.5514
-16.6541
-13.4272
-10.7704
-8.59537
-6.82472
-5.39131
-4.23737
-3.31353
-2.57799
-1.99558
-1.53695
-1.17774
-0.897937
-0.681161
-0.514118
-0.386091
-0.28849
-0.214482
-0.158662
-0.116782
-0.0855283
-0.0623269
-0.045194
-0.0326091
-0.0234138
-0.0167313
-0.0119016
-0.00843167
-0.00595521
-0.0042025
-0.00297677
-0.0021365
-0.00158217
-0.00124668
-0.00108876
-1319.66
-1312.41
-1298.02
-1276.76
-1248.97
-1215.12
-1175.76
-1131.52
-1083.07
-1031.12
-976.421
-919.695
-861.669
-803.039
-744.457
-686.526
-629.789
-574.726
-521.746
-471.188
-423.322
-378.349
-336.405
-297.565
-261.852
-229.237
-199.65
-172.987
-149.114
-127.875
-109.097
-92.5993
-78.1929
-65.6892
-54.9021
-45.6514
-37.7651
-31.0813
-25.4497
-20.732
-16.8027
-13.5486
-10.8691
-8.67508
-6.88873
-5.44242
-4.27793
-3.34555
-2.60312
-2.0152
-1.55217
-1.1895
-0.906963
-0.688053
-0.519353
-0.390045
-0.291462
-0.216703
-0.160313
-0.118004
-0.0864269
-0.0629846
-0.045673
-0.0329561
-0.0236639
-0.0169106
-0.0120296
-0.00852266
-0.00601969
-0.00424815
-0.00300921
-0.00215985
-0.00159952
-0.00126039
-0.00110075
-1316.08
-1308.92
-1294.71
-1273.69
-1246.22
-1212.74
-1173.78
-1129.96
-1081.94
-1030.41
-976.11
-919.753
-862.059
-803.715
-745.374
-687.636
-631.046
-576.085
-523.167
-472.635
-424.763
-379.758
-337.761
-298.852
-263.057
-230.353
-200.673
-173.915
-149.947
-128.617
-109.753
-93.1736
-78.6921
-66.1199
-55.2711
-45.9653
-38.0303
-31.3039
-25.6353
-20.8858
-16.9293
-13.6522
-10.9533
-8.74319
-6.94347
-5.48616
-4.31268
-3.373
-2.62468
-2.03204
-1.56525
-1.1996
-0.914724
-0.693983
-0.523859
-0.393451
-0.294022
-0.218618
-0.161737
-0.119057
-0.0872025
-0.0635525
-0.0460866
-0.0332558
-0.02388
-0.0170657
-0.0121404
-0.00860139
-0.00607549
-0.00428766
-0.00303729
-0.00218008
-0.00161455
-0.00127227
-0.00111114
-1313.2
-1306.1
-1292.03
-1271.21
-1243.98
-1210.79
-1172.15
-1128.67
-1080.99
-1029.8
-975.823
-919.766
-862.342
-804.235
-746.092
-688.516
-632.05
-577.178
-524.315
-473.809
-425.938
-380.911
-338.874
-299.911
-264.052
-231.277
-201.521
-174.686
-150.642
-129.236
-110.301
-93.6545
-79.1109
-66.4818
-55.5816
-46.2297
-38.254
-31.4919
-25.7922
-21.016
-17.0366
-13.7401
-11.0249
-8.80107
-6.99003
-5.52339
-4.34229
-3.3964
-2.64308
-2.04642
-1.57643
-1.20823
-0.921361
-0.699056
-0.527717
-0.396368
-0.296216
-0.220259
-0.162959
-0.119962
-0.0878683
-0.0640402
-0.046442
-0.0335134
-0.0240658
-0.017199
-0.0122356
-0.00866912
-0.00612351
-0.00432168
-0.00306148
-0.00219751
-0.0016275
-0.00128251
-0.0011201
-1310.88
-1303.83
-1289.87
-1269.2
-1242.17
-1209.21
-1170.82
-1127.61
-1080.2
-1029.29
-975.566
-919.751
-862.547
-804.632
-746.654
-689.212
-632.851
-578.054
-525.241
-474.76
-426.892
-381.85
-339.783
-300.779
-264.87
-232.037
-202.221
-175.323
-151.217
-129.751
-110.757
-94.0552
-79.4603
-66.7843
-55.8414
-46.4513
-38.4417
-31.6498
-25.9242
-21.1255
-17.127
-13.8142
-11.0853
-8.84999
-7.02941
-5.55491
-4.36736
-3.41624
-2.65868
-2.05862
-1.58591
-1.21557
-0.927005
-0.703373
-0.531001
-0.398853
-0.298086
-0.221659
-0.164
-0.120733
-0.0884365
-0.0644566
-0.0467455
-0.0337335
-0.0242246
-0.017313
-0.012317
-0.00872707
-0.00616461
-0.0043508
-0.00308219
-0.00221243
-0.00163859
-0.00129128
-0.00112778
-1309.01
-1302.01
-1288.13
-1267.58
-1240.71
-1207.92
-1169.74
-1126.74
-1079.55
-1028.85
-975.339
-919.72
-862.693
-804.936
-747.092
-689.761
-633.487
-578.755
-525.984
-475.526
-427.663
-382.612
-340.523
-301.487
-265.538
-232.661
-202.796
-175.848
-151.691
-130.176
-111.134
-94.3873
-79.7504
-67.0356
-56.0576
-46.636
-38.5983
-31.7817
-26.0346
-21.2173
-17.2027
-13.8764
-11.136
-8.8911
-7.06254
-5.58144
-4.38849
-3.43296
-2.67184
-2.06892
-1.59393
-1.22178
-0.931779
-0.707026
-0.533781
-0.400957
-0.29967
-0.222845
-0.164884
-0.121388
-0.088919
-0.0648102
-0.0470034
-0.0339206
-0.0243596
-0.0174099
-0.0123863
-0.00877639
-0.0061996
-0.0043756
-0.00309983
-0.00222515
-0.00164805
-0.00129876
-0.00113433
-1307.52
-1300.55
-1286.73
-1266.29
-1239.53
-1206.89
-1168.87
-1126.03
-1079.02
-1028.49
-975.142
-919.68
-862.796
-805.167
-747.433
-690.193
-633.991
-579.313
-526.578
-476.141
-428.285
-383.228
-341.123
-302.062
-266.082
-233.169
-203.266
-176.278
-152.081
-130.525
-111.444
-94.6612
-79.9899
-67.2435
-56.2367
-46.7892
-38.7283
-31.8914
-26.1264
-21.2937
-17.2659
-13.9283
-11.1783
-8.92547
-7.09025
-5.60366
-4.40619
-3.44698
-2.68289
-2.07757
-1.60067
-1.22699
-0.935793
-0.710101
-0.536122
-0.40273
-0.301006
-0.223845
-0.165629
-0.12194
-0.0893263
-0.0651089
-0.0472213
-0.0340787
-0.0244738
-0.0174919
-0.012445
-0.00881813
-0.00622922
-0.00439659
-0.00311477
-0.00223592
-0.00165606
-0.0013051
-0.00113988
-1306.33
-1299.39
-1285.62
-1265.25
-1238.59
-1206.06
-1168.16
-1125.46
-1078.58
-1028.19
-974.974
-919.637
-862.869
-805.342
-747.697
-690.531
-634.389
-579.756
-527.052
-476.633
-428.783
-383.723
-341.607
-302.527
-266.523
-233.582
-203.649
-176.629
-152.398
-130.81
-111.699
-94.8858
-80.1867
-67.4146
-56.3842
-46.9155
-38.8357
-31.982
-26.2024
-21.357
-17.3183
-13.9713
-11.2135
-8.95404
-7.11331
-5.62215
-4.42094
-3.45868
-2.6921
-2.08479
-1.60629
-1.23135
-0.939152
-0.712673
-0.538082
-0.404215
-0.302125
-0.224684
-0.166255
-0.122404
-0.0896682
-0.0653598
-0.0474043
-0.0342116
-0.0245698
-0.0175609
-0.0124943
-0.00885326
-0.00625416
-0.00441428
-0.00312736
-0.002245
-0.00166282
-0.00131045
-0.00114456
-1305.38
-1298.46
-1284.73
-1264.42
-1237.83
-1205.39
-1167.59
-1124.99
-1078.22
-1027.94
-974.832
-919.595
-862.919
-805.474
-747.901
-690.796
-634.702
-580.106
-527.429
-477.025
-429.182
-384.12
-341.995
-302.902
-266.879
-233.916
-203.958
-176.913
-152.657
-131.043
-111.906
-95.0692
-80.3476
-67.5545
-56.5051
-47.0191
-38.9239
-32.0565
-26.265
-21.4091
-17.3615
-14.0069
-11.2426
-8.97767
-7.13239
-5.63747
-4.43316
-3.46837
-2.69975
-2.09079
-1.61097
-1.23497
-0.941946
-0.714815
-0.539715
-0.405453
-0.303058
-0.225384
-0.166777
-0.122791
-0.0899538
-0.0655694
-0.0475573
-0.0343227
-0.02465
-0.0176186
-0.0125356
-0.00888267
-0.00627504
-0.00442909
-0.00313791
-0.00225261
-0.00166848
-0.00131493
-0.00114849
-1304.63
-1297.72
-1284.03
-1263.76
-1237.23
-1204.86
-1167.13
-1124.62
-1077.94
-1027.74
-974.714
-919.556
-862.953
-805.574
-748.059
-691.002
-634.948
-580.382
-527.726
-477.336
-429.499
-384.437
-342.306
-303.202
-267.165
-234.185
-204.208
-177.142
-152.866
-131.231
-112.074
-95.2182
-80.4784
-67.6685
-56.6037
-47.1037
-38.996
-32.1175
-26.3162
-21.4519
-17.3969
-14.0361
-11.2665
-8.9971
-7.1481
-5.65009
-4.44324
-3.47637
-2.70606
-2.09574
-1.61483
-1.23797
-0.944258
-0.716588
-0.541067
-0.406479
-0.303832
-0.225964
-0.16721
-0.123112
-0.090191
-0.0657435
-0.0476845
-0.0344151
-0.0247168
-0.0176667
-0.0125699
-0.00890715
-0.00629243
-0.00444143
-0.0031467
-0.00225895
-0.00167321
-0.00131867
-0.00115176
-1304.03
-1297.14
-1283.47
-1263.24
-1236.76
-1204.44
-1166.77
-1124.32
-1077.7
-1027.57
-974.616
-919.52
-862.975
-805.649
-748.18
-691.162
-635.14
-580.599
-527.961
-477.582
-429.751
-384.689
-342.553
-303.441
-267.393
-234.4
-204.408
-177.327
-153.034
-131.383
-112.21
-95.3385
-80.5842
-67.7609
-56.6836
-47.1723
-39.0545
-32.1671
-26.3579
-21.4867
-17.4258
-14.0599
-11.286
-9.013
-7.16096
-5.66043
-4.45151
-3.48294
-2.71125
-2.09981
-1.61801
-1.24044
-0.94616
-0.718048
-0.542181
-0.407324
-0.30447
-0.226443
-0.167567
-0.123378
-0.090387
-0.0658874
-0.0477897
-0.0344915
-0.0247721
-0.0177064
-0.0125984
-0.00892743
-0.00630684
-0.00445166
-0.00315399
-0.00226421
-0.00167713
-0.00132177
-0.00115448
-1303.56
-1296.68
-1283.03
-1262.83
-1236.38
-1204.1
-1166.48
-1124.09
-1077.52
-1027.44
-974.535
-919.489
-862.99
-805.706
-748.273
-691.286
-635.29
-580.769
-528.145
-477.776
-429.949
-384.888
-342.749
-303.631
-267.575
-234.571
-204.568
-177.474
-153.168
-131.505
-112.319
-95.4353
-80.6695
-67.8353
-56.7481
-47.2278
-39.1019
-32.2073
-26.3917
-21.515
-17.4493
-14.0793
-11.3019
-9.02593
-7.17144
-5.66886
-4.45825
-3.4883
-2.71548
-2.10314
-1.62061
-1.24245
-0.947718
-0.719244
-0.543094
-0.408017
-0.304993
-0.226836
-0.167861
-0.123596
-0.090548
-0.0660057
-0.0478761
-0.0345544
-0.0248175
-0.0177391
-0.0126218
-0.00894413
-0.0063187
-0.00446009
-0.00315999
-0.00226855
-0.00168036
-0.00132433
-0.00115672
-1303.2
-1296.32
-1282.69
-1262.5
-1236.08
-1203.84
-1166.26
-1123.9
-1077.37
-1027.34
-974.469
-919.462
-862.999
-805.748
-748.344
-691.382
-635.406
-580.901
-528.29
-477.928
-430.105
-385.045
-342.904
-303.782
-267.719
-234.708
-204.695
-177.592
-153.276
-131.602
-112.406
-95.5128
-80.7378
-67.895
-56.7999
-47.2724
-39.14
-32.2396
-26.419
-21.5378
-17.4683
-14.095
-11.3147
-9.03641
-7.17992
-5.67569
-4.46371
-3.49265
-2.71892
-2.10584
-1.62272
-1.2441
-0.948986
-0.720218
-0.543838
-0.408583
-0.30542
-0.227157
-0.1681
-0.123774
-0.0906795
-0.0661024
-0.0479468
-0.0346058
-0.0248547
-0.0177659
-0.012641
-0.00895781
-0.00632843
-0.004467
-0.00316492
-0.00227211
-0.00168301
-0.00132643
-0.00115856
-1302.91
-1296.04
-1282.42
-1262.25
-1235.85
-1203.63
-1166.08
-1123.75
-1077.26
-1027.25
-974.416
-919.439
-863.004
-805.779
-748.398
-691.456
-635.496
-581.004
-528.402
-478.047
-430.228
-385.168
-343.026
-303.9
-267.833
-234.815
-204.796
-177.685
-153.361
-131.679
-112.476
-95.5745
-80.7922
-67.9427
-56.8413
-47.3081
-39.1706
-32.2655
-26.4408
-21.5561
-17.4835
-14.1076
-11.3251
-9.04484
-7.18676
-5.6812
-4.46813
-3.49616
-2.7217
-2.10803
-1.62443
-1.24542
-0.950013
-0.721008
-0.544441
-0.409041
-0.305766
-0.227417
-0.168295
-0.123918
-0.0907865
-0.0661811
-0.0480043
-0.0346477
-0.024885
-0.0177877
-0.0126566
-0.00896896
-0.00633636
-0.00447263
-0.00316893
-0.00227501
-0.00168517
-0.00132815
-0.00116007
-1302.69
-1295.82
-1282.21
-1262.05
-1235.67
-1203.47
-1165.94
-1123.63
-1077.16
-1027.18
-974.373
-919.42
-863.007
-805.802
-748.439
-691.513
-635.566
-581.084
-528.489
-478.139
-430.323
-385.264
-343.121
-303.993
-267.922
-234.9
-204.875
-177.758
-153.428
-131.74
-112.53
-95.6234
-80.8354
-67.9805
-56.8742
-47.3365
-39.1949
-32.2862
-26.4583
-21.5708
-17.4957
-14.1176
-11.3334
-9.0516
-7.19224
-5.68562
-4.47167
-3.49898
-2.72393
-2.10978
-1.6258
-1.24649
-0.950841
-0.721644
-0.544928
-0.409411
-0.306046
-0.227627
-0.168452
-0.124035
-0.090873
-0.0662447
-0.0480509
-0.0346815
-0.0249095
-0.0178053
-0.0126693
-0.00897799
-0.00634279
-0.0044772
-0.00317219
-0.00227737
-0.00168693
-0.00132954
-0.00116129
-1302.51
-1295.65
-1282.04
-1261.9
-1235.53
-1203.34
-1165.83
-1123.54
-1077.09
-1027.13
-974.339
-919.404
-863.009
-805.819
-748.47
-691.556
-635.619
-581.145
-528.557
-478.211
-430.397
-385.339
-343.196
-304.066
-267.992
-234.966
-204.937
-177.816
-153.481
-131.788
-112.574
-95.662
-80.8695
-68.0105
-56.9002
-47.359
-39.2141
-32.3026
-26.4721
-21.5824
-17.5054
-14.1256
-11.34
-9.05699
-7.19662
-5.68915
-4.4745
-3.50123
-2.72572
-2.11119
-1.6269
-1.24735
-0.951504
-0.722154
-0.545318
-0.409708
-0.306271
-0.227796
-0.168578
-0.124129
-0.0909425
-0.0662959
-0.0480883
-0.0347088
-0.0249293
-0.0178196
-0.0126795
-0.00898528
-0.00634797
-0.00448088
-0.00317482
-0.00227927
-0.00168834
-0.00133066
-0.00116227
-1302.38
-1295.52
-1281.92
-1261.78
-1235.42
-1203.25
-1165.74
-1123.47
-1077.03
-1027.09
-974.312
-919.391
-863.009
-805.832
-748.494
-691.589
-635.66
-581.192
-528.609
-478.266
-430.455
-385.397
-343.254
-304.122
-268.046
-235.018
-204.986
-177.861
-153.522
-131.826
-112.608
-95.6922
-80.8963
-68.034
-56.9207
-47.3767
-39.2293
-32.3155
-26.4831
-21.5916
-17.513
-14.132
-11.3452
-9.06126
-7.20009
-5.69195
-4.47674
-3.50303
-2.72714
-2.11231
-1.62778
-1.24803
-0.952032
-0.722561
-0.54563
-0.409945
-0.30645
-0.227931
-0.168679
-0.124204
-0.0909981
-0.0663368
-0.0481183
-0.0347306