/*--------------------------------*- C++ -*----------------------------------*\
  =========                 |
  \\      /  F ield         | OpenFOAM: The Open Source CFD Toolbox
   \\    /   O peration     | Website:  https://openfoam.org
    \\  /    A nd           | Version:  10
     \\/     M anipulation  |
\*---------------------------------------------------------------------------*/
FoamFile
{
    format      ascii;
    class       volScalarField;
    location    "467";
    object      gradTz;
}
// * * * * * * * * * * * * * * * * * * * * * * * * * * * * * * * * * * * * * //

dimensions      [0 -1 0 1 0 0 0];

internalField   nonuniform List<scalar> 
11250
(
-14341
-4136.63
-1516.7
-713.643
-409.577
-268.712
-192.171
-145.547
-114.746
-93.1399
-77.2638
-65.154
-55.6287
-47.9423
-41.6059
-36.2888
-31.7615
-27.8606
-24.4677
-21.4949
-18.876
-16.56
-14.5066
-12.6837
-11.0648
-9.6279
-8.35399
-7.22662
-6.23122
-5.35471
-4.58524
-3.912
-3.32506
-2.81529
-2.37431
-1.99437
-1.66843
-1.39
-1.15322
-0.952739
-0.783771
-0.642011
-0.523627
-0.425223
-0.343809
-0.276768
-0.221821
-0.177001
-0.140613
-0.111211
-0.0875669
-0.0686433
-0.0535697
-0.0416198
-0.0321914
-0.0247877
-0.0190015
-0.0145009
-0.0110168
-0.00833245
-0.00627404
-0.00470308
-0.00350985
-0.00260786
-0.00192931
-0.0014214
-0.00104321
-0.000763223
-0.000557354
-0.000407329
-0.000299435
-0.000223538
-0.000172337
-0.000140802
-0.000125789
-8227.11
-4825.34
-2733.06
-1641.79
-1065.39
-741.682
-546.477
-420.714
-334.952
-273.616
-227.966
-192.834
-165.019
-142.463
-123.798
-108.09
-94.6831
-83.1097
-73.0281
-64.184
-56.385
-49.482
-43.3578
-37.9179
-33.0847
-28.7929
-24.9868
-21.6175
-18.6419
-16.0212
-13.7202
-11.7065
-9.95081
-8.42576
-7.10633
-5.96949
-4.9941
-4.16086
-3.45218
-2.85214
-2.34639
-1.92205
-1.56768
-1.2731
-1.02937
-0.828663
-0.664162
-0.529973
-0.421027
-0.332997
-0.262203
-0.205543
-0.160409
-0.124628
-0.0963961
-0.0742267
-0.0569006
-0.0434237
-0.0329908
-0.0249524
-0.0187884
-0.0140841
-0.0105109
-0.00780973
-0.00577774
-0.00425672
-0.00312415
-0.00228567
-0.00166915
-0.00121987
-0.000896752
-0.000669459
-0.000516121
-0.000421682
-0.000376723
-5514.53
-4204.08
-2947.94
-2054.62
-1468.1
-1085.76
-830.99
-655.569
-530.464
-438.181
-367.973
-313.064
-269.064
-233.051
-203.035
-177.629
-155.847
-136.975
-120.486
-105.987
-93.1766
-81.8193
-71.7298
-62.7578
-54.779
-47.6886
-41.3963
-35.8232
-30.8989
-26.5602
-22.7493
-19.4134
-16.504
-13.9763
-11.789
-9.90397
-8.28643
-6.90443
-5.72888
-4.73343
-3.89432
-3.19022
-2.60216
-2.11329
-1.70879
-1.37567
-1.10262
-0.879872
-0.699021
-0.552883
-0.435355
-0.341286
-0.266352
-0.206944
-0.160069
-0.123258
-0.0944888
-0.0721106
-0.0547863
-0.041438
-0.0312021
-0.0233899
-0.017456
-0.0129702
-0.00959565
-0.00706963
-0.00518869
-0.00379617
-0.00277225
-0.00202607
-0.00148942
-0.00111192
-0.000857246
-0.000700395
-0.000625725
-4111.59
-3527.7
-2799.23
-2159.93
-1665.92
-1301.63
-1035.57
-839.591
-692.709
-580.301
-492.387
-422.169
-364.98
-317.574
-277.663
-243.61
-214.226
-188.634
-166.181
-146.368
-128.812
-113.211
-99.3253
-86.9575
-75.9439
-66.1455
-57.4417
-49.7264
-42.9046
-36.8904
-31.6051
-26.9766
-22.9383
-19.4286
-16.3905
-13.7717
-11.524
-9.60317
-7.96899
-6.58495
-5.41809
-4.43886
-3.62091
-2.94086
-2.3781
-1.91461
-1.53468
-1.22471
-0.973027
-0.769639
-0.60606
-0.475125
-0.370818
-0.288119
-0.222864
-0.171618
-0.131565
-0.100408
-0.0762876
-0.0577021
-0.0434496
-0.0325717
-0.0243088
-0.0180624
-0.0133632
-0.00984558
-0.0072262
-0.00528694
-0.00386099
-0.0028218
-0.00207442
-0.00154867
-0.00119398
-0.000975531
-0.000871536
-3291.43
-2994.8
-2560.25
-2118.93
-1733.07
-1418.35
-1169.27
-973.795
-819.86
-697.409
-598.693
-517.942
-450.915
-394.506
-346.435
-305.014
-268.987
-237.405
-209.548
-184.86
-162.905
-143.338
-125.878
-110.295
-96.3937
-84.0084
-72.9931
-63.2186
-54.5684
-46.9362
-40.2247
-34.3438
-29.2101
-24.7464
-20.8811
-17.5481
-14.6865
-12.2405
-10.1589
-8.39561
-6.90871
-5.66069
-4.61805
-3.75106
-3.03353
-2.44248
-1.95794
-1.56259
-1.24155
-0.982091
-0.7734
-0.606344
-0.473252
-0.367725
-0.284452
-0.219053
-0.167936
-0.128171
-0.0973837
-0.0736611
-0.0554683
-0.0415826
-0.0310347
-0.0230606
-0.0170615
-0.0125706
-0.00922645
-0.00675054
-0.00492993
-0.00360311
-0.00264885
-0.00197755
-0.00152467
-0.00124574
-0.00111295
-2766.46
-2598.4
-2326.69
-2021.14
-1727.82
-1468.31
-1248.31
-1065.54
-914.734
-790.121
-686.511
-599.602
-525.978
-462.979
-408.558
-361.143
-319.525
-282.768
-250.147
-221.089
-195.139
-171.93
-151.161
-132.578
-115.967
-101.141
-87.9358
-76.2033
-65.809
-56.6295
-48.5509
-41.4671
-35.2796
-29.8968
-25.2334
-21.2105
-17.7554
-14.801
-12.2861
-10.1551
-8.35783
-6.84894
-5.58811
-4.53951
-3.67153
-2.95647
-2.37017
-1.89174
-1.50319
-1.18914
-0.936513
-0.734269
-0.573132
-0.445358
-0.344523
-0.265326
-0.20342
-0.155259
-0.11797
-0.0892362
-0.0671992
-0.0503786
-0.0376007
-0.0279404
-0.0206724
-0.0152315
-0.0111798
-0.00817992
-0.00597397
-0.00436627
-0.00320997
-0.00239653
-0.00184774
-0.00150973
-0.00134882
-2407.82
-2303.93
-2125.29
-1909.54
-1687.26
-1477.37
-1288.85
-1124.21
-982.451
-861.029
-756.99
-667.508
-590.109
-522.725
-463.678
-411.618
-365.471
-324.383
-287.669
-254.782
-225.274
-198.78
-174.992
-153.651
-134.529
-117.429
-102.172
-88.5975
-76.5563
-65.911
-56.5337
-48.3046
-41.1117
-34.8503
-29.4228
-24.7386
-20.7137
-17.2708
-14.3391
-11.8543
-9.75786
-7.99744
-6.52611
-5.30219
-4.2889
-3.45399
-2.76931
-2.21053
-1.75666
-1.38977
-1.09461
-0.858286
-0.669979
-0.520648
-0.402791
-0.310217
-0.237849
-0.181547
-0.137951
-0.104355
-0.0785878
-0.0589189
-0.0439766
-0.0326794
-0.0241795
-0.0178162
-0.0130773
-0.00956858
-0.00698835
-0.00510781
-0.00375524
-0.0028037
-0.00216173
-0.00176633
-0.00157809
-2151.02
-2082.2
-1959.05
-1802.6
-1632.56
-1463.43
-1304.05
-1158.7
-1028.7
-913.615
-812.169
-722.781
-643.864
-573.962
-511.812
-456.346
-406.677
-362.073
-321.934
-285.763
-253.147
-223.738
-197.24
-173.395
-151.977
-132.782
-115.624
-100.334
-86.7522
-74.7312
-64.1312
-54.8207
-46.6763
-39.5817
-33.4284
-28.1148
-23.547
-19.638
-16.3081
-13.4848
-11.1022
-9.10079
-7.42766
-6.03555
-4.88278
-3.93275
-3.15355
-2.51751
-2.00081
-1.58308
-1.24698
-0.97784
-0.763363
-0.593261
-0.458998
-0.353529
-0.271075
-0.206919
-0.157239
-0.118952
-0.0895849
-0.0671668
-0.050135
-0.0372573
-0.0275678
-0.0203136
-0.014911
-0.0109106
-0.00796877
-0.0058246
-0.00428236
-0.00319737
-0.00246533
-0.00201445
-0.0017998
-1960.72
-1912.51
-1823.89
-1707.12
-1574.93
-1437.9
-1303.51
-1176.36
-1058.75
-951.492
-854.439
-766.956
-688.193
-617.249
-553.265
-495.467
-443.178
-395.815
-352.881
-313.953
-278.67
-246.716
-217.818
-191.732
-168.237
-147.133
-128.233
-111.36
-96.352
-83.0512
-71.3097
-60.9868
-51.949
-44.0705
-37.2326
-31.3245
-26.2429
-21.8923
-18.1847
-15.0399
-12.385
-10.1543
-8.28897
-6.73654
-5.4507
-4.39079
-3.52129
-2.81142
-2.23466
-1.76829
-1.393
-1.09245
-0.852908
-0.662907
-0.512922
-0.395091
-0.302963
-0.231275
-0.175758
-0.132969
-0.100147
-0.0750898
-0.0560516
-0.0416561
-0.030824
-0.0227139
-0.0166736
-0.0122008
-0.00891144
-0.00651387
-0.0047893
-0.003576
-0.00275737
-0.00225315
-0.0020131
-1816.04
-1780.65
-1714.38
-1624.68
-1519.91
-1407.64
-1293.87
-1182.79
-1077.02
-977.963
-886.186
-801.708
-724.244
-653.353
-588.535
-529.294
-475.159
-425.704
-380.549
-339.355
-301.821
-267.679
-236.685
-208.617
-183.267
-160.442
-139.959
-121.642
-105.324
-90.8427
-78.0446
-66.7812
-56.9113
-48.3005
-40.8219
-34.3562
-28.7919
-24.0256
-19.962
-16.5139
-13.6018
-11.1543
-9.10696
-7.40262
-5.99063
-4.82646
-3.87123
-3.09122
-2.45736
-1.94473
-1.53216
-1.20171
-0.938297
-0.729338
-0.56437
-0.434754
-0.333402
-0.25453
-0.193444
-0.146358
-0.110238
-0.0826602
-0.061706
-0.0458606
-0.0339368
-0.0250088
-0.0183591
-0.0134348
-0.00981309
-0.00717323
-0.00527431
-0.00393829
-0.00303685
-0.0024816
-0.00221726
-1703.86
-1676.84
-1625.54
-1554.7
-1469.9
-1376.59
-1279.45
-1182.06
-1086.98
-995.837
-909.585
-828.671
-753.217
-683.137
-618.233
-558.248
-502.906
-451.93
-405.058
-362.038
-322.639
-286.642
-253.841
-224.039
-197.05
-172.69
-150.784
-131.159
-113.648
-98.088
-84.3195
-72.1893
-61.5501
-52.2605
-44.1864
-37.2014
-31.1867
-26.0319
-21.635
-17.9024
-14.749
-12.0977
-9.8792
-8.03185
-6.50096
-5.23846
-4.20232
-3.35607
-2.66824
-2.11189
-1.66404
-1.30528
-1.01927
-0.792357
-0.613189
-0.472401
-0.362301
-0.276613
-0.210242
-0.159078
-0.119826
-0.0898554
-0.067081
-0.0498582
-0.0368969
-0.0271916
-0.0199623
-0.0146087
-0.010671
-0.00780071
-0.00573592
-0.00428316
-0.00330292
-0.00269912
-0.00241166
-1615.59
-1594.22
-1553.25
-1495.79
-1425.69
-1346.9
-1263.02
-1177.04
-1091.27
-1007.38
-926.502
-849.331
-776.264
-707.48
-643.015
-582.815
-526.772
-474.747
-426.586
-382.128
-341.208
-303.66
-269.319
-238.019
-209.594
-183.878
-160.704
-139.906
-121.318
-104.779
-90.1263
-77.2034
-65.8581
-55.9437
-47.3202
-39.8548
-33.4226
-27.907
-23.2001
-19.2027
-15.8242
-12.9825
-10.604
-8.62278
-6.98053
-5.62584
-4.51379
-3.60534
-2.86682
-2.26935
-1.78833
-1.40294
-1.09564
-0.85181
-0.659261
-0.50794
-0.38959
-0.297471
-0.226112
-0.171099
-0.128889
-0.0966577
-0.0721636
-0.0536389
-0.039697
-0.0292566
-0.0214795
-0.0157197
-0.0114831
-0.00839475
-0.00617302
-0.00460976
-0.00355493
-0.00290517
-0.00259583
-1545.31
-1527.89
-1494.23
-1446.45
-1387.27
-1319.61
-1246.24
-1169.63
-1091.81
-1014.37
-938.478
-864.976
-794.435
-727.217
-663.536
-603.501
-547.143
-494.446
-445.353
-399.785
-357.645
-318.818
-283.18
-250.598
-220.929
-194.025
-169.731
-147.889
-128.338
-110.917
-95.4646
-81.8219
-69.8332
-59.3478
-50.2206
-42.3139
-35.4973
-29.649
-24.6556
-20.413
-16.8258
-13.8075
-11.2803
-9.17456
-7.42861
-5.98801
-4.80515
-3.83865
-3.05277
-2.41687
-1.90482
-1.49449
-1.16728
-0.907595
-0.702504
-0.541307
-0.415219
-0.317067
-0.241026
-0.182397
-0.13741
-0.103055
-0.0769444
-0.0571959
-0.0423319
-0.0312003
-0.0229076
-0.0167657
-0.0122479
-0.00895425
-0.00658475
-0.00491747
-0.0037924
-0.00309936
-0.0027694
-1488.86
-1474.26
-1445.87
-1405.21
-1354.24
-1295.14
-1230.1
-1161.13
-1090
-1018.15
-946.747
-876.69
-808.648
-743.109
-680.417
-620.803
-564.415
-511.337
-461.599
-415.198
-372.094
-332.226
-295.508
-261.84
-231.103
-203.166
-177.891
-155.126
-134.719
-116.511
-100.341
-86.0489
-73.4781
-62.4742
-52.8886
-44.5791
-37.4109
-31.2575
-26.0011
-21.5329
-17.7534
-14.5722
-11.9077
-9.68682
-7.84488
-6.32468
-5.07616
-4.05578
-3.22592
-2.5543
-2.01339
-1.57987
-1.2341
-0.959653
-0.742874
-0.572468
-0.439161
-0.335377
-0.254966
-0.192961
-0.145379
-0.109039
-0.0814176
-0.0605248
-0.0447983
-0.03302
-0.024245
-0.0177455
-0.0129643
-0.00947847
-0.0069706
-0.00520588
-0.00401501
-0.00328143
-0.00293216
-1443.18
-1430.64
-1406.14
-1370.78
-1326.04
-1273.57
-1215.13
-1152.36
-1086.79
-1019.72
-952.277
-885.357
-819.686
-755.83
-694.223
-635.191
-578.972
-525.731
-475.576
-428.565
-384.714
-344.009
-306.401
-271.82
-240.173
-211.348
-185.219
-161.647
-140.484
-121.577
-104.766
-89.8936
-76.7996
-65.3282
-55.3279
-46.653
-39.1652
-32.7339
-27.2375
-22.5631
-18.6076
-15.277
-12.4864
-10.1597
-8.22943
-6.6359
-5.32684
-4.25674
-3.38626
-2.68163
-2.11403
-1.65904
-1.29609
-1.00797
-0.780357
-0.601412
-0.461407
-0.352397
-0.267926
-0.202786
-0.152792
-0.114607
-0.085581
-0.0636239
-0.0470951
-0.0347149
-0.0254909
-0.0186584
-0.0136319
-0.00996712
-0.00733034
-0.00547482
-0.00422264
-0.00345126
-0.00308399
-1406.03
-1395.02
-1373.42
-1342.07
-1302.08
-1254.78
-1201.57
-1143.82
-1082.84
-1019.83
-955.814
-891.69
-828.201
-765.958
-705.459
-647.095
-591.175
-537.931
-487.532
-440.089
-395.671
-354.3
-315.966
-280.626
-248.21
-218.625
-191.759
-167.484
-145.66
-126.136
-108.759
-93.3694
-79.808
-67.9177
-57.5447
-48.5407
-40.7642
-34.0813
-28.3671
-23.5054
-19.3897
-15.9229
-13.0171
-10.5937
-8.58266
-6.92199
-5.55743
-4.44171
-3.53393
-2.79896
-2.20681
-1.73207
-1.3533
-1.05258
-0.814975
-0.628152
-0.481967
-0.368132
-0.279913
-0.211875
-0.159652
-0.119761
-0.0894359
-0.066494
-0.0492226
-0.0362853
-0.0266456
-0.0195046
-0.0142509
-0.0104203
-0.00766401
-0.00572432
-0.0044153
-0.00360888
-0.00322492
-1375.7
-1365.82
-1346.42
-1318.12
-1281.82
-1238.56
-1189.49
-1135.8
-1078.61
-1019
-957.924
-896.252
-834.727
-773.986
-714.562
-656.9
-601.358
-548.22
-497.705
-449.972
-405.13
-363.238
-324.317
-288.35
-255.29
-225.06
-197.562
-172.679
-150.278
-130.216
-112.34
-96.4929
-82.5169
-70.2535
-59.5476
-50.2488
-42.213
-35.3038
-29.3932
-24.3622
-20.1016
-16.5114
-13.5012
-10.9899
-8.90534
-7.18351
-5.76836
-4.61102
-3.66918
-2.90648
-2.29189
-1.79906
-1.40581
-1.09354
-0.846774
-0.652726
-0.500869
-0.382602
-0.29094
-0.220239
-0.165967
-0.124507
-0.0929866
-0.0691384
-0.0511833
-0.0377328
-0.0277102
-0.020285
-0.0148219
-0.0108383
-0.00797191
-0.0059546
-0.00459315
-0.00375441
-0.00335506
-1350.84
-1341.84
-1324.12
-1298.17
-1264.72
-1224.64
-1178.88
-1128.46
-1074.38
-1017.6
-959.03
-899.483
-839.697
-780.32
-721.911
-664.944
-609.817
-556.856
-506.319
-458.404
-413.253
-370.958
-331.567
-295.087
-261.49
-230.716
-202.68
-177.275
-154.376
-133.844
-115.532
-99.2836
-84.9418
-72.3483
-61.3469
-51.7856
-43.5184
-36.4067
-30.32
-25.1371
-20.746
-17.0446
-13.9402
-11.3496
-9.19848
-7.42127
-5.96027
-4.76515
-3.79238
-3.00448
-2.36947
-1.86019
-1.45374
-1.13094
-0.87583
-0.675189
-0.518153
-0.39584
-0.301031
-0.227896
-0.17175
-0.128855
-0.0962399
-0.0715619
-0.0529807
-0.0390603
-0.0286866
-0.021001
-0.0153459
-0.0112221
-0.00825458
-0.00616607
-0.0047565
-0.0038881
-0.00347461
-1330.44
-1322.11
-1305.68
-1281.55
-1250.34
-1212.76
-1169.65
-1121.87
-1070.34
-1015.91
-959.448
-901.723
-843.458
-785.3
-727.821
-671.519
-616.819
-564.076
-513.582
-465.564
-420.195
-377.593
-337.829
-300.932
-266.891
-235.661
-207.169
-181.319
-157.991
-137.054
-118.362
-101.763
-87.1004
-74.2164
-62.954
-53.1604
-44.6879
-37.396
-31.1525
-25.8339
-21.3262
-17.5251
-14.3362
-11.6742
-9.46332
-7.63625
-6.1339
-4.90471
-3.904
-3.09333
-2.43985
-1.91567
-1.49726
-1.16493
-0.902239
-0.695614
-0.533876
-0.407886
-0.310217
-0.234868
-0.177018
-0.132816
-0.0992053
-0.0737717
-0.05462
-0.0402712
-0.0295776
-0.0216544
-0.0158242
-0.0115725
-0.00851277
-0.00635926
-0.00490578
-0.00401029
-0.0035839
-1313.67
-1305.86
-1290.43
-1267.73
-1238.27
-1202.67
-1161.67
-1116.04
-1066.58
-1014.11
-959.409
-903.234
-846.284
-789.2
-732.56
-676.876
-622.593
-570.089
-519.679
-471.618
-426.1
-383.267
-343.21
-305.977
-271.57
-239.961
-211.086
-184.857
-161.163
-139.877
-120.857
-103.953
-89.0112
-75.873
-64.3817
-54.3835
-45.7298
-38.2787
-31.8961
-26.457
-21.8455
-17.9558
-14.6914
-11.9657
-9.70131
-7.82958
-6.29017
-5.0304
-4.0046
-3.17345
-2.50335
-1.96575
-1.53658
-1.19564
-0.926114
-0.714088
-0.548103
-0.418791
-0.318536
-0.241185
-0.181792
-0.136407
-0.101894
-0.0757761
-0.0561075
-0.0413703
-0.0303865
-0.0222478
-0.0162587
-0.0118908
-0.00874739
-0.00653486
-0.00504149
-0.0041214
-0.00368329
-1299.86
-1292.46
-1277.82
-1256.23
-1228.16
-1194.14
-1154.83
-1110.92
-1063.16
-1012.3
-959.079
-904.215
-848.393
-792.244
-736.349
-681.228
-627.339
-575.078
-524.779
-476.715
-431.101
-388.097
-347.813
-310.309
-275.605
-243.681
-214.485
-187.937
-163.931
-142.346
-123.044
-105.878
-90.6934
-77.334
-65.6429
-55.4657
-46.6531
-39.0619
-32.5568
-27.0112
-22.308
-18.3396
-15.0083
-12.226
-9.91401
-8.00251
-6.43005
-5.14299
-4.09476
-3.24531
-2.56033
-2.01072
-1.5719
-1.22324
-0.947587
-0.730711
-0.56091
-0.428611
-0.326031
-0.246878
-0.186096
-0.139646
-0.10432
-0.077585
-0.0574501
-0.0423626
-0.0311171
-0.0227839
-0.0166513
-0.0121786
-0.00895952
-0.00669366
-0.00516425
-0.00422193
-0.00377323
-1288.51
-1281.42
-1267.39
-1246.69
-1219.71
-1186.95
-1149
-1106.49
-1060.11
-1010.57
-958.577
-904.816
-849.953
-794.612
-739.371
-684.754
-631.229
-579.204
-529.028
-480.989
-435.318
-392.191
-351.731
-314.013
-279.067
-246.884
-217.42
-190.603
-166.334
-144.495
-124.952
-107.56
-92.1665
-78.6157
-66.7511
-56.4182
-47.4668
-39.753
-33.1405
-27.5015
-22.7176
-18.6799
-15.2895
-12.4572
-10.1031
-8.15636
-6.5546
-5.24331
-4.17516
-3.30942
-2.61121
-2.0509
-1.60346
-1.24793
-0.966798
-0.745589
-0.572378
-0.437408
-0.332747
-0.251981
-0.189956
-0.142552
-0.106498
-0.0792089
-0.0586559
-0.0432541
-0.0317736
-0.0232658
-0.0170043
-0.0124373
-0.00915033
-0.00683655
-0.00527473
-0.00431242
-0.0038542
-1279.16
-1272.33
-1258.78
-1238.78
-1212.67
-1180.91
-1144.05
-1102.67
-1057.42
-1008.97
-957.988
-905.149
-851.097
-796.447
-741.773
-687.602
-634.407
-582.605
-532.556
-484.56
-438.861
-395.647
-355.052
-317.164
-282.022
-249.627
-219.942
-192.901
-168.41
-146.356
-126.608
-109.023
-93.4497
-79.7342
-67.7198
-57.2519
-48.1801
-40.3597
-33.6536
-27.933
-23.0784
-18.98
-15.5377
-12.6615
-10.2703
-8.29252
-6.66492
-5.33222
-4.24647
-3.36632
-2.65639
-2.08659
-1.63153
-1.26989
-0.983896
-0.758837
-0.582594
-0.445249
-0.338736
-0.256534
-0.1934
-0.145146
-0.108442
-0.0806594
-0.0597333
-0.0440509
-0.0323605
-0.0236967
-0.01732
-0.0126689
-0.00932111
-0.00696446
-0.00537366
-0.00439347
-0.00392673
-1271.48
-1264.84
-1251.68
-1232.23
-1206.81
-1175.86
-1139.87
-1099.4
-1055.07
-1007.51
-957.368
-905.297
-851.927
-797.865
-743.679
-689.898
-636.997
-585.4
-535.475
-487.532
-441.825
-398.551
-357.855
-319.834
-284.535
-251.966
-222.099
-194.871
-170.195
-147.959
-128.037
-110.288
-94.5618
-80.7051
-68.562
-57.978
-48.8022
-40.8896
-34.1022
-28.3106
-23.3945
-19.2432
-15.7557
-12.841
-10.4174
-8.4124
-6.76211
-5.41062
-4.30939
-3.41656
-2.69631
-2.11815
-1.65636
-1.28932
-0.999034
-0.770573
-0.591648
-0.4522
-0.344048
-0.260573
-0.196458
-0.147449
-0.110169
-0.0819484
-0.060691
-0.0447593
-0.0328825
-0.02408
-0.017601
-0.012875
-0.00947318
-0.0070784
-0.00546181
-0.0044657
-0.00399137
-1265.17
-1258.69
-1245.83
-1226.81
-1201.95
-1171.64
-1136.35
-1096.62
-1053.03
-1006.2
-956.755
-905.321
-852.522
-798.956
-745.188
-691.743
-639.101
-587.69
-537.883
-489.997
-444.295
-400.982
-360.211
-322.085
-286.661
-253.952
-223.934
-196.552
-171.721
-149.333
-129.265
-111.377
-95.5206
-81.5438
-69.2907
-58.607
-49.3419
-41.3498
-34.4924
-28.6395
-23.6702
-19.4729
-15.9461
-12.998
-10.5461
-8.51739
-6.8473
-5.47939
-4.36462
-3.46069
-2.73139
-2.1459
-1.6782
-1.30643
-1.01237
-0.780916
-0.599631
-0.458332
-0.348735
-0.26414
-0.199158
-0.149484
-0.111695
-0.083088
-0.061538
-0.0453861
-0.0333444
-0.0244194
-0.0178498
-0.0130575
-0.00960791
-0.00717937
-0.00553994
-0.00452974
-0.00404869
-1259.99
-1253.63
-1241.02
-1222.35
-1197.93
-1168.13
-1133.4
-1094.27
-1051.29
-1005.05
-956.172
-905.266
-852.943
-799.793
-746.379
-693.223
-640.807
-589.561
-539.863
-492.035
-446.346
-403.009
-362.183
-323.976
-288.452
-255.629
-225.489
-197.98
-173.02
-150.506
-130.314
-112.309
-96.3433
-82.2644
-69.9178
-59.1492
-49.8077
-41.7476
-34.83
-28.9244
-23.9092
-19.6724
-16.1116
-13.1345
-10.6582
-8.60886
-6.92158
-5.5394
-4.41285
-3.49925
-2.76207
-2.17018
-1.69732
-1.32142
-1.02406
-0.789985
-0.606634
-0.463714
-0.352851
-0.267272
-0.201531
-0.151273
-0.113037
-0.0840904
-0.0622833
-0.0459378
-0.0337512
-0.0247183
-0.0180691
-0.0132184
-0.00972667
-0.00726841
-0.00560886
-0.00458625
-0.00409927
-1255.75
-1249.49
-1237.07
-1218.68
-1194.61
-1165.22
-1130.95
-1092.29
-1049.8
-1004.05
-955.635
-905.163
-853.234
-800.433
-747.317
-694.408
-642.186
-591.085
-541.485
-493.714
-448.044
-404.693
-363.826
-325.558
-289.954
-257.04
-226.8
-199.187
-174.121
-151.501
-131.207
-113.104
-97.0456
-82.8807
-70.4549
-59.6143
-50.2078
-42.0897
-35.1207
-29.17
-24.1155
-19.8446
-16.2547
-13.2527
-10.7552
-8.68816
-6.98602
-5.5915
-4.45474
-3.53278
-2.78875
-2.19132
-1.71398
-1.33447
-1.03424
-0.797895
-0.612746
-0.468413
-0.356446
-0.270009
-0.203605
-0.152837
-0.114212
-0.0849678
-0.0629358
-0.046421
-0.0341076
-0.0249802
-0.0182612
-0.0133595
-0.00983085
-0.00734652
-0.00566935
-0.00463584
-0.00414368
-1252.28
-1246.09
-1233.83
-1215.66
-1191.87
-1162.81
-1128.9
-1090.64
-1048.54
-1003.18
-955.15
-905.034
-853.432
-800.92
-748.054
-695.353
-643.298
-592.323
-542.811
-495.092
-449.444
-406.087
-365.191
-326.875
-291.21
-258.222
-227.902
-200.202
-175.049
-152.342
-131.963
-113.778
-97.6423
-83.4051
-70.9126
-60.0111
-50.5497
-42.3823
-35.3698
-29.3806
-24.2926
-19.9927
-16.3777
-13.3544
-10.8389
-8.75654
-7.04165
-5.63649
-4.49096
-3.56177
-2.81185
-2.20962
-1.72841
-1.3458
-1.04308
-0.804761
-0.618053
-0.472495
-0.359571
-0.27239
-0.205409
-0.154198
-0.115234
-0.0857318
-0.0635042
-0.046842
-0.0344182
-0.0252086
-0.0184288
-0.0134826
-0.00992176
-0.00741472
-0.00572216
-0.00467917
-0.00418248
-1249.44
-1243.33
-1231.18
-1213.19
-1189.62
-1160.83
-1127.21
-1089.26
-1047.48
-1002.44
-954.719
-904.896
-853.561
-801.29
-748.632
-696.106
-644.192
-593.325
-543.89
-496.22
-450.594
-407.236
-366.321
-327.968
-292.254
-259.208
-228.822
-201.053
-175.828
-153.05
-132.6
-114.347
-98.1468
-83.8492
-71.3008
-60.3481
-50.8404
-42.6315
-35.582
-29.5604
-24.4439
-20.1193
-16.4831
-13.4415
-10.9106
-8.81523
-7.08941
-5.67517
-4.5221
-3.58672
-2.83174
-2.22539
-1.74085
-1.35556
-1.05071
-0.81069
-0.622638
-0.476023
-0.362273
-0.274449
-0.206971
-0.155377
-0.116119
-0.0863938
-0.0639969
-0.0472071
-0.0346876
-0.0254068
-0.0185743
-0.0135894
-0.0100007
-0.00747396
-0.00576806
-0.00471682
-0.0042162
-1247.14
-1241.07
-1229.02
-1211.17
-1187.78
-1159.2
-1125.82
-1088.11
-1046.6
-1001.82
-954.342
-904.757
-853.643
-801.569
-749.083
-696.704
-644.909
-594.135
-544.767
-497.14
-451.535
-408.18
-367.251
-328.871
-293.119
-260.026
-229.588
-201.763
-176.48
-153.642
-133.135
-114.825
-98.5714
-84.2235
-71.6284
-60.633
-51.0864
-42.8426
-35.762
-29.713
-24.5724
-20.227
-16.5728
-13.5158
-10.9717
-8.86533
-7.13022
-5.70823
-4.54876
-3.60809
-2.84878
-2.23891
-1.75153
-1.36395
-1.05726
-0.815784
-0.626579
-0.479058
-0.364597
-0.276221
-0.208316
-0.156392
-0.116882
-0.0869645
-0.0644218
-0.047522
-0.0349201
-0.0255779
-0.0186999
-0.0136817
-0.0100689
-0.00752516
-0.00580774
-0.00474938
-0.00424537
-1245.27
-1239.23
-1227.26
-1209.53
-1186.28
-1157.86
-1124.67
-1087.17
-1045.86
-1001.29
-954.016
-904.625
-853.69
-801.779
-749.436
-697.178
-645.483
-594.787
-545.477
-497.888
-452.303
-408.953
-368.015
-329.615
-293.833
-260.704
-230.223
-202.352
-177.022
-154.136
-133.581
-115.225
-98.927
-84.5374
-71.9036
-60.8725
-51.2936
-43.0206
-35.914
-29.8419
-24.6812
-20.3181
-16.6488
-13.5788
-11.0237
-8.9079
-7.16492
-5.73637
-4.57145
-3.62629
-2.8633
-2.25045
-1.76064
-1.37111
-1.06286
-0.820139
-0.62995
-0.481654
-0.366588
-0.277739
-0.209468
-0.157263
-0.117537
-0.087454
-0.0647864
-0.0477924
-0.0351197
-0.0257248
-0.0188078
-0.0137611
-0.0101276
-0.0075692
-0.00584187
-0.0047774
-0.00427047
-1243.75
-1237.75
-1225.84
-1208.19
-1185.06
-1156.77
-1123.73
-1086.39
-1045.25
-1000.84
-953.737
-904.503
-853.714
-801.936
-749.71
-697.553
-645.941
-595.311
-546.049
-498.494
-452.928
-409.584
-368.64
-330.225
-294.419
-261.261
-230.747
-202.84
-177.471
-154.546
-133.952
-115.558
-99.2235
-84.7995
-72.1337
-61.0731
-51.4672
-43.1699
-36.0417
-29.9503
-24.7727
-20.395
-16.7129
-13.632
-11.0675
-8.94388
-7.19428
-5.76019
-4.59067
-3.64173
-2.87563
-2.26024
-1.76837
-1.37719
-1.06762
-0.823843
-0.632819
-0.483865
-0.368283
-0.279033
-0.21045
-0.158005
-0.118095
-0.0878719
-0.0650977
-0.0480233
-0.0352903
-0.0258504
-0.0189001
-0.0138289
-0.0101778
-0.00760689
-0.0058711
-0.0048014
-0.00429197
-1242.52
-1236.54
-1224.68
-1207.11
-1184.06
-1155.89
-1122.96
-1085.75
-1044.74
-1000.47
-953.5
-904.393
-853.723
-802.053
-749.923
-697.848
-646.306
-595.73
-546.51
-498.983
-453.434
-410.096
-369.149
-330.722
-294.9
-261.719
-231.178
-203.241
-177.841
-154.884
-134.259
-115.834
-99.4696
-85.0174
-72.3251
-61.2401
-51.612
-43.2947
-36.1484
-30.0411
-24.8494
-20.4594
-16.7667
-13.6767
-11.1044
-8.97415
-7.21899
-5.78025
-4.60687
-3.65474
-2.88603
-2.26851
-1.77491
-1.38234
-1.07165
-0.826979
-0.635249
-0.485738
-0.36972
-0.28013
-0.211284
-0.158635
-0.118569
-0.0882268
-0.0653622
-0.0482196
-0.0354354
-0.0259572
-0.0189786
-0.0138867
-0.0102205
-0.00763898
-0.00589599
-0.00482184
-0.0043103
-1241.53
-1235.58
-1223.75
-1206.23
-1183.26
-1155.17
-1122.34
-1085.23
-1044.33
-1000.17
-953.301
-904.296
-853.722
-802.139
-750.088
-698.081
-646.595
-596.065
-546.88
-499.377
-453.843
-410.511
-369.562
-331.127
-295.291
-262.092
-231.531
-203.57
-178.145
-155.163
-134.511
-116.062
-99.6729
-85.1976
-72.4837
-61.3787
-51.7322
-43.3983
-36.2371
-30.1166
-24.9133
-20.5131
-16.8116
-13.714
-11.1352
-8.99949
-7.23969
-5.79708
-4.62047
-3.66567
-2.89477
-2.27546
-1.78041
-1.38666
-1.07504
-0.82962
-0.637296
-0.487318
-0.370932
-0.281056
-0.211987
-0.159167
-0.118969
-0.0885268
-0.0655859
-0.0483856
-0.0355581
-0.0260476
-0.0190451
-0.0139356
-0.0102567
-0.00766617
-0.00591709
-0.00483917
-0.00432583
-1240.73
-1234.8
-1223
-1205.52
-1182.61
-1154.59
-1121.84
-1084.81
-1043.99
-999.916
-953.134
-904.211
-853.715
-802.203
-750.215
-698.263
-646.824
-596.332
-547.175
-499.693
-454.172
-410.845
-369.896
-331.456
-295.609
-262.396
-231.818
-203.839
-178.394
-155.391
-134.719
-116.248
-99.8401
-85.3459
-72.6144
-61.493
-51.8316
-43.484
-36.3106
-30.1792
-24.9663
-20.5577
-16.8489
-13.745
-11.1609
-9.0206
-7.25695
-5.81111
-4.63182
-3.6748
-2.90207
-2.28127
-1.78501
-1.39029
-1.07788
-0.831834
-0.639013
-0.488643
-0.37195
-0.281833
-0.212578
-0.159614
-0.119306
-0.0887791
-0.065774
-0.0485253
-0.0356614
-0.0261237
-0.0191011
-0.0139768
-0.0102872
-0.00768911
-0.00593489
-0.0048538
-0.00433894
-1240.1
-1234.17
-1222.4
-1204.96
-1182.09
-1154.12
-1121.43
-1084.46
-1043.72
-999.709
-952.996
-904.139
-853.705
-802.25
-750.313
-698.406
-647.005
-596.543
-547.411
-499.946
-454.435
-411.114
-370.165
-331.721
-295.866
-262.643
-232.051
-204.057
-178.596
-155.577
-134.888
-116.401
-99.977
-85.4676
-72.7217
-61.587
-51.9133
-43.5546
-36.3712
-30.2309
-25.0101
-20.5946
-16.8798
-13.7707
-11.1822
-9.0381
-7.27127
-5.82276
-4.64125
-3.68239
-2.90815
-2.28611
-1.78884
-1.39331
-1.08024
-0.83368
-0.640446
-0.489749
-0.3728
-0.282483
-0.213072
-0.159988
-0.119588
-0.0889902
-0.0659315
-0.0486423
-0.0357479
-0.0261875
-0.019148
-0.0140113
-0.0103128
-0.00770835
-0.00594983
-0.00486608
-0.00434995
-1239.59
-1233.67
-1221.92
-1204.51
-1181.67
-1153.74
-1121.1
-1084.19
-1043.49
-999.541
-952.882
-904.077
-853.693
-802.284
-750.389
-698.518
-647.147
-596.711
-547.598
-500.147
-454.646
-411.33
-370.381
-331.934
-296.074
-262.842
-232.24
-204.234
-178.761
-155.728
-135.026
-116.526
-100.089
-85.5668
-72.8093
-61.6638
-51.9802
-43.6125
-36.4209
-30.2733
-25.0461
-20.625
-16.9052
-13.7919
-11.1997
-9.05254
-7.28309
-5.83239
-4.64904
-3.68867
-2.91317
-2.29011
-1.79202
-1.39581
-1.08221
-0.835212
-0.641636
-0.490668
-0.373506
-0.283023
-0.213483
-0.160299
-0.119822
-0.089166
-0.0660628
-0.0487398
-0.0358201
-0.0262407
-0.0191872
-0.0140402
-0.0103341
-0.00772442
-0.00596231
-0.00487634
-0.00435915
-1239.18
-1233.27
-1221.54
-1204.14
-1181.34
-1153.44
-1120.84
-1083.96
-1043.31
-999.404
-952.788
-904.026
-853.681
-802.308
-750.446
-698.605
-647.259
-596.843
-547.746
-500.307
-454.814
-411.502
-370.554
-332.105
-296.24
-263.001
-232.392
-204.377
-178.893
-155.85
-135.137
-116.627
-100.179
-85.6475
-72.8806
-61.7264
-52.0347
-43.6597
-36.4615
-30.308
-25.0755
-20.6498
-16.926
-13.8093
-11.2141
-9.06439
-7.29281
-5.8403
-4.65545
-3.69383
-2.91732
-2.29342
-1.79464
-1.39788
-1.08383
-0.836478
-0.642619
-0.491427
-0.37409
-0.28347
-0.213823
-0.160557
-0.120016
-0.0893117
-0.0661715
-0.0488206
-0.0358799
-0.0262849
-0.0192197
-0.0140641
-0.0103519
-0.00773777
-0.00597268
-0.00488487
-0.0043668
-1238.86
-1232.96
-1221.23
-1203.86
-1181.07
-1153.2
-1120.63
-1083.79
-1043.17
-999.294
-952.712
-903.983
-853.669
-802.326
-750.49
-698.672
-647.346
-596.947
-547.863
-500.434
-454.947
-411.638
-370.692
-332.241
-296.373
-263.129
-232.513
-204.491
-179
-155.949
-135.227
-116.708
-100.252
-85.7127
-72.9383
-61.7771
-52.079
-43.698
-36.4945
-30.3362
-25.0995
-20.67
-16.943
-13.8234
-11.2259
-9.07408
-7.30075
-5.84678
-4.66071
-3.69807
-2.92071
-2.29612
-1.79679
-1.39957
-1.08516
-0.837518
-0.643427
-0.492053
-0.374571
-0.283837
-0.214104
-0.160769
-0.120177
-0.0894319
-0.0662613
-0.0488874
-0.0359293
-0.0263214
-0.0192465
-0.0140839
-0.0103665
-0.00774881
-0.00598126
-0.00489193
-0.00437314
-1238.61
-1232.71
-1220.99
-1203.63
-1180.86
-1153.01
-1120.46
-1083.64
-1043.05
-999.205
-952.65
-903.947
-853.658
-802.339
-750.524
-698.724
-647.414
-597.028
-547.955
-500.534
-455.052
-411.747
-370.801
-332.349
-296.479
-263.232
-232.611
-204.583
-179.085
-156.027
-135.299
-116.773
-100.311
-85.7652
-72.9848
-61.818
-52.1147
-43.729
-36.5212
-30.359
-25.1189
-20.6864
-16.9568
-13.8349
-11.2354
-9.08196
-7.30722
-5.85205
-4.66499
-3.70152
-2.92348
-2.29834
-1.79854
-1.40096
-1.08625
-0.838369
-0.644089
-0.492564
-0.374964
-0.284139
-0.214333
-0.160944
-0.120308
-0.0895305
-0.066335
-0.0489422
-0.0359699
-0.0263513
-0.0192686
-0.0141002
-0.0103786
-0.0077579
-0.00598832
-0.00489774
-0.00437835
-1238.4
-1232.51
-1220.8
-1203.45
-1180.7
-1152.86
-1120.33
-1083.53
-1042.96
-999.135
-952.601
-903.918
-853.649
-802.347
-750.549
-698.764
-647.467
-597.092
-548.027
-500.612
-455.135
-411.832
-370.887
-332.435
-296.563
-263.313
-232.688
-204.656
-179.153
-156.09
-135.357
-116.826
-100.358
-85.8073
-73.0222
-61.8509
-52.1434
-43.7539
-36.5427
-30.3774
-25.1346
-20.6997
-16.9679
-13.8443
-11.2431
-9.08834
-7.31246
-5.85633
-4.66846
-3.70432
-2.92573
-2.30013
-1.79997
-1.40209
-1.08714
-0.839062
-0.644628
-0.492981
-0.375286
-0.284385
-0.214521
-0.161086
-0.120415
-0.0896111
-0.0663952
-0.048987
-0.0360031
-0.0263758
-0.0192867
-0.0141135
-0.0103885
-0.00776534
-0.00599411
-0.0049025
-0.00438262
-1238.25
-1232.35
-1220.65
-1203.31
-1180.57
-1152.74
-1120.22
-1083.44
-1042.89
-999.078
-952.561
-903.894
-853.641
-802.354
-750.569
-698.795
-647.508
-597.141
-548.083
-500.674
-455.2
-411.9
-370.956
-332.503
-296.629
-263.377
-232.749
-204.714
-179.207
-156.14
-135.403
-116.867
-100.396
-85.8409