/*--------------------------------*- C++ -*----------------------------------*\
  =========                 |
  \\      /  F ield         | OpenFOAM: The Open Source CFD Toolbox
   \\    /   O peration     | Website:  https://openfoam.org
    \\  /    A nd           | Version:  10
     \\/     M anipulation  |
\*---------------------------------------------------------------------------*/
FoamFile
{
    format      ascii;
    class       volScalarField;
    location    "168";
    object      gradTz;
}
// * * * * * * * * * * * * * * * * * * * * * * * * * * * * * * * * * * * * * //

dimensions      [0 -1 0 1 0 0 0];

internalField   nonuniform List<scalar> 
11250
(
-14371.2
-4166.09
-1544.56
-739.218
-432.268
-288.056
-207.852
-157.399
-122.752
-97.4188
-78.053
-62.7866
-50.508
-40.5152
-32.3379
-25.6416
-20.174
-15.7342
-12.1561
-9.29815
-7.03824
-5.27048
-3.90338
-2.85856
-2.06966
-1.48132
-1.04798
-0.732801
-0.506441
-0.345915
-0.233507
-0.155782
-0.102712
-0.0669283
-0.0431
-0.0274291
-0.0172502
-0.0107197
-0.00658151
-0.00399157
-0.00239074
-0.00141371
-0.000825019
-0.00047496
-0.000269605
-0.000150815
-8.30933e-05
-4.50652e-05
-2.40449e-05
-1.26145e-05
-6.50367e-06
-3.29362e-06
-1.63768e-06
-7.9922e-07
-3.82671e-07
-1.79725e-07
-8.27724e-08
-3.73794e-08
-1.65488e-08
-7.185e-09
-3.05028e-09
-1.26116e-09
-5.3893e-10
-2.28304e-10
-7.90285e-11
-2.305e-11
-2.19524e-12
0
1.09762e-12
-1.09762e-12
0
-5.48809e-12
-1.09762e-12
6.5857e-12
0
-8317.65
-4913.44
-2816.4
-1718.29
-1133.26
-799.548
-593.388
-456.174
-358.909
-286.426
-230.339
-185.765
-149.715
-120.259
-96.0871
-76.2517
-60.0304
-46.843
-36.2053
-27.7027
-20.9754
-15.7108
-11.6379
-8.52425
-6.17267
-4.41852
-3.12629
-2.18628
-1.51107
-1.03219
-0.696816
-0.464903
-0.306542
-0.199756
-0.128644
-0.0818734
-0.0514923
-0.032
-0.0196477
-0.0119165
-0.00713774
-0.00422097
-0.00246345
-0.0014183
-0.000805151
-0.00045044
-0.000248203
-0.000134629
-7.18424e-05
-3.76961e-05
-1.94382e-05
-9.84579e-06
-4.89655e-06
-2.39007e-06
-1.14465e-06
-5.37699e-07
-2.47705e-07
-1.119e-07
-4.95443e-08
-2.15144e-08
-9.16511e-09
-3.79885e-09
-1.53337e-09
-6.19056e-10
-2.86478e-10
-1.17445e-10
-1.53666e-11
2.19523e-12
-1.09762e-12
-4.39047e-12
1.09762e-12
4.39047e-12
0
-8.78094e-12
8.78094e-12
-5664.53
-4350.04
-3086.03
-2181.37
-1580.56
-1181.65
-908.735
-714.349
-570.192
-459.444
-371.946
-301.395
-243.748
-196.301
-157.156
-124.906
-98.4543
-76.9013
-59.4849
-45.5449
-34.5037
-25.8555
-19.1601
-14.0386
-10.1686
-7.28072
-5.15253
-3.60395
-2.49133
-1.70204
-1.14918
-0.766802
-0.505659
-0.329542
-0.212245
-0.135092
-0.0849695
-0.0528087
-0.0324267
-0.0196689
-0.0117824
-0.00696836
-0.00406739
-0.00234209
-0.00132979
-0.00074409
-0.0004101
-0.000222498
-0.000118765
-6.23352e-05
-3.2154e-05
-1.62923e-05
-8.10558e-06
-3.95803e-06
-1.89636e-06
-8.91215e-07
-4.10745e-07
-1.85618e-07
-8.22181e-08
-3.57e-08
-1.52075e-08
-6.34533e-09
-2.58489e-09
-1.02627e-09
-4.32461e-10
-1.90985e-10
-5.1588e-11
-1.09762e-12
0
-1.09762e-11
0
1.20738e-11
1.09762e-12
-1.09762e-12
-1.09762e-12
-4319.73
-3730.24
-2990.84
-2335.82
-1822
-1434.72
-1143.5
-921.22
-747.91
-609.887
-497.984
-406.061
-329.932
-266.653
-214.064
-170.503
-134.625
-105.3
-81.5437
-62.4927
-47.3798
-35.5276
-26.3423
-19.3101
-13.9928
-10.0224
-7.09502
-4.96399
-3.43233
-2.34542
-1.58388
-1.05704
-0.697165
-0.454412
-0.292707
-0.186328
-0.11721
-0.0728546
-0.0447411
-0.0271417
-0.0162611
-0.0096187
-0.00561539
-0.00323413
-0.00183671
-0.00102802
-0.000566762
-0.000307603
-0.000164257
-8.62498e-05
-4.45108e-05
-2.25649e-05
-1.12324e-05
-5.48803e-06
-2.63099e-06
-1.23725e-06
-5.7059e-07
-2.58017e-07
-1.14385e-07
-4.9721e-08
-2.12005e-08
-8.84789e-09
-3.61884e-09
-1.46422e-09
-5.81737e-10
-2.22816e-10
-7.35404e-11
-1.53666e-11
-7.68332e-12
0
8.78094e-12
1.09762e-12
-9.87856e-12
0
0
-3555.89
-3252.16
-2803.74
-2342.45
-1931.44
-1587.54
-1306.5
-1077.63
-890.128
-735.139
-605.947
-497.614
-406.513
-329.922
-265.724
-212.202
-167.901
-131.55
-102.014
-78.2716
-59.4007
-44.5781
-33.0761
-24.2609
-17.5895
-12.6042
-8.92631
-6.24743
-4.3211
-2.95355
-1.99505
-1.33174
-0.878514
-0.572719
-0.368976
-0.234915
-0.147795
-0.0918795
-0.0564331
-0.0342401
-0.0205175
-0.0121388
-0.00708822
-0.00408346
-0.00231976
-0.00129884
-0.000716354
-0.000388967
-0.000207808
-0.000109179
-5.63776e-05
-2.85994e-05
-1.42462e-05
-6.96559e-06
-3.34189e-06
-1.57281e-06
-7.25966e-07
-3.28561e-07
-1.45768e-07
-6.34225e-08
-2.7064e-08
-1.13044e-08
-4.61987e-09
-1.85827e-09
-7.49673e-10
-3.0404e-10
-9.98832e-11
-2.305e-11
-5.48809e-12
-5.48809e-12
-2.19523e-12
4.39047e-12
0
-5.48809e-12
5.48809e-12
-3085.03
-2908.41
-2620.02
-2290.44
-1966.85
-1672.22
-1413.76
-1190.78
-999.564
-835.772
-695.456
-575.322
-472.688
-385.358
-311.487
-249.463
-197.845
-155.309
-120.631
-92.6783
-70.4128
-52.8926
-39.2773
-28.8297
-20.9146
-14.9949
-10.6244
-7.43893
-5.14709
-3.51928
-2.37787
-1.5877
-1.04761
-0.683103
-0.440178
-0.280299
-0.17638
-0.109669
-0.0673712
-0.0408843
-0.0245039
-0.0145006
-0.00846963
-0.00488077
-0.00277368
-0.00155363
-0.000857278
-0.000465731
-0.000248967
-0.000130888
-6.76358e-05
-3.43369e-05
-1.71181e-05
-8.37704e-06
-4.02267e-06
-1.89498e-06
-8.75526e-07
-3.96654e-07
-1.76164e-07
-7.67147e-08
-3.27551e-08
-1.36994e-08
-5.62858e-09
-2.28963e-09
-9.16511e-10
-3.36969e-10
-1.17445e-10
-3.95142e-11
-5.48809e-12
-1.09762e-11
-2.19523e-12
4.39047e-12
1.09762e-12
4.39047e-12
3.29285e-12
-2777.89
-2664.08
-2466.08
-2222.44
-1965.05
-1714.4
-1481.24
-1269.93
-1081.25
-914.335
-767.665
-639.582
-528.467
-432.794
-351.116
-282.044
-224.236
-176.385
-137.234
-105.585
-80.3167
-60.3949
-44.8885
-32.9738
-23.9371
-17.1721
-12.1732
-8.52733
-5.90257
-4.0373
-2.72877
-1.82253
-1.20288
-0.784535
-0.505652
-0.322058
-0.202697
-0.126057
-0.0774539
-0.0470128
-0.0281834
-0.0166823
-0.00974677
-0.00561865
-0.00319426
-0.00179002
-0.00098823
-0.000537189
-0.000287355
-0.000151179
-7.81829e-05
-3.97252e-05
-1.98224e-05
-9.70978e-06
-4.66736e-06
-2.20096e-06
-1.01798e-06
-4.61705e-07
-2.05316e-07
-8.95173e-08
-3.82597e-08
-1.60252e-08
-6.59339e-09
-2.66172e-09
-1.04054e-09
-4.24778e-10
-1.72326e-10
-4.28071e-11
-1.09762e-12
0
0
-4.39047e-12
-1.09762e-12
0
5.48809e-12
-2569.7
-2489.67
-2344.65
-2156.69
-1946.97
-1731.78
-1521.95
-1323.84
-1140.8
-974.274
-824.608
-691.544
-574.464
-472.524
-384.726
-309.961
-247.039
-194.724
-151.767
-116.94
-89.0659
-67.0466
-49.8791
-36.6697
-26.6391
-19.1224
-13.5633
-9.50575
-6.58271
-4.50427
-3.04545
-2.03468
-1.34328
-0.876339
-0.564956
-0.359911
-0.226569
-0.140932
-0.0866119
-0.0525831
-0.0315303
-0.0186685
-0.0109106
-0.00629179
-0.00357844
-0.00200627
-0.00110823
-0.000602794
-0.000322674
-0.000169892
-8.79346e-05
-4.47208e-05
-2.23368e-05
-1.09526e-05
-5.27044e-06
-2.48812e-06
-1.15212e-06
-5.2318e-07
-2.3293e-07
-1.01672e-07
-4.35085e-08
-1.82687e-08
-7.511e-09
-3.01186e-09
-1.19421e-09
-4.85147e-10
-1.99766e-10
-7.24428e-11
-2.19523e-12
1.20738e-11
1.09762e-12
-8.78094e-12
-8.78094e-12
4.39047e-12
1.09762e-11
-2424.88
-2364.26
-2251.43
-2099.78
-1923.66
-1735.63
-1545.38
-1359.79
-1183.43
-1019.17
-868.67
-732.762
-611.667
-505.164
-412.693
-333.435
-266.382
-210.394
-164.262
-126.753
-96.6621
-72.8444
-54.2438
-39.9116
-29.0154
-20.8416
-14.7911
-10.3715
-7.1855
-4.91872
-3.32689
-2.22344
-1.46834
-0.958184
-0.617875
-0.393714
-0.247903
-0.154235
-0.0948084
-0.0575723
-0.0345304
-0.0204504
-0.0119558
-0.00689703
-0.00392433
-0.00220128
-0.00121663
-0.00066218
-0.000354717
-0.000186911
-9.68275e-05
-4.92895e-05
-2.46434e-05
-1.20964e-05
-5.82721e-06
-2.75412e-06
-1.27681e-06
-5.80511e-07
-2.58776e-07
-1.13091e-07
-4.84774e-08
-2.03937e-08
-8.40446e-09
-3.37737e-09
-1.32812e-09
-5.14783e-10
-2.21719e-10
-7.90285e-11
0
-1.09762e-12
0
1.09762e-12
0
-1.09762e-12
0
-2322.39
-2273.5
-2180.85
-2053.17
-1900.54
-1732.71
-1558.07
-1383.31
-1213.5
-1052.3
-902.23
-764.918
-641.246
-531.516
-435.558
-352.83
-282.504
-223.554
-174.821
-135.092
-103.148
-77.8148
-57.9991
-42.7096
-31.072
-22.3331
-15.8587
-11.1257
-7.71154
-5.28098
-3.57323
-2.38887
-1.57806
-1.03007
-0.664397
-0.423458
-0.26669
-0.165959
-0.102037
-0.0619758
-0.0371805
-0.0220258
-0.0128807
-0.00743329
-0.00423122
-0.00237456
-0.00131313
-0.000715156
-0.000383368
-0.000202167
-0.000104821
-5.34081e-05
-2.67291e-05
-1.31339e-05
-6.33398e-06
-2.99706e-06
-1.39105e-06
-6.33202e-07
-2.8261e-07
-1.23667e-07
-5.30566e-08
-2.23211e-08
-9.24084e-09
-3.75166e-09
-1.47191e-09
-5.51004e-10
-2.09645e-10
-8.8907e-11
-2.305e-11
0
5.48809e-12
-2.19524e-12
-5.48809e-12
0
0
-2249.06
-2207.51
-2127.86
-2016.18
-1879.94
-1726.91
-1564.31
-1398.44
-1234.46
-1076.44
-927.451
-789.644
-664.408
-552.458
-453.953
-368.594
-295.724
-234.424
-183.601
-142.063
-108.596
-82.0078
-61.1787
-45.0865
-32.8241
-23.6071
-16.7726
-11.7728
-8.16365
-5.59284
-3.78561
-2.53169
-1.67291
-1.09228
-0.704695
-0.449246
-0.282993
-0.176141
-0.108319
-0.0658056
-0.0394871
-0.0233982
-0.0136873
-0.00790143
-0.00449947
-0.00252626
-0.00139776
-0.000761707
-0.0004086
-0.000215635
-0.000111897
-5.70644e-05
-2.85863e-05
-1.40607e-05
-6.78811e-06
-3.21546e-06
-1.49411e-06
-6.8088e-07
-3.04252e-07
-1.33296e-07
-5.72517e-08
-2.4119e-08
-9.97954e-09
-4.03813e-09
-1.59813e-09
-6.21252e-10
-2.42573e-10
-9.00046e-11
-1.09762e-11
0
1.09762e-12
-6.5857e-12
0
5.48809e-12
0
-2196.23
-2159.43
-2088.32
-1987.44
-1862.65
-1720.33
-1566.83
-1408
-1248.93
-1093.86
-946.185
-808.416
-682.296
-568.861
-468.532
-381.212
-306.396
-243.264
-190.786
-147.801
-113.101
-85.4901
-63.8294
-47.0746
-34.294
-24.6787
-17.5432
-12.3195
-8.54641
-5.85732
-3.96602
-2.65318
-1.75369
-1.14532
-0.739095
-0.471279
-0.296933
-0.184854
-0.1137
-0.0690879
-0.0414654
-0.0245762
-0.0143803
-0.00830401
-0.00473043
-0.00265706
-0.00147085
-0.000801981
-0.000430475
-0.000227339
-0.000118061
-6.02583e-05
-3.02132e-05
-1.48749e-05
-7.18829e-06
-3.40855e-06
-1.5855e-06
-7.23301e-07
-3.23556e-07
-1.41884e-07
-6.09979e-08
-2.57293e-08
-1.06546e-08
-4.31034e-09
-1.72875e-09
-7.06866e-10
-2.5794e-10
-7.57356e-11
-1.53666e-11
0
0
0
-2.19524e-12
-3.29285e-12
5.48809e-12
-2158.06
-2124.38
-2058.97
-1965.45
-1848.65
-1714.05
-1567.33
-1413.93
-1258.83
-1106.32
-959.96
-822.503
-695.939
-581.538
-479.925
-391.168
-314.885
-250.347
-196.578
-152.451
-116.771
-88.3385
-66.0059
-48.7125
-35.5086
-25.5666
-18.1833
-12.7746
-8.86568
-6.07834
-4.11702
-2.75502
-1.8215
-1.1899
-0.768033
-0.489833
-0.308682
-0.192203
-0.118241
-0.0718599
-0.0431372
-0.0255724
-0.0149667
-0.00864498
-0.00492623
-0.00276807
-0.00153297
-0.000836269
-0.000449133
-0.000237342
-0.000123341
-6.30009e-05
-3.16138e-05
-1.55778e-05
-7.53473e-06
-3.57613e-06
-1.66504e-06
-7.60324e-07
-3.40446e-07
-1.49437e-07
-6.43204e-08
-2.7143e-08
-1.12396e-08
-4.58475e-09
-1.83631e-09
-7.21135e-10
-2.75502e-10
-9.21999e-11
-1.75619e-11
0
-1.09762e-12
0
0
1.09762e-12
-1.09762e-12
-2130.45
-2098.85
-2037.29
-1948.83
-1837.62
-1708.55
-1566.81
-1417.53
-1265.55
-1115.16
-969.995
-832.963
-706.223
-591.214
-488.713
-398.917
-321.545
-255.941
-201.18
-156.166
-119.716
-90.6343
-67.7667
-50.0422
-36.4977
-26.2916
-18.7072
-13.148
-9.12813
-6.26035
-4.24158
-2.83916
-1.87759
-1.22682
-0.79203
-0.505232
-0.318442
-0.198312
-0.122018
-0.0741669
-0.0445293
-0.0264023
-0.0154554
-0.00892936
-0.00508966
-0.00286081
-0.00158491
-0.000864979
-0.000464779
-0.000245745
-0.000127786
-6.5314e-05
-3.27978e-05
-1.61734e-05
-7.82895e-06
-3.7188e-06
-1.73292e-06
-7.92003e-07
-3.54938e-07
-1.55936e-07
-6.71588e-08
-2.83657e-08
-1.17533e-08
-4.77793e-09
-1.90217e-09
-7.57356e-10
-3.18309e-10
-1.14152e-10
-1.64643e-11
-1.09762e-12
-4.39047e-12
-7.68332e-12
3.29285e-12
1.31714e-11
-3.29285e-12
-2110.51
-2080.32
-2021.38
-1936.39
-1829.1
-1703.97
-1565.86
-1419.66
-1270.08
-1121.39
-977.243
-840.655
-713.892
-598.513
-495.407
-404.869
-326.698
-260.298
-204.787
-159.092
-122.047
-92.4583
-69.1708
-51.106
-37.2914
-26.8751
-19.1299
-13.4499
-9.34077
-6.4081
-4.34287
-2.90768
-1.92334
-1.25697
-0.811644
-0.517832
-0.326433
-0.203318
-0.125114
-0.076059
-0.0456714
-0.0270833
-0.0158566
-0.00916287
-0.00522391
-0.00293704
-0.00162764
-0.000888613
-0.000477673
-0.000252679
-0.000131458
-6.72286e-05
-3.37795e-05
-1.66682e-05
-8.07389e-06
-3.83781e-06
-1.78965e-06
-8.18505e-07
-3.67082e-07
-1.61427e-07
-6.95813e-08
-2.93854e-08
-1.21638e-08
-4.95465e-09
-1.99766e-09
-8.18823e-10
-3.51238e-10
-1.09762e-10
-2.19524e-12
-4.39047e-12
4.39047e-12
5.48809e-12
-4.39047e-12
1.09762e-12
-1.09762e-12
-2096.15
-2066.92
-2009.77
-1927.18
-1822.62
-1700.3
-1564.81
-1420.88
-1273.12
-1125.74
-982.436
-846.257
-719.55
-603.956
-500.445
-409.385
-330.635
-263.648
-207.574
-161.365
-123.865
-93.8872
-70.2748
-51.9452
-37.9194
-27.3379
-19.4661
-13.6905
-9.51063
-6.52634
-4.42407
-2.96269
-1.96012
-1.28124
-0.827451
-0.527994
-0.332884
-0.20736
-0.127616
-0.0775881
-0.0465945
-0.0276338
-0.016181
-0.00935163
-0.00533243
-0.00299866
-0.00166219
-0.000907733
-0.00048811
-0.000258296
-0.000134436
-6.87827e-05
-3.45774e-05
-1.70708e-05
-8.27351e-06
-3.93498e-06
-1.83605e-06
-8.40216e-07
-3.77035e-07
-1.65896e-07
-7.15701e-08
-3.02657e-08
-1.25491e-08
-5.09075e-09
-2.04047e-09
-8.40775e-10
-3.58921e-10
-1.33909e-10
-1.86595e-11
-7.68332e-12
-1.09762e-12
9.87856e-12
9.87856e-12
1.09762e-12
-8.78094e-12
-2085.85
-2057.27
-2001.35
-1920.42
-1817.77
-1697.43
-1563.82
-1421.55
-1275.14
-1128.76
-986.126
-850.301
-723.684
-607.972
-504.193
-412.769
-333.606
-266.19
-209.7
-163.107
-125.264
-94.9913
-71.1309
-52.5981
-38.4094
-27.7001
-19.7297
-13.8797
-9.64442
-6.61965
-4.48826
-3.00625
-1.98928
-1.30051
-0.840012
-0.536077
-0.338018
-0.210579
-0.129609
-0.0788061
-0.0473297
-0.0280722
-0.0164391
-0.00950182
-0.00541874
-0.00304765
-0.00168965
-0.000922927
-0.000496404
-0.00026276
-0.000136803
-7.00191e-05
-3.52126e-05
-1.73917e-05
-8.43275e-06
-4.01258e-06
-1.87313e-06
-8.57606e-07
-3.85048e-07
-1.69509e-07
-7.31529e-08
-3.09484e-08
-1.28509e-08
-5.22795e-09
-2.09206e-09
-8.57239e-10
-3.74288e-10
-1.33909e-10
-1.20738e-11
-6.5857e-12
-4.39047e-12
6.5857e-12
4.39047e-12
8.78094e-12
-7.68332e-12
-2078.5
-2050.37
-1995.29
-1915.5
-1814.19
-1695.23
-1562.96
-1421.89
-1276.47
-1130.85
-988.729
-853.195
-726.674
-610.903
-506.95
-415.276
-335.819
-268.095
-211.301
-164.424
-126.327
-95.8331
-71.7858
-53.0991
-38.7865
-27.9795
-19.9336
-14.0263
-9.74836
-6.69228
-4.5383
-3.04026
-2.01209
-1.31559
-0.849855
-0.542416
-0.342046
-0.213106
-0.131173
-0.0797623
-0.0479067
-0.028416
-0.0166415
-0.00961945
-0.00548629
-0.00308596
-0.00171111
-0.000934787
-0.000502874
-0.000266241
-0.000138649
-7.09827e-05
-3.57078e-05
-1.76419e-05
-8.55696e-06
-4.07312e-06
-1.90213e-06
-8.71238e-07
-3.91317e-07
-1.72331e-07
-7.43998e-08
-3.1472e-08
-1.30792e-08
-5.33223e-09
-2.14035e-09
-8.68215e-10
-3.62214e-10
-1.39397e-10
-2.305e-11
-1.4269e-11
4.39047e-12
9.87856e-12
-3.29285e-12
4.39047e-12
-1.09762e-12
-2073.29
-2045.46
-1990.95
-1911.96
-1811.57
-1693.58
-1562.26
-1422.04
-1277.34
-1132.28
-990.55
-855.246
-728.816
-613.021
-508.957
-417.112
-337.449
-269.504
-212.492
-165.408
-127.125
-96.4665
-72.2803
-53.4784
-39.0728
-28.1922
-20.0893
-14.1384
-9.828
-6.74803
-4.57678
-3.06645
-2.02967
-1.32723
-0.857462
-0.547318
-0.345163
-0.215062
-0.132384
-0.0805021
-0.0483529
-0.0286817
-0.0167977
-0.00971014
-0.00553829
-0.00311541
-0.00172757
-0.000943878
-0.000507827
-0.000268902
-0.000140059
-7.17182e-05
-3.60855e-05
-1.78327e-05
-8.65167e-06
-4.11931e-06
-1.92423e-06
-8.81607e-07
-3.96099e-07
-1.74489e-07
-7.53657e-08
-3.19121e-08
-1.32384e-08
-5.39808e-09
-2.17219e-09
-8.63825e-10
-3.60019e-10
-1.55862e-10
-3.95142e-11
0
9.87856e-12
3.29285e-12
-1.4269e-11
-2.19523e-12
3.29285e-12
-2069.61
-2042
-1987.88
-1909.42
-1809.67
-1692.36
-1561.7
-1422.1
-1277.91
-1133.26
-991.815
-856.689
-730.336
-614.535
-510.401
-418.441
-338.636
-270.536
-213.367
-166.134
-127.715
-96.937
-72.6486
-53.7619
-39.2873
-28.352
-20.2064
-14.2231
-9.88821
-6.79026
-4.60598
-3.08635
-2.04305
-1.3361
-0.863261
-0.551058
-0.347542
-0.216554
-0.133308
-0.0810664
-0.048693
-0.0288839
-0.0169164
-0.00977896
-0.00557767
-0.00313767
-0.00174
-0.000950722
-0.000511548
-0.000270898
-0.000141114
-7.2268e-05
-3.63675e-05
-1.7975e-05
-8.72224e-06
-4.15371e-06
-1.94069e-06
-8.89363e-07
-3.99691e-07
-1.76113e-07
-7.60956e-08
-3.22217e-08
-1.3358e-08
-5.45516e-09
-2.20072e-09
-8.74801e-10
-3.63311e-10
-1.31714e-10
-2.52452e-11
-4.39047e-12
0
-1.09762e-12
0
0
1.09762e-12
-2067.04
-2039.57
-1985.72
-1907.63
-1808.32
-1691.48
-1561.28
-1422.1
-1278.28
-1133.92
-992.686
-857.694
-731.405
-615.607
-511.43
-419.393
-339.49
-271.281
-214.002
-166.663
-128.146
-97.282
-72.9196
-53.971
-39.446
-28.4704
-20.2935
-14.2861
-9.93313
-6.82182
-4.62783
-3.10127
-2.05309
-1.34277
-0.867623
-0.553872
-0.349333
-0.217678
-0.134003
-0.0814907
-0.0489484
-0.0290356
-0.0170053
-0.00983038
-0.00560704
-0.00315422
-0.00174921
-0.000955782
-0.000514292
-0.000272366
-0.000141888
-7.26706e-05
-3.65735e-05
-1.80788e-05
-8.77363e-06
-4.17871e-06
-1.95265e-06
-8.94976e-07
-4.02269e-07
-1.77293e-07
-7.66181e-08
-3.24664e-08
-1.34557e-08
-5.4837e-09
-2.21719e-09
-8.79192e-10
-3.42457e-10
-1.31714e-10
-4.39047e-11
-9.87856e-12
-2.19523e-12
6.58571e-12
-3.29285e-12
-7.68332e-12
8.78094e-12
-2065.26
-2037.88
-1984.22
-1906.38
-1807.36
-1690.84
-1560.96
-1422.07
-1278.51
-1134.36
-993.281
-858.388
-732.149
-616.358
-512.155
-420.067
-340.097
-271.813
-214.457
-167.043
-128.457
-97.5319
-73.1164
-54.1233
-39.5618
-28.5571
-20.3573
-14.3324
-9.9662
-6.84509
-4.64398
-3.11231
-2.06053
-1.34771
-0.870859
-0.555962
-0.350663
-0.218512
-0.134519
-0.0818053
-0.0491375
-0.0291478
-0.0170709
-0.00986822
-0.00562858
-0.00316632
-0.00175592
-0.000959459
-0.000516279
-0.000273425
-0.000142445
-7.29592e-05
-3.67209e-05
-1.81528e-05
-8.81025e-06
-4.19649e-06
-1.96112e-06
-8.98939e-07
-4.04094e-07
-1.78126e-07
-7.69726e-08
-3.26113e-08
-1.35534e-08
-5.52102e-09
-2.20511e-09
-8.64923e-10
-3.19407e-10
-1.27324e-10
-6.80523e-11
-3.07333e-11
0
1.20738e-11
-3.29285e-12
1.09762e-12
2.19524e-12
-2064.03
-2036.72
-1983.18
-1905.51
-1806.69
-1690.39
-1560.73
-1422.05
-1278.66
-1134.65
-993.684
-858.864
-732.662
-616.879
-512.66
-420.539
-340.524
-272.189
-214.779
-167.314
-128.679
-97.7106
-73.2576
-54.2328
-39.6453
-28.6197
-20.4035
-14.3659
-9.99023
-6.86204
-4.65575
-3.12037
-2.06597
-1.35132
-0.873228
-0.557492
-0.351637
-0.219123
-0.134897
-0.0820353
-0.0492756
-0.0292295
-0.0171186
-0.00989564
-0.00564414
-0.00317504
-0.00176074
-0.000962085
-0.000517692
-0.000274176
-0.000142838
-7.31621e-05
-3.68241e-05
-1.82045e-05
-8.83573e-06
-4.20882e-06
-1.96699e-06
-9.01691e-07
-4.05348e-07
-1.78683e-07
-7.72295e-08
-3.27299e-08
-1.35907e-08
-5.53748e-09
-2.20841e-09
-8.4297e-10
-3.3148e-10
-1.51471e-10
-5.81737e-11
-8.78094e-12
1.09762e-12
0
0
-1.09762e-11
1.20738e-11
-2063.2
-2035.92
-1982.46
-1904.91
-1806.23
-1690.08
-1560.56
-1422.02
-1278.75
-1134.85
-993.956
-859.186
-733.012
-617.237
-513.009
-420.866
-340.821
-272.452
-215.005
-167.504
-128.836
-97.8369
-73.3575
-54.3105
-39.7047
-28.6644
-20.4365
-14.39
-10.0075
-6.87421
-4.66422
-3.12618
-2.06989
-1.35393
-0.87494
-0.558598
-0.352341
-0.219565
-0.13517
-0.0822012
-0.049375
-0.0292882
-0.0171527
-0.00991522
-0.00565521
-0.00318121
-0.00176413
-0.000963929
-0.00051868
-0.000274697
-0.00014311
-7.33019e-05
-3.68949e-05
-1.82398e-05
-8.85304e-06
-4.21718e-06
-1.97096e-06
-9.03531e-07
-4.06205e-07
-1.79048e-07
-7.73908e-08
-3.2821e-08
-1.3639e-08
-5.54407e-09
-2.19633e-09
-8.83582e-10
-3.72092e-10
-1.28421e-10
-2.305e-11
-6.58571e-12
-2.19523e-12
6.58571e-12
-1.09762e-12
-1.09762e-12
2.19524e-12
-2062.63
-2035.39
-1981.98
-1904.5
-1805.91
-1689.86
-1560.44
-1421.99
-1278.81
-1134.98
-994.136
-859.403
-733.249
-617.48
-513.247
-421.091
-341.026
-272.633
-215.162
-167.636
-128.945
-97.925
-73.4275
-54.365
-39.7465
-28.6958
-20.4598
-14.407
-10.0197
-6.88284
-4.67023
-3.13031
-2.07268
-1.35579
-0.876161
-0.559388
-0.352843
-0.21988
-0.135364
-0.0823192
-0.0494456
-0.0293297
-0.0171768
-0.00992901
-0.00566298
-0.00318552
-0.00176649
-0.000965203
-0.000519358
-0.000275054
-0.000143295
-7.33964e-05
-3.69425e-05
-1.82634e-05
-8.8646e-06
-4.22274e-06
-1.9736e-06
-9.04767e-07
-4.06765e-07
-1.79295e-07
-7.74907e-08
-3.28561e-08
-1.36423e-08
-5.5276e-09
-2.21938e-09
-9.01144e-10
-3.60019e-10
-1.22933e-10
-3.29285e-11
-7.68332e-12
0
0
1.09762e-12
1.09762e-12
-2.19524e-12
-2062.25
-2035.02
-1981.65
-1904.23
-1805.7
-1689.71
-1560.36
-1421.97
-1278.85
-1135.06
-994.256
-859.547
-733.408
-617.644
-513.408
-421.243
-341.165
-272.756
-215.269
-167.727
-129.02
-97.9858
-73.4758
-54.4028
-39.7755
-28.7177
-20.4761
-14.4188
-10.0282
-6.88889
-4.67445
-3.1332
-2.07464
-1.3571
-0.877021
-0.559943
-0.353197
-0.220101
-0.1355
-0.0824021
-0.0494951
-0.0293588
-0.0171936
-0.00993858
-0.00566834
-0.00318849
-0.00176811
-0.00096607
-0.000519817
-0.000275294
-0.000143419
-7.34592e-05
-3.69739e-05
-1.8279e-05
-8.87217e-06
-4.22636e-06
-1.97527e-06
-9.05554e-07
-4.07115e-07
-1.79458e-07
-7.75796e-08
-3.28802e-08
-1.36522e-08
-5.56053e-09
-2.22158e-09
-8.78094e-10
-3.47945e-10
-1.26226e-10
-3.95142e-11
-9.87856e-12
2.19523e-12
0
-2.19523e-12
-5.48809e-12
5.48809e-12
-2062
-2034.78
-1981.44
-1904.04
-1805.55
-1689.61
-1560.3
-1421.96
-1278.87
-1135.11
-994.334
-859.643
-733.513
-617.753
-513.515
-421.345
-341.258
-272.84
-215.341
-167.788
-129.071
-98.0272
-73.5088
-54.4286
-39.7953
-28.7327
-20.4872
-14.427
-10.0341
-6.89307
-4.67737
-3.13521
-2.07601
-1.35801
-0.877618
-0.560329
-0.353443
-0.220255
-0.135595
-0.0824595
-0.0495293
-0.0293788
-0.0172052
-0.00994513
-0.005672
-0.0031905
-0.0017692
-0.000966651
-0.000520123
-0.000275452
-0.0001435
-7.35001e-05
-3.69943e-05
-1.8289e-05
-8.877e-06
-4.22867e-06
-1.97636e-06
-9.06039e-07
-4.0734e-07
-1.79558e-07
-7.76213e-08
-3.29011e-08
-1.36774e-08
-5.56382e-09
-2.20621e-09
-8.90168e-10
-3.61116e-10
-1.09762e-10
-2.305e-11
-1.97571e-11
0
2.19524e-12
-1.4269e-11
4.39047e-12
1.31714e-11
-2061.83
-2034.63
-1981.3
-1903.92
-1805.46
-1689.54
-1560.26
-1421.95
-1278.89
-1135.15
-994.385
-859.705
-733.582
-617.825
-513.586
-421.412
-341.321
-272.895
-215.39
-167.829
-129.105
-98.0551
-73.5311
-54.4461
-39.8088
-28.7429
-20.4948
-14.4326
-10.0381
-6.89592
-4.67937
-3.13659
-2.07694
-1.35864
-0.878028
-0.560594
-0.353611
-0.220361
-0.13566
-0.0824987
-0.0495526
-0.0293925
-0.017213
-0.00994955
-0.00567446
-0.00319184
-0.00176992
-0.000967035
-0.000520324
-0.000275556
-0.000143552
-7.35264e-05
-3.70074e-05
-1.82953e-05
-8.88005e-06
-4.23011e-06
-1.97703e-06
-9.06332e-07
-4.07472e-07
-1.79615e-07
-7.76389e-08
-3.29219e-08
-1.36818e-08
-5.55394e-09
-2.20402e-09
-8.94558e-10
-3.66604e-10
-1.1525e-10
-1.75619e-11
0
0
0
0
8.78094e-12
-8.78094e-12
-2061.72
-2034.52
-1981.2
-1903.84
-1805.39
-1689.5
-1560.24
-1421.94
-1278.89
-1135.17
-994.418
-859.745
-733.627
-617.872
-513.633
-421.457
-341.362
-272.932
-215.422
-167.856
-129.128
-98.0736
-73.5459
-54.4577
-39.8178
-28.7497
-20.4999
-14.4363
-10.0408
-6.89785
-4.68071
-3.13752
-2.07757
-1.35906
-0.878305
-0.560774
-0.353726
-0.220432
-0.135704
-0.0825252
-0.0495684
-0.0294016
-0.0172183
-0.00995251
-0.00567609
-0.00319273
-0.0017704
-0.000967286
-0.000520454
-0.000275622
-0.000143586
-7.35431e-05
-3.70155e-05
-1.82993e-05
-8.88194e-06
-4.231e-06
-1.97745e-06
-9.06532e-07
-4.07555e-07
-1.79658e-07
-7.76411e-08
-3.29044e-08
-1.3662e-08
-5.54736e-09
-2.23585e-09
-9.03339e-10
-3.51238e-10
-1.04274e-10
-1.64643e-11
-8.78094e-12
-2.41476e-11
-1.09762e-12
1.64643e-11
2.19523e-12
2.19523e-12
-2061.65
-2034.46
-1981.14
-1903.79
-1805.35
-1689.47
-1560.22
-1421.93
-1278.9
-1135.18
-994.439
-859.771
-733.656
-617.902
-513.663
-421.486
-341.388
-272.956
-215.443
-167.874
-129.142
-98.0858
-73.5557
-54.4654
-39.8237
-28.7542
-20.5033
-14.4388
-10.0426
-6.89912
-4.68161
-3.13814
-2.07799
-1.35934
-0.878491
-0.560894
-0.353802
-0.22048
-0.135733
-0.0825429
-0.0495788
-0.0294077
-0.0172217
-0.00995445
-0.00567716
-0.00319331
-0.00177071
-0.000967447
-0.000520537
-0.000275665
-0.000143607
-7.35535e-05
-3.70206e-05
-1.83017e-05
-8.88307e-06
-4.23154e-06
-1.97771e-06
-9.06646e-07
-4.07608e-07
-1.79685e-07
-7.76422e-08
-3.28912e-08
-1.36511e-08
-5.55065e-09
-2.23585e-09
-9.02242e-10
-3.38066e-10
-9.54927e-11
-2.85381e-11
-1.97571e-11
-1.09762e-12
5.48809e-12
0
0
0
-2061.61
-2034.41
-1981.1
-1903.76
-1805.33
-1689.45
-1560.21
-1421.93
-1278.9
-1135.19
-994.452
-859.788
-733.675
-617.922
-513.683
-421.504
-341.406
-272.971
-215.456
-167.886
-129.152
-98.0937
-73.562
-54.4704
-39.8276
-28.7572
-20.5055
-14.4404
-10.0438
-6.89996
-4.6822
-3.13855
-2.07827
-1.35953
-0.878613
-0.560973
-0.353852
-0.220511
-0.135753
-0.0825545
-0.0495857
-0.0294117
-0.017224
-0.00995572
-0.00567786
-0.00319369
-0.0017709
-0.00096755
-0.00052059
-0.000275691
-0.00014362
-7.356e-05
-3.70237e-05
-1.83031e-05
-8.88375e-06
-4.23186e-06
-1.97788e-06
-9.06734e-07
-4.07629e-07
-1.79701e-07
-7.76553e-08
-3.28791e-08
-1.36335e-08
-5.54736e-09
-2.23804e-09
-8.97851e-10
-3.57823e-10
-1.09762e-10
-2.19524e-12
0
-4.39047e-12
0
-2.19524e-12
0
-2.19524e-12
-2061.58
-2034.39
-1981.08
-1903.74
-1805.31
-1689.44
-1560.2
-1421.93
-1278.9
-1135.2
-994.46
-859.798
-733.686
-617.934
-513.695
-421.516
-341.417
-272.981
-215.465
-167.893
-129.158
-98.0988
-73.5661
-54.4736
-39.8301
-28.7591
-20.5069
-14.4415
-10.0445
-6.90051
-4.68258
-3.13881
-2.07845
-1.35965
-0.878693
-0.561025
-0.353885
-0.220532
-0.135765
-0.0825621
-0.0495901
-0.0294143
-0.0172255
-0.00995653
-0.0056783
-0.00319392
-0.00177103
-0.000967615
-0.000520623
-0.000275708
-0.000143628
-7.35639e-05
-3.70255e-05
-1.8304e-05
-8.88416e-06
-4.23205e-06
-1.97797e-06
-9.06778e-07
-4.07646e-07
-1.79691e-07
-7.76455e-08
-3.28967e-08
-1.36522e-08
-5.53638e-09
-2.23036e-09
-8.93461e-10
-3.34773e-10
-1.11957e-10
-2.41476e-11
-9.87856e-12
-1.09762e-12
-1.09762e-12
0
1.64643e-11
-6.5857e-12
-2061.56
-2034.37
-1981.06
-1903.72
-1805.3
-1689.43
-1560.2
-1421.93
-1278.91
-1135.2
-994.465
-859.805
-733.694
-617.942
-513.703
-421.524
-341.423
-272.987
-215.47
-167.898
-129.162
-98.102
-73.5687
-54.4757
-39.8317
-28.7603
-20.5078
-14.4421
-10.045
-6.90085
-4.68283
-3.13898
-2.07857
-1.35972
-0.878744
-0.561058
-0.353906
-0.220545
-0.135773
-0.0825669
-0.049593
-0.0294159
-0.0172264
-0.00995705
-0.00567858
-0.00319407
-0.00177111
-0.000967655
-0.000520643
-0.000275718
-0.000143633
-7.35662e-05
-3.70266e-05
-1.83046e-05
-8.8844e-06
-4.23215e-06
-1.97801e-06
-9.06801e-07
-4.07654e-07
-1.797e-07
-7.76619e-08
-3.29044e-08
-1.36752e-08
-5.55504e-09
-2.21938e-09
-8.86875e-10
-3.24895e-10
-9.87856e-11
-2.52452e-11
-1.31714e-11
0
6.58571e-12
-4.39047e-12
6.5857e-12
4.39047e-12
-2061.55
-2034.36
-1981.05
-1903.72
-1805.29
-1689.42
-1560.2
-1421.93
-1278.91
-1135.2
-994.468
-859.809
-733.698
-617.947
-513.707
-421.528
-341.428
-272.991
-215.474
-167.901
-129.165
-98.104
-73.5703
-54.4769
-39.8326
-28.761
-20.5084
-14.4425
-10.0453
-6.90107
-4.68298
-3.13909
-2.07864
-1.35977
-0.878776
-0.561079
-0.35392
-0.220553
-0.135778
-0.08257
-0.0495948
-0.029417
-0.017227
-0.00995738
-0.00567876
-0.00319417
-0.00177116
-0.00096768
-0.000520656
-0.000275724
-0.000143636
-7.35676e-05
-3.70273e-05
-1.83049e-05
-8.88454e-06
-4.23223e-06
-1.97803e-06
-9.06771e-07
-4.07642e-07
-1.797e-07
-7.76564e-08
-3.29154e-08
-1.36906e-08
-5.55614e-09
-2.2106e-09
-8.8907e-10
-3.30383e-10
-1.04274e-10
-3.29285e-11
-8.78094e-12
-5.48809e-12
1.09762e-12
1.09762e-12
-1.09762e-12
0
-2061.54
-2034.35
-1981.05
-1903.71
-1805.29
-1689.42
-1560.19
-1421.93
-1278.91
-1135.2
-994.47
-859.811
-733.701
-617.95
-513.71
-421.531
-341.43
-272.994
-215.476
-167.903
-129.166
-98.1052
-73.5713
-54.4777
-39.8333
-28.7615
-20.5087
-14.4428
-10.0455
-6.90121
-4.68308
-3.13915
-2.07868
-1.3598
-0.878797
-0.561092
-0.353928
-0.220558
-0.135782
-0.0825719
-0.0495959
-0.0294176
-0.0172273
-0.00995758
-0.00567887
-0.00319422
-0.00177119
-0.000967695
-0.000520663
-0.000275727
-0.000143638
-7.35685e-05
-3.70277e-05
-1.83051e-05
-8.88465e-06
-4.23227e-06
-1.97802e-06
-9.06778e-07
-4.07662e-07
-1.79705e-07
-7.76619e-08
-3.29175e-08
-1.3684e-08
-5.55504e-09
-2.20731e-09
-8.82484e-10
-3.28188e-10
-1.1525e-10
-3.84166e-11
6.5857e-12
1.31714e-11
-1.09762e-11
-1.09762e-11
-1.09762e-12
1.09762e-12
-2061.54
-2034.35
-1981.04
-1903.71
-1805.29
-1689.42
-1560.19
-1421.92
-1278.91
-1135.21
-994.472
-859.812
-733.703
-617.951
-513.712
-421.533
-341.432
-272.995
-215.477
-167.904
-129.167
-98.106
-73.5719
-54.4782
-39.8336
-28.7618
-20.5089
-14.443
-10.0456
-6.90129
-4.68314
-3.13919
-2.07871
-1.35982
-0.878809
-0.5611
-0.353933
-0.220562
-0.135784
-0.0825731
-0.0495966
-0.029418
-0.0172276
-0.0099577
-0.00567893
-0.00319426
-0.0017712
-0.000967704
-0.000520668
-0.00027573
-0.000143639
-7.35689e-05
-3.70279e-05
-1.83052e-05
-8.8847e-06
-4.23229e-06
-1.97805e-06
-9.06799e-07
-4.07668e-07
-1.79701e-07
-7.76531e-08
-3.28989e-08
-1.36774e-08
-5.58687e-09
-2.22926e-09
-8.59435e-10
-3.39164e-10
-1.35007e-10
-3.84166e-11
-6.58571e-12
1.53666e-11
5.48809e-12
-8.78094e-12
0
3.29285e-12
-2061.54
-2034.35
-1981.04
-1903.71
-1805.29
-1689.42
-1560.19
-1421.92
-1278.91
-1135.21
-994.472
-859.813
-733.704
-617.952
-513.713
-421.534
-341.433
-272.996
-215.478
-167.904
-129.168
-98.1064
-73.5723
-54.4785
-39.8338
-28.7619
-20.5091
-14.4431
-10.0457
-6.90134
-4.68317
-3.13922
-2.07873
-1.35983
-0.878817
-0.561105
-0.353936
-0.220564
-0.135785
-0.0825738
-0.049597
-0.0294183
-0.0172277
-0.00995777
-0.00567897
-0.00319428
-0.00177121
-0.000967709
-0.00052067
-0.000275731
-0.00014364
-7.35692e-05
-3.70281e-05
-1.83053e-05
-8.88473e-06
-4.23228e-06
-1.97804e-06
-9.0679e-07
-4.07672e-07
-1.79718e-07
-7.76652e-08
-3.29033e-08
-1.36708e-08
-5.5748e-09
-2.23804e-09
-8.78094e-10
-3.23797e-10
-1.24031e-10
-3.7319e-11
-7.68332e-12
1.09762e-12
7.68332e-12
-8.78094e-12
0
7.68332e-12
-2061.54
-2034.35
-1981.04
-1903.7
-1805.29
-1689.42
-1560.19
-1421.92
-1278.91
-1135.21
-994.473
-859.814
-733.704
-617.953
-513.714
-421.534
-341.434
-272.997
-215.478
-167.905