/*--------------------------------*- C++ -*----------------------------------*\
  =========                 |
  \\      /  F ield         | OpenFOAM: The Open Source CFD Toolbox
   \\    /   O peration     | Website:  https://openfoam.org
    \\  /    A nd           | Version:  10
     \\/     M anipulation  |
\*---------------------------------------------------------------------------*/
FoamFile
{
    format      ascii;
    class       volScalarField;
    location    "168";
    object      T;
}
// * * * * * * * * * * * * * * * * * * * * * * * * * * * * * * * * * * * * * //

dimensions      [0 0 0 1 0 0 0];

internalField   nonuniform List<scalar> 
11250
(
249.683
167.084
138.587
125.895
118.875
114.368
111.193
108.825
106.996
105.552
104.398
103.471
102.724
102.124
101.643
101.261
100.96
100.723
100.54
100.399
100.292
100.212
100.152
100.107
100.075
100.052
100.036
100.024
100.016
100.011
100.007
100.005
100.003
100.002
100.001
100.001
100
100
100
100
100
100
100
100
100
100
100
100
100
100
100
100
100
100
100
100
100
100
100
100
100
100
100
100
100
100
100
100
100
100
100
100
100
100
100
331.023
247.173
199.998
172.069
154.177
141.848
132.856
126.025
120.691
116.454
113.053
110.311
108.099
106.319
104.892
103.757
102.859
102.156
101.61
101.19
100.871
100.631
100.452
100.321
100.225
100.156
100.107
100.073
100.049
100.032
100.021
100.014
100.009
100.006
100.004
100.002
100.001
100.001
100
100
100
100
100
100
100
100
100
100
100
100
100
100
100
100
100
100
100
100
100
100
100
100
100
100
100
100
100
100
100
100
100
100
100
100
100
358.285
290.661
242.284
208.367
184.114
166.219
152.604
141.986
133.554
126.78
121.302
116.862
113.265
110.362
108.031
106.171
104.7
103.546
102.649
101.959
101.435
101.039
100.745
100.528
100.371
100.257
100.177
100.12
100.08
100.053
100.035
100.023
100.015
100.009
100.006
100.004
100.002
100.001
100.001
100
100
100
100
100
100
100
100
100
100
100
100
100
100
100
100
100
100
100
100
100
100
100
100
100
100
100
100
100
100
100
100
100
100
100
100
369.783
315.024
270.31
235.268
208.022
186.682
169.763
156.188
145.197
136.244
128.933
122.964
118.105
114.166
110.994
108.458
106.447
104.868
103.639
102.693
101.973
101.43
101.025
100.727
100.511
100.354
100.243
100.165
100.111
100.074
100.048
100.031
100.02
100.013
100.008
100.005
100.003
100.002
100.001
100.001
100
100
100
100
100
100
100
100
100
100
100
100
100
100
100
100
100
100
100
100
100
100
100
100
100
100
100
100
100
100
100
100
100
100
100
375.664
329.512
288.94
254.746
226.475
203.241
184.14
168.4
155.403
144.664
135.8
128.505
122.53
117.665
113.732
110.579
108.073
106.101
104.565
103.381
102.478
101.797
101.289
100.915
100.642
100.446
100.306
100.208
100.14
100.093
100.061
100.04
100.025
100.016
100.01
100.006
100.004
100.002
100.001
100.001
100
100
100
100
100
100
100
100
100
100
100
100
100
100
100
100
100
100
100
100
100
100
100
100
100
100
100
100
100
100
100
100
100
100
100
379.097
338.635
301.54
268.768
240.461
216.319
195.869
178.618
164.115
151.963
141.827
133.418
126.486
120.813
116.209
112.507
109.557
107.231
105.415
104.014
102.944
102.136
101.533
101.089
100.765
100.531
100.365
100.248
100.166
100.111
100.073
100.047
100.03
100.019
100.012
100.007
100.005
100.003
100.002
100.001
100.001
100
100
100
100
100
100
100
100
100
100
100
100
100
100
100
100
100
100
100
100
100
100
100
100
100
100
100
100
100
100
100
100
100
100
381.275
344.648
310.233
278.886
250.968
226.485
205.25
186.985
171.386
158.152
147.003
137.681
129.948
123.588
118.407
114.225
110.885
108.246
106.182
104.586
103.366
102.444
101.756
101.247
100.876
100.609
100.418
100.284
100.191
100.127
100.083
100.054
100.035
100.022
100.014
100.009
100.005
100.003
100.002
100.001
100.001
100
100
100
100
100
100
100
100
100
100
100
100
100
100
100
100
100
100
100
100
100
100
100
100
100
100
100
100
100
100
100
100
100
100
382.728
348.747
316.337
286.223
258.825
234.304
212.644
193.719
177.342
163.297
151.361
141.308
132.92
125.989
120.319
115.729
112.053
109.142
106.861
105.095
103.742
102.719
101.955
101.389
100.977
100.679
100.467
100.317
100.213
100.142
100.093
100.061
100.039
100.025
100.015
100.01
100.006
100.004
100.002
100.001
100.001
100
100
100
100
100
100
100
100
100
100
100
100
100
100
100
100
100
100
100
100
100
100
100
100
100
100
100
100
100
100
100
100
100
100
383.729
351.607
320.682
291.569
264.688
240.272
218.405
199.062
182.143
167.503
154.966
144.339
135.425
128.028
121.954
117.023
113.063
109.919
107.452
105.539
104.072
102.961
102.13
101.515
101.065
100.741
100.51
100.346
100.233
100.155
100.102
100.066
100.043
100.027
100.017
100.011
100.006
100.004
100.002
100.001
100.001
100
100
100
100
100
100
100
100
100
100
100
100
100
100
100
100
100
100
100
100
100
100
100
100
100
100
100
100
100
100
100
100
100
100
384.434
353.636
323.807
295.48
269.056
244.799
222.85
203.25
185.962
170.89
157.901
146.831
137.503
129.731
123.329
118.116
113.92
110.583
107.959
105.921
104.356
103.17
102.281
101.624
101.142
100.795
100.547
100.372
100.25
100.166
100.109
100.071
100.046
100.029
100.018
100.011
100.007
100.004
100.003
100.001
100.001
100.001
100
100
100
100
100
100
100
100
100
100
100
100
100
100
100
100
100
100
100
100
100
100
100
100
100
100
100
100
100
100
100
100
100
384.936
355.09
326.069
298.347
272.304
248.215
226.253
206.5
188.961
173.581
160.256
148.849
139.199
131.131
124.467
119.026
114.637
111.14
108.386
106.244
104.598
103.348
102.411
101.717
101.209
100.841
100.579
100.394
100.265
100.176
100.116
100.075
100.048
100.031
100.019
100.012
100.007
100.004
100.003
100.002
100.001
100.001
100
100
100
100
100
100
100
100
100
100
100
100
100
100
100
100
100
100
100
100
100
100
100
100
100
100
100
100
100
100
100
100
100
385.296
356.138
327.711
300.449
274.713
250.779
228.837
208.996
191.291
175.692
162.121
150.46
140.563
132.266
125.394
119.771
115.228
111.601
108.741
106.513
104.799
103.497
102.52
101.795
101.264
100.881
100.606
100.413
100.278
100.185
100.122
100.079
100.051
100.032
100.02
100.013
100.008
100.005
100.003
100.002
100.001
100.001
100
100
100
100
100
100
100
100
100
100
100
100
100
100
100
100
100
100
100
100
100
100
100
100
100
100
100
100
100
100
100
100
100
385.556
356.896
328.906
301.99
276.494
252.693
230.786
210.897
193.081
177.329
163.579
151.73
141.646
133.171
126.138
120.373
115.707
111.976
109.031
106.734
104.966
103.62
102.61
101.86
101.311
100.913
100.629
100.428
100.288
100.192
100.126
100.082
100.053
100.034
100.021
100.013
100.008
100.005
100.003
100.002
100.001
100.001
100
100
100
100
100
100
100
100
100
100
100
100
100
100
100
100
100
100
100
100
100
100
100
100
100
100
100
100
100
100
100
100
100
385.744
357.444
329.774
303.117
277.805
254.113
232.244
212.332
194.443
178.584
164.706
152.717
142.493
133.885
126.728
120.852
116.09
112.278
109.265
106.913
105.1
103.72
102.683
101.913
101.349
100.94
100.648
100.441
100.297
100.198
100.13
100.085
100.055
100.035
100.022
100.014
100.008
100.005
100.003
100.002
100.001
100.001
100
100
100
100
100
100
100
100
100
100
100
100
100
100
100
100
100
100
100
100
100
100
100
100
100
100
100
100
100
100
100
100
100
385.879
357.841
330.404
303.937
278.767
255.161
233.327
213.405
195.47
179.536
165.566
153.476
143.149
134.439
127.188
121.228
116.392
112.516
109.45
107.055
105.208
103.801
102.742
101.956
101.38
100.962
100.663
100.452
100.304
100.203
100.133
100.087
100.056
100.036
100.022
100.014
100.009
100.005
100.003
100.002
100.001
100.001
100
100
100
100
100
100
100
100
100
100
100
100
100
100
100
100
100
100
100
100
100
100
100
100
100
100
100
100
100
100
100
100
100
385.976
358.126
330.859
304.533
279.467
255.929
234.126
214.201
196.236
180.251
166.216
154.053
143.649
134.865
127.544
121.52
116.627
112.703
109.596
107.167
105.293
103.864
102.789
101.99
101.404
100.979
100.675
100.46
100.31
100.206
100.136
100.088
100.057
100.036
100.023
100.014
100.009
100.005
100.003
100.002
100.001
100.001
100
100
100
100
100
100
100
100
100
100
100
100
100
100
100
100
100
100
100
100
100
100
100
100
100
100
100
100
100
100
100
100
100
386.046
358.331
331.186
304.962
279.974
256.488
234.71
214.786
196.802
180.783
166.701
154.486
144.027
135.188
127.814
121.742
116.807
112.846
109.709
107.254
105.359
103.914
102.826
102.017
101.423
100.993
100.685
100.467
100.315
100.21
100.138
100.09
100.058
100.037
100.023
100.014
100.009
100.005
100.003
100.002
100.001
100.001
100
100
100
100
100
100
100
100
100
100
100
100
100
100
100
100
100
100
100
100
100
100
100
100
100
100
100
100
100
100
100
100
100
386.096
358.477
331.419
305.27
280.339
256.891
235.133
215.213
197.216
181.173
167.06
154.807
144.308
135.429
128.018
121.911
116.944
112.955
109.794
107.321
105.41
103.952
102.854
102.038
101.438
101.003
100.692
100.472
100.318
100.212
100.14
100.091
100.058
100.037
100.023
100.015
100.009
100.005
100.003
100.002
100.001
100.001
100
100
100
100
100
100
100
100
100
100
100
100
100
100
100
100
100
100
100
100
100
100
100
100
100
100
100
100
100
100
100
100
100
386.131
358.581
331.586
305.489
280.6
257.181
235.438
215.52
197.517
181.458
167.323
155.043
144.516
135.608
128.169
122.036
117.046
113.037
109.859
107.371
105.448
103.981
102.876
102.053
101.45
101.012
100.698
100.476
100.321
100.214
100.141
100.092
100.059
100.038
100.024
100.015
100.009
100.005
100.003
100.002
100.001
100.001
100
100
100
100
100
100
100
100
100
100
100
100
100
100
100
100
100
100
100
100
100
100
100
100
100
100
100
100
100
100
100
100
100
386.156
358.654
331.703
305.644
280.785
257.386
235.655
215.741
197.733
181.663
167.512
155.215
144.667
135.739
128.28
122.128
117.121
113.098
109.907
107.408
105.477
104.003
102.892
102.065
101.458
101.018
100.702
100.479
100.323
100.215
100.142
100.092
100.059
100.038
100.024
100.015
100.009
100.006
100.003
100.002
100.001
100.001
100
100
100
100
100
100
100
100
100
100
100
100
100
100
100
100
100
100
100
100
100
100
100
100
100
100
100
100
100
100
100
100
100
386.173
358.705
331.785
305.753
280.915
257.531
235.809
215.897
197.886
181.809
167.648
155.338
144.776
135.834
128.36
122.196
117.176
113.143
109.942
107.436
105.498
104.019
102.904
102.074
101.464
101.022
100.705
100.481
100.324
100.216
100.142
100.093
100.06
100.038
100.024
100.015
100.009
100.006
100.003
100.002
100.001
100.001
100
100
100
100
100
100
100
100
100
100
100
100
100
100
100
100
100
100
100
100
100
100
100
100
100
100
100
100
100
100
100
100
100
386.185
358.741
331.842
305.828
281.005
257.632
235.916
216.006
197.994
181.913
167.745
155.425
144.854
135.901
128.418
122.244
117.216
113.175
109.968
107.456
105.513
104.03
102.912
102.081
101.469
101.026
100.708
100.483
100.325
100.217
100.143
100.093
100.06
100.038
100.024
100.015
100.009
100.006
100.003
100.002
100.001
100.001
100
100
100
100
100
100
100
100
100
100
100
100
100
100
100
100
100
100
100
100
100
100
100
100
100
100
100
100
100
100
100
100
100
386.194
358.765
331.881
305.881
281.068
257.702
235.991
216.083
198.069
181.985
167.812
155.487
144.909
135.949
128.459
122.278
117.244
113.198
109.986
107.47
105.524
104.039
102.919
102.085
101.473
101.028
100.709
100.484
100.326
100.217
100.143
100.093
100.06
100.038
100.024
100.015
100.009
100.006
100.003
100.002
100.001
100.001
100
100
100
100
100
100
100
100
100
100
100
100
100
100
100
100
100
100
100
100
100
100
100
100
100
100
100
100
100
100
100
100
100
386.199
358.782
331.908
305.916
281.111
257.75
236.042
216.135
198.121
182.035
167.859
155.53
144.947
135.983
128.488
122.302
117.264
113.214
109.999
107.48
105.532
104.045
102.923
102.089
101.475
101.03
100.711
100.485
100.327
100.218
100.144
100.094
100.06
100.038
100.024
100.015
100.009
100.006
100.003
100.002
100.001
100.001
100
100
100
100
100
100
100
100
100
100
100
100
100
100
100
100
100
100
100
100
100
100
100
100
100
100
100
100
100
100
100
100
100
386.203
358.793
331.926
305.94
281.14
257.783
236.077
216.171
198.157
182.069
167.891
155.559
144.974
136.006
128.507
122.319
117.278
113.225
110.008
107.487
105.538
104.049
102.926
102.091
101.477
101.031
100.712
100.485
100.327
100.218
100.144
100.094
100.06
100.038
100.024
100.015
100.009
100.006
100.003
100.002
100.001
100.001
100
100
100
100
100
100
100
100
100
100
100
100
100
100
100
100
100
100
100
100
100
100
100
100
100
100
100
100
100
100
100
100
100
386.206
358.801
331.939
305.957
281.159
257.805
236.1
216.195
198.181
182.093
167.913
155.579
144.991
136.021
128.521
122.331
117.288
113.233
110.014
107.492
105.542
104.052
102.929
102.093
101.478
101.032
100.712
100.486
100.328
100.218
100.144
100.094
100.06
100.038
100.024
100.015
100.009
100.006
100.003
100.002
100.001
100.001
100
100
100
100
100
100
100
100
100
100
100
100
100
100
100
100
100
100
100
100
100
100
100
100
100
100
100
100
100
100
100
100
100
386.208
358.806
331.947
305.968
281.172
257.819
236.116
216.211
198.197
182.108
167.927
155.593
145.004
136.032
128.53
122.338
117.294
113.238
110.019
107.496
105.544
104.054
102.93
102.094
101.479
101.032
100.713
100.486
100.328
100.219
100.144
100.094
100.06
100.038
100.024
100.015
100.009
100.006
100.003
100.002
100.001
100.001
100
100
100
100
100
100
100
100
100
100
100
100
100
100
100
100
100
100
100
100
100
100
100
100
100
100
100
100
100
100
100
100
100
386.209
358.809
331.952
305.975
281.181
257.829
236.126
216.222
198.208
182.118
167.937
155.601
145.012
136.039
128.536
122.344
117.299
113.242
110.021
107.498
105.546
104.055
102.931
102.094
101.479
101.033
100.713
100.486
100.328
100.219
100.144
100.094
100.06
100.038
100.024
100.015
100.009
100.006
100.003
100.002
100.001
100.001
100
100
100
100
100
100
100
100
100
100
100
100
100
100
100
100
100
100
100
100
100
100
100
100
100
100
100
100
100
100
100
100
100
386.209
358.811
331.955
305.979
281.186
257.835
236.133
216.229
198.215
182.125
167.944
155.607
145.017
136.044
128.54
122.347
117.302
113.244
110.023
107.5
105.547
104.056
102.932
102.095
101.48
101.033
100.713
100.486
100.328
100.219
100.144
100.094
100.06
100.038
100.024
100.015
100.009
100.006
100.003
100.002
100.001
100.001
100
100
100
100
100
100
100
100
100
100
100
100
100
100
100
100
100
100
100
100
100
100
100
100
100
100
100
100
100
100
100
100
100
386.21
358.813
331.958
305.982
281.19
257.84
236.138
216.234
198.219
182.13
167.948
155.611
145.02
136.047
128.543
122.349
117.303
113.246
110.025
107.501
105.548
104.057
102.932
102.095
101.48
101.033
100.713
100.487
100.328
100.219
100.144
100.094
100.06
100.038
100.024
100.015
100.009
100.006
100.003
100.002
100.001
100.001
100
100
100
100
100
100
100
100
100
100
100
100
100
100
100
100
100
100
100
100
100
100
100
100
100
100
100
100
100
100
100
100
100
386.21
358.814
331.959
305.984
281.192
257.842
236.14
216.236
198.222
182.132
167.95
155.614
145.023
136.049
128.545
122.351
117.305
113.247
110.025
107.501
105.548
104.057
102.933
102.095
101.48
101.033
100.713
100.487
100.328
100.219
100.144
100.094
100.06
100.038
100.024
100.015
100.009
100.006
100.003
100.002
100.001
100.001
100
100
100
100
100
100
100
100
100
100
100
100
100
100
100
100
100
100
100
100
100
100
100
100
100
100
100
100
100
100
100
100
100
386.21
358.814
331.96
305.985
281.194
257.844
236.142
216.238
198.224
182.134
167.952
155.615
145.024
136.05
128.546
122.352
117.305
113.247
110.026
107.502
105.549
104.057
102.933
102.096
101.48
101.033
100.713
100.487
100.328
100.219
100.144
100.094
100.06
100.038
100.024
100.015
100.009
100.006
100.003
100.002
100.001
100.001
100
100
100
100
100
100
100
100
100
100
100
100
100
100
100
100
100
100
100
100
100
100
100
100
100
100
100
100
100
100
100
100
100
386.21
358.815
331.961
305.986
281.195
257.845
236.143
216.239
198.225
182.135
167.953
155.616
145.025
136.051
128.547
122.352
117.306
113.248
110.026
107.502
105.549
104.058
102.933
102.096
101.48
101.034
100.713
100.487
100.328
100.219
100.144
100.094
100.06
100.038
100.024
100.015
100.009
100.006
100.003
100.002
100.001
100.001
100
100
100
100
100
100
100
100
100
100
100
100
100
100
100
100
100
100
100
100
100
100
100
100
100
100
100
100
100
100
100
100
100
386.211
358.815
331.961
305.987
281.195
257.845
236.144
216.24
198.226
182.136
167.954
155.617
145.026
136.052
128.547
122.353
117.306
113.248
110.026
107.502
105.549
104.058
102.933
102.096
101.48
101.034
100.713
100.487
100.328
100.219
100.144
100.094
100.06
100.038
100.024
100.015
100.009
100.006
100.003
100.002
100.001
100.001
100
100
100
100
100
100
100
100
100
100
100
100
100
100
100
100
100
100
100
100
100
100
100
100
100
100
100
100
100
100
100
100
100
386.211
358.815
331.961
305.987
281.196
257.846
236.144
216.241
198.226
182.136
167.954
155.617
145.026
136.052
128.547
122.353
117.306
113.248
110.027
107.502
105.549
104.058
102.933
102.096
101.48
101.034
100.713
100.487
100.328
100.219
100.144
100.094
100.06
100.038
100.024
100.015
100.009
100.006
100.003
100.002
100.001
100.001
100
100
100
100
100
100
100
100
100
100
100
100
100
100
100
100
100
100
100
100
100
100
100
100
100
100
100
100
100
100
100
100
100
386.211
358.815
331.961
305.987
281.196
257.846
236.145
216.241
198.227
182.137
167.954
155.618
145.026
136.052
128.547
122.353
117.307
113.248
110.027
107.502
105.549
104.058
102.933
102.096
101.48
101.034
100.713
100.487
100.328
100.219
100.144
100.094
100.06
100.038
100.024
100.015
100.009
100.006
100.003
100.002
100.001
100.001
100
100
100
100
100
100
100
100
100
100
100
100
100
100
100
100
100
100
100
100
100
100
100
100
100
100
100
100
100
100
100
100
100
386.211
358.815
331.961
305.987
281.196
257.846
236.145
216.241
198.227
182.137
167.955
155.618
145.026
136.052
128.548
122.353
117.307
113.248
110.027
107.502
105.549
104.058
102.933
102.096
101.48
101.034
100.713
100.487
100.328
100.219
100.144
100.094
100.06
100.038
100.024
100.015
100.009
100.006
100.003
100.002
100.001
100.001
100
100
100
100
100
100
100
100
100
100
100
100
100
100
100
100
100
100
100
100
100
100
100
100
100
100
100
100
100
100
100
100
100
386.211
358.815
331.961
305.987
281.196
257.846
236.145
216.241
198.227
182.137
167.955
155.618
145.026
136.052
128.548
122.353
117.307
113.248
110.027
107.502
105.549
104.058
102.933
102.096
101.48
101.034
100.713
100.487
100.328
100.219
100.144
100.094
100.06
100.038
100.024
100.015
100.009
100.006
100.003
100.002
100.001
100.001
100
100
100
100
100
100
100
100
100
100
100
100
100
100
100
100
100
100
100
100
100
100
100
100
100
100
100
100
100
100
100
100
100
386.211
358.815
331.961
305.987
281.196
257.846
236.145
216.241
198.227
182.137
167.955
155.618
145.026
136.052
128.548
122.353
117.307
113.248
110.027
107.502
105.549
104.058
102.933
102.096
101.48
101.034
100.713
100.487
100.328
100.219
100.144
100.094
100.06
100.038
100.024
100.015
100.009
100.006
100.003
100.002
100.001
100.001
100
100
100
100
100
100
100
100
100
100
100
100
100
100
100
100
100
100
100
100
100
100
100
100
100
100
100
100
100
100
100
100
100
386.211
358.815
331.961
305.987
281.196
257.846
236.145
216.241
198.227
182.137
167.955
155.618
145.026
136.052
128.548
122.353
117.307
113.248
110.027
107.502
105.549
104.058
102.933
102.096
101.48
101.034
100.713
100.487
100.328
100.219
100.144
100.094
100.06
100.038
100.024
100.015
100.009
100.006
100.003
100.002
100.001
100.001
100
100
100
100
100
100
100
100
100
100
100
100
100
100
100
100
100
100
100
100
100
100
100
100
100
100
100
100
100
100
100
100
100
386.211
358.815
331.961
305.987
281.196
257.846
236.145
216.241
198.227
182.137
167.955
155.618
145.026
136.052
128.548
122.353
117.307
113.248
110.027
107.502
105.549
104.058
102.933
102.096
101.48
101.034
100.713
100.487
100.328
100.219
100.144
100.094
100.06
100.038
100.024
100.015
100.009
100.006
100.003
100.002
100.001
100.001
100
100
100
100
100
100
100
100
100
100
100
100
100
100
100
100
100
100
100
100
100
100
100
100
100
100
100
100
100
100
100
100
100
386.211
358.815
331.961
305.987
281.196
257.846
236.145
216.241
198.227
182.137
167.955
155.618
145.026
136.052
128.548
122.353
117.307
113.248
110.027
107.502
105.549
104.058
102.933
102.096
101.48
101.034
100.713
100.487
100.328
100.219
100.144
100.094
100.06
100.038
100.024
100.015
100.009
100.006
100.003
100.002
100.001
100.001
100
100
100
100
100
100
100
100
100
100
100
100
100
100
100
100
100
100
100
100
100
100
100
100
100
100
100
100
100
100
100
100
100
386.211
358.815
331.961
305.987
281.196
257.846
236.145
216.241
198.227
182.137
167.955
155.618
145.026
136.052
128.548
122.353
117.307
113.248
110.027
107.502
105.549
104.058
102.933
102.096
101.48
101.034
100.713
100.487
100.328
100.219
100.144
100.094
100.06
100.038
100.024
100.015
100.009
100.006
100.003
100.002
100.001
100.001
100
100
100
100
100
100
100
100
100
100
100
100
100
100
100
100
100
100
100
100
100
100
100
100
100
100
100
100
100
100
100
100
100
386.211
358.815
331.961
305.987
281.196
257.846
236.145
216.241
198.227
182.137
167.955
155.618
145.026
136.052
128.548
122.353
117.307
113.248
110.027
107.502
105.549
104.058
102.933
102.096
101.48
101.034
100.713
100.487
100.328
100.219
100.144
100.094
100.06
100.038
100.024
100.015
100.009
100.006
100.003
100.002
100.001
100.001
100
100
100
100
100
100
100
100
100
100
100
100
100
100
100
100
100
100
100
100
100
100
100
100
100
100
100
100
100
100
100
100
100
386.211
358.815
331.961
305.987
281.196
257.846
236.145
216.241
198.227
182.137
167.955
155.618
145.026
136.052
128.548
122.353
117.307
113.248
110.027
107.502
105.549
104.058
102.933
102.096
101.48
101.034
100.713
100.487
100.328
100.219
100.144
100.094
100.06
100.038
100.024
100.015
100.009
100.006
100.003
100.002
100.001
100.001
100
100
100
100
100
100
100
100
100
100
100
100
100
100
100
100
100
100
100
100
100
100
100
100
100
100
100
100
100
100
100
100
100
386.211
358.815
331.961
305.987
281.196
257.846
236.145
216.241
198.227
182.137
167.955
155.618
145.026
136.052
128.548
122.353
117.307
113.248
110.027
107.502
105.549
104.058
102.933
102.096
101.48
101.034
100.713
100.487
100.328
100.219
100.144
100.094
100.06
100.038
100.024
100.015
100.009
100.006
100.003
100.002
100.001
100.001
100
100
100
100
100
100
100
100
100
100
100
100
100
100
100
100
100
100
100
100
100
100
100
100
100
100
100
100
100
100
100
100
100
386.211
358.815
331.961
305.987
281.196
257.846
236.145
216.241
198.227
182.137
167.955
155.618
145.026
136.052
128.548
122.353
117.307
113.248
110.027
107.502
105.549
104.058
102.933
102.096
101.48
101.034
100.713
100.487
100.328
100.219
100.144
100.094
100.06
100.038
100.024
100.015
100.009
100.006
100.003
100.002
100.001
100.001
100
100
100
100
100
100
100
100
100
100
100
100
100
100
100
100
100
100
100
100
100
100
100
100
100
100
100
100
100
100
100
100
100
386.211
358.815
331.961
305.987
281.196
257.846
236.145
216.241
198.227
182.137
167.955
155.618
145.026
136.052
128.548
122.353
117.307
113.248
110.027
107.502
105.549
104.058
102.933
102.096
101.48
101.034
100.713
100.487
100.328
100.219
100.144
100.094
100.06
100.038
100.024
100.015
100.009
100.006
100.003
100.002
100.001
100.001
100
100
100
100
100
100
100
100
100
100
100
100
100
100
100
100
100
100
100
100
100
100
100
100
100
100
100
100
100
100
100
100
100
386.211
358.815
331.961
305.987
281.196
257.846
236.145
216.241
198.227
182.137
167.955
155.618
145.026
136.052
128.548
122.353
117.307
113.248
110.027
107.502
105.549
104.058
102.933
102.096
101.48
101.034
100.713
100.487
100.328
100.219
100.144
100.094
100.06
100.038
100.024
100.015
100.009
100.006
100.003
100.002
100.001
100.001
100
100
100
100
100
100
100
100
100
100
100
100
100
100
100
100
100
100
100
100
100
100
100
100
100
100
100
100
100
100
100
100
100
386.211
358.815
331.961
305.987
281.196
257.846
236.145
216.241
198.227
182.137
167.955
155.618
145.026
136.052
128.548
122.353
117.307
113.248
110.027
107.502
105.549
104.058
102.933
102.096
101.48
101.034
100.713
100.487
100.328
100.219
100.144
100.094
100.06
100.038
100.024
100.015
100.009
100.006
100.003
100.002
100.001
100.001
100
100
100
100
100
100
100
100
100
100
100
100
100
100
100
100
100
100
100
100
100
100
100
100
100
100
100
100
100
100
100
100
100
386.211
358.815
331.961
305.987
281.196
257.846
236.145
216.241
198.227
182.137
167.955
155.618
145.026
136.052
128.548
122.353
117.307
113.248
110.027
107.502
105.549
104.058
102.933
102.096
101.48
101.034
100.713
100.487
100.328
100.219
100.144
100.094
100.06
100.038
100.024
100.015
100.009
100.006
100.003
100.002
100.001
100.001
100
100
100
100
100
100
100
100
100
100
100
100
100
100
100
100
100
100
100
100
100
100
100
100
100
100
100
100
100
100
100
100
100
386.211
358.815
331.961
305.987
281.196
257.846
236.145
216.241
198.227
182.137
167.955
155.618
145.026
136.052
128.548
122.353
117.307
113.248
110.027
107.502
105.549
104.058
102.933
102.096
101.48
101.034
100.713
100.487
100.328
100.219
100.144
100.094
100.06
100.038
100.024
100.015
100.009
100.006
100.003
100.002
100.001
100.001
100
100
100
100
100
100
100
100
100
100
100
100
100
100
100
100
100
100
100
100
100
100
100
100
100
100
100
100
100
100
100
100
100
386.211
358.815
331.961
305.987
281.196
257.846
236.145
216.241
198.227
182.137
167.955
155.618
145.026
136.052
128.548
122.353
117.307
113.248
110.027
107.502
105.549
104.058
102.933
102.096
101.48
101.034
100.713
100.487
100.328
100.219
100.144
100.094
100.06
100.038
100.024
100.015
100.009
100.006
100.003
100.002
100.001
100.001
100
100
100
100
100
100
100
100
100
100
100
100
100
100
100
100
100
100
100
100
100
100
100
100
100
100
100
100
100
100
100
100
100
386.211
358.815
331.961
305.987
281.196
257.846
236.145
216.241
198.227
182.137
167.955
155.618
145.026
136.052
128.548
122.353
117.307
113.248
110.027
107.502
105.549
104.058
102.933
102.096
101.48
101.034
100.713
100.487
100.328
100.219
100.144
100.094
100.06
100.038
100.024
100.015
100.009
100.006
100.003
100.002
100.001
100.001
100
100
100
100
100
100
100
100
100
100
100
100
100
100
100
100
100
100
100
100
100
100
100
100
100
100
100
100
100
100
100
100
100
386.211
358.815
331.961
305.987
281.196
257.846
236.145
216.241
198.227
182.137
167.955
155.618
145.026
136.052
128.548
122.353
117.307
113.248
110.027
107.502
105.549
104.058
102.933
102.096
101.48
101.034
100.713
100.487
100.328
100.219
100.144
100.094
100.06
100.038
100.024
100.015
100.009
100.006
100.003
100.002
100.001
100.001
100
100
100
100
100
100
100
100
100
100
100
100
100
100
100
100
100
100
100
100
100
100
100
100
100
100
100
100
100
100
100
100
100
386.211
358.815
331.961
305.987
281.196
257.846
236.145
216.241
198.227
182.137
167.955
155.618
145.026
136.052
128.548
122.353
117.307
113.248
110.027
107.502
105.549
104.058
102.933
102.096
101.48
101.034
100.713
100.487
100.328
100.219
100.144
100.094
100.06
100.038
100.024
100.015
100.009
100.006
100.003
100.002
100.001
100.001
100
100
100
100
100
100
100
100
100
100
100
100
100
100
100
100
100
100
100
100
100
100
100
100
100
100
100
100
100
100
100
100
100
386.211
358.815
331.961
305.987
281.196
257.846
236.145
216.241
198.227
182.137
167.955
155.618
145.026
136.052
128.548
122.353
117.307
113.248
110.027
107.502
105.549
104.058
102.933
102.096
101.48
101.034
100.713
100.487
100.328
100.219
100.144
100.094
100.06
100.038
100.024
100.015
100.009
100.006
100.003
100.002
100.001
100.001
100
100
100
100
100
100
100
100
100
100
100
100
100
100
100
100
100
100
100
100
100
100
100
100
100
100
100
100
100
100
100
100
100
386.211
358.815
331.961
305.987
281.196
257.846
236.145
216.241
198.227
182.137
167.955
155.618
145.026
136.052
128.548
122.353
117.307
113.248
110.027
107.502
105.549
104.058
102.933
102.096
101.48
101.034
100.713
100.487
100.328
100.219
100.144
100.094
100.06
100.038
100.024
100.015
100.009
100.006
100.003
100.002
100.001
100.001
100
100
100
100
100
100
100
100
100
100
100
100
100
100
100
100
100
100
100
100
100
100
100
100
100
100
100
100
100
100
100
100
100
386.211
358.815
331.961
305.987
281.196
257.846
236.145
216.241
198.227
182.137
167.955
155.618
145.026
136.052
128.548
122.353
117.307
113.248
110.027
107.502
105.549
104.058
102.933
102.096
101.48
101.034
100.713
100.487
100.328
100.219
100.144
100.094
100.06
100.038
100.024
100.015
100.009
100.006
100.003
100.002
100.001
100.001
100
100
100
100
100
100
100
100
100
100
100
100
100
100
100
100
100
100
100
100
100
100
100
100
100
100
100
100
100
100
100
100
100
386.211
358.815
331.961
305.987
281.196
257.846
236.145
216.241
198.227
182.137
167.955
155.618
145.026
136.052
128.548
122.353
117.307
113.248
110.027
107.502
105.549
104.058
102.933
102.096
101.48
101.034
100.713
100.487
100.328
100.219
100.144
100.094
100.06
100.038
100.024
100.015
100.009
100.006
100.003
100.002
100.001
100.001
100
100
100
100
100
100
100
100
100
100
100
100
100
100
100
100
100
100
100
100
100
100
100
100
100
100
100
100
100
100
100
100
100
386.211
358.815
331.961
305.987
281.196
257.846
236.145
216.241
198.227
182.137
167.955
155.618
145.026
136.052
128.548
122.353
117.307
113.248
110.027
107.502
105.549
104.058
102.933
102.096
101.48
101.034
100.713
100.487
100.328
100.219
100.144
100.094
100.06
100.038
100.024
100.015
100.009
100.006
100.003
100.002
100.001
100.001
100
100
100
100
100
100
100
100
100
100
100
100
100
100
100
100
100
100
100
100
100
100
100
100
100
100
100
100
100
100
100
100
100
386.211
358.815
331.961
305.987
281.196
257.846
236.145
216.241
198.227
182.137
167.955
155.618
145.026
136.052
128.548
122.353
117.307
113.248
110.027
107.502
105.549
104.058
102.933
102.096
101.48
101.034
100.713
100.487
100.328
100.219
100.144
100.094
100.06
100.038
100.024
100.015
100.009
100.006
100.003
100.002
100.001
100.001
100
100
100
100
100
100
100
100
100
100
100
100
100
100
100
100
100
100
100
100
100
100
100
100
100
100
100
100
100
100
100
100
100
386.211
358.815
331.961
305.987
281.196
257.846
236.145
216.241
198.227
182.137
167.955
155.618
145.026
136.052
128.548
122.353
117.307
113.248
110.027
107.502
105.549
104.058
102.933
102.096
101.48
101.034
100.713
100.487
100.328
100.219
100.144
100.094
100.06
100.038
100.024
100.015
100.009
100.006
100.003
100.002
100.001
100.001
100
100
100
100
100
100
100
100
100
100
100
100
100
100
100
100
100
100
100
100
100
100
100
100
100
100
100
100
100
100
100
100
100
386.211
358.815
331.961
305.987
281.196
257.846
236.145
216.241
198.227
182.137
167.955
155.618
145.026
136.052