/*--------------------------------*- C++ -*----------------------------------*\
  =========                 |
  \\      /  F ield         | OpenFOAM: The Open Source CFD Toolbox
   \\    /   O peration     | Website:  https://openfoam.org
    \\  /    A nd           | Version:  10
     \\/     M anipulation  |
\*---------------------------------------------------------------------------*/
FoamFile
{
    format      ascii;
    class       volScalarField;
    location    "470";
    object      T;
}
// * * * * * * * * * * * * * * * * * * * * * * * * * * * * * * * * * * * * * //

dimensions      [0 0 0 1 0 0 0];

internalField   nonuniform List<scalar> 
11250
(
249.887
167.69
139.58
127.247
120.552
116.328
113.388
111.205
109.509
108.147
107.027
106.088
105.29
104.605
104.012
103.495
103.044
102.648
102.3
101.995
101.726
101.49
101.283
101.102
100.944
100.806
100.686
100.582
100.492
100.414
100.348
100.291
100.243
100.201
100.167
100.137
100.113
100.092
100.075
100.061
100.049
100.04
100.032
100.025
100.02
100.016
100.013
100.01
100.008
100.006
100.005
100.004
100.003
100.002
100.002
100.001
100.001
100.001
100.001
100
100
100
100
100
100
100
100
100
100
100
100
100
100
100
100
331.633
248.986
202.966
176.113
159.193
147.71
139.422
133.143
128.208
124.216
120.916
118.14
115.776
113.741
111.978
110.44
109.094
107.914
106.876
105.964
105.162
104.457
103.839
103.297
102.824
102.411
102.052
101.741
101.472
101.24
101.041
100.871
100.726
100.603
100.499
100.411
100.337
100.276
100.225
100.182
100.147
100.119
100.095
100.076
100.06
100.048
100.038
100.03
100.023
100.018
100.014
100.011
100.008
100.006
100.005
100.004
100.003
100.002
100.002
100.001
100.001
100.001
100
100
100
100
100
100
100
100
100
100
100
100
100
359.296
293.665
247.201
215.067
192.424
175.93
163.482
153.781
146.01
139.643
134.331
129.836
125.987
122.663
119.774
117.249
115.036
113.091
111.38
109.874
108.549
107.384
106.361
105.465
104.681
103.998
103.403
102.887
102.442
102.058
101.728
101.445
101.205
101.001
100.828
100.682
100.56
100.458
100.373
100.303
100.245
100.197
100.158
100.126
100.1
100.079
100.063
100.049
100.038
100.03
100.023
100.018
100.014
100.011
100.008
100.006
100.005
100.003
100.003
100.002
100.001
100.001
100.001
100.001
100
100
100
100
100
100
100
100
100
100
100
371.185
319.192
277.133
244.566
219.553
200.158
184.859
172.558
162.483
154.096
147.018
140.974
135.765
131.244
127.298
123.84
120.8
118.124
115.766
113.687
111.856
110.245
108.829
107.588
106.501
105.554
104.729
104.013
103.394
102.86
102.402
102.01
101.676
101.392
101.152
100.949
100.779
100.637
100.519
100.421
100.34
100.274
100.22
100.175
100.139
100.11
100.087
100.068
100.053
100.042
100.032
100.025
100.019
100.015
100.011
100.008
100.006
100.005
100.004
100.003
100.002
100.001
100.001
100.001
100.001
100
100
100
100
100
100
100
100
100
100
377.446
334.809
297.61
266.56
241.128
220.367
203.326
189.205
177.375
167.356
158.789
151.401
144.984
139.381
134.466
130.142
126.33
122.966
119.994
117.37
115.056
113.017
111.223
109.649
108.271
107.067
106.019
105.11
104.322
103.644
103.061
102.562
102.136
101.774
101.468
101.21
100.994
100.813
100.662
100.537
100.434
100.35
100.28
100.224
100.178
100.141
100.111
100.087
100.068
100.053
100.041
100.032
100.024
100.019
100.014
100.011
100.008
100.006
100.005
100.003
100.003
100.002
100.001
100.001
100.001
100.001
100
100
100
100
100
100
100
100
100
381.243
345.015
311.983
283
258.115
236.952
218.985
203.686
190.59
179.31
169.535
161.015
153.554
146.994
141.21
136.1
131.577
127.574
124.03
120.895
118.124
115.68
113.527
111.636
109.978
108.529
107.267
106.171
105.222
104.403
103.699
103.096
102.582
102.145
101.776
101.464
101.202
100.984
100.801
100.65
100.526
100.423
100.339
100.271
100.215
100.171
100.134
100.106
100.083
100.064
100.05
100.039
100.03
100.023
100.017
100.013
100.01
100.007
100.006
100.004
100.003
100.002
100.002
100.001
100.001
100.001
100
100
100
100
100
100
100
100
100
383.768
352.06
322.365
295.421
271.478
250.459
232.11
216.116
202.155
189.937
179.211
169.764
161.42
154.034
147.484
141.67
136.505
131.918
127.847
124.237
121.041
118.216
115.725
113.534
111.612
109.931
108.464
107.19
106.086
105.133
104.314
103.612
103.013
102.504
102.073
101.709
101.404
101.148
100.936
100.76
100.614
100.494
100.396
100.316
100.252
100.199
100.157
100.123
100.097
100.075
100.058
100.045
100.035
100.027
100.02
100.015
100.012
100.009
100.007
100.005
100.004
100.003
100.002
100.001
100.001
100.001
100.001
100
100
100
100
100
100
100
100
385.548
357.133
330.064
304.931
282.033
261.432
243.041
226.688
212.169
199.279
187.825
177.636
168.562
160.474
153.26
146.826
141.088
135.975
131.423
127.378
123.789
120.612
117.806
115.335
113.164
111.264
109.605
108.162
106.911
105.831
104.902
104.106
103.426
102.847
102.357
101.944
101.597
101.307
101.065
100.865
100.699
100.563
100.451
100.36
100.287
100.227
100.179
100.141
100.11
100.086
100.066
100.051
100.039
100.03
100.023
100.018
100.013
100.01
100.007
100.006
100.004
100.003
100.002
100.002
100.001
100.001
100.001
100
100
100
100
100
100
100
100
386.856
360.905
335.902
312.312
290.421
270.354
252.114
235.627
220.775
207.42
195.423
184.652
174.984
166.308
158.528
151.555
145.312
139.73
134.746
130.306
126.359
122.858
119.761
117.03
114.628
112.523
110.684
109.083
107.694
106.494
105.461
104.575
103.818
103.174
102.629
102.169
101.782
101.458
101.189
100.965
100.78
100.628
100.504
100.403
100.32
100.254
100.2
100.157
100.123
100.096
100.074
100.057
100.044
100.034
100.026
100.02
100.015
100.011
100.008
100.006
100.005
100.003
100.003
100.002
100.001
100.001
100.001
100.001
100
100
100
100
100
100
100
387.845
363.779
340.412
318.111
297.134
277.625
259.638
243.159
228.13
214.467
202.074
190.854
180.71
171.55
163.291
155.856
149.173
143.177
137.809
133.015
128.743
124.947
121.584
118.614
115.999
113.704
111.698
109.949
108.432
107.119
105.989
105.019
104.19
103.484
102.886
102.382
101.957
101.602
101.306
101.061
100.858
100.691
100.554
100.443
100.352
100.279
100.22
100.173
100.135
100.105
100.082
100.063
100.049
100.037
100.028
100.022
100.016
100.012
100.009
100.007
100.005
100.004
100.003
100.002
100.001
100.001
100.001
100.001
100
100
100
100
100
100
100
388.609
366.011
343.948
322.717
302.541
283.568
265.876
249.49
234.39
220.534
207.861
196.299
185.778
176.224
167.566
159.737
152.675
146.318
140.611
135.501
130.938
126.877
123.272
120.084
117.273
114.804
112.643
110.759
109.122
107.705
106.484
105.436
104.539
103.776
103.129
102.582
102.123
101.738
101.417
101.151
100.931
100.75
100.602
100.481
100.382
100.303
100.239
100.188
100.147
100.114
100.089
100.069
100.053
100.04
100.031
100.023
100.018
100.013
100.01
100.007
100.006
100.004
100.003
100.002
100.002
100.001
100.001
100.001
100
100
100
100
100
100
100
389.208
367.77
346.755
326.407
306.922
288.441
271.053
254.804
239.704
225.737
212.869
201.052
190.236
180.363
171.375
163.216
155.829
149.159
143.155
137.767
132.946
128.646
124.824
121.439
118.451
115.823
113.52
111.511
109.764
108.25
106.945
105.824
104.866
104.049
103.356
102.77
102.278
101.865
101.521
101.236
101
100.805
100.646
100.516
100.411
100.326
100.257
100.202
100.158
100.123
100.095
100.074
100.057
100.043
100.033
100.025
100.019
100.014
100.011
100.008
100.006
100.004
100.003
100.002
100.002
100.001
100.001
100.001
100
100
100
100
100
100
100
389.685
369.172
349.004
329.387
310.491
292.449
275.353
259.262
244.204
230.183
217.184
205.18
194.136
184.007
174.749
166.313
158.65
151.712
145.451
139.818
134.769
130.258
126.241
122.679
119.531
116.759
114.328
112.204
110.357
108.755
107.373
106.185
105.169
104.302
103.567
102.945
102.422
101.984
101.618
101.315
101.064
100.857
100.688
100.55
100.437
100.347
100.274
100.215
100.168
100.131
100.102
100.079
100.06
100.046
100.035
100.027
100.02
100.015
100.011
100.009
100.006
100.005
100.003
100.003
100.002
100.001
100.001
100.001
100.001
100
100
100
100
100
100
390.067
370.299
350.821
331.808
313.411
295.753
278.928
263
248.009
233.971
220.889
208.75
197.53
187.198
177.719
169.054
161.159
153.992
147.508
141.664
136.414
131.716
127.528
123.807
120.515
117.614
115.067
112.84
110.901
109.219
107.767
106.518
105.448
104.536
103.762
103.107
102.556
102.094
101.709
101.388
101.124
100.906
100.727
100.581
100.462
100.366
100.289
100.227
100.178
100.139
100.108
100.083
100.064
100.049
100.037
100.028
100.021
100.016
100.012
100.009
100.007
100.005
100.004
100.003
100.002
100.001
100.001
100.001
100.001
100
100
100
100
100
100
390.376
371.211
352.296
333.783
315.808
298.484
281.903
266.133
251.22
237.192
224.06
211.824
200.471
189.979
180.321
171.466
163.377
156.016
149.342
143.314
137.89
133.028
128.688
124.827
121.408
118.391
115.74
113.42
111.398
109.644
108.128
106.823
105.705
104.751
103.941
103.256
102.679
102.196
101.792
101.456
101.179
100.95
100.763
100.61
100.485
100.385
100.304
100.239
100.187
100.146
100.113
100.087
100.067
100.051
100.039
100.03
100.023
100.017
100.013
100.01
100.007
100.005
100.004
100.003
100.002
100.002
100.001
100.001
100.001
100
100
100
100
100
100
390.627
371.954
353.501
335.402
317.781
300.745
284.38
268.757
253.927
239.923
226.766
214.463
203.008
192.391
182.589
173.579
165.328
157.802
150.966
144.781
139.206
134.202
129.728
125.744
122.211
119.092
116.348
113.945
111.849
110.029
108.456
107.101
105.939
104.948
104.106
103.393
102.792
102.289
101.868
101.519
101.229
100.991
100.796
100.636
100.507
100.402
100.317
100.249
100.195
100.152
100.118
100.091
100.07
100.054
100.041
100.031
100.024
100.018
100.013
100.01
100.007
100.005
100.004
100.003
100.002
100.002
100.001
100.001
100.001
100
100
100
100
100
100
390.832
372.561
354.487
336.732
319.409
302.618
286.444
270.955
256.206
242.236
229.069
216.72
205.19
194.474
184.558
175.419
167.034
159.371
152.397
146.077
140.373
135.245
130.655
126.563
122.931
119.721
116.895
114.418
112.256
110.378
108.753
107.353
106.152
105.127
104.255
103.517
102.895
102.374
101.938
101.576
101.276
101.029
100.826
100.661
100.526
100.417
100.329
100.259
100.203
100.158
100.123
100.095
100.073
100.056
100.043
100.032
100.025
100.018
100.014
100.01
100.008
100.006
100.004
100.003
100.002
100.002
100.001
100.001
100.001
100
100
100
100
100
100
391
373.059
355.297
337.827
320.754
304.172
288.162
272.794
258.122
244.189
231.024
218.644
207.059
196.267
186.258
177.016
168.52
160.742
153.652
147.217
141.402
136.167
131.477
127.291
123.572
120.282
117.384
114.841
112.621
110.691
109.02
107.58
106.344
105.288
104.39
103.629
102.988
102.451
102.001
101.627
101.318
101.063
100.854
100.683
100.544
100.431
100.34
100.268
100.21
100.163
100.127
100.098
100.075
100.058
100.044
100.034
100.025
100.019
100.014
100.011
100.008
100.006
100.004
100.003
100.002
100.002
100.001
100.001
100.001
100
100
100
100
100
100
391.138
373.468
355.964
338.731
321.866
305.461
289.593
274.331
259.731
245.835
232.678
220.281
208.655
197.804
187.721
178.395
169.807
161.934
154.747
148.215
142.304
136.979
132.202
127.935
124.14
120.78
117.818
115.219
112.947
110.971
109.259
107.783
106.516
105.433
104.511
103.731
103.072
102.52
102.058
101.674
101.356
101.094
100.879
100.703
100.56
100.444
100.351
100.276
100.216
100.168
100.131
100.101
100.078
100.06
100.045
100.035
100.026
100.02
100.015
100.011
100.008
100.006
100.004
100.003
100.002
100.002
100.001
100.001
100.001
100
100
100
100
100
100
391.251
373.805
356.513
339.476
322.787
306.53
290.784
275.615
261.079
247.221
234.076
221.668
210.013
199.116
188.975
179.581
170.918
162.966
155.697
149.083
143.092
137.689
132.837
128.5
124.64
121.22
118.203
115.553
113.236
111.219
109.472
107.964
106.669
105.562
104.62
103.821
103.148
102.582
102.109
101.716
101.39
101.122
100.901
100.721
100.574
100.455
100.36
100.283
100.222
100.173
100.134
100.104
100.08
100.061
100.047
100.036
100.027
100.02
100.015
100.011
100.008
100.006
100.005
100.003
100.002
100.002
100.001
100.001
100.001
100
100
100
100
100
100
391.344
374.082
356.966
340.092
323.548
307.417
291.775
276.686
262.207
248.384
235.253
222.841
211.165
200.233
190.046
180.597
171.873
163.855
156.518
149.836
143.777
138.307
133.392
128.995
125.078
121.606
118.541
115.847
113.491
111.439
109.66
108.124
106.805
105.677
104.716
103.902
103.215
102.638
102.155
101.754
101.421
101.146
100.921
100.737
100.587
100.466
100.368
100.289
100.227
100.177
100.137
100.106
100.082
100.063
100.048
100.036
100.028
100.021
100.016
100.012
100.009
100.006
100.005
100.003
100.003
100.002
100.001
100.001
100.001
100
100
100
100
100
100
391.421
374.31
357.339
340.6
324.177
308.152
292.598
277.578
263.15
249.359
236.243
223.83
212.139
201.181
190.957
181.464
172.69
164.618
157.225
150.485
144.369
138.843
133.874
129.425
125.461
121.943
118.837
116.105
113.715
111.632
109.826
108.266
106.925
105.778
104.802
103.973
103.274
102.687
102.196
101.787
101.448
101.169
100.939
100.751
100.599
100.475
100.375
100.295
100.231
100.18
100.14
100.108
100.083
100.064
100.049
100.037
100.028
100.021
100.016
100.012
100.009
100.007
100.005
100.004
100.003
100.002
100.001
100.001
100.001
100
100
100
100
100
100
391.484
374.498
357.647
341.019
324.697
308.761
293.28
278.32
263.935
250.173
237.072
224.661
212.96
201.982
191.73
182.201
173.386
165.269
157.83
151.042
144.878
139.305
134.29
129.798
125.792
122.236
119.094
116.33
113.91
111.801
109.971
108.39
107.031
105.868
104.877
104.036
103.327
102.731
102.232
101.816
101.472
101.188
100.955
100.764
100.609
100.483
100.382
100.3
100.235
100.184
100.143
100.11
100.085
100.065
100.05
100.038
100.029
100.022
100.016
100.012
100.009
100.007
100.005
100.004
100.003
100.002
100.001
100.001
100.001
100.001
100
100
100
100
100
391.536
374.652
357.9
341.364
325.127
309.264
293.846
278.936
264.589
250.853
237.766
225.358
213.65
202.656
192.382
182.825
173.977
165.824
158.346
151.519
145.314
139.702
134.649
130.119
126.078
122.49
119.317
116.526
114.08
111.948
110.097
108.498
107.123
105.946
104.942
104.091
103.373
102.769
102.263
101.842
101.493
101.205
100.969
100.775
100.618
100.49
100.388
100.305
100.239
100.186
100.145
100.112
100.086
100.066
100.05
100.038
100.029
100.022
100.016
100.012
100.009
100.007
100.005
100.004
100.003
100.002
100.001
100.001
100.001
100.001
100
100
100
100
100
391.579
374.779
358.108
341.649
325.481
309.679
294.314
279.446
265.132
251.418
238.344
225.94
214.228
203.223
192.931
183.351
174.477
166.294
158.784
151.924
145.686
140.041
134.955
130.395
126.324
122.708
119.51
116.694
114.227
112.075
110.207
108.592
107.203
106.014
105
104.139
103.413
102.802
102.291
101.865
101.512
101.221
100.981
100.785
100.626
100.497
100.393
100.309
100.242
100.189
100.147
100.113
100.087
100.067
100.051
100.039
100.029
100.022
100.017
100.012
100.009
100.007
100.005
100.004
100.003
100.002
100.001
100.001
100.001
100.001
100
100
100
100
100
391.614
374.884
358.279
341.883
325.772
310.022
294.7
279.868
265.581
251.887
238.825
226.425
214.711
203.697
193.391
183.794
174.898
166.691
159.155
152.267
146.002
140.329
135.217
130.63
126.535
122.895
119.675
116.839
114.353
112.185
110.301
108.673
107.272
106.072
105.049
104.181
103.448
102.831
102.315
101.885
101.528
101.234
100.992
100.794
100.633
100.502
100.397
100.312
100.245
100.191
100.148
100.115
100.088
100.068
100.052
100.039
100.03
100.022
100.017
100.013
100.009
100.007
100.005
100.004
100.003
100.002
100.001
100.001
100.001
100.001
100
100
100
100
100
391.643
374.969
358.42
342.075
326.012
310.303
295.018
280.216
265.953
252.276
239.224
226.828
215.113
204.093
193.776
184.164
175.251
167.024
159.467
152.557
146.269
140.573
135.438
130.83
126.714
123.054
119.816
116.963
114.462
112.279
110.383
108.743
107.332
106.123
105.092
104.217
103.478
102.856
102.336
101.902
101.542
101.245
101.001
100.802
100.639
100.507
100.401
100.315
100.247
100.193
100.15
100.116
100.089
100.068
100.052
100.04
100.03
100.023
100.017
100.013
100.009
100.007
100.005
100.004
100.003
100.002
100.001
100.001
100.001
100.001
100
100
100
100
100
391.666
375.039
358.535
342.232
326.208
310.535
295.279
280.502
266.259
252.596
239.553
227.162
215.446
204.421
194.097
184.473
175.546
167.304
159.729
152.801
146.494
140.779
135.626
130.999
126.865
123.189
119.935
117.068
114.554
112.359
110.452
108.803
107.383
106.167
105.129
104.248
103.504
102.878
102.354
101.917
101.554
101.255
101.009
100.808
100.644
100.511
100.404
100.318
100.249
100.195
100.151
100.117
100.09
100.069
100.053
100.04
100.03
100.023
100.017
100.013
100.01
100.007
100.005
100.004
100.003
100.002
100.001
100.001
100.001
100.001
100
100
100
100
100
391.685
375.096
358.629
342.361
326.369
310.724
295.493
280.737
266.511
252.86
239.825
227.438
215.722
204.694
194.363
184.73
175.792
167.537
159.948
153.005
146.683
140.952
135.783
131.142
126.993
123.304
120.037
117.158
114.632
112.427
110.511
108.854
107.427
106.204
105.16
104.275
103.526
102.896
102.369
101.929
101.565
101.264
101.016
100.814
100.649
100.515
100.407
100.32
100.251
100.196
100.152
100.118
100.091
100.07
100.053
100.04
100.031
100.023
100.017
100.013
100.01
100.007
100.005
100.004
100.003
100.002
100.001
100.001
100.001
100.001
100
100
100
100
100
391.701
375.143
358.705
342.466
326.5
310.879
295.669
280.93
266.717
253.077
240.048
227.665
215.949
204.919
194.583
184.943
175.996
167.73
160.13
153.175
146.84
141.097
135.915
131.261
127.101
123.4
120.122
117.233
114.698
112.485
110.561
108.897
107.463
106.235
105.187
104.297
103.545
102.912
102.382
101.94
101.574
101.271
101.022
100.818
100.653
100.518
100.41
100.322
100.253
100.197
100.153
100.119
100.091
100.07
100.053
100.041
100.031
100.023
100.017
100.013
100.01
100.007
100.005
100.004
100.003
100.002
100.002
100.001
100.001
100.001
100
100
100
100
100
391.714
375.181
358.768
342.551
326.607
311.005
295.811
281.087
266.886
253.254
240.232
227.851
216.136
205.104
194.764
185.119
176.164
167.89
160.281
153.316
146.971
141.217
136.025
131.361
127.191
123.48
120.193
117.296
114.754
112.533
110.603
108.933
107.495
106.262
105.21
104.316
103.561
102.925
102.393
101.949
101.581
101.277
101.027
100.823
100.656
100.521
100.412
100.324
100.254
100.198
100.154
100.119
100.092
100.07
100.054
100.041
100.031
100.023
100.018
100.013
100.01
100.007
100.005
100.004
100.003
100.002
100.002
100.001
100.001
100.001
100
100
100
100
100
391.724
375.212
358.818
342.621
326.693
311.107
295.928
281.215
267.023
253.398
240.381
228.003
216.289
205.255
194.913
185.263
176.303
168.022
160.406
153.433
147.079
141.317
136.116
131.444
127.266
123.547
120.253
117.349
114.8
112.574
110.638
108.963
107.521
106.284
105.228
104.332
103.574
102.937
102.402
101.957
101.588
101.282
101.031
100.826
100.659
100.523
100.413
100.325
100.255
100.199
100.155
100.12
100.092
100.071
100.054
100.041
100.031
100.023
100.018
100.013
100.01
100.007
100.005
100.004
100.003
100.002
100.002
100.001
100.001
100.001
100
100
100
100
100
391.732
375.237
358.859
342.677
326.764
311.19
296.022
281.319
267.135
253.516
240.503
228.127
216.414
205.379
195.035
185.382
176.417
168.131
160.508
153.529
147.169
141.4
136.192
131.512
127.327
123.603
120.303
117.393
114.839
112.607
110.668
108.989
107.542
106.303
105.244
104.346
103.586
102.946
102.41
101.964
101.593
101.287
101.035
100.829
100.661
100.525
100.415
100.327
100.256
100.2
100.155
100.12
100.093
100.071
100.054
100.041
100.031
100.024
100.018
100.013
100.01
100.007
100.005
100.004
100.003
100.002
100.002
100.001
100.001
100.001
100
100
100
100
100
391.739
375.257
358.892
342.722
326.82
311.257
296.098
281.403
267.225
253.611
240.602
228.228
216.515
205.48
195.134
185.478
176.51
168.22
160.592
153.608
147.242
141.467
136.254
131.569
127.379
123.648
120.343
117.429
114.871
112.635
110.692
109.01
107.561
106.318
105.258
104.357
103.595
102.954
102.417
101.969
101.597
101.29
101.038
100.831
100.663
100.526
100.416
100.328
100.257
100.201
100.156
100.121
100.093
100.071
100.054
100.041
100.031
100.024
100.018
100.013
100.01
100.007
100.005
100.004
100.003
100.002
100.002
100.001
100.001
100.001
100
100
100
100
100
391.744
375.273
358.919
342.759
326.866
311.312
296.16
281.471
267.298
253.689
240.682
228.31
216.597
205.562
195.214
185.557
176.586
168.292
160.661
153.672
147.302
141.523
136.305
131.615
127.421
123.686
120.377
117.459
114.897
112.659
110.712
109.027
107.576
106.331
105.269
104.366
103.603
102.96
102.422
101.974
101.601
101.294
101.04
100.833
100.665
100.528
100.417
100.329
100.258
100.201
100.156
100.121
100.093
100.071
100.055
100.042
100.031
100.024
100.018
100.013
100.01
100.007
100.005
100.004
100.003
100.002
100.002
100.001
100.001
100.001
100
100
100
100
100
391.749
375.286
358.94
342.788
326.903
311.355
296.209
281.526
267.357
253.751
240.746
228.376
216.664
205.629
195.28
185.62
176.647
168.351
160.717
153.724
147.351
141.568
136.346
131.653
127.455
123.717
120.405
117.483
114.919
112.678
110.729
109.042
107.588
106.342
105.278
104.374
103.609
102.966
102.427
101.977
101.604
101.296
101.043
100.835
100.666
100.529
100.418
100.329
100.258
100.201
100.157
100.121
100.093
100.072
100.055
100.042
100.032
100.024
100.018
100.013
100.01
100.007
100.005
100.004
100.003
100.002
100.002
100.001
100.001
100.001
100
100
100
100
100
391.752
375.296
358.957
342.811
326.932
311.39
296.249
281.569
267.404
253.8
240.798
228.429
216.717
205.682
195.332
185.672
176.697
168.398
160.762
153.767
147.39
141.605
136.38
131.684
127.483
123.742
120.427
117.503
114.936
112.693
110.742
109.053
107.598
106.35
105.285
104.38
103.615
102.97
102.431
101.981
101.607
101.298
101.044
100.836
100.667
100.53
100.419
100.33
100.259
100.202
100.157
100.121
100.094
100.072
100.055
100.042
100.032
100.024
100.018
100.013
100.01
100.007
100.005
100.004
100.003
100.002
100.002
100.001
100.001
100.001
100
100
100
100
100
391.755
375.304
358.971
342.83
326.956
311.418
296.281
281.604
267.442
253.84
240.839
228.471
216.76
205.725
195.375
185.713
176.737
168.437
160.798
153.801
147.422
141.634
136.407
131.709
127.506
123.763
120.446
117.52
114.951
112.706
110.753
109.063
107.607
106.357
105.291
104.385
103.619
102.974
102.434
101.983
101.609
101.3
101.046
100.838
100.668
100.531
100.42
100.33
100.259
100.202
100.157
100.122
100.094
100.072
100.055
100.042
100.032
100.024
100.018
100.013
100.01
100.007
100.005
100.004
100.003
100.002
100.002
100.001
100.001
100.001
100
100
100
100
100
391.757
375.311
358.981
342.845
326.974
311.44
296.306
281.632
267.472
253.872
240.872
228.505
216.795
205.759
195.408
185.746
176.769
168.467
160.827
153.829
147.448
141.658
136.429
131.729
127.524
123.779
120.461
117.533
114.962
112.716
110.762
109.071
107.613
106.363
105.296
104.389
103.623
102.977
102.436
101.985
101.611
101.301
101.047
100.839
100.669
100.531
100.42
100.331
100.259
100.202
100.157
100.122
100.094
100.072
100.055
100.042
100.032
100.024
100.018
100.013
100.01
100.007
100.005
100.004
100.003
100.002
100.002
100.001
100.001
100.001
100
100
100
100
100
391.759
375.316
358.99
342.857
326.989
311.457
296.326
281.654
267.496
253.897
240.899
228.532
216.822
205.786
195.435
185.772
176.794
168.492
160.851
153.851
147.469
141.678
136.447
131.745
127.539
123.793
120.473
117.544
114.972
112.725
110.77
109.077
107.619
106.368
105.3
104.393
103.625
102.98
102.438
101.987
101.612
101.302
101.048
100.839
100.669
100.532
100.42
100.331
100.26
100.203
100.157
100.122
100.094
100.072
100.055
100.042
100.032
100.024
100.018
100.013
100.01
100.007
100.005
100.004
100.003
100.002
100.002
100.001
100.001
100.001
100
100
100
100
100
391.76
375.32
358.997
342.866
327.001
311.471
296.342
281.672
267.515
253.917
240.92
228.553
216.844
205.808
195.457
185.793
176.815
168.511
160.869
153.868
147.485
141.693
136.461
131.758
127.55
123.803
120.482
117.552
114.98
112.731
110.776
109.082
107.623
106.372
105.303
104.396
103.628
102.981
102.44
101.988
101.613
101.303
101.049
100.84
100.67
100.532
100.421
100.331
100.26
100.203
100.158
100.122
100.094
100.072
100.055
100.042
100.032
100.024
100.018
100.013
100.01
100.007
100.005
100.004
100.003
100.002
100.002
100.001
100.001
100.001
100
100
100
100
100
391.761
375.324
359.002
342.873
327.01
311.482
296.354
281.685
267.53
253.933
240.936
228.57
216.861
205.825
195.474
185.81
176.831
168.527
160.884
153.882
147.498
141.705
136.473
131.769
127.56
123.812
120.49
117.559
114.986
112.737
110.78
109.086
107.627
106.375
105.306
104.398
103.63
102.983
102.441
101.989
101.614
101.304
101.049
100.84
100.67
100.532
100.421
100.332
100.26
100.203
100.158
100.122
100.094
100.072
100.055
100.042
100.032
100.024
100.018
100.013
100.01
100.007
100.005
100.004
100.003
100.002
100.002
100.001
100.001
100.001
100
100
100
100
100
391.762
375.326
359.006
342.879
327.017
311.491
296.364
281.696
267.541
253.946
240.949
228.583
216.874
205.839
195.487
185.823
176.844
168.539
160.896
153.893
147.509
141.715
136.481
131.777
127.567
123.819
120.496
117.564
114.99
112.741
110.784
109.09
107.63
106.377
105.308
104.4
103.631
102.984
102.442
101.99
101.615
101.305
101.05
100.841
100.671
100.533
100.421
100.332
100.26
100.203
100.158
100.122
100.094
100.072
100.055
100.042
100.032
100.024
100.018
100.013
100.01
100.007
100.005
100.004
100.003
100.002
100.002
100.001
100.001
100.001
100
100
100
100
100
391.763
375.328
359.01
342.884
327.023
311.497
296.371
281.705
267.55
253.955
240.959
228.594
216.885
205.849
195.498
185.833
176.854
168.549
160.905
153.902
147.517
141.722
136.489
131.783
127.573
123.824
120.501
117.569
114.994
112.744
110.787
109.092
107.632
106.379
105.31
104.401
103.632
102.985
102.443
101.991
101.615
101.305
101.05
100.841
100.671
100.533
100.421
100.332
100.26
100.203
100.158
100.122
100.094
100.072
100.055
100.042
100.032
100.024
100.018
100.013
100.01
100.007
100.005
100.004
100.003
100.002
100.002
100.001
100.001
100.001
100
100
100
100
100
391.764
375.33
359.012
342.887
327.027
311.503
296.377
281.711
267.558
253.963
240.967
228.602
216.893
205.857
195.506
185.841
176.861
168.556
160.912
153.909
147.523
141.728
136.494
131.788
127.578
123.828
120.504
117.572
114.997
112.747
110.789
109.094
107.634
106.381
105.311
104.402
103.633
102.986
102.444
101.991
101.616
101.306
101.05
100.841
100.671
100.533
100.422
100.332
100.26
100.203
100.158
100.122
100.094
100.072
100.055
100.042
100.032
100.024
100.018
100.013
100.01
100.007
100.005
100.004
100.003
100.002
100.002
100.001
100.001
100.001
100
100
100
100
100
391.764
375.331
359.014
342.89
327.031
311.507
296.382
281.716
267.563
253.969
240.973
228.608
216.899
205.864
195.512
185.848
176.867
168.562
160.918
153.914
147.528
141.733
136.498
131.792
127.582
123.832
120.507
117.575
115
112.749
110.791
109.096
107.635
106.382
105.312
104.403
103.634
102.987
102.444
101.992
101.616
101.306
101.051
100.842
100.671
100.533
100.422
100.332
100.26
100.203
100.158
100.122
100.094
100.072
100.055
100.042
100.032
100.024
100.018
100.013
100.01
100.007
100.005
100.004
100.003
100.002
100.002
100.001
100.001
100.001
100
100
100
100
100
391.764
375.332
359.016
342.892
327.033
311.51
296.386
281.72
267.567
253.973
240.978
228.613
216.904
205.869
195.517
185.853
176.872
168.567
160.922
153.918
147.532
141.737
136.502
131.796
127.584
123.834
120.51
117.577
115.001
112.751
110.793
109.097
107.636
106.383
105.313
104.404
103.635
102.987
102.445
101.992
101.617
101.306
101.051
100.842
100.671
100.533
100.422
100.332
100.26
100.203
100.158
100.122
100.094
100.072
100.055
100.042
100.032
100.024
100.018
100.013
100.01
100.007
100.005
100.004
100.003
100.002
100.002
100.001
100.001
100.001
100
100
100
100
100
391.764
375.332
359.017
342.893
327.035
311.512
296.388
281.723
267.571
253.977
240.982
228.617
216.908
205.873
195.521
185.856
176.876
168.57
160.925
153.922
147.535
141.74
136.504
131.798
127.587
123.836
120.512
117.579
115.003
112.752
110.794
109.098
107.637
106.384
105.314
104.404
103.635
102.988
102.445
101.993
101.617
101.306
101.051
100.842
100.672
100.533
100.422
100.332
100.26
100.203
100.158
100.122
100.094
100.072
100.055
100.042
100.032
100.024
100.018
100.013
100.01
100.007
100.005
100.004
100.003
100.002
100.002
100.001
100.001
100.001
100
100
100
100
100
391.765
375.333
359.018
342.895
327.037
311.514
296.39
281.726
267.573
253.98
240.984
228.62
216.911
205.876
195.524
185.859
176.879
168.573
160.928
153.924
147.538
141.742
136.506
131.8
127.588
123.838
120.513
117.58
115.004
112.753
110.795
109.099
107.638
106.384
105.314
104.405
103.636
102.988
102.445
101.993
101.617
101.307
101.051
100.842
100.672
100.533
100.422
100.332
100.26
100.203
100.158
100.122
100.094
100.072
100.055
100.042
100.032
100.024
100.018
100.013
100.01
100.007
100.005
100.004
100.003
100.002
100.002
100.001
100.001
100.001
100
100
100
100
100
391.765
375.333
359.018
342.896
327.038
311.515
296.392
281.728
267.575
253.982
240.987
228.622
216.913
205.878
195.526
185.862
176.881
168.575
160.93
153.926
147.539
141.743
136.508
131.801
127.59
123.839
120.514
117.581
115.005
112.754
110.795
109.1
107.638
106.385
105.314
104.405
103.636
102.988
102.446
101.993
101.617
101.307
101.051
100.842
100.672
100.534
100.422
100.332
100.26
100.203
100.158
100.122
100.094
100.072
100.055
100.042
100.032
100.024
100.018
100.013
100.01
100.007
100.005
100.004
100.003
100.002
100.002
100.001
100.001
100.001
100
100
100
100
100
391.765
375.334
359.019
342.896
327.039
311.517
296.393
281.729
267.577
253.983
240.988
228.624
216.915
205.88
195.528
185.863
176.883
168.577
160.932
153.927
147.541
141.745
136.509
131.802
127.591
123.84
120.515
117.582
115.006
112.754
110.796
109.1
107.639
106.385
105.315
104.405
103.636
102.988
102.446
101.993
101.617
101.307
101.051
100.842
100.672
100.534
100.422
100.332
100.26
100.203
100.158
100.122
100.094
100.072
100.055
100.042
100.032
100.024
100.018
100.013
100.01
100.007
100.005
100.004
100.003
100.002
100.002
100.001
100.001
100.001
100
100
100
100
100
391.765
375.334
359.019
342.897
327.04
311.517
296.394
281.73
267.578
253.984
240.989
228.625
216.916
205.881
195.529
185.865
176.884
168.578
160.933
153.929
147.542
141.746
136.51
131.803
127.591
123.84
120.516
117.582
115.006
112.755
110.796
109.1
107.639
106.385
105.315
104.406
103.636
102.989
102.446
101.993
101.617
101.307
101.051
100.842
100.672