/*--------------------------------*- C++ -*----------------------------------*\
  =========                 |
  \\      /  F ield         | OpenFOAM: The Open Source CFD Toolbox
   \\    /   O peration     | Website:  https://openfoam.org
    \\  /    A nd           | Version:  10
     \\/     M anipulation  |
\*---------------------------------------------------------------------------*/
FoamFile
{
    format      ascii;
    class       volScalarField;
    location    "424";
    object      gradTz;
}
// * * * * * * * * * * * * * * * * * * * * * * * * * * * * * * * * * * * * * //

dimensions      [0 -1 0 1 0 0 0];

internalField   nonuniform List<scalar> 
11250
(
-14342.7
-4138.34
-1518.35
-715.217
-411.054
-270.072
-193.397
-146.626
-115.667
-93.8959
-77.8515
-65.5735
-55.8833
-48.0384
-41.5525
-36.0972
-31.4447
-27.4333
-23.9452
-20.8932
-18.2111
-15.8474
-13.7613
-11.9198
-10.2952
-8.86398
-7.60581
-6.50269
-5.53851
-4.69871
-3.97001
-3.34027
-2.79838
-2.33414
-1.93826
-1.60227
-1.31846
-1.07992
-0.88041
-0.714389
-0.576932
-0.463707
-0.37092
-0.295274
-0.233922
-0.184421
-0.144689
-0.112965
-0.087767
-0.0678567
-0.0522067
-0.0399695
-0.0304507
-0.0230852
-0.0174154
-0.0130737
-0.00976619
-0.00725968
-0.00536999
-0.00395271
-0.00289523
-0.00211029
-0.00153065
-0.00110483
-0.000793637
-0.00056742
-0.000403868
-0.000286311
-0.000202371
-0.00014293
-0.000101339
-7.28105e-05
-5.39808e-05
-4.25801e-05
-3.72116e-05
-8232.28
-4830.43
-2738
-1646.51
-1069.82
-745.756
-550.15
-423.945
-337.71
-275.88
-229.726
-194.09
-165.781
-142.751
-123.638
-107.516
-93.7345
-81.8299
-71.4633
-62.3819
-54.3934
-47.3478
-41.1258
-35.6301
-30.7796
-26.505
-22.746
-19.4493
-16.5673
-14.0565
-11.8775
-9.99421
-8.3734
-6.98471
-5.80039
-4.79512
-3.94595
-3.23215
-2.63513
-2.13828
-1.7269
-1.38803
-1.11032
-0.883897
-0.700255
-0.552083
-0.43315
-0.338185
-0.262754
-0.20315
-0.156299
-0.119664
-0.0911672
-0.0691161
-0.0521415
-0.0391428
-0.0292405
-0.0217361
-0.0160783
-0.0118349
-0.00866877
-0.00631857
-0.00458306
-0.00330809
-0.00237634
-0.001699
-0.00120929
-0.000857297
-0.00060596
-0.000427979
-0.000303442
-0.00021802
-0.000161638
-0.000127501
-0.000111427
-5523.12
-4212.54
-2956.14
-2062.46
-1475.45
-1092.53
-837.092
-660.937
-535.046
-441.942
-370.897
-315.151
-270.331
-233.53
-202.77
-176.676
-154.271
-134.849
-117.887
-102.994
-89.8683
-78.2741
-68.0223
-58.9576
-50.9501
-43.888
-37.6741
-32.2216
-27.4527
-23.2965
-19.6884
-16.569
-13.8837
-11.5825
-9.61963
-7.9532
-6.54532
-5.36173
-4.37165
-3.54762
-2.86527
-2.30314
-1.84242
-1.46678
-1.16209
-0.916226
-0.718874
-0.561286
-0.436106
-0.337188
-0.259432
-0.198629
-0.151331
-0.11473
-0.0865551
-0.0649786
-0.0485412
-0.036084
-0.026692
-0.0196478
-0.0143917
-0.0104901
-0.0076089
-0.00549225
-0.00394535
-0.00282082
-0.00200779
-0.00142339
-0.0010061
-0.000710599
-0.000503827
-0.000361999
-0.000268386
-0.000211706
-0.000185017
-4123.56
-3539.49
-2810.66
-2170.84
-1676.16
-1311.05
-1044.07
-847.069
-699.092
-585.54
-496.46
-425.076
-366.745
-318.24
-277.293
-242.282
-212.031
-185.673
-162.56
-142.198
-124.203
-108.273
-94.1606
-81.6637
-70.61
-60.8512
-52.2565
-44.7092
-38.1038
-32.344
-27.3412
-23.0143
-19.2881
-16.0939
-13.3685
-11.0542
-9.09854
-7.4541
-6.07829
-4.93304
-3.98457
-3.2031
-2.56255
-2.04022
-1.61651
-1.27458
-1.0001
-0.780899
-0.606768
-0.469162
-0.360987
-0.276393
-0.210586
-0.159659
-0.120454
-0.0904298
-0.0675561
-0.0502203
-0.0371499
-0.0273464
-0.0200313
-0.0146011
-0.010591
-0.00764491
-0.00549182
-0.00392658
-0.00279489
-0.00198142
-0.00140055
-0.000989213
-0.00070138
-0.000503948
-0.000373632
-0.00029473
-0.000257577
-3306.71
-3009.85
-2574.85
-2132.86
-1746.14
-1430.39
-1180.12
-983.345
-828.012
-704.101
-603.895
-521.655
-453.169
-395.357
-345.963
-303.318
-266.183
-233.622
-204.923
-179.533
-157.019
-137.03
-119.281
-103.533
-89.581
-77.2463
-66.3704
-56.8105
-48.4367
-41.1294
-34.7787
-29.2828
-24.5479
-20.4873
-17.0213
-14.0772
-11.5886
-9.49556
-7.74401
-6.2857
-5.07774
-4.0823
-3.26625
-2.60071
-2.06077
-1.625
-1.27514
-0.995724
-0.773738
-0.598299
-0.460374
-0.352507
-0.26859
-0.203645
-0.153645
-0.115353
-0.0861779
-0.0640658
-0.0473935
-0.0348879
-0.0255561
-0.0186288
-0.0135128
-0.00975426
-0.00700726
-0.00501021
-0.00356628
-0.00252835
-0.00178718
-0.00126231
-0.000895035
-0.000643104
-0.000476813
-0.000376128
-0.000328718
-2784.99
-2616.65
-2344.39
-2038.04
-1743.67
-1482.91
-1261.47
-1077.12
-924.616
-798.233
-692.817
-604.103
-528.71
-464.01
-407.985
-359.087
-316.126
-278.183
-244.541
-214.633
-188.004
-164.284
-143.164
-124.381
-107.708
-92.9439
-79.9076
-68.4352
-58.376
-49.5904
-41.9491
-35.3321
-29.6279
-24.7337
-20.5544
-17.0029
-14
-11.4735
-9.35864
-7.59743
-6.13824
-4.93554
-3.94939
-3.145
-2.49231
-1.96546
-1.54244
-1.20455
-0.936078
-0.723881
-0.557042
-0.426552
-0.325027
-0.246449
-0.185949
-0.139612
-0.104306
-0.0775461
-0.057368
-0.0422321
-0.030937
-0.0225519
-0.0163591
-0.0118092
-0.00848374
-0.00606606
-0.00431795
-0.00306133
-0.00216398
-0.00152849
-0.00108379
-0.000778748
-0.000577396
-0.000455482
-0.000398075
-2429.5
-2325.28
-2146
-1929.31
-1705.81
-1494.45
-1304.26
-1137.76
-994.016
-870.523
-764.371
-672.776
-593.306
-523.932
-463.007
-409.212
-361.494
-319.017
-281.109
-247.226
-216.924
-189.832
-165.634
-144.058
-124.864
-107.836
-92.7767
-79.5064
-67.8573
-57.673
-48.8075
-41.1247
-34.4974
-28.8078
-23.9469
-19.8144
-16.3186
-13.3766
-10.9131
-8.86089
-7.16021
-5.75813
-4.60825
-3.67014
-2.9088
-2.29417
-1.80058
-1.40628
-1.09294
-0.845254
-0.650491
-0.498146
-0.379606
-0.287851
-0.217201
-0.163085
-0.12185
-0.0905934
-0.0670235
-0.0493422
-0.0361471
-0.0263509
-0.0191156
-0.0137995
-0.00991395
-0.00708893
-0.00504621
-0.00357776
-0.0025291
-0.00178644
-0.00126673
-0.000910222
-0.000674895
-0.000532408
-0.000465312
-2175.76
-2106.56
-1982.68
-1825.16
-1653.72
-1482.92
-1321.62
-1174.16
-1041.9
-924.446
-820.589
-728.792
-647.512
-575.339
-511.047
-453.601
-402.14
-355.952
-314.45
-277.143
-243.621
-213.53
-186.564
-162.452
-140.951
-121.837
-104.905
-89.962
-76.8279
-65.3327
-55.3166
-46.6294
-39.1303
-32.6881
-27.181
-22.4968
-18.5327
-15.1951
-12.3994
-10.0697
-8.13852
-6.54597
-5.23958
-4.17355
-3.30822
-2.60952
-2.04831
-1.59993
-1.24357
-0.961837
-0.740276
-0.56695
-0.43207
-0.327658
-0.247254
-0.185662
-0.138727
-0.103147
-0.0763151
-0.0561855
-0.0411624
-0.0300083
-0.0217698
-0.0157162
-0.0112914
-0.00807416
-0.00574774
-0.00407528
-0.0028809
-0.002035
-0.00144302
-0.00103693
-0.000768871
-0.00060656
-0.000530129
-1988.4
-1939.77
-1850.33
-1732.36
-1598.61
-1459.71
-1323.17
-1193.65
-1073.51
-963.611
-863.86
-773.681
-692.275
-618.79
-552.41
-492.396
-438.102
-388.966
-344.507
-304.309
-268.01
-235.293
-205.872
-179.487
-155.9
-134.887
-116.239
-99.7554
-85.2475
-72.535
-61.4469
-51.8213
-43.5056
-36.3569
-30.2422
-25.0384
-20.6323
-16.921
-13.811
-11.2186
-9.06887
-7.29562
-5.84062
-4.65304
-3.68884
-2.91014
-2.28458
-1.78468
-1.38733
-1.07314
-0.826016
-0.632672
-0.482197
-0.365701
-0.275982
-0.207249
-0.154867
-0.115155
-0.0852042
-0.0627335
-0.0459619
-0.033509
-0.0243105
-0.0175513
-0.0126103
-0.00901768
-0.00641966
-0.00455186
-0.00321792
-0.00227314
-0.00161195
-0.00115836
-0.00085894
-0.000677636
-0.00059226
-1846.53
-1810.68
-1743.51
-1652.49
-1546
-1431.67
-1315.53
-1201.84
-1093.28
-991.317
-896.567
-809.119
-728.742
-655.051
-587.593
-525.91
-469.566
-418.158
-371.322
-328.728
-290.077
-255.093
-223.523
-195.125
-169.673
-146.949
-126.744
-108.855
-93.0882
-79.2554
-67.1772
-56.6821
-47.6078
-39.8012
-33.1194
-27.4296
-22.6097
-18.5478
-15.1427
-12.3032
-9.94782
-8.00431
-6.40915
-5.10684
-4.04925
-3.19494
-2.5085
-1.95986
-1.52368
-1.17874
-0.907395
-0.695071
-0.529804
-0.40184
-0.303281
-0.227766
-0.170211
-0.126572
-0.0936584
-0.0689623
-0.0505284
-0.0368403
-0.0267287
-0.0192981
-0.013866
-0.00991609
-0.00705954
-0.00500578
-0.00353896
-0.00250002
-0.0017729
-0.00127408
-0.00094478
-0.000745382
-0.000651484
-1737.04
-1709.52
-1657.24
-1584.95
-1498.29
-1402.74
-1303.02
-1202.8
-1104.68
-1010.37
-920.881
-836.735
-758.112
-684.986
-617.208
-554.566
-496.82
-443.719
-395.017
-350.475
-309.86
-272.947
-239.518
-209.359
-182.258
-158.008
-136.404
-117.245
-100.334
-85.4793
-72.4941
-61.2
-51.4265
-43.012
-35.8049
-29.6642
-24.4594
-20.0711
-16.3908
-13.3206
-10.7728
-8.66997
-6.94351
-5.53362
-4.38837
-3.46305
-2.7194
-2.12492
-1.65221
-1.27833
-0.984169
-0.753959
-0.574746
-0.435968
-0.329066
-0.247151
-0.184712
-0.137366
-0.101652
-0.074853
-0.0548479
-0.039992
-0.029017
-0.0209513
-0.0150547
-0.0107667
-0.00766544
-0.00543565
-0.00384303
-0.00271494
-0.0019254
-0.00138372
-0.00102613
-0.00080959
-0.00070762
-1651.32
-1629.42
-1587.39
-1528.38
-1456.27
-1375.05
-1288.4
-1199.37
-1110.33
-1023.03
-938.666
-858.014
-781.536
-709.471
-641.912
-578.851
-520.218
-465.905
-415.774
-369.676
-327.446
-288.913
-253.896
-222.21
-193.665
-168.067
-145.219
-124.922
-106.981
-91.2013
-77.3921
-65.3695
-54.9564
-45.9843
-38.2944
-31.7382
-26.1782
-21.488
-17.5528
-14.2685
-11.5423
-9.29123
-7.44256
-5.93245
-4.70549
-3.71391
-2.91683
-2.27951
-1.77265
-1.37168
-1.05616
-0.8092
-0.61692
-0.468004
-0.353279
-0.265359
-0.198336
-0.147509
-0.109166
-0.0803916
-0.0589102
-0.0429566
-0.0311699
-0.022507
-0.0161734
-0.0115673
-0.00823588
-0.00584043
-0.0041294
-0.00291738
-0.00206905
-0.00148703
-0.00110278
-0.000870104
-0.000760531
-1583.45
-1565.46
-1530.67
-1481.23
-1419.91
-1349.66
-1273.33
-1193.47
-1112.16
-1031.07
-951.462
-874.245
-800.062
-729.342
-662.359
-599.27
-540.149
-485.008
-433.813
-386.495
-342.957
-303.077
-266.718
-233.725
-203.928
-177.149
-153.203
-131.896
-113.035
-96.4243
-81.8724
-69.1906
-58.1969
-48.7172
-40.5866
-33.6503
-27.7647
-22.7973
-18.6276
-15.1462
-12.2552
-9.86736
-7.90571
-6.30284
-5.00017
-3.94715
-3.1005
-2.42341
-1.88481
-1.45865
-1.12327
-0.86071
-0.65626
-0.497898
-0.37588
-0.282361
-0.211061
-0.156986
-0.116188
-0.085569
-0.0627083
-0.0457291
-0.0331837
-0.0239626
-0.0172203
-0.0123167
-0.00876989
-0.00621943
-0.00439757
-0.00310698
-0.00220363
-0.00158382
-0.00117462
-0.000926817
-0.000810122
-1529.25
-1514.05
-1484.47
-1442.05
-1388.8
-1326.97
-1258.8
-1186.38
-1111.55
-1035.84
-960.501
-886.508
-814.609
-745.361
-679.17
-616.322
-557.007
-501.34
-449.376
-401.12
-356.536
-315.552
-278.071
-243.966
-213.093
-185.29
-160.382
-138.185
-118.509
-101.159
-85.9423
-72.6685
-61.1516
-51.2132
-42.6831
-35.4016
-29.2195
-23.9994
-19.6155
-15.9537
-12.9117
-10.3983
-8.33286
-6.64469
-5.27233
-4.16271
-3.27034
-2.55654
-1.98863
-1.5392
-1.18544
-0.908456
-0.69274
-0.525628
-0.396854
-0.298144
-0.222878
-0.165788
-0.122713
-0.0903807
-0.0662391
-0.0483071
-0.0350566
-0.0253166
-0.0181944
-0.0130141
-0.00926696
-0.00657227
-0.00464728
-0.00328357
-0.00232898
-0.00167399
-0.00124155
-0.000979671
-0.000856343
-1485.69
-1472.51
-1446.76
-1409.55
-1362.41
-1307.07
-1245.33
-1178.93
-1109.46
-1038.34
-966.752
-895.69
-825.959
-758.2
-692.911
-630.476
-571.176
-515.212
-462.714
-413.751
-368.342
-326.463
-288.051
-253.012
-221.222
-192.537
-166.795
-143.819
-123.425
-105.422
-89.6148
-75.813
-63.828
-53.4778
-44.5883
-36.9952
-30.5451
-25.096
-20.5176
-16.6918
-13.5124
-10.8846
-8.72437
-6.95826
-5.52215
-4.3607
-3.42644
-2.67897
-2.08415
-1.61335
-1.2427
-0.952451
-0.726368
-0.551201
-0.416202
-0.312709
-0.233786
-0.173917
-0.12874
-0.0948267
-0.0695026
-0.0506905
-0.0367886
-0.026569
-0.0190956
-0.0136595
-0.00972702
-0.0068989
-0.00487849
-0.0034471
-0.00244508
-0.00175753
-0.00130357
-0.00102865
-0.000899182
-1450.51
-1438.82
-1415.91
-1382.62
-1340.14
-1289.83
-1233.17
-1171.61
-1106.57
-1039.31
-970.958
-902.501
-834.764
-768.438
-704.087
-642.162
-583.02
-526.926
-474.075
-424.591
-378.542
-335.944
-296.769
-260.948
-228.383
-198.945
-172.484
-148.833
-127.812
-109.234
-92.9068
-78.6376
-66.2366
-55.5192
-46.3083
-38.4361
-31.7453
-26.09
-21.3363
-17.3624
-14.0587
-11.3271
-9.08101
-7.24412
-5.75007
-4.54146
-3.56904
-2.79088
-2.17152
-1.68121
-1.29513
-0.992749
-0.757185
-0.574646
-0.433948
-0.326072
-0.243798
-0.18138
-0.134275
-0.0989113
-0.0725015
-0.0528813
-0.0383811
-0.0277208
-0.0199246
-0.0142533
-0.0101504
-0.00719957
-0.00509136
-0.00359769
-0.00255203
-0.00183449
-0.00136072
-0.00107379
-0.000938665
-1421.99
-1411.42
-1390.65
-1360.34
-1321.43
-1275.04
-1222.39
-1164.73
-1103.31
-1039.27
-973.687
-907.505
-841.559
-776.567
-713.135
-651.766
-592.869
-536.765
-483.698
-433.84
-387.301
-344.131
-304.334
-267.868
-234.652
-204.574
-177.498
-153.265
-131.701
-112.622
-95.8389
-81.1585
-68.3902
-57.3478
-47.8515
-39.7308
-32.8251
-26.9854
-22.0746
-17.9678
-14.5524
-11.7275
-9.40392
-7.50316
-5.95675
-4.70549
-3.69853
-2.89257
-2.25096
-1.74294
-1.34285
-1.02945
-0.78526
-0.596015
-0.450129
-0.338262
-0.252935
-0.188193
-0.139329
-0.102642
-0.0752417
-0.0548837
-0.039837
-0.0287741
-0.0206828
-0.0147966
-0.0105379
-0.00747478
-0.00528625
-0.00373558
-0.00264997
-0.00190499
-0.00141308
-0.00111516
-0.000974853
-1398.81
-1389.09
-1369.95
-1341.91
-1305.77
-1262.44
-1212.96
-1158.44
-1099.97
-1038.61
-975.364
-911.143
-846.777
-782.996
-720.432
-659.625
-601.022
-544.988
-491.806
-441.689
-394.779
-351.161
-310.862
-273.864
-240.105
-209.489
-181.89
-157.159
-135.127
-115.614
-98.434
-83.3943
-70.304
-58.9755
-49.2274
-40.8868
-33.7906
-27.7871
-22.7365
-18.5111
-14.9958
-12.0875
-9.69453
-7.73648
-6.14306
-4.85346
-3.81543
-2.98442
-2.32276
-1.79876
-1.38602
-1.06267
-0.810689
-0.615378
-0.464797
-0.349317
-0.261224
-0.194377
-0.143918
-0.106031
-0.0777312
-0.0567034
-0.0411605
-0.0297318
-0.0213725
-0.0152908
-0.0108905
-0.00772527
-0.00546367
-0.00386115
-0.00273918
-0.00196922
-0.00146079
-0.00115286
-0.00100784
-1379.94
-1370.87
-1352.97
-1326.7
-1292.7
-1251.77
-1204.82
-1152.81
-1096.75
-1037.6
-976.304
-913.757
-850.765
-788.061
-726.296
-666.03
-607.743
-551.829
-498.605
-448.315
-401.131
-357.163
-316.462
-279.03
-244.822
-213.756
-185.715
-160.559
-138.126
-118.24
-100.717
-85.3651
-71.9941
-60.4156
-50.4467
-41.9127
-34.6487
-28.5005
-23.3261
-18.9957
-15.3918
-12.4092
-9.95449
-7.94537
-6.31
-4.98615
-3.92033
-3.06691
-2.38727
-1.84895
-1.42487
-1.09257
-0.833587
-0.632823
-0.478018
-0.359285
-0.268701
-0.199956
-0.148061
-0.109091
-0.07998
-0.0583477
-0.0423567
-0.0305977
-0.0219962
-0.0157379
-0.0112095
-0.00795198
-0.00562428
-0.00397485
-0.00281997
-0.0020274
-0.00150402
-0.00118703
-0.00103773
-1364.56
-1355.99
-1339.06
-1314.15
-1281.82
-1242.78
-1197.84
-1147.85
-1093.74
-1036.4
-976.742
-915.608
-853.798
-792.04
-730.992
-671.233
-613.261
-557.496
-504.28
-453.882
-406.498
-362.26
-321.24
-283.456
-248.879
-217.437
-189.025
-163.51
-140.736
-120.532
-102.713
-87.092
-73.4778
-61.6819
-51.5206
-42.8178
-35.4067
-29.1316
-23.8484
-19.4253
-15.7432
-12.6951
-10.1857
-8.1313
-6.45871
-5.10444
-4.01391
-3.14054
-2.4449
-1.89381
-1.4596
-1.11932
-0.854088
-0.648449
-0.489866
-0.368222
-0.275407
-0.204963
-0.15178
-0.111839
-0.0819999
-0.0598251
-0.0434319
-0.0313763
-0.0225572
-0.0161401
-0.0114965
-0.00815601
-0.00576887
-0.00407722
-0.00289274
-0.00207981
-0.00154297
-0.00121782
-0.00106468
-1352.03
-1343.85
-1327.66
-1303.81
-1272.8
-1235.25
-1191.9
-1143.53
-1091
-1035.15
-976.844
-916.898
-856.094
-795.155
-734.743
-675.445
-617.775
-562.172
-508.996
-458.537
-411.011
-366.567
-325.295
-287.228
-252.348
-220.596
-191.875
-166.058
-142.995
-122.519
-104.448
-88.5961
-74.7726
-62.789
-52.461
-43.6114
-36.0723
-29.6864
-24.3081
-19.804
-16.0533
-12.9475
-10.3901
-8.29582
-6.59041
-5.20928
-4.0969
-3.20589
-2.49608
-1.93368
-1.49049
-1.14313
-0.872337
-0.662365
-0.500423
-0.376189
-0.281388
-0.20943
-0.155098
-0.114292
-0.083804
-0.0611451
-0.0443928
-0.0320723
-0.0230588
-0.0164999
-0.0117534
-0.00833862
-0.00589831
-0.00416889
-0.00295791
-0.00212676
-0.00157788
-0.00124542
-0.00108883
-1341.82
-1333.94
-1318.33
-1295.31
-1265.33
-1228.96
-1186.88
-1139.81
-1088.56
-1033.93
-976.733
-917.778
-857.823
-797.587
-737.729
-678.844
-621.455
-566.015
-512.9
-462.413
-414.787
-370.189
-328.719
-290.425
-255.299
-223.292
-194.313
-168.244
-144.939
-124.233
-105.948
-89.8987
-75.896
-63.7512
-53.2796
-44.3033
-36.6535
-30.1715
-24.7105
-20.1359
-16.3254
-13.1692
-10.5697
-8.44055
-6.70636
-5.30165
-4.17009
-3.26356
-2.54127
-1.9689
-1.5178
-1.16419
-0.888488
-0.674688
-0.509776
-0.38325
-0.286691
-0.213392
-0.158044
-0.11647
-0.0854063
-0.0623178
-0.0452468
-0.032691
-0.0235048
-0.0168199
-0.0119819
-0.00850114
-0.00601353
-0.00425052
-0.00301596
-0.0021686
-0.00160898
-0.00127002
-0.00111037
-1333.5
-1325.85
-1310.7
-1288.33
-1259.17
-1223.73
-1182.66
-1136.63
-1086.41
-1032.77
-976.494
-918.361
-859.12
-799.48
-740.101
-681.579
-624.446
-569.162
-516.117
-465.626
-417.934
-373.22
-331.597
-293.121
-257.796
-225.58
-196.39
-170.111
-146.602
-125.703
-107.237
-91.0203
-76.8651
-64.5826
-53.9881
-44.9031
-37.1579
-30.5931
-25.0607
-20.425
-16.5626
-13.3627
-10.7267
-8.56713
-6.80786
-5.38258
-4.23426
-3.31416
-2.58095
-1.99985
-1.5418
-1.18271
-0.902702
-0.685539
-0.518015
-0.389473
-0.291367
-0.216887
-0.160643
-0.118392
-0.0868213
-0.0633539
-0.0460015
-0.033238
-0.0238993
-0.017103
-0.0121841
-0.00864499
-0.00611554
-0.0043228
-0.00306738
-0.00220566
-0.00163655
-0.00129182
-0.00112945
-1326.74
-1319.27
-1304.48
-1282.62
-1254.1
-1219.4
-1179.13
-1133.94
-1084.55
-1031.71
-976.187
-918.733
-860.086
-800.95
-741.979
-683.773
-626.867
-571.73
-518.759
-468.278
-420.544
-375.745
-334.003
-295.384
-259.899
-227.512
-198.148
-171.695
-148.017
-126.956
-108.338
-91.9808
-77.6964
-65.297
-54.5978
-45.42
-37.5933
-30.9574
-25.3637
-20.6754
-16.7683
-13.5307
-10.863
-8.67721
-6.8962
-5.45308
-4.2902
-3.3583
-2.61558
-2.02688
-1.56279
-1.19891
-0.915141
-0.695038
-0.525232
-0.394927
-0.295467
-0.219953
-0.162924
-0.12008
-0.088064
-0.0642641
-0.0466647
-0.0337188
-0.0242462
-0.017352
-0.012362
-0.00877159
-0.00620535
-0.00438646
-0.00311267
-0.00223831
-0.00166084
-0.00131104
-0.00114628
-1321.24
-1313.92
-1299.41
-1277.96
-1249.94
-1215.83
-1176.19
-1131.67
-1082.95
-1030.77
-975.853
-918.956
-860.803
-802.087
-743.463
-685.528
-628.823
-573.819
-520.92
-470.459
-422.701
-377.839
-336.006
-297.274
-261.661
-229.136
-199.629
-173.033
-149.215
-128.02
-109.274
-92.7987
-78.4056
-65.9075
-55.1196
-45.863
-37.9669
-31.2705
-25.6243
-20.8911
-16.9457
-13.6757
-10.9809
-8.7724
-6.97266
-5.51414
-4.33869
-3.39659
-2.64565
-2.05036
-1.58102
-1.21299
-0.925964
-0.703309
-0.531519
-0.39968
-0.299042
-0.222628
-0.164914
-0.121554
-0.0891492
-0.0650592
-0.0472444
-0.0341392
-0.0245495
-0.0175698
-0.0125177
-0.0088824
-0.00628398
-0.0044422
-0.00315234
-0.00226693
-0.00168213
-0.00132789
-0.00116104
-1316.79
-1309.58
-1295.29
-1274.15
-1246.53
-1212.89
-1173.76
-1129.77
-1081.59
-1029.93
-975.517
-919.077
-861.33
-802.965
-744.632
-686.929
-630.396
-575.511
-522.681
-472.246
-424.474
-379.568
-337.666
-298.846
-263.13
-230.494
-200.87
-174.158
-150.224
-128.917
-110.066
-93.4914
-79.0072
-66.4262
-55.5637
-46.2406
-38.2858
-31.538
-25.8473
-21.0758
-17.0978
-13.8002
-11.0821
-8.85426
-7.03846
-5.56673
-4.38048
-3.42961
-2.67161
-2.07064
-1.59679
-1.22518
-0.935329
-0.71047
-0.536964
-0.403799
-0.302141
-0.224947
-0.166641
-0.122833
-0.0900917
-0.0657501
-0.0477481
-0.0345047
-0.0248133
-0.0177593
-0.0126532
-0.00897885
-0.00635244
-0.00449076
-0.00318691
-0.00229186
-0.00170069
-0.00134259
-0.00117391
-1313.18
-1306.06
-1291.94
-1271.06
-1243.76
-1210.48
-1171.76
-1128.2
-1080.45
-1029.21
-975.197
-919.129
-861.716
-803.641
-745.551
-688.043
-631.659
-576.878
-524.111
-473.703
-425.927
-380.99
-339.035
-300.146
-264.349
-231.623
-201.906
-175.097
-151.069
-129.67
-110.732
-94.075
-79.515
-66.8647
-55.9396
-46.5606
-38.5564
-31.7653
-26.0371
-21.2331
-17.2275
-13.9064
-11.1686
-8.92424
-7.09477
-5.61177
-4.41631
-3.45794
-2.69388
-2.08806
-1.61033
-1.23565
-0.943387
-0.716634
-0.541654
-0.407349
-0.304814
-0.226948
-0.168131
-0.123937
-0.0909057
-0.0663469
-0.0481835
-0.0348207
-0.0250415
-0.0179232
-0.0127704
-0.00906236
-0.00641173
-0.00453281
-0.00321685
-0.00231347
-0.00171678
-0.00135532
-0.00118507
-1310.27
-1303.22
-1289.24
-1268.55
-1241.5
-1208.51
-1170.11
-1126.89
-1079.49
-1028.59
-974.902
-919.137
-861.996
-804.16
-746.271
-688.927
-632.669
-577.978
-525.268
-474.887
-427.112
-382.154
-340.16
-301.217
-265.355
-232.558
-202.765
-175.879
-151.773
-130.299
-111.289
-94.5641
-79.9411
-67.2333
-56.2561
-46.8304
-38.7848
-31.9575
-26.1976
-21.3664
-17.3374
-13.9966
-11.242
-8.98376
-7.14269
-5.65014
-4.44684
-3.48211
-2.7129
-2.10294
-1.62191
-1.24461
-0.950282
-0.721912
-0.545672
-0.410392
-0.307105
-0.228665
-0.16941
-0.124885
-0.0916048
-0.0668597
-0.0485577
-0.0350923
-0.0252377
-0.0180643
-0.0128713
-0.00913424
-0.00646278
-0.00456904
-0.00324266
-0.0023321
-0.00173066
-0.00136631
-0.00119469
-1307.92
-1300.93
-1287.05
-1266.52
-1239.67
-1206.91
-1168.77
-1125.81
-1078.69
-1028.06
-974.637
-919.117
-862.198
-804.557
-746.835
-689.626
-633.475
-578.861
-526.201
-475.846
-428.075
-383.103
-341.079
-302.095
-266.183
-233.329
-203.475
-176.526
-152.358
-130.821
-111.752
-94.9718
-80.297
-67.5415
-56.5211
-47.0567
-38.9766
-32.119
-26.3327
-21.4787
-17.4301
-14.0727
-11.3041
-9.03408
-7.18325
-5.68263
-4.47272
-3.50261
-2.72904
-2.11558
-1.63175
-1.25223
-0.95615
-0.726406
-0.549095
-0.412985
-0.309059
-0.230129
-0.170502
-0.125695
-0.092202
-0.067298
-0.0488777
-0.0353247
-0.0254056
-0.018185
-0.0129577
-0.0091958
-0.00650651
-0.00460007
-0.00326477
-0.00234806
-0.00174255
-0.00137573
-0.00120295
-1306.04
-1299.09
-1285.3
-1264.89
-1238.19
-1205.61
-1167.67
-1124.93
-1078.03
-1027.62
-974.404
-919.081
-862.342
-804.86
-747.274
-690.178
-634.115
-579.567
-526.951
-476.619
-428.854
-383.873
-341.828
-302.811
-266.86
-233.961
-204.058
-177.059
-152.839
-131.253
-112.136
-95.31
-80.5926
-67.7979
-56.7419
-47.2454
-39.1368
-32.254
-26.4458
-21.5728
-17.5079
-14.1366
-11.3563
-9.07641
-7.21739
-5.71001
-4.49455
-3.5199
-2.74267
-2.12626
-1.64007
-1.25868
-0.961116
-0.730211
-0.551995
-0.415183
-0.310716
-0.231372
-0.171429
-0.126382
-0.0927093
-0.0676704
-0.0491496
-0.0355223
-0.0255484
-0.0182877
-0.0130312
-0.00924821
-0.00654376
-0.00462652
-0.00328362
-0.00236168
-0.0017527
-0.00138377
-0.00120999
-1304.53
-1297.61
-1283.89
-1263.57
-1237
-1204.57
-1166.78
-1124.21
-1077.48
-1027.25
-974.203
-919.037
-862.444
-805.091
-747.616
-690.612
-634.623
-580.129
-527.551
-477.24
-429.482
-384.496
-342.435
-303.394
-267.411
-234.477
-204.535
-177.495
-153.235
-131.609
-112.452
-95.589
-80.8368
-68.0101
-56.9248
-47.4019
-39.2699
-32.3663
-26.5399
-21.6512
-17.5728
-14.1899
-11.3999
-9.11182
-7.24597
-5.73294
-4.51284
-3.53441
-2.75411
-2.13523
-1.64706
-1.2641
-0.965296
-0.733416
-0.554438
-0.417035
-0.312113
-0.23242
-0.172211
-0.126963
-0.0931379
-0.0679852
-0.0493796
-0.0356894
-0.0256693
-0.0183746
-0.0130935
-0.0092926
-0.00657531
-0.00464893
-0.00329959
-0.00237322
-0.0017613
-0.00139059
-0.00121597
-1303.33
-1296.43
-1282.76
-1262.52
-1236.04
-1203.72
-1166.07
-1123.63
-1077.04
-1026.94
-974.03
-918.992
-862.514
-805.266
-747.881
-690.953
-635.024
-580.576
-528.029
-477.737
-429.987
-384.997
-342.925
-303.865
-267.859
-234.896
-204.924
-177.852
-153.559
-131.899
-112.711
-95.8181
-81.0377
-68.1847
-57.0756
-47.5311
-39.3798
-32.4592
-26.6179
-21.7162
-17.6266
-14.2342
-11.4361
-9.14128
-7.26977
-5.75206
-4.5281
-3.54652
-2.76366
-2.14273
-1.65291
-1.26864
-0.968795
-0.7361
-0.556486
-0.418589
-0.313285
-0.2333
-0.172868
-0.127451
-0.0934981
-0.0682497
-0.049573
-0.03583
-0.025771
-0.0184478
-0.0131459
-0.00933
-0.0066019
-0.00466782
-0.00331306
-0.00238295
-0.00176856
-0.00139634
-0.00122101
-1302.36
-1295.49
-1281.86
-1261.68
-1235.28
-1203.05
-1165.49
-1123.16
-1076.68
-1026.69
-973.884
-918.947
-862.563
-805.398
-748.086
-691.219
-635.339
-580.929
-528.409
-478.134
-430.39
-385.399
-343.318
-304.245
-268.22
-235.235
-205.238
-178.141
-153.821
-132.136
-112.923
-96.0052
-81.2019
-68.3278
-57.1992
-47.6372
-39.4702
-32.5357
-26.6821
-21.7698
-17.6711
-14.2708
-11.4661
-9.16566
-7.28949
-5.7679
-4.54076
-3.55657
-2.7716
-2.14896
-1.65778
-1.27241
-0.971708
-0.738336
-0.558193
-0.419884
-0.314263
-0.234034
-0.173416
-0.127858
-0.0937991
-0.068471
-0.0497347
-0.0359476
-0.0258561
-0.0185091
-0.0131898
-0.00936132
-0.00662418
-0.00468365
-0.00332436
-0.00239112
-0.00177465
-0.00140117
-0.00122525
-1301.6
-1294.75
-1281.15
-1261.02
-1234.67
-1202.51
-1165.03
-1122.78
-1076.38
-1026.48
-973.763
-918.906
-862.596
-805.497
-748.244
-691.427
-635.587
-581.208
-528.71
-478.449
-430.711
-385.72
-343.634
-304.549
-268.51
-235.508
-205.492
-178.374
-154.034
-132.328
-113.094
-96.1573
-81.3356
-68.4444
-57.3001
-47.7239
-39.5441
-32.5982
-26.7348
-21.8138
-17.7076
-14.3009
-11.4907
-9.18572
-7.30572
-5.78096
-4.5512
-3.56487
-2.77816
-2.15411
-1.6618
-1.27554
-0.974121
-0.740188
-0.559607
-0.420959
-0.315075
-0.234644
-0.173872
-0.128196
-0.0940493
-0.0686549
-0.0498692
-0.0360455
-0.0259269
-0.0185601
-0.0132264
-0.00938743
-0.00664275
-0.00469685
-0.00333378
-0.00239793
-0.00177973
-0.0014052
-0.00122878
-1301
-1294.16
-1280.58
-1260.49
-1234.18
-1202.08
-1164.66
-1122.48
-1076.15
-1026.32
-973.662
-918.868
-862.617
-805.572
-748.365
-691.588
-635.781
-581.427
-528.948
-478.698
-430.966
-385.976
-343.885
-304.792
-268.742
-235.727
-205.696
-178.562
-154.206
-132.483
-113.233
-96.2803
-81.4439
-68.5389
-57.382
-47.7943
-39.6042
-32.6492
-26.7777
-21.8496
-17.7374
-14.3255
-11.5109
-9.20216
-7.31903
-5.79167
-4.55977
-3.57169
-2.78355
-2.15834
-1.66511
-1.27811
-0.976108
-0.741715
-0.560774
-0.421845
-0.315745
-0.235147
-0.174248
-0.128476
-0.0942561
-0.0688071
-0.0499805
-0.0361265
-0.0259856
-0.0186024
-0.0132567
-0.00940906
-0.00665815
-0.0047078
-0.00334159
-0.00240358
-0.00178395
-0.00140855
-0.00123172
-1300.52
-1293.69
-1280.14
-1260.07
-1233.8
-1201.74
-1164.37
-1122.24
-1075.96
-1026.18
-973.579
-918.835
-862.631
-805.628
-748.459
-691.713
-635.932
-581.599
-529.135
-478.894
-431.168
-386.178
-344.084
-304.986
-268.927
-235.902
-205.859
-178.713
-154.343
-132.607
-113.344
-96.3793
-81.5312
-68.6152
-57.4482
-47.8513
-39.6529
-32.6905
-26.8125
-21.8788
-17.7616
-14.3455
-11.5273
-9.21554
-7.32988
-5.8004
-4.56676
-3.57725
-2.78795
-2.16181
-1.66782
-1.28021
-0.977736
-0.742966
-0.56173
-0.422572
-0.316294
-0.235561
-0.174557
-0.128706
-0.0944262
-0.0689322
-0.0500722
-0.0361932
-0.0260339
-0.0186372
-0.0132817
-0.0094269
-0.00667085
-0.00471683
-0.00334804
-0.00240825
-0.00178743
-0.00141132
-0.00123414
-1300.15
-1293.33
-1279.78
-1259.74
-1233.5
-1201.47
-1164.13
-1122.05
-1075.81
-1026.07
-973.511
-918.807
-862.639
-805.67
-748.53
-691.81
-636.05
-581.733
-529.281
-479.049
-431.326
-386.337
-344.242
-305.139
-269.074
-236.04
-205.989
-178.832
-154.453
-132.707
-113.433
-96.4587
-81.6011
-68.6764
-57.5014
-47.8971
-39.6921
-32.7238
-26.8405
-21.9023
-17.7811
-14.3617
-11.5406
-9.22638
-7.33867
-5.80749
-4.57244
-3.58178
-2.79153
-2.16462
-1.67002
-1.28193
-0.979062
-0.743987
-0.562511
-0.423166
-0.316743
-0.235898
-0.17481
-0.128894
-0.0945653
-0.0690347
-0.0501471
-0.0362478
-0.0260735
-0.0186657
-0.0133022
-0.00944152
-0.00668126
-0.00472424
-0.00335333
-0.00241208
-0.00179029
-0.00141359
-0.00123614
-1299.86
-1293.04
-1279.51
-1259.48
-1233.26
-1201.26
-1163.95
-1121.89
-1075.69
-1025.99
-973.457
-918.783
-862.644
-805.701
-748.584
-691.884
-636.141
-581.837
-529.395
-479.169
-431.451
-386.463
-344.366
-305.26
-269.19
-236.15
-206.092
-178.927
-154.54
-132.786
-113.504
-96.5219
-81.657
-68.7253
-57.5439
-47.9338
-39.7235
-32.7505
-26.8631
-21.9212
-17.7969
-14.3747
-11.5513
-9.23512
-7.34576
-5.81321
-4.57703
-3.58543
-2.79442
-2.1669
-1.67181
-1.28332
-0.980138
-0.744814
-0.563144
-0.423648
-0.317108
-0.236173
-0.175015
-0.129047
-0.0946785
-0.069118
-0.0502082
-0.0362923
-0.0261057
-0.018689
-0.0133188
-0.00945345
-0.00668975
-0.00473029
-0.00335765
-0.00241521
-0.00179263
-0.00141544
-0.00123776
-1299.63
-1292.82
-1279.3
-1259.28
-1233.08
-1201.09
-1163.81
-1121.77
-1075.6
-1025.92
-973.413
-918.763
-862.647
-805.724
-748.626
-691.941
-636.211
-581.918
-529.483
-479.263
-431.548
-386.561
-344.463
-305.354
-269.281
-236.236
-206.173
-179.002
-154.608
-132.848
-113.561
-96.572
-81.7013
-68.7642
-57.5777
-47.963
-39.7485
-32.7718
-26.8811
-21.9363
-17.8095
-14.3851
-11.5599
-9.24213
-7.35146
-5.81781
-4.58071
-3.58837
-2.79675
-2.16874
-1.67324
-1.28444
-0.981005
-0.745482
-0.563655
-0.424037
-0.317403
-0.236395
-0.175181
-0.129171
-0.0947702
-0.0691855
-0.0502576
-0.0363284
-0.0261319
-0.0187078
-0.0133324
-0.00946312
-0.00669665
-0.0047352
-0.00336116
-0.00241775
-0.00179452
-0.00141695
-0.00123909
-1299.45
-1292.64
-1279.13
-1259.12
-1232.93
-1200.97
-1163.7
-1121.68
-1075.52
-1025.86
-973.377
-918.746
-862.648
-805.741
-748.657
-691.985
-636.265
-581.98
-529.552
-479.336
-431.623
-386.637
-344.539
-305.428
-269.352
-236.304
-206.236
-179.061
-154.663
-132.897
-113.605
-96.6116
-81.7363
-68.795
-57.6045
-47.9862
-39.7684
-32.7887
-26.8954
-21.9483
-17.8195
-14.3934
-11.5667
-9.24772
-7.356
-5.82148
-4.58366
-3.59072
-2.79862
-2.17021
-1.6744
-1.28534
-0.9817
-0.746018
-0.564066
-0.42435
-0.317639
-0.236573
-0.175315
-0.12927
-0.0948439
-0.0692398
-0.0502975
-0.0363574
-0.0261529
-0.0187231
-0.0133433
-0.00947093
-0.00670221
-0.00473916
-0.00336399
-0.0024198
-0.00179606
-0.00141817
-0.00124015
-1299.32
-1292.51
-1279
-1259
-1232.82
-1200.87
-1163.61
-1121.61
-1075.46
-1025.82
-973.35
-918.733
-862.648
-805.754
-748.681
-692.018
-636.307
-582.028
-529.605
-479.393
-431.682
-386.696
-344.597
-305.486
-269.407
-236.357
-206.286
-179.107
-154.705
-132.936
-113.64
-96.6427
-81.7639
-68.8192
-57.6256
-48.0044
-39.7841
-32.8021
-26.9067
-21.9578
-17.8274
-14.4
-11.5721
-9.25216
-7.35961
-5.8244
-4.586
-3.59259
-2.8001
-2.17138
-1.67531
-1.28605
-0.982255
-0.746445
-0.564393
-0.424599
-0.317829
-0.236715
-0.175422
-0.12935
-0.0949029
-0.0692834
-0.0503294
-0.0363807
-0.0261698
-0.0187352
-0.0133521