/*--------------------------------*- C++ -*----------------------------------*\
  =========                 |
  \\      /  F ield         | OpenFOAM: The Open Source CFD Toolbox
   \\    /   O peration     | Website:  https://openfoam.org
    \\  /    A nd           | Version:  10
     \\/     M anipulation  |
\*---------------------------------------------------------------------------*/
FoamFile
{
    format      ascii;
    class       volScalarField;
    location    "264";
    object      gradTx;
}
// * * * * * * * * * * * * * * * * * * * * * * * * * * * * * * * * * * * * * //

dimensions      [0 -1 0 1 0 0 0];

internalField   nonuniform List<scalar> 
11250
(
14293.8
8085.9
5280.57
3786.94
2878.9
2269.52
1830.55
1497.98
1236.86
1026.57
854.199
711.178
591.572
491.083
406.473
335.219
275.293
225.021
182.997
148.017
119.044
95.1757
75.6279
59.7171
46.8502
36.5143
28.2687
21.7369
16.5996
12.5886
9.48002
7.08868
5.2629
3.87945
2.83913
2.06279
1.48787
1.06539
0.757315
0.53439
0.374324
0.260279
0.17965
0.123086
0.0837099
0.0565104
0.0378668
0.0251863
0.016628
0.0108964
0.00708735
0.00457551
0.00293185
0.00186458
0.00117693
0.000737293
0.000458391
0.000282831
0.00017318
0.000105228
6.34474e-05
3.79598e-05
2.25343e-05
1.32725e-05
7.75585e-06
4.49622e-06
2.58575e-06
1.47503e-06
8.34487e-07
4.68e-07
2.59838e-07
1.42171e-07
7.53657e-08
3.62763e-08
1.07149e-08
4089.67
4684.87
3971.34
3204.75
2584.43
2104.06
1729.67
1432.56
1192.4
995.268
831.552
694.454
579.027
481.562
399.185
329.605
270.951
221.656
180.385
145.991
117.474
93.9617
74.6917
58.9975
46.2992
36.0943
27.95
21.4962
16.4189
12.4536
9.37977
7.01467
5.2086
3.83987
2.81045
2.04214
1.47311
1.05491
0.749919
0.529207
0.370718
0.257787
0.17794
0.121921
0.0829214
0.0559807
0.0375135
0.0249523
0.0164742
0.010796
0.0070223
0.00453367
0.00290513
0.00184765
0.00116628
0.000730646
0.000454272
0.000280298
0.000171634
0.000104292
6.28853e-05
3.76248e-05
2.23362e-05
1.31563e-05
7.68821e-06
4.45717e-06
2.56336e-06
1.46233e-06
8.27342e-07
4.64029e-07
2.57633e-07
1.4098e-07
7.47884e-08
3.5981e-08
1.06601e-08
1470.23
2594.06
2717.65
2479.66
2154.17
1837.5
1557.01
1316.15
1111.23
937.096
788.938
662.693
555.038
463.258
385.113
318.732
262.519
215.105
175.293
142.035
114.404
91.5855
72.8575
57.5866
45.2182
35.2697
27.3239
21.0233
16.0635
12.1881
9.18253
6.86903
5.10171
3.76191
2.75396
2.00147
1.44403
1.03425
0.735338
0.518989
0.363606
0.252872
0.174567
0.119621
0.0813656
0.0549353
0.0368161
0.0244905
0.0161705
0.0105977
0.00689383
0.00445103
0.00285237
0.00181421
0.00114524
0.000717508
0.000446132
0.000275292
0.000168579
0.000102442
6.17735e-05
3.6962e-05
2.19442e-05
1.29262e-05
7.55427e-06
4.37986e-06
2.51909e-06
1.43717e-06
8.1317e-07
4.56129e-07
2.53306e-07
1.3862e-07
7.35272e-08
3.53707e-08
1.04801e-08
667.901
1504.97
1827.94
1845.37
1719.19
1539.59
1350.1
1169.67
1005.49
859.389
730.949
618.867
521.581
437.517
365.195
303.258
250.47
205.711
167.97
136.331
109.97
88.1469
70.1994
55.5393
43.6478
34.0706
26.4127
20.3345
15.5457
11.801
8.89477
6.65644
4.94563
3.64803
2.6714
1.94202
1.40149
1.00402
0.714007
0.504037
0.353197
0.245676
0.169627
0.116254
0.0790867
0.0534039
0.0357944
0.0238137
0.0157254
0.0103072
0.00670552
0.00432987
0.00277499
0.00176516
0.00111439
0.000698238
0.000434189
0.000267946
0.000164096
9.97268e-05
6.01416e-05
3.5989e-05
2.13686e-05
1.25884e-05
7.35763e-06
4.2663e-06
2.45404e-06
1.4002e-06
7.92346e-07
4.44498e-07
2.46865e-07
1.35116e-07
7.16656e-08
3.44838e-08
1.01936e-08
364.789
931.424
1246.13
1357.9
1341.63
1256.25
1139.39
1012.69
887.728
770.299
662.975
566.609
481.148
406.078
340.661
284.067
235.441
193.94
158.758
129.133
104.359
83.7855
66.8211
52.9328
41.6456
32.5397
25.2481
19.4532
14.8825
11.3047
8.52569
6.38359
4.74518
3.50171
2.56529
1.86557
1.34678
0.965126
0.686545
0.484781
0.339789
0.236404
0.163261
0.111914
0.0761484
0.051429
0.0344765
0.0229405
0.0151511
0.00993217
0.00646244
0.00417346
0.00267509
0.00170183
0.00107453
0.000673345
0.000418758
0.000258454
0.000158301
9.62167e-05
5.80319e-05
3.47308e-05
2.06241e-05
1.21515e-05
7.10322e-06
4.11934e-06
2.36987e-06
1.35239e-06
7.65418e-07
4.29454e-07
2.38539e-07
1.30566e-07
6.92509e-08
3.33379e-08
9.87087e-09
225.086
611.192
869.554
1001.58
1037.04
1008.91
943.61
859.485
768.298
677.173
590.207
509.596
436.364
370.828
312.88
262.16
218.169
180.337
148.062
120.743
97.7965
78.6699
62.8488
49.8614
39.2818
30.7294
23.869
18.4082
14.0952
10.7151
8.08674
6.05884
4.50643
3.32732
2.43873
1.77434
1.28145
0.918667
0.65373
0.461763
0.323755
0.225314
0.155643
0.106719
0.0726306
0.049064
0.0328979
0.0218944
0.0144629
0.00948269
0.00617103
0.00398591
0.00255528
0.00162585
0.00102671
0.000643474
0.000400239
0.00024706
0.000151344
9.20015e-05
5.54978e-05
3.32192e-05
1.97296e-05
1.16263e-05
6.79735e-06
3.94267e-06
2.26863e-06
1.29487e-06
7.33018e-07
4.11374e-07
2.2858e-07
1.25135e-07
6.63773e-08
3.1956e-08
9.46695e-09
149.9
420.037
621.49
744.825
799.748
803.091
771.533
718.653
654.424
585.705
516.993
451.099
389.675
333.595
283.215
238.557
199.421
165.478
136.316
111.487
90.5289
72.9859
58.4223
46.4304
36.6353
28.6988
22.3194
17.2323
13.2081
10.0499
7.59101
5.69172
4.2363
3.12984
2.29533
1.67089
1.20734
0.865928
0.616461
0.435608
0.305528
0.212701
0.146977
0.100807
0.068626
0.0463708
0.0310997
0.0207025
0.0136786
0.00897031
0.00583875
0.00377202
0.0024186
0.00153916
0.000972138
0.000609376
0.000379095
0.000234047
0.000143397
8.71855e-05
5.26017e-05
3.14913e-05
1.87067e-05
1.10257e-05
6.44746e-06
3.74048e-06
2.15274e-06
1.229e-06
6.95886e-07
3.9065e-07
2.17139e-07
1.18908e-07
6.31042e-08
3.03711e-08
8.9851e-09
104.802
298.836
453.621
559.313
617.561
636.3
625.414
594.214
550.379
499.762
446.579
393.738
343.147
295.986
252.912
214.215
179.932
149.926
123.951
101.695
82.8071
66.9242
53.6866
42.7492
33.789
26.51
20.6458
15.9603
12.247
9.32824
7.05251
5.29249
3.94224
2.91468
2.13895
1.55801
1.1264
0.808301
0.575713
0.406997
0.28558
0.198891
0.137484
0.0943279
0.0642358
0.0434174
0.0291271
0.0193945
0.0128176
0.00840772
0.00547381
0.00353704
0.00226841
0.00144388
0.000912139
0.000571878
0.000355836
0.00021973
0.000134651
8.18837e-05
4.94127e-05
2.95881e-05
1.75798e-05
1.03636e-05
6.06161e-06
3.51742e-06
2.02487e-06
1.15628e-06
6.54875e-07
3.67714e-07
2.04419e-07
1.11993e-07
5.94711e-08
2.86237e-08
8.46263e-09
75.6742
218.078
336.802
423.918
478.205
503.026
503.982
487.163
458.153
421.597
381.12
339.411
298.378
259.311
223.023
189.973
160.359
134.196
111.369
91.6781
74.8717
60.6699
48.7834
38.9262
30.825
24.2253
18.8952
14.6271
11.238
8.56947
6.48558
4.87165
3.63193
2.6874
1.97361
1.43855
1.04069
0.747228
0.532501
0.376637
0.2644
0.184221
0.127395
0.087439
0.0595659
0.0402744
0.0270272
0.0180017
0.0119004
0.0078082
0.00508481
0.00328648
0.00210822
0.00134222
0.000848107
0.000531848
0.000331
0.000204437
0.000125306
7.62173e-05
4.60033e-05
2.75526e-05
1.63741e-05
9.65509e-06
5.64855e-06
3.27855e-06
1.88785e-06
1.07833e-06
6.10895e-07
3.43101e-07
1.90794e-07
1.04574e-07
5.55383e-08
2.67643e-08
7.93577e-09
55.8667
162.119
253.422
323.852
371.419
397.256
404.41
396.746
378.177
352.228
321.842
289.346
256.494
224.55
194.374
166.51
141.258
118.733
98.9221
81.7147
66.941
54.3932
43.8444
35.0627
27.821
21.9039
17.1125
13.2666
10.2065
7.79247
5.90416
4.43949
3.31287
2.45345
1.80325
1.31535
0.952216
0.684139
0.487829
0.345231
0.242477
0.169027
0.11694
0.080297
0.0547221
0.0370131
0.0248472
0.0165551
0.0109476
0.00718513
0.00468037
0.00302589
0.00194156
0.00123643
0.000781449
0.000490164
0.000305128
0.000188502
0.000115566
7.0309e-05
4.24471e-05
2.54288e-05
1.51157e-05
8.91529e-06
5.21712e-06
3.02894e-06
1.74458e-06
9.96795e-07
5.64872e-07
3.17363e-07
1.7655e-07
9.6766e-08
5.1385e-08
2.47919e-08
7.35733e-09
41.8884
122.144
192.611
248.967
289.24
313.539
323.445
321.354
309.945
291.813
269.262
244.215
218.199
192.371
167.564
144.345
123.063
103.898
86.9042
72.0411
59.2033
48.2427
38.9863
31.2496
24.8472
19.5997
15.3386
11.9101
9.17597
7.01481
5.32132
4.00564
2.99215
2.21801
1.6316
1.1911
0.862907
0.620398
0.442662
0.313453
0.22028
0.153633
0.106342
0.0730529
0.0498065
0.0337018
0.0226329
0.0150851
0.00997888
0.00655145
0.0042689
0.00276068
0.00177188
0.00112868
0.000713536
0.00044768
0.000278752
0.00017225
0.000105628
6.4279e-05
3.88164e-05
2.32596e-05
1.38298e-05
8.15908e-06
4.77592e-06
2.77357e-06
1.59794e-06
9.13288e-07
5.17717e-07
2.90974e-07
1.61895e-07
8.8749e-08
4.71536e-08
2.27229e-08
6.72949e-09
31.7511
92.9102
147.469
192.293
225.682
247.317
257.958
259.066
252.446
239.969
223.395
204.262
183.85
163.169
142.982
123.836
106.091
89.9616
75.5436
62.8456
51.8117
42.3415
34.3069
27.5641
21.964
17.3593
13.6096
10.5848
8.16716
6.25218
4.74878
3.57881
2.67618
1.98575
1.46209
1.06825
0.774523
0.557262
0.397885
0.281925
0.198242
0.138339
0.0958056
0.0658469
0.0449141
0.0304044
0.0204268
0.01362
0.00901291
0.00591929
0.00385825
0.00249589
0.00160241
0.00102102
0.000645656
0.000405201
0.000252369
0.000155988
9.56805e-05
5.82406e-05
3.51792e-05
2.10857e-05
1.25407e-05
7.40056e-06
4.33312e-06
2.51717e-06
1.45068e-06
8.29376e-07
4.70308e-07
2.64409e-07
1.4714e-07
8.07012e-08
4.28949e-08
2.06572e-08
6.12471e-09
24.2485
71.1439
113.486
148.994
176.29
194.912
205.177
207.958
204.458
196.009
183.929
169.424
153.535
137.117
120.839
105.2
90.5504
77.1116
65.004
54.2678
44.8828
36.7856
29.884
24.0683
19.2206
15.2215
11.9555
9.31404
7.19776
5.51792
4.19658
3.1665
2.37051
1.76076
1.29768
0.948979
0.688615
0.495835
0.354281
0.251199
0.176747
0.123412
0.085515
0.0588046
0.04013
0.0271783
0.0182672
0.0121849
0.0080664
0.00529959
0.00345551
0.0022361
0.00143607
0.000915308
0.000578977
0.000363458
0.000226433
0.000139995
8.58939e-05
5.22975e-05
3.15979e-05
1.89443e-05
1.12702e-05
6.65269e-06
3.89638e-06
2.26416e-06
1.30529e-06
7.46471e-07
4.23443e-07
2.38128e-07
1.32567e-07
7.27226e-08
3.86636e-08
1.86584e-08
5.55504e-09
18.6109
54.7154
87.6204
115.661
137.75
153.418
162.748
166.25
164.721
159.101
150.363
139.438
127.155
114.218
101.198
88.5361
76.5511
65.4594
55.39
46.4013
38.4979
31.6436
25.7746
20.8088
16.6544
13.2162
10.3999
8.11603
6.28191
4.82286
3.67293
2.77485
2.07972
1.54643
1.14086
0.835075
0.606487
0.437052
0.312516
0.221741
0.156123
0.109079
0.0756272
0.0520335
0.0355274
0.0240726
0.0161871
0.0108021
0.00715382
0.00470182
0.00306686
0.00198528
0.00127541
0.000813161
0.00051452
0.000323089
0.000201341
0.000124516
7.6418e-05
4.65408e-05
2.81273e-05
1.68682e-05
1.00379e-05
5.92701e-06
3.4724e-06
2.01838e-06
1.16395e-06
6.6586e-07
3.77819e-07
2.12533e-07
1.18379e-07
6.49998e-08
3.4587e-08
1.67013e-08
4.95574e-09
14.3271
42.1892
67.7711
89.8513
107.586
120.552
128.716
132.37
132.037
128.375
122.1
113.918
104.479
94.3547
84.0187
73.8479
64.1258
55.052
46.7538
39.2983
32.7056
26.9591
22.0164
17.8175
14.2919
11.3646
8.95974
7.00434
5.43018
4.17518
3.18407
2.4086
1.80738
1.34541
0.993586
0.727973
0.529177
0.38166
0.273121
0.193931
0.136636
0.0955258
0.0662703
0.0456215
0.031166
0.021128
0.0142138
0.00948942
0.00628713
0.00413383
0.00269738
0.00174673
0.00112254
0.000715927
0.000453137
0.000284629
0.000177425
0.000109757
6.73789e-05
4.10471e-05
2.4814e-05
1.48853e-05
8.86038e-06
5.23319e-06
3.06681e-06
1.78315e-06
1.02861e-06
5.88637e-07
3.34106e-07
1.88025e-07
1.04772e-07
5.7547e-08
3.06279e-08
1.4797e-08
4.38388e-09
11.0454
32.5678
52.4474
69.7836
83.9284
94.5209
101.479
104.963
105.312
102.988
98.5118
92.4148
85.2021
77.3274
69.1779
61.0691
53.2453
45.8841
39.1046
32.9758
27.5263
22.753
18.6293
15.1123
12.1488
9.6801
7.64611
5.98787
4.6497
3.58047
2.73436
2.07112
1.55602
1.15962
0.857279
0.628724
0.457452
0.330214
0.236497
0.168053
0.118488
0.0828926
0.057542
0.0396361
0.027092
0.0183757
0.0123682
0.00826107
0.00547567
0.00360176
0.00235111
0.00152305
0.000979129
0.000624672
0.000395503
0.000248503
0.000154951
9.58819e-05
5.88774e-05
3.58778e-05
2.1695e-05
1.30178e-05
7.75087e-06
4.57913e-06
2.68426e-06
1.56118e-06
9.00854e-07
5.1568e-07
2.92814e-07
1.64852e-07
9.18925e-08
5.04652e-08
2.68565e-08
1.29749e-08
3.85922e-09
8.5172
25.14
40.5691
54.1386
65.3533
73.9169
79.732
82.8792
83.5802
82.1559
78.984
74.4621
68.978
62.8881
56.5036
50.0841
43.835
37.9105
32.4175
27.4223
22.9573
19.0277
15.6184
12.6994
10.2313
8.16873
6.46444
5.07133
3.94439
3.04196
2.32639
1.76443
1.32724
0.990253
0.732859
0.538016
0.391822
0.283088
0.202913
0.144301
0.101815
0.0712772
0.0495107
0.0341245
0.0233379
0.0158379
0.0106654
0.00712708
0.00472613
0.00311003
0.00203093
0.00131613
0.000846402
0.000540175
0.000342114
0.000215023
0.000134115
8.30117e-05
5.09883e-05
3.10788e-05
1.8798e-05
1.12825e-05
6.71945e-06
3.97084e-06
2.32829e-06
1.35452e-06
7.81829e-07
4.47685e-07
2.54278e-07
1.43179e-07
7.98319e-08
4.38827e-08
2.33595e-08
1.12561e-08
3.33017e-09
6.56239
19.3871
31.3392
41.9247
50.7671
57.6284
62.413
65.1561
66.001
65.1709
62.9385
59.5997
55.4495
50.7652
45.7938
40.7454
35.7899
31.0578
26.6425
22.6046
18.9771
15.77
12.9761
10.5751
8.53802
6.83041
5.41539
4.25573
3.3154
2.56075
1.96115
1.48938
1.12173
0.837896
0.620778
0.456198
0.332554
0.240483
0.17252
0.122784
0.0866973
0.0607363
0.0422164
0.029115
0.0199235
0.0135281
0.00911463
0.00609371
0.00404271
0.00266144
0.00173868
0.00112716
0.000725137
0.000462939
0.000293291
0.000184393
0.000115043
7.1227e-05
4.37615e-05
2.66808e-05
1.6142e-05
9.69077e-06
5.7729e-06
3.41235e-06
2.00133e-06
1.16462e-06
6.72398e-07
3.85147e-07
2.18806e-07
1.23253e-07
6.87548e-08
3.77943e-08
2.01347e-08
9.68867e-09
2.8582e-09
5.04791
14.9239
24.1592
32.387
39.3217
44.7751
48.6613
50.9904
51.8544
51.408
49.848
47.393
44.2665
40.6819
36.8334
32.8886
28.986
25.234
21.7121
18.4741
15.5511
12.9557
10.6857
8.72785
7.06128
5.66005
4.49571
3.53905
2.7615
2.13614
1.63827
1.24582
0.939461
0.702563
0.521083
0.383327
0.279704
0.202448
0.145358
0.103535
0.0731613
0.0512899
0.0356742
0.0246185
0.0168565
0.0114519
0.00771982
0.00516371
0.0034273
0.00225726
0.00147523
0.000956737
0.000615717
0.000393215
0.000249196
0.000156717
9.78037e-05
6.05697e-05
3.72233e-05
2.27001e-05
1.3737e-05
8.24886e-06
4.91506e-06
2.90596e-06
1.70473e-06
9.92247e-07
5.73001e-07
3.2828e-07
1.86572e-07
1.05133e-07
5.86742e-08
3.2237e-08
1.71711e-08
8.28811e-09
2.4411e-09
3.87385
11.46
18.5744
24.9444
30.3541
34.6566
37.7783
39.7162
40.5288
40.3233
39.2411
37.4436
35.0985
32.3693
29.4067
26.3435
23.2906
20.3367
17.5484
14.9718
12.6353
10.5521
8.72313
7.14025
5.78855
4.64874
3.69906
2.91683
2.2796
1.766
1.3563
1.03275
0.779752
0.583806
0.433477
0.31921
0.233145
0.168904
0.121377
0.0865246
0.0611876
0.0429265
0.0298773
0.0206312
0.0141347
0.00960821
0.00648037
0.0043368
0.00287978
0.00189748
0.0012406
0.000804873
0.000518166
0.000331026
0.000209849
0.000132011
8.24073e-05
5.10478e-05
3.13792e-05
1.91406e-05
1.15855e-05
6.95843e-06
4.14703e-06
2.45237e-06
1.43893e-06
8.37699e-07
4.8385e-07
2.77274e-07
1.5761e-07
8.88357e-08
4.95574e-08
2.72418e-08
1.45314e-08
7.01817e-09
2.07999e-09
2.96412
8.7734
14.2349
19.1458
23.3435
26.7143
29.1973
30.7833
31.5091
31.4488
30.7041
29.3934
27.642
25.5743
23.3064
20.942
18.5694
16.26
14.0685
12.0337
10.1806
8.52182
7.06027
5.79116
4.70408
3.78483
3.01691
2.38287
1.86519
1.44708
1.11291
0.84853
0.641447
0.480814
0.357395
0.263455
0.19261
0.139666
0.100453
0.0716669
0.0507196
0.0356083
0.0248006
0.0171366
0.0117476
0.00799001
0.00539181
0.00361009
0.00239833
0.00158094
0.00103406
0.000671124
0.000432211
0.000276203
0.000175148
0.000110212
6.88172e-05
4.26396e-05
2.62166e-05
1.5995e-05
9.68343e-06
5.81715e-06
3.46749e-06
2.05087e-06
1.20357e-06
7.0081e-07
4.04876e-07
2.32084e-07
1.31939e-07
7.43801e-08
4.14976e-08
2.28348e-08
1.21704e-08
5.87116e-09
1.75948e-09
2.26023
6.69306
10.8693
14.6385
17.8782
20.5013
22.4585
23.7385
24.364
24.3864
23.8783
22.9264
21.6241
20.0652
18.3385
16.5245
14.6924
12.8992
11.1889
9.59396
8.13541
6.82496
5.66636
4.65712
3.79011
3.05495
2.43928
1.92974
1.51281
1.17539
0.905187
0.691045
0.523033
0.392505
0.292071
0.215523
0.15772
0.114471
0.082403
0.0588373
0.0416719
0.0292775
0.0204052
0.0141085
0.00967758
0.00658585
0.0044466
0.0029787
0.00197979
0.0013056
0.000854305
0.000554666
0.000357333
0.000228424
0.000144892
9.11972e-05
5.69583e-05
3.52997e-05
2.17082e-05
1.32468e-05
8.02111e-06
4.81932e-06
2.87315e-06
1.69959e-06
9.97555e-07
5.80946e-07
3.35695e-07
1.92428e-07
1.09428e-07
6.16938e-08
3.44641e-08
1.8958e-08
1.00695e-08
4.86684e-09
1.4291e-09
1.71683
5.08594
8.26588
11.145
13.6318
15.6596
17.1895
18.21
18.7349
18.7996
18.4562
17.7678
16.8037
15.6341
14.3267
12.9432
11.5374
10.1542
8.82897
7.5878
6.44844
5.42115
4.50994
3.71381
3.02795
2.44488
1.95539
1.54936
1.21643
0.946443
0.729849
0.557895
0.422763
0.317619
0.236602
0.174769
0.12802
0.0929995
0.0670043
0.0478813
0.0339383
0.0238614
0.0166417
0.0115137
0.00790249
0.00538089
0.00363496
0.0024362
0.00161995
0.00106876
0.000699602
0.000454387
0.000292827
0.000187246
0.000118805
7.47963e-05
4.67254e-05
2.89638e-05
1.78151e-05
1.0873e-05
6.5847e-06
3.9568e-06
2.35923e-06
1.39574e-06
8.19312e-07
4.77199e-07
2.7573e-07
1.58048e-07
8.98773e-08
5.06946e-08
2.83108e-08
1.55719e-08
8.29689e-09
4.0063e-09
1.17665e-09
1.29854
3.84814
6.25844
8.44684
10.345
11.9026
13.0889
13.8936
14.3249
14.4071
14.1774
13.6817
12.971
12.0979
11.1133
10.0643
8.99246
7.93264
6.91277
5.95385
5.07041
4.27122
3.56014
2.93708
2.39889
1.94021
1.55424
1.23339
0.969761
0.755565
0.583418
0.446519
0.338764
0.254796
0.190006
0.140492
0.10301
0.0748989
0.0540094
0.0386263
0.0273993
0.0192778
0.0134541
0.00931432
0.00639674
0.00435805
0.00294554
0.0019751
0.00131394
0.000867228
0.0005679
0.000368978
0.000237861
0.000152142
9.65572e-05
6.08039e-05
3.79922e-05
2.35546e-05
1.44902e-05
8.84495e-06
5.35715e-06
3.2195e-06
1.91978e-06
1.13586e-06
6.66821e-07
3.8838e-07
2.24406e-07
1.28643e-07
7.31551e-08
4.12518e-08
2.3028e-08
1.26731e-08
6.77998e-09
3.28736e-09
9.92246e-10
0.977685
2.89819
4.71632
6.37112
7.81181
9.00044
9.91337
10.5416
10.8898
10.9747
10.8228
10.4674
9.94594
9.29737
8.55994
7.76928
6.95711
6.1504
5.37093
4.63534
3.95534
3.33826
2.78762
2.30381
1.88484
1.52692
1.22507
0.973605
0.766581
0.598066
0.462395
0.354325
0.26913
0.202646
0.151274
0.111965
0.082171
0.0598004
0.0431585
0.0308908
0.0219288
0.0154399
0.0107829
0.00746973
0.00513299
0.00349901
0.00236616
0.00158736
0.00105646
0.000697574
0.000456974
0.000297007
0.000191524
0.000122537
7.77871e-05
4.89944e-05
3.06188e-05
1.89862e-05
1.16814e-05
7.13116e-06
4.3195e-06
2.59607e-06
1.54811e-06
9.15997e-07
5.3773e-07
3.13194e-07
1.80997e-07
1.03771e-07
5.90123e-08
3.32622e-08
1.85914e-08
1.02572e-08
5.4826e-09
2.66721e-09
7.90285e-10
0.732546
2.1721
3.53661
4.78124
5.86839
6.76966
7.46696
7.95279
8.22973
8.30927
8.21016
7.95646
7.57555
7.09623
6.54696
5.95452
5.34297
4.73294
4.14126
3.58095
3.06134
2.58841
2.16523
1.79246
1.46886
1.19178
0.957609
0.762135
0.600898
0.469417
0.363383
0.278785
0.211994
0.159797
0.11941
0.0884675
0.0649866
0.0473362
0.0341916
0.0244921
0.0173996
0.0122596
0.00856753
0.00593879
0.00408337
0.00278504
0.0018843
0.0012647
0.000842086
0.000556243
0.000364521
0.000236995
0.00015287
9.78314e-05
6.21176e-05
3.91323e-05
2.44595e-05
1.51688e-05
9.33367e-06
5.69837e-06
3.45181e-06
2.07462e-06
1.23718e-06
7.31974e-07
4.29688e-07
2.50271e-07
1.44617e-07
8.29173e-08
4.71679e-08
2.65887e-08
1.48409e-08
8.18932e-09
4.36522e-09
2.10304e-09
6.30032e-10
0.546079
1.61959
2.63826
3.56922
4.38477
5.06377
5.59249
5.9649
6.18227
6.25247
6.18877
6.00849
5.73157
5.37914
4.97229
4.53102
4.07341
3.61511
3.16902
2.74521
2.35101
1.99122
1.66844
1.38342
1.13543
0.922624
0.742401
0.591672
0.467115
0.36537
0.283181
0.217507
0.16558
0.124943
0.0934596
0.0693079
0.0509589
0.0371507
0.0268566
0.019253
0.0136877
0.00965098
0.00674898
0.00468112
0.00322049
0.0021977
0.00148767
0.00099895
0.00066542
0.000439715
0.000288257
0.00018747
0.000120958
7.74271e-05
4.91718e-05
3.0982e-05
1.93677e-05
1.20123e-05
7.39194e-06
4.51307e-06
2.73385e-06
1.64309e-06
9.79786e-07
5.79655e-07
3.40269e-07
1.98158e-07
1.14479e-07
6.56244e-08
3.73201e-08
2.10314e-08
1.1728e-08
6.43533e-09
3.43225e-09
1.66728e-09
5.21368e-10
0.404919
1.20118
1.95752
2.64992
3.25806
3.7663
4.16434
4.44737
4.61596
4.67547
4.63525
4.50774
4.30738
4.04961
3.74995
3.42323
3.08295
2.74089
2.40684
2.08851
1.79159
1.51987
1.27551
1.05924
0.870644
0.708479
0.570874
0.455575
0.360129
0.282032
0.218848
0.168283
0.128246
0.0968713
0.0725331
0.0538398
0.0396215
0.02891
0.0209163
0.015006
0.0106762
0.00753277
0.00527112
0.00365829
0.00251824
0.00171939
0.00116446
0.000782273
0.000521301
0.000344608
0.000225985
0.000147014
9.48793e-05
6.07471e-05
3.85857e-05
2.43154e-05
1.52019e-05
9.4292e-06
5.80258e-06
3.54273e-06
2.14598e-06
1.28971e-06
7.68995e-07
4.54948e-07
2.67005e-07
1.55458e-07
8.98093e-08
5.14706e-08
2.92647e-08
1.65049e-08
9.19913e-09
5.02599e-09
2.68258e-09
1.30287e-09
3.83069e-10
0.298599
0.885955
1.44435
1.95633
2.40705
2.78503
3.08255
3.29591
3.42523
3.47418
3.44933
3.35957
3.21532
3.02778
2.80833
2.56787
2.31643
2.0628
1.81433
1.57689
1.35482
1.15112
0.967493
0.804615
0.662293
0.539674
0.435432
0.347932
0.275377
0.215915
0.167734
0.129121
0.0985043
0.0744807
0.0558217
0.0414734
0.0305477
0.0223079
0.0161526
0.0115971
0.00825678
0.00582966
0.00408195
0.00283467
0.00195238
0.00133372
0.000903697
0.000607362
0.000404903
0.000267759
0.000175645
0.000114297
7.3782e-05
4.72486e-05
3.00164e-05
1.89175e-05
1.18281e-05
7.33683e-06
4.51498e-06
2.7565e-06
1.66961e-06
1.00333e-06
5.98175e-07
3.53829e-07
2.07619e-07
1.20853e-07
6.97953e-08
4.00104e-08
2.27339e-08
1.28213e-08
7.13342e-09
3.91959e-09
2.09096e-09
9.93344e-10
2.78795e-10
0.218949
0.649742
1.05962
1.43594
1.76794
2.0472
2.26803
2.42757
2.52577
2.56509
2.55015
2.48727
2.38393
2.24823
2.08844
1.91255
1.72793
1.54109
1.35753
1.18164
1.01674
0.865123
0.728153
0.606408
0.499819
0.407815
0.32946
0.263579
0.208862
0.16395
0.127506
0.0982573
0.0750355
0.0567911
0.0426036
0.0316813
0.0233552
0.0170695
0.0123692
0.00888734
0.00633194
0.00447359
0.00313438
0.00217791
0.00150085
0.00102579
0.000695374
0.00046755
0.000311816
0.000206272
0.000135351
8.80995e-05
5.68831e-05
3.64333e-05
2.31486e-05
1.45905e-05
9.12308e-06
5.65901e-06
3.48237e-06
2.12592e-06
1.28753e-06
7.73599e-07
4.61141e-07
2.72696e-07
1.59981e-07
9.31087e-08
5.37547e-08
3.07794e-08
1.74631e-08
9.85112e-09
5.49687e-09
3.0415e-09
1.60801e-09
7.68332e-10
2.25012e-10
0.159612
0.473731
0.772812
1.04775
1.29077
1.49574
1.6585
1.77688
1.85072
1.88169
1.87302
1.82919
1.75554
1.65789
1.54222
1.41434
1.27964
1.14291
1.00821
0.878825
0.757241
0.645206
0.543786
0.453464
0.374239
0.305733
0.247292
0.198076
0.157136
0.123483
0.0961363
0.0741598
0.0566891
0.0429463
0.0322469
0.0240007
0.017708
0.0129525
0.00939298
0.0067538
0.00481516
0.00340418
0.00238656
0.00165924
0.00114403
0.000782297
0.000530551
0.000356874
0.000238092
0.000157554
0.000103413
6.73272e-05
4.34796e-05
2.78527e-05
1.76987e-05
1.11562e-05
6.97582e-06
4.32697e-06
2.6625e-06
1.62525e-06
9.84178e-07
5.91224e-07
3.52334e-07
2.08299e-07
1.22166e-07
7.10663e-08
4.10246e-08
2.3466e-08
1.33163e-08
7.49892e-09
4.194e-09
2.29292e-09
1.18872e-09
5.74054e-10
1.844e-10
0.115665
0.343342
0.560261
0.759898
0.936653
1.08611
1.20523
1.29239
1.3474
1.37139
1.36661
1.33621
1.28399
1.21411
1.13088
1.03848
0.940833
0.841431
0.743257
0.648734
0.559718
0.477526
0.402978
0.336465
0.278021
0.2274
0.184146
0.147664
0.117272
0.0922548
0.0718977
0.0555171
0.042479
0.0322107
0.0242074
0.0180324
0.0133153
0.00974703
0.00707369
0.00508976
0.0036312
0.00256878
0.00180196
0.00125349
0.00086472
0.000591586
0.000401387
0.000270099
0.000180263
0.000119323
7.83405e-05
5.10152e-05
3.29512e-05
2.1111e-05
1.34159e-05
8.45691e-06
5.28796e-06
3.27988e-06
2.018e-06
1.23167e-06
7.45709e-07
4.47874e-07
2.66825e-07
1.57673e-07
9.24413e-08
5.37525e-08
3.10099e-08
1.7754e-08
1.00893e-08
5.65163e-09
3.14467e-09
1.71009e-09
8.92363e-10
4.25876e-10
1.24031e-10
0.0833095
0.24733
0.403691
0.547743
0.675482
0.78374
0.870309
0.933997
0.974622
0.992934
0.990496
0.969521
0.932691
0.882972
0.823433
0.757086
0.686752
0.614965
0.543895
0.475319
0.410608
0.350742
0.296344
0.247726
0.204934
0.167812
0.136044
0.109209
0.0868236
0.0683715
0.0533374
0.0412249
0.0315725
0.023962
0.0180236
0.0134371
0.00992997
0.00727442
0.00528306
0.00380396
0.00271564
0.00192228
0.00134923
0.00093907
0.000648141
0.000443622
0.000301122
0.000202706
0.000135331
8.96073e-05
5.88455e-05
3.83278e-05
2.47602e-05
1.5865e-05
1.00827e-05
6.35585e-06
3.97406e-06
2.46474e-06
1.51631e-06
9.25307e-07
5.60107e-07
3.3631e-07
2.00312e-07
1.18329e-07
6.93574e-08
4.03298e-08
2.32497e-08
1.33097e-08
7.5549e-09
4.25327e-09
2.35439e-09
1.2919e-09
6.89304e-10
3.36969e-10
6.69547e-11
0.0596349
0.177065
0.289072
0.392357
0.484076
0.561968
0.624444
0.670633
0.700373
0.714166
0.713091
0.698693
0.67286
0.637688
0.595357
0.548015
0.497683
0.446182
0.395082
0.345675
0.298963
0.255671
0.216265
0.180989
0.149891
0.122872
0.0997176
0.0801315
0.0637705
0.0502671
0.0392513
0.0303656
0.0232766
0.017681
0.0133103
0.00993117
0.00734473
0.0053845
0.00391325
0.00281954
0.00201414
0.00142657
0.00100186
0.000697669
0.000481762
0.000329892
0.000224015
0.000150855
0.000100747
6.67263e-05
4.38296e-05
2.85528e-05
1.8448e-05
1.18215e-05
7.51323e-06
4.73604e-06
2.96109e-06
1.83629e-06
1.1295e-06
6.89102e-07
4.17031e-07
2.50317e-07
1.49047e-07
8.80278e-08
5.15781e-08
2.99858e-08
1.72864e-08
9.88295e-09
5.59236e-09
3.16004e-09
1.77814e-09
9.86758e-10
5.12587e-10
2.52452e-10
6.14666e-11
0.0424207
0.125967
0.205693
0.279275
0.344701
0.400367
0.445141
0.47839
0.49998
0.510243
0.509922
0.500092
0.482072
0.457336
0.427424
0.393856
0.358071
0.32137
0.284879
0.249528
0.216047
0.184964
0.156626
0.131217
0.108786
0.089269
0.07252
0.0583337
0.0464681
0.036663
0.0286547
0.0221876
0.0170224
0.0129411
0.00974995
0.00728031
0.00538826
0.00395301
0.00287486
0.00207271
0.00148156
0.00104997
0.00073778
0.000514031
0.000355122
0.000243279
0.000165265
0.000111331
7.43736e-05
4.92719e-05
3.23715e-05
2.10919e-05
1.36291e-05
8.73418e-06
5.55115e-06
3.49913e-06
2.18756e-06
1.3564e-06
8.34137e-07
5.08783e-07
3.07802e-07
1.8471e-07
1.09947e-07
6.4912e-08
3.79863e-08
2.20753e-08
1.27357e-08
7.26513e-09
4.11607e-09
2.30939e-09
1.29738e-09
7.24428e-10
3.76483e-10
1.62447e-10
6.14666e-11
0.0299839
0.0890449
0.145431
0.197512
0.243874
0.283389
0.315253
0.33901
0.354554
0.362105
0.36217
0.355494
0.342995
0.325702
0.304695
0.281045
0.255769
0.229789
0.203908
0.178791
0.154962
0.132804
0.112573
0.0944062
0.0783459
0.0643534
0.0523296
0.0421328
0.0335937
0.0265291
0.0207525
0.0160826
0.0123489
0.00939565
0.00708426
0.0052938
0.00392083
0.00287845
0.00209476
0.00151123
0.00108086
0.000766427
0.000538831
0.000375604
0.000259607
0.00017792
0.00012091
8.14788e-05
5.44471e-05
3.60796e-05
2.37089e-05
1.54501e-05
9.98446e-06
6.39881e-06
4.06685e-06
2.56338e-06
1.60238e-06
9.93389e-07
6.10779e-07
3.72444e-07
2.25243e-07
1.35118e-07
8.0395e-08
4.74412e-08
2.77533e-08
1.61031e-08
9.28475e-09
5.30808e-09
3.01955e-09
1.68814e-09
9.1212e-10
4.99416e-10
2.73307e-10
1.11957e-10
5.26856e-11
0.0210571
0.0625401
0.10216
0.138782
0.171418
0.199277
0.221794
0.238644
0.249745
0.255242
0.255479
0.25097
0.242349
0.230331
0.21567
0.199115
0.18138
0.163113
0.144882
0.12716
0.110319
0.0946371
0.0802977
0.0674044
0.0559907
0.0460337
0.0374672
0.0301937
0.0240955
0.0190448
0.0149105
0.0115647
0.00888689
0.00676682
0.00510596
0.00381824
0.00282994
0.00207896
0.00151391
0.00109285
0.000782082
0.00055487
0.000390297
0.000272195
0.000188217
0.000129045
8.7728e-05
5.91368e-05
3.95283e-05
2.61996e-05
1.72196e-05
1.12228e-05
7.2532e-06
4.64853e-06
2.95436e-06
1.862e-06
1.16379e-06
7.2136e-07
4.43424e-07
2.70315e-07
1.63412e-07
9.79602e-08
5.8255e-08
3.43499e-08
2.01029e-08
1.16358e-08
6.68778e-09
3.83617e-09
2.19304e-09
1.2436e-09
6.82718e-10
3.63311e-10
2.00864e-10
1.04274e-10
2.85381e-11
0.0146919
0.0436389
0.0712964
0.0968773
0.119697
0.139205
0.155006
0.166869
0.174734
0.178694
0.178985
0.175955
0.170043
0.161743
0.151575
0.140062
0.127699
0.114942
0.102188
0.0897701
0.077953
0.0669332
0.0568434
0.0477594
0.0397079
0.0326756
0.0266181
0.0214692
0.0171475
0.0135644
0.0106283
0.00824988
0.00634449
0.00483453
0.00365056
0.00273179
0.00202606
0.00148937
0.00108524
0.000783866
0.000561275
0.000398423
0.000280391
0.000195636
0.000135336
9.28247e-05
6.31265e-05
4.25661e-05
2.84595e-05
1.88672e-05
1.24025e-05
8.08421e-06
5.22511e-06
3.34879e-06
2.12824e-06
1.34121e-06
8.38157e-07
5.19421e-07
3.19198e-07
1.94523e-07
1.17547e-07
7.04385e-08
4.18587e-08
2.46591e-08
1.43974e-08
8.32543e-09
4.78232e-09
2.73307e-09
1.55423e-09
8.78094e-10
5.03806e-10
2.60135e-10
1.49276e-10
9.32975e-11
2.85381e-11
0.0101836
0.0302501
0.0494295
0.0671794
0.083028
0.0965944
0.107604
0.115896
0.121424
0.12425
0.124532
0.122508
0.118477
0.112779
0.105772
0.0978167
0.0892566
0.0804074
0.0715464
0.0629063
0.0546727
0.0469845
0.0399363
0.033583
0.0279451
0.0230153
0.0187643
0.0151469
0.0121076
0.00958516
0.0075162
0.0058386
0.0044934
0.00342643
0.0025891
0.00193878
0.00143884
0.00105836
0.000771639
0.000557672
0.000399528
0.000283751
0.000199787
0.000139459
9.65131e-05
6.62215e-05
4.50497e-05
3.03858e-05
2.03209e-05
1.34744e-05
8.85886e-06
5.77497e-06
3.73277e-06
2.39234e-06
1.5203e-06
9.57996e-07
5.98578e-07
3.70861e-07
2.2782e-07
1.38773e-07
8.3836e-08
5.02072e-08
2.9808e-08
1.75465e-08
1.02166e-08
5.90628e-09
3.38286e-09
1.92522e-09
1.06798e-09
5.75152e-10
3.20504e-10
1.8879e-10
1.10859e-10
5.70761e-11
2.74404e-11
0.00701191
0.0208302
0.0340418
0.0462755
0.0572079
0.0665775
0.0741949
0.0799482
0.0838035
0.0858009
0.0860465
0.0847018
0.0819699
0.0780824
0.0732847
0.0678237
0.0619361
0.0558395
0.0497256
0.0437559
0.0380597
0.0327342
0.0278463
0.0234353
0.0195167
0.0160866
0.0131256
0.0106035
0.00848233
0.00672017
0.00527349
0.0040994
0.00315713
0.0024091
0.00182158
0.00136492
0.00101359
0.000746008
0.000544219
0.000393529
0.00028208
0.000200436
0.00014119
9.85987e-05
6.82627e-05
4.68546e-05
3.18848e-05
2.15122e-05
1.43899e-05
9.54349e-06
6.27533e-06
4.09117e-06
2.64448e-06