/*--------------------------------*- C++ -*----------------------------------*\
  =========                 |
  \\      /  F ield         | OpenFOAM: The Open Source CFD Toolbox
   \\    /   O peration     | Website:  https://openfoam.org
    \\  /    A nd           | Version:  10
     \\/     M anipulation  |
\*---------------------------------------------------------------------------*/
FoamFile
{
    format      ascii;
    class       volScalarField;
    location    "338";
    object      gradTx;
}
// * * * * * * * * * * * * * * * * * * * * * * * * * * * * * * * * * * * * * //

dimensions      [0 -1 0 1 0 0 0];

internalField   nonuniform List<scalar> 
11250
(
14300.4
8105.59
5312.9
3831.19
2934.1
2334.5
1903.94
1578.32
1322.59
1116.12
945.996
803.74
683.513
581.149
493.57
418.426
353.87
298.411
250.819
210.054
175.229
145.573
120.409
99.1445
81.2528
66.2688
53.7809
43.426
34.8846
27.8769
22.1589
17.5194
13.7762
10.7735
8.37884
6.48023
4.9838
3.81136
2.89826
2.19139
1.64747
1.23146
0.915215
0.676265
0.496816
0.362873
0.263505
0.190236
0.136542
0.097432
0.0691193
0.0487479
0.0341799
0.0238254
0.0165106
0.0113747
0.00779053
0.00530451
0.00359065
0.00241629
0.00161649
0.00107508
0.000710814
0.000467209
0.000305284
0.0001983
0.000128038
8.21644e-05
5.2381e-05
3.31378e-05
2.07409e-05
1.27384e-05
7.49797e-06
3.91623e-06
1.21378e-06
4096.24
4704.41
4003.43
3248.67
2639.22
2168.55
1802.52
1512.29
1277.49
1084.14
922.664
786.325
670.282
570.956
485.632
412.192
348.943
294.5
247.703
207.567
173.242
143.985
119.141
98.133
80.4473
65.6288
53.2738
43.0254
34.5692
27.6294
21.9655
17.3688
13.6595
10.6834
8.30964
6.42731
4.94353
3.78087
2.87529
2.17417
1.63462
1.22193
0.908184
0.671104
0.493049
0.360138
0.261529
0.188818
0.135529
0.0967124
0.0686111
0.048391
0.0339306
0.0236523
0.0163911
0.0112926
0.00773451
0.00526649
0.00356499
0.00239907
0.001605
0.00106746
0.00070579
0.000463915
0.000303137
0.000196908
0.000127141
8.15904e-05
5.20159e-05
3.29073e-05
2.05969e-05
1.26501e-05
7.44617e-06
3.8892e-06
1.20544e-06
1476.69
2613.31
2749.26
2522.92
2208.14
1901.03
1628.77
1394.7
1195.05
1024.65
878.694
753.198
644.936
551.324
470.277
400.092
339.354
286.869
241.613
202.699
169.348
140.869
116.651
96.1447
78.863
64.3692
52.2752
42.2361
33.9474
27.1413
21.5839
17.0717
13.4291
10.5056
8.17299
6.3228
4.86399
3.72063
2.82989
2.14013
1.60924
1.2031
0.894282
0.660898
0.485597
0.354726
0.257621
0.18601
0.133523
0.0952882
0.0676051
0.0476844
0.0334371
0.0233095
0.0161544
0.0111301
0.00762357
0.00519118
0.00351416
0.00236496
0.00158224
0.00105237
0.000695833
0.000457387
0.000298881
0.00019415
0.000125364
8.04524e-05
5.12919e-05
3.24502e-05
2.03114e-05
1.2475e-05
7.34327e-06
3.83552e-06
1.18883e-06
674.223
1523.8
1858.85
1887.67
1771.96
1601.7
1420.26
1246.48
1087.45
944.991
818.709
707.361
609.481
523.627
448.469
382.815
325.602
275.885
232.822
195.654
163.699
136.342
113.026
93.2473
76.5516
62.5298
50.8155
41.0814
33.0372
26.4265
21.0247
16.636
13.0911
10.2446
7.97239
6.16934
4.74715
3.63212
2.76317
2.0901
1.57191
1.1754
0.873834
0.645885
0.474633
0.346763
0.251869
0.181878
0.130572
0.0931913
0.0661238
0.0466439
0.0327103
0.0228048
0.0158058
0.0108907
0.00746013
0.00508022
0.00343927
0.0023147
0.00154871
0.00103012
0.000681158
0.000447763
0.000292607
0.000190083
0.000122744
7.87744e-05
5.02243e-05
3.17761e-05
1.98902e-05
1.22168e-05
7.1915e-06
3.75635e-06
1.16428e-06
370.924
949.692
1276.13
1398.95
1392.84
1316.52
1207.48
1087.22
967.262
853.372
748.143
652.49
566.455
489.649
421.48
361.28
308.361
262.05
221.703
186.713
156.511
130.567
108.393
89.5368
73.5868
60.1672
48.9384
39.595
31.8644
25.5046
20.303
16.0734
12.6545
9.90723
7.71291
5.97074
4.59589
3.51748
2.67673
2.02525
1.52352
1.13948
0.847311
0.626406
0.460405
0.336427
0.244402
0.176514
0.126739
0.0904679
0.0641997
0.0452921
0.0317659
0.0221488
0.0153527
0.0105796
0.00724766
0.00493597
0.00334189
0.00224935
0.00150509
0.00100118
0.000662072
0.000435246
0.000284446
0.000184793
0.000119335
7.65913e-05
4.88352e-05
3.08989e-05
1.93422e-05
1.18808e-05
6.99395e-06
3.65329e-06
1.13237e-06
230.996
628.787
898.441
1041.12
1086.37
1066.97
1009.19
931.274
844.905
757.19
672.244
592.321
518.538
451.331
390.733
336.541
288.417
245.952
208.704
176.217
148.042
123.743
102.904
85.131
70.0596
57.3517
46.6981
37.8186
30.4611
24.4004
19.4377
15.3983
12.1301
9.50179
7.40091
5.7318
4.41381
3.37942
2.57259
1.9471
1.46518
1.09615
0.815313
0.6029
0.443231
0.323948
0.235384
0.170033
0.122107
0.0871768
0.061874
0.043658
0.0306242
0.0213556
0.0148048
0.0102032
0.00699064
0.00476145
0.00322407
0.00217026
0.00145231
0.00096616
0.000638967
0.000420092
0.000274564
0.000178388
0.000115207
7.39473e-05
4.71527e-05
2.98364e-05
1.86783e-05
1.14736e-05
6.75463e-06
3.52841e-06
1.09369e-06
155.549
436.858
649.105
782.622
846.902
858.593
834.229
787.284
727.662
662.205
595.426
530.191
468.241
410.565
357.655
309.678
266.592
228.221
194.305
164.536
138.58
116.092
96.7304
80.1632
66.0733
54.1632
44.1566
35.8003
28.8644
23.1425
18.4509
14.6276
11.5309
9.03812
7.04383
5.45816
4.20516
3.22113
2.45312
1.8574
1.39819
1.04639
0.778542
0.575878
0.423481
0.309593
0.225008
0.162575
0.116776
0.0833873
0.0591957
0.0417756
0.0293087
0.0204415
0.0141733
0.0097694
0.00669432
0.00456021
0.00308819
0.00207903
0.00139142
0.000925754
0.000612308
0.000402605
0.00026316
0.000170994
0.000110442
7.08949e-05
4.52101e-05
2.86096e-05
1.79116e-05
1.10035e-05
6.47824e-06
3.38417e-06
1.04899e-06
110.162
314.796
479.823
595.176
662.303
688.964
684.906
659.337
619.876
572.354
521.007
468.793
417.706
369.032
323.558
281.714
243.683
209.477
178.993
152.05
128.419
107.844
90.0536
74.7742
61.738
50.6876
41.3806
33.5917
27.1145
21.7619
17.3664
13.7796
10.8709
8.52697
6.64986
5.15601
3.9746
3.04611
2.32094
1.75811
1.32399
0.991244
0.73778
0.545911
0.401572
0.293662
0.213489
0.154292
0.110854
0.0791769
0.056219
0.039683
0.0278461
0.019425
0.0134708
0.00928674
0.00636458
0.00433624
0.00293694
0.00197748
0.00132363
0.000880758
0.000582616
0.000383126
0.000250456
0.000162757
0.000105133
6.74933e-05
4.3045e-05
2.7242e-05
1.70569e-05
1.04793e-05
6.17005e-06
3.22334e-06
9.99166e-07
80.7223
233.109
361.479
457.694
520.342
552.625
560.012
548.497
523.608
489.97
451.223
410.106
368.608
328.118
289.572
253.559
220.417
190.3
163.226
139.122
117.849
99.2279
83.0529
69.1058
57.1649
47.0123
38.4386
31.2464
25.2529
20.2909
16.2093
12.8737
10.1651
7.97966
6.22761
4.83189
3.72708
2.85806
2.17884
1.65129
1.24413
0.931856
0.693859
0.513607
0.377943
0.276475
0.201057
0.14535
0.104458
0.0746282
0.0530023
0.0374212
0.0262647
0.0183256
0.0127109
0.00876454
0.00600777
0.00409384
0.0027732
0.00186752
0.00125021
0.000832023
0.000550452
0.000362023
0.000236689
0.000153829
9.93776e-05
6.38057e-05
4.06976e-05
2.5759e-05
1.613e-05
9.91071e-06
5.83574e-06
3.0489e-06
9.4514e-07
60.5854
176.169
276.489
355.425
410.808
443.621
456.788
454.084
439.369
416.148
387.381
355.441
322.156
288.884
256.599
225.967
197.418
171.199
147.418
126.085
107.137
90.4577
75.8996
63.294
52.462
43.2225
35.3976
28.8171
23.321
18.7616
15.0045
11.9291
9.42813
7.4076
5.78579
4.49242
3.46761
2.66078
2.02964
1.53906
1.16017
0.869386
0.647633
0.47959
0.35305
0.25836
0.187949
0.135918
0.0977097
0.0698269
0.0496058
0.0350322
0.024594
0.0171639
0.0119077
0.00821241
0.00563042
0.00383742
0.00259997
0.00175116
0.00117251
0.000780432
0.000516398
0.000339675
0.000222109
0.000144372
9.32803e-05
5.98984e-05
3.821e-05
2.41873e-05
1.51474e-05
9.30792e-06
5.48125e-06
2.86389e-06
8.87828e-07
46.2665
135.18
214.013
278.261
325.788
356.56
372.045
374.558
366.726
351.127
330.08
305.552
279.136
252.077
225.315
199.53
175.191
152.598
131.922
113.232
96.5208
81.7268
68.7498
57.4643
47.7296
39.3982
32.3212
26.3539
21.3581
17.205
13.7761
10.9645
8.67459
6.82192
5.33294
4.14411
3.20112
2.458
1.87615
1.42352
1.07367
0.804984
0.59995
0.444482
0.327345
0.239645
0.1744
0.126165
0.0907285
0.0648584
0.0460899
0.0325584
0.0228633
0.0159601
0.0110753
0.00764002
0.00523912
0.00357147
0.00242025
0.00163042
0.00109186
0.000726877
0.000481041
0.000316467
0.000206965
0.000134548
8.69451e-05
5.5838e-05
3.56244e-05
2.25535e-05
1.41259e-05
8.68113e-06
5.11264e-06
2.67145e-06
8.28183e-07
35.7831
104.916
167.18
219.272
259.341
286.938
302.719
308.068
304.744
294.602
279.415
260.762
239.983
218.171
196.186
174.678
154.119
134.834
117.026
100.803
86.2022
73.2014
61.7397
51.7276
43.0576
35.6116
29.2672
23.9028
19.4007
15.6496
12.5466
9.99757
7.91806
6.23314
4.87714
3.79314
2.93233
2.25325
1.72105
1.30667
0.986126
0.73976
0.551627
0.408881
0.301264
0.220647
0.160639
0.116254
0.0836321
0.0598058
0.0425131
0.0300409
0.0211015
0.0147343
0.0102273
0.00705679
0.00484031
0.00330034
0.00223699
0.00150727
0.00100958
0.000672229
0.000444954
0.000292776
0.000191503
0.000124516
8.04744e-05
5.16899e-05
3.29827e-05
2.08838e-05
1.30818e-05
8.04044e-06
4.73579e-06
2.47471e-06
7.67231e-07
27.9342
82.1185
131.504
173.656
207.06
231.133
246.097
252.756
252.271
245.958
235.149
221.084
204.862
187.412
169.491
151.696
134.475
118.153
102.947
88.9893
76.3433
65.0183
54.9832
46.1781
38.523
31.9253
26.286
21.5043
17.481
14.1213
11.3362
9.04405
7.17091
5.65085
4.42578
3.44519
2.66556
2.04985
1.56682
1.19038
0.89893
0.674748
0.503427
0.373348
0.275218
0.201664
0.146883
0.106342
0.0765307
0.0547475
0.0389308
0.0275185
0.0193357
0.0135053
0.00937679
0.00647167
0.00444008
0.00302817
0.00205298
0.00138359
0.000926932
0.000617317
0.000408685
0.000268961
0.000175956
0.000114427
7.39659e-05
4.75168e-05
3.03244e-05
1.92035e-05
1.20309e-05
7.39541e-06
4.35634e-06
2.27665e-06
7.05878e-07
21.9553
64.6735
103.97
138.04
165.671
186.286
199.881
206.904
208.112
204.431
196.849
186.325
173.742
159.871
145.363
130.745
116.428
102.721
89.8407
77.9296
67.0672
57.2838
48.5709
40.8918
34.1889
28.3913
23.4202
19.1929
15.6269
12.642
10.1625
8.11782
6.444
5.08351
3.98544
3.1053
2.40468
1.85073
1.4157
1.07633
0.81334
0.610883
0.456044
0.338394
0.24958
0.182967
0.133326
0.0965687
0.0695256
0.0497555
0.0353939
0.0250271
0.0175909
0.0122904
0.00853583
0.00589291
0.00404408
0.00275879
0.00187081
0.00126111
0.000845062
0.000562912
0.000372743
0.000245354
0.000160542
0.000104422
6.75101e-05
4.33767e-05
2.76867e-05
1.75358e-05
1.09877e-05
6.75507e-06
3.9796e-06
2.07994e-06
6.449e-07
17.3394
51.1584
82.497
110.008
132.736
150.158
162.165
168.991
171.124
169.212
163.979
156.16
146.453
135.489
123.814
111.884
100.063
88.6341
77.805
67.7176
58.4598
50.0747
42.57
35.9263
30.1043
25.0507
20.7036
16.9964
13.8609
11.2301
9.04002
7.2305
5.7465
4.53831
3.56169
2.77781
2.15302
1.65844
1.26961
0.965971
0.730453
0.548985
0.410086
0.304467
0.224679
0.164796
0.120142
0.0870596
0.0627063
0.0448936
0.0319476
0.0225984
0.0158894
0.0111052
0.00771511
0.00532788
0.00365736
0.00249565
0.00169279
0.00114139
0.000765016
0.000509706
0.000337583
0.000222256
0.000145457
9.46274e-05
6.11891e-05
3.93222e-05
2.5103e-05
1.59019e-05
9.96543e-06
6.12746e-06
3.61029e-06
1.88709e-06
5.85125e-07
13.7386
40.587
65.6135
87.8058
106.415
120.993
131.388
137.708
140.264
139.506
135.963
130.193
122.743
114.119
104.774
95.0937
85.3947
75.9291
66.8874
58.4058
50.5736
43.4409
37.026
31.3223
26.3045
21.9337
18.1619
14.936
12.2005
9.89988
7.98041
6.39135
5.08578
4.02108
3.15911
2.46628
1.91333
1.47509
1.13017
0.860535
0.651191
0.489744
0.366065
0.271947
0.200794
0.147355
0.107481
0.077922
0.0561499
0.0402167
0.028631
0.0202601
0.0142504
0.00996314
0.00692394
0.004783
0.00328429
0.00224171
0.00152096
0.00102579
0.000687702
0.000458301
0.000303604
0.000199928
0.000130871
8.51554e-05
5.50747e-05
3.53993e-05
2.26026e-05
1.43204e-05
8.97575e-06
5.51971e-06
3.25259e-06
1.70027e-06
5.27243e-07
10.9075
32.2572
52.2545
70.1342
85.3113
97.4126
106.279
111.945
114.606
114.573
112.232
108.002
102.308
95.5556
88.1118
80.2985
72.3864
64.595
57.095
50.0119
43.4321
37.4082
31.9649
27.1045
22.8122
19.0603
15.8125
13.0267
10.6583
8.66168
6.9922
5.60733
4.46744
3.53626
2.78123
2.17347
1.68777
1.30235
0.998652
0.760995
0.576291
0.433715
0.324398
0.241141
0.178152
0.130811
0.095464
0.0692436
0.0499197
0.0357701
0.025476
0.0180347
0.0126899
0.00887531
0.00617004
0.0042636
0.00292854
0.00199948
0.00135698
0.000915441
0.000613882
0.000409204
0.000271143
0.000178592
0.00011693
7.60994e-05
4.92273e-05
3.16469e-05
2.02104e-05
1.28069e-05
8.02843e-06
4.9379e-06
2.91011e-06
1.52135e-06
4.71768e-07
8.66829
25.6576
41.6345
56.0177
68.3517
78.3304
85.804
90.7678
93.341
93.7381
92.2388
89.1588
84.8259
79.5593
73.6561
67.381
60.9615
54.5855
48.4025
42.5254
37.0348
31.9823
27.3958
23.2836
19.6385
16.4414
13.6654
11.2776
9.2422
7.52229
6.08107
4.88316
3.89533
3.08701
2.43056
1.90138
1.47791
1.14145
0.876015
0.668079
0.506309
0.381319
0.2854
0.212287
0.156929
0.115293
0.0841841
0.0610929
0.0440648
0.0315892
0.0225081
0.0159402
0.0112205
0.00785054
0.00545955
0.0037739
0.00259301
0.00177093
0.00120223
0.000811263
0.000544165
0.000362823
0.000240469
0.000158424
0.000103748
6.7535e-05
4.3696e-05
2.80965e-05
1.79463e-05
1.13743e-05
7.13153e-06
4.38692e-06
2.58574e-06
1.35189e-06
4.19228e-07
6.88976
20.4082
33.1638
44.7133
54.7021
62.8827
69.1215
73.394
75.7707
76.3991
75.4816
73.2547
69.9698
65.8776
61.2154
56.199
51.017
45.828
40.7606
35.9142
31.3617
27.152
23.3138
19.8587
16.7848
14.08
11.7242
9.6923
7.9559
6.48517
5.25011
4.22151
3.37174
2.67521
2.10865
1.65127
1.28475
0.993179
0.762885
0.582277
0.441624
0.332844
0.24929
0.185548
0.137247
0.100892
0.0737091
0.0535191
0.0386211
0.0276997
0.0197455
0.0139897
0.00985149
0.00689531
0.004797
0.00331706
0.00227987
0.00155756
0.00105769
0.000713933
0.00047901
0.000319464
0.000211784
0.000139559
9.14148e-05
5.95196e-05
3.8518e-05
2.47719e-05
1.58259e-05
1.00322e-05
6.29113e-06
3.87052e-06
2.28166e-06
1.19305e-06
3.69988e-07
5.47303
16.2217
26.3928
35.6471
43.709
50.3799
55.5451
59.1712
61.2984
62.0273
61.5045
59.9063
57.4252
54.2565
50.5888
46.5962
42.4334
38.2326
34.1028
30.1301
26.3788
22.8937
19.7027
16.8191
14.2448
11.9723
9.98716
8.27031
6.7995
5.55087
4.50008
3.62323
2.89751
2.30164
1.81621
1.42374
1.10882
0.857968
0.659603
0.503863
0.382449
0.288458
0.216197
0.161023
0.119181
0.0876632
0.0640808
0.0465529
0.0336111
0.0241181
0.0172002
0.0121917
0.00858887
0.00601393
0.00418539
0.00289517
0.00199057
0.00136036
0.00092406
0.000623917
0.000418731
0.000279337
0.00018523
0.00012209
7.99908e-05
5.2093e-05
3.37191e-05
2.16901e-05
1.38597e-05
8.78741e-06
5.51146e-06
3.39138e-06
1.99949e-06
1.04562e-06
3.24297e-07
4.34256
12.8779
20.9742
28.3715
34.8556
40.2684
44.5135
47.5556
49.4155
50.1619
49.9005
48.7629
46.8956
44.4503
41.5757
38.4113
35.0828
31.6993
28.3519
25.1139
22.0413
19.174
16.538
14.1472
12.0056
10.1091
8.44782
7.00724
5.77011
4.71749
3.8298
3.08762
2.47224
1.96613
1.55318
1.21882
0.950161
0.735889
0.566248
0.432911
0.328854
0.248219
0.18617
0.138752
0.102762
0.0756322
0.0553179
0.0402088
0.0290457
0.0208523
0.0148781
0.0105504
0.00743578
0.00520863
0.00362633
0.00250937
0.00172591
0.00117987
0.000801716
0.000541473
0.000363504
0.000242561
0.000160885
0.00010607
6.95115e-05
4.52787e-05
2.93147e-05
1.88608e-05
1.20542e-05
7.6441e-06
4.79521e-06
2.95114e-06
1.74015e-06
9.10084e-07
2.82296e-07
3.43983
10.2055
16.6365
22.5335
27.7302
32.1012
35.567
38.0937
39.6907
40.4043
40.3109
39.5084
38.108
36.2271
33.9824
31.4847
28.8353
26.1234
23.4245
20.8001
18.2979
15.9531
13.7891
11.8195
10.0495
8.47739
7.09642
5.89587
4.86242
3.98117
3.23648
2.61268
2.09454
1.66769
1.31887
1.03603
0.808457
0.626726
0.482676
0.369327
0.280776
0.21209
0.159186
0.118721
0.0879838
0.0647949
0.047419
0.0344863
0.024925
0.017903
0.0127798
0.00906658
0.00639273
0.00447983
0.00312014
0.00215989
0.00148607
0.00101626
0.00069076
0.000466677
0.000313383
0.000209174
0.000138777
9.15177e-05
5.9989e-05
3.90849e-05
2.53102e-05
1.62877e-05
1.04118e-05
6.60382e-06
4.1434e-06
2.55038e-06
1.50402e-06
7.86678e-07
2.43997e-07
2.719
8.07008
13.1657
17.8528
22.0024
25.5157
28.3278
30.4082
31.7592
32.4122
32.4221
31.8616
30.8152
29.3731
27.6264
25.6628
23.5634
21.4003
19.2353
17.1197
15.0938
13.1875
11.4219
9.80938
8.35577
7.06101
5.92063
4.92679
4.06932
3.33656
2.71612
2.19542
1.76217
1.40467
1.11208
0.874492
0.683073
0.53002
0.408558
0.312877
0.23805
0.179952
0.135161
0.100873
0.0748048
0.0551233
0.0403647
0.0293724
0.0212402
0.015264
0.0109013
0.00773738
0.00545791
0.00382633
0.00266604
0.00184624
0.00127073
0.000869289
0.000591057
0.000399442
0.000268313
0.000179141
0.000118883
7.84188e-05
5.14153e-05
3.35067e-05
2.17026e-05
1.39691e-05
8.93138e-06
5.66594e-06
3.55556e-06
2.18889e-06
1.29103e-06
6.75334e-07
2.09479e-07
2.14387
6.36528
10.3915
14.1051
17.4061
20.217
22.4854
24.1847
25.3135
25.8928
25.9619
25.575
24.7958
23.6937
22.3394
20.8018
19.1454
17.4282
15.7004
14.0041
12.3728
10.832
9.39995
8.08791
6.90163
5.84209
4.90649
4.08917
3.38243
2.77723
2.26379
1.83211
1.47231
1.17496
0.931216
0.733023
0.573129
0.445123
0.343419
0.263213
0.200423
0.151623
0.113966
0.0851122
0.0631585
0.0465701
0.0341217
0.0248435
0.0179748
0.012924
0.00923456
0.00655745
0.00462764
0.00324562
0.00226233
0.00156727
0.00107911
0.000738462
0.00050227
0.000339545
0.000228147
0.000152368
0.000101143
6.67339e-05
4.37649e-05
2.85276e-05
1.84817e-05
1.18984e-05
7.60898e-06
4.82792e-06
3.0302e-06
1.86577e-06
1.10062e-06
5.75804e-07
1.78637e-07
1.68563
5.00625
8.17778
11.11
13.7258
15.9644
17.7838
19.1618
20.0948
20.5967
20.6959
20.4323
19.8543
19.0147
17.9683
16.7691
15.4679
14.111
12.739
11.3859
10.0796
8.84141
7.6867
6.62556
5.66341
4.80179
4.03909
3.37129
2.79259
2.29604
1.87399
1.51851
1.22174
0.976078
0.774419
0.610216
0.47757
0.371248
0.286674
0.219904
0.167579
0.126872
0.0954304
0.0713186
0.0529574
0.0390726
0.0286453
0.0208681
0.0151067
0.0108673
0.00776885
0.00551923
0.00389669
0.00273413
0.00190658
0.00132132
0.000910103
0.000623024
0.000423895
0.000286653
0.000192665
0.000128708
8.5461e-05
5.64016e-05
3.69978e-05
2.41222e-05
1.56312e-05
1.00654e-05
6.43803e-06
4.0857e-06
2.56482e-06
1.57949e-06
9.31859e-07
4.87562e-07
1.51254e-07
1.32122
3.92502
6.41496
8.72192
10.7864
12.561
14.0124
15.1222
15.886
16.3128
16.4231
16.2465
15.8192
15.1816
14.3761
13.4445
12.4268
11.3596
10.2754
9.20177
8.16137
7.17184
6.24616
5.39303
4.61741
3.92107
3.30323
2.76107
2.29029
1.88554
1.54089
1.2501
1.00694
0.805359
0.639641
0.50452
0.395227
0.307517
0.237668
0.182463
0.139156
0.105433
0.0793614
0.0593503
0.0440992
0.0325573
0.0238829
0.0174085
0.0126091
0.00907535
0.006491
0.00461357
0.00325874
0.00228749
0.00159577
0.00110635
0.000762318
0.000522039
0.000355306
0.000240347
0.000161591
0.000107981
7.17176e-05
4.73436e-05
3.10637e-05
2.02579e-05
1.313e-05
8.45658e-06
5.41008e-06
3.43398e-06
2.15604e-06
1.32795e-06
7.8354e-07
4.09975e-07
1.27202e-07
1.03211
3.06687
5.01478
6.82294
8.44552
9.84581
10.9975
11.8854
12.5052
12.8627
12.9724
12.8564
12.5417
12.0592
11.4413
10.7205
9.92789
9.09246
8.23992
7.39241
6.56823
5.78184
5.044
4.36213
3.74061
3.18129
2.68391
2.24653
1.86597
1.53818
1.25857
1.02226
0.824347
0.660028
0.524754
0.41431
0.324864
0.252996
0.195699
0.150366
0.114767
0.0870192
0.0655481
0.0490535
0.0364721
0.0269432
0.0197764
0.0144234
0.0104526
0.00752714
0.00538633
0.00383022
0.00270665
0.00190076
0.00132653
0.000920046
0.00063418
0.000434444
0.000295786
0.000200149
0.000134606
8.9974e-05
5.97745e-05
3.94697e-05
2.59037e-05
1.68968e-05
1.09539e-05
7.05647e-06
4.51523e-06
2.86649e-06
1.80003e-06
1.1088e-06
6.54327e-07
3.4242e-07
1.06264e-07
0.803376
2.3877
3.90588
5.31749
6.58739
7.68716
8.5962
9.30219
9.80106
10.0965
10.199
10.1246
9.8938
9.52988
9.05762
8.50208
7.88752
7.23653
6.56943
5.90383
5.25441
4.63288
4.0481
3.50626
3.01119
2.56464
2.16669
1.81603
1.51035
1.24658
1.02119
0.830408
0.670374
0.537312
0.42762
0.337946
0.265232
0.206739
0.160053
0.123077
0.094012
0.071335
0.053772
0.0402681
0.0299594
0.0221458
0.0162647
0.011869
0.00860611
0.00620064
0.00443929
0.00315827
0.00223282
0.00156868
0.00109522
0.000759916
0.000523999
0.000359091
0.000244566
0.000165543
0.000111366
7.44612e-05
4.9482e-05
3.26819e-05
2.14541e-05
1.39975e-05
9.07632e-06
5.84814e-06
3.74275e-06
2.37652e-06
1.49258e-06
9.19535e-07
5.42706e-07
2.84035e-07
8.81244e-08
0.622968
1.85187
3.03048
4.12801
5.11756
5.97723
6.69096
7.24891
7.64744
7.8888
7.98051
7.93443
7.76581
7.49227
7.13268
6.70628
6.23182
5.72691
5.20747
4.68739
4.17838
3.68983
3.22896
2.80088
2.40884
2.05447
1.738
1.45861
1.21461
1.00369
0.823173
0.670129
0.541563
0.434515
0.346151
0.27382
0.215099
0.167808
0.130022
0.100064
0.0764922
0.0580838
0.0438141
0.032833
0.0244435
0.0180796
0.0132862
0.00970095
0.00703788
0.00507336
0.00363402
0.00258659
0.00182948
0.00128587
0.000898134
0.000623409
0.000430031
0.0002948
0.000200846
0.000135993
9.15147e-05
6.12058e-05
4.06843e-05
2.68781e-05
1.76484e-05
1.15172e-05
7.46955e-06
4.81382e-06
3.08137e-06
1.9569e-06
1.22922e-06
7.57407e-07
4.47064e-07
2.33967e-07
7.25843e-08
0.481161
1.43057
2.34184
3.19156
3.95922
4.62802
5.18548
5.62382
5.9399
6.13508
6.21469
6.18746
6.06477
5.85988
5.58711
5.26118
4.89651
4.50672
4.10422
3.69993
3.30306
2.92114
2.55994
2.22367
1.91503
1.63547
1.38532
1.16408
0.97051
0.802916
0.659246
0.53726
0.434637
0.349075
0.278354
0.220394
0.173284
0.135303
0.104922
0.0808109
0.0618211
0.0469775
0.0354609
0.0265911
0.0198092
0.0146608
0.0107802
0.00787557
0.00571666
0.00412306
0.00295478
0.00210412
0.0014889
0.00104693
0.000731546
0.000507976
0.000350534
0.000240387
0.00016383
0.000110964
7.46943e-05
4.99703e-05
3.32249e-05
2.19555e-05
1.44196e-05
9.41219e-06
6.10563e-06
3.93556e-06
2.51963e-06
1.60042e-06
1.00547e-06
6.1964e-07
3.65769e-07
1.91442e-07
5.94031e-08
0.370104
1.10055
1.80214
2.45716
3.04998
3.56777
4.00091
4.34328
4.59226
4.7486
4.8161
4.80118
4.71228
4.55936
4.35325
4.10515
3.8261
3.5266
3.21625
2.90356
2.59576
2.2988
2.0173
1.75464
1.51307
1.29382
1.09729
0.923144
0.770534
0.638189
0.524564
0.427947
0.346555
0.278604
0.222369
0.176226
0.138678
0.108372
0.0841066
0.0648289
0.0496316
0.0377418
0.0285089
0.0213921
0.0159463
0.011809
0.00868824
0.00635084
0.00461236
0.0033283
0.00238638
0.00170015
0.00120358
0.000846672
0.000591855
0.000411135
0.000283812
0.000194699
0.000132737
8.99327e-05
6.05552e-05
4.05227e-05
2.69503e-05
1.78136e-05
1.17021e-05
7.64003e-06
4.95706e-06
3.1958e-06
2.04638e-06
1.30002e-06
8.16872e-07
5.03453e-07
2.97194e-07
1.55574e-07
4.82908e-08
0.283468
0.843042
1.38086
1.88353
2.33921
2.73814
3.07294
3.33881
3.53363
3.65777
3.71394
3.70682
3.64268
3.52897
3.37384
3.18579
2.97322
2.74417
2.50605
2.26544
2.02798
1.79833
1.58015
1.37615
1.18816
1.01722
0.863723
0.727482
0.607896
0.504031
0.414726
0.338684
0.274538
0.220917
0.176488
0.139989
0.110256
0.086232
0.0669766
0.0516644
0.0395822
0.030121
0.0227678
0.0170953
0.0127512
0.00944858
0.00695562
0.00508715
0.00369655
0.00266879
0.00191445
0.00136456
0.000966436
0.000680137
0.000475633
0.000330528
0.000228252
0.000156638
0.000106824
7.23985e-05
4.87631e-05
3.26406e-05
2.17139e-05
1.43559e-05
9.43284e-06
6.15978e-06
3.99742e-06
2.57763e-06
1.65083e-06
1.04887e-06
6.59134e-07
4.0628e-07
2.39861e-07
1.25563e-07
3.89632e-08
0.216161
0.64295
1.05339
1.43738
1.786
2.09184
2.34926
2.55457
2.70603
2.8038
2.8498
2.84744
2.80137
2.71713
2.60084
2.45891
2.29772
2.12339
1.94159
1.75738
1.57515
1.39851
1.23035
1.0728
0.927341
0.794846
0.675665
0.569715
0.476575
0.395559
0.325804
0.266327
0.216091
0.174046
0.139167
0.110481
0.0870877
0.0681667
0.0529861
0.040903
0.0313599
0.0238805
0.0180628
0.0135712
0.0101289
0.00750989
0.00553158
0.00404785
0.00294289
0.00212574
0.00152562
0.00108792
0.000770846
0.000542717
0.000379684
0.000263951
0.000182342
0.000125176
8.53948e-05
5.78932e-05
3.90046e-05
2.61157e-05
1.73777e-05
1.14918e-05
7.55263e-06
4.93302e-06
3.20191e-06
2.06503e-06
1.32275e-06
8.40564e-07
5.28287e-07
3.25673e-07
1.92308e-07
1.0068e-07
3.1214e-08
0.164093
0.488137
0.799929
1.0919
1.35734
1.59064
1.78754
1.94519
2.06219
2.1386
2.17576
2.17615
2.1432
2.08103
1.99422
1.88757
1.7659
1.63385
1.49573
1.35544
1.21632
1.08119
0.952284
0.831293
0.71939
0.617288
0.525297
0.443395
0.371289
0.308481
0.25433
0.208098
0.169001
0.13624
0.109032
0.0866303
0.0683423
0.0535359
0.0416451
0.0321716
0.024683
0.0188089
0.014236
0.0107027
0.00799284
0.00592961
0.00437004
0.00319959
0.00232738
0.00168198
0.00120771
0.000861607
0.000610759
0.000430185
0.000301076
0.000209383
0.000144697
9.93668e-05
6.78097e-05
4.59854e-05
3.09908e-05
2.07556e-05
1.38145e-05
9.13766e-06
6.00674e-06
3.92411e-06
2.54753e-06
1.64326e-06
1.05273e-06
6.69086e-07
4.20593e-07
2.59321e-07
1.53124e-07
8.01777e-08
2.48731e-08
0.123995
0.368892
0.604645
0.825594
1.02671
1.2038
1.35361
1.47398
1.56381
1.62308
1.65273
1.65458
1.63112
1.58542
1.52088
1.4411
1.34968
1.25014
1.14574
1.03943
0.933788
0.830968
0.732701
0.640304
0.554705
0.476478
0.405891
0.342954
0.287466
0.239069
0.197288
0.161574
0.131335
0.105967
0.0848754
0.067492
0.0532862
0.0417736
0.0325193
0.0251397
0.0193012
0.0147176
0.0111466
0.00838527
0.00626589
0.00465111
0.0034297
0.00251244
0.00182848
0.00132207
0.000949733
0.000677864
0.000480717
0.00033873
0.000237162
0.000164995
0.000114063
7.83556e-05
5.34882e-05
3.62841e-05
2.44596e-05
1.63858e-05
1.09087e-05
7.21729e-06
4.74534e-06
3.10066e-06
2.01332e-06
1.29887e-06
8.32231e-07
5.28992e-07
3.32567e-07
2.05073e-07
1.21101e-07
6.33951e-08
1.96858e-08
0.0932548
0.277466
0.454877
0.621275
0.772911
0.906638
1.02002
1.11142
1.17997
1.22562
1.24902
1.2515
1.23488
1.20142
1.15364
1.09422
1.02586
0.95119
0.87267
0.792534
0.712736
0.634922
0.560423
0.490257
0.425151
0.365562
0.311715
0.263636
0.221191
0.184123
0.152083
0.124662
0.101418
0.0818976
0.0656504
0.0522458
0.0412807
0.0323859
0.0252295
0.0195178
0.014995
0.0114415
0.00867083
0.00652679
0.00488
0.00362442
0.00267407
0.00195993
0.00142709
0.00103235
0.000741949
0.000529795
0.000375871
0.000264959
0.000185582
0.000129158
8.93194e-05
6.13784e-05
4.19121e-05
2.84396e-05
1.91769e-05
1.28501e-05
8.55694e-06
5.66259e-06
3.72389e-06
2.43367e-06
1.5805e-06
1.01982e-06
6.53532e-07
4.15448e-07
2.61178e-07
1.61058e-07
9.51239e-08
4.97879e-08
1.54698e-08
0.0698005
0.207699
0.340562
0.465265
0.579023
0.679493
0.764856
0.833864
0.885862
0.920775
0.939067
0.941684
0.929966
0.905567
0.87035
0.826297
0.775419
0.719679
0.660922
0.600827
0.540869
0.482298
0.426129
0.373143
0.323904
0.278773
0.237935
0.201423
0.169148
0.140928
0.116506
0.095581
0.0778245
0.062896
0.0504582
0.0401864
0.0317759
0.0249472
0.0194482
0.0150555
0.0115744
0.00883714
0.00670126
0.00504723
0.00377592
0.00280596
0.00207133
0.00151893
0.00110654
0.000800839
0.000575825
0.000411352
0.000291961
0.000205891
0.000144265
0.000100439
6.94826e-05
4.77624e-05
3.26244e-05
2.21439e-05
1.49356e-05
1.00106e-05
6.66766e-06
4.41329e-06
2.90291e-06
1.89746e-06
1.23246e-06
7.95373e-07
5.09782e-07
3.2412e-07
2.03788e-07
1.25659e-07
7.42297e-08
3.88732e-08
1.20628e-08
0.0519915
0.154719
0.253732
0.346725
0.431637
0.506732
0.570655
0.622471
0.661678
0.688201
0.702364
0.704847
0.696625
0.678907
0.653062
0.620553
0.582868
0.541465
0.49772
0.452889
0.408078
0.364229
0.322113
0.282324
0.245296
0.211312
0.180519
0.152953
0.128558
0.107201
0.0886982
0.0728277
0.0593458
0.0479996
0.038537
0.0307148
0.0243042
0.0190946
0.0148958
0.011539
0.0088767
0.00678163
0.00514565
0.00387784
0.00290271
0.00215824
0.00159402
0.0011695
0.000852392
0.000617194
0.000443978
0.0003173
0.000225299
0.000158943
0.000111411
7.75934e-05
5.36962e-05
3.69226e-05
2.52278e-05
1.71282e-05
1.15557e-05
7.74711e-06
5.16119e-06
3.41686e-06
2.2479e-06
1.46957e-06
9.54677e-07
6.16185e-07
3.94972e-07
2.51151e-07
1.57941e-07
9.73861e-08
5.75437e-08
3.01537e-08
9.35719e-09
0.0385355
0.114685
0.188106
0.257104
0.320162
0.375999
0.423612
0.462303
0.491691
0.511708
0.522578
0.52479
0.519049
0.506237
0.487354
0.463476
0.435699
0.405099
0.372697
0.339426
0.306114
0.273465
0.242059
0.212348
0.18466
0.159215
0.136131
0.115442
0.0971108
0.081045
0.067111
0.0551467
0.0449727
0.036402
0.0292474
0.0233276
0.0184718
0.0145223
0.0113364
0.00878743
0.00676419
0.00517086
0.00392576
0.0029602
0.00221704
0.0016493
0.00121875
0.000894621
0.000652356
0.000472569
0.000340091
0.000243157
0.000172724
0.000121899
8.54763e-05
5.95517e-05
4.12246e-05
2.83557e-05
1.938e-05
1.31615e-05
8.88182e-06
5.95592e-06
3.96875e-06
2.62796e-06
1.72919e-06
1.13065e-06
7.34602e-07
4.74195e-07
3.03965e-07
1.93274e-07
1.2155e-07
7.49881e-08
4.43086e-08
2.32025e-08
7.21464e-09
0.0284195
0.0845848
0.138755
0.18969
0.236279
0.27758
0.312854
0.341584
0.363483
0.378491
0.386766
0.388655
0.384667
0.375441
0.361708
0.344252
0.323877
0.301375
0.277498
0.252937
0.228305
0.204127
0.180837
0.158774
0.138188
0.119245
0.102041
0.0866032
0.0729098
0.0608959
0.0504653
0.0415001
0.0338691
0.0274346
0.0220582
0.0176058
0.0139505
0.010975
0.00857289
0.00664943
0.00512157
0.00391748
0.0029759
0.00224521
0.00168245
0.00125226
0.000925824
0.000679927
0.000496032
0.000359489
0.000258823
0.000185129
0.000131556
9.28803e-05
6.51514e-05
4.54067e-05
3.14429e-05
2.16341e-05
1.47903e-05
1.00472e-05
6.78187e-06
4.5488e-06
3.03173e-06
2.0079e-06
1.32144e-06
8.64204e-07
5.61569e-07
3.62508e-07
2.32393e-07
1.47788e-07
9.29386e-08
5.73428e-08
3.38856e-08
1.77452e-08
5.49906e-09
0.0208533
0.0620696
0.101834
0.139242
0.173484
0.203872
0.229865
0.251079
0.267302
0.278485
0.284734
0.286297
0.283541
0.276927
0.266984
0.254284
0.239413
0.222949
0.205445
0.187409
0.169293
0.151486
0.13431
0.118018
0.102798
0.0887773
0.0760284
0.0645765
0.0544078
0.045477
0.0377156
0.0310382
0.0253492
0.0205478
0.0165324
0.0132043
0.0104698
0.00824196
0.00644206
0.00499974
0.00385322
0.00294902
0.00224146
0.00169202
0.00126858
0.000944696
0.000698779
0.000513427
0.000374736
0.000271701
0.000195701
0.000140036
9.95505e-05
7.031e-05
4.93367e-05
3.43963e-05
2.38259e-05
1.63982e-05
1.12139e-05
7.61967e-06
5.14453e-06
3.45139e-06
2.30079e-06
1.52408e-06
1.00321e-06
6.56194e-07
4.26461e-07
2.75306e-07
1.76503e-07
1.12285e-07
7.06306e-08
4.35403e-08
2.57369e-08
1.34897e-08
4.16436e-09
0.0152235
0.0453151
0.0743545
0.101686
0.126723
0.148963
0.168012