/*--------------------------------*- C++ -*----------------------------------*\
  =========                 |
  \\      /  F ield         | OpenFOAM: The Open Source CFD Toolbox
   \\    /   O peration     | Website:  https://openfoam.org
    \\  /    A nd           | Version:  10
     \\/     M anipulation  |
\*---------------------------------------------------------------------------*/
FoamFile
{
    format      ascii;
    class       volScalarField;
    location    "338";
    object      T;
}
// * * * * * * * * * * * * * * * * * * * * * * * * * * * * * * * * * * * * * //

dimensions      [0 0 0 1 0 0 0];

internalField   nonuniform List<scalar> 
11250
(
249.843
167.558
139.362
126.948
120.176
115.881
112.878
110.639
108.896
107.496
106.347
105.388
104.579
103.892
103.304
102.8
102.367
101.996
101.677
101.405
101.172
100.973
100.805
100.663
100.543
100.443
100.359
100.29
100.233
100.186
100.148
100.117
100.092
100.072
100.056
100.043
100.033
100.025
100.019
100.015
100.011
100.008
100.006
100.005
100.003
100.002
100.002
100.001
100.001
100.001
100
100
100
100
100
100
100
100
100
100
100
100
100
100
100
100
100
100
100
100
100
100
100
100
100
331.501
248.591
202.315
175.217
158.067
146.372
137.894
131.449
126.373
122.267
118.88
116.045
113.648
111.606
109.858
108.358
107.069
105.962
105.011
104.197
103.501
102.909
102.406
101.981
101.624
101.324
101.075
100.868
100.697
100.557
100.443
100.35
100.275
100.215
100.167
100.13
100.1
100.076
100.058
100.044
100.033
100.025
100.018
100.014
100.01
100.007
100.005
100.004
100.003
100.002
100.001
100.001
100.001
100
100
100
100
100
100
100
100
100
100
100
100
100
100
100
100
100
100
100
100
100
100
359.076
293.009
246.12
213.579
190.555
173.709
160.945
150.967
142.962
136.407
130.951
126.357
122.453
119.117
116.254
113.792
111.673
109.849
108.283
106.94
105.791
104.813
103.982
103.28
102.688
102.193
101.78
101.438
101.155
100.923
100.734
100.58
100.456
100.357
100.278
100.215
100.165
100.126
100.096
100.073
100.055
100.041
100.03
100.022
100.016
100.012
100.009
100.006
100.005
100.003
100.002
100.002
100.001
100.001
100.001
100
100
100
100
100
100
100
100
100
100
100
100
100
100
100
100
100
100
100
100
370.879
318.279
275.629
242.495
216.951
197.066
181.327
168.641
158.241
149.591
142.312
136.13
130.846
126.308
122.399
119.027
116.119
113.611
111.454
109.602
108.017
106.665
105.517
104.545
103.727
103.041
102.469
101.994
101.602
101.281
101.018
100.805
100.633
100.495
100.385
100.298
100.229
100.175
100.133
100.101
100.076
100.057
100.042
100.031
100.023
100.017
100.012
100.009
100.006
100.004
100.003
100.002
100.002
100.001
100.001
100.001
100
100
100
100
100
100
100
100
100
100
100
100
100
100
100
100
100
100
100
377.055
333.644
295.69
263.917
237.807
216.421
198.819
184.207
171.961
161.606
152.783
145.22
138.706
133.081
128.213
124
120.355
117.206
114.491
112.157
110.157
108.449
106.996
105.766
104.73
103.86
103.135
102.533
102.036
101.628
101.294
101.024
100.805
100.63
100.49
100.379
100.292
100.223
100.17
100.128
100.097
100.072
100.054
100.04
100.029
100.021
100.015
100.011
100.008
100.006
100.004
100.003
100.002
100.001
100.001
100.001
100
100
100
100
100
100
100
100
100
100
100
100
100
100
100
100
100
100
100
380.77
343.605
309.659
279.8
254.093
232.174
213.527
197.633
184.034
172.347
162.262
153.53
145.951
139.365
133.638
128.661
124.341
120.599
117.366
114.581
112.191
110.147
108.407
106.933
105.689
104.645
103.774
103.05
102.452
101.961
101.56
101.234
100.971
100.76
100.591
100.457
100.352
100.269
100.205
100.155
100.116
100.087
100.065
100.048
100.035
100.026
100.019
100.013
100.01
100.007
100.005
100.003
100.002
100.002
100.001
100.001
100.001
100
100
100
100
100
100
100
100
100
100
100
100
100
100
100
100
100
100
383.215
350.411
319.648
291.681
266.777
244.874
225.731
209.041
194.492
181.798
170.71
161.015
152.534
145.116
138.633
132.975
128.046
123.765
120.057
116.856
114.104
111.748
109.74
108.036
106.598
105.39
104.38
103.542
102.848
102.278
101.813
101.434
101.129
100.883
100.688
100.532
100.409
100.313
100.238
100.18
100.136
100.101
100.075
100.056
100.041
100.03
100.022
100.016
100.011
100.008
100.006
100.004
100.003
100.002
100.001
100.001
100.001
100
100
100
100
100
100
100
100
100
100
100
100
100
100
100
100
100
100
384.918
355.254
326.968
300.67
276.677
255.069
235.773
218.628
203.439
190.006
178.14
167.668
158.438
150.313
143.176
136.919
131.451
126.685
122.548
118.969
115.886
113.243
110.987
109.07
107.451
106.09
104.951
104.005
103.222
102.578
102.052
101.624
101.278
101.001
100.779
100.603
100.464
100.355
100.27
100.204
100.154
100.115
100.085
100.063
100.046
100.034
100.025
100.018
100.013
100.009
100.006
100.005
100.003
100.002
100.002
100.001
100.001
100
100
100
100
100
100
100
100
100
100
100
100
100
100
100
100
100
100
386.153
358.806
332.443
307.552
284.438
263.246
243.995
226.623
211.022
197.061
184.603
173.516
163.673
154.957
147.261
140.487
134.545
129.351
124.83
120.911
117.529
114.624
112.142
110.03
108.244
106.741
105.484
104.437
103.571
102.859
102.276
101.802
101.419
101.111
100.865
100.67
100.515
100.394
100.3
100.227
100.171
100.128
100.095
100.07
100.052
100.038
100.027
100.02
100.014
100.01
100.007
100.005
100.004
100.002
100.002
100.001
100.001
100.001
100
100
100
100
100
100
100
100
100
100
100
100
100
100
100
100
100
387.071
361.47
336.607
312.875
290.553
269.806
250.707
233.254
217.402
203.072
190.173
178.605
168.267
159.063
150.898
143.681
137.328
131.76
126.9
122.679
119.029
115.889
113.201
110.913
108.975
107.343
105.976
104.838
103.895
103.119
102.484
101.967
101.549
101.213
100.945
100.732
100.563
100.431
100.328
100.248
100.187
100.14
100.104
100.077
100.057
100.041
100.03
100.022
100.016
100.011
100.008
100.006
100.004
100.003
100.002
100.001
100.001
100.001
100
100
100
100
100
100
100
100
100
100
100
100
100
100
100
100
100
387.768
363.504
339.816
317.03
295.393
275.076
256.176
238.732
222.738
208.158
194.934
182.994
172.264
162.66
154.104
146.513
139.809
133.916
128.761
124.273
120.386
117.036
114.166
111.718
109.643
107.894
106.428
105.206
104.193
103.359
102.676
102.12
101.67
101.308
101.019
100.789
100.608
100.465
100.354
100.268
100.202
100.151
100.112
100.083
100.061
100.045
100.032
100.023
100.017
100.012
100.009
100.006
100.004
100.003
100.002
100.001
100.001
100.001
100
100
100
100
100
100
100
100
100
100
100
100
100
100
100
100
100
388.305
365.075
342.314
320.296
299.241
279.314
260.628
243.242
227.181
212.435
198.975
186.753
175.711
165.785
156.906
149.002
142
135.829
130.418
125.698
121.603
118.068
115.035
112.446
110.248
108.394
106.838
105.541
104.465
103.578
102.851
102.26
101.781
101.395
101.087
100.842
100.649
100.497
100.378
100.286
100.216
100.161
100.12
100.089
100.065
100.048
100.035
100.025
100.018
100.013
100.009
100.006
100.005
100.003
100.002
100.002
100.001
100.001
100
100
100
100
100
100
100
100
100
100
100
100
100
100
100
100
100
388.722
366.301
344.274
322.877
302.309
282.728
264.248
246.947
230.865
216.014
202.385
189.948
178.663
168.478
159.335
151.171
143.919
137.512
131.882
126.961
122.685
118.988
115.812
113.098
110.791
108.844
107.208
105.843
104.711
103.776
103.011
102.387
101.881
101.475
101.149
100.89
100.686
100.526
100.4
100.303
100.228
100.171
100.127
100.094
100.069
100.051
100.037
100.027
100.019
100.014
100.01
100.007
100.005
100.003
100.002
100.002
100.001
100.001
100.001
100
100
100
100
100
100
100
100
100
100
100
100
100
100
100
100
389.05
367.265
345.821
324.926
304.762
285.478
267.19
249.983
233.908
218.994
205.246
192.648
181.174
170.783
161.426
153.047
145.586
138.98
133.164
128.071
123.639
119.802
116.501
113.677
111.275
109.245
107.539
106.114
104.931
103.955
103.154
102.501
101.972
101.546
101.205
100.934
100.72
100.552
100.42
100.318
100.24
100.179
100.133
100.099
100.073
100.053
100.039
100.028
100.02
100.014
100.01
100.007
100.005
100.004
100.002
100.002
100.001
100.001
100.001
100
100
100
100
100
100
100
100
100
100
100
100
100
100
100
100
389.308
368.026
347.047
326.558
306.727
287.695
269.578
252.464
236.414
221.466
207.634
194.917
183.296
172.742
163.212
154.657
147.024
140.251
134.278
129.039
124.473
120.516
117.107
114.188
111.703
109.601
107.833
106.355
105.127
104.113
103.282
102.603
102.053
101.61
101.255
100.973
100.75
100.575
100.438
100.332
100.25
100.187
100.139
100.103
100.076
100.055
100.04
100.029
100.021
100.015
100.011
100.007
100.005
100.004
100.003
100.002
100.001
100.001
100.001
100
100
100
100
100
100
100
100
100
100
100
100
100
100
100
100
389.512
368.629
348.021
327.86
308.302
289.482
271.515
254.489
238.472
223.507
209.618
196.813
185.079
174.396
164.727
156.03
148.254
141.344
135.238
129.877
125.198
121.137
117.636
114.635
112.078
109.913
108.091
106.567
105.301
104.254
103.395
102.694
102.125
101.667
101.3
101.008
100.777
100.596
100.454
100.344
100.259
100.194
100.144
100.107
100.079
100.057
100.042
100.03
100.022
100.016
100.011
100.008
100.005
100.004
100.003
100.002
100.001
100.001
100.001
100
100
100
100
100
100
100
100
100
100
100
100
100
100
100
100
389.674
369.108
348.797
328.9
309.565
290.922
273.082
256.137
240.155
225.186
211.26
198.389
186.569
175.785
166.006
157.193
149.301
142.276
136.061
130.597
125.822
121.674
118.094
115.023
112.405
110.186
108.317
106.753
105.453
104.377
103.494
102.774
102.189
101.717
101.34
101.039
100.801
100.614
100.468
100.355
100.267
100.2
100.149
100.11
100.081
100.059
100.043
100.031
100.022
100.016
100.011
100.008
100.006
100.004
100.003
100.002
100.001
100.001
100.001
100
100
100
100
100
100
100
100
100
100
100
100
100
100
100
100
389.803
369.489
349.415
329.73
310.577
292.08
274.349
257.474
241.528
226.562
212.611
199.693
187.808
176.944
167.077
158.172
150.185
143.066
136.761
131.211
126.356
122.135
118.489
115.358
112.687
110.422
108.513
106.915
105.585
104.485
103.581
102.843
102.244
101.761
101.374
101.066
100.822
100.63
100.481
100.364
100.274
100.205
100.153
100.113
100.083
100.061
100.044
100.032
100.023
100.016
100.012
100.008
100.006
100.004
100.003
100.002
100.001
100.001
100.001
100
100
100
100
100
100
100
100
100
100
100
100
100
100
100
100
389.905
369.792
349.907
330.394
311.387
293.01
275.37
258.557
242.644
227.685
213.719
200.766
188.831
177.906
167.97
158.99
150.927
143.732
137.352
131.731
126.809
122.527
118.825
115.644
112.928
110.624
108.682
107.054
105.699
104.578
103.657
102.904
102.293
101.8
101.405
101.09
100.841
100.645
100.491
100.373
100.281
100.21
100.157
100.116
100.085
100.062
100.045
100.033
100.024
100.017
100.012
100.008
100.006
100.004
100.003
100.002
100.001
100.001
100.001
100
100
100
100
100
100
100
100
100
100
100
100
100
100
100
100
389.987
370.034
350.299
330.923
312.035
293.757
276.192
259.431
243.548
228.599
214.624
201.646
189.674
178.701
168.709
159.67
151.545
144.288
137.848
132.169
127.192
122.859
119.11
115.887
113.134
110.797
108.826
107.173
105.797
104.658
103.721
102.956
102.334
101.833
101.431
101.11
100.857
100.657
100.501
100.38
100.286
100.214
100.16
100.118
100.087
100.064
100.046
100.033
100.024
100.017
100.012
100.009
100.006
100.004
100.003
100.002
100.001
100.001
100.001
100
100
100
100
100
100
100
100
100
100
100
100
100
100
100
100
390.051
370.225
350.611
331.344
312.553
294.354
276.851
260.135
244.279
229.34
215.359
202.364
190.363
179.353
169.319
160.233
152.058
144.751
138.261
132.534
127.513
123.138
119.35
116.093
113.308
110.943
108.948
107.275
105.88
104.726
103.777
103
102.37
101.861
101.453
101.128
100.87
100.668
100.509
100.386
100.291
100.218
100.162
100.12
100.088
100.065
100.047
100.034
100.024
100.017
100.012
100.009
100.006
100.004
100.003
100.002
100.001
100.001
100.001
100
100
100
100
100
100
100
100
100
100
100
100
100
100
100
100
390.102
370.377
350.858
331.679
312.965
294.831
277.379
260.7
244.866
229.937
215.955
202.946
190.924
179.886
169.818
160.695
152.481
145.134
138.604
132.838
127.78
123.37
119.551
116.265
113.454
111.067
109.051
107.36
105.951
104.784
103.823
103.038
102.4
101.885
101.472
101.143
100.882
100.677
100.516
100.391
100.295
100.221
100.165
100.122
100.09
100.066
100.048
100.035
100.025
100.018
100.013
100.009
100.006
100.004
100.003
100.002
100.001
100.001
100.001
100
100
100
100
100
100
100
100
100
100
100
100
100
100
100
100
390.143
370.497
351.054
331.945
313.292
295.21
277.8
261.151
245.337
230.417
216.434
203.417
191.379
180.319
170.225
161.072
152.827
145.448
138.886
133.089
128.001
123.563
119.718
116.408
113.576
111.169
109.137
107.432
106.01
104.832
103.863
103.07
102.426
101.906
101.488
101.155
100.892
100.684
100.522
100.396
100.298
100.224
100.167
100.123
100.091
100.066
100.048
100.035
100.025
100.018
100.013
100.009
100.006
100.004
100.003
100.002
100.001
100.001
100.001
100
100
100
100
100
100
100
100
100
100
100
100
100
100
100
100
390.175
370.592
351.209
332.155
313.552
295.511
278.134
261.51
245.713
230.801
216.819
203.796
191.746
180.669
170.555
161.379
153.109
145.704
139.117
133.295
128.182
123.722
119.856
116.526
113.677
111.255
109.209
107.491
106.059
104.873
103.896
103.097
102.447
101.923
101.502
101.166
100.9
100.691
100.527
100.4
100.301
100.226
100.168
100.125
100.092
100.067
100.049
100.035
100.025
100.018
100.013
100.009
100.006
100.004
100.003
100.002
100.001
100.001
100.001
100
100
100
100
100
100
100
100
100
100
100
100
100
100
100
100
390.2
370.667
351.332
332.321
313.756
295.749
278.4
261.796
246.012
231.107
217.127
204.099
192.04
180.951
170.821
161.627
153.338
145.912
139.305
133.462
128.331
123.852
119.969
116.624
113.76
111.325
109.268
107.541
106.1
104.906
103.923
103.119
102.465
101.937
101.513
101.175
100.907
100.696
100.531
100.403
100.304
100.228
100.17
100.126
100.093
100.068
100.049
100.036
100.026
100.018
100.013
100.009
100.006
100.005
100.003
100.002
100.001
100.001
100.001
100
100
100
100
100
100
100
100
100
100
100
100
100
100
100
100
390.22
370.726
351.427
332.452
313.918
295.937
278.609
262.021
246.249
231.35
217.371
204.341
192.275
181.176
171.034
161.826
153.522
146.08
139.457
133.598
128.451
123.958
120.061
116.703
113.828
111.383
109.316
107.581
106.134
104.934
103.946
103.137
102.48
101.949
101.522
101.182
100.913
100.701
100.535
100.405
100.306
100.229
100.171
100.126
100.093
100.068
100.05
100.036
100.026
100.018
100.013
100.009
100.007
100.005
100.003
100.002
100.001
100.001
100.001
100
100
100
100
100
100
100
100
100
100
100
100
100
100
100
100
390.235
370.772
351.503
332.554
314.044
296.084
278.773
262.199
246.436
231.542
217.565
204.532
192.462
181.356
171.204
161.985
153.669
146.215
139.579
133.708
128.548
124.043
120.135
116.767
113.883
111.43
109.356
107.614
106.161
104.957
103.964
103.152
102.492
101.958
101.53
101.188
100.918
100.704
100.537
100.408
100.307
100.23
100.172
100.127
100.094
100.069
100.05
100.036
100.026
100.019
100.013
100.009
100.007
100.005
100.003
100.002
100.001
100.001
100.001
100
100
100
100
100
100
100
100
100
100
100
100
100
100
100
100
390.247
370.807
351.561
332.633
314.143
296.199
278.902
262.338
246.582
231.693
217.717
204.684
192.61
181.498
171.339
162.112
153.786
146.323
139.676
133.795
128.626
124.112
120.195
116.819
113.928
111.468
109.388
107.641
106.184
104.975
103.979
103.164
102.502
101.966
101.536
101.193
100.921
100.707
100.54
100.409
100.309
100.231
100.173
100.128
100.094
100.069
100.05
100.036
100.026
100.019
100.013
100.009
100.007
100.005
100.003
100.002
100.002
100.001
100.001
100
100
100
100
100
100
100
100
100
100
100
100
100
100
100
100
390.257
370.835
351.607
332.696
314.22
296.289
279.002
262.447
246.697
231.812
217.837
204.802
192.726
181.61
171.446
162.212
153.879
146.408
139.754
133.865
128.688
124.167
120.243
116.861
113.964
111.498
109.414
107.663
106.202
104.99
103.992
103.174
102.51
101.973
101.541
101.197
100.925
100.71
100.542
100.411
100.31
100.232
100.173
100.128
100.094
100.069
100.05
100.036
100.026
100.019
100.013
100.009
100.007
100.005
100.003
100.002
100.002
100.001
100.001
100
100
100
100
100
100
100
100
100
100
100
100
100
100
100
100
390.264
370.857
351.642
332.744
314.279
296.359
279.08
262.532
246.786
231.904
217.93
204.895
192.817
181.698
171.529
162.291
153.953
146.476
139.815
133.92
128.738
124.21
120.281
116.894
113.992
111.523
109.434
107.68
106.216
105.002
104.001
103.182
102.516
101.978
101.546
101.201
100.927
100.712
100.543
100.412
100.311
100.233
100.174
100.129
100.095
100.069
100.05
100.037
100.026
100.019
100.013
100.009
100.007
100.005
100.003
100.002
100.002
100.001
100.001
100
100
100
100
100
100
100
100
100
100
100
100
100
100
100
100
390.27
370.873
351.669
332.781
314.325
296.412
279.141
262.597
246.855
231.975
218.002
204.967
192.888
181.766
171.595
162.353
154.01
146.529
139.863
133.964
128.776
124.245
120.312
116.92
114.015
111.542
109.451
107.694
106.227
105.011
104.009
103.189
102.521
101.982
101.549
101.203
100.929
100.713
100.545
100.413
100.312
100.234
100.174
100.129
100.095
100.07
100.051
100.037
100.026
100.019
100.013
100.009
100.007
100.005
100.003
100.002
100.002
100.001
100.001
100
100
100
100
100
100
100
100
100
100
100
100
100
100
100
100
390.274
370.886
351.69
332.809
314.361
296.454
279.187
262.647
246.909
232.03
218.058
205.023
192.942
181.819
171.645
162.4
154.055
146.57
139.901
133.998
128.807
124.272
120.335
116.941
114.032
111.557
109.464
107.705
106.237
105.019
104.015
103.194
102.525
101.985
101.551
101.205
100.931
100.715
100.545
100.414
100.312
100.234
100.174
100.129
100.095
100.07
100.051
100.037
100.026
100.019
100.013
100.009
100.007
100.005
100.003
100.002
100.002
100.001
100.001
100
100
100
100
100
100
100
100
100
100
100
100
100
100
100
100
390.277
370.896
351.706
332.831
314.388
296.485
279.223
262.686
246.95
232.073
218.101
205.066
192.985
181.86
171.685
162.437
154.089
146.602
139.93
134.024
128.831
124.293
120.354
116.957
114.046
111.569
109.474
107.713
106.244
105.025
104.02
103.198
102.529
101.988
101.554
101.207
100.932
100.716
100.546
100.414
100.313
100.234
100.175
100.129
100.095
100.07
100.051
100.037
100.026
100.019
100.013
100.009
100.007
100.005
100.003
100.002
100.002
100.001
100.001
100
100
100
100
100
100
100
100
100
100
100
100
100
100
100
100
390.28
370.903
351.718
332.847
314.408
296.51
279.25
262.716
246.981
232.105
218.134
205.099
193.017
181.892
171.715
162.466
154.116
146.626
139.953
134.045
128.849
124.309
120.368
116.969
114.057
111.578
109.482
107.72
106.249
105.029
104.024
103.201
102.531
101.99
101.555
101.208
100.933
100.717
100.547
100.415
100.313
100.235
100.175
100.13
100.095
100.07
100.051
100.037
100.026
100.019
100.013
100.01
100.007
100.005
100.003
100.002
100.002
100.001
100.001
100
100
100
100
100
100
100
100
100
100
100
100
100
100
100
100
390.282
370.909
351.727
332.86
314.424
296.528
279.27
262.738
247.005
232.13
218.159
205.124
193.042
181.916
171.738
162.488
154.136
146.645
139.97
134.06
128.863
124.322
120.379
116.979
114.066
111.585
109.488
107.725
106.254
105.033
104.027
103.203
102.533
101.992
101.556
101.209
100.934
100.717
100.547
100.415
100.313
100.235
100.175
100.13
100.096
100.07
100.051
100.037
100.027
100.019
100.013
100.01
100.007
100.005
100.003
100.002
100.002
100.001
100.001
100
100
100
100
100
100
100
100
100
100
100
100
100
100
100
100
390.283
370.913
351.734
332.869
314.436
296.542
279.286
262.755
247.023
232.149
218.178
205.143
193.061
181.934
171.755
162.504
154.152
146.66
139.983
134.073
128.874
124.331
120.388
116.986
114.072
111.591
109.492
107.729
106.257
105.036
104.029
103.205
102.535
101.993
101.557
101.21
100.935
100.718
100.548
100.416
100.314
100.235
100.175
100.13
100.096
100.07
100.051
100.037
100.027
100.019
100.013
100.01
100.007
100.005
100.003
100.002
100.002
100.001
100.001
100
100
100
100
100
100
100
100
100
100
100
100
100
100
100
100
390.284
370.916
351.739
332.877
314.445
296.552
279.298
262.768
247.036
232.163
218.193
205.158
193.075
181.948
171.769
162.517
154.164
146.671
139.993
134.082
128.882
124.338
120.394
116.992
114.077
111.595
109.496
107.732
106.259
105.038
104.031
103.207
102.536
101.994
101.558
101.211
100.935
100.718
100.548
100.416
100.314
100.235
100.175
100.13
100.096
100.07
100.051
100.037
100.027
100.019
100.013
100.01
100.007
100.005
100.003
100.002
100.002
100.001
100.001
100
100
100
100
100
100
100
100
100
100
100
100
100
100
100
100
390.285
370.919
351.743
332.882
314.451
296.56
279.306
262.777
247.046
232.173
218.203
205.168
193.085
181.958
171.779
162.526
154.173
146.679
140.001
134.089
128.888
124.344
120.399
116.996
114.081
111.598
109.499
107.734
106.261
105.039
104.032
103.208
102.537
101.994
101.559
101.211
100.935
100.718
100.548
100.416
100.314
100.235
100.175
100.13
100.096
100.07
100.051
100.037
100.027
100.019
100.013
100.01
100.007
100.005
100.003
100.002
100.002
100.001
100.001
100
100
100
100
100
100
100
100
100
100
100
100
100
100
100
100
390.285
370.92
351.746
332.886
314.456
296.566
279.313
262.784
247.054
232.181
218.211
205.177
193.093
181.966
171.786
162.534
154.179
146.685
140.007
134.094
128.893
124.348
120.403
117
114.083
111.601
109.501
107.736
106.263
105.041
104.033
103.209
102.537
101.995
101.559
101.212
100.936
100.719
100.548
100.416
100.314
100.235
100.175
100.13
100.096
100.07
100.051
100.037
100.027
100.019
100.013
100.01
100.007
100.005
100.003
100.002
100.002
100.001
100.001
100
100
100
100
100
100
100
100
100
100
100
100
100
100
100
100
390.286
370.922
351.748
332.889
314.46
296.57
279.318
262.789
247.059
232.187
218.217
205.182
193.099
181.972
171.792
162.539
154.184
146.69
140.011
134.098
128.896
124.351
120.405
117.002
114.086
111.603
109.502
107.738
106.264
105.042
104.034
103.209
102.538
101.995
101.56
101.212
100.936
100.719
100.549
100.416
100.314
100.235
100.176
100.13
100.096
100.07
100.051
100.037
100.027
100.019
100.014
100.01
100.007
100.005
100.003
100.002
100.002
100.001
100.001
100
100
100
100
100
100
100
100
100
100
100
100
100
100
100
100
390.286
370.923
351.75
332.891
314.462
296.573
279.321
262.793
247.063
232.191
218.222
205.187
193.104
181.976
171.796
162.543
154.188
146.693
140.014
134.1
128.899
124.354
120.407
117.004
114.087
111.604
109.504
107.739
106.265
105.042
104.035
103.21
102.538
101.996
101.56
101.212
100.936
100.719
100.549
100.416
100.314
100.236
100.176
100.13
100.096
100.07
100.051
100.037
100.027
100.019
100.014
100.01
100.007
100.005
100.003
100.002
100.002
100.001
100.001
100
100
100
100
100
100
100
100
100
100
100
100
100
100
100
100
390.286
370.923
351.751
332.892
314.464
296.575
279.324
262.796
247.066
232.194
218.225
205.19
193.107
181.979
171.799
162.546
154.191
146.696
140.016
134.103
128.901
124.355
120.409
117.005
114.088
111.605
109.504
107.739
106.265
105.043
104.035
103.21
102.539
101.996
101.56
101.212
100.936
100.719
100.549
100.416
100.314
100.236
100.176
100.13
100.096
100.07
100.051
100.037
100.027
100.019
100.014
100.01
100.007
100.005
100.003
100.002
100.002
100.001
100.001
100
100
100
100
100
100
100
100
100
100
100
100
100
100
100
100
390.287
370.924
351.752
332.894
314.466
296.577
279.326
262.798
247.069
232.196
218.227
205.192
193.109
181.981
171.801
162.548
154.192
146.697
140.018
134.104
128.902
124.357
120.41
117.006
114.089
111.606
109.505
107.74
106.266
105.043
104.036
103.21
102.539
101.996
101.56
101.212
100.936
100.719
100.549
100.416
100.314
100.236
100.176
100.13
100.096
100.07
100.051
100.037
100.027
100.019
100.014
100.01
100.007
100.005
100.003
100.002
100.002
100.001
100.001
100
100
100
100
100
100
100
100
100
100
100
100
100
100
100
100
390.287
370.924
351.753
332.894
314.467
296.578
279.327
262.8
247.07
232.198
218.229
205.194
193.111
181.983
171.802
162.549
154.194
146.699
140.019
134.105
128.903
124.358
120.411
117.007
114.09
111.606
109.506
107.74
106.266
105.044
104.036
103.21
102.539
101.996
101.56
101.212
100.936
100.719
100.549
100.416
100.314
100.236
100.176
100.13
100.096
100.07
100.051
100.037
100.027
100.019
100.014
100.01
100.007
100.005
100.003
100.002
100.002
100.001
100.001
100
100
100
100
100
100
100
100
100
100
100
100
100
100
100
100
390.287
370.925
351.753
332.895
314.467
296.579
279.328
262.801
247.071
232.199
218.23
205.195
193.112
181.984
171.804
162.55
154.195
146.7
140.02
134.106
128.904
124.358
120.412
117.007
114.09
111.607
109.506
107.741
106.266
105.044
104.036
103.211
102.539
101.996
101.56
101.212
100.936
100.719
100.549
100.417
100.314
100.236
100.176
100.13
100.096
100.07
100.051
100.037
100.027
100.019
100.014
100.01
100.007
100.005
100.003
100.002
100.002
100.001
100.001
100
100
100
100
100
100
100
100
100
100
100
100
100
100
100
100
390.287
370.925
351.753
332.895
314.468
296.58
279.329
262.802
247.072
232.2
218.231
205.196
193.113
181.985
171.804
162.551
154.196
146.701
140.021
134.107
128.905
124.359
120.412
117.008
114.091
111.607
109.506
107.741
106.267
105.044
104.036
103.211
102.539
101.996
101.56
101.212
100.937
100.719
100.549
100.417
100.314
100.236
100.176
100.13
100.096
100.07
100.051
100.037
100.027
100.019
100.014
100.01
100.007
100.005
100.003
100.002
100.002
100.001
100.001
100
100
100
100
100
100
100
100
100
100
100
100
100
100
100
100
390.287
370.925
351.753
332.896
314.468
296.58
279.329
262.802
247.073
232.201
218.232
205.197
193.114
181.986
171.805
162.552
154.196
146.701
140.021
134.107
128.905
124.359
120.412
117.008
114.091
111.607
109.506
107.741
106.267
105.044
104.036
103.211
102.539
101.996
101.56
101.212
100.937
100.719
100.549
100.417
100.314
100.236
100.176
100.13
100.096
100.07
100.051
100.037
100.027
100.019
100.014
100.01
100.007
100.005
100.003
100.002
100.002
100.001
100.001
100
100
100
100
100
100
100
100
100
100
100
100
100
100
100
100
390.287
370.925
351.754
332.896
314.469
296.58
279.329
262.803
247.073
232.201
218.232
205.197
193.114
181.986
171.805
162.552
154.197
146.701
140.022
134.107
128.905
124.359
120.413
117.008
114.091
111.607
109.506
107.741
106.267
105.044
104.036
103.211
102.539
101.996
101.56
101.212
100.937
100.719
100.549
100.417
100.314
100.236
100.176
100.13
100.096
100.07
100.051
100.037
100.027
100.019
100.014
100.01
100.007
100.005
100.003
100.002
100.002
100.001
100.001
100
100
100
100
100
100
100
100
100
100
100
100
100
100
100
100
390.287
370.925
351.754
332.896
314.469
296.581
279.33
262.803
247.073
232.202
218.233
205.198
193.114
181.987
171.806
162.552
154.197
146.702
140.022
134.108
128.905
124.359
120.413
117.008
114.091
111.607
109.507
107.741
106.267
105.044
104.036
103.211
102.539
101.997
101.56
101.213
100.937
100.719
100.549
100.417
100.314
100.236
100.176
100.13
100.096
100.07
100.051
100.037
100.027
100.019
100.014
100.01
100.007
100.005
100.003
100.002
100.002
100.001
100.001
100
100
100
100
100
100
100
100
100
100
100
100
100
100
100
100
390.287
370.925
351.754
332.896
314.469
296.581
279.33
262.803
247.074
232.202
218.233
205.198
193.115
181.987
171.806
162.553
154.197
146.702
140.022
134.108
128.906
124.36
120.413
117.008
114.091
111.608
109.507
107.741
106.267
105.044
104.036
103.211
102.539
101.997
101.56
101.213
100.937
100.719
100.549
100.417
100.314
100.236
100.176
100.13
100.096
100.07
100.051
100.037
100.027
100.019
100.014
100.01
100.007
100.005
100.003
100.002
100.002
100.001
100.001
100
100
100
100
100
100
100
100
100
100
100
100
100
100
100
100
390.287
370.925
351.754
332.896
314.469
296.581
279.33
262.803
247.074
232.202
218.233
205.198
193.115
181.987
171.806
162.553
154.197
146.702
140.022
134.108
128.906
124.36
120.413
117.009
114.091
111.608
109.507
107.741
106.267
105.044
104.036
103.211
102.539
101.997
101.561
101.213
100.937
100.719
100.549
100.417
100.314
100.236
100.176
100.13
100.096
100.07
100.051
100.037
100.027
100.019
100.014
100.01
100.007
100.005
100.003
100.002
100.002
100.001
100.001
100
100
100
100
100
100
100
100
100
100
100
100
100
100
100
100
390.287
370.925
351.754
332.896
314.469
296.581
279.33
262.803
247.074
232.202
218.233
205.198
193.115
181.987
171.806
162.553
154.197
146.702
140.022
134.108
128.906
124.36
120.413
117.009
114.091
111.608
109.507
107.741
106.267
105.044
104.036
103.211
102.539
101.997
101.561
101.213
100.937
100.719
100.549
100.417
100.314
100.236
100.176
100.13
100.096
100.07
100.051
100.037
100.027
100.019
100.014
100.01
100.007
100.005
100.003
100.002
100.002
100.001
100.001
100
100
100
100
100
100
100
100
100
100
100
100
100
100
100
100
390.287
370.925
351.754
332.896
314.469
296.581
279.33
262.803
247.074
232.202
218.233
205.198
193.115
181.987
171.806
162.553
154.197
146.702
140.022
134.108
128.906
124.36
120.413
117.009
114.091
111.608
109.507
107.741
106.267
105.044
104.036
103.211
102.539
101.997
101.561
101.213
100.937
100.719
100.549
100.417
100.314
100.236
100.176
100.13
100.096
100.07
100.051
100.037
100.027
100.019
100.014
100.01
100.007
100.005
100.003
100.002
100.002
100.001
100.001
100
100
100
100
100
100
100
100
100
100
100
100
100
100
100
100
390.287
370.925
351.754
332.896
314.469
296.581
279.33
262.803
247.074
232.202
218.233
205.198
193.115
181.987
171.806
162.553
154.197
146.702
140.022
134.108
128.906
124.36
120.413
117.009
114.091
111.608
109.507
107.741
106.267
105.044
104.036
103.211
102.539
101.997
101.561
101.213
100.937
100.719
100.549
100.417
100.314
100.236
100.176
100.13
100.096
100.07
100.051
100.037
100.027
100.019
100.014
100.01
100.007
100.005
100.003
100.002
100.002
100.001
100.001
100
100
100
100
100
100
100
100
100
100
100
100
100
100
100
100
390.287
370.925
351.754
332.896
314.469
296.581
279.33
262.803
247.074
232.202
218.233
205.198
193.115
181.987
171.806
162.553
154.198
146.702
140.022
134.108
128.906
124.36
120.413
117.009
114.091
111.608
109.507
107.741
106.267
105.044
104.036
103.211
102.539
101.997
101.561
101.213
100.937
100.719
100.549
100.417
100.314
100.236
100.176
100.13
100.096
100.07
100.051
100.037
100.027
100.019
100.014
100.01
100.007
100.005
100.003
100.002
100.002
100.001
100.001
100
100
100
100
100
100
100
100
100
100
100
100
100
100
100
100
390.287
370.925
351.754
332.896
314.469
296.581
279.33
262.803
247.074
232.202
218.233
205.198
193.115
181.987
171.806
162.553
154.198
146.702
140.022
134.108
128.906
124.36
120.413
117.009
114.091
111.608
109.507
107.741
106.267
105.044
104.036
103.211
102.539
101.997
101.561
101.213
100.937
100.719
100.549
100.417