/*--------------------------------*- C++ -*----------------------------------*\
  =========                 |
  \\      /  F ield         | OpenFOAM: The Open Source CFD Toolbox
   \\    /   O peration     | Website:  https://openfoam.org
    \\  /    A nd           | Version:  10
     \\/     M anipulation  |
\*---------------------------------------------------------------------------*/
FoamFile
{
    format      ascii;
    class       volScalarField;
    location    "306";
    object      gradTz;
}
// * * * * * * * * * * * * * * * * * * * * * * * * * * * * * * * * * * * * * //

dimensions      [0 -1 0 1 0 0 0];

internalField   nonuniform List<scalar> 
11250
(
-14349.9
-4145.43
-1525.17
-721.654
-416.991
-275.413
-198.065
-150.562
-118.834
-96.2767
-79.449
-66.4096
-55.9968
-47.4826
-40.3924
-34.4067
-29.3035
-24.9239
-21.1505
-17.8935
-15.0825
-12.6598
-10.5772
-8.7935
-7.27223
-5.98113
-4.89128
-3.97659
-3.21356
-2.58105
-2.06014
-1.63399
-1.28773
-1.00831
-0.784402
-0.606229
-0.46545
-0.355005
-0.268975
-0.202439
-0.151348
-0.112396
-0.0829121
-0.0607533
-0.0442187
-0.0319687
-0.0229577
-0.0163762
-0.0116033
-0.00816643
-0.00570913
-0.00396455
-0.00273468
-0.00187374
-0.00127528
-0.000862173
-0.000578999
-0.000386241
-0.000255938
-0.000168465
-0.000110149
-7.15401e-05
-4.61547e-05
-2.95785e-05
-1.88292e-05
-1.19066e-05
-7.47913e-06
-4.66731e-06
-2.89437e-06
-1.78515e-06
-1.09765e-06
-6.774e-07
-4.27252e-07
-2.87994e-07
-2.25973e-07
-8253.92
-4851.67
-2758.43
-1665.78
-1087.59
-761.747
-564.125
-435.73
-347.192
-283.007
-234.509
-196.593
-166.121
-141.087
-120.166
-102.455
-87.3245
-74.3178
-63.0968
-53.4018
-45.0272
-37.8049
-31.5934
-26.2707
-21.7296
-17.8744
-14.6193
-11.8867
-9.60681
-7.71661
-6.1597
-4.88588
-3.85074
-3.01536
-2.34587
-1.8131
-1.39211
-1.06182
-0.804533
-0.605536
-0.452725
-0.336218
-0.248026
-0.181744
-0.132283
-0.0956383
-0.0686818
-0.048993
-0.0347143
-0.0244324
-0.0170809
-0.0118615
-0.00818198
-0.00560618
-0.00381563
-0.00257965
-0.0017324
-0.00115566
-0.000765795
-0.00050407
-0.000329584
-0.000214062
-0.000138104
-8.85058e-05
-5.63419e-05
-3.56278e-05
-2.23798e-05
-1.39661e-05
-8.66094e-06
-5.34184e-06
-3.28458e-06
-2.02698e-06
-1.27851e-06
-8.6186e-07
-6.76232e-07
-5559.03
-4247.78
-2990.06
-2094.44
-1504.95
-1119.07
-860.287
-680.497
-550.783
-453.773
-378.836
-319.307
-270.896
-230.769
-197.007
-168.277
-143.633
-122.381
-104.001
-88.0897
-74.3232
-62.4356
-52.2011
-43.4234
-35.9292
-29.5633
-24.1855
-19.6692
-15.8996
-12.7734
-10.1978
-8.08998
-6.37677
-4.99392
-3.88552
-3.00334
-2.30618
-1.75914
-1.33297
-1.00333
-0.750175
-0.55715
-0.411025
-0.301196
-0.219236
-0.15851
-0.113836
-0.0812057
-0.0575406
-0.040499
-0.0283139
-0.0196626
-0.0135634
-0.00929367
-0.00632552
-0.00427659
-0.00287206
-0.00191596
-0.00126962
-0.000835716
-0.000546438
-0.000354912
-0.000228979
-0.000146746
-9.34182e-05
-5.90738e-05
-3.7108e-05
-2.31575e-05
-1.43611e-05
-8.85766e-06
-5.44647e-06
-3.36117e-06
-2.12008e-06
-1.42918e-06
-1.12142e-06
-4173.53
-3588.52
-2857.85
-2215.34
-1717.2
-1347.98
-1076.34
-874.284
-720.989
-602.001
-507.506
-430.86
-367.533
-314.401
-269.277
-230.599
-197.231
-168.328
-143.241
-121.462
-102.575
-86.2365
-72.1482
-60.0504
-49.7108
-40.9202
-33.4888
-27.2439
-22.0289
-17.7019
-14.1356
-11.2161
-8.84242
-6.92597
-5.38951
-4.1664
-3.19963
-2.44093
-1.84977
-1.39245
-1.0412
-0.773348
-0.57056
-0.418128
-0.304367
-0.220073
-0.158057
-0.112756
-0.0799
-0.0562388
-0.0393195
-0.0273064
-0.0188368
-0.0129074
-0.00878542
-0.00593987
-0.00398919
-0.00266126
-0.00176355
-0.00116087
-0.000759057
-0.000493018
-0.000318088
-0.000203858
-0.000129778
-8.20678e-05
-5.1553e-05
-3.21726e-05
-1.99522e-05
-1.23064e-05
-7.56718e-06
-4.67004e-06
-2.94574e-06
-1.98581e-06
-1.5582e-06
-3370.43
-3072.38
-2635.03
-2189.61
-1798.48
-1477.48
-1221.28
-1018.05
-855.936
-725.093
-617.984
-529.032
-454.176
-390.464
-335.743
-288.422
-247.313
-211.507
-180.291
-153.093
-129.441
-108.931
-91.2121
-75.9724
-62.9305
-51.8301
-42.4373
-34.538
-27.9368
-22.4566
-17.9375
-14.2364
-11.2261
-8.79482
-6.84504
-5.29249
-4.06504
-3.10157
-2.3507
-1.76974
-1.32346
-0.983093
-0.725371
-0.531624
-0.387014
-0.27985
-0.201003
-0.143402
-0.101622
-0.0715321
-0.0500144
-0.0347354
-0.0239627
-0.0164205
-0.011177
-0.00755712
-0.00507551
-0.00338609
-0.00224394
-0.00147713
-0.000965884
-0.000627373
-0.000404783
-0.000259426
-0.000165158
-0.000104444
-6.56106e-05
-4.09465e-05
-2.53941e-05
-1.56632e-05
-9.63158e-06
-5.94423e-06
-3.74956e-06
-2.52778e-06
-1.98351e-06
-2862.07
-2692.29
-2417.19
-2106.69
-1806.99
-1539.87
-1311.26
-1119.11
-958.4
-823.633
-709.865
-613.032
-529.933
-458.095
-395.626
-341.07
-293.301
-251.431
-214.743
-182.648
-154.642
-130.291
-109.206
-91.0381
-75.4657
-62.1941
-50.9517
-41.4879
-33.573
-26.9976
-21.5721
-17.1262
-13.5086
-10.5856
-8.24066
-6.37285
-4.89575
-3.73601
-2.83199
-2.13238
-1.59485
-1.18483
-0.874318
-0.640853
-0.466575
-0.33741
-0.242365
-0.172925
-0.122552
-0.0862702
-0.0603229
-0.0418972
-0.0289049
-0.0198082
-0.0134836
-0.00911709
-0.00612349
-0.0040854
-0.00270748
-0.00178234
-0.0011655
-0.000757055
-0.00048847
-0.000313071
-0.000199316
-0.000126049
-7.91853e-05
-4.94197e-05
-3.06498e-05
-1.89056e-05
-1.16257e-05
-7.1752e-06
-4.52619e-06
-3.05143e-06
-2.3945e-06
-2519.5
-2413.6
-2231
-2009.46
-1779.74
-1560.97
-1362.39
-1186.79
-1033.46
-900.183
-784.28
-683.207
-594.74
-517.032
-448.583
-388.181
-334.85
-287.787
-246.322
-209.885
-177.974
-150.144
-125.987
-105.128
-87.2182
-71.9321
-58.9669
-48.0412
-38.8954
-31.2913
-25.0127
-19.8647
-15.6736
-12.2856
-9.56655
-7.39994
-5.68598
-4.33989
-3.29033
-2.47789
-1.85355
-1.37721
-1.01641
-0.745088
-0.542523
-0.392373
-0.281872
-0.20113
-0.142553
-0.100358
-0.0701782
-0.0487455
-0.0336317
-0.0230488
-0.0156904
-0.0106098
-0.00712644
-0.00475477
-0.00315122
-0.00207455
-0.00135663
-0.000881245
-0.000568623
-0.000364457
-0.000232039
-0.000146748
-9.21922e-05
-5.75393e-05
-3.56868e-05
-2.20133e-05
-1.35373e-05
-8.35531e-06
-5.27082e-06
-3.55359e-06
-2.78864e-06
-2278.15
-2207.04
-2079.39
-1916.35
-1737.84
-1558.6
-1387.76
-1229.94
-1086.78
-958.199
-843.248
-740.666
-649.151
-567.496
-494.642
-429.68
-371.831
-320.424
-274.875
-234.661
-199.307
-168.375
-141.454
-118.157
-98.1161
-80.984
-66.4334
-54.1575
-43.8711
-35.3114
-28.2384
-22.4352
-17.7079
-13.8846
-10.8147
-8.3676
-6.43103
-4.90961
-3.72301
-2.80424
-2.09802
-1.55909
-1.15081
-0.843722
-0.614417
-0.44442
-0.319295
-0.227856
-0.16151
-0.113713
-0.079524
-0.0552413
-0.0381162
-0.0261239
-0.0177849
-0.0120268
-0.00807868
-0.0053904
-0.00357267
-0.00235212
-0.00153822
-0.000999246
-0.000644792
-0.000413294
-0.000263143
-0.000166426
-0.000104559
-6.526e-05
-4.04769e-05
-2.4969e-05
-1.53556e-05
-9.47798e-06
-5.97933e-06
-4.03146e-06
-3.16372e-06
-2102.62
-2051.85
-1958.21
-1834.09
-1692.45
-1544.13
-1396.96
-1255.88
-1123.6
-1001.27
-889.145
-786.937
-694.112
-610.05
-534.118
-465.72
-404.299
-349.34
-300.365
-256.922
-218.579
-184.923
-155.551
-130.073
-108.114
-89.3105
-73.3178
-59.8087
-48.4771
-39.0389
-31.2337
-24.8253
-19.6018
-15.3748
-11.9791
-9.27111
-7.12726
-5.4424
-4.12791
-3.10984
-2.32708
-1.7296
-1.27686
-0.936275
-0.681906
-0.493298
-0.354452
-0.252972
-0.179331
-0.126272
-0.088315
-0.061353
-0.0423366
-0.0290186
-0.0197569
-0.0133613
-0.00897563
-0.00598923
-0.0039698
-0.00261371
-0.00170938
-0.00111049
-0.000716609
-0.000459349
-0.00029248
-0.000184988
-0.000116225
-7.25448e-05
-4.49972e-05
-2.77586e-05
-1.70719e-05
-1.05378e-05
-6.64829e-06
-4.48275e-06
-3.51799e-06
-1971.97
-1933.78
-1861.98
-1764.21
-1649.05
-1524.39
-1396.57
-1270.2
-1148.29
-1032.68
-924.346
-823.687
-730.771
-645.463
-567.516
-496.624
-432.452
-374.648
-322.851
-276.692
-235.794
-199.778
-168.259
-140.856
-117.19
-96.8918
-79.6021
-64.9791
-52.6996
-42.4622
-33.9891
-27.0272
-21.3487
-16.751
-13.0556
-10.1073
-7.77216
-5.93632
-4.50356
-3.39355
-2.53987
-1.88809
-1.3941
-1.0224
-0.744736
-0.538821
-0.38721
-0.276383
-0.195948
-0.137987
-0.0965173
-0.0670572
-0.0462766
-0.0317217
-0.0215989
-0.014608
-0.00981381
-0.00654895
-0.00434105
-0.00285831
-0.00186946
-0.00121455
-0.000783798
-0.000502442
-0.000319933
-0.000202362
-0.000127147
-7.93653e-05
-4.92299e-05
-3.03712e-05
-1.86795e-05
-1.15307e-05
-7.27509e-06
-4.90563e-06
-3.85007e-06
-1873.06
-1842.99
-1785.7
-1706.09
-1610.02
-1503.28
-1390.9
-1276.92
-1164.33
-1055.23
-951.012
-852.543
-760.325
-674.603
-595.451
-522.824
-456.589
-396.552
-342.47
-294.059
-251.006
-212.972
-179.597
-150.514
-125.348
-103.726
-85.2828
-69.664
-56.5339
-45.5768
-36.5002
-29.037
-22.9456
-18.0106
-14.0421
-10.8743
-8.36431
-6.39024
-4.84907
-3.6547
-2.73587
-2.03418
-1.50222
-1.10187
-0.802745
-0.580871
-0.417482
-0.298027
-0.211317
-0.148826
-0.104109
-0.0723384
-0.0499256
-0.0342258
-0.0233058
-0.0157636
-0.0105909
-0.00706798
-0.0046854
-0.00308523
-0.00201799
-0.00131112
-0.000846166
-0.00054245
-0.000345427
-0.000218497
-0.000137292
-8.57019e-05
-5.3163e-05
-3.27992e-05
-2.01738e-05
-1.24538e-05
-7.85788e-06
-5.29891e-06
-4.15893e-06
-1797.23
-1772.6
-1725.2
-1658.33
-1576.14
-1482.91
-1382.68
-1278.89
-1174.33
-1071.17
-971.004
-874.987
-783.924
-698.347
-618.586
-544.811
-477.071
-415.314
-359.41
-309.16
-264.313
-224.573
-189.613
-159.08
-132.609
-109.829
-90.3691
-73.8693
-59.9834
-48.3844
-38.7681
-30.8551
-24.3923
-19.1533
-14.9381
-11.5717
-8.90334
-6.80384
-5.16417
-3.89306
-2.9149
-2.16771
-1.60111
-1.1746
-0.855862
-0.619395
-0.44523
-0.317875
-0.225416
-0.158773
-0.111079
-0.0771889
-0.0532781
-0.0365272
-0.024875
-0.0168263
-0.0113057
-0.00754552
-0.00500229
-0.00329411
-0.00215474
-0.00140005
-0.00090361
-0.000579307
-0.000368916
-0.000233367
-0.000146642
-9.15434e-05
-5.67894e-05
-3.50383e-05
-2.15521e-05
-1.33053e-05
-8.39568e-06
-5.6619e-06
-4.44397e-06
-1738.57
-1717.68
-1677.17
-1619.39
-1547.35
-1464.33
-1373.58
-1278.02
-1180.22
-1082.27
-985.856
-892.306
-802.617
-717.532
-637.576
-563.095
-494.29
-431.235
-373.899
-322.165
-275.841
-234.677
-198.376
-166.605
-139.011
-115.227
-94.8811
-77.6094
-63.0584
-50.8926
-40.7979
-32.4851
-25.6914
-20.1809
-15.7449
-12.2005
-9.38983
-7.1775
-5.44911
-4.10878
-3.07706
-2.28874
-1.69082
-1.24061
-0.904103
-0.654403
-0.470457
-0.335929
-0.238247
-0.167829
-0.117427
-0.0816083
-0.0563338
-0.0386256
-0.0263061
-0.0177957
-0.0119579
-0.00798143
-0.00529163
-0.00348487
-0.00227966
-0.0014813
-0.000956108
-0.000612997
-0.000390392
-0.000246965
-0.000155195
-9.68873e-05
-6.01075e-05
-3.70873e-05
-2.28136e-05
-1.40849e-05
-8.88809e-06
-5.99431e-06
-4.7051e-06
-1692.9
-1674.63
-1639.03
-1587.81
-1523.25
-1447.96
-1364.56
-1275.59
-1183.36
-1089.86
-996.802
-905.579
-817.323
-732.92
-653.042
-578.176
-508.643
-444.624
-386.18
-333.262
-285.737
-243.396
-205.972
-173.156
-144.605
-119.958
-98.8476
-80.906
-65.7753
-53.1134
-42.5987
-33.9338
-26.8478
-21.097
-16.4651
-12.7626
-9.82517
-7.51224
-5.70461
-4.3024
-3.22273
-2.39755
-1.77152
-1.30004
-0.947558
-0.685956
-0.493209
-0.352219
-0.249831
-0.176008
-0.123163
-0.085603
-0.0590968
-0.0405237
-0.0276011
-0.0186733
-0.0125486
-0.00837623
-0.00555376
-0.00365773
-0.00239289
-0.00155497
-0.00100371
-0.000643555
-0.000409874
-0.000259304
-0.000162957
-0.000101738
-6.31201e-05
-3.89481e-05
-2.39594e-05
-1.47931e-05
-9.3355e-06
-6.29642e-06
-4.94251e-06
-1657.17
-1640.78
-1608.71
-1562.29
-1503.3
-1433.85
-1356.16
-1272.42
-1184.73
-1094.96
-1004.81
-915.691
-828.822
-745.182
-665.551
-590.52
-520.512
-455.794
-396.502
-342.652
-294.159
-250.854
-212.5
-178.808
-149.448
-124.069
-102.304
-83.7863
-68.1549
-55.0627
-44.1825
-35.2103
-27.8685
-21.9068
-17.1027
-13.2607
-10.2115
-7.80961
-5.93182
-4.47474
-3.3525
-2.49457
-1.84352
-1.3531
-0.986387
-0.714167
-0.513561
-0.3668
-0.260204
-0.183337
-0.128304
-0.0891853
-0.0615756
-0.0422271
-0.0287637
-0.0194614
-0.0130791
-0.008731
-0.00578938
-0.00381316
-0.00249473
-0.00162124
-0.00104655
-0.000671057
-0.000427413
-0.000270413
-0.000169947
-0.000106108
-6.58342e-05
-4.06248e-05
-2.49921e-05
-1.54315e-05
-9.73897e-06
-6.56894e-06
-5.15663e-06
-1629.14
-1614.12
-1584.63
-1541.74
-1486.92
-1421.91
-1348.63
-1269.02
-1184.99
-1098.31
-1010.62
-923.357
-837.766
-754.897
-675.603
-600.557
-530.256
-465.042
-405.111
-350.533
-301.267
-257.181
-218.063
-183.643
-153.607
-127.61
-105.29
-86.2815
-70.2212
-56.7592
-45.5637
-36.3256
-28.7618
-22.6166
-17.6623
-13.6986
-10.5515
-8.0716
-6.13222
-4.62689
-3.46718
-2.58037
-1.90726
-1.40011
-1.0208
-0.739188
-0.531624
-0.379747
-0.269419
-0.189851
-0.132877
-0.0923723
-0.0637818
-0.0437438
-0.0297993
-0.0201636
-0.013552
-0.00904734
-0.00599954
-0.00395182
-0.0025856
-0.0016804
-0.0010848
-0.000695619
-0.00044308
-0.000280339
-0.000176194
-0.000110013
-6.82608e-05
-4.21242e-05
-2.59158e-05
-1.60027e-05
-1.01e-05
-6.81282e-06
-5.34832e-06
-1607.12
-1593.1
-1565.51
-1525.25
-1473.55
-1411.93
-1342.06
-1265.7
-1184.6
-1100.44
-1014.81
-929.14
-844.692
-762.554
-683.635
-608.665
-538.202
-472.643
-412.236
-357.095
-307.219
-262.504
-222.764
-187.746
-157.148
-130.635
-107.849
-88.4248
-72.0006
-58.2234
-46.7581
-37.2918
-29.5371
-23.2337
-18.1495
-14.0803
-10.8482
-8.30054
-6.30752
-4.76012
-3.56769
-2.65564
-1.96321
-1.4414
-1.05106
-0.761202
-0.547526
-0.391152
-0.277542
-0.195595
-0.136911
-0.0951856
-0.0657301
-0.0450838
-0.0307145
-0.0207844
-0.0139703
-0.0093272
-0.00618552
-0.00407458
-0.00266608
-0.00173279
-0.00111868
-0.000717385
-0.000456967
-0.00028914
-0.000181734
-0.000113478
-7.04135e-05
-4.34547e-05
-2.67356e-05
-1.65097e-05
-1.04205e-05
-7.02942e-06
-5.51859e-06
-1589.81
-1576.52
-1550.35
-1512.05
-1462.72
-1403.68
-1336.44
-1262.62
-1183.85
-1101.74
-1017.81
-933.485
-850.03
-768.56
-690.018
-615.177
-544.64
-478.848
-418.091
-362.521
-312.166
-266.949
-226.705
-191.199
-160.139
-133.198
-110.023
-90.2511
-73.5203
-59.4767
-47.7826
-38.1222
-30.2044
-23.7657
-18.5702
-14.4103
-11.1051
-8.49898
-6.45964
-4.87585
-3.65507
-2.72113
-2.01194
-1.4774
-1.07746
-0.780418
-0.561415
-0.40112
-0.284645
-0.200621
-0.140442
-0.0976494
-0.0674372
-0.0462584
-0.0315171
-0.0213291
-0.0143374
-0.00957289
-0.00634884
-0.00418241
-0.00273678
-0.00177885
-0.00114847
-0.000736525
-0.000469182
-0.000296883
-0.000186609
-0.000116527
-7.23088e-05
-4.46263e-05
-2.74577e-05
-1.69563e-05
-1.0703e-05
-7.22034e-06
-5.66863e-06
-1576.2
-1563.47
-1538.35
-1501.52
-1453.98
-1396.91
-1331.71
-1259.88
-1182.95
-1102.48
-1019.94
-936.735
-854.129
-773.25
-695.065
-620.377
-549.825
-483.882
-422.871
-366.974
-316.246
-270.632
-229.985
-194.083
-162.645
-135.352
-111.855
-91.7946
-74.8079
-60.5408
-48.6543
-38.83
-30.7743
-24.2207
-18.9306
-14.6934
-11.3258
-8.66961
-6.59058
-4.97557
-3.73045
-2.77768
-2.05405
-1.50853
-1.1003
-0.797059
-0.573451
-0.409763
-0.290808
-0.204984
-0.143509
-0.0997904
-0.0689213
-0.04728
-0.0322155
-0.0218032
-0.014657
-0.0097869
-0.00649116
-0.0042764
-0.00279844
-0.00181901
-0.00117446
-0.000753228
-0.000479843
-0.000303642
-0.000190866
-0.00011919
-7.39645e-05
-4.565e-05
-2.80887e-05
-1.73468e-05
-1.095e-05
-7.38732e-06
-5.79989e-06
-1565.52
-1553.19
-1528.86
-1493.16
-1446.96
-1391.4
-1327.77
-1257.49
-1182.02
-1102.85
-1021.44
-939.158
-857.264
-776.896
-699.035
-624.508
-553.975
-487.939
-426.747
-370.605
-319.589
-273.663
-232.694
-196.474
-164.73
-137.149
-113.388
-93.089
-75.8901
-61.4372
-49.39
-39.4285
-31.257
-24.6067
-19.2367
-14.9343
-11.5137
-8.81516
-6.70239
-5.06081
-3.79494
-2.82611
-2.09015
-1.53523
-1.11991
-0.811357
-0.5838
-0.4172
-0.296113
-0.208742
-0.146152
-0.101637
-0.0702016
-0.0481617
-0.0328185
-0.0222127
-0.0149332
-0.00997189
-0.00661422
-0.0043577
-0.00285178
-0.00185377
-0.00119696
-0.000767692
-0.000489078
-0.000309499
-0.000194555
-0.000121499
-7.53999e-05
-4.65377e-05
-2.86361e-05
-1.76856e-05
-1.11643e-05
-7.53221e-06
-5.91383e-06
-1557.14
-1545.13
-1521.4
-1486.53
-1441.36
-1386.95
-1324.53
-1255.45
-1181.12
-1103
-1022.49
-940.956
-859.654
-779.719
-702.145
-627.772
-557.28
-491.19
-429.87
-373.545
-322.308
-276.138
-234.916
-198.441
-166.451
-138.637
-114.661
-94.1661
-76.7928
-62.1865
-50.0062
-39.9307
-31.6627
-24.9317
-19.4949
-15.1376
-11.6726
-8.93833
-6.79714
-5.13312
-3.8497
-2.86727
-2.12085
-1.55796
-1.13662
-0.823547
-0.592628
-0.423548
-0.300645
-0.211954
-0.148413
-0.103216
-0.0712975
-0.0489168
-0.0333351
-0.0225637
-0.01517
-0.0101306
-0.00671981
-0.00442748
-0.00289758
-0.00188363
-0.00121629
-0.00078012
-0.000497016
-0.000314534
-0.000197727
-0.000123484
-7.66348e-05
-4.73016e-05
-2.91071e-05
-1.79771e-05
-1.13488e-05
-7.65701e-06
-6.01199e-06
-1550.59
-1538.81
-1515.53
-1481.29
-1436.91
-1383.38
-1321.89
-1253.74
-1180.31
-1103
-1023.21
-942.286
-861.468
-781.896
-704.57
-630.338
-559.896
-493.78
-432.372
-375.911
-324.506
-278.147
-236.724
-200.048
-167.861
-139.86
-115.709
-95.0556
-77.5399
-62.8079
-50.5183
-40.3488
-32.0011
-25.2031
-19.7108
-15.308
-11.8059
-9.04177
-6.87678
-5.19397
-3.89583
-2.90198
-2.14676
-1.57717
-1.15074
-0.833859
-0.600102
-0.428925
-0.304486
-0.214678
-0.150331
-0.104557
-0.0722285
-0.0495585
-0.0337743
-0.0228622
-0.0153715
-0.0102656
-0.00680972
-0.00448692
-0.00293661
-0.00190908
-0.00123277
-0.000790719
-0.000503786
-0.000318829
-0.000200434
-0.000125179
-7.76891e-05
-4.79538e-05
-2.95094e-05
-1.82262e-05
-1.15064e-05
-7.76363e-06
-6.09589e-06
-1545.49
-1533.88
-1510.93
-1477.18
-1433.39
-1380.54
-1319.76
-1252.33
-1179.59
-1102.92
-1023.71
-943.266
-862.841
-783.569
-706.451
-632.346
-561.957
-495.831
-434.362
-377.803
-326.27
-279.765
-238.187
-201.351
-169.008
-140.857
-116.567
-95.7848
-78.1537
-63.3195
-50.9406
-40.6942
-32.2811
-25.4281
-19.89
-15.4495
-11.9168
-9.12796
-6.94322
-5.24478
-3.9344
-2.93101
-2.16846
-1.59326
-1.16259
-0.842514
-0.60638
-0.433445
-0.307717
-0.216971
-0.151946
-0.105687
-0.0730132
-0.0500996
-0.0341449
-0.0231142
-0.0155417
-0.0103797
-0.0068857
-0.00453717
-0.00296961
-0.0019306
-0.00124671
-0.000799689
-0.000509518
-0.000322467
-0.000202727
-0.000126614
-7.85823e-05
-4.85065e-05
-2.98504e-05
-1.84374e-05
-1.16401e-05
-7.85408e-06
-6.16702e-06
-1541.51
-1530.04
-1507.35
-1473.96
-1430.62
-1378.28
-1318.05
-1251.17
-1178.97
-1102.81
-1024.04
-943.985
-863.876
-784.848
-707.905
-633.909
-563.571
-497.446
-435.938
-379.306
-327.678
-281.061
-239.362
-202.401
-169.934
-141.665
-117.263
-96.3781
-78.6542
-63.7375
-51.2863
-40.9775
-32.511
-25.6132
-20.0376
-15.5663
-12.0084
-9.19923
-6.99823
-5.28689
-3.96638
-2.95512
-2.1865
-1.60665
-1.17245
-0.849725
-0.611613
-0.437216
-0.310414
-0.218886
-0.153296
-0.106632
-0.0736696
-0.0505525
-0.0344552
-0.0233253
-0.0156843
-0.0104754
-0.00694941
-0.00457932
-0.0029973
-0.00194867
-0.00125842
-0.000807222
-0.000514332
-0.000325523
-0.000204654
-0.000127821
-7.93332e-05
-4.89713e-05
-3.01372e-05
-1.8615e-05
-1.17526e-05
-7.93018e-06
-6.22691e-06
-1538.43
-1527.06
-1504.56
-1471.45
-1428.45
-1376.5
-1316.68
-1250.23
-1178.45
-1102.68
-1024.26
-944.511
-864.654
-785.823
-709.023
-635.12
-564.829
-498.711
-437.177
-380.494
-328.794
-282.091
-240.299
-203.241
-170.678
-142.314
-117.824
-96.8574
-79.0594
-64.0765
-51.5672
-41.208
-32.6985
-25.7642
-20.1583
-15.6619
-12.0835
-9.25771
-7.04341
-5.32153
-3.99272
-2.97499
-2.20137
-1.61769
-1.1806
-0.855686
-0.615943
-0.440337
-0.312647
-0.220473
-0.154415
-0.107415
-0.0742146
-0.0509287
-0.034713
-0.0235007
-0.0158028
-0.010555
-0.00700244
-0.00461441
-0.00302036
-0.00196372
-0.00126817
-0.000813501
-0.000518346
-0.000328071
-0.000206261
-0.000128828
-7.99598e-05
-4.93591e-05
-3.03765e-05
-1.87633e-05
-1.18464e-05
-7.99374e-06
-6.27695e-06
-1536.06
-1524.75
-1502.4
-1469.5
-1426.76
-1375.1
-1315.61
-1249.48
-1178.02
-1102.55
-1024.41
-944.894
-865.236
-786.563
-709.879
-636.054
-565.804
-499.696
-438.146
-381.426
-329.672
-282.906
-241.041
-203.909
-171.27
-142.833
-118.273
-97.2419
-79.385
-64.3495
-51.7937
-41.3942
-32.8502
-25.8867
-20.2563
-15.7396
-12.1446
-9.30535
-7.08025
-5.34979
-4.01423
-2.99124
-2.21354
-1.62674
-1.18727
-0.860576
-0.619497
-0.442901
-0.314484
-0.221778
-0.155337
-0.108061
-0.0746636
-0.0512388
-0.0349256
-0.0236455
-0.0159007
-0.0106207
-0.00704624
-0.0046434
-0.00303942
-0.00197616
-0.00127624
-0.000818694
-0.000521667
-0.00033018
-0.000207591
-0.000129661
-8.04786e-05
-4.96803e-05
-3.05748e-05
-1.88861e-05
-1.19243e-05
-8.04642e-06
-6.3184e-06
-1534.23
-1522.98
-1500.74
-1467.99
-1425.45
-1374.01
-1314.76
-1248.88
-1177.67
-1102.43
-1024.5
-945.171
-865.67
-787.122
-710.532
-636.77
-566.556
-500.46
-438.9
-382.153
-330.36
-283.545
-241.626
-204.436
-171.739
-143.245
-118.63
-97.5481
-79.6449
-64.5677
-51.9752
-41.5436
-32.972
-25.9852
-20.3352
-15.8022
-12.1939
-9.34386
-7.11007
-5.37269
-4.03168
-3.00442
-2.22343
-1.6341
-1.19271
-0.864558
-0.622394
-0.444992
-0.315982
-0.222844
-0.156089
-0.108588
-0.0750307
-0.0514925
-0.0350997
-0.0237641
-0.0159809
-0.0106745
-0.00708215
-0.00466718
-0.00305505
-0.00198637
-0.00128286
-0.000822958
-0.000524394
-0.000331912
-0.000208684
-0.000130346
-8.09049e-05
-4.99443e-05
-3.07377e-05
-1.89871e-05
-1.19882e-05
-8.0897e-06
-6.35248e-06
-1532.83
-1521.62
-1499.46
-1466.83
-1424.43
-1373.17
-1314.1
-1248.41
-1177.38
-1102.32
-1024.55
-945.372
-865.993
-787.543
-711.027
-637.317
-567.133
-501.047
-439.483
-382.717
-330.896
-284.044
-242.084
-204.85
-172.107
-143.569
-118.912
-97.7903
-79.8507
-64.7409
-52.1194
-41.6626
-33.0692
-26.0638
-20.3983
-15.8524
-12.2334
-9.37476
-7.13402
-5.39111
-4.04572
-3.01504
-2.2314
-1.64004
-1.1971
-0.867777
-0.624736
-0.446685
-0.317196
-0.223708
-0.156699
-0.109016
-0.0753287
-0.0516985
-0.0352411
-0.0238604
-0.0160461
-0.0107183
-0.00711136
-0.00468653
-0.00306778
-0.00199468
-0.00128825
-0.000826432
-0.000526616
-0.000333324
-0.000209575
-0.000130904
-8.12526e-05
-5.01596e-05
-3.08707e-05
-1.90694e-05
-1.20404e-05
-8.12501e-06
-6.38032e-06
-1531.76
-1520.59
-1498.49
-1465.94
-1423.66
-1372.52
-1313.59
-1248.04
-1177.15
-1102.23
-1024.59
-945.516
-866.231
-787.858
-711.402
-637.732
-567.573
-501.498
-439.931
-383.152
-331.31
-284.431
-242.439
-205.172
-172.395
-143.822
-119.133
-97.9805
-80.0127
-64.8774
-52.2332
-41.7566
-33.1461
-26.1261
-20.4483
-15.8923
-12.2649
-9.39937
-7.15312
-5.4058
-4.05694
-3.02354
-2.23779
-1.6448
-1.20062
-0.870359
-0.626617
-0.448044
-0.318171
-0.224402
-0.15719
-0.109361
-0.0755688
-0.0518645
-0.035355
-0.0239381
-0.0160987
-0.0107537
-0.00713495
-0.00470216
-0.00307806
-0.0020014
-0.00129261
-0.000829241
-0.000528413
-0.000334466
-0.000210295
-0.000131356
-8.15339e-05
-5.03339e-05
-3.09783e-05
-1.91361e-05
-1.20826e-05
-8.15363e-06
-6.40281e-06
-1530.95
-1519.8
-1497.75
-1465.27
-1423.06
-1372.02
-1313.19
-1247.76
-1176.97
-1102.15
-1024.61
-945.619
-866.407
-788.093
-711.683
-638.046
-567.907
-501.841
-440.273
-383.486
-331.628
-284.729
-242.714
-205.421
-172.618
-144.02
-119.305
-98.1289
-80.1393
-64.9842
-52.3225
-41.8304
-33.2066
-26.1752
-20.4878
-15.9237
-12.2897
-9.41884
-7.16824
-5.41745
-4.06583
-3.03028
-2.24286
-1.64858
-1.20341
-0.872415
-0.628115
-0.449128
-0.318949
-0.224957
-0.157583
-0.109636
-0.0757607
-0.0519973
-0.0354463
-0.0240003
-0.0161408
-0.010782
-0.00715386
-0.00471469
-0.00308631
-0.00200679
-0.00129611
-0.000831495
-0.000529856
-0.000335383
-0.000210874
-0.000131719
-8.176e-05
-5.04739e-05
-3.10647e-05
-1.91897e-05
-1.21166e-05
-8.17662e-06
-6.4209e-06
-1530.34
-1519.2
-1497.19
-1464.76
-1422.61
-1371.64
-1312.89
-1247.54
-1176.83
-1102.09
-1024.61
-945.692
-866.536
-788.268
-711.893
-638.282
-568.16
-502.101
-440.534
-383.74
-331.871
-284.957
-242.925
-205.613
-172.79
-144.172
-119.438
-98.2439
-80.2375
-65.0672
-52.3919
-41.888
-33.2538
-26.2136
-20.5187
-15.9483
-12.3092
-9.43411
-7.18012
-5.42661
-4.07284
-3.0356
-2.24685
-1.65156
-1.20562
-0.874039
-0.6293
-0.449986
-0.319565
-0.225396
-0.157893
-0.109855
-0.075913
-0.0521028
-0.0355187
-0.0240498
-0.0161743
-0.0108045
-0.0071689
-0.00472466
-0.00309288
-0.00201108
-0.0012989
-0.000833291
-0.000531006
-0.000336114
-0.000211335
-0.000132008
-8.19401e-05
-5.05855e-05
-3.11336e-05
-1.92324e-05
-1.21437e-05
-8.19495e-06
-6.43532e-06
-1529.88
-1518.76
-1496.76
-1464.37
-1422.27
-1371.35
-1312.66
-1247.37
-1176.72
-1102.04
-1024.62
-945.744
-866.63
-788.398
-712.05
-638.459
-568.349
-502.297
-440.73
-383.933
-332.056
-285.131
-243.086
-205.759
-172.921
-144.288
-119.54
-98.3324
-80.3133
-65.1313
-52.4456
-41.9325
-33.2904
-26.2433
-20.5427
-15.9675
-12.3244
-9.44602
-7.18939
-5.43376
-4.07831
-3.03975
-2.24998
-1.6539
-1.20736
-0.875314
-0.630231
-0.45066
-0.32005
-0.225742
-0.158138
-0.110027
-0.076033
-0.0521859
-0.0355759
-0.0240888
-0.0162007
-0.0108223
-0.00718078
-0.00473254
-0.00309807
-0.00201448
-0.0013011
-0.000834711
-0.000531915
-0.000336692
-0.0002117
-0.000132237
-8.20826e-05
-5.06738e-05
-3.11882e-05
-1.92662e-05
-1.21651e-05
-8.20941e-06
-6.44673e-06
-1529.53
-1518.42
-1496.45
-1464.08
-1422.02
-1371.14
-1312.49
-1247.24
-1176.64
-1102
-1024.62
-945.781
-866.699
-788.493
-712.166
-638.59
-568.491
-502.444
-440.878
-384.078
-332.195
-285.262
-243.207
-205.87
-173.022
-144.377
-119.618
-98.4
-80.3712
-65.1805
-52.4869
-41.9667
-33.3185
-26.2663
-20.5612
-15.9823
-12.3361
-9.45524
-7.19657
-5.43931
-4.08256
-3.04298
-2.25242
-1.65572
-1.20871
-0.876308
-0.630956
-0.451185
-0.320428
-0.226012
-0.158329
-0.110161
-0.0761269
-0.0522509
-0.0356206
-0.0241193
-0.0162214
-0.0108362
-0.00719009
-0.00473872
-0.00310214
-0.00201714
-0.00130283
-0.000835826
-0.000532628
-0.000337145
-0.000211987
-0.000132416
-8.21946e-05
-5.07432e-05
-3.1231e-05
-1.92928e-05
-1.21819e-05
-8.22082e-06
-6.45566e-06
-1529.27
-1518.17
-1496.21
-1463.87
-1421.83
-1370.98
-1312.36
-1247.14
-1176.58
-1101.97
-1024.62
-945.807
-866.749
-788.563
-712.252
-638.688
-568.596
-502.553
-440.988
-384.186
-332.3
-285.361
-243.299
-205.954
-173.097
-144.445
-119.677
-98.4513
-80.4153
-65.2179
-52.5183
-41.9928
-33.34
-26.2838
-20.5753
-15.9936
-12.3451
-9.46232
-7.20209
-5.44357
-4.08583
-3.04547
-2.25429
-1.65713
-1.20975
-0.877076
-0.631517
-0.451593
-0.320721
-0.226221
-0.158478
-0.110266
-0.0761998
-0.0523014
-0.0356554
-0.0241431
-0.0162375
-0.0108471
-0.00719733
-0.00474353
-0.0031053
-0.00201921
-0.00130417
-0.000836694
-0.000533184
-0.000337499
-0.00021221
-0.000132556
-8.22818e-05
-5.07972e-05
-3.12644e-05
-1.93135e-05
-1.2195e-05
-8.2297e-06
-6.46266e-06
-1529.08
-1517.99
-1496.04
-1463.7
-1421.68
-1370.85
-1312.26
-1247.07
-1176.53
-1101.94
-1024.61
-945.825
-866.785
-788.613
-712.315
-638.76
-568.674
-502.635
-441.07
-384.267
-332.378
-285.435
-243.368
-206.017
-173.154
-144.495
-119.722
-98.4901
-80.4486
-65.2462
-52.5421
-42.0127
-33.3564
-26.2971
-20.5861
-16.0023
-12.352
-9.46772
-7.2063
-5.44684
-4.08834
-3.04737
-2.25573
-1.6582
-1.21055
-0.877665
-0.631949
-0.451905
-0.320946
-0.226382
-0.158592
-0.110346
-0.0762559
-0.0523404
-0.0356822
-0.0241614
-0.01625
-0.0108554
-0.00720293
-0.00474724
-0.00310775
-0.00202081
-0.00130521
-0.000837365
-0.000533614
-0.000337772
-0.000212383
-0.000132665
-8.23493e-05
-5.0839e-05
-3.12902e-05
-1.93295e-05
-1.22052e-05
-8.23656e-06
-6.46805e-06
-1528.94
-1517.85
-1495.91
-1463.59
-1421.58
-1370.77
-1312.19
-1247.01
-1176.49
-1101.92
-1024.61
-945.838
-866.811
-788.65
-712.361
-638.812
-568.731
-502.694
-441.131
-384.327
-332.436
-285.49
-243.419
-206.064
-173.196
-144.533
-119.755
-98.5191
-80.4736
-65.2674
-52.56
-42.0276
-33.3687
-26.3072
-20.5943
-16.0088
-12.3572
-9.47181
-7.2095
-5.44931
-4.09024
-3.04882
-2.25683
-1.65902
-1.21116
-0.878115
-0.632277
-0.452144
-0.321118
-0.226505
-0.158679
-0.110407
-0.0762989
-0.0523702
-0.0357027
-0.0241754
-0.0162595
-0.0108619
-0.00720722
-0.00475009
-0.00310963
-0.00202204
-0.00130601
-0.00083788
-0.000533944
-0.000337982
-0.000212515
-0.000132748
-8.24011e-05
-5.08711e-05
-3.131e-05
-1.93418e-05
-1.2213e-05
-8.24183e-06
-6.4722e-06
-1528.84
-1517.75
-1495.81
-1463.5
-1421.5
-1370.7
-1312.13
-1246.97
-1176.46
-1101.91
-1024.61
-945.846
-866.829
-788.677
-712.394
-638.85
-568.773
-502.738
-441.175
-384.371
-332.478
-285.53
-243.457
-206.099
-173.228
-144.561
-119.78
-98.5407
-80.4922
-65.2833
-52.5734
-42.0387
-33.3779
-26.3147
-20.6004
-16.0137
-12.3611
-9.47489
-7.21191
-5.45118
-4.09167
-3.04992
-2.25765
-1.65964
-1.21162
-0.878455
-0.632526
-0.452325
-0.321249
-0.226598
-0.158745
-0.110454
-0.0763315
-0.0523928
-0.0357183
-0.0241861
-0.0162667
-0.0108667
-0.00721049
-0.00475226
-0.00311106
-0.00202298
-0.00130662
-0.000838273
-0.000534196
-0.000338142
-0.000212616
-0.000132811
-8.24406e-05
-5.08956e-05
-3.13251e-05
-1.93511e-05
-1.22189e-05
-8.24583e-06
-6.47535e-06
-1528.77
-1517.68
-1495.74
-1463.44
-1421.45
-1370.65
-1312.09
-1246.94
-1176.44
-1101.9
-1024.61
-945.852
-866.842
-788.696
-712.418
-638.878
-568.803
-502.77
-441.208
-384.403
-332.509
-285.56
-243.485
-206.125
-173.251
-144.582
-119.798
-98.5567
-80.506
-65.295
-52.5833
-42.047
-33.3847
-26.3203
-20.6049
-16.0174
-12.364
-9.47719
-7.21371
-5.45257
-4.09275
-3.05073
-2.25827
-1.66011
-1.21197
-0.87871
-0.632714
-0.452461
-0.321347
-0.226668
-0.158795
-0.110489
-0.0763561
-0.0524099
-0.0357301
-0.0241942
-0.0162722
-0.0108704
-0.00721296
-0.0047539
-0.00311214
-0.00202369
-0.00130708
-0.00083857
-0.000534386
-0.000338263
-0.000212693
-0.000132859
-8.24705e-05
-5.09141e-05
-3.13366e-05
-1.93582e-05
-1.22234e-05
-8.24887e-06
-6.47775e-06
-1528.71
-1517.63
-1495.69
-1463.39
-1421.4
-1370.62
-1312.07
-1246.92
-1176.43
-1101.89
-1024.61
-945.856
-866.851
-788.71
-712.435
-638.898
-568.825
-502.793
-441.231
-384.427
-332.532
-285.582
-243.505
-206.143
-173.268
-144.597
-119.812
-98.5684
-80.5161
-65.3037
-52.5906
-42.0531
-33.3898
-26.3245
-20.6083
-16.0201
-12.3662
-9.4789
-7.21504
-5.45361
-4.09354
-3.05134
-2.25873
-1.66045
-1.21222
-0.878901
-0.632853
-0.452563
-0.32142
-0.226721
-0.158833
-0.110516
-0.0763746
-0.0524227
-0.0357389
-0.0242002
-0.0162763
-0.0108732
-0.00721481
-0.00475513
-0.00311295
-0.00202422
-0.00130743
-0.000838793
-0.000534529
-0.000338354
-0.00021275
-0.000132895
-8.24929e-05
-5.0928e-05
-3.13452e-05