/*--------------------------------*- C++ -*----------------------------------*\
  =========                 |
  \\      /  F ield         | OpenFOAM: The Open Source CFD Toolbox
   \\    /   O peration     | Website:  https://openfoam.org
    \\  /    A nd           | Version:  10
     \\/     M anipulation  |
\*---------------------------------------------------------------------------*/
FoamFile
{
    format      ascii;
    class       volScalarField;
    location    "363";
    object      gradTz;
}
// * * * * * * * * * * * * * * * * * * * * * * * * * * * * * * * * * * * * * //

dimensions      [0 -1 0 1 0 0 0];

internalField   nonuniform List<scalar> 
11250
(
-14345.9
-4141.43
-1521.34
-718.053
-413.691
-272.47
-195.523
-148.454
-117.18
-95.0835
-78.7112
-66.1102
-56.1089
-47.9706
-41.2142
-35.5156
-30.6499
-26.4573
-22.8211
-19.654
-16.8887
-14.4723
-12.3616
-10.5206
-8.91865
-7.5289
-6.32762
-5.29349
-4.40722
-3.65131
-3.00984
-2.46833
-2.01368
-1.63407
-1.31893
-1.0588
-0.845334
-0.671194
-0.529977
-0.416144
-0.324934
-0.252292
-0.194787
-0.149541
-0.114155
-0.0866485
-0.0653969
-0.049077
-0.0366204
-0.0271701
-0.0200438
-0.0147025
-0.0107231
-0.00777631
-0.00560723
-0.00402019
-0.00286595
-0.0020315
-0.00143183
-0.00100345
-0.00069925
-0.000484509
-0.000333817
-0.000228695
-0.000155796
-0.000105542
-7.11078e-05
-4.76583e-05
-3.17952e-05
-2.11467e-05
-1.40719e-05
-9.44925e-06
-6.52615e-06
-4.81583e-06
-4.02818e-06
-8241.71
-4839.7
-2746.95
-1655
-1077.71
-752.935
-556.515
-429.42
-342.241
-279.436
-232.3
-195.697
-166.457
-142.548
-122.626
-105.775
-91.3545
-78.9075
-68.0974
-58.6713
-50.4339
-43.2305
-36.9345
-31.4405
-26.6578
-22.5073
-18.9187
-15.8286
-13.1798
-10.9203
-9.00247
-7.38333
-6.02374
-4.88847
-3.94589
-3.16779
-2.52924
-2.00829
-1.58581
-1.24523
-0.972333
-0.754979
-0.582911
-0.447518
-0.341629
-0.259317
-0.19572
-0.14688
-0.109601
-0.0813185
-0.0599907
-0.0440048
-0.0320949
-0.0232752
-0.0167831
-0.012033
-0.00857831
-0.0060807
-0.00428581
-0.00300359
-0.00209305
-0.00145029
-0.000999224
-0.000684564
-0.000466355
-0.00031593
-0.000212855
-0.000142661
-9.51771e-05
-6.33018e-05
-4.21239e-05
-2.82861e-05
-1.95361e-05
-1.44163e-05
-1.20586e-05
-5538.78
-4227.93
-2971.01
-2076.56
-1488.55
-1104.45
-847.661
-670.027
-542.569
-447.847
-375.171
-317.82
-271.453
-233.193
-201.088
-173.784
-150.32
-129.997
-112.299
-96.833
-83.2943
-71.4379
-61.0632
-52.0013
-44.1064
-37.2505
-31.3194
-26.2098
-21.8282
-18.0892
-14.9147
-12.2339
-9.98241
-8.10197
-6.54042
-5.25119
-4.19302
-3.32963
-2.62936
-2.06479
-1.61238
-1.25201
-0.966712
-0.742207
-0.566614
-0.43011
-0.324638
-0.243636
-0.181806
-0.134894
-0.0995178
-0.0730007
-0.0532444
-0.0386137
-0.0278439
-0.0199637
-0.0142323
-0.0100887
-0.00711084
-0.00498352
-0.00347282
-0.00240636
-0.00165797
-0.00113588
-0.000773822
-0.000524228
-0.000353198
-0.000236726
-0.000157934
-0.000105042
-6.99008e-05
-4.69387e-05
-3.2419e-05
-2.39233e-05
-2.0011e-05
-4145.36
-3560.92
-2831.36
-2190.47
-1694.41
-1327.65
-1058.78
-859.723
-709.564
-593.76
-502.41
-428.792
-368.306
-317.772
-274.953
-238.257
-206.53
-178.918
-154.78
-133.621
-115.051
-98.7559
-84.4729
-71.9798
-61.083
-51.611
-43.41
-36.3402
-30.274
-25.0948
-20.6957
-16.9793
-13.857
-11.2485
-9.08187
-7.29265
-5.82381
-4.62513
-3.65277
-2.86873
-2.24035
-1.73977
-1.34342
-1.0315
-0.787511
-0.597824
-0.451248
-0.338673
-0.252735
-0.18753
-0.138355
-0.101493
-0.0740285
-0.0536884
-0.0387153
-0.0277591
-0.0197903
-0.0140289
-0.00988828
-0.00693021
-0.00482949
-0.00334649
-0.00230576
-0.00157972
-0.0010762
-0.00072909
-0.000491231
-0.000329247
-0.000219664
-0.000146101
-9.72247e-05
-6.52879e-05
-4.50928e-05
-3.32764e-05
-2.78348e-05
-3334.53
-3037.2
-2601.27
-2157.91
-1769.43
-1451.57
-1198.9
-999.494
-841.376
-714.59
-611.489
-526.396
-455.162
-394.759
-342.976
-298.182
-259.164
-225.003
-194.996
-168.589
-145.34
-124.886
-106.919
-91.1756
-77.4235
-65.4549
-55.0813
-46.1307
-38.4448
-31.8785
-26.2981
-21.5815
-17.617
-14.3039
-11.5509
-9.2769
-7.40957
-5.88536
-4.64866
-3.6513
-2.85182
-2.21484
-1.71042
-1.3134
-1.00281
-0.761323
-0.574699
-0.431353
-0.321917
-0.238877
-0.176246
-0.129296
-0.0943119
-0.0684016
-0.0493272
-0.0353693
-0.0252167
-0.0178762
-0.0126004
-0.00883129
-0.00615449
-0.00426474
-0.00293851
-0.00201328
-0.00137161
-0.000929235
-0.000626095
-0.000419647
-0.000279982
-0.000186223
-0.000123927
-8.32205e-05
-5.74796e-05
-4.24181e-05
-3.5482e-05
-2818.68
-2649.76
-2376.37
-2068.37
-1771.87
-1508.55
-1284.2
-1096.67
-940.798
-810.935
-702.012
-609.845
-531.124
-463.287
-404.37
-352.869
-307.627
-267.747
-232.52
-201.381
-173.863
-149.579
-128.195
-109.418
-92.9868
-78.6657
-66.2377
-55.503
-46.2768
-38.3884
-31.6798
-26.0063
-21.2352
-17.246
-13.9301
-11.1901
-8.93937
-7.1017
-5.61031
-4.40727
-3.44273
-2.67409
-2.06531
-1.58608
-1.21113
-0.919561
-0.694207
-0.521093
-0.388918
-0.288614
-0.212957
-0.156236
-0.113969
-0.0826629
-0.0596145
-0.0427477
-0.0304785
-0.0216072
-0.0152309
-0.0106753
-0.00743985
-0.0051556
-0.00355245
-0.00243398
-0.00165827
-0.00112348
-0.000756989
-0.000507394
-0.000338534
-0.000225172
-0.000149851
-0.000100631
-6.95068e-05
-5.1295e-05
-4.29081e-05
-2468.87
-2363.99
-2183.39
-1964.76
-1738.77
-1524.42
-1330.83
-1160.62
-1012.93
-885.369
-775.119
-679.488
-596.128
-523.087
-458.782
-401.944
-351.561
-306.819
-267.059
-231.737
-200.397
-172.645
-148.138
-126.569
-107.658
-91.1475
-76.7993
-64.3911
-53.7157
-44.5799
-36.8046
-30.2245
-24.6877
-20.056
-16.2042
-13.02
-10.4036
-8.26658
-6.53177
-5.13201
-4.00948
-3.11476
-2.40598
-1.84793
-1.41124
-1.0716
-0.809068
-0.607367
-0.453347
-0.336453
-0.248274
-0.182159
-0.132888
-0.096391
-0.0695188
-0.0498525
-0.035546
-0.0252009
-0.0177649
-0.012452
-0.00867839
-0.0060141
-0.00414416
-0.00283949
-0.00193461
-0.00131074
-0.000883193
-0.000592003
-0.000394996
-0.000262735
-0.000174853
-0.000117425
-8.11087e-05
-5.98586e-05
-5.00725e-05
-2220.61
-2150.66
-2025.27
-1865.54
-1691.26
-1517.06
-1351.89
-1200.19
-1063.44
-941.359
-832.833
-736.438
-650.727
-574.377
-506.234
-445.323
-390.825
-342.057
-298.446
-259.5
-224.794
-193.951
-166.633
-142.529
-121.35
-102.826
-86.7039
-72.7429
-60.7179
-50.4171
-41.6429
-34.2118
-27.9549
-22.7178
-18.3603
-14.7565
-11.794
-9.37356
-7.40798
-5.82156
-4.549
-3.53446
-2.73058
-2.09753
-1.60206
-1.21665
-0.918677
-0.689721
-0.514867
-0.382145
-0.282014
-0.206931
-0.150971
-0.109515
-0.0789891
-0.0566472
-0.0403931
-0.0286389
-0.0201896
-0.0141521
-0.0098638
-0.00683589
-0.00471063
-0.00322776
-0.00219923
-0.00149008
-0.00100407
-0.000673049
-0.000449087
-0.000298723
-0.00019881
-0.000133518
-9.22275e-05
-6.80664e-05
-5.69395e-05
-2038.5
-1989.02
-1897.9
-1777.47
-1640.55
-1497.84
-1356.99
-1222.73
-1097.58
-982.504
-877.538
-782.223
-695.868
-617.716
-547.034
-483.15
-425.463
-373.445
-326.63
-284.6
-246.98
-213.423
-183.609
-157.232
-134.005
-113.651
-95.9069
-80.5203
-67.2512
-55.8729
-46.172
-37.9496
-31.0215
-25.219
-20.3884
-16.3914
-13.1043
-10.4175
-8.23486
-6.47271
-5.05878
-3.93124
-3.03761
-2.33373
-1.78272
-1.35402
-1.02253
-0.767778
-0.573196
-0.42548
-0.314023
-0.230438
-0.168134
-0.121975
-0.0879825
-0.0631011
-0.044998
-0.0319057
-0.0224939
-0.0157683
-0.0109908
-0.00761729
-0.00524934
-0.00359704
-0.00245095
-0.0016607
-0.00111908
-0.000750171
-0.000500564
-0.000332977
-0.000221614
-0.000148838
-0.000102814
-7.58819e-05
-6.34788e-05
-1901.64
-1864.85
-1795.83
-1702.1
-1592.12
-1473.61
-1352.72
-1233.83
-1119.76
-1012.1
-911.612
-818.514
-732.695
-653.871
-581.682
-515.741
-455.666
-401.089
-351.661
-307.052
-266.947
-231.04
-199.037
-170.648
-145.592
-123.593
-104.382
-87.6992
-73.2947
-60.9292
-50.3766
-41.4247
-33.8766
-27.5505
-22.2811
-17.9187
-14.3294
-11.3944
-9.00931
-7.08301
-5.5369
-4.3036
-3.32591
-2.55564
-1.95253
-1.4832
-1.12023
-0.841241
-0.628112
-0.466293
-0.34418
-0.252591
-0.184314
-0.133724
-0.0964646
-0.0691896
-0.0493432
-0.034989
-0.0246692
-0.0172941
-0.012055
-0.00835531
-0.00575823
-0.00394594
-0.0026888
-0.00182194
-0.00122779
-0.000823077
-0.000549232
-0.000365365
-0.00024318
-0.000163328
-0.000112827
-8.32754e-05
-6.96656e-05
-1796.89
-1768.35
-1714.06
-1638.83
-1548.37
-1448.29
-1343.41
-1237.54
-1133.43
-1032.94
-937.22
-846.94
-762.405
-683.705
-610.79
-543.524
-481.726
-425.183
-373.667
-326.936
-284.742
-246.826
-212.927
-182.777
-156.105
-132.642
-112.118
-94.2692
-78.8379
-65.5763
-54.2479
-44.6297
-36.5135
-29.7069
-24.0337
-19.3345
-15.4663
-12.3018
-9.72924
-7.6508
-5.98203
-4.65051
-3.59467
-2.76263
-2.111
-1.60382
-1.2115
-0.909895
-0.679454
-0.504464
-0.372394
-0.273325
-0.199462
-0.144726
-0.10441
-0.0748944
-0.0534156
-0.0378794
-0.0267088
-0.0187252
-0.0130533
-0.00904774
-0.00623576
-0.0042734
-0.00291208
-0.00197332
-0.00132986
-0.000891543
-0.000594944
-0.00039579
-0.000263441
-0.000176943
-0.000122238
-9.02244e-05
-7.54808e-05
-1715.63
-1692.63
-1648.45
-1586.28
-1510.09
-1424
-1331.8
-1236.7
-1141.22
-1047.28
-956.226
-868.982
-786.151
-708.097
-635.016
-566.986
-504
-445.987
-392.832
-344.382
-300.455
-260.843
-225.321
-193.645
-165.562
-140.809
-119.121
-100.232
-83.8806
-69.8127
-57.7839
-47.5622
-38.93
-31.6857
-25.6441
-20.637
-16.5133
-13.1384
-10.3935
-8.17515
-6.39343
-4.97136
-3.84341
-2.95431
-2.25784
-1.71564
-1.29615
-0.973606
-0.727121
-0.539918
-0.39861
-0.292596
-0.213546
-0.15496
-0.111803
-0.0802036
-0.0572067
-0.0405707
-0.0286084
-0.0200583
-0.0139835
-0.00969306
-0.00668089
-0.0045787
-0.00312028
-0.00211451
-0.00142508
-0.000955419
-0.000637598
-0.000424183
-0.000282352
-0.000189653
-0.000131023
-9.67132e-05
-8.09115e-05
-1651.94
-1632.78
-1595.69
-1542.89
-1477.23
-1401.79
-1319.56
-1233.23
-1145.06
-1056.9
-970.164
-885.927
-804.978
-727.88
-655.017
-586.636
-522.877
-463.797
-409.38
-359.558
-314.211
-273.184
-236.286
-203.302
-173.997
-148.118
-125.407
-105.599
-88.431
-73.6441
-60.9882
-50.2243
-41.1274
-33.4878
-27.1127
-21.8263
-17.4704
-13.9038
-11.002
-8.65586
-6.7709
-5.26597
-4.07197
-3.13056
-2.39295
-1.81859
-1.37413
-1.03232
-0.771068
-0.57262
-0.422801
-0.310386
-0.226553
-0.164413
-0.118634
-0.0851113
-0.060712
-0.0430599
-0.0303659
-0.0212919
-0.0148444
-0.0102905
-0.00709308
-0.00486146
-0.00331315
-0.00224533
-0.00151332
-0.00101462
-0.000677137
-0.000450508
-0.000299887
-0.00020144
-0.000139173
-0.000102733
-8.59501e-05
-1601.64
-1585.2
-1553.19
-1507.22
-1449.39
-1382.07
-1307.65
-1228.4
-1146.33
-1063.14
-980.269
-898.856
-819.807
-743.817
-671.412
-602.971
-538.755
-478.924
-423.555
-372.652
-326.156
-283.959
-245.908
-211.814
-181.46
-154.608
-131.006
-110.393
-92.5053
-77.0823
-63.8696
-52.6226
-43.1104
-35.1166
-28.4419
-22.9041
-18.3388
-14.5992
-11.5553
-9.09339
-7.11477
-5.53457
-4.2805
-3.29149
-2.51638
-1.9127
-1.44545
-1.08605
-0.811309
-0.602577
-0.444971
-0.326697
-0.238482
-0.173088
-0.124904
-0.0896174
-0.0639314
-0.0453468
-0.0319809
-0.0224259
-0.0156361
-0.0108399
-0.00747224
-0.00512162
-0.00349064
-0.00236573
-0.00159455
-0.00106914
-0.000713551
-0.000474756
-0.000316042
-0.000212302
-0.000146684
-0.000108282
-9.05948e-05
-1561.69
-1547.21
-1518.9
-1477.97
-1426.01
-1364.91
-1296.62
-1223.04
-1145.98
-1067
-987.506
-908.655
-831.418
-756.581
-684.769
-616.461
-552.016
-491.681
-435.608
-383.865
-336.45
-293.297
-254.287
-219.258
-188.012
-160.326
-135.954
-114.641
-96.1253
-80.1443
-66.441
-54.7671
-44.8865
-36.5779
-29.6362
-23.8738
-19.1211
-15.2263
-12.0548
-9.48877
-7.42579
-5.77772
-4.46943
-3.43738
-2.62836
-1.99813
-1.51024
-1.13489
-0.847901
-0.629832
-0.465151
-0.34155
-0.24935
-0.180993
-0.130621
-0.0937269
-0.0668686
-0.0474337
-0.0334552
-0.0234613
-0.0163591
-0.0113419
-0.00781872
-0.00535941
-0.0036529
-0.00247583
-0.00166884
-0.001119
-0.000746867
-0.000496945
-0.000330828
-0.000222244
-0.00015356
-0.000113363
-9.48487e-05
-1529.82
-1516.79
-1491.21
-1454.03
-1406.52
-1350.2
-1286.69
-1217.66
-1144.68
-1069.22
-992.621
-916.034
-840.463
-766.751
-695.59
-627.537
-563.024
-502.368
-445.786
-393.4
-345.257
-301.328
-261.528
-225.719
-193.722
-165.325
-140.294
-118.378
-99.3177
-82.8509
-68.7188
-56.6704
-46.4658
-37.8793
-30.7014
-24.7399
-19.8207
-15.7877
-12.5025
-9.84352
-7.70511
-5.99629
-4.63939
-3.56874
-2.72926
-2.07516
-1.56869
-1.17897
-0.880949
-0.65446
-0.483394
-0.354984
-0.259184
-0.188149
-0.135797
-0.0974498
-0.0695302
-0.0493256
-0.034792
-0.0244005
-0.0170151
-0.0117974
-0.00813325
-0.00557532
-0.00380027
-0.00257585
-0.00173634
-0.00116432
-0.00077715
-0.000517118
-0.000344273
-0.000231287
-0.000159816
-0.000117986
-9.87195e-05
-1504.34
-1492.38
-1468.84
-1434.48
-1390.36
-1337.72
-1277.97
-1212.54
-1142.88
-1070.34
-996.182
-921.559
-847.479
-774.817
-704.315
-636.582
-572.109
-511.267
-454.325
-401.455
-352.74
-308.189
-267.743
-231.288
-198.661
-169.665
-144.073
-121.641
-102.113
-85.226
-70.7221
-58.3476
-47.8599
-39.03
-31.6447
-25.508
-20.442
-16.2869
-12.901
-10.1596
-7.95423
-6.19139
-4.79123
-3.68618
-2.81953
-2.14412
-1.62105
-1.21849
-0.910593
-0.676563
-0.499776
-0.367053
-0.268022
-0.194583
-0.140454
-0.1008
-0.0719263
-0.0510292
-0.0359963
-0.0252468
-0.0176064
-0.0122082
-0.00841691
-0.00577009
-0.00393325
-0.00266612
-0.00179728
-0.00120524
-0.000804499
-0.00053534
-0.00035642
-0.000239458
-0.000165469
-0.000122165
-0.000102219
-1483.93
-1472.77
-1450.76
-1418.55
-1377.01
-1327.23
-1270.42
-1207.86
-1140.88
-1070.72
-998.617
-925.672
-852.898
-781.189
-711.317
-643.932
-579.566
-518.634
-461.448
-408.216
-359.058
-314.011
-273.041
-236.054
-202.904
-173.406
-147.341
-124.471
-104.542
-87.2955
-72.4712
-59.8149
-49.0818
-40.0403
-32.4742
-26.1843
-20.9897
-16.7276
-13.2532
-10.4393
-8.17485
-6.36434
-4.92595
-3.79046
-2.89975
-2.20545
-1.66765
-1.25368
-0.937005
-0.696267
-0.514387
-0.377822
-0.275913
-0.20033
-0.144615
-0.103795
-0.0740689
-0.0525533
-0.037074
-0.0260044
-0.0181358
-0.0125761
-0.00867105
-0.00594464
-0.00405244
-0.00274705
-0.00185193
-0.00124194
-0.000829036
-0.000551692
-0.000367323
-0.000246794
-0.000170546
-0.000125918
-0.000105362
-1467.57
-1457.01
-1436.17
-1405.59
-1366.04
-1318.47
-1263.96
-1203.69
-1138.86
-1070.65
-1000.24
-928.715
-857.068
-786.204
-716.915
-649.878
-585.656
-524.701
-467.354
-413.857
-364.358
-318.919
-277.527
-240.106
-206.525
-176.609
-150.147
-126.907
-106.64
-89.0862
-73.9879
-61.0897
-50.1453
-40.9211
-33.1985
-26.7758
-21.4694
-17.1139
-13.5623
-10.685
-8.36891
-6.5166
-5.04466
-3.88243
-2.97055
-2.25962
-1.70884
-1.2848
-0.960378
-0.713714
-0.527332
-0.387369
-0.282911
-0.205429
-0.148308
-0.106454
-0.0759723
-0.0539076
-0.038032
-0.0266781
-0.0186068
-0.0129034
-0.00889726
-0.00610005
-0.00415859
-0.00281915
-0.00190062
-0.00127465
-0.000850909
-0.000566271
-0.000377046
-0.000253337
-0.000175075
-0.000129267
-0.000108168
-1454.45
-1444.35
-1424.4
-1395.07
-1357.05
-1311.2
-1258.51
-1200.04
-1136.93
-1070.31
-1001.3
-930.954
-860.266
-790.137
-721.372
-654.667
-590.608
-529.671
-472.226
-418.538
-368.779
-323.032
-281.302
-243.53
-209.595
-179.332
-152.54
-128.991
-108.438
-90.625
-75.294
-62.1896
-51.0646
-41.6838
-33.8266
-27.2894
-21.8865
-17.4503
-13.8318
-10.8994
-8.53844
-6.64975
-5.14856
-3.96299
-3.03262
-2.30714
-1.74499
-1.31214
-0.980924
-0.72906
-0.538724
-0.395774
-0.289075
-0.209923
-0.151565
-0.1088
-0.077652
-0.0551033
-0.038878
-0.0272733
-0.0190231
-0.0131928
-0.00909729
-0.00623751
-0.00425252
-0.00288295
-0.00194372
-0.00130362
-0.00087028
-0.000579186
-0.000385661
-0.000259136
-0.00017909
-0.000132237
-0.000110655
-1443.94
-1434.19
-1414.92
-1386.55
-1349.72
-1305.21
-1253.93
-1196.9
-1135.17
-1069.83
-1001.96
-932.591
-862.709
-793.212
-724.909
-658.508
-594.615
-533.723
-476.223
-422.4
-372.444
-326.457
-284.46
-246.404
-212.181
-181.634
-154.569
-130.761
-109.969
-91.9385
-76.4113
-63.1324
-51.8539
-42.3396
-34.3676
-27.7325
-22.2468
-17.7413
-14.0652
-11.0853
-8.68554
-6.76539
-5.23888
-4.03308
-3.08667
-2.34855
-1.77653
-1.336
-0.998865
-0.742468
-0.548683
-0.403127
-0.294471
-0.213858
-0.154417
-0.110855
-0.0791247
-0.0561519
-0.0396204
-0.0277957
-0.0193885
-0.013447
-0.00927303
-0.00635832
-0.00433508
-0.00293905
-0.00198163
-0.0013291
-0.000887325
-0.000590553
-0.000393245
-0.000264242
-0.000182626
-0.000134853
-0.000112847
-1435.53
-1426.05
-1407.3
-1379.67
-1343.76
-1300.29
-1250.13
-1194.22
-1133.59
-1069.28
-1002.34
-933.78
-864.571
-795.608
-727.705
-661.578
-597.844
-537.011
-479.486
-425.569
-375.467
-329.295
-287.085
-248.802
-214.345
-183.566
-156.276
-132.256
-111.265
-93.0524
-77.3607
-63.935
-52.5271
-42.9
-34.8305
-28.1121
-22.5559
-17.9912
-14.2658
-11.2454
-8.81232
-6.86516
-5.31688
-4.09366
-3.13342
-2.3844
-1.80384
-1.35668
-1.01443
-0.754106
-0.557332
-0.409516
-0.299161
-0.217281
-0.1569
-0.112645
-0.0804073
-0.0570657
-0.0402675
-0.0282512
-0.0197073
-0.0136688
-0.00942643
-0.00646379
-0.00440718
-0.00298807
-0.00201476
-0.00135137
-0.000902228
-0.000600493
-0.000399879
-0.000268709
-0.00018572
-0.000137142
-0.000114765
-1428.8
-1419.53
-1401.18
-1374.13
-1338.93
-1296.27
-1246.98
-1191.97
-1132.21
-1068.73
-1002.54
-934.638
-865.984
-797.47
-729.908
-664.022
-600.435
-539.667
-482.137
-428.157
-377.947
-331.631
-289.256
-250.791
-216.146
-185.179
-157.705
-133.51
-112.355
-93.9909
-78.1622
-64.6138
-53.0975
-43.3755
-35.2239
-28.4352
-22.8193
-18.2045
-14.4373
-11.3823
-8.92088
-6.95067
-5.38379
-4.14568
-3.17359
-2.41523
-1.82735
-1.37449
-1.02784
-0.764141
-0.564795
-0.415031
-0.303212
-0.220238
-0.159046
-0.114193
-0.0815173
-0.0578567
-0.0408278
-0.0286459
-0.0199836
-0.013861
-0.00955945
-0.00655529
-0.00446976
-0.00303061
-0.00204352
-0.00137071
-0.000915173
-0.00060913
-0.000405644
-0.000272593
-0.000188411
-0.000139133
-0.000116434
-1423.44
-1414.33
-1396.29
-1369.68
-1335.04
-1293.01
-1244.4
-1190.09
-1131.03
-1068.2
-1002.62
-935.251
-867.054
-798.912
-731.639
-665.96
-602.505
-541.803
-484.28
-430.26
-379.97
-333.545
-291.039
-252.431
-217.636
-186.517
-158.894
-134.555
-113.265
-94.7767
-78.8345
-65.1843
-53.5777
-43.7764
-35.5561
-28.7084
-23.0424
-18.3853
-14.5828
-11.4986
-9.01322
-7.02347
-5.44081
-4.19004
-3.20789
-2.44157
-1.84744
-1.38973
-1.03932
-0.772737
-0.571191
-0.419761
-0.306689
-0.222778
-0.16089
-0.115524
-0.0824715
-0.058537
-0.04131
-0.0289855
-0.0202215
-0.0140267
-0.00967408
-0.00663416
-0.0045237
-0.0030673
-0.00206833
-0.0013874
-0.000926345
-0.000616586
-0.000410622
-0.000275947
-0.000190735
-0.000140854
-0.000117876
-1419.17
-1410.18
-1392.38
-1366.12
-1331.9
-1290.37
-1242.3
-1188.54
-1130.02
-1067.72
-1002.62
-935.686
-867.86
-800.026
-732.993
-667.491
-604.153
-543.513
-486.005
-431.96
-381.612
-335.104
-292.497
-253.776
-218.861
-187.62
-159.876
-135.42
-114.021
-95.4304
-79.395
-65.6607
-53.9793
-44.1123
-35.8349
-28.938
-23.2301
-18.5376
-14.7056
-11.5968
-9.09125
-7.08506
-5.48909
-4.22764
-3.23697
-2.46392
-1.86451
-1.40268
-1.04909
-0.780054
-0.576638
-0.423792
-0.309652
-0.224944
-0.162463
-0.11666
-0.0832866
-0.0591184
-0.0417222
-0.029276
-0.020425
-0.0141684
-0.00977221
-0.0067017
-0.00456991
-0.00309874
-0.0020896
-0.00140171
-0.000935927
-0.000622981
-0.000414893
-0.000278825
-0.00019273
-0.000142331
-0.000119115
-1415.78
-1406.89
-1389.28
-1363.28
-1329.39
-1288.24
-1240.59
-1187.26
-1129.18
-1067.29
-1002.58
-935.991
-868.467
-800.883
-734.05
-668.697
-605.459
-544.877
-487.387
-433.327
-382.938
-336.368
-293.683
-254.873
-219.863
-188.524
-160.683
-136.133
-114.645
-95.9709
-79.8592
-66.056
-54.3131
-44.3919
-36.0672
-29.1296
-23.3869
-18.6651
-14.8084
-11.6791
-9.15676
-7.13681
-5.5297
-4.25929
-3.26148
-2.48277
-1.87892
-1.41362
-1.05734
-0.78624
-0.581247
-0.427204
-0.312163
-0.226779
-0.163797
-0.117623
-0.0839783
-0.059612
-0.0420723
-0.0295229
-0.020598
-0.0142889
-0.00985568
-0.00675917
-0.00460925
-0.0031255
-0.00210771
-0.0014139
-0.000944091
-0.000628432
-0.000418534
-0.00028128
-0.000194432
-0.000143591
-0.000120171
-1413.1
-1404.28
-1386.81
-1361.02
-1327.39
-1286.54
-1239.21
-1186.22
-1128.48
-1066.92
-1002.51
-936.203
-868.921
-801.541
-734.872
-669.642
-606.491
-545.959
-488.488
-434.422
-384.003
-337.387
-294.641
-255.762
-220.677
-189.26
-161.342
-136.717
-115.156
-96.4151
-80.2414
-66.382
-54.5888
-44.6232
-36.2597
-29.2886
-23.5172
-18.771
-14.894
-11.7478
-9.21141
-7.18003
-5.56364
-4.28576
-3.28199
-2.49856
-1.891
-1.4228
-1.06427
-0.791438
-0.585122
-0.430074
-0.314276
-0.228325
-0.164921
-0.118435
-0.0845617
-0.0600285
-0.0423678
-0.0297313
-0.0207441
-0.0143908
-0.00992623
-0.00680775
-0.00464252
-0.00314815
-0.00212304
-0.00142421
-0.000951003
-0.000633049
-0.000421618
-0.000283359
-0.000195874
-0.00014466
-0.000121067
-1410.99
-1402.22
-1384.86
-1359.23
-1325.8
-1285.18
-1238.1
-1185.38
-1127.9
-1066.6
-1002.44
-936.348
-869.261
-802.045
-735.509
-670.381
-607.302
-546.814
-489.363
-435.294
-384.855
-338.203
-295.412
-256.479
-221.335
-189.857
-161.877
-137.192
-115.573
-96.778
-80.5542
-66.6492
-54.8151
-44.8133
-36.4182
-29.4196
-23.6247
-18.8586
-14.9648
-11.8046
-9.25671
-7.21589
-5.59183
-4.30777
-3.29906
-2.51171
-1.90106
-1.43045
-1.07005
-0.795777
-0.588358
-0.432472
-0.316042
-0.229618
-0.165862
-0.119115
-0.0850504
-0.0603775
-0.0426156
-0.0299062
-0.0208668
-0.0144763
-0.00998548
-0.00684857
-0.00467047
-0.00316718
-0.00213592
-0.00143289
-0.000956819
-0.000636934
-0.000424215
-0.00028511
-0.000197089
-0.00014556
-0.000121822
-1409.32
-1400.6
-1383.33
-1357.81
-1324.54
-1284.1
-1237.21
-1184.7
-1127.43
-1066.33
-1002.36
-936.446
-869.513
-802.429
-736.001
-670.957
-607.937
-547.487
-490.054
-435.985
-385.533
-338.855
-296.029
-257.054
-221.864
-190.339
-162.31
-137.576
-115.911
-97.0726
-80.8086
-66.8669
-54.9998
-44.9687
-36.5479
-29.527
-23.7129
-18.9305
-15.023
-11.8514
-9.29403
-7.24545
-5.61509
-4.32595
-3.31317
-2.52259
-1.90939
-1.43679
-1.07484
-0.799376
-0.591044
-0.434465
-0.317511
-0.230694
-0.166644
-0.119681
-0.0854574
-0.0606683
-0.0428221
-0.0300519
-0.020969
-0.0145476
-0.0100349
-0.00688265
-0.00469382
-0.00318308
-0.00214669
-0.00144014
-0.00096168
-0.000640182
-0.000426386
-0.000286575
-0.000198105
-0.000146313
-0.000122454
-1408.02
-1399.33
-1382.12
-1356.7
-1323.54
-1283.24
-1236.51
-1184.15
-1127.05
-1066.11
-1002.29
-936.511
-869.701
-802.722
-736.38
-671.403
-608.432
-548.014
-490.598
-436.531
-386.069
-339.373
-296.52
-257.513
-222.288
-190.724
-162.657
-137.885
-116.184
-97.3105
-81.0143
-67.0432
-55.1496
-45.0949
-36.6533
-29.6144
-23.7848
-18.9892
-15.0705
-11.8896
-9.32457
-7.26967
-5.63416
-4.34086
-3.32475
-2.53153
-1.91624
-1.44201
-1.07879
-0.802342
-0.59326
-0.436108
-0.318723
-0.231582
-0.167291
-0.12015
-0.085794
-0.0609089
-0.0429931
-0.0301726
-0.0210538
-0.0146067
-0.0100759
-0.00691091
-0.00471319
-0.00319628
-0.00215563
-0.00144617
-0.000965719
-0.000642881
-0.000428191
-0.000287793
-0.00019895
-0.000146939
-0.000122979
-1407
-1398.34
-1381.18
-1355.83
-1322.76
-1282.57
-1235.95
-1183.72
-1126.74
-1065.93
-1002.22
-936.553
-869.839
-802.943
-736.67
-671.748
-608.817
-548.426
-491.023
-436.96
-386.492
-339.781
-296.909
-257.877
-222.624
-191.031
-162.934
-138.133
-116.402
-97.5014
-81.1796
-67.1851
-55.2703
-45.1967
-36.7385
-29.6851
-23.843
-19.0368
-15.1091
-11.9207
-9.34942
-7.28939
-5.6497
-4.35303
-3.33421
-2.53883
-1.92185
-1.44627
-1.08202
-0.804772
-0.595075
-0.437456
-0.319717
-0.232311
-0.167822
-0.120534
-0.0860707
-0.0611068
-0.0431337
-0.030272
-0.0211235
-0.0146554
-0.0101097
-0.00693421
-0.00472916
-0.00320716
-0.00216301
-0.00145114
-0.000969052
-0.000645109
-0.000429681
-0.000288799
-0.000199649
-0.000147457
-0.000123414
-1406.21
-1397.57
-1380.44
-1355.15
-1322.15
-1282.04
-1235.52
-1183.38
-1126.49
-1065.78
-1002.16
-936.579
-869.941
-803.111
-736.892
-672.013
-609.115
-548.746
-491.355
-437.296
-386.823
-340.103
-297.215
-258.165
-222.891
-191.275
-163.154
-138.329
-116.576
-97.6537
-81.3117
-67.2986
-55.367
-45.2784
-36.8069
-29.742
-23.8899
-19.0752
-15.1403
-11.9458
-9.36951
-7.30535
-5.66229
-4.36289
-3.34188
-2.54476
-1.9264
-1.44974
-1.08464
-0.80675
-0.596554
-0.438555
-0.320528
-0.232906
-0.168256
-0.120848
-0.0862968
-0.0612686
-0.0432487
-0.0303533
-0.0211806
-0.0146953
-0.0101374
-0.0069533
-0.00474225
-0.00321609
-0.00216905
-0.00145521
-0.000971786
-0.000646938
-0.000430904
-0.000289624
-0.000200222
-0.000147882
-0.000123771
-1405.59
-1396.97
-1379.87
-1354.62
-1321.68
-1281.63
-1235.17
-1183.11
-1126.3
-1065.66
-1002.11
-936.594
-870.015
-803.237
-737.061
-672.217
-609.345
-548.993
-491.613
-437.556
-387.082
-340.354
-297.455
-258.391
-223.1
-191.467
-163.328
-138.485
-116.714
-97.7746
-81.4167
-67.389
-55.4441
-45.3436
-36.8616
-29.7874
-23.9274
-19.1059
-15.1653
-11.966
-9.38565
-7.31818
-5.67242
-4.37083
-3.34807
-2.54954
-1.93007
-1.45254
-1.08677
-0.808349
-0.59775
-0.439444
-0.321185
-0.233388
-0.168607
-0.121103
-0.0864803
-0.0613999
-0.0433422
-0.0304194
-0.0212271
-0.0147277
-0.0101599
-0.00696883
-0.0047529
-0.00322335
-0.00217398
-0.00145853
-0.000974015
-0.000648429
-0.000431902
-0.000290298
-0.00020069
-0.000148229
-0.000124062
-1405.12
-1396.5
-1379.43
-1354.22
-1321.31
-1281.31
-1234.91
-1182.9
-1126.15
-1065.56
-1002.07
-936.603
-870.07
-803.331
-737.19
-672.372
-609.521
-549.183
-491.811
-437.758
-387.282
-340.549
-297.642
-258.567
-223.264
-191.617
-163.464
-138.607
-116.823
-97.8699
-81.4996
-67.4604
-55.5051
-45.3953
-36.905
-29.8236
-23.9573
-19.1304
-15.1852
-11.982
-9.39854
-7.32844
-5.68053
-4.37719
-3.35302
-2.55338
-1.93302
-1.45479
-1.08847
-0.809635
-0.598713
-0.44016
-0.321714
-0.233776
-0.168891
-0.121308
-0.0866284
-0.061506
-0.0434176
-0.0304727
-0.0212646
-0.0147539
-0.0101781
-0.0069814
-0.00476152
-0.00322923
-0.00217797
-0.00146122
-0.000975821
-0.000649636
-0.00043271
-0.000290844
-0.000201069
-0.00014851
-0.000124298
-1404.76
-1396.15
-1379.09
-1353.9
-1321.03
-1281.06
-1234.7
-1182.74
-1126.03
-1065.48
-1002.03
-936.607
-870.109
-803.402
-737.287
-672.491
-609.655
-549.329
-491.964
-437.914
-387.437
-340.701
-297.787
-258.704
-223.392
-191.734
-163.571
-138.703
-116.908
-97.9446
-81.5647
-67.5166
-55.5532
-45.436
-36.9392
-29.8521
-23.9809
-19.1498
-15.201
-11.9948
-9.40877
-7.33659
-5.68697
-4.38225
-3.35697
-2.55643
-1.93537
-1.45659
-1.08984
-0.810662
-0.599482
-0.440733
-0.322137
-0.234087
-0.169118
-0.121473
-0.0867471
-0.061591
-0.0434782
-0.0305156
-0.0212947
-0.0147749
-0.0101927
-0.0069915
-0.00476846
-0.00323396
-0.00218118
-0.00146339
-0.000977274
-0.000650609
-0.000433361
-0.000291284
-0.000201375
-0.000148737
-0.000124488
-1404.48
-1395.88
-1378.83
-1353.66
-1320.81
-1280.87
-1234.54
-1182.61
-1125.93
-1065.42
-1002.01
-936.609
-870.138
-803.455
-737.36
-672.58
-609.758
-549.441
-492.081
-438.034
-387.556
-340.817
-297.899
-258.81
-223.49
-191.825
-163.653
-138.777
-116.974
-98.0029
-81.6156
-67.5605
-55.5908
-45.4679
-36.9661
-29.8745
-23.9995
-19.165
-15.2134
-12.0048
-9.41684
-7.34302
-5.69206
-4.38625
-3.36009
-2.55885
-1.93723
-1.45801
-1.09092
-0.811478
-0.600093
-0.441188
-0.322474
-0.234335
-0.169298
-0.121604
-0.0868417
-0.0616588
-0.0435265
-0.0305497
-0.0213187
-0.0147918
-0.0102044
-0.00699956
-0.00477399
-0.00323774
-0.00218374
-0.00146512
-0.000978437
-0.000651387
-0.000433882
-0.000291636
-0.000201619
-0.000148919
-0.000124641
-1404.27
-1395.67
-1378.64
-1353.48
-1320.65
-1280.73
-1234.42
-1182.51
-1125.86
-1065.38
-1001.98
-936.609
-870.159
-803.494
-737.415
-672.648
-609.835
-549.525
-492.171
-438.125
-387.648
-340.906
-297.985
-258.891
-223.567
-191.896
-163.717
-138.835
-117.025
-98.0482
-81.655
-67.5947
-55.62
-45.4928
-36.987
-29.892
-24.014
-19.1769
-15.2231
-12.0127
-9.42317
-7.34807
-5.69606
-4.3894
-3.36254
-2.56076
-1.93869
-1.45914
-1.09177
-0.812121
-0.600576
-0.441547
-0.32274
-0.23453
-0.169441
-0.121708
-0.0869166
-0.0617125
-0.0435647
-0.0305768
-0.0213378
-0.0148051
-0.0102137
-0.00700597
-0.00477839
-0.00324075
-0.00218578
-0.0014665
-0.000979361
-0.000652006
-0.000434297
-0.000291916
-0.000201814
-0.000149063
-0.000124762
-1404.1
-1395.51
-1378.49
-1353.34
-1320.52
-1280.62
-1234.33
-1182.44
-1125.81
-1065.34
-1001.96
-936.608
-870.174
-803.523
-737.455
-672.699
-609.894
-549.589
-492.238
-438.194
-387.717
-340.975
-298.051
-258.954
-223.625
-191.949
-163.766
-138.879
-117.065
-98.083
-81.6855
-67.6211
-55.6427
-45.512
-37.0033
-29.9056
-24.0252
-19.1862
-15.2307
-12.0189
-9.4281
-7.35201
-5.69918
-4.39185
-3.36446
-2.56225
-1.93984
-1.46001
-1.09244
-0.812626
-0.600955
-0.441829
-0.322949
-0.234684
-0.169554
-0.12179
-0.0869755
-0.0617548
-0.0435949
-0.0305982
-0.0213528
-0.0148156
-0.010221
-0.00701102
-0.00478187
-0.00324312
-0.00218739
-0.00146758
-0.000980091
-0.000652495
-0.000434624
-0.000292137
-0.000201968
-0.000149177
-0.000124858
-1403.98
-1395.39
-1378.37
-1353.23
-1320.42
-1280.53
-1234.26
-1182.38
-1125.76
-1065.31
-1001.95
-936.607
-870.184
-803.544
-737.486
-672.737
-609.938
-549.638
-492.289
-438.247
-387.77
-341.026
-298.101
-259.001
-223.669
-191.991
-163.804
-138.913
-117.095
-98.1098
-81.7089
-67.6414
-55.6601
-45.5269
-37.0158
-29.9161
-24.0339
-19.1934
-15.2365
-12.0236
-9.43192
-7.35506
-5.7016
-4.39376
-3.36596
-2.5634
-1.94074
-1.4607
-1.09296
-0.813019
-0.60125
-0.44205
-0.323112
-0.234804
-0.169642
-0.121854
-0.0870216
-0.0617878
-0.0436185
-0.0306149
-0.0213646
-0.0148238
-0.0102267
-0.00701499
-0.00478459
-0.00324498
-0.00218865
-0.00146844
-0.000980664
-0.000652879
-0.000434882
-0.000292311
-0.000202089
-0.000149267
-0.000124933
-1403.89
-1395.3
-1378.29
-1353.15
-1320.35
-1280.47
-1234.2
-1182.34
-1125.73
-1065.29
-1001.94
-936.605
-870.192
-803.56
-737.508
-672.765
-609.97
-549.674
-492.327
-438.286
-387.809
-341.065
-298.138
-259.037
-223.703
-192.022
-163.832
-138.939
-117.118
-98.1302
-81.7268
-67.6569
-55.6734
-45.5382
-37.0254
-29.9241
-24.0406
-19.1989
-15.241
-12.0273
-9.43487
-7.35742
-5.70347
-4.39523
-3.36711
-2.5643
-1.94143
-1.46123
-1.09336
-0.813324
-0.601479
-0.442221
-0.323239
-0.234897
-0.16971
-0.121903
-0.0870575
-0.0618136
-0.0436368
-0.0306279
-0.0213738
-0.0148303
-0.0102312
-0.00701808
-0.00478671
-0.00324643
-0.00218964