/*--------------------------------*- C++ -*----------------------------------*\
  =========                 |
  \\      /  F ield         | OpenFOAM: The Open Source CFD Toolbox
   \\    /   O peration     | Website:  https://openfoam.org
    \\  /    A nd           | Version:  10
     \\/     M anipulation  |
\*---------------------------------------------------------------------------*/
FoamFile
{
    format      ascii;
    class       volScalarField;
    location    "475";
    object      gradTz;
}
// * * * * * * * * * * * * * * * * * * * * * * * * * * * * * * * * * * * * * //

dimensions      [0 -1 0 1 0 0 0];

internalField   nonuniform List<scalar> 
11250
(
-14340.7
-4136.35
-1516.42
-713.38
-409.33
-268.483
-191.963
-145.362
-114.586
-93.0069
-77.1578
-65.0752
-55.5768
-47.9164
-41.6047
-36.3108
-31.8046
-27.9228
-24.5465
-21.5879
-18.9807
-16.6739
-14.6273
-12.8088
-11.1923
-9.75575
-8.48046
-7.35021
-6.35063
-5.4689
-4.69339
-4.01349
-3.41949
-2.90243
-2.45407
-2.06685
-1.73379
-1.44854
-1.20527
-0.998722
-0.824123
-0.677194
-0.554109
-0.451468
-0.366268
-0.295871
-0.237974
-0.190579
-0.151961
-0.120641
-0.0953591
-0.075046
-0.0588015
-0.0458714
-0.0356277
-0.02755
-0.0212101
-0.0162574
-0.0124065
-0.00942607
-0.00713023
-0.00536995
-0.00402663
-0.00300633
-0.00223508
-0.00165497
-0.00122089
-0.000897965
-0.00065937
-0.000484678
-0.000358481
-0.000269347
-0.000209004
-0.000171739
-0.000153967
-8226.25
-4824.49
-2732.24
-1641
-1064.65
-740.996
-545.854
-420.161
-334.475
-273.217
-227.648
-192.598
-164.863
-142.385
-123.795
-108.156
-94.8124
-83.296
-73.2642
-64.4627
-56.6986
-49.8232
-43.7193
-38.2928
-33.4665
-29.1758
-25.3656
-21.9877
-18.9996
-16.3633
-14.0441
-12.0105
-10.2336
-8.68674
-7.34525
-6.18656
-5.18989
-4.33619
-3.6081
-2.98988
-2.46725
-2.02744
-1.65898
-1.35171
-1.09664
-0.885883
-0.712545
-0.570644
-0.455019
-0.361243
-0.285543
-0.224721
-0.17608
-0.137363
-0.106689
-0.0825006
-0.063516
-0.0486851
-0.0371531
-0.0282281
-0.021353
-0.0160816
-0.0120588
-0.00900327
-0.00669361
-0.00495632
-0.00365637
-0.00268927
-0.00197472
-0.00145155
-0.00107361
-0.00080667
-0.000625953
-0.000514349
-0.000461126
-5513.1
-4202.67
-2946.57
-2053.32
-1466.87
-1084.62
-829.955
-654.651
-529.671
-437.519
-367.446
-312.672
-268.806
-232.922
-203.03
-177.738
-156.062
-137.284
-120.879
-106.45
-93.6977
-82.3862
-72.3304
-63.3807
-55.4134
-48.3248
-42.0257
-36.4382
-31.4932
-27.1284
-23.2875
-19.9185
-16.9739
-14.4099
-12.1859
-10.2646
-8.61172
-7.19573
-5.98794
-4.96227
-4.09513
-3.36531
-2.75385
-2.2439
-1.82055
-1.47073
-1.183
-0.947444
-0.755495
-0.599812
-0.474133
-0.373149
-0.292388
-0.228102
-0.177169
-0.137005
-0.10548
-0.080852
-0.0617018
-0.0468804
-0.0354629
-0.0267086
-0.0200277
-0.0149532
-0.0111173
-0.00823197
-0.00607295
-0.00446671
-0.00327994
-0.00241099
-0.00178326
-0.00133989
-0.00103972
-0.000854355
-0.000765956
-4109.61
-3525.74
-2797.32
-2158.11
-1664.21
-1300.04
-1034.13
-838.311
-691.604
-579.378
-491.652
-421.623
-364.62
-317.395
-277.655
-243.763
-214.525
-189.065
-166.727
-147.013
-129.538
-114.001
-100.162
-87.8253
-76.8279
-67.032
-58.3187
-50.5834
-43.7327
-37.6822
-32.355
-27.6804
-23.5931
-20.0327
-16.9436
-14.2743
-11.9773
-10.0091
-8.32997
-6.90381
-5.69791
-4.68283
-3.83228
-3.12284
-2.53384
-2.04708
-1.64669
-1.31887
-1.05172
-0.835032
-0.660095
-0.519524
-0.407098
-0.317602
-0.246692
-0.190773
-0.14688
-0.112589
-0.0859239
-0.0652857
-0.0493868
-0.037196
-0.0278924
-0.0208256
-0.0154836
-0.0114652
-0.00845835
-0.0062213
-0.00456842
-0.00335817
-0.00248387
-0.00186633
-0.00144826
-0.00119007
-0.00106694
-3288.89
-2992.3
-2557.82
-2116.6
-1730.87
-1416.32
-1167.42
-972.159
-818.448
-696.23
-597.754
-517.244
-450.455
-394.277
-346.425
-305.209
-269.369
-237.956
-210.246
-185.684
-163.833
-144.347
-126.947
-111.403
-97.5231
-85.1411
-74.1137
-64.3137
-55.6264
-47.948
-41.1829
-35.243
-30.0467
-25.5184
-21.5879
-18.1903
-15.2657
-12.7591
-10.6201
-8.80303
-7.26624
-5.97241
-4.88812
-3.98359
-3.23251
-2.61174
-2.10106
-1.6829
-1.3421
-1.06564
-0.842441
-0.663072
-0.519607
-0.405395
-0.314898
-0.243527
-0.187504
-0.143734
-0.109696
-0.0833508
-0.0630544
-0.0474912
-0.0356135
-0.0265912
-0.0197707
-0.0146401
-0.0108008
-0.00794439
-0.00583383
-0.00428844
-0.00317201
-0.00238344
-0.00184956
-0.00151985
-0.00136262
-2763.38
-2595.36
-2323.74
-2018.32
-1725.16
-1465.85
-1246.07
-1063.56
-913.021
-788.691
-685.372
-598.756
-525.42
-462.701
-408.546
-361.379
-319.989
-283.437
-250.994
-222.089
-196.265
-173.154
-152.457
-133.922
-117.336
-102.515
-89.2949
-77.5313
-67.0922
-57.8566
-49.7129
-42.5576
-36.2942
-30.833
-26.0905
-21.9893
-18.4577
-15.4299
-12.8455
-10.6493
-8.79142
-7.22698
-5.91564
-4.82151
-3.91285
-3.16174
-2.54374
-2.03764
-1.62513
-1.29047
-1.02024
-0.803069
-0.62935
-0.491044
-0.381447
-0.295008
-0.227152
-0.174134
-0.132903
-0.100988
-0.0763995
-0.0575445
-0.0431538
-0.0322222
-0.0239581
-0.0177414
-0.0130891
-0.00962781
-0.0070702
-0.00519743
-0.00384445
-0.00288878
-0.00224176
-0.00184217
-0.00165162
-2404.21
-2300.37
-2121.84
-1906.23
-1684.15
-1474.49
-1286.24
-1121.89
-980.445
-859.355
-755.657
-666.517
-589.455
-522.399
-463.663
-411.894
-366.014
-325.165
-288.661
-255.952
-226.592
-200.213
-176.511
-155.225
-136.133
-119.037
-103.764
-90.1525
-78.0587
-67.3478
-57.8944
-49.5815
-42.2997
-35.9466
-30.4265
-25.6505
-21.5361
-18.0073
-14.9941
-12.4328
-10.2656
-8.44011
-6.90963
-5.6324
-4.57148
-3.69434
-2.97255
-2.38137
-1.89944
-1.50842
-1.19265
-0.938847
-0.735807
-0.574143
-0.446027
-0.344973
-0.265639
-0.203648
-0.155436
-0.118115
-0.0893608
-0.0673098
-0.0504789
-0.0376932
-0.0280269
-0.0207551
-0.0153131
-0.011264
-0.00827198
-0.00608106
-0.00449819
-0.0033801
-0.00262311
-0.0021556
-0.00193266
-2146.91
-2078.14
-1955.11
-1798.83
-1629
-1460.14
-1301.06
-1156.05
-1026.41
-911.705
-810.647
-721.65
-643.118
-573.59
-511.796
-456.662
-407.297
-362.967
-323.067
-287.1
-254.651
-225.374
-198.974
-175.193
-153.808
-134.618
-117.441
-102.109
-88.4674
-76.3714
-65.6845
-56.2784
-48.0325
-40.8332
-34.5741
-29.1558
-24.4858
-20.4787
-17.0559
-14.1453
-11.6817
-9.60613
-7.86547
-6.41251
-5.20536
-4.20714
-3.38556
-2.71254
-2.16381
-1.71853
-1.3589
-1.06981
-0.838511
-0.65433
-0.508355
-0.393206
-0.302798
-0.23215
-0.1772
-0.13466
-0.101883
-0.0767456
-0.0575579
-0.0429809
-0.0319599
-0.0236685
-0.0174632
-0.0128461
-0.00943414
-0.00693564
-0.00513051
-0.00385537
-0.00299204
-0.00245884
-0.00220457
-1956.11
-1907.96
-1819.47
-1702.9
-1570.95
-1434.21
-1300.17
-1173.39
-1056.19
-949.352
-852.734
-765.689
-687.358
-616.832
-553.247
-495.821
-443.873
-396.815
-354.149
-315.45
-280.354
-248.548
-219.759
-193.745
-170.288
-149.189
-130.267
-113.348
-98.2725
-84.8877
-73.049
-62.619
-53.4676
-45.4717
-38.5155
-32.4901
-27.2941
-22.8337
-19.0219
-15.7794
-13.034
-10.7202
-8.77919
-7.15861
-5.81189
-4.69802
-3.78107
-3.0298
-2.41717
-1.91995
-1.51832
-1.19542
-0.93705
-0.731285
-0.568186
-0.439516
-0.338484
-0.259526
-0.198108
-0.150558
-0.113917
-0.0858152
-0.0643631
-0.0480649
-0.0357418
-0.0264704
-0.0195314
-0.014368
-0.0105522
-0.00775791
-0.00573897
-0.00431277
-0.00334713
-0.00275074
-0.00246632
-1810.95
-1775.64
-1709.51
-1620.02
-1515.52
-1403.58
-1290.18
-1179.51
-1074.19
-975.604
-884.307
-800.311
-723.323
-652.893
-588.515
-529.683
-475.924
-426.807
-381.947
-341.005
-303.678
-269.699
-238.825
-210.836
-185.528
-162.71
-142.202
-123.834
-107.441
-92.8678
-79.9624
-68.581
-58.5858
-49.8456
-42.2365
-35.6414
-29.951
-25.0636
-20.8852
-17.3293
-14.3174
-11.7782
-9.64751
-7.86804
-6.38891
-5.16523
-4.15769
-3.33202
-2.65861
-2.11197
-1.67035
-1.31525
-1.03108
-0.804738
-0.62531
-0.483742
-0.372571
-0.285681
-0.218088
-0.165753
-0.125422
-0.094487
-0.0708709
-0.0529275
-0.0393597
-0.0291512
-0.0215103
-0.0158244
-0.0116224
-0.00854503
-0.00632151
-0.00475073
-0.00368717
-0.00303029
-0.00271702
-1698.33
-1671.38
-1620.24
-1549.62
-1465.12
-1372.17
-1275.43
-1178.5
-1083.9
-993.267
-907.538
-827.15
-752.214
-682.637
-618.211
-558.672
-503.739
-453.131
-406.58
-363.835
-324.662
-288.842
-256.172
-226.456
-199.512
-175.159
-153.226
-133.546
-115.955
-100.293
-86.408
-74.1494
-63.3736
-53.9432
-45.7269
-38.601
-32.449
-27.1623
-22.6403
-18.7905
-15.5284
-12.7772
-10.4679
-8.5387
-6.9347
-5.6074
-4.51428
-3.61831
-2.88741
-2.29402
-1.81454
-1.42894
-1.12032
-0.87447
-0.679555
-0.52575
-0.404958
-0.310538
-0.237081
-0.1802
-0.136363
-0.102735
-0.0770621
-0.0575543
-0.0428027
-0.0317027
-0.0233942
-0.0172111
-0.0126414
-0.00929466
-0.00687638
-0.00516795
-0.00401116
-0.00329667
-0.00295593
-1609.62
-1588.34
-1547.54
-1490.32
-1420.54
-1342.13
-1258.69
-1173.19
-1087.95
-1004.61
-924.296
-847.691
-775.183
-706.941
-642.991
-583.273
-527.67
-476.041
-428.227
-384.064
-343.387
-306.031
-271.831
-240.624
-212.247
-186.539
-163.336
-142.478
-123.804
-107.156
-92.3773
-79.3159
-67.8235
-57.7573
-48.9805
-41.3633
-34.7831
-29.1254
-24.2837
-20.1599
-16.6641
-13.7148
-11.2385
-9.16907
-7.44801
-6.02348
-4.85002
-3.88799
-3.10305
-2.46565
-1.95053
-1.53621
-1.20455
-0.940312
-0.73079
-0.56544
-0.435565
-0.334036
-0.25504
-0.193864
-0.146712
-0.11054
-0.0829213
-0.0619339
-0.0460623
-0.0341188
-0.0251784
-0.0185247
-0.0136068
-0.010005
-0.00740221
-0.0055634
-0.00431828
-0.00354922
-0.00318245
-1538.94
-1521.61
-1488.12
-1440.61
-1381.77
-1314.51
-1241.61
-1165.53
-1088.27
-1011.41
-936.121
-863.225
-793.28
-726.641
-663.511
-603.99
-548.103
-495.828
-447.106
-401.854
-359.973
-321.351
-285.864
-253.381
-223.764
-196.868
-172.543
-150.637
-130.993
-113.456
-97.8695
-84.0788
-71.933
-61.2854
-51.9945
-43.9255
-36.9509
-30.9506
-25.8133
-21.4356
-17.7231
-14.5899
-11.9581
-9.75819
-7.92805
-6.41283
-5.16437
-4.14061
-3.30514
-2.62659
-2.07811
-1.63688
-1.28363
-1.00215
-0.778924
-0.602739
-0.464338
-0.356131
-0.271931
-0.206719
-0.156452
-0.117886
-0.0884376
-0.066058
-0.0491324
-0.0363949
-0.0268595
-0.0197625
-0.0145168
-0.0106746
-0.007898
-0.00593631
-0.00460794
-0.00378745
-0.00339613
-1482.1
-1467.59
-1439.4
-1399.01
-1348.4
-1289.74
-1225.2
-1156.78
-1086.24
-1015.01
-944.248
-874.833
-807.424
-742.498
-680.39
-621.321
-565.433
-512.803
-463.458
-417.391
-374.563
-334.912
-298.354
-264.791
-234.108
-206.181
-180.873
-158.041
-137.535
-119.203
-102.891
-88.442
-75.7046
-64.5287
-54.7694
-46.2879
-38.9521
-32.6377
-27.2285
-22.6172
-18.7049
-15.4018
-12.6264
-10.3057
-8.37445
-6.77513
-5.45705
-4.37596
-3.49352
-2.77667
-2.19714
-1.73085
-1.35747
-1.05991
-0.823904
-0.637606
-0.491243
-0.376799
-0.287735
-0.21875
-0.165569
-0.124765
-0.0936042
-0.0699216
-0.0520091
-0.038528
-0.0284353
-0.0209231
-0.0153701
-0.0113026
-0.00836308
-0.00628619
-0.00487976
-0.00401103
-0.00359671
-1436.06
-1423.62
-1399.32
-1364.25
-1319.89
-1267.88
-1209.96
-1147.78
-1082.83
-1016.42
-949.645
-883.401
-818.396
-755.186
-694.194
-635.737
-580.044
-527.276
-477.534
-430.875
-387.315
-346.838
-309.398
-274.929
-243.339
-214.523
-188.36
-164.716
-143.45
-124.413
-107.452
-92.4144
-79.1448
-67.4922
-57.3091
-48.4531
-40.7887
-34.1878
-28.5304
-23.7053
-19.6099
-16.1509
-13.2435
-10.8116
-8.78726
-7.1104
-5.72806
-4.59401
-3.66814
-2.91587
-2.30758
-1.81808
-1.42605
-1.11358
-0.865712
-0.670026
-0.516269
-0.396029
-0.302445
-0.229952
-0.17406
-0.131172
-0.0984182
-0.0735223
-0.0546907
-0.040517
-0.0299049
-0.0220056
-0.0161662
-0.0118886
-0.00879716
-0.00661281
-0.00513356
-0.00421982
-0.00378402
-1398.58
-1387.66
-1366.27
-1335.23
-1295.64
-1248.82
-1196.16
-1139.01
-1078.69
-1016.37
-953.057
-889.641
-826.85
-765.284
-705.429
-647.667
-592.298
-539.549
-489.582
-442.509
-398.395
-357.263
-319.105
-283.882
-251.526
-221.951
-195.049
-170.699
-148.766
-129.107
-111.572
-96.0093
-82.2642
-70.1842
-59.6196
-50.4259
-42.4645
-35.604
-29.7212
-24.7015
-20.4394
-16.8381
-13.81
-11.2764
-9.16689
-7.41893
-5.97763
-4.79494
-3.82914
-3.04428
-2.40952
-1.89863
-1.48941
-1.16318
-0.904369
-0.700014
-0.539425
-0.413829
-0.316065
-0.240326
-0.181927
-0.137111
-0.102881
-0.0768609
-0.0571777
-0.042362
-0.0312684
-0.0230102
-0.0169051
-0.0124327
-0.00920025
-0.00691617
-0.00536933
-0.00441381
-0.00395808
-1367.92
-1358.16
-1338.98
-1311
-1275.11
-1232.35
-1183.86
-1130.8
-1074.29
-1015.39
-955.051
-894.117
-833.32
-773.283
-714.531
-657.496
-602.528
-549.905
-499.841
-452.494
-407.968
-366.325
-327.588
-291.742
-258.745
-228.525
-200.99
-176.029
-153.515
-133.311
-115.271
-99.2437
-85.0762
-72.6151
-61.7097
-52.2132
-43.9847
-36.8904
-30.8042
-25.6086
-21.1953
-17.465
-14.3274
-11.7013
-9.51409
-7.70132
-6.2062
-4.97908
-3.97679
-3.1621
-2.50311
-1.97262
-1.54763
-1.20878
-0.939922
-0.727605
-0.560739
-0.430218
-0.32861
-0.249885
-0.189177
-0.142585
-0.106996
-0.0799406
-0.0594725
-0.0440647
-0.0325272
-0.0239379
-0.0175876
-0.0129353
-0.00957267
-0.00719651
-0.00558725
-0.00459315
-0.00411901
-1342.78
-1333.9
-1316.39
-1290.78
-1257.76
-1218.19
-1173.03
-1123.27
-1069.9
-1013.86
-956.05
-897.268
-838.237
-779.592
-721.878
-665.562
-611.031
-558.604
-508.536
-461.019
-416.197
-374.161
-334.96
-298.606
-265.074
-234.31
-206.236
-180.75
-157.733
-137.055
-118.572
-102.137
-87.5965
-74.7979
-63.5895
-53.8231
-45.3561
-38.0524
-31.7836
-26.4299
-21.8806
-18.0338
-14.7972
-12.0874
-9.82992
-7.95838
-6.41443
-5.14693
-4.11146
-3.26964
-2.58857
-2.04022
-1.60085
-1.25049
-0.97245
-0.752859
-0.580256
-0.445231
-0.340106
-0.258647
-0.195826
-0.147607
-0.110771
-0.0827669
-0.061579
-0.0456282
-0.0336832
-0.02479
-0.0182147
-0.0133972
-0.00991504
-0.00745429
-0.00578768
-0.00475812
-0.00426706
-1322.11
-1313.9
-1297.7
-1273.92
-1243.15
-1206.1
-1163.6
-1116.51
-1065.71
-1012.05
-956.37
-899.435
-841.95
-784.547
-727.788
-672.157
-618.073
-565.882
-515.872
-468.266
-423.236
-380.901
-341.334
-304.567
-270.593
-239.374
-210.843
-184.908
-161.459
-140.37
-121.503
-104.711
-89.8429
-76.747
-65.2708
-55.2653
-46.5864
-39.0962
-32.6645
-27.1695
-22.4982
-18.547
-15.2215
-12.4365
-10.1157
-8.19113
-6.60309
-5.29912
-4.23364
-3.36726
-2.66619
-2.10165
-1.64924
-1.28843
-1.00206
-0.775854
-0.598033
-0.458912
-0.350585
-0.266637
-0.20189
-0.152189
-0.114218
-0.0853475
-0.0635029
-0.0470565
-0.0347396
-0.0255689
-0.018788
-0.0138196
-0.0102282
-0.00769012
-0.00597108
-0.00490911
-0.00440258
-1305.09
-1297.41
-1282.22
-1259.87
-1230.86
-1195.82
-1155.45
-1110.52
-1061.81
-1010.13
-956.24
-900.879
-844.732
-788.426
-732.526
-677.533
-623.883
-571.948
-522.036
-474.399
-429.23
-386.672
-346.818
-309.718
-275.381
-243.783
-214.867
-188.552
-164.733
-143.29
-124.09
-106.987
-91.8341
-78.4779
-66.7664
-56.5502
-47.684
-40.0287
-33.4525
-27.8318
-23.052
-19.0076
-15.6027
-12.7504
-10.3728
-8.40074
-6.77313
-5.43638
-4.3439
-3.45541
-2.73633
-2.15719
-1.69301
-1.32276
-1.02886
-0.796683
-0.614144
-0.471314
-0.360089
-0.273887
-0.207394
-0.156349
-0.117348
-0.0876918
-0.0652511
-0.0483548
-0.0357
-0.0262772
-0.0193094
-0.0142039
-0.0105132
-0.00790479
-0.00613807
-0.00504661
-0.00452601
-1291.07
-1283.79
-1269.39
-1248.17
-1220.56
-1187.11
-1148.45
-1105.26
-1058.27
-1008.22
-955.828
-901.799
-846.8
-791.449
-736.314
-681.902
-628.663
-576.985
-527.197
-479.568
-434.313
-391.591
-351.515
-314.148
-279.515
-247.603
-218.365
-191.727
-167.594
-145.849
-126.361
-108.991
-93.5897
-80.0066
-68.0896
-57.6888
-48.6581
-40.8574
-34.1536
-28.4218
-23.5458
-19.4188
-15.9433
-13.0311
-10.6029
-8.58852
-6.92557
-5.55953
-4.4429
-3.5346
-2.79938
-2.20714
-1.7324
-1.35367
-1.05301
-0.815454
-0.628668
-0.4825
-0.368664
-0.28043
-0.212364
-0.160106
-0.120176
-0.0898105
-0.0668316
-0.0495289
-0.0365688
-0.0269181
-0.0197814
-0.0145518
-0.0107712
-0.00809924
-0.00628936
-0.00517121
-0.00463787
-1279.51
-1272.55
-1258.77
-1238.44
-1211.94
-1179.76
-1142.47
-1100.7
-1055.11
-1006.4
-955.252
-902.344
-848.323
-793.799
-739.334
-685.443
-632.583
-581.155
-531.502
-483.908
-438.604
-395.766
-355.518
-317.94
-283.067
-250.895
-221.389
-194.481
-170.082
-148.079
-128.346
-110.745
-95.1295
-81.3498
-69.2541
-58.6923
-49.5179
-41.5898
-34.7741
-28.9445
-23.9838
-19.7839
-16.246
-13.2808
-10.8079
-8.75585
-7.06151
-5.66943
-4.5313
-3.60537
-2.85575
-2.25184
-1.76766
-1.38136
-1.07464
-0.832282
-0.641695
-0.492538
-0.376362
-0.286306
-0.216828
-0.163483
-0.122718
-0.0917158
-0.0682533
-0.0505853
-0.0373508
-0.0274951
-0.0202065
-0.0148652
-0.0110038
-0.00827448
-0.00642574
-0.00528356
-0.00473874
-1269.98
-1263.28
-1249.99
-1230.36
-1204.74
-1173.58
-1137.39
-1096.76
-1052.31
-1004.71
-954.595
-902.627
-849.434
-795.617
-741.736
-688.306
-635.789
-584.596
-535.08
-487.538
-442.213
-399.293
-358.916
-321.171
-286.104
-253.72
-223.991
-196.858
-172.234
-150.012
-130.07
-112.272
-96.4729
-82.5238
-70.2737
-59.5723
-50.2729
-42.2339
-35.3203
-29.4053
-24.3704
-20.1064
-16.5137
-13.5018
-10.9894
-8.90419
-7.18213
-5.767
-4.60985
-3.66829
-2.90591
-2.29162
-1.79906
-1.40603
-1.09393
-0.847293
-0.65332
-0.501499
-0.383237
-0.291556
-0.220819
-0.166502
-0.124991
-0.0934206
-0.0695258
-0.051531
-0.0380511
-0.028012
-0.0205873
-0.0151461
-0.0112122
-0.00843163
-0.00654808
-0.00538436
-0.00482926
-1262.14
-1255.63
-1242.73
-1223.66
-1198.74
-1168.39
-1133.09
-1093.38
-1049.87
-1003.17
-953.914
-902.73
-850.235
-797.02
-743.642
-690.614
-638.404
-587.427
-538.044
-490.564
-445.237
-402.263
-361.788
-323.912
-288.689
-256.133
-226.22
-198.899
-174.086
-151.681
-131.562
-113.595
-97.639
-83.5447
-71.1617
-60.3399
-50.9325
-42.7972
-35.7988
-29.8093
-24.7097
-20.3899
-16.7492
-13.6964
-11.1494
-9.03502
-7.28858
-5.85319
-4.67927
-3.72394
-2.95029
-2.32685
-1.82689
-1.4279
-1.11104
-0.860613
-0.663641
-0.509458
-0.389346
-0.296223
-0.224368
-0.169188
-0.127015
-0.0949382
-0.0706589
-0.0523735
-0.038675
-0.0284727
-0.0209268
-0.0153966
-0.0113982
-0.00857186
-0.00665727
-0.00547434
-0.00491007
-1255.68
-1249.33
-1236.74
-1218.11
-1193.76
-1164.05
-1129.46
-1090.51
-1047.76
-1001.8
-953.246
-902.713
-850.803
-798.098
-745.15
-692.471
-640.53
-589.748
-540.493
-493.077
-447.761
-404.752
-364.205
-326.228
-290.88
-258.184
-228.121
-200.643
-175.674
-153.113
-132.845
-114.736
-98.6463
-84.428
-71.9312
-61.0061
-51.5057
-43.2875
-36.2157
-30.1618
-25.006
-20.6376
-16.9552
-13.8668
-11.2896
-9.14982
-7.38206
-5.92892
-4.74033
-3.77291
-2.98937
-2.35788
-1.85142
-1.4472
-1.12614
-0.872374
-0.672758
-0.516492
-0.394747
-0.30035
-0.227508
-0.171565
-0.128807
-0.0962824
-0.0716629
-0.0531203
-0.0392283
-0.0288813
-0.0212281
-0.0156189
-0.0115632
-0.00869637
-0.00675425
-0.00555428
-0.00498188
-1250.37
-1244.14
-1231.8
-1213.53
-1189.62
-1160.44
-1126.42
-1088.08
-1045.94
-1000.59
-952.615
-902.622
-851.2
-798.924
-746.34
-693.961
-642.256
-591.648
-542.508
-495.157
-449.86
-406.832
-366.232
-328.176
-292.73
-259.919
-229.733
-202.127
-177.027
-154.338
-133.944
-115.715
-99.5121
-85.1885
-72.5948
-61.5815
-52.0014
-43.7121
-36.5771
-30.4677
-25.2635
-20.8532
-17.1346
-14.0153
-11.4119
-9.25003
-7.46373
-5.99514
-4.79374
-3.81578
-3.02361
-2.38509
-1.87293
-1.46413
-1.1394
-0.882706
-0.680771
-0.522677
-0.399498
-0.303983
-0.230272
-0.173659
-0.130385
-0.0974672
-0.0725482
-0.0537789
-0.0397164
-0.0292418
-0.021494
-0.0158152
-0.011709
-0.00880637
-0.00683995
-0.00562495
-0.00504536
-1246.01
-1239.89
-1227.74
-1209.75
-1186.2
-1157.43
-1123.88
-1086.03
-1044.39
-999.531
-952.035
-902.487
-851.471
-799.553
-747.277
-695.154
-643.652
-593.197
-544.163
-496.873
-451.6
-408.562
-367.925
-329.808
-294.284
-261.382
-231.096
-203.384
-178.176
-155.38
-134.88
-116.551
-100.253
-85.8401
-73.1642
-62.0759
-52.428
-44.0778
-36.8889
-30.7319
-25.4861
-21.0397
-17.29
-14.1441
-11.5181
-9.33706
-7.53472
-6.05274
-4.84024
-3.85312
-3.05346
-2.40882
-1.89171
-1.47891
-1.15098
-0.891737
-0.687779
-0.528088
-0.403657
-0.307164
-0.232694
-0.175494
-0.131769
-0.0985063
-0.0733248
-0.0543568
-0.0401448
-0.0295585
-0.0217276
-0.0159877
-0.0118372
-0.00890308
-0.00691532
-0.0056871
-0.00510121
-1242.44
-1236.39
-1224.4
-1206.64
-1183.37
-1154.95
-1121.77
-1084.3
-1043.07
-998.619
-951.512
-902.331
-851.649
-800.031
-748.014
-696.107
-644.779
-594.457
-545.516
-498.285
-453.037
-409.996
-369.333
-331.17
-295.585
-262.61
-232.242
-204.444
-179.147
-156.262
-135.675
-117.261
-100.883
-86.3956
-73.6504
-62.4986
-52.7932
-44.3915
-37.1565
-30.959
-25.6777
-21.2003
-17.424
-14.2552
-11.6098
-9.41229
-7.59612
-6.1026
-4.88052
-3.88549
-3.07934
-2.42942
-1.90801
-1.49175
-1.16105
-0.899591
-0.693876
-0.532799
-0.407279
-0.309936
-0.234805
-0.177094
-0.132977
-0.099413
-0.0740027
-0.0548615
-0.0405191
-0.0298351
-0.0219317
-0.0161385
-0.0119492
-0.00898769
-0.00698127
-0.00574151
-0.0051501
-1239.51
-1233.54
-1221.67
-1204.09
-1181.05
-1152.89
-1120.01
-1082.87
-1041.96
-997.837
-951.048
-902.167
-851.763
-800.392
-748.592
-696.867
-645.687
-595.479
-546.621
-499.442
-454.22
-411.181
-370.5
-332.303
-296.669
-263.636
-233.203
-205.334
-179.964
-157.005
-136.346
-117.862
-101.417
-86.8671
-74.0637
-62.8584
-53.1045
-44.659
-37.3852
-31.1532
-25.8416
-21.3379
-17.5389
-14.3506
-11.6885
-9.47697
-7.64896
-6.14554
-4.91523
-3.91341
-3.10168
-2.4472
-1.9221
-1.50286
-1.16976
-0.906389
-0.699156
-0.53688
-0.410418
-0.312339
-0.236636
-0.178483
-0.134025
-0.1002
-0.0745916
-0.0553001
-0.0408444
-0.0300757
-0.0221093
-0.0162697
-0.0120468
-0.00906135
-0.00703871
-0.0057889
-0.00519269
-1237.13
-1231.2
-1219.43
-1201.99
-1179.14
-1151.2
-1118.56
-1081.67
-1041.03
-997.172
-950.642
-902.007
-851.83
-800.664
-749.043
-697.471
-646.416
-596.306
-547.519
-500.387
-455.191
-412.157
-371.464
-333.24
-297.569
-264.49
-234.003
-206.077
-180.648
-157.629
-136.91
-118.368
-101.868
-87.2653
-74.4132
-63.1631
-53.3684
-44.8862
-37.5795
-31.3184
-25.9813
-21.4553
-17.637
-14.4321
-11.7559
-9.53232
-7.69421
-6.18234
-4.945
-3.93737
-3.12086
-2.46248
-1.93421
-1.51241
-1.17726
-0.912242
-0.703704
-0.540397
-0.413125
-0.314412
-0.238216
-0.179681
-0.13493
-0.100881
-0.0751006
-0.0556793
-0.0411258
-0.0302838
-0.0222629
-0.0163833
-0.0121312
-0.00912516
-0.00708848
-0.00582998
-0.00522962
-1235.19
-1229.3
-1217.61
-1200.29
-1177.58
-1149.81
-1117.36
-1080.68
-1040.26
-996.611
-950.291
-901.856
-851.865
-800.868
-749.395
-697.95
-647.001
-596.973
-548.248
-501.157
-455.984
-412.957
-372.256
-334.014
-298.313
-265.197
-234.669
-206.696
-181.219
-158.15
-137.382
-118.792
-102.246
-87.6
-74.7074
-63.42
-53.5912
-45.0782
-37.7439
-31.4583
-26.0997
-21.5549
-17.7203
-14.5014
-11.8132
-9.57946
-7.73278
-6.21372
-4.9704
-3.95783
-3.13725
-2.47555
-1.94457
-1.52059
-1.18367
-0.917258
-0.707604
-0.543414
-0.415448
-0.316192
-0.239573
-0.180711
-0.135708
-0.101466
-0.0755384
-0.0560055
-0.041368
-0.030463
-0.0223953
-0.0164811
-0.012204
-0.00918016
-0.0071314
-0.00586541
-0.00526147
-1233.61
-1227.75
-1216.13
-1198.9
-1176.3
-1148.67
-1116.38
-1079.86
-1039.61
-996.139
-949.99
-901.717
-851.878
-801.019
-749.669
-698.33
-647.467
-597.509
-548.837
-501.783
-456.63
-413.611
-372.906
-334.649
-298.926
-265.781
-235.219
-207.209
-181.693
-158.583
-137.775
-119.146
-102.562
-87.8802
-74.954
-63.6356
-53.7784
-45.2396
-37.8823
-31.5763
-26.1996
-21.639
-17.7907
-14.56
-11.8617
-9.6194
-7.76548
-6.24035
-4.99198
-3.97521
-3.15119
-2.48667
-1.9534
-1.52755
-1.18915
-0.921535
-0.710931
-0.545989
-0.417432
-0.317712
-0.240733
-0.181592
-0.136373
-0.101966
-0.0759131
-0.0562849
-0.0415754
-0.0306166
-0.0225087
-0.016565
-0.0122665
-0.00922736
-0.00716823
-0.00589582
-0.00528882
-1232.33
-1226.5
-1214.92
-1197.76
-1175.27
-1147.74
-1115.57
-1079.19
-1039.08
-995.746
-949.734
-901.593
-851.878
-801.132
-749.882
-698.629
-647.84
-597.94
-549.312
-502.289
-457.155
-414.143
-373.437
-335.169
-299.429
-266.261
-235.672
-207.633
-182.084
-158.942
-138.102
-119.44
-102.825
-88.1136
-75.1597
-63.8156
-53.9348
-45.3748
-37.9983
-31.6752
-26.2834
-21.7097
-17.8499
-14.6094
-11.9026
-9.65308
-7.79307
-6.26284
-5.01021
-3.98992
-3.16299
-2.49608
-1.96087
-1.53345
-1.19379
-0.925164
-0.713755
-0.548176
-0.419117
-0.319005
-0.241719
-0.182341
-0.13694
-0.102392
-0.0762323
-0.0565229
-0.0417522
-0.0307475
-0.0226055
-0.0166366
-0.0123197
-0.00926764
-0.00719968
-0.0059218
-0.00531218
-1231.3
-1225.49
-1213.95
-1196.85
-1174.43
-1146.99
-1114.92
-1078.64
-1038.64
-995.42
-949.518
-901.484
-851.869
-801.214
-750.047
-698.865
-648.135
-598.284
-549.693
-502.697
-457.58
-414.575
-373.868
-335.594
-299.84
-266.655
-236.044
-207.981
-182.407
-159.238
-138.371
-119.683
-103.043
-88.3071
-75.3305
-63.9652
-54.0651
-45.4874
-38.0951
-31.7578
-26.3535
-21.7688
-17.8995
-14.6507
-11.9368
-9.68134
-7.81625
-6.28175
-5.02554
-4.00229
-3.17292
-2.50401
-1.96717
-1.53843
-1.1977
-0.928229
-0.716141
-0.550025
-0.420542
-0.320098
-0.242554
-0.182976
-0.137419
-0.102753
-0.0765028
-0.0567248
-0.0419022
-0.0308585
-0.0226876
-0.0166974
-0.012365
-0.00930187
-0.00722641
-0.00594389
-0.00533205
-1230.47
-1224.67
-1213.17
-1196.11
-1173.74
-1146.38
-1114.39
-1078.2
-1038.28
-995.15
-949.338
-901.39
-851.855
-801.275
-750.174
-699.05
-648.37
-598.559
-549.999
-503.025
-457.922
-414.925
-374.218
-335.938
-300.175
-266.975
-236.348
-208.266
-182.671
-159.481
-138.592
-119.884
-103.222
-88.4669
-75.4716
-64.089
-54.173
-45.5808
-38.1754
-31.8265
-26.4118
-21.8181
-17.9408
-14.6852
-11.9655
-9.70495
-7.83563
-6.29756
-5.03838
-4.01265
-3.18124
-2.51066
-1.97246
-1.54262
-1.20099
-0.930804
-0.718147
-0.55158
-0.421742
-0.321019
-0.243257
-0.18351
-0.137824
-0.103058
-0.0767311
-0.0568951
-0.0420288
-0.0309523
-0.022757
-0.0167487
-0.0124032
-0.00933081
-0.00724902
-0.00596257
-0.00534885
-1229.8
-1224.01
-1212.53
-1195.51
-1173.2
-1145.89
-1113.96
-1077.83
-1037.99
-994.929
-949.188
-901.308
-851.839
-801.319
-750.272
-699.196
-648.556
-598.777
-550.243
-503.288
-458.197
-415.207
-374.501
-336.217
-300.446
-267.236
-236.595
-208.498
-182.887
-159.68
-138.774
-120.048
-103.37
-88.5982
-75.5878
-64.1911
-54.262
-45.6579
-38.2417
-31.8832
-26.4601
-21.8589
-17.9751
-14.7138
-11.9892
-9.72458
-7.85174
-6.31072
-5.04907
-4.02129
-3.18818
-2.51621
-1.97687
-1.54611
-1.20374
-0.932958
-0.719826
-0.552882
-0.422746
-0.32179
-0.243847
-0.183958
-0.138163
-0.103313
-0.0769227
-0.0570381
-0.0421351
-0.0310312
-0.0228153
-0.0167919
-0.0124354
-0.00935516
-0.00726805
-0.0059783
-0.00536301
-1229.26
-1223.49
-1212.03
-1195.04
-1172.76
-1145.49
-1113.61
-1077.54
-1037.75
-994.748
-949.064
-901.239
-851.822
-801.35
-750.347
-699.309
-648.702
-598.951
-550.438
-503.498
-458.418
-415.433
-374.728
-336.442
-300.665
-267.447
-236.796
-208.686
-183.062
-159.842
-138.922
-120.182
-103.49
-88.7057
-75.6829
-64.2747
-54.335
-45.7213
-38.2963
-31.93
-26.4999
-21.8925
-18.0034
-14.7375
-12.0089
-9.74081
-7.86508
-6.32162
-5.05793
-4.02846
-3.19395
-2.52082
-1.98054
-1.54901
-1.20603
-0.934751
-0.721224
-0.553966
-0.423583
-0.322433
-0.244338
-0.184332
-0.138446
-0.103527
-0.0770827
-0.0571576
-0.042224
-0.0310971
-0.0228641
-0.016828
-0.0124623
-0.00937555
-0.00728399
-0.00599148
-0.00537487
-1228.83
-1223.07
-1211.62
-1194.65
-1172.4
-1145.17
-1113.33
-1077.3
-1037.56
-994.601
-948.962
-901.181
-851.806
-801.373
-750.405
-699.398
-648.817
-599.088
-550.592
-503.666
-458.594
-415.614
-374.911
-336.623
-300.842
-267.617
-236.958
-208.839
-183.204
-159.973
-139.042
-120.291
-103.588
-88.7932
-75.7605
-64.343
-54.3947
-45.7731
-38.341
-31.9683
-26.5325
-21.9201
-18.0266
-14.7569
-12.025
-9.75418
-7.87608
-6.33062
-5.06525
-4.03437
-3.19871
-2.52463
-1.98357
-1.55142
-1.20792
-0.936236
-0.722382
-0.554865
-0.424278
-0.322967
-0.244747
-0.184643
-0.138681
-0.103704
-0.0772158
-0.0572571
-0.042298
-0.0311519
-0.0229047
-0.0168581
-0.0124848
-0.00939254
-0.00729728
-0.00600247
-0.00538476
-1228.49
-1222.73
-1211.3
-1194.35
-1172.12
-1144.92
-1113.1
-1077.11
-1037.4
-994.482
-948.879
-901.133
-851.791
-801.389
-750.448
-699.467
-648.907
-599.196
-550.714
-503.798
-458.734
-415.758
-375.056
-336.767
-300.983
-267.753
-237.088
-208.961
-183.319
-160.079
-139.139
-120.379
-103.668
-88.8642
-75.8235
-64.3985
-54.4433
-45.8153
-38.3775
-31.9996
-26.5592
-21.9427
-18.0456
-14.7728
-12.0383
-9.76514
-7.8851
-6.33799
-5.07125
-4.03923
-3.20262
-2.52776
-1.98607
-1.55339
-1.20948
-0.93746
-0.723337
-0.555607
-0.424851
-0.323408
-0.245084
-0.1849
-0.138876
-0.103851
-0.0773259
-0.0573393
-0.0423593
-0.0311974
-0.0229383
-0.0168831
-0.0125034
-0.00940664
-0.0073083
-0.00601159
-0.00539296
-1228.22
-1222.47
-1211.04
-1194.11
-1171.9
-1144.71
-1112.93
-1076.96
-1037.28
-994.386
-948.811
-901.093
-851.777
-801.4
-750.482
-699.52
-648.978
-599.28
-550.811
-503.903
-458.845
-415.873
-375.172
-336.883
-301.096
-267.863
-237.192
-209.06
-183.411
-160.164
-139.217
-120.45
-103.732
-88.9216
-75.8745
-64.4435
-54.4826
-45.8495
-38.4071
-32.0249
-26.5808
-21.9611
-18.0611
-14.7858
-12.0491
-9.77408
-7.89246
-6.34402
-5.07616
-4.04321
-3.20582
-2.53033
-1.98812
-1.55502
-1.21076
-0.938464
-0.724122
-0.556217
-0.425322
-0.32377
-0.245361
-0.185111
-0.139036
-0.103972
-0.0774166
-0.0574071
-0.0424097
-0.0312348
-0.0229661
-0.0169036
-0.0125187
-0.00941827
-0.0073174
-0.00601912
-0.00539975
-1228.01
-1222.26
-1210.84
-1193.92
-1171.72
-1144.55
-1112.78
-1076.84
-1037.18
-994.309
-948.756
-901.061
-851.765
-801.407
-750.507
-699.561
-649.033
-599.347
-550.886
-503.986
-458.933
-415.963
-375.264
-336.974
-301.186
-267.95
-237.275
-209.138
-183.484
-160.232
-139.279
-120.507
-103.783
-88.9677
-75.9155
-64.4797
-54.5143
-45.8771
-38.4309
-32.0455
-26.5983
-21.9759
-18.0737
-14.7963
-12.0578
-9.78134
-7.89844
-6.34892
-5.08015
-4.04645
-3.20843
-2.53242
-1.98978
-1.55634
-1.21181
-0.939284
-0.724762
-0.556715
-0.425707
-0.324067
-0.245588
-0.185284
-0.139167
-0.10407
-0.0774909
-0.0574627
-0.0424511
-0.0312656
-0.0229889
-0.0169205
-0.0125313
-0.00942783
-0.00732488
-0.00602531
-0.00540532
-1227.84
-1222.09
-1210.68
-1193.76
-1171.58
-1144.42
-1112.67
-1076.74
-1037.1
-994.248
-948.712
-901.034
-851.755
-801.412
-750.527
-699.593
-649.075
-599.399
-550.946
-504.051
-459.002
-416.035
-375.337
-337.047
-301.257
-268.019
-237.341
-209.201
-183.543
-160.287
-139.329
-120.552
-103.824
-89.0046
-75.9483