/*--------------------------------*- C++ -*----------------------------------*\
  =========                 |
  \\      /  F ield         | OpenFOAM: The Open Source CFD Toolbox
   \\    /   O peration     | Website:  https://openfoam.org
    \\  /    A nd           | Version:  10
     \\/     M anipulation  |
\*---------------------------------------------------------------------------*/
FoamFile
{
    format      ascii;
    class       volScalarField;
    location    "251";
    object      T;
}
// * * * * * * * * * * * * * * * * * * * * * * * * * * * * * * * * * * * * * //

dimensions      [0 0 0 1 0 0 0];

internalField   nonuniform List<scalar> 
11250
(
249.788
167.395
139.095
126.583
119.721
115.346
112.275
109.98
108.194
106.764
105.597
104.634
103.832
103.162
102.6
102.13
101.737
101.409
101.137
100.912
100.727
100.576
100.453
100.354
100.275
100.212
100.162
100.123
100.093
100.07
100.052
100.038
100.028
100.02
100.015
100.011
100.007
100.005
100.004
100.003
100.002
100.001
100.001
100.001
100
100
100
100
100
100
100
100
100
100
100
100
100
100
100
100
100
100
100
100
100
100
100
100
100
100
100
100
100
100
100
331.337
248.104
201.516
174.125
156.705
144.771
136.088
129.475
124.27
120.075
116.638
113.789
111.413
109.422
107.753
106.353
105.181
104.204
103.393
102.722
102.171
101.72
101.354
101.059
100.822
100.634
100.485
100.369
100.278
100.209
100.155
100.114
100.084
100.061
100.044
100.031
100.022
100.016
100.011
100.008
100.005
100.004
100.002
100.002
100.001
100.001
100
100
100
100
100
100
100
100
100
100
100
100
100
100
100
100
100
100
100
100
100
100
100
100
100
100
100
100
100
358.805
292.202
244.796
211.768
188.297
171.055
157.951
147.695
139.476
132.772
127.233
122.617
118.748
115.497
112.763
110.467
108.543
106.936
105.6
104.494
103.585
102.841
102.237
101.75
101.359
101.048
100.803
100.61
100.46
100.345
100.257
100.189
100.139
100.101
100.073
100.052
100.037
100.026
100.018
100.013
100.009
100.006
100.004
100.003
100.002
100.001
100.001
100.001
100
100
100
100
100
100
100
100
100
100
100
100
100
100
100
100
100
100
100
100
100
100
100
100
100
100
100
370.503
317.158
273.789
239.979
213.814
193.379
177.167
164.094
153.398
144.542
137.146
130.934
125.698
121.278
117.548
114.407
111.77
109.563
107.726
106.204
104.951
103.926
103.092
102.419
101.879
101.45
101.111
100.844
100.637
100.478
100.355
100.262
100.192
100.14
100.101
100.072
100.051
100.036
100.025
100.018
100.012
100.008
100.006
100.004
100.003
100.002
100.001
100.001
100
100
100
100
100
100
100
100
100
100
100
100
100
100
100
100
100
100
100
100
100
100
100
100
100
100
100
376.576
332.217
293.348
260.715
233.815
211.728
193.524
178.42
165.797
155.18
146.209
138.606
132.153
126.678
122.04
118.12
114.82
112.054
109.746
107.832
106.254
104.962
103.91
103.06
102.378
101.835
101.406
101.069
100.808
100.605
100.45
100.332
100.244
100.177
100.128
100.092
100.065
100.046
100.032
100.022
100.015
100.011
100.007
100.005
100.003
100.002
100.001
100.001
100.001
100
100
100
100
100
100
100
100
100
100
100
100
100
100
100
100
100
100
100
100
100
100
100
100
100
100
380.192
341.882
306.833
275.935
249.275
226.509
207.137
190.649
176.594
164.591
154.327
145.547
138.042
131.637
126.187
121.564
117.66
114.38
111.638
109.361
107.48
105.938
104.682
103.666
102.85
102.2
101.686
101.283
100.969
100.727
100.541
100.399
100.293
100.213
100.154
100.11
100.078
100.055
100.039
100.027
100.018
100.013
100.009
100.006
100.004
100.003
100.002
100.001
100.001
100
100
100
100
100
100
100
100
100
100
100
100
100
100
100
100
100
100
100
100
100
100
100
100
100
100
382.541
348.406
316.358
287.18
261.167
238.278
218.29
200.909
185.829
172.767
161.471
151.72
143.324
136.118
129.956
124.71
120.266
116.522
113.387
110.777
108.619
106.847
105.402
104.232
103.292
102.542
101.949
101.484
101.121
100.841
100.626
100.462
100.339
100.246
100.178
100.127
100.091
100.064
100.045
100.031
100.021
100.015
100.01
100.007
100.004
100.003
100.002
100.001
100.001
100.001
100
100
100
100
100
100
100
100
100
100
100
100
100
100
100
100
100
100
100
100
100
100
100
100
100
384.155
352.98
323.236
295.566
270.315
247.589
227.334
209.404
193.613
179.763
167.661
157.126
147.992
140.107
133.333
127.545
122.625
118.47
114.981
112.072
109.663
107.682
106.065
104.754
103.7
102.859
102.193
101.67
101.262
100.947
100.705
100.521
100.382
100.278
100.201
100.144
100.102
100.072
100.05
100.035
100.024
100.017
100.011
100.008
100.005
100.003
100.002
100.001
100.001
100.001
100
100
100
100
100
100
100
100
100
100
100
100
100
100
100
100
100
100
100
100
100
100
100
100
100
385.303
356.278
328.295
301.878
277.365
254.93
234.613
216.369
200.098
185.673
172.953
161.795
152.059
143.61
136.319
130.064
124.732
120.216
116.417
113.243
110.61
108.441
106.669
105.231
104.073
103.149
102.417
101.841
101.392
101.044
100.778
100.575
100.422
100.307
100.222
100.159
100.113
100.08
100.056
100.039
100.027
100.018
100.012
100.008
100.006
100.004
100.002
100.002
100.001
100.001
100
100
100
100
100
100
100
100
100
100
100
100
100
100
100
100
100
100
100
100
100
100
100
100
100
386.142
358.704
332.069
306.667
282.815
260.708
240.442
222.036
205.45
190.613
177.426
165.78
155.56
146.647
138.924
132.276
126.592
121.764
117.694
114.288
111.457
109.122
107.212
105.661
104.411
103.412
102.619
101.996
101.51
101.133
100.844
100.624
100.458
100.333
100.241
100.173
100.123
100.087
100.061
100.042
100.029
100.02
100.014
100.009
100.006
100.004
100.003
100.002
100.001
100.001
100
100
100
100
100
100
100
100
100
100
100
100
100
100
100
100
100
100
100
100
100
100
100
100
100
386.765
360.517
334.915
310.326
287.037
265.25
245.091
226.617
209.832
194.703
181.167
169.144
158.54
149.251
141.172
134.195
128.213
123.12
118.818
115.209
112.207
109.727
107.696
106.044
104.712
103.647
102.801
102.135
101.616
101.213
100.904
100.669
100.491
100.357
100.258
100.185
100.132
100.093
100.065
100.045
100.031
100.021
100.015
100.01
100.007
100.004
100.003
100.002
100.001
100.001
100
100
100
100
100
100
100
100
100
100
100
100
100
100
100
100
100
100
100
100
100
100
100
100
100
387.233
361.885
337.079
313.134
290.314
268.819
248.787
230.3
213.393
198.061
184.268
171.956
161.05
151.46
143.091
135.842
129.61
124.294
119.794
116.014
112.863
110.258
108.121
106.382
104.979
103.855
102.962
102.259
101.71
101.285
100.958
100.708
100.52
100.379
100.274
100.196
100.14
100.099
100.069
100.048
100.033
100.023
100.015
100.01
100.007
100.005
100.003
100.002
100.001
100.001
100.001
100
100
100
100
100
100
100
100
100
100
100
100
100
100
100
100
100
100
100
100
100
100
100
100
387.588
362.924
338.733
315.297
292.86
271.618
251.715
233.248
216.27
200.799
186.817
174.286
163.143
153.314
144.71
137.24
130.803
125.3
120.634
116.708
113.432
110.719
108.492
106.678
105.212
104.037
103.104
102.368
101.793
101.347
101.005
100.743
100.546
100.398
100.287
100.206
100.147
100.104
100.073
100.051
100.035
100.024
100.016
100.011
100.007
100.005
100.003
100.002
100.001
100.001
100.001
100
100
100
100
100
100
100
100
100
100
100
100
100
100
100
100
100
100
100
100
100
100
100
100
387.858
363.718
340.001
316.966
294.839
273.811
254.028
235.596
218.581
203.015
188.896
176.199
164.874
154.856
146.065
138.414
131.809
126.153
121.349
117.301
113.919
111.116
108.811
106.933
105.414
104.196
103.227
102.463
101.866
101.402
101.046
100.774
100.569
100.414
100.3
100.215
100.153
100.108
100.076
100.053
100.036
100.025
100.017
100.011
100.008
100.005
100.003
100.002
100.001
100.001
100.001
100
100
100
100
100
100
100
100
100
100
100
100
100
100
100
100
100
100
100
100
100
100
100
100
388.065
364.327
340.977
318.255
296.377
275.526
255.849
237.458
220.427
204.797
190.58
177.758
166.293
156.127
147.188
139.393
132.651
126.87
121.952
117.803
114.332
111.453
109.084
107.151
105.587
104.332
103.333
102.545
101.928
101.45
101.082
100.801
100.588
100.429
100.31
100.223
100.158
100.112
100.078
100.055
100.038
100.026
100.018
100.012
100.008
100.005
100.003
100.002
100.001
100.001
100.001
100
100
100
100
100
100
100
100
100
100
100
100
100
100
100
100
100
100
100
100
100
100
100
100
388.224
364.793
341.727
319.25
297.57
276.863
257.278
238.927
221.893
206.222
191.933
179.018
167.446
157.165
148.109
140.199
133.349
127.465
122.454
118.223
114.679
111.737
109.314
107.335
105.733
104.447
103.423
102.615
101.982
101.491
101.112
100.824
100.605
100.441
100.319
100.229
100.163
100.115
100.081
100.056
100.039
100.027
100.018
100.012
100.008
100.005
100.004
100.002
100.002
100.001
100.001
100
100
100
100
100
100
100
100
100
100
100
100
100
100
100
100
100
100
100
100
100
100
100
100
388.345
365.151
342.303
320.018
298.493
277.903
258.395
240.083
223.051
207.353
193.014
180.03
168.377
158.007
148.86
140.859
133.921
127.956
122.87
118.571
114.968
111.974
109.506
107.49
105.856
104.544
103.499
102.674
102.027
101.525
101.138
100.843
100.62
100.452
100.327
100.235
100.167
100.118
100.083
100.058
100.04
100.027
100.019
100.012
100.008
100.006
100.004
100.002
100.002
100.001
100.001
100
100
100
100
100
100
100
100
100
100
100
100
100
100
100
100
100
100
100
100
100
100
100
100
388.438
365.426
342.746
320.608
299.206
278.71
259.264
240.986
223.961
208.247
193.871
180.837
169.122
158.684
149.466
141.394
134.387
128.356
123.211
118.857
115.206
112.169
109.665
107.618
105.959
104.625
103.563
102.723
102.065
101.554
101.16
100.86
100.632
100.461
100.333
100.239
100.171
100.121
100.085
100.059
100.041
100.028
100.019
100.013
100.009
100.006
100.004
100.002
100.002
100.001
100.001
100
100
100
100
100
100
100
100
100
100
100
100
100
100
100
100
100
100
100
100
100
100
100
100
388.509
365.635
343.085
321.062
299.755
279.333
259.939
241.689
224.673
208.948
194.547
181.475
169.714
159.225
149.951
141.824
134.763
128.681
123.487
119.09
115.4
112.329
109.796
107.724
106.044
104.692
103.615
102.764
102.097
101.578
101.178
100.873
100.642
100.468
100.339
100.243
100.173
100.123
100.086
100.06
100.041
100.028
100.019
100.013
100.009
100.006
100.004
100.002
100.002
100.001
100.001
100
100
100
100
100
100
100
100
100
100
100
100
100
100
100
100
100
100
100
100
100
100
100
100
388.563
365.795
343.344
321.409
300.176
279.812
260.459
242.234
225.226
209.495
195.077
181.977
170.181
159.653
150.337
142.167
135.063
128.941
123.71
119.278
115.557
112.459
109.902
107.81
106.113
104.747
103.658
102.797
102.122
101.598
101.193
100.885
100.65
100.475
100.343
100.247
100.176
100.124
100.087
100.061
100.042
100.029
100.02
100.013
100.009
100.006
100.004
100.003
100.002
100.001
100.001
100
100
100
100
100
100
100
100
100
100
100
100
100
100
100
100
100
100
100
100
100
100
100
100
388.604
365.917
343.541
321.673
300.498
280.179
260.858
242.653
225.653
209.919
195.488
182.369
170.547
159.989
150.641
142.438
135.302
129.148
123.887
119.429
115.683
112.564
109.988
107.879
106.168
104.792
103.693
102.825
102.143
101.614
101.206
100.894
100.657
100.48
100.347
100.249
100.178
100.126
100.088
100.061
100.042
100.029
100.02
100.013
100.009
100.006
100.004
100.003
100.002
100.001
100.001
100
100
100
100
100
100
100
100
100
100
100
100
100
100
100
100
100
100
100
100
100
100
100
100
388.635
366.009
343.69
321.874
300.742
280.458
261.164
242.974
225.981
210.246
195.807
182.673
170.832
160.251
150.879
142.651
135.489
129.311
124.027
119.548
115.783
112.647
110.056
107.935
106.213
104.827
103.721
102.847
102.161
101.627
101.216
100.901
100.663
100.484
100.35
100.252
100.179
100.127
100.089
100.062
100.043
100.029
100.02
100.013
100.009
100.006
100.004
100.003
100.002
100.001
100.001
100
100
100
100
100
100
100
100
100
100
100
100
100
100
100
100
100
100
100
100
100
100
100
100
388.659
366.078
343.803
322.026
300.927
280.67
261.396
243.219
226.232
210.497
196.051
182.907
171.052
160.454
151.064
142.816
135.636
129.439
124.138
119.642
115.862
112.713
110.11
107.979
106.249
104.856
103.744
102.864
102.174
101.637
101.224
100.907
100.667
100.487
100.353
100.253
100.181
100.128
100.09
100.062
100.043
100.03
100.02
100.014
100.009
100.006
100.004
100.003
100.002
100.001
100.001
100
100
100
100
100
100
100
100
100
100
100
100
100
100
100
100
100
100
100
100
100
100
100
100
388.676
366.13
343.887
322.14
301.067
280.83
261.571
243.405
226.422
210.687
196.237
183.085
171.22
160.61
151.206
142.944
135.749
129.538
124.223
119.715
115.924
112.764
110.153
108.014
106.277
104.878
103.762
102.878
102.185
101.646
101.23
100.912
100.671
100.49
100.355
100.255
100.182
100.128
100.09
100.063
100.043
100.03
100.02
100.014
100.009
100.006
100.004
100.003
100.002
100.001
100.001
100
100
100
100
100
100
100
100
100
100
100
100
100
100
100
100
100
100
100
100
100
100
100
100
388.689
366.169
343.951
322.225
301.171
280.951
261.703
243.544
226.566
210.831
196.379
183.221
171.348
160.729
151.315
143.042
135.836
129.615
124.29
119.772
115.972
112.804
110.186
108.041
106.298
104.895
103.775
102.889
102.193
101.652
101.235
100.916
100.674
100.492
100.356
100.256
100.182
100.129
100.091
100.063
100.044
100.03
100.02
100.014
100.009
100.006
100.004
100.003
100.002
100.001
100.001
100
100
100
100
100
100
100
100
100
100
100
100
100
100
100
100
100
100
100
100
100
100
100
100
388.699
366.198
343.998
322.289
301.249
281.04
261.801
243.649
226.673
210.939
196.485
183.324
171.445
160.82
151.398
143.117
135.903
129.673
124.34
119.815
116.009
112.835
110.211
108.062
106.315
104.909
103.786
102.897
102.2
101.657
101.239
100.919
100.676
100.493
100.357
100.257
100.183
100.129
100.091
100.063
100.044
100.03
100.02
100.014
100.009
100.006
100.004
100.003
100.002
100.001
100.001
100
100
100
100
100
100
100
100
100
100
100
100
100
100
100
100
100
100
100
100
100
100
100
100
388.706
366.22
344.033
322.336
301.307
281.107
261.874
243.727
226.754
211.02
196.565
183.401
171.518
160.888
151.46
143.173
135.953
129.717
124.379
119.848
116.037
112.858
110.231
108.078
106.328
104.919
103.794
102.904
102.205
101.661
101.242
100.921
100.678
100.495
100.358
100.257
100.184
100.13
100.091
100.063
100.044
100.03
100.02
100.014
100.009
100.006
100.004
100.003
100.002
100.001
100.001
100
100
100
100
100
100
100
100
100
100
100
100
100
100
100
100
100
100
100
100
100
100
100
100
388.712
366.236
344.058
322.37
301.349
281.156
261.928
243.784
226.813
211.08
196.624
183.458
171.573
160.938
151.507
143.216
135.991
129.751
124.408
119.873
116.058
112.876
110.246
108.09
106.338
104.927
103.801
102.909
102.209
101.664
101.244
100.923
100.679
100.496
100.359
100.258
100.184
100.13
100.091
100.064
100.044
100.03
100.02
100.014
100.009
100.006
100.004
100.003
100.002
100.001
100.001
100
100
100
100
100
100
100
100
100
100
100
100
100
100
100
100
100
100
100
100
100
100
100
100
388.716
366.247
344.077
322.396
301.381
281.191
261.968
243.826
226.857
211.124
196.667
183.5
171.613
160.976
151.541
143.247
136.019
129.775
124.429
119.892
116.074
112.89
110.257
108.099
106.346
104.933
103.806
102.913
102.212
101.667
101.246
100.924
100.68
100.496
100.36
100.258
100.184
100.13
100.091
100.064
100.044
100.03
100.02
100.014
100.009
100.006
100.004
100.003
100.002
100.001
100.001
100
100
100
100
100
100
100
100
100
100
100
100
100
100
100
100
100
100
100
100
100
100
100
100
388.718
366.255
344.091
322.414
301.403
281.218
261.997
243.857
226.889
211.156
196.699
183.531
171.642
161.003
151.567
143.27
136.04
129.794
124.445
119.905
116.086
112.9
110.265
108.106
106.351
104.938
103.809
102.916
102.214
101.668
101.247
100.925
100.681
100.497
100.36
100.259
100.184
100.13
100.092
100.064
100.044
100.03
100.021
100.014
100.009
100.006
100.004
100.003
100.002
100.001
100.001
100
100
100
100
100
100
100
100
100
100
100
100
100
100
100
100
100
100
100
100
100
100
100
100
388.72
366.261
344.101
322.428
301.42
281.237
262.018
243.879
226.912
211.18
196.722
183.553
171.664
161.024
151.586
143.287
136.055
129.807
124.457
119.916
116.094
112.907
110.271
108.111
106.355
104.941
103.812
102.918
102.216
101.67
101.248
100.926
100.681
100.497
100.36
100.259
100.185
100.131
100.092
100.064
100.044
100.03
100.021
100.014
100.009
100.006
100.004
100.003
100.002
100.001
100.001
100
100
100
100
100
100
100
100
100
100
100
100
100
100
100
100
100
100
100
100
100
100
100
100
388.722
366.266
344.108
322.437
301.431
281.25
262.033
243.895
226.929
211.197
196.739
183.57
171.679
161.038
151.599
143.3
136.066
129.817
124.466
119.923
116.101
112.912
110.276
108.115
106.358
104.944
103.814
102.919
102.217
101.671
101.249
100.926
100.682
100.498
100.361
100.259
100.185
100.131
100.092
100.064
100.044
100.03
100.021
100.014
100.009
100.006
100.004
100.003
100.002
100.001
100.001
100
100
100
100
100
100
100
100
100
100
100
100
100
100
100
100
100
100
100
100
100
100
100
100
388.723
366.269
344.113
322.444
301.44
281.26
262.044
243.907
226.94
211.209
196.751
183.581
171.69
161.049
151.609
143.308
136.074
129.824
124.472
119.929
116.105
112.916
110.279
108.117
106.361
104.945
103.815
102.92
102.218
101.671
101.249
100.927
100.682
100.498
100.361
100.259
100.185
100.131
100.092
100.064
100.044
100.03
100.021
100.014
100.009
100.006
100.004
100.003
100.002
100.001
100.001
100
100
100
100
100
100
100
100
100
100
100
100
100
100
100
100
100
100
100
100
100
100
100
100
388.724
366.271
344.116
322.449
301.446
281.267
262.051
243.915
226.949
211.218
196.76
183.59
171.698
161.056
151.616
143.315
136.08
129.829
124.477
119.932
116.109
112.919
110.281
108.119
106.362
104.947
103.816
102.921
102.219
101.672
101.25
100.927
100.682
100.498
100.361
100.259
100.185
100.131
100.092
100.064
100.044
100.03
100.021
100.014
100.009
100.006
100.004
100.003
100.002
100.001
100.001
100
100
100
100
100
100
100
100
100
100
100
100
100
100
100
100
100
100
100
100
100
100
100
100
388.724
366.273
344.119
322.452
301.45
281.272
262.057
243.921
226.955
211.224
196.766
183.596
171.704
161.062
151.621
143.319
136.084
129.833
124.48
119.935
116.111
112.921
110.283
108.121
106.363
104.948
103.817
102.922
102.219
101.672
101.25
100.927
100.682
100.498
100.361
100.259
100.185
100.131
100.092
100.064
100.044
100.03
100.021
100.014
100.009
100.006
100.004
100.003
100.002
100.001
100.001
100
100
100
100
100
100
100
100
100
100
100
100
100
100
100
100
100
100
100
100
100
100
100
100
388.725
366.274
344.12
322.455
301.453
281.275
262.06
243.925
226.959
211.228
196.77
183.6
171.708
161.065
151.624
143.323
136.087
129.836
124.482
119.937
116.113
112.922
110.284
108.122
106.364
104.948
103.818
102.922
102.219
101.672
101.25
100.927
100.683
100.498
100.361
100.259
100.185
100.131
100.092
100.064
100.044
100.03
100.021
100.014
100.009
100.006
100.004
100.003
100.002
100.001
100.001
100
100
100
100
100
100
100
100
100
100
100
100
100
100
100
100
100
100
100
100
100
100
100
100
388.725
366.274
344.122
322.456
301.455
281.277
262.063
243.928
226.962
211.231
196.773
183.603
171.711
161.068
151.627
143.325
136.089
129.837
124.484
119.939
116.114
112.923
110.285
108.122
106.365
104.949
103.818
102.923
102.22
101.673
101.25
100.928
100.683
100.498
100.361
100.259
100.185
100.131
100.092
100.064
100.044
100.03
100.021
100.014
100.009
100.006
100.004
100.003
100.002
100.001
100.001
100
100
100
100
100
100
100
100
100
100
100
100
100
100
100
100
100
100
100
100
100
100
100
100
388.725
366.275
344.123
322.457
301.456
281.279
262.065
243.93
226.964
211.233
196.775
183.605
171.713
161.07
151.628
143.326
136.09
129.839
124.485
119.94
116.115
112.924
110.286
108.123
106.365
104.949
103.818
102.923
102.22
101.673
101.251
100.928
100.683
100.498
100.361
100.259
100.185
100.131
100.092
100.064
100.044
100.03
100.021
100.014
100.009
100.006
100.004
100.003
100.002
100.001
100.001
100
100
100
100
100
100
100
100
100
100
100
100
100
100
100
100
100
100
100
100
100
100
100
100
388.725
366.275
344.123
322.458
301.457
281.28
262.066
243.931
226.965
211.234
196.777
183.606
171.714
161.071
151.63
143.327
136.091
129.84
124.485
119.94
116.115
112.925
110.286
108.123
106.365
104.949
103.818
102.923
102.22
101.673
101.251
100.928
100.683
100.498
100.361
100.26
100.185
100.131
100.092
100.064
100.044
100.03
100.021
100.014
100.009
100.006
100.004
100.003
100.002
100.001
100.001
100
100
100
100
100
100
100
100
100
100
100
100
100
100
100
100
100
100
100
100
100
100
100
100
388.725
366.276
344.123
322.459
301.458
281.281
262.067
243.932
226.966
211.235
196.777
183.607
171.715
161.072
151.63
143.328
136.092
129.84
124.486
119.941
116.116
112.925
110.286
108.123
106.366
104.95
103.819
102.923
102.22
101.673
101.251
100.928
100.683
100.498
100.361
100.26
100.185
100.131
100.092
100.064
100.044
100.03
100.021
100.014
100.009
100.006
100.004
100.003
100.002
100.001
100.001
100
100
100
100
100
100
100
100
100
100
100
100
100
100
100
100
100
100
100
100
100
100
100
100
388.725
366.276
344.124
322.459
301.458
281.281
262.067
243.932
226.967
211.236
196.778
183.608
171.716
161.073
151.631
143.329
136.092
129.841
124.486
119.941
116.116
112.925
110.287
108.124
106.366
104.95
103.819
102.923
102.22
101.673
101.251
100.928
100.683
100.498
100.361
100.26
100.185
100.131
100.092
100.064
100.044
100.03
100.021
100.014
100.009
100.006
100.004
100.003
100.002
100.001
100.001
100
100
100
100
100
100
100
100
100
100
100
100
100
100
100
100
100
100
100
100
100
100
100
100
388.725
366.276
344.124
322.459
301.459
281.282
262.068
243.933
226.968
211.236
196.779
183.608
171.716
161.073
151.631
143.329
136.093
129.841
124.487
119.941
116.116
112.925
110.287
108.124
106.366
104.95
103.819
102.923
102.22
101.673
101.251
100.928
100.683
100.499
100.361
100.26
100.185
100.131
100.092
100.064
100.044
100.03
100.021
100.014
100.009
100.006
100.004
100.003
100.002
100.001
100.001
100
100
100
100
100
100
100
100
100
100
100
100
100
100
100
100
100
100
100
100
100
100
100
100
388.725
366.276
344.124
322.459
301.459
281.282
262.068
243.933
226.968
211.237
196.779
183.608
171.716
161.073
151.632
143.329
136.093
129.841
124.487
119.941
116.116
112.926
110.287
108.124
106.366
104.95
103.819
102.923
102.22
101.673
101.251
100.928
100.683
100.499
100.361
100.26
100.185
100.131
100.092
100.064
100.044
100.03
100.021
100.014
100.009
100.006
100.004
100.003
100.002
100.001
100.001
100
100
100
100
100
100
100
100
100
100
100
100
100
100
100
100
100
100
100
100
100
100
100
100
388.725
366.276
344.124
322.459
301.459
281.282
262.068
243.933
226.968
211.237
196.779
183.609
171.717
161.073
151.632
143.329
136.093
129.841
124.487
119.941
116.116
112.926
110.287
108.124
106.366
104.95
103.819
102.923
102.22
101.673
101.251
100.928
100.683
100.499
100.361
100.26
100.185
100.131
100.092
100.064
100.044
100.03
100.021
100.014
100.009
100.006
100.004
100.003
100.002
100.001
100.001
100
100
100
100
100
100
100
100
100
100
100
100
100
100
100
100
100
100
100
100
100
100
100
100
388.725
366.276
344.124
322.46
301.459
281.282
262.068
243.933
226.968
211.237
196.779
183.609
171.717
161.074
151.632
143.33
136.093
129.841
124.487
119.942
116.116
112.926
110.287
108.124
106.366
104.95
103.819
102.923
102.22
101.673
101.251
100.928
100.683
100.499
100.361
100.26
100.185
100.131
100.092
100.064
100.044
100.03
100.021
100.014
100.009
100.006
100.004
100.003
100.002
100.001
100.001
100
100
100
100
100
100
100
100
100
100
100
100
100
100
100
100
100
100
100
100
100
100
100
100
388.725
366.276
344.124
322.46
301.459
281.282
262.068
243.934
226.968
211.237
196.779
183.609
171.717
161.074
151.632
143.33
136.093
129.841
124.487
119.942
116.117
112.926
110.287
108.124
106.366
104.95
103.819
102.923
102.22
101.673
101.251
100.928
100.683
100.499
100.361
100.26
100.185
100.131
100.092
100.064
100.044
100.03
100.021
100.014
100.009
100.006
100.004
100.003
100.002
100.001
100.001
100
100
100
100
100
100
100
100
100
100
100
100
100
100
100
100
100
100
100
100
100
100
100
100
388.725
366.276
344.124
322.46
301.459
281.282
262.069
243.934
226.968
211.237
196.779
183.609
171.717
161.074
151.632
143.33
136.093
129.841
124.487
119.942
116.117
112.926
110.287
108.124
106.366
104.95
103.819
102.923
102.22
101.673
101.251
100.928
100.683
100.499
100.361
100.26
100.185
100.131
100.092
100.064
100.044
100.03
100.021
100.014
100.009
100.006
100.004
100.003
100.002
100.001
100.001
100
100
100
100
100
100
100
100
100
100
100
100
100
100
100
100
100
100
100
100
100
100
100
100
388.725
366.276
344.124
322.46
301.459
281.282
262.069
243.934
226.968
211.237
196.779
183.609
171.717
161.074
151.632
143.33
136.093
129.841
124.487
119.942
116.117
112.926
110.287
108.124
106.366
104.95
103.819
102.923
102.22
101.673
101.251
100.928
100.683
100.499
100.361
100.26
100.185
100.131
100.092
100.064
100.044
100.03
100.021
100.014
100.009
100.006
100.004
100.003
100.002
100.001
100.001
100
100
100
100
100
100
100
100
100
100
100
100
100
100
100
100
100
100
100
100
100
100
100
100
388.725
366.276
344.124
322.46
301.459
281.282
262.069
243.934
226.968
211.237
196.779
183.609
171.717
161.074
151.632
143.33
136.093
129.841
124.487
119.942
116.117
112.926
110.287
108.124
106.366
104.95
103.819
102.923
102.22
101.673
101.251
100.928
100.683
100.499
100.361
100.26
100.185
100.131
100.092
100.064
100.044
100.03
100.021
100.014
100.009
100.006
100.004
100.003
100.002
100.001
100.001
100
100
100
100
100
100
100
100
100
100
100
100
100
100
100
100
100
100
100
100
100
100
100
100
388.725
366.276
344.124
322.46
301.459
281.282
262.069
243.934
226.968
211.237
196.779
183.609
171.717
161.074
151.632
143.33
136.093
129.841
124.487
119.942
116.117
112.926
110.287
108.124
106.366
104.95
103.819
102.923
102.22
101.673
101.251
100.928
100.683
100.499
100.361
100.26
100.185
100.131
100.092
100.064
100.044
100.03
100.021
100.014
100.009
100.006
100.004
100.003
100.002
100.001
100.001
100
100
100
100
100
100
100
100
100
100
100
100
100
100
100
100
100
100
100
100
100
100
100
100
388.725
366.276
344.124
322.46
301.459
281.282
262.069
243.934
226.968
211.237
196.779
183.609
171.717
161.074
151.632
143.33
136.093
129.841
124.487
119.942
116.117
112.926
110.287
108.124
106.366
104.95
103.819
102.923
102.22
101.673
101.251
100.928
100.683
100.499
100.361
100.26
100.185
100.131
100.092
100.064
100.044
100.03
100.021
100.014
100.009
100.006
100.004
100.003
100.002
100.001
100.001
100
100
100
100
100
100
100
100
100
100
100
100
100
100
100
100
100
100
100
100
100
100
100
100
388.725
366.276
344.124
322.46
301.459
281.282
262.069
243.934
226.968
211.237
196.779
183.609
171.717
161.074
151.632
143.33
136.093
129.841
124.487
119.942
116.117
112.926
110.287
108.124
106.366
104.95
103.819
102.923
102.22
101.673
101.251
100.928
100.683
100.499
100.361
100.26
100.185
100.131
100.092
100.064
100.044
100.03
100.021
100.014
100.009
100.006
100.004
100.003
100.002
100.001
100.001
100
100
100
100
100
100
100
100
100
100
100
100
100
100
100
100
100
100
100
100
100
100
100
100
388.725
366.276
344.124
322.46
301.459
281.282
262.069
243.934
226.968
211.237
196.779
183.609
171.717
161.074
151.632
143.33
136.093
129.841
124.487
119.942
116.117
112.926
110.287
108.124
106.366
104.95
103.819
102.923
102.22
101.673
101.251
100.928
100.683
100.499
100.361
100.26
100.185
100.131
100.092
100.064
100.044
100.03
100.021
100.014
100.009
100.006
100.004
100.003
100.002
100.001
100.001
100
100
100
100
100
100
100
100
100
100
100
100
100
100
100
100
100
100
100
100
100
100
100
100
388.725
366.276
344.124
322.46
301.459
281.282
262.069
243.934
226.968
211.237
196.779
183.609
171.717
161.074
151.632
143.33
136.093
129.841
124.487
119.942
116.117
112.926
110.287
108.124
106.366
104.95
103.819
102.923
102.22
101.673
101.251
100.928
100.683
100.499
100.361
100.26
100.185
100.131
100.092
100.064
100.044
100.03
100.021
100.014
100.009
100.006
100.004
100.003
100.002
100.001
100.001
100
100
100
100
100
100
100
100
100
100
100
100
100
100
100
100
100
100
100
100
100
100
100
100
388.725
366.276
344.124
322.46
301.459
281.282
262.069
243.934
226.968
211.237
196.779
183.609
171.717
161.074
151.632
143.33
136.093
129.841
124.487
119.942
116.117
112.926
110.287
108.124
106.366
104.95
103.819
102.923
102.22
101.673
101.251
100.928
100.683
100.499
100.361
100.26
100.185
100.131
100.092
100.064
100.044
100.03
100.021
100.014
100.009
100.006
100.004
100.003
100.002
100.001
100.001
100
100
100
100
100
100
100
100
100
100
100
100
100
100
100
100
100
100
100
100
100
100
100
100
388.725
366.276
344.124
322.46
301.459
281.282
262.069
243.934
226.968
211.237
196.779
183.609
171.717
161.074
151.632
143.33
136.093
129.841
124.487
119.942
116.117
112.926
110.287
108.124
106.366
104.95
103.819
102.923
102.22
101.673
101.251
100.928
100.683
100.499
100.361
100.26
100.185
100.131
100.092
100.064
100.044
100.03
100.021
100.014
100.009
100.006
100.004
100.003
100.002
100.001
100.001
100
100
100
100
100
100
100
100
100
100
100
100
100
100
100
100
100
100
100
100
100
100
100
100
388.725
366.276
344.124
322.46
301.459
281.282
262.069
243.934
226.968
211.237
196.779
183.609
171.717
161.074
151.632
143.33
136.093
129.841
124.487
119.942
116.117
112.926
110.287
108.124
106.366
104.95
103.819
102.923
102.22
101.673
101.251
100.928
100.683
100.499
100.361
100.26
100.185
100.131
100.092
100.064
100.044
100.03
100.021
100.014
100.009
100.006
100.004
100.003
100.002
100.001
100.001
100
100
100
100
100
100
100
100
100
100
100
100
100
100
100
100
100
100
100
100
100
100
100
100
388.725
366.276
344.124
322.46
301.459
281.282
262.069
243.934
226.968
211.237
196.779
183.609
171.717
161.074
151.632
143.33
136.093
129.841
124.487
119.942
116.117
112.926
110.287
108.124
106.366
104.95
103.819
102.923
102.22
101.673
101.251
100.928
100.683
100.499
100.361
100.26
100.185
100.131
100.092
100.064
100.044
100.03
100.021
100.014
100.009
100.006
100.004
100.003
100.002
100.001
100.001
100
100
100
100
100
100
100
100
100
100
100
100
100
100
100
100
100
100
100
100
100
100
100
100
388.725
366.276
344.124
322.46
301.459
281.282
262.069
243.934
226.968
211.237
196.779
183.609
171.717
161.074
151.632
143.33
136.093
129.841
124.487
119.942
116.117
112.926
110.287
108.124
106.366
104.95
103.819
102.923
102.22
101.673
101.251
100.928
100.683
100.499
100.361
100.26
100.185
100.131
100.092
100.064
100.044
100.03
100.021
100.014
100.009
100.006
100.004
100.003
100.002
100.001
100.001
100
100
100
100
100
100
100
100
100
100
100
100
100
100
100
100
100
100
100
100
100
100
100
100
388.725
366.276