/*--------------------------------*- C++ -*----------------------------------*\
  =========                 |
  \\      /  F ield         | OpenFOAM: The Open Source CFD Toolbox
   \\    /   O peration     | Website:  https://openfoam.org
    \\  /    A nd           | Version:  10
     \\/     M anipulation  |
\*---------------------------------------------------------------------------*/
FoamFile
{
    format      ascii;
    class       volScalarField;
    location    "377";
    object      gradTz;
}
// * * * * * * * * * * * * * * * * * * * * * * * * * * * * * * * * * * * * * //

dimensions      [0 -1 0 1 0 0 0];

internalField   nonuniform List<scalar> 
11250
(
-14345
-4140.63
-1520.57
-717.326
-413.018
-271.861
-194.988
-147.999
-116.809
-94.8
-78.5147
-65.9987
-56.0786
-48.0162
-41.3289
-35.6916
-30.8788
-26.7301
-23.1287
-19.9876
-17.2397
-14.8327
-12.7242
-10.8791
-9.26752
-7.86366
-6.64469
-5.59023
-4.68183
-3.90275
-3.23774
-2.6729
-2.19561
-1.79442
-1.45903
-1.18017
-0.949615
-0.760069
-0.605126
-0.479194
-0.377432
-0.295677
-0.230376
-0.178523
-0.137587
-0.10546
-0.0803928
-0.0609484
-0.0459539
-0.0344583
-0.0256966
-0.0190576
-0.0140562
-0.0103105
-0.00752139
-0.00545667
-0.00393702
-0.00282501
-0.00201598
-0.00143076
-0.00100987
-0.000708894
-0.000494904
-0.000343629
-0.000237301
-0.000162996
-0.000111372
-7.57236e-05
-5.1269e-05
-3.46236e-05
-2.34138e-05
-1.59949e-05
-1.12499e-05
-8.44796e-06
-7.1498e-06
-8239.28
-4837.31
-2744.65
-1652.82
-1075.69
-751.113
-554.914
-428.058
-341.132
-278.587
-231.712
-195.363
-166.366
-142.684
-122.969
-106.302
-92.0398
-79.7243
-69.0185
-59.6701
-51.4848
-44.3096
-38.0203
-32.5138
-27.7024
-23.5096
-19.868
-16.717
-14.002
-11.6731
-9.6848
-7.99582
-6.56845
-5.36856
-4.36534
-3.53118
-2.84146
-2.27438
-1.8108
-1.43401
-1.12951
-0.884872
-0.689464
-0.534291
-0.411786
-0.315638
-0.240617
-0.182423
-0.137545
-0.103139
-0.0769152
-0.057044
-0.0420742
-0.0308625
-0.0225141
-0.0163339
-0.0117851
-0.00845649
-0.00603475
-0.00428296
-0.00302305
-0.0021221
-0.00148152
-0.00102868
-0.000710383
-0.000487945
-0.000333406
-0.00022669
-0.000153482
-0.000103652
-7.00937e-05
-4.78841e-05
-3.36791e-05
-2.52911e-05
-2.14049e-05
-5534.74
-4223.96
-2967.19
-2072.94
-1485.21
-1101.42
-845.002
-667.766
-540.728
-446.438
-374.194
-317.266
-271.302
-233.419
-201.658
-174.659
-151.457
-131.352
-113.828
-98.491
-85.0387
-73.2292
-62.8656
-53.783
-45.8403
-38.9142
-32.8952
-27.6846
-23.193
-19.3388
-16.0474
-13.2507
-10.8866
-8.89892
-7.23672
-5.85441
-4.7113
-3.77134
-3.00285
-2.37816
-1.87329
-1.46764
-1.14359
-0.88625
-0.683076
-0.523604
-0.399168
-0.302638
-0.228194
-0.171117
-0.127613
-0.094646
-0.0698102
-0.0512087
-0.0373574
-0.0271031
-0.0195556
-0.0140325
-0.0100141
-0.00710729
-0.00501663
-0.00352159
-0.0024586
-0.00170712
-0.00117892
-0.000809779
-0.000553316
-0.000376215
-0.000254722
-0.000172025
-0.000116331
-7.94719e-05
-5.58969e-05
-4.19758e-05
-3.55262e-05
-4139.74
-3555.4
-2826.03
-2185.44
-1689.75
-1323.44
-1055.08
-856.577
-707.003
-591.799
-501.051
-428.02
-368.097
-318.087
-275.746
-239.475
-208.113
-180.805
-156.908
-135.928
-117.479
-101.249
-86.9812
-74.4593
-63.4959
-53.9264
-45.603
-38.3926
-32.1733
-26.8338
-22.272
-18.3943
-15.1153
-12.3576
-10.0509
-8.13212
-6.54507
-5.23984
-4.17254
-3.30482
-2.60345
-2.03984
-1.58957
-1.23196
-0.949585
-0.727936
-0.554969
-0.420783
-0.317291
-0.23794
-0.177453
-0.131616
-0.0970825
-0.0712164
-0.051955
-0.0376949
-0.0271986
-0.0195174
-0.0139287
-0.00988579
-0.00697796
-0.00489851
-0.00341996
-0.00237469
-0.00163996
-0.00112648
-0.00076973
-0.00052337
-0.000354361
-0.000239319
-0.000161841
-0.000110564
-7.77666e-05
-5.83997e-05
-4.9427e-05
-3327.36
-3030.16
-2594.48
-2151.49
-1763.49
-1446.2
-1194.18
-995.481
-838.109
-712.089
-609.755
-525.412
-454.894
-395.161
-343.988
-299.735
-261.183
-227.41
-197.71
-171.532
-148.437
-128.066
-110.118
-94.3383
-80.5014
-68.4082
-57.8787
-48.7487
-40.8675
-34.0967
-28.3087
-23.3863
-19.2221
-15.7185
-12.7869
-10.3477
-8.32959
-6.66946
-5.31166
-4.20756
-3.31498
-2.5976
-2.0244
-1.56909
-1.20955
-0.927289
-0.707002
-0.53609
-0.404263
-0.303178
-0.226119
-0.16772
-0.123719
-0.0907598
-0.0662153
-0.048043
-0.0346666
-0.0248772
-0.0177543
-0.0126014
-0.00889502
-0.00624446
-0.00435977
-0.00302733
-0.00209072
-0.00143614
-0.000981343
-0.000667267
-0.000451799
-0.00030513
-0.000206351
-0.000140974
-9.91578e-05
-7.4465e-05
-6.30249e-05
-2810
-2641.24
-2368.16
-2060.6
-1764.68
-1502.05
-1278.49
-1091.82
-936.844
-807.908
-699.913
-608.654
-530.8
-463.773
-405.594
-354.748
-310.071
-270.659
-235.805
-204.942
-177.611
-153.428
-132.067
-113.245
-96.7118
-82.24
-69.6232
-58.6714
-49.2089
-41.073
-34.1132
-28.1906
-23.1778
-18.9581
-15.426
-12.486
-10.0528
-8.05066
-6.41271
-5.08049
-4.00327
-3.13733
-2.44532
-1.89554
-1.46134
-1.12042
-0.854328
-0.647852
-0.488578
-0.366435
-0.273316
-0.202739
-0.14956
-0.109722
-0.0800537
-0.0580863
-0.0419154
-0.0300803
-0.0214684
-0.0152381
-0.0107566
-0.0075516
-0.00527256
-0.00366127
-0.0025286
-0.00173697
-0.00118694
-0.000807084
-0.000546481
-0.000369084
-0.000249606
-0.000170529
-0.000119949
-9.0081e-05
-7.62429e-05
-2458.73
-2354.03
-2173.79
-1955.69
-1730.37
-1516.83
-1324.15
-1154.94
-1008.31
-881.833
-772.667
-678.096
-595.75
-523.655
-460.212
-404.139
-354.415
-310.221
-270.896
-235.898
-204.774
-177.14
-152.661
-131.04
-112.009
-95.3224
-80.7538
-68.092
-57.1405
-47.7157
-39.6469
-32.7759
-26.9568
-22.0558
-17.9514
-14.5337
-11.7041
-9.37502
-7.46902
-5.91838
-4.66423
-3.65585
-2.84985
-2.2094
-1.70349
-1.30623
-0.996102
-0.755431
-0.569758
-0.427355
-0.318779
-0.236479
-0.17446
-0.127999
-0.0933935
-0.0677693
-0.0489052
-0.0350982
-0.0250509
-0.0177817
-0.0125527
-0.00881285
-0.0061534
-0.00427308
-0.00295124
-0.00202736
-0.00138541
-0.000942069
-0.000637899
-0.000430838
-0.000291378
-0.000199073
-0.000140031
-0.000105165
-8.9011e-05
-2209.07
-2139.32
-2014.34
-1855.21
-1681.71
-1508.42
-1344.29
-1193.74
-1058.18
-937.334
-830.042
-734.854
-650.297
-575.024
-507.862
-447.822
-394.074
-345.93
-302.813
-264.236
-229.777
-199.068
-171.782
-147.618
-126.303
-107.579
-91.2054
-76.9558
-64.6166
-53.9868
-44.8784
-37.1162
-30.5379
-24.9943
-20.3493
-16.4797
-13.2746
-10.6354
-8.47492
-6.71673
-5.29435
-4.15042
-3.23587
-2.50901
-1.93475
-1.48373
-1.13159
-0.858273
-0.647385
-0.485625
-0.362275
-0.268767
-0.198296
-0.145496
-0.106168
-0.0770433
-0.055601
-0.0399058
-0.0284838
-0.0202195
-0.0142743
-0.0100219
-0.00699793
-0.00485974
-0.00335655
-0.00230588
-0.00157579
-0.00107156
-0.000725605
-0.00049009
-0.000331461
-0.000226465
-0.000159304
-0.000119643
-0.000101267
-2025.62
-1976.37
-1885.71
-1765.94
-1629.88
-1488.2
-1348.51
-1215.53
-1091.71
-978.011
-874.423
-780.455
-695.387
-618.438
-548.851
-485.939
-429.09
-377.768
-331.505
-289.886
-252.542
-219.135
-189.355
-162.913
-139.533
-118.956
-100.931
-85.2226
-71.6028
-59.8573
-49.7834
-41.1914
-33.9046
-27.76
-22.6085
-18.3147
-14.7568
-11.8259
-9.42575
-7.47188
-5.89072
-4.61876
-3.6016
-2.79303
-2.15407
-1.65214
-1.26018
-0.955914
-0.721112
-0.540983
-0.40361
-0.299459
-0.220958
-0.162137
-0.118319
-0.0858672
-0.0619731
-0.0444819
-0.0317519
-0.0225406
-0.0159137
-0.0111736
-0.00780244
-0.00541867
-0.00374275
-0.00257129
-0.00175725
-0.001195
-0.000809217
-0.000546583
-0.000369682
-0.000252587
-0.000177686
-0.000133452
-0.000112958
-1887.48
-1850.95
-1782.43
-1689.44
-1580.4
-1463.01
-1343.4
-1225.91
-1113.31
-1007.16
-908.189
-816.571
-732.167
-654.664
-583.679
-518.806
-459.651
-405.839
-357.018
-312.861
-273.059
-237.316
-205.351
-176.89
-151.667
-129.422
-109.903
-92.8665
-78.0765
-65.3075
-54.3451
-44.9871
-37.0447
-30.3428
-24.7207
-20.0322
-16.1453
-12.9421
-10.318
-8.18099
-6.45112
-5.05912
-3.94568
-3.06036
-2.3606
-1.8108
-1.38139
-1.04798
-0.790657
-0.59322
-0.442627
-0.328439
-0.242363
-0.177858
-0.129802
-0.0942076
-0.0679974
-0.0488092
-0.034843
-0.0247364
-0.017465
-0.0122634
-0.00856389
-0.00594777
-0.0041084
-0.00282262
-0.00192909
-0.00131191
-0.00088842
-0.000600104
-0.000405896
-0.000277342
-0.000195107
-0.000146542
-0.00012404
-1781.53
-1753.27
-1699.52
-1625.09
-1535.66
-1436.79
-1333.3
-1228.95
-1126.43
-1027.58
-933.506
-844.832
-761.832
-684.566
-612.956
-546.85
-486.05
-430.337
-379.479
-333.238
-291.373
-253.636
-219.778
-189.549
-162.696
-138.966
-118.109
-99.8756
-84.0261
-70.3267
-58.5537
-48.4949
-39.9509
-32.7365
-26.6807
-21.6277
-17.4366
-13.9811
-11.1491
-8.8421
-6.97395
-5.47024
-4.26712
-3.31024
-2.55376
-1.95927
-1.49485
-1.13421
-0.855816
-0.642181
-0.47921
-0.35562
-0.262445
-0.192613
-0.140581
-0.102039
-0.0736557
-0.0528745
-0.0377476
-0.0268002
-0.0189232
-0.0132881
-0.00927996
-0.00644543
-0.00445238
-0.00305909
-0.00209079
-0.00142194
-0.000962973
-0.000650488
-0.000439993
-0.000300652
-0.000211514
-0.000158871
-0.00013448
-1699.14
-1676.44
-1632.84
-1571.52
-1496.44
-1411.66
-1320.95
-1227.47
-1133.71
-1041.53
-952.238
-866.719
-785.535
-709.02
-637.342
-570.556
-508.642
-451.52
-399.072
-351.148
-307.573
-268.153
-232.676
-200.916
-172.638
-147.598
-125.552
-106.25
-89.4503
-74.9125
-62.4063
-51.7115
-42.6202
-34.9381
-28.4857
-23.0988
-18.6285
-14.9411
-11.9178
-9.45405
-7.4583
-5.85138
-4.56531
-3.5422
-2.73317
-2.09723
-1.60035
-1.21442
-0.916454
-0.687764
-0.513282
-0.380944
-0.281162
-0.206369
-0.150635
-0.109345
-0.0789356
-0.0566689
-0.0404593
-0.0287273
-0.0202852
-0.0142454
-0.00994906
-0.00691052
-0.0047739
-0.00328016
-0.00224199
-0.00152484
-0.0010327
-0.000697622
-0.000471894
-0.000322464
-0.000226869
-0.000170411
-0.000144252
-1634.4
-1615.56
-1579.09
-1527.2
-1462.7
-1388.66
-1308.01
-1223.41
-1137.07
-1050.78
-965.922
-883.519
-804.324
-728.862
-657.491
-590.434
-527.816
-469.683
-416.019
-366.756
-321.784
-280.961
-244.111
-211.038
-181.525
-155.342
-132.249
-112.002
-94.3567
-79.0698
-65.906
-54.6388
-45.0534
-36.9481
-30.1359
-24.4454
-19.7207
-15.8218
-12.6237
-10.0165
-7.90384
-6.20225
-4.84002
-3.75604
-2.89866
-2.22457
-1.69777
-1.28853
-0.972506
-0.729918
-0.544805
-0.404383
-0.298492
-0.21911
-0.159949
-0.116116
-0.0838303
-0.0601875
-0.0429745
-0.0305153
-0.0215492
-0.0151339
-0.0105703
-0.00734241
-0.00507253
-0.00348552
-0.00238247
-0.00162046
-0.00109751
-0.000741436
-0.000501553
-0.000342746
-0.000241149
-0.000181145
-0.000153342
-1583.12
-1567.01
-1535.66
-1490.65
-1434.05
-1368.21
-1295.47
-1218.04
-1137.89
-1056.68
-975.79
-896.314
-819.116
-744.854
-674.024
-606.98
-543.968
-485.138
-430.563
-380.251
-334.152
-292.17
-254.169
-219.98
-189.407
-162.234
-138.229
-117.153
-98.7611
-82.8103
-69.0613
-57.2831
-47.2551
-38.7697
-31.6336
-25.6692
-20.7146
-16.624
-13.2674
-10.5299
-8.31084
-6.52303
-5.09136
-3.95182
-3.05028
-2.34131
-1.78713
-1.35654
-1.02397
-0.768643
-0.573776
-0.425934
-0.314432
-0.230833
-0.168522
-0.122351
-0.0883387
-0.0634293
-0.0452925
-0.0321636
-0.0227146
-0.0159534
-0.0111433
-0.00774091
-0.00534812
-0.00367509
-0.00251217
-0.00170876
-0.00115737
-0.000781908
-0.000528955
-0.000361488
-0.000254347
-0.000191066
-0.000161745
-1542.26
-1528.14
-1500.52
-1460.59
-1409.93
-1350.38
-1283.84
-1212.18
-1137.13
-1060.23
-982.809
-905.989
-830.693
-757.668
-687.507
-620.666
-557.484
-498.197
-442.957
-391.834
-344.834
-301.907
-262.95
-227.821
-196.346
-168.322
-143.528
-121.73
-102.685
-86.1509
-71.8854
-59.6544
-49.233
-40.4087
-32.9832
-26.7735
-21.6125
-17.3496
-13.8502
-10.9952
-8.68007
-6.81428
-5.31975
-4.12986
-3.18825
-2.44761
-1.86855
-1.41855
-1.07092
-0.803983
-0.600226
-0.445618
-0.328998
-0.24155
-0.176362
-0.128054
-0.0924643
-0.0663968
-0.047415
-0.0336732
-0.0237824
-0.0167044
-0.0116686
-0.00810627
-0.00560085
-0.00384896
-0.00263116
-0.00178978
-0.00121231
-0.000819058
-0.000554112
-0.000378698
-0.000266468
-0.00020018
-0.000169465
-1509.57
-1496.9
-1472.05
-1435.91
-1389.76
-1335.05
-1273.37
-1206.33
-1135.45
-1062.16
-987.725
-913.255
-839.708
-767.884
-698.445
-631.921
-568.724
-509.162
-453.447
-401.708
-353.998
-310.304
-270.56
-234.647
-202.41
-173.662
-148.191
-125.768
-106.157
-89.1129
-74.3948
-61.7655
-50.9971
-41.8731
-34.1908
-27.7629
-22.4181
-18.0014
-14.3743
-11.414
-9.01275
-7.07694
-5.52588
-4.29067
-3.31296
-2.54376
-1.94224
-1.4747
-1.11346
-0.836021
-0.624217
-0.46348
-0.342221
-0.251282
-0.183486
-0.133238
-0.0962153
-0.0690957
-0.0493461
-0.0350471
-0.0247543
-0.0173882
-0.012147
-0.00843911
-0.00583115
-0.00400743
-0.00273963
-0.00186365
-0.0012624
-0.000852945
-0.000577064
-0.000394402
-0.000277531
-0.0002085
-0.000176513
-1483.34
-1471.75
-1448.96
-1415.69
-1372.97
-1322.01
-1264.15
-1200.8
-1133.31
-1063.01
-991.104
-918.677
-846.695
-775.993
-707.276
-641.128
-578.02
-518.313
-462.271
-410.071
-361.806
-317.498
-277.11
-240.547
-207.672
-178.311
-152.263
-129.306
-109.206
-91.7208
-76.6089
-63.632
-52.5595
-43.1722
-35.2638
-28.6433
-23.1358
-18.5828
-14.8424
-11.7884
-9.31047
-7.31221
-5.71067
-4.43494
-3.42493
-2.63014
-2.0085
-1.52521
-1.15175
-0.864875
-0.645835
-0.479584
-0.354147
-0.260065
-0.189916
-0.137919
-0.0996038
-0.0715347
-0.0510917
-0.0362894
-0.0256335
-0.0180069
-0.0125799
-0.00874042
-0.00603968
-0.00415096
-0.00283789
-0.00193059
-0.00130781
-0.000883663
-0.000597873
-0.000408642
-0.000287565
-0.000216047
-0.000182908
-1462.25
-1451.48
-1430.24
-1399.15
-1359.06
-1311
-1256.15
-1195.73
-1131
-1063.16
-993.374
-922.696
-852.089
-782.403
-714.375
-648.626
-585.668
-525.908
-469.651
-417.111
-368.417
-323.622
-282.711
-245.614
-212.208
-182.333
-155.797
-132.384
-111.866
-94.001
-78.549
-65.2707
-53.9339
-44.3168
-36.2107
-29.4214
-23.771
-19.098
-15.2576
-12.121
-9.57511
-7.52153
-5.87523
-4.56353
-3.5248
-2.70725
-2.06767
-1.57036
-1.18599
-0.890692
-0.665188
-0.494007
-0.364834
-0.267938
-0.195683
-0.142119
-0.102645
-0.0737247
-0.0526596
-0.0374056
-0.0264237
-0.0185632
-0.0129693
-0.00901147
-0.0062273
-0.00428014
-0.00292635
-0.00199086
-0.0013487
-0.000911332
-0.000616621
-0.000421476
-0.000296609
-0.000222851
-0.000188673
-1445.28
-1435.12
-1415.07
-1385.64
-1347.58
-1301.79
-1249.29
-1191.22
-1128.7
-1062.88
-994.854
-925.655
-856.236
-787.452
-720.058
-654.704
-591.932
-532.181
-475.79
-423.004
-373.982
-328.802
-287.471
-249.937
-216.092
-185.788
-158.842
-135.045
-114.17
-95.9812
-80.2376
-66.6998
-55.1347
-45.3186
-37.0406
-30.1044
-24.3293
-19.5514
-15.6234
-12.4143
-9.80879
-7.70654
-6.02081
-4.67738
-3.61329
-2.77562
-2.12018
-1.61044
-1.21641
-0.913643
-0.682402
-0.506843
-0.374349
-0.274951
-0.200822
-0.145864
-0.105358
-0.0756786
-0.0540591
-0.0384022
-0.0271295
-0.0190601
-0.0133173
-0.00925375
-0.00639507
-0.00439566
-0.00300548
-0.00204479
-0.00138529
-0.000936101
-0.000633407
-0.000432969
-0.000304711
-0.000228947
-0.000193839
-1431.61
-1421.92
-1402.78
-1374.63
-1338.14
-1294.11
-1243.48
-1187.26
-1126.53
-1062.35
-995.777
-927.819
-859.413
-791.416
-724.593
-659.612
-597.037
-537.335
-480.869
-427.91
-378.64
-333.158
-291.491
-253.602
-219.397
-188.738
-161.449
-137.329
-116.154
-97.6897
-81.6976
-67.9379
-56.1768
-46.1895
-37.7633
-30.7
-24.8168
-19.9478
-15.9436
-12.6713
-10.0138
-7.86899
-6.14875
-4.77751
-3.69119
-2.83585
-2.16647
-1.6458
-1.24326
-0.933914
-0.697614
-0.518192
-0.382767
-0.281158
-0.205373
-0.149181
-0.107762
-0.0774108
-0.0553001
-0.0392864
-0.0277558
-0.0195013
-0.0136263
-0.00946896
-0.00654412
-0.00449834
-0.00307583
-0.00209274
-0.00141784
-0.000958136
-0.000648344
-0.000443197
-0.000311923
-0.000234375
-0.00019844
-1420.61
-1411.28
-1392.84
-1365.68
-1330.41
-1287.75
-1238.58
-1183.84
-1124.54
-1061.69
-996.315
-929.389
-861.838
-794.518
-728.198
-663.559
-601.182
-541.55
-485.05
-431.972
-382.516
-336.8
-294.866
-256.691
-222.192
-191.24
-163.668
-139.277
-117.85
-99.1542
-82.9516
-69.0034
-57.0753
-46.9416
-38.3885
-31.2159
-25.2397
-20.2922
-16.2221
-12.895
-10.1924
-8.0107
-6.26045
-4.86502
-3.75932
-2.88856
-2.20701
-1.6768
-1.26681
-0.951703
-0.710972
-0.528162
-0.390166
-0.286617
-0.209377
-0.152101
-0.109879
-0.0789368
-0.0563939
-0.0400659
-0.0283081
-0.0198905
-0.0138989
-0.00965893
-0.00667574
-0.00458902
-0.00313797
-0.00213512
-0.00144661
-0.000977616
-0.000661552
-0.000452244
-0.000318303
-0.000239178
-0.000202511
-1411.76
-1402.71
-1384.81
-1358.42
-1324.09
-1282.51
-1234.49
-1180.93
-1122.77
-1061
-996.594
-930.519
-863.684
-796.938
-731.055
-666.722
-604.532
-544.983
-488.476
-435.318
-385.725
-339.828
-297.684
-259.279
-224.541
-193.35
-165.544
-140.929
-119.292
-100.401
-84.0219
-69.9146
-57.8451
-47.5871
-38.9257
-31.66
-25.6042
-20.5893
-16.4627
-13.0886
-10.3471
-8.13351
-6.35735
-4.941
-3.81852
-2.93441
-2.2423
-1.70379
-1.28733
-0.967215
-0.722626
-0.536867
-0.396629
-0.291387
-0.212877
-0.154654
-0.111731
-0.0802726
-0.0573517
-0.0407487
-0.0287922
-0.0202316
-0.0141381
-0.00982557
-0.00679122
-0.00466861
-0.00319253
-0.00217233
-0.00147188
-0.00099473
-0.000673159
-0.000460196
-0.000323912
-0.000243402
-0.000206092
-1404.66
-1395.82
-1378.33
-1352.54
-1318.94
-1278.21
-1231.1
-1178.46
-1121.22
-1060.31
-996.7
-931.324
-865.083
-798.821
-733.312
-669.247
-607.229
-547.766
-491.271
-438.062
-388.368
-342.333
-300.023
-261.435
-226.505
-195.119
-167.12
-142.321
-120.509
-101.457
-84.9297
-70.6889
-58.5003
-48.1374
-39.3845
-32.0397
-25.9163
-20.844
-16.6692
-13.2549
-10.4801
-8.23927
-6.44088
-5.00654
-3.86963
-2.97402
-2.27281
-1.72714
-1.30511
-0.980655
-0.73273
-0.544417
-0.402238
-0.295529
-0.215918
-0.156874
-0.113342
-0.0814347
-0.0581852
-0.0413432
-0.0292137
-0.0205289
-0.0143464
-0.00997084
-0.00689192
-0.00473803
-0.00324013
-0.0022048
-0.00149394
-0.00100967
-0.000683296
-0.000467143
-0.000328814
-0.000247093
-0.000209222
-1398.97
-1390.3
-1373.13
-1347.79
-1314.77
-1274.7
-1228.3
-1176.4
-1119.88
-1059.67
-996.698
-931.892
-866.14
-800.281
-735.089
-671.257
-609.393
-550.013
-493.539
-440.3
-390.534
-344.394
-301.955
-263.221
-228.137
-196.593
-168.438
-143.487
-121.531
-102.345
-85.6949
-71.3427
-59.0546
-48.6037
-39.7738
-32.3624
-26.1819
-21.0611
-16.8454
-13.3969
-10.5939
-8.32977
-6.51242
-5.06273
-3.91349
-3.00803
-2.29902
-1.74723
-1.3204
-0.992227
-0.741434
-0.550925
-0.407075
-0.299104
-0.218543
-0.158791
-0.114734
-0.0824392
-0.0589061
-0.0418575
-0.0295786
-0.0207862
-0.0145269
-0.0100967
-0.00697919
-0.00479821
-0.00328141
-0.00223297
-0.00151307
-0.00102264
-0.000692094
-0.000473174
-0.00033307
-0.000250299
-0.000211941
-1394.41
-1385.87
-1368.95
-1343.97
-1311.4
-1271.84
-1226
-1174.68
-1118.74
-1059.09
-996.631
-932.287
-866.936
-801.411
-736.484
-672.85
-611.122
-551.82
-495.373
-442.118
-392.3
-346.08
-303.541
-264.693
-229.485
-197.814
-169.532
-144.458
-122.384
-103.088
-86.336
-71.8915
-59.5206
-48.9963
-40.1022
-32.6349
-26.4065
-21.2448
-16.9947
-13.5174
-10.6905
-8.40672
-6.5733
-5.11059
-3.95087
-3.03705
-2.32141
-1.76439
-1.33347
-1.00213
-0.748886
-0.5565
-0.411221
-0.302169
-0.220796
-0.160437
-0.115929
-0.0833022
-0.0595256
-0.0422997
-0.0298923
-0.0210076
-0.0146822
-0.010205
-0.00705435
-0.00485005
-0.00331697
-0.00225724
-0.00152957
-0.00103382
-0.000699684
-0.000478378
-0.000336743
-0.000253067
-0.000214288
-1390.77
-1382.33
-1365.6
-1340.9
-1308.69
-1269.53
-1224.13
-1173.27
-1117.79
-1058.57
-996.529
-932.558
-867.533
-802.282
-737.576
-674.11
-612.498
-553.266
-496.849
-443.587
-393.733
-347.454
-304.837
-265.899
-230.593
-198.82
-170.436
-145.261
-123.092
-103.705
-86.8699
-72.3493
-59.91
-49.3249
-40.3774
-32.8637
-26.5952
-21.3995
-17.1205
-13.6191
-10.7721
-8.47174
-6.62479
-5.15111
-3.98255
-3.06166
-2.3404
-1.77896
-1.34458
-1.01054
-0.755225
-0.561246
-0.414752
-0.304781
-0.222716
-0.16184
-0.116949
-0.084039
-0.0600548
-0.0426775
-0.0301606
-0.0211969
-0.0148151
-0.0102977
-0.00711868
-0.00489444
-0.00334743
-0.00227804
-0.00154371
-0.00104341
-0.000706191
-0.000482841
-0.000339894
-0.000255441
-0.000216303
-1387.88
-1379.51
-1362.94
-1338.45
-1306.51
-1267.67
-1222.61
-1172.11
-1116.99
-1058.12
-996.412
-932.741
-867.979
-802.953
-738.428
-675.101
-613.589
-554.42
-498.031
-444.769
-394.89
-348.567
-305.891
-266.882
-231.499
-199.645
-171.178
-145.923
-123.675
-104.216
-87.3118
-72.7289
-60.2334
-49.5983
-40.6066
-33.0545
-26.7529
-21.5288
-17.2258
-13.7043
-10.8405
-8.52635
-6.66808
-5.1852
-4.00922
-3.08239
-2.35642
-1.79126
-1.35396
-1.01766
-0.760585
-0.565261
-0.417741
-0.306992
-0.224343
-0.16303
-0.117814
-0.0846641
-0.0605039
-0.0429984
-0.0303884
-0.0213578
-0.014928
-0.0103766
-0.0071734
-0.00493221
-0.00337336
-0.00229575
-0.00155575
-0.00105157
-0.000711736
-0.000486644
-0.000342581
-0.000257466
-0.000218021
-1385.58
-1377.28
-1360.82
-1336.5
-1304.76
-1266.17
-1221.39
-1171.16
-1116.33
-1057.74
-996.292
-932.861
-868.312
-803.466
-739.09
-675.88
-614.451
-555.336
-498.974
-445.716
-395.82
-349.464
-306.742
-267.679
-232.235
-200.317
-171.784
-146.464
-124.154
-104.635
-87.6755
-73.0419
-60.5005
-49.8243
-40.7964
-33.2127
-26.8837
-21.6362
-17.3135
-13.7752
-10.8976
-8.57192
-6.70423
-5.21369
-4.03154
-3.09975
-2.36984
-1.80157
-1.36183
-1.02363
-0.765089
-0.568636
-0.420256
-0.308854
-0.225714
-0.164033
-0.118543
-0.0851913
-0.0608829
-0.0432691
-0.0305808
-0.0214937
-0.0150235
-0.0104432
-0.00721966
-0.00496415
-0.00339529
-0.00231073
-0.00156594
-0.00105849
-0.000716431
-0.000489866
-0.000344856
-0.000259182
-0.000219477
-1383.77
-1375.5
-1359.13
-1334.95
-1303.38
-1264.97
-1220.4
-1170.4
-1115.79
-1057.42
-996.178
-932.938
-868.559
-803.859
-739.604
-676.488
-615.13
-556.061
-499.723
-446.47
-396.565
-350.184
-307.428
-268.323
-232.831
-200.861
-172.277
-146.904
-124.544
-104.977
-87.9732
-73.2984
-60.7196
-50.0101
-40.9526
-33.343
-26.9917
-21.725
-17.3859
-13.834
-10.9448
-8.60972
-6.73425
-5.23738
-4.05009
-3.11421
-2.38102
-1.81016
-1.3684
-1.02862
-0.76885
-0.571456
-0.422358
-0.310411
-0.22686
-0.164872
-0.119154
-0.0856331
-0.0612006
-0.0434963
-0.0307422
-0.0216078
-0.0151036
-0.0104992
-0.00725854
-0.004991
-0.00341373
-0.00232333
-0.00157451
-0.0010643
-0.000720383
-0.000492578
-0.000346773
-0.000260628
-0.000220704
-1382.33
-1374.11
-1357.81
-1333.72
-1302.28
-1264.02
-1219.61
-1169.78
-1115.35
-1057.15
-996.073
-932.985
-868.741
-804.159
-740.001
-676.963
-615.662
-556.632
-500.316
-447.07
-397.157
-350.759
-307.977
-268.839
-233.31
-201.3
-172.675
-147.261
-124.86
-105.255
-88.2153
-73.5074
-60.8985
-50.1619
-41.0804
-33.4498
-27.0803
-21.7979
-17.4455
-13.8823
-10.9838
-8.64089
-6.75903
-5.25693
-4.06543
-3.12616
-2.39028
-1.81728
-1.37384
-1.03275
-0.771972
-0.573799
-0.424105
-0.311706
-0.227814
-0.165571
-0.119662
-0.0860011
-0.0614653
-0.0436856
-0.0308768
-0.0217029
-0.0151705
-0.0105459
-0.007291
-0.00501342
-0.00342914
-0.00233386
-0.00158168
-0.00106917
-0.000723689
-0.000494848
-0.000348377
-0.000261838
-0.000221731
-1381.2
-1373.01
-1356.76
-1332.75
-1301.41
-1263.27
-1218.98
-1169.29
-1114.99
-1056.93
-995.981
-933.012
-868.875
-804.387
-740.307
-677.331
-616.077
-557.08
-500.783
-447.543
-397.627
-351.216
-308.414
-269.251
-233.693
-201.652
-172.994
-147.548
-125.116
-105.48
-88.4111
-73.6767
-61.0436
-50.2852
-41.1844
-33.5368
-27.1525
-21.8574
-17.4942
-13.9218
-11.0157
-8.66643
-6.77935
-5.27299
-4.07804
-3.13599
-2.39789
-1.82314
-1.37833
-1.03616
-0.774547
-0.575732
-0.425547
-0.312776
-0.228603
-0.166149
-0.120083
-0.0863058
-0.0616846
-0.0438425
-0.0309884
-0.0217818
-0.015226
-0.0105847
-0.00731795
-0.00503205
-0.00344194
-0.00234262
-0.00158764
-0.00107321
-0.000726438
-0.000496736
-0.000349712
-0.000262845
-0.000222586
-1380.32
-1372.15
-1355.94
-1331.99
-1300.72
-1262.67
-1218.49
-1168.9
-1114.7
-1056.75
-995.9
-933.025
-868.974
-804.559
-740.542
-677.616
-616.401
-557.43
-501.149
-447.915
-397.997
-351.578
-308.761
-269.578
-233.998
-201.933
-173.25
-147.778
-125.32
-105.66
-88.5687
-73.8131
-61.1606
-50.3848
-41.2685
-33.6073
-27.211
-21.9057
-17.5337
-13.954
-11.0416
-8.68724
-6.79591
-5.28609
-4.08833
-3.14402
-2.40412
-1.82794
-1.382
-1.03895
-0.776659
-0.577318
-0.426731
-0.313655
-0.229251
-0.166624
-0.120429
-0.0865565
-0.0618651
-0.0439717
-0.0310804
-0.0218469
-0.0152717
-0.0106167
-0.00734019
-0.00504742
-0.00345251
-0.00234984
-0.00159256
-0.00107655
-0.00072871
-0.000498296
-0.000350815
-0.000263678
-0.000223293
-1379.63
-1371.47
-1355.3
-1331.4
-1300.19
-1262.2
-1218.09
-1168.59
-1114.47
-1056.6
-995.832
-933.031
-869.046
-804.689
-740.721
-677.836
-616.651
-557.702
-501.435
-448.207
-398.288
-351.862
-309.034
-269.837
-234.24
-202.156
-173.453
-147.961
-125.483
-105.804
-88.6947
-73.9223
-61.2545
-50.4648
-41.3361
-33.6639
-27.2582
-21.9447
-17.5657
-13.98
-11.0626
-8.70409
-6.80934
-5.29672
-4.09669
-3.15055
-2.40918
-1.83185
-1.38499
-1.04123
-0.77838
-0.578612
-0.427698
-0.314372
-0.22978
-0.167012
-0.120712
-0.0867616
-0.0620128
-0.0440775
-0.0311557
-0.0219001
-0.0153092
-0.0106429
-0.00735842
-0.00506002
-0.00346118
-0.00235577
-0.0015966
-0.0010793
-0.000730576
-0.000499578
-0.000351722
-0.000264362
-0.000223874
-1379.1
-1370.95
-1354.8
-1330.93
-1299.77
-1261.84
-1217.79
-1168.34
-1114.29
-1056.48
-995.775
-933.031
-869.098
-804.787
-740.858
-678.005
-616.845
-557.913
-501.657
-448.435
-398.515
-352.085
-309.249
-270.041
-234.43
-202.332
-173.613
-148.106
-125.613
-105.918
-88.795
-74.0093
-61.3294
-50.5287
-41.3902
-33.7093
-27.296
-21.9759
-17.5913
-14.0009
-11.0795
-8.71765
-6.82016
-5.30529
-4.10343
-3.15582
-2.41328
-1.835
-1.38741
-1.04307
-0.779774
-0.579661
-0.428481
-0.314954
-0.23021
-0.167327
-0.120942
-0.0869283
-0.062133
-0.0441635
-0.0312169
-0.0219435
-0.0153397
-0.0106643
-0.00737328
-0.0050703
-0.00346825
-0.00236061
-0.00159989
-0.00108154
-0.000732099
-0.000500625
-0.000352463
-0.000264922
-0.000224349
-1378.68
-1370.54
-1354.41
-1330.57
-1299.44
-1261.55
-1217.55
-1168.15
-1114.15
-1056.39
-995.728
-933.028
-869.135
-804.861
-740.962
-678.134
-616.994
-558.076
-501.829
-448.611
-398.692
-352.259
-309.416
-270.2
-234.58
-202.47
-173.739
-148.22
-125.715
-106.009
-88.8743
-74.0782
-61.3888
-50.5794
-41.4332
-33.7454
-27.3261
-22.0008
-17.6118
-14.0175
-11.093
-8.72851
-6.82882
-5.31216
-4.10884
-3.16005
-2.41656
-1.83754
-1.38935
-1.04455
-0.780897
-0.580505
-0.429113
-0.315424
-0.230557
-0.167582
-0.121128
-0.0870631
-0.0622301
-0.0442331
-0.0312665
-0.0219786
-0.0153644
-0.0106816
-0.00738532
-0.00507864
-0.00347398
-0.00236454
-0.00160257
-0.00108335
-0.000733336
-0.000501475
-0.000353065
-0.000265376
-0.000224735
-1378.36
-1370.23
-1354.12
-1330.3
-1299.19
-1261.33
-1217.36
-1168
-1114.04
-1056.32
-995.69
-933.024
-869.163
-804.916
-741.041
-678.232
-617.108
-558.201
-501.962
-448.747
-398.829
-352.393
-309.547
-270.324
-234.696
-202.578
-173.838
-148.309
-125.795
-106.08
-88.9367
-74.1325
-61.4356
-50.6195
-41.4671
-33.774
-27.35
-22.0206
-17.628
-14.0308
-11.1038
-8.73715
-6.83572
-5.31763
-4.11315
-3.16342
-2.41919
-1.83957
-1.39091
-1.04574
-0.781796
-0.581182
-0.42962
-0.3158
-0.230835
-0.167786
-0.121277
-0.0871713
-0.0623082
-0.0442891
-0.0313064
-0.0220069
-0.0153843
-0.0106955
-0.00739502
-0.00508535
-0.0034786
-0.0023677
-0.00160472
-0.00108482
-0.000734333
-0.000502161
-0.00035355
-0.000265743
-0.000225047
-1378.12
-1369.99
-1353.89
-1330.08
-1299
-1261.16
-1217.22
-1167.88
-1113.95
-1056.26
-995.659
-933.019
-869.182
-804.957
-741.101
-678.307
-617.194
-558.297
-502.063
-448.852
-398.935
-352.497
-309.648
-270.42
-234.787
-202.662
-173.915
-148.379
-125.857
-106.135
-88.9855
-74.1751
-61.4723
-50.6509
-41.4938
-33.7965
-27.3687
-22.0362
-17.6408
-14.0413
-11.1122
-8.74398
-6.84118
-5.32197
-4.11657
-3.1661
-2.42127
-1.84118
-1.39215
-1.04668
-0.782511
-0.581721
-0.430023
-0.3161
-0.231057
-0.167949
-0.121396
-0.0872577
-0.0623705
-0.0443338
-0.0313383
-0.0220295
-0.0154003
-0.0107066
-0.00740278
-0.00509072
-0.0034823
-0.00237023
-0.00160645
-0.001086
-0.000735133
-0.000502711
-0.00035394
-0.000266037
-0.000225297
-1377.93
-1369.81
-1353.71
-1329.92
-1298.85
-1261.03
-1217.1
-1167.79
-1113.88
-1056.21
-995.634
-933.015
-869.196
-804.987
-741.145
-678.364
-617.26
-558.37
-502.141
-448.933
-399.016
-352.577
-309.725
-270.495
-234.856
-202.727
-173.975
-148.433
-125.906
-106.179
-89.0235
-74.2082
-61.501
-50.6754
-41.5147
-33.8141
-27.3834
-22.0484
-17.6509
-14.0495
-11.1189
-8.74935
-6.84548
-5.32538
-4.11926
-3.16821
-2.42291
-1.84245
-1.39312
-1.04743
-0.783077
-0.582147
-0.430342
-0.316338
-0.231233
-0.168078
-0.12149
-0.0873263
-0.06242
-0.0443693
-0.0313636
-0.0220474
-0.0154129
-0.0107155
-0.00740896
-0.005095
-0.00348525
-0.00237225
-0.00160783
-0.00108693
-0.000735771
-0.00050315
-0.00035425
-0.000266272
-0.000225496
-1377.79
-1369.67
-1353.58
-1329.79
-1298.73
-1260.93
-1217.02
-1167.72
-1113.83
-1056.17
-995.614
-933.01
-869.206
-805.009
-741.179
-678.406
-617.31
-558.425
-502.2
-448.994
-399.077
-352.639
-309.785
-270.551
-234.91
-202.777
-174.021
-148.475
-125.944
-106.212
-89.0529
-74.2339
-61.5232
-50.6945
-41.5309
-33.8278
-27.3949
-22.0579
-17.6587
-14.0559
-11.1241
-8.75355
-6.84885
-5.32806
-4.12137
-3.16987
-2.4242
-1.84345
-1.39389
-1.04802
-0.783522
-0.582483
-0.430594
-0.316525
-0.231371
-0.16818
-0.121565
-0.0873804
-0.0624591
-0.0443974
-0.0313836
-0.0220616
-0.0154229
-0.0107225
-0.00741385
-0.00509839
-0.00348758
-0.00237385
-0.00160892
-0.00108767
-0.000736276
-0.000503498
-0.000354497
-0.000266458
-0.000225655
-1377.68
-1369.56
-1353.48
-1329.7
-1298.65
-1260.85
-1216.95
-1167.67
-1113.79
-1056.15
-995.599
-933.006
-869.213
-805.026
-741.204
-678.438
-617.348
-558.467
-502.245
-449.04
-399.124
-352.685
-309.83
-270.595
-234.951
-202.815
-174.056
-148.507
-125.972
-106.238
-89.0755
-74.2537
-61.5403
-50.7092
-41.5434
-33.8383
-27.4038
-22.0653
-17.6648
-14.0609
-11.1282
-8.75682
-6.85146
-5.33014
-4.12302
-3.17116
-2.42521
-1.84423
-1.39449
-1.04847
-0.78387
-0.582746
-0.430791
-0.316672
-0.23148
-0.16826
-0.121623
-0.0874229
-0.0624898
-0.0444194
-0.0313994
-0.0220728
-0.0154308
-0.010728
-0.00741769
-0.00510105
-0.00348942
-0.00237511
-0.00160978
-0.00108826
-0.000736674
-0.000503771
-0.000354691
-0.000266604
-0.000225779
-1377.6
-1369.48
-1353.4
-1329.63
-1298.58
-1260.8
-1216.91
-1167.63