/*--------------------------------*- C++ -*----------------------------------*\
  =========                 |
  \\      /  F ield         | OpenFOAM: The Open Source CFD Toolbox
   \\    /   O peration     | Website:  https://openfoam.org
    \\  /    A nd           | Version:  10
     \\/     M anipulation  |
\*---------------------------------------------------------------------------*/
FoamFile
{
    format      ascii;
    class       volScalarField;
    location    "1200";
    object      gradTz;
}
// * * * * * * * * * * * * * * * * * * * * * * * * * * * * * * * * * * * * * //

dimensions      [0 -1 0 1 0 0 0];

internalField   nonuniform List<scalar> 
11250
(
-14330.6
-4126.34
-1506.6
-703.851
-400.179
-259.794
-183.81
-137.812
-107.695
-86.8196
-71.7097
-60.3902
-51.6678
-44.7857
-39.2445
-34.7035
-30.9242
-27.7353
-25.0113
-22.659
-20.6073
-18.8022
-17.2013
-15.7714
-14.4863
-13.3248
-12.2698
-11.3075
-10.4265
-9.61734
-8.8721
-8.18422
-7.5481
-6.95897
-6.41275
-5.90588
-5.43528
-4.99822
-4.59227
-4.21528
-3.86528
-3.54051
-3.23934
-2.96027
-2.7019
-2.46295
-2.24219
-2.0385
-1.85078
-1.67804
-1.51929
-1.37364
-1.24022
-1.11821
-1.00683
-0.905355
-0.813085
-0.729369
-0.653592
-0.585176
-0.523584
-0.468311
-0.418894
-0.3749
-0.335937
-0.301643
-0.271694
-0.245798
-0.223698
-0.205168
-0.190019
-0.178089
-0.169253
-0.163414
-0.160511
-8195.94
-4794.48
-2702.81
-1612.45
-1037.23
-714.958
-521.423
-397.535
-313.822
-254.675
-211.321
-178.557
-153.148
-133.003
-116.721
-103.338
-92.1727
-82.7328
-74.656
-67.671
-61.5719
-56.2
-51.4318
-47.1698
-43.3368
-39.8705
-36.7206
-33.8462
-31.2136
-28.7948
-26.5665
-24.5091
-22.6061
-20.8434
-19.2087
-17.6916
-16.2828
-14.9743
-13.7587
-12.6298
-11.5816
-10.6089
-9.70675
-8.87077
-8.09678
-7.3809
-6.71951
-6.1092
-5.54675
-5.02913
-4.55345
-4.11699
-3.71716
-3.35152
-3.01774
-2.71362
-2.43709
-2.18619
-1.95908
-1.75403
-1.56942
-1.40376
-1.25564
-1.12378
-1.00699
-0.904202
-0.814432
-0.736812
-0.670568
-0.615028
-0.569617
-0.533858
-0.507371
-0.489871
-0.481168
-5462.69
-4152.75
-2897.63
-2005.82
-1421.26
-1041.32
-789.325
-617.021
-495.323
-406.68
-340.29
-289.319
-249.32
-217.315
-191.261
-169.722
-151.668
-136.343
-123.189
-111.782
-101.798
-92.9874
-85.1532
-78.1404
-71.8253
-66.1079
-60.9075
-56.1579
-51.8044
-47.8018
-44.1124
-40.7042
-37.5504
-34.6278
-31.9166
-29.3995
-27.0616
-24.8894
-22.8712
-20.9963
-19.2553
-17.6393
-16.1405
-14.7513
-13.465
-12.2751
-11.1757
-10.1611
-9.22596
-8.36531
-7.57435
-6.84856
-6.18364
-5.57554
-5.0204
-4.51458
-4.05462
-3.63727
-3.25949
-2.91838
-2.61129
-2.33569
-2.08928
-1.8699
-1.6756
-1.50458
-1.35523
-1.22608
-1.11587
-1.02346
-0.9479
-0.888403
-0.844332
-0.815214
-0.800732
-4039.26
-3456.09
-2729.03
-2091.84
-1600.57
-1239.61
-977.429
-785.798
-643.669
-536.339
-453.752
-389.028
-337.421
-295.607
-261.225
-232.568
-208.385
-187.744
-169.942
-154.444
-140.833
-128.787
-118.048
-108.415
-99.7238
-91.8423
-84.663
-78.0977
-72.0734
-66.5293
-61.4145
-56.6861
-52.3076
-48.2476
-44.4794
-40.9793
-37.7269
-34.704
-31.8945
-29.2837
-26.8586
-24.6072
-22.5185
-20.5822
-18.789
-17.13
-15.5968
-14.1818
-12.8774
-11.6768
-10.5733
-9.56061
-8.63279
-7.78418
-7.00941
-6.30342
-5.66141
-5.07885
-4.55148
-4.07529
-3.64656
-3.26179
-2.91775
-2.61145
-2.34015
-2.10136
-1.8928
-1.71247
-1.55856
-1.42952
-1.324
-1.24092
-1.17937
-1.13871
-1.11849
-3198.84
-2903.12
-2470.4
-2031.76
-1649.4
-1338.96
-1094.83
-904.929
-757.076
-641.125
-549.226
-475.506
-415.623
-366.373
-325.378
-290.864
-261.494
-236.249
-214.347
-195.182
-178.279
-163.261
-149.832
-137.75
-126.824
-116.894
-107.831
-99.5307
-91.9029
-84.8742
-78.3825
-72.3753
-66.8077
-61.6412
-56.8425
-52.3826
-48.236
-44.3801
-40.7948
-37.4618
-34.3648
-31.4886
-28.8195
-26.3446
-24.0519
-21.9304
-19.9695
-18.1593
-16.4905
-14.9541
-13.5418
-12.2456
-11.0579
-9.97146
-8.97947
-8.07546
-7.25331
-6.50723
-5.83179
-5.22186
-4.67268
-4.17979
-3.73905
-3.34665
-2.99907
-2.69312
-2.42591
-2.19484
-1.99763
-1.83228
-1.69707
-1.59061
-1.51174
-1.45963
-1.43372
-2653.91
-2486.96
-2217.46
-1915.18
-1626.12
-1371.8
-1157.82
-981.82
-838.403
-721.689
-626.364
-548.001
-483.059
-428.759
-382.939
-343.919
-310.392
-281.339
-255.957
-233.614
-213.805
-196.128
-180.259
-165.934
-152.94
-141.102
-130.273
-120.334
-111.186
-102.742
-94.9333
-87.6984
-80.9857
-74.7507
-68.9547
-63.5638
-58.5483
-53.8815
-49.5399
-45.5019
-41.7481
-38.2606
-35.0231
-32.0201
-29.2375
-26.6619
-24.2808
-22.0821
-20.0548
-18.188
-16.4717
-14.8963
-13.4525
-12.1316
-10.9255
-9.82615
-8.82627
-7.91884
-7.09724
-6.35528
-5.68717
-5.08749
-4.55124
-4.07376
-3.65081
-3.2785
-2.95331
-2.6721
-2.43209
-2.23084
-2.06629
-1.9367
-1.84071
-1.77728
-1.74574
-2275.66
-2173.08
-1997.04
-1785.12
-1567.84
-1364.04
-1182.6
-1025.9
-892.811
-780.66
-686.346
-606.895
-539.688
-482.516
-433.565
-391.361
-354.715
-322.671
-294.458
-269.455
-247.159
-227.162
-209.13
-192.791
-177.92
-164.33
-151.867
-140.402
-129.826
-120.049
-110.992
-102.589
-94.7824
-87.5234
-80.7689
-74.4809
-68.6261
-63.1747
-58.0997
-53.377
-48.9845
-44.9017
-41.1099
-37.5916
-34.3303
-31.3107
-28.5183
-25.9392
-23.5605
-21.3698
-19.3552
-17.5056
-15.8103
-14.2591
-12.8425
-11.5511
-10.3764
-9.31023
-8.34478
-7.47284
-6.68762
-5.98277
-5.35242
-4.79113
-4.2939
-3.85617
-3.47384
-3.1432
-2.86098
-2.62434
-2.43083
-2.27845
-2.16557
-2.09098
-2.05389
-1999.68
-1932.36
-1812.18
-1660.11
-1495.8
-1333.64
-1182.35
-1046.1
-926.026
-821.554
-731.24
-653.336
-586.087
-527.876
-477.286
-433.105
-394.315
-360.068
-329.664
-302.523
-278.167
-256.201
-236.297
-218.185
-201.637
-186.466
-172.512
-159.642
-147.744
-136.722
-126.493
-116.988
-108.145
-99.9121
-92.2426
-85.0958
-78.4354
-72.2288
-66.4468
-61.0626
-56.0518
-51.392
-47.0623
-43.043
-39.316
-35.8639
-32.6705
-29.7202
-26.9984
-24.4911
-22.1849
-20.0671
-18.1255
-16.3488
-14.7258
-13.2462
-11.9001
-10.6781
-9.57152
-8.57198
-7.67175
-6.8636
-6.1408
-5.49714
-4.92691
-4.42489
-3.98636
-3.60711
-3.28339
-3.01193
-2.78995
-2.61514
-2.48564
-2.40008
-2.35752
-1790.66
-1744.13
-1658.84
-1547
-1421.25
-1292.04
-1166.75
-1049.8
-943.349
-848.012
-763.463
-688.88
-623.224
-565.414
-514.417
-469.297
-429.231
-393.505
-361.51
-332.731
-306.731
-283.143
-261.659
-242.019
-224.002
-207.425
-192.13
-177.984
-164.873
-152.7
-141.381
-130.845
-121.028
-111.875
-103.339
-95.3748
-87.9456
-81.0165
-74.5561
-68.536
-62.9299
-57.7133
-52.8636
-48.3596
-44.1812
-40.3095
-36.7267
-33.4155
-30.3599
-27.5442
-24.9538
-22.5744
-20.3926
-18.3956
-16.5711
-14.9075
-13.3938
-12.0195
-10.7747
-9.65025
-8.63741
-7.72807
-6.91469
-6.19031
-5.5485
-4.98344
-4.48981
-4.06288
-3.69844
-3.39283
-3.14291
-2.94609
-2.80028
-2.70394
-2.65603
-1627.77
-1594.24
-1531.66
-1447.42
-1349.76
-1246.15
-1142.44
-1042.66
-949.229
-863.367
-785.427
-715.224
-652.265
-595.909
-545.464
-500.255
-459.65
-423.078
-390.033
-360.075
-332.821
-307.944
-285.162
-264.234
-244.955
-227.148
-210.663
-195.371
-181.16
-167.935
-155.612
-144.12
-133.394
-123.379
-114.025
-105.289
-97.1302
-89.5135
-82.406
-75.7776
-69.6006
-63.8492
-58.4993
-53.528
-48.914
-44.6368
-40.6771
-37.0164
-33.6371
-30.5222
-27.6557
-25.022
-22.6065
-20.3951
-18.3744
-16.5315
-14.8543
-13.3313
-11.9518
-10.7054
-9.58257
-8.57438
-7.67249
-6.8692
-6.15742
-5.5307
-4.98318
-4.5096
-4.10532
-3.76628
-3.48901
-3.27065
-3.10888
-3.00199
-2.94883
-1497.96
-1472.97
-1425.69
-1360.81
-1283.79
-1199.95
-1113.81
-1028.77
-947.175
-870.454
-799.328
-734.021
-674.425
-620.237
-571.049
-526.408
-485.861
-448.975
-415.348
-384.619
-356.467
-330.607
-306.793
-284.807
-264.464
-245.6
-228.075
-211.767
-196.57
-182.392
-169.152
-156.779
-145.212
-134.394
-124.276
-114.814
-105.967
-97.6995
-89.9775
-82.7701
-76.0484
-69.7856
-63.9562
-58.5365
-53.5036
-48.836
-44.513
-40.5149
-36.8228
-33.4185
-30.2847
-27.4047
-24.7626
-22.3432
-20.1318
-18.1147
-16.2786
-14.6111
-13.1004
-11.7353
-10.5054
-9.40087
-8.41272
-7.5325
-6.7525
-6.06563
-5.46552
-4.94642
-4.50326
-4.13159
-3.82763
-3.58822
-3.41087
-3.29367
-3.23539
-1392.63
-1373.47
-1336.86
-1285.84
-1224.16
-1155.61
-1083.63
-1011.01
-939.843
-871.563
-807.053
-746.772
-690.87
-639.288
-591.834
-548.245
-508.22
-471.449
-437.632
-406.484
-377.745
-351.179
-326.575
-303.745
-282.525
-262.768
-244.348
-227.151
-211.08
-196.047
-181.977
-168.801
-156.46
-144.899
-134.07
-123.93
-114.438
-105.558
-97.2552
-89.4991
-82.26
-75.5101
-69.2234
-63.3748
-57.9409
-52.8988
-48.2268
-43.9042
-39.9108
-36.2275
-32.8358
-29.7178
-26.8567
-24.2359
-21.8401
-19.6542
-17.6641
-15.8565
-14.2184
-12.7381
-11.4041
-10.206
-9.13404
-8.17903
-7.33265
-6.58728
-5.93599
-5.37258
-4.89156
-4.48811
-4.15815
-3.89826
-3.70572
-3.57849
-3.51521
-1305.94
-1290.87
-1261.89
-1221.03
-1170.88
-1114.21
-1053.61
-991.337
-929.184
-868.485
-810.159
-754.783
-702.662
-653.905
-608.483
-566.278
-527.115
-490.794
-457.102
-425.827
-396.769
-369.738
-344.562
-321.082
-299.158
-278.662
-259.482
-241.518
-224.68
-208.888
-194.073
-180.17
-167.123
-154.879
-143.394
-132.624
-122.529
-113.075
-104.227
-95.953
-88.2245
-81.0128
-74.2914
-68.0345
-62.2178
-56.8178
-51.8118
-47.1781
-42.8956
-38.9442
-35.3044
-31.9573
-28.885
-26.0702
-23.4963
-21.1474
-19.0084
-17.0652
-15.304
-13.712
-12.2773
-10.9885
-9.83523
-8.80768
-7.89691
-7.09476
-6.3938
-5.78737
-5.26958
-4.83527
-4.48005
-4.20025
-3.99295
-3.85597
-3.78784
-1233.71
-1221.62
-1198.22
-1164.93
-1123.57
-1076.18
-1024.75
-971.047
-916.597
-862.584
-809.896
-759.147
-710.729
-664.859
-621.622
-581.007
-542.944
-507.319
-473.997
-442.832
-413.677
-386.388
-360.829
-336.871
-314.399
-293.306
-273.493
-254.875
-237.373
-220.914
-205.435
-190.879
-177.192
-164.326
-152.237
-140.884
-130.231
-120.241
-110.882
-102.123
-93.9335
-86.2858
-79.1528
-72.5085
-66.328
-60.5871
-55.2625
-50.3316
-45.7727
-41.5645
-37.6867
-34.1198
-30.8446
-27.8431
-25.0977
-22.5918
-20.3094
-18.2354
-16.3553
-14.6556
-13.1235
-11.7471
-10.5152
-9.41749
-8.44443
-7.58731
-6.83825
-6.19015
-5.63674
-5.17253
-4.79283
-4.49374
-4.27214
-4.1257
-4.05287
-1172.95
-1163.06
-1143.84
-1116.27
-1081.71
-1041.64
-997.584
-950.976
-903.063
-854.879
-807.242
-760.76
-715.863
-672.83
-631.821
-592.907
-556.093
-521.337
-488.568
-457.698
-428.626
-401.25
-375.469
-351.184
-328.303
-306.738
-286.409
-267.243
-249.171
-232.131
-216.068
-200.928
-186.665
-173.234
-160.594
-148.707
-137.537
-127.051
-117.216
-108.003
-99.3809
-91.323
-83.802
-76.7916
-70.2665
-64.2021
-58.5746
-53.3608
-48.5381
-44.0848
-39.9796
-36.2022
-32.7327
-29.5522
-26.6423
-23.9856
-21.5653
-19.3655
-17.371
-15.5675
-13.9417
-12.4808
-11.1731
-10.0076
-8.97443
-8.06425
-7.26873
-6.58038
-5.99255
-5.49944
-5.09607
-4.77832
-4.54289
-4.38731
-4.30993
-1121.4
-1113.18
-1097.13
-1073.98
-1044.71
-1010.45
-972.386
-931.643
-889.256
-846.115
-802.951
-760.342
-718.723
-678.403
-639.59
-602.41
-566.925
-533.149
-501.063
-470.625
-441.778
-414.455
-388.588
-364.104
-340.933
-319.009
-298.268
-278.648
-260.095
-242.555
-225.981
-210.325
-195.547
-181.606
-168.466
-156.09
-144.446
-133.501
-123.225
-113.588
-104.563
-96.1207
-88.2351
-80.8798
-74.0295
-67.6592
-61.7448
-56.2624
-51.1891
-46.5024
-42.1805
-38.2023
-34.5472
-31.1956
-28.1283
-25.3271
-22.7746
-20.4541
-18.3498
-16.4467
-14.7307
-13.1886
-11.808
-10.5774
-9.48629
-8.52499
-7.68472
-6.95757
-6.33657
-5.81558
-5.3894
-5.05366
-4.80489
-4.64048
-4.55871
-1077.37
-1070.43
-1056.83
-1037.12
-1012.03
-982.432
-949.235
-913.352
-875.631
-836.83
-797.596
-758.461
-719.846
-682.072
-645.371
-609.904
-575.775
-543.04
-511.721
-481.815
-453.299
-426.139
-400.295
-375.719
-352.363
-330.177
-309.115
-289.129
-270.174
-252.208
-235.19
-219.082
-203.847
-189.449
-175.856
-163.036
-150.958
-139.591
-128.908
-118.879
-109.478
-100.677
-92.45
-84.7711
-77.6148
-70.9562
-64.7707
-59.0343
-53.7236
-48.8155
-44.2876
-40.1184
-36.2865
-32.7717
-29.5542
-26.6151
-23.9362
-21.5003
-19.2909
-17.2923
-15.4899
-13.8699
-12.4193
-11.1262
-9.97947
-8.96907
-8.08578
-7.32134
-6.66843
-6.12064
-5.6725
-5.31944
-5.05784
-4.88494
-4.79895
-1039.52
-1033.58
-1021.91
-1004.92
-983.165
-957.321
-928.109
-896.261
-862.479
-827.406
-791.606
-755.562
-719.671
-684.249
-649.541
-615.729
-582.944
-551.272
-520.768
-491.458
-463.351
-436.439
-410.705
-386.125
-362.669
-340.307
-319.004
-298.727
-279.443
-261.117
-243.719
-227.216
-211.577
-196.772
-182.773
-169.551
-157.077
-145.324
-134.266
-123.875
-114.126
-104.991
-96.446
-88.4645
-81.0214
-74.0919
-67.6512
-61.6753
-56.1402
-51.0226
-46.2997
-41.9492
-37.9495
-34.2795
-30.9191
-27.8486
-25.0492
-22.5032
-20.1934
-18.1036
-16.2187
-14.5241
-13.0065
-11.6535
-10.4535
-9.39608
-8.47156
-7.67135
-6.98784
-6.41433
-5.94512
-5.57545
-5.30151
-5.12047
-5.03042
-1006.84
-1001.68
-991.538
-976.714
-957.646
-934.856
-908.923
-880.438
-849.984
-818.106
-785.295
-751.985
-718.543
-685.272
-652.42
-620.179
-588.696
-558.081
-528.411
-499.736
-472.09
-445.486
-419.93
-395.417
-371.933
-349.464
-327.99
-307.489
-287.939
-269.315
-251.592
-234.747
-218.755
-203.59
-189.227
-175.642
-162.81
-150.706
-139.304
-128.58
-118.509
-109.065
-100.224
-91.9605
-84.2494
-77.0661
-70.386
-64.1848
-58.4384
-53.1232
-48.2161
-43.6942
-39.5355
-35.7185
-32.2223
-29.0269
-26.1131
-23.4623
-21.0569
-18.8802
-16.9165
-15.1508
-13.5693
-12.1591
-10.9082
-9.80576
-8.84179
-8.00738
-7.29457
-6.69644
-6.20706
-5.82147
-5.53574
-5.34689
-5.25295
-978.486
-973.961
-965.039
-951.962
-935.071
-914.782
-891.559
-865.886
-838.248
-809.108
-778.895
-747.992
-716.738
-685.419
-654.276
-623.506
-593.265
-563.678
-534.838
-506.816
-479.662
-453.41
-428.082
-403.689
-380.236
-357.719
-336.132
-315.465
-295.704
-276.834
-258.839
-241.701
-225.401
-209.918
-195.232
-181.323
-168.167
-155.743
-144.028
-132.999
-122.631
-112.902
-103.787
-95.2607
-87.3
-79.8798
-72.9756
-66.5633
-60.6185
-55.1174
-50.0367
-45.3531
-41.0443
-37.0882
-33.4636
-30.15
-27.1275
-24.3772
-21.8811
-19.6218
-17.5831
-15.7497
-14.1074
-12.6426
-11.3433
-10.1979
-9.19631
-8.32924
-7.58847
-6.96684
-6.45818
-6.05739
-5.76038
-5.56407
-5.46642
-953.802
-949.786
-941.853
-930.196
-915.086
-896.856
-875.884
-852.571
-827.32
-800.528
-772.567
-743.779
-714.47
-684.91
-655.329
-625.922
-596.851
-568.249
-540.22
-512.851
-486.204
-460.33
-435.265
-411.035
-387.657
-365.14
-343.489
-322.704
-302.781
-283.713
-265.492
-248.104
-231.537
-215.776
-200.804
-186.605
-173.158
-160.445
-148.445
-137.137
-126.498
-116.505
-107.137
-98.3681
-90.1755
-82.5347
-75.4216
-68.8118
-62.6812
-57.0059
-51.762
-46.9264
-42.4761
-38.3889
-34.6431
-31.2177
-28.0925
-25.248
-22.6658
-20.3282
-18.2185
-16.3209
-14.6206
-13.1041
-11.7586
-10.5724
-9.53501
-8.63685
-7.86945
-7.22541
-6.6984
-6.28312
-5.97535
-5.77193
-5.67075
-932.244
-928.642
-921.517
-911.022
-897.378
-880.855
-861.763
-840.435
-817.213
-792.435
-766.427
-739.492
-711.908
-683.924
-655.76
-627.607
-599.626
-571.955
-544.707
-517.976
-491.84
-466.358
-441.58
-417.542
-394.273
-371.794
-350.12
-329.258
-309.215
-289.99
-271.582
-253.983
-237.188
-221.184
-205.96
-191.503
-177.796
-164.823
-152.564
-141.002
-130.114
-119.881
-110.279
-101.286
-92.879
-85.0335
-77.726
-70.9322
-64.6281
-58.7897
-53.3931
-48.4147
-43.8316
-39.6211
-35.7611
-32.2304
-29.0082
-26.0749
-23.4114
-20.9997
-18.8226
-16.8642
-15.1091
-13.5435
-12.1542
-10.9293
-9.85787
-8.93017
-8.13747
-7.47215
-6.92768
-6.49863
-6.18064
-5.97045
-5.8659
-913.367
-910.104
-903.642
-894.107
-881.676
-866.575
-849.059
-829.409
-807.914
-784.866
-760.55
-735.236
-709.177
-682.602
-655.718
-628.709
-601.736
-574.936
-548.43
-522.317
-496.682
-471.597
-447.117
-423.292
-400.159
-377.748
-356.082
-335.179
-315.05
-295.704
-277.143
-259.369
-242.378
-226.164
-210.72
-196.034
-182.095
-168.888
-156.396
-144.603
-133.489
-123.035
-113.219
-104.02
-95.4144
-87.3795
-79.8916
-72.9268
-66.4612
-60.4706
-54.9312
-49.8194
-45.1118
-40.7856
-36.8184
-33.1886
-29.8752
-26.8581
-24.118
-21.6363
-19.3958
-17.3798
-15.573
-13.9609
-12.5302
-11.2686
-10.1649
-9.20926
-8.39258
-7.70707
-7.14605
-6.70392
-6.37623
-6.15963
-6.05188
-896.798
-893.815
-887.903
-879.163
-867.745
-853.833
-837.644
-819.415
-799.394
-777.834
-754.985
-731.089
-706.375
-681.054
-655.321
-629.352
-603.304
-577.314
-551.505
-525.981
-500.833
-476.139
-451.964
-428.364
-405.384
-383.063
-361.432
-340.515
-320.33
-300.892
-282.211
-264.291
-247.134
-230.739
-215.102
-200.216
-186.07
-172.653
-159.952
-147.95
-136.631
-125.975
-115.964
-106.575
-97.7865
-89.5767
-81.9219
-74.7986
-68.1828
-62.0507
-56.3783
-51.1419
-46.318
-41.8835
-37.8158
-34.0931
-30.6941
-27.5983
-24.7861
-22.2387
-19.9383
-17.8682
-16.0125
-14.3565
-12.8867
-11.5904
-10.4564
-9.47422
-8.63485
-7.93025
-7.35356
-6.89906
-6.56219
-6.33951
-6.22874
-882.228
-879.478
-874.023
-865.947
-855.376
-842.465
-827.397
-810.376
-791.615
-771.336
-749.76
-727.103
-703.574
-679.367
-654.666
-629.638
-604.434
-579.191
-554.032
-529.064
-504.383
-480.07
-456.198
-432.828
-410.014
-387.8
-366.223
-345.314
-325.097
-305.594
-286.817
-268.778
-251.482
-234.933
-219.128
-204.065
-189.736
-176.133
-163.243
-151.054
-139.548
-128.709
-118.519
-108.956
-100
-91.6296
-83.8208
-76.5509
-69.7961
-63.5326
-57.7366
-52.3841
-47.4518
-42.9162
-38.7547
-34.9451
-31.4659
-28.2963
-25.4165
-22.8073
-20.4507
-18.3296
-16.4279
-14.7307
-13.224
-11.8951
-10.7323
-9.72521
-8.86443
-8.14181
-7.55033
-7.08415
-6.73861
-6.51019
-6.39656
-869.395
-866.84
-861.767
-854.248
-844.389
-832.323
-818.206
-802.214
-784.533
-765.359
-744.887
-723.314
-700.827
-677.609
-653.83
-629.648
-605.212
-580.655
-556.098
-531.651
-507.411
-483.466
-459.89
-436.752
-414.109
-392.012
-370.504
-349.621
-329.393
-309.845
-290.996
-272.86
-255.449
-238.767
-222.818
-207.601
-193.111
-179.342
-166.283
-153.924
-142.25
-131.246
-120.892
-111.171
-102.062
-93.5431
-85.5927
-78.1875
-71.3042
-64.9192
-59.0084
-53.5483
-48.515
-43.8854
-39.6364
-35.7457
-32.1915
-28.953
-26.0099
-23.3428
-20.9335
-18.7646
-16.8197
-15.0837
-13.5424
-12.1828
-10.993
-9.96245
-9.08152
-8.34193
-7.73651
-7.25933
-6.90562
-6.67179
-6.55547
-858.076
-855.684
-850.933
-843.884
-834.627
-823.276
-809.968
-794.855
-778.102
-759.881
-740.369
-719.741
-698.172
-675.829
-652.872
-629.452
-605.711
-581.779
-557.777
-533.815
-509.99
-486.394
-463.105
-440.194
-417.726
-395.753
-374.325
-353.481
-333.257
-313.682
-294.779
-276.567
-259.06
-242.266
-226.193
-210.841
-196.209
-182.293
-169.085
-156.574
-144.748
-133.593
-123.092
-113.226
-103.977
-95.3227
-87.2421
-79.7126
-72.7109
-66.2135
-60.1967
-54.6367
-49.5099
-44.7929
-40.4625
-36.4963
-32.8723
-29.5694
-26.5671
-23.846
-21.3874
-19.1737
-17.1885
-15.4161
-13.8423
-12.4539
-11.2388
-10.1862
-9.28635
-8.5308
-7.9123
-7.42477
-7.06337
-6.82446
-6.70561
-848.082
-845.829
-841.349
-834.696
-825.949
-815.207
-802.589
-788.229
-772.274
-754.878
-736.199
-716.398
-695.635
-674.066
-651.84
-629.103
-605.989
-582.626
-559.133
-535.618
-512.181
-488.914
-465.899
-443.21
-420.914
-399.069
-377.727
-356.934
-336.726
-317.139
-298.198
-279.926
-262.34
-245.453
-229.273
-213.805
-199.048
-185.002
-171.66
-159.014
-147.052
-135.761
-125.126
-115.129
-105.752
-96.974
-88.7742
-81.1305
-74.0199
-67.419
-61.3044
-55.6522
-50.4387
-45.6407
-41.2348
-37.1984
-33.5095
-30.1467
-27.0894
-24.3178
-21.8132
-19.5578
-17.5347
-15.7284
-14.1243
-12.7089
-11.4701
-10.3968
-9.47919
-8.7087
-8.07791
-7.58069
-7.21208
-6.9684
-6.84717
-839.25
-837.113
-832.864
-826.548
-818.235
-808.011
-795.983
-782.27
-767.003
-750.32
-732.366
-713.288
-693.233
-672.347
-650.772
-628.645
-606.096
-583.249
-560.219
-537.116
-514.039
-491.08
-468.325
-445.849
-423.722
-402.005
-380.754
-360.017
-339.836
-320.247
-301.281
-282.964
-265.315
-248.349
-232.078
-216.509
-201.645
-187.484
-174.023
-161.256
-149.172
-137.759
-127.002
-116.887
-107.393
-98.5027
-90.1942
-82.4458
-75.2353
-68.5393
-62.3346
-56.5973
-51.3039
-46.4309
-41.9551
-37.8538
-34.1046
-30.6862
-27.5777
-24.7592
-22.2118
-19.9175
-17.8592
-16.0212
-14.3887
-12.9481
-11.6871
-10.5945
-9.66035
-8.87588
-8.23361
-7.7273
-7.35195
-7.1038
-6.98035
-831.439
-829.402
-825.348
-819.319
-811.375
-801.596
-790.074
-776.917
-762.243
-746.178
-728.855
-710.408
-690.976
-670.694
-649.696
-628.114
-606.071
-583.69
-561.082
-538.356
-515.611
-492.94
-470.428
-448.155
-426.191
-404.6
-383.442
-362.766
-342.618
-323.038
-304.058
-285.707
-268.007
-250.976
-234.629
-218.973
-204.013
-189.752
-176.187
-163.312
-151.118
-139.595
-128.73
-118.507
-108.908
-99.915
-91.5072
-83.6634
-76.3613
-69.5782
-63.2906
-57.4751
-52.1081
-47.166
-42.6256
-38.4642
-34.6593
-31.1893
-28.0333
-25.1713
-22.5841
-20.2536
-18.1626
-16.295
-14.6361
-13.1721
-11.8904
-10.7798
-9.83019
-9.03267
-8.37968
-7.86489
-7.48324
-7.23092
-7.10539
-824.528
-822.575
-818.688
-812.904
-805.277
-795.878
-784.79
-772.112
-757.951
-742.423
-725.649
-707.755
-688.869
-669.119
-648.633
-627.536
-605.948
-583.985
-561.76
-539.378
-516.938
-494.533
-472.249
-450.167
-428.359
-406.892
-385.825
-365.214
-345.104
-325.539
-306.554
-288.178
-270.439
-253.355
-236.942
-221.212
-206.171
-191.822
-178.164
-165.193
-152.902
-141.281
-130.318
-119.997
-110.303
-101.217
-92.7189
-84.788
-77.4023
-70.5394
-64.176
-58.2887
-52.8539
-47.8482
-43.2484
-39.0314
-35.175
-31.6574
-28.4575
-25.5552
-22.9311
-20.567
-18.4456
-16.5507
-14.8672
-13.3814
-12.0805
-10.9531
-9.98907
-9.1794
-8.51642
-7.99373
-7.60621
-7.35
-7.22253
-818.411
-816.53
-812.786
-807.211
-799.855
-790.782
-780.069
-767.805
-754.088
-739.025
-722.729
-705.318
-686.912
-667.632
-647.6
-626.934
-605.752
-584.166
-562.287
-540.217
-518.056
-495.896
-473.824
-451.921
-430.261
-408.912
-387.937
-367.39
-347.322
-327.777
-308.793
-290.402
-272.632
-255.505
-239.038
-223.244
-208.132
-193.706
-179.966
-166.911
-154.533
-142.824
-131.773
-121.365
-111.585
-102.415
-93.8346
-85.8245
-78.3627
-71.4269
-64.9941
-59.041
-53.5441
-48.48
-43.8255
-39.5575
-35.6536
-32.092
-28.8516
-25.912
-23.2538
-20.8586
-18.7091
-16.7887
-15.0826
-13.5765
-12.2578
-11.1148
-10.1374
-9.31642
-8.64416
-8.11413
-7.72114
-7.46132
-7.33205
-812.995
-811.176
-807.554
-802.159
-795.036
-786.244
-775.853
-763.946
-750.614
-735.956
-720.077
-703.089
-685.104
-666.238
-646.606
-626.324
-605.504
-584.257
-562.689
-540.903
-518.996
-497.061
-475.184
-453.448
-431.927
-410.691
-389.804
-369.323
-349.299
-329.778
-310.8
-292.4
-274.607
-257.445
-240.933
-225.085
-209.911
-195.418
-181.607
-168.477
-156.022
-144.235
-133.105
-122.619
-112.761
-103.514
-94.8598
-86.7778
-79.2468
-72.2446
-65.7485
-59.7353
-54.1815
-49.0639
-44.3591
-40.0442
-36.0967
-32.4947
-29.2169
-26.2429
-23.5533
-21.1295
-18.9538
-17.01
-15.2828
-13.758
-12.4227
-11.2654
-10.2756
-9.44412
-8.76324
-8.2264
-7.82835
-7.56517
-7.43423
-808.199
-806.434
-802.916
-797.676
-790.754
-782.204
-772.092
-760.493
-747.495
-733.188
-717.674
-701.055
-683.44
-664.938
-645.661
-625.72
-605.223
-584.278
-562.991
-541.46
-519.784
-498.055
-476.358
-454.776
-433.386
-412.257
-391.454
-371.036
-351.057
-331.563
-312.596
-294.192
-276.382
-259.192
-242.642
-226.749
-211.523
-196.971
-183.098
-169.901
-157.378
-145.522
-134.321
-123.764
-113.836
-104.521
-95.7999
-87.6528
-80.059
-72.9964
-66.4427
-60.3746
-54.769
-49.6024
-44.8516
-40.4938
-36.5062
-32.867
-29.5548
-26.5493
-23.8307
-21.3804
-19.1808
-17.2153
-15.4686
-13.9265
-12.576
-11.4053
-10.404
-9.56287
-8.87403
-8.33087
-7.92813
-7.66184
-7.52936
-803.953
-802.233
-798.806
-793.699
-786.949
-778.608
-768.737
-757.406
-744.697
-730.697
-715.5
-699.204
-681.914
-663.733
-644.77
-625.13
-604.921
-584.247
-563.21
-541.911
-520.444
-498.901
-477.37
-455.931
-434.661
-413.633
-392.91
-372.554
-352.619
-333.153
-314.2
-295.796
-277.975
-260.764
-244.183
-228.251
-212.98
-198.378
-184.449
-171.195
-158.612
-146.693
-135.429
-124.809
-114.819
-105.442
-96.6603
-88.4543
-80.8036
-73.6863
-67.0801
-60.9622
-55.3092
-50.0979
-45.3052
-40.908
-36.8837
-33.2105
-29.8668
-26.8322
-24.087
-21.6124
-19.3907
-17.4053
-15.6407
-14.0826
-12.718
-11.5351
-10.5232
-9.67308
-8.97687
-8.42789
-8.02082
-7.75166
-7.61774
-800.194
-798.513
-795.164
-790.171
-783.571
-775.41
-765.747
-754.649
-742.192
-728.458
-713.537
-697.525
-680.519
-662.621
-643.934
-624.562
-604.608
-584.175
-563.364
-542.273
-520.995
-499.622
-478.241
-456.933
-435.776
-414.84
-394.194
-373.897
-354.005
-334.569
-315.631
-297.231
-279.403
-262.174
-245.569
-229.604
-214.294
-199.649
-185.673
-172.367
-159.731
-147.757
-136.437
-125.761
-115.715
-106.282
-97.4461
-89.187
-81.4848
-74.318
-67.6643
-61.501
-55.805
-50.5531
-45.722
-41.2889
-37.2312
-33.5267
-30.1542
-27.0931
-24.3234
-21.8265
-19.5845
-17.5808
-15.7997
-14.227
-12.8494
-11.6551
-10.6335
-9.77515
-9.07216
-8.51781
-8.10674
-7.83493
-7.6997
-796.866
-795.22
-791.938
-787.044
-780.572
-772.568
-763.085
-752.189
-739.95
-726.448
-711.77
-696.005
-679.248
-661.599
-643.156
-624.02
-604.294
-584.076
-563.466
-542.561
-521.453
-500.234
-478.99
-457.802
-436.748
-415.9
-395.324
-375.084
-355.234
-335.826
-316.906
-298.512
-280.68
-263.439
-246.813
-230.821
-215.479
-200.796
-186.778
-173.428
-160.744
-148.722
-137.353
-126.626
-116.53
-107.048
-98.1624
-89.8555
-82.1069
-74.8953
-68.1986
-61.9942
-56.2591
-50.9702
-46.1043
-41.6385
-37.5502
-33.8173
-30.4185
-27.333
-24.541
-22.0236
-19.7631
-17.7425
-15.9464
-14.3602
-12.9707
-11.766
-10.7354
-9.86948
-9.16025
-8.60096
-8.18622
-7.91198
-7.77552
-793.922
-792.304
-789.081
-784.272
-777.912
-770.043
-760.717
-749.995
-737.946
-724.647
-710.179
-694.631
-678.094
-660.663
-642.435
-623.509
-603.983
-583.957
-563.526
-542.788
-521.834
-500.754
-479.634
-458.555
-437.595
-416.827
-396.318
-376.131
-356.322
-336.943
-318.04
-299.654
-281.821
-264.571
-247.928
-231.914
-216.544
-201.828
-187.775
-174.386
-161.661
-149.595
-138.182
-127.411
-117.27
-107.743
-98.8141
-90.4643
-82.6738
-75.4218
-68.6862
-62.4447
-56.6742
-51.3518
-46.4542
-41.9587
-37.8426
-34.0838
-30.6609
-27.5532
-24.7408
-22.2048
-19.9273
-17.8913
-16.0814
-14.4828
-13.0824
-11.8682
-10.8293
-9.95649
-9.24154
-8.67771
-8.25959
-7.98311
-7.84555
-791.318
-789.725
-786.552
-781.817
-775.554
-767.802
-758.611
-748.041
-736.158
-723.035
-708.752
-693.393
-677.048
-659.809
-641.77
-623.029
-603.681
-583.825
-563.555
-542.966
-522.149
-501.194
-480.186
-459.207
-438.334
-417.639
-397.192
-377.054
-357.284
-337.933
-319.048
-300.671
-282.839
-265.582
-248.927
-232.894
-217.5
-202.757
-188.672
-175.249
-162.488
-150.385
-138.933
-128.122
-117.941
-108.374
-99.4058
-91.0175
-83.1895
-75.9011
-69.1305
-62.8554
-57.0529
-51.7001
-46.7739
-42.2513
-38.11
-34.3276
-30.8829
-27.755
-24.924
-22.371
-20.0779
-18.028
-16.2053
-14.5955
-13.1851
-11.9621
-10.9158
-10.0366
-9.31638
-8.7484
-8.32719
-8.04866
-7.91007
-789.015
-787.445
-784.314
-779.644
-773.464
-765.814
-756.741
-746.303
-734.564
-721.594
-707.472
-692.279
-676.102
-659.031
-641.16
-622.581
-603.392
-583.686
-563.558
-543.102
-522.409
-501.566
-480.66
-459.77
-438.976
-418.35
-397.959
-377.867
-358.133
-338.809
-319.942
-301.576
-283.746
-266.485
-249.82
-233.772
-218.358
-203.591
-189.479
-176.026
-163.233
-151.097
-139.61
-128.764
-118.548
-108.946
-99.9421
-91.5193
-83.6576
-76.3365
-69.5344
-63.229
-57.3977
-52.0174
-47.0653
-42.5183
-38.354
-34.5503
-31.0858
-27.9395
-25.0916
-22.523
-20.2159
-18.1531
-16.319
-14.6988
-13.2794
-12.0484
-10.9952
-10.1101
-9.38516
-8.81338
-8.38935
-8.10894
-7.96942
-786.98
-785.429
-782.336
-777.722
-771.614
-764.052
-755.081
-744.758
-733.144
-720.308
-706.326
-691.278
-675.249
-658.326
-640.601
-622.167
-603.117
-583.544
-563.543
-543.206
-522.623
-501.881
-481.065
-460.258
-439.535
-418.97
-398.631
-378.582
-358.882
-339.583
-320.735
-302.378
-284.553
-267.29
-250.616
-234.556
-219.125
-204.338
-190.203
-176.725
-163.904
-151.738
-140.221
-129.344
-119.095
-109.462
-100.427
-91.9736
-84.0818
-76.7314
-69.9009
-63.5683
-57.711
-52.306
-47.3304
-42.7614
-38.5764
-34.7533
-31.2707
-28.1078
-25.2446
-22.662
-20.3419
-18.2675
-16.4229
-14.7934
-13.3656
-12.1274
-11.0679
-10.1776
-9.44824
-8.87299
-8.44638
-8.16426
-8.02388
-785.184
-783.649
-780.588
-776.022
-769.977
-762.491
-753.61
-743.386
-731.881
-719.162
-705.303
-690.381
-674.481
-657.688
-640.092
-621.785
-602.857
-583.403
-563.515
-543.283
-522.798
-502.146
-481.412
-460.678
-440.02
-419.511
-399.22
-379.211
-359.542
-340.268
-321.436
-303.09
-285.269
-268.005
-251.326
-235.256
-219.811
-205.007
-190.852
-177.351
-164.505
-152.314
-140.77
-129.866
-119.589
-109.928
-100.865
-92.3842
-84.4654
-77.0887
-70.2329
-63.8759
-57.9951
-52.5679
-47.5711
-42.9822
-38.7785
-34.938
-31.4391
-28.2611
-25.384
-22.7886
-20.4569
-18.372
-16.5178
-14.8798
-13.4445
-12.1997
-11.1345
-10.2393
-9.50596
-8.92757
-8.4986
-8.21493
-8.07377
-783.598
-782.077
-779.045
-774.52
-768.53
-761.11
-752.306
-742.169
-730.759
-718.142
-704.389
-689.579
-673.791
-657.112
-639.63
-621.434
-602.615
-583.265
-563.476
-543.338
-522.94
-502.369
-481.709
-461.041
-440.441
-419.983
-399.736
-379.762
-360.123
-340.871
-322.056
-303.721
-285.905
-268.641
-251.958
-235.879
-220.423
-205.604
-191.432
-177.911
-165.045
-152.831
-141.263
-130.335
-120.034
-110.348
-101.26
-92.7545
-84.8117
-77.4115
-70.533
-64.1541
-58.2523
-52.8051
-47.7894
-43.1825
-38.9619
-35.1056
-31.5921
-28.4004
-25.5107
-22.9038
-20.5616
-18.467
-16.6043
-14.9585
-13.5164
-12.2656
-11.1952
-10.2957
-9.5587
-8.97743
-8.54633
-8.26124
-8.11938
-782.199
-780.691
-777.683
-773.194
-767.251
-759.889
-751.152
-741.091
-729.763
-717.234
-703.575
-688.861
-673.173
-656.594
-639.211
-621.113
-602.389
-583.132
-563.431
-543.376
-523.056
-502.557
-481.962
-461.353
-440.806
-420.394
-400.186
-380.246
-360.634
-341.403
-322.603
-304.278
-286.468
-269.205
-252.519
-236.434
-220.968
-206.137
-191.949
-178.412
-165.528
-153.294
-141.706
-130.756
-120.433
-110.725
-101.615
-93.0879
-85.1236
-77.7026
-70.8037
-64.4052
-58.4847
-53.0195
-47.9868
-43.3638
-39.1281
-35.2576
-31.7308
-28.5268
-25.6258
-23.0084
-20.6567
-18.5535
-16.6829
-15.0302