/*--------------------------------*- C++ -*----------------------------------*\
  =========                 |
  \\      /  F ield         | OpenFOAM: The Open Source CFD Toolbox
   \\    /   O peration     | Website:  https://openfoam.org
    \\  /    A nd           | Version:  10
     \\/     M anipulation  |
\*---------------------------------------------------------------------------*/
FoamFile
{
    format      ascii;
    class       volScalarField;
    location    "148";
    object      gradTx;
}
// * * * * * * * * * * * * * * * * * * * * * * * * * * * * * * * * * * * * * //

dimensions      [0 -1 0 1 0 0 0];

internalField   nonuniform List<scalar> 
11250
(
14270.1
8015.61
5166.16
3632.35
2689.29
2051.04
1589.92
1242.21
972.87
760.911
592.77
459.067
352.922
269.039
203.196
151.945
112.433
82.2912
59.5541
42.6037
30.1204
21.0413
14.5217
9.90026
6.66678
4.43399
2.91244
1.8892
1.21015
0.765446
0.478044
0.294745
0.179378
0.107725
0.0638151
0.0372704
0.0214462
0.0121486
0.00676844
0.00370489
0.00199022
0.00104802
0.000540362
0.000272513
0.000134291
6.46092e-05
3.03253e-05
1.38779e-05
6.18933e-06
2.68919e-06
1.13806e-06
4.69058e-07
1.88285e-07
7.35942e-08
2.80046e-08
1.03725e-08
3.74507e-09
1.29958e-09
4.33559e-10
1.37202e-10
1.20738e-11
1.09762e-12
0
-2.19524e-11
9.87856e-12
-1.09762e-12
-1.09762e-12
0
1.09762e-12
0
-5.48809e-12
0
-7.68332e-12
0
-9.87856e-12
4066.24
4615.4
3858.27
3051.96
2397.03
1888.11
1491.83
1179.75
931.46
732.667
573.127
445.23
343.099
262.04
198.206
148.394
109.915
80.5153
58.3098
41.7385
29.5239
20.6337
14.2459
9.71552
6.54433
4.3537
2.86037
1.85583
1.18901
0.752208
0.469858
0.289748
0.176368
0.105939
0.0627712
0.0366705
0.0211078
0.0119616
0.00666737
0.0036516
0.00196288
0.00103439
0.000533791
0.000269453
0.000132921
6.40208e-05
3.00848e-05
1.37849e-05
6.15586e-06
2.67823e-06
1.13494e-06
4.68412e-07
1.88268e-07
7.37039e-08
2.80782e-08
1.04087e-08
3.73958e-09
1.30177e-09
4.31364e-10
1.50374e-10
3.84166e-11
4.39047e-12
0
2.41476e-11
5.48809e-12
0
-1.09762e-12
1.09762e-12
-1.09762e-12
0
-8.78094e-12
0
8.78094e-12
2.19523e-12
0
1447.34
2526.2
2607.2
2330.41
1971.11
1626.55
1324.66
1069.16
856.285
680.509
536.412
419.139
324.457
248.691
188.652
141.573
105.067
77.0894
55.9055
40.0643
28.3682
19.8433
13.7106
9.35666
6.30631
4.19754
2.75907
1.79085
1.14782
0.726412
0.4539
0.280002
0.170496
0.102451
0.0607314
0.0354974
0.0204453
0.011595
0.00646895
0.0035468
0.00190898
0.00100747
0.000520764
0.000263363
0.000130179
6.28367e-05
2.95966e-05
1.35942e-05
6.086e-06
2.65471e-06
1.12799e-06
4.66785e-07
1.8814e-07
7.38499e-08
2.82296e-08
1.05031e-08
3.78898e-09
1.34568e-09
4.66487e-10
1.58057e-10
5.48809e-11
4.39047e-12
0
-1.4269e-11
-1.09762e-11
2.19524e-12
3.29285e-12
2.19523e-12
0
0
3.29285e-12
8.78094e-12
0
-1.09762e-12
8.78094e-12
645.806
1439.46
1721.31
1701.27
1542.45
1335.9
1125.74
931.162
759.27
611.558
487.013
383.57
298.787
230.167
175.313
132.005
98.24
72.2493
52.4997
37.6876
26.7245
18.7173
12.947
8.84418
5.96605
3.97411
2.614
1.69775
1.08876
0.689397
0.430988
0.266
0.162054
0.0974323
0.0577931
0.0338054
0.0194885
0.0110646
0.00618122
0.00339442
0.00183037
0.000968059
0.000501605
0.000254357
0.000126097
6.1059e-05
2.88557e-05
1.33004e-05
5.97612e-06
2.61651e-06
1.116e-06
4.63608e-07
1.87566e-07
7.39037e-08
2.83756e-08
1.06118e-08
3.87239e-09
1.37092e-09
4.81854e-10
1.6574e-10
5.26856e-11
2.19523e-12
0
-1.09762e-12
-4.39047e-12
3.29285e-12
0
1.09762e-12
0
2.19524e-12
5.48809e-12
0
-1.09762e-12
-1.09762e-12
-5.48809e-12
343.706
868.918
1144.39
1220.4
1172.96
1061.85
925.243
785.006
652.664
533.665
430.026
341.872
268.317
207.962
159.198
120.373
89.8974
66.31
48.3059
34.7524
24.6894
17.3203
11.9979
8.20618
5.54186
3.69523
2.43274
1.58129
1.01482
0.643022
0.402256
0.248426
0.151446
0.0911196
0.0540924
0.0316709
0.018279
0.0103924
0.00581558
0.00320011
0.00172971
0.000917338
0.000476803
0.000242615
0.000120729
5.86952e-05
2.78568e-05
1.2897e-05
5.82147e-06
2.56077e-06
1.09739e-06
4.5806e-07
1.8619e-07
7.36929e-08
2.84096e-08
1.06787e-08
3.91081e-09
1.37422e-09
4.68683e-10
1.62447e-10
5.92713e-11
1.97571e-11
1.09762e-12
1.86595e-11
0
-1.09762e-12
-1.09762e-12
-3.29285e-12
0
-1.09762e-12
-9.87856e-12
-1.20738e-11
-7.68332e-12
-1.09762e-12
-1.09762e-12
205.203
552.239
773.584
871.883
877.933
825.516
741.56
644.638
546.449
453.805
370.277
297.377
235.343
183.663
141.403
107.432
80.5598
59.6287
43.5681
31.4246
22.3752
15.7276
10.9133
7.47572
5.05538
3.37492
2.22426
1.44719
0.929592
0.589501
0.369063
0.2281
0.139164
0.0837997
0.0497941
0.0291868
0.016868
0.00960596
0.00538622
0.00297096
0.00161039
0.000856847
0.000447007
0.000228385
0.000114154
5.57627e-05
2.65975e-05
1.2378e-05
5.6169e-06
2.48412e-06
1.07033e-06
4.49197e-07
1.83597e-07
7.30695e-08
2.83119e-08
1.06941e-08
3.94813e-09
1.42471e-09
5.03806e-10
1.56959e-10
5.92713e-11
2.52452e-11
1.86595e-11
0
-1.09762e-12
-4.39047e-12
0
0
0
-2.19524e-12
4.39047e-12
1.09762e-12
-4.39047e-12
0
0
131.362
365.074
532.011
623.888
651.379
632.054
583.073
518.226
447.428
377.25
311.702
252.957
201.939
158.749
122.978
93.9239
70.7465
52.567
38.5365
27.8761
19.8989
14.0181
9.74626
6.68792
4.52966
3.02815
1.99822
1.30159
0.836922
0.531238
0.332883
0.205916
0.125739
0.0757861
0.0450794
0.0264557
0.0153123
0.0087359
0.00490924
0.00271511
0.00147637
0.000788417
0.000413014
0.000211986
0.000106484
5.22918e-05
2.50803e-05
1.17386e-05
5.35778e-06
2.38341e-06
1.03295e-06
4.36023e-07
1.79228e-07
7.17403e-08
2.79684e-08
1.06162e-08
3.95252e-09
1.43349e-09
5.04904e-10
1.6135e-10
6.58571e-11
2.305e-11
9.87856e-12
-5.48809e-12
2.19523e-12
2.19524e-12
0
0
-1.20738e-11
1.09762e-12
1.31714e-11
2.19524e-12
0
-7.68332e-12
0
87.7163
248.177
371.146
447.834
480.78
478.602
451.626
409.355
359.423
307.415
257.102
210.808
169.772
134.462
104.832
80.5062
60.9284
45.4588
33.4454
24.2695
17.3724
12.2682
8.54813
5.87709
3.98736
2.66974
1.76416
1.15058
0.74067
0.470635
0.295197
0.182775
0.111713
0.0673981
0.0401338
0.0235834
0.013671
0.00781439
0.00440169
0.00244132
0.00133198
0.000714096
0.00037574
0.000193801
9.78662e-05
4.83299e-05
2.33157e-05
1.09782e-05
5.04107e-06
2.2561e-06
9.8365e-07
4.17647e-07
1.72667e-07
6.94935e-08
2.72648e-08
1.0435e-08
3.91191e-09
1.43349e-09
5.07099e-10
1.92083e-10
7.68332e-11
3.40261e-11
-2.08547e-11
0
0
0
7.68332e-12
-1.09762e-12
0
1.09762e-12
-1.09762e-12
0
6.5857e-12
0
4.39047e-12
60.1061
171.917
261.645
322.32
353.533
359.267
345.526
318.579
283.967
246.096
208.187
172.4
140.036
111.737
87.6777
67.7113
51.4964
38.5865
28.4964
20.7471
14.8947
10.546
7.36526
5.07438
3.44919
2.31329
1.53093
0.999829
0.644424
0.409941
0.257395
0.159526
0.0975962
0.0589396
0.035135
0.020672
0.0120017
0.00687319
0.00388061
0.0021585
0.00118171
0.000636067
0.000336201
0.000174276
8.84821e-05
4.39449e-05
2.13254e-05
1.01014e-05
4.66649e-06
2.10096e-06
9.21383e-07
3.93457e-07
1.63572e-07
6.62138e-08
2.61167e-08
1.00509e-08
3.76812e-09
1.39288e-09
5.04904e-10
1.92083e-10
6.47594e-11
3.29285e-11
1.4269e-11
0
-1.09762e-12
0
1.4269e-11
2.19523e-12
1.31714e-11
-1.09762e-12
2.19523e-12
5.48809e-12
6.58571e-12
8.78094e-12
2.19524e-12
41.8403
120.528
185.701
232.298
259.056
267.669
261.548
244.717
221.054
193.872
165.752
138.547
113.467
91.1941
72.0141
55.9267
42.7442
32.1684
23.8485
17.4228
12.5464
8.90765
6.23628
4.306
2.9327
1.9704
1.3061
0.854237
0.551307
0.351121
0.2207
0.136919
0.0838445
0.0506824
0.0302432
0.0178145
0.0103572
0.0059419
0.00336222
0.00187526
0.00103003
0.000556571
0.000295479
0.000153915
7.85551e-05
3.92305e-05
1.91462e-05
9.1215e-06
4.23807e-06
1.91891e-06
8.46187e-07
3.63286e-07
1.51808e-07
6.1775e-08
2.44571e-08
9.42744e-09
3.52335e-09
1.28751e-09
4.58804e-10
1.44886e-10
4.82952e-11
1.53666e-11
1.20738e-11
-1.09762e-12
-1.09762e-12
-1.09762e-12
-6.58571e-12
0
-1.09762e-12
0
1.09762e-12
0
-6.58571e-12
0
1.09762e-12
29.3918
85.0876
132.269
167.379
189.095
198.022
196.064
185.765
169.772
150.494
129.914
109.538
90.408
73.1662
58.1349
45.3964
34.866
26.354
19.6141
14.3794
10.3872
7.39539
5.19065
3.5922
2.45159
1.65022
1.09571
0.717718
0.46383
0.295766
0.186108
0.11557
0.0708333
0.0428534
0.0255935
0.0150903
0.00878369
0.00504667
0.0028611
0.00159961
0.000881222
0.000477836
0.000254704
0.000133271
6.83493e-05
3.43081e-05
1.68319e-05
8.06144e-06
3.76525e-06
1.71364e-06
7.59449e-07
3.2762e-07
1.3755e-07
5.61859e-08
2.23398e-08
8.64703e-09
3.23358e-09
1.18762e-09
4.10509e-10
1.29519e-10
5.04904e-11
1.86595e-11
-7.68332e-12
0
0
-9.87856e-12
-3.7319e-11
-1.09762e-12
0
0
-3.29285e-12
-5.48809e-12
0
-2.19523e-12
-3.29285e-12
20.7399
60.2572
94.2935
120.386
137.405
145.468
145.623
139.459
128.755
115.222
100.339
85.2799
70.8978
57.7535
46.1601
36.2374
27.9648
21.2287
15.8608
11.6684
8.45546
6.03719
4.24829
2.94691
2.01545
1.35924
0.90407
0.593109
0.383831
0.245053
0.15436
0.0959422
0.0588488
0.0356271
0.0212914
0.0125622
0.00731818
0.00420917
0.00238972
0.00133858
0.000739186
0.000401989
0.000215008
0.000112935
5.81636e-05
2.93254e-05
1.44534e-05
6.95446e-06
3.26318e-06
1.49183e-06
6.6406e-07
2.87679e-07
1.21242e-07
4.97045e-08
1.98383e-08
7.6932e-09
2.89332e-09
1.05371e-09
3.66604e-10
1.31714e-10
4.71976e-11
1.20738e-11
1.09762e-11
0
-1.09762e-11
-5.48809e-12
-2.19524e-12
-1.09762e-12
0
1.09762e-12
0
0
4.39047e-12
0
1.09762e-12
14.6516
42.6836
67.1336
86.306
99.3171
106.086
107.18
103.585
96.4844
87.0713
76.423
65.4279
54.7594
44.8815
36.0731
28.463
22.0668
16.8217
12.6161
9.3134
6.77012
4.84765
3.42008
2.37801
1.62986
1.10134
0.733821
0.482176
0.312474
0.199735
0.125941
0.0783419
0.0480833
0.0291231
0.0174105
0.0102756
0.00598816
0.00344594
0.00195793
0.00109798
0.000607301
0.000330958
0.000177471
9.34973e-05
4.83137e-05
2.44468e-05
1.20942e-05
5.84156e-06
2.75145e-06
1.2626e-06
5.64078e-07
2.45207e-07
1.03673e-07
4.26359e-08
1.70361e-08
6.60766e-09
2.49598e-09
8.93461e-10
3.11723e-10
9.32975e-11
2.63428e-11
-1.09762e-12
-5.48809e-12
-1.20738e-11
-1.09762e-12
1.09762e-11
2.305e-11
-2.19523e-12
0
0
-1.09762e-12
-4.39047e-12
-8.78094e-12
1.09762e-12
6.58571e-12
10.3364
30.1755
47.6495
61.5956
71.3526
76.7778
78.1702
76.1404
71.468
64.9754
57.4322
49.4957
41.6811
34.3578
27.7602
22.0098
17.1394
13.1185
9.87517
7.31472
5.3337
3.82994
2.70907
1.88809
1.29687
0.878049
0.586075
0.385702
0.250298
0.160177
0.101092
0.0629278
0.0386397
0.023408
0.0139937
0.0082576
0.00481107
0.00276804
0.00157271
0.000882174
0.000488237
0.000266351
0.00014304
7.55029e-05
3.91045e-05
1.98378e-05
9.84127e-06
4.76712e-06
2.25196e-06
1.0364e-06
4.64327e-07
2.02387e-07
8.57909e-08
3.5363e-08
1.41406e-08
5.49028e-09
2.0723e-09
7.51868e-10
2.82088e-10
9.00046e-11
1.53666e-11
4.39047e-12
-4.39047e-12
1.09762e-12
1.20738e-11
8.78094e-12
2.19523e-12
0
-1.09762e-12
-2.19523e-12
-6.5857e-12
4.39047e-12
0
0
0
7.26818
21.2534
33.6672
43.7145
50.9143
55.121
56.4874
55.3899
52.3395
47.8967
42.6036
36.9367
31.2809
25.9213
21.0469
16.7632
13.1089
10.0725
7.60941
5.65501
4.13598
2.97817
2.11197
1.4754
1.01559
0.688948
0.460665
0.303641
0.197309
0.126406
0.0798445
0.0497284
0.0305416
0.0185002
0.0110551
0.00651899
0.0037947
0.00218109
0.00123801
0.000693867
0.00038381
0.000209345
0.000112453
5.93975e-05
3.0796e-05
1.56449e-05
7.77428e-06
3.77292e-06
1.78587e-06
8.23579e-07
3.69717e-07
1.6145e-07
6.85539e-08
2.82988e-08
1.13296e-08
4.40693e-09
1.65082e-09
6.0808e-10
2.44769e-10
1.11957e-10
4.50023e-11
1.86595e-11
1.75619e-11
1.20738e-11
9.87856e-12
0
-1.09762e-12
2.19523e-12
-4.39047e-12
0
-7.68332e-12
3.29285e-12
8.78094e-12
9.87856e-12
-3.29285e-12
5.08623
14.8928
23.652
30.8221
36.0599
39.2393
40.435
39.8782
37.9022
34.8855
31.2052
27.201
23.1549
19.2812
15.7271
12.5798
9.87666
7.6171
5.77421
4.30482
3.15775
2.27997
1.62091
1.13497
0.782913
0.532136
0.356431
0.235295
0.153095
0.0981806
0.0620604
0.0386665
0.0237472
0.0143783
0.00858456
0.00505576
0.00293819
0.00168562
0.000954856
0.000534097
0.000294891
0.000160597
8.6167e-05
4.54801e-05
2.35736e-05
1.19775e-05
5.95479e-06
2.8922e-06
1.37039e-06
6.32713e-07
2.84393e-07
1.24357e-07
5.28744e-08
2.18448e-08
8.78314e-09
3.4114e-09
1.28641e-09
4.87342e-10
1.87693e-10
8.12237e-11
4.60999e-11
2.41476e-11
1.31714e-11
-1.09762e-12
5.48809e-12
-4.39047e-12
-1.09762e-12
-1.09762e-12
0
1.09762e-12
-4.39047e-12
-7.68332e-12
-2.19524e-12
2.19523e-12
5.48809e-12
3.53798
10.3707
16.5049
21.5731
25.3338
27.6868
28.6655
28.4117
27.1415
25.109
22.573
19.7727
16.9107
14.1447
11.5864
9.30481
7.33283
5.67512
4.31619
3.22768
2.37436
1.71889
1.22501
0.859712
0.594273
0.404688
0.271526
0.179511
0.116942
0.0750661
0.0474776
0.0295863
0.0181657
0.0109903
0.00655314
0.00385224
0.00223348
0.00127777
0.000721585
0.000402312
0.000221416
0.000120219
6.43306e-05
3.38789e-05
1.75299e-05
8.8957e-06
4.41922e-06
2.14563e-06
1.01663e-06
4.695e-07
2.1114e-07
9.24282e-08
3.93639e-08
1.6304e-08
6.56705e-09
2.5816e-09
9.95539e-10
3.80873e-10
1.25128e-10
3.84166e-11
6.5857e-12
8.78094e-12
1.64643e-11
0
-9.87856e-12
-1.09762e-12
0
-3.29285e-12
4.39047e-12
-1.09762e-12
-3.29285e-12
5.48809e-12
-3.29285e-12
-9.87856e-12
-1.09762e-12
2.44388
7.17005
11.4311
14.9789
17.6457
19.3557
20.1212
20.0293
19.2194
17.8604
16.1287
14.1901
12.188
10.2364
8.4179
6.78547
5.36626
4.16692
3.17903
2.38426
1.75873
1.27647
0.911879
0.641371
0.44425
0.303087
0.203693
0.134858
0.0879544
0.0565056
0.0357546
0.022281
0.0136731
0.00826309
0.00491838
0.00288427
0.00166713
0.000950266
0.00053441
0.000296622
0.000162497
8.78306e-05
4.67997e-05
2.45526e-05
1.26626e-05
6.40842e-06
3.17685e-06
1.53998e-06
7.28871e-07
3.36367e-07
1.51215e-07
6.61973e-08
2.8211e-08
1.16962e-08
4.71646e-09
1.88571e-09
7.25525e-10
2.73307e-10
9.54927e-11
3.51238e-11
1.4269e-11
2.19523e-12
-3.29285e-12
3.29285e-12
-4.39047e-12
1.09762e-12
8.78094e-12
4.39047e-12
0
0
9.87856e-12
1.20738e-11
5.48809e-12
-5.48809e-12
-4.39047e-12
1.67504
4.91807
7.85235
10.3113
12.1798
13.4022
13.9812
13.9697
13.4574
12.556
11.3841
10.0556
8.67043
7.3095
6.03275
4.87971
3.87183
3.0159
2.30769
1.73559
1.2836
0.933923
0.668714
0.471352
0.327133
0.223587
0.150505
0.099779
0.0651459
0.0418828
0.0265101
0.016517
0.0101281
0.006112
0.00363015
0.00212256
0.00122229
0.000693581
0.000388049
0.000214167
0.000116629
6.26594e-05
3.31929e-05
1.73195e-05
8.88869e-06
4.47947e-06
2.21276e-06
1.06956e-06
5.05086e-07
2.32684e-07
1.04493e-07
4.56916e-08
1.94684e-08
8.07737e-09
3.29395e-09
1.31604e-09
5.25759e-10
2.19524e-10
8.56142e-11
2.96357e-11
9.87856e-12
-1.4269e-11
-2.305e-11
0
-8.78094e-12
-9.87856e-12
0
2.19523e-12
4.39047e-12
1.09762e-12
1.31714e-11
-4.39047e-12
3.29285e-12
-1.09762e-12
-1.09762e-12
1.13843
3.34466
5.34688
7.03395
8.32772
9.18841
9.61458
9.63831
9.31704
8.7239
7.93816
7.03693
6.08901
5.15096
4.26545
3.46128
2.75483
2.15213
1.65136
1.24526
0.923276
0.673347
0.483208
0.341304
0.237331
0.162493
0.109549
0.0727205
0.0475261
0.0305737
0.019355
0.0120545
0.00738436
0.00444855
0.00263549
0.00153575
0.00088056
0.000497072
0.000276428
0.000151538
8.19283e-05
4.36895e-05
2.29732e-05
1.19024e-05
6.06877e-06
3.04058e-06
1.49443e-06
7.19297e-07
3.38478e-07
1.55507e-07
6.97042e-08
3.0426e-08
1.29453e-08
5.36735e-09
2.19633e-09
8.78094e-10
3.78678e-10
1.58057e-10
6.69547e-11
1.86595e-11
4.39047e-12
-6.5857e-12
-9.87856e-12
1.09762e-12
0
-1.09762e-12
-7.68332e-12
0
0
1.09762e-12
-4.39047e-12
-8.78094e-12
0
0
-5.48809e-12
0.766806
2.25408
3.6073
4.75288
5.63828
6.23568
6.54226
6.5774
6.37763
5.99056
5.46859
4.86343
4.22181
3.58268
2.97589
2.42203
1.93322
1.51442
1.1651
0.880781
0.6546
0.478484
0.344106
0.243541
0.169666
0.116361
0.0785639
0.0522159
0.0341561
0.0219838
0.0139173
0.00866311
0.00530039
0.00318676
0.00188259
0.00109287
0.00062363
0.000349996
0.00019332
0.000105169
5.63871e-05
2.9807e-05
1.5535e-05
7.97925e-06
4.03526e-06
2.0067e-06
9.79751e-07
4.68868e-07
2.19584e-07
1.00504e-07
4.48904e-08
1.95552e-08
8.27165e-09
3.41359e-09
1.36763e-09
5.25759e-10
2.1184e-10
7.24428e-11
4.50023e-11
1.09762e-11
5.48809e-12
1.53666e-11
-1.09762e-12
-1.75619e-11
8.78094e-12
1.09762e-11
0
1.09762e-12
-4.39047e-12
0
-1.20738e-11
0
0
-3.29285e-12
2.19524e-12
0.511648
1.50473
2.41031
3.18004
3.77895
4.18795
4.40411
4.43906
4.31594
4.06547
3.722
3.3198
2.89023
2.45975
2.04892
1.67217
1.33824
1.05103
0.810589
0.614235
0.457537
0.335164
0.241533
0.171277
0.119538
0.0821168
0.0555223
0.0369447
0.0241866
0.0155734
0.00985811
0.00613201
0.00374648
0.00224752
0.0013236
0.000765223
0.000434413
0.000242278
0.000132839
7.16625e-05
3.8068e-05
1.99254e-05
1.02795e-05
5.22652e-06
2.61743e-06
1.2898e-06
6.24543e-07
2.96702e-07
1.381e-07
6.28825e-08
2.7942e-08
1.21254e-08
5.11051e-09
2.09974e-09
8.16627e-10
2.90869e-10
1.02078e-10
2.52452e-11
0
-2.19524e-12
-8.78094e-12
-6.5857e-12
-2.19524e-12
-3.29285e-12
-1.09762e-12
-4.39047e-12
9.87856e-12
-1.09762e-12
2.19524e-12
-2.19524e-12
3.29285e-12
0
-2.19524e-12
3.29285e-12
-8.78094e-12
0.338066
0.994643
1.59451
2.10618
2.50663
2.78294
2.93259
2.96254
2.88733
2.72665
2.50279
2.23823
1.95377
1.66714
1.39229
1.13915
0.913912
0.719481
0.556167
0.422381
0.315302
0.231448
0.167121
0.118733
0.0830121
0.0571169
0.0386729
0.025762
0.0168787
0.0108716
0.00688039
0.00427621
0.00260855
0.00156112
0.000916322
0.000527464
0.000297813
0.000165001
8.97667e-05
4.79954e-05
2.52429e-05
1.30707e-05
6.66732e-06
3.35118e-06
1.65943e-06
8.08981e-07
3.87875e-07
1.82641e-07
8.43365e-08
3.81433e-08
1.68451e-08
7.25306e-09
3.05796e-09
1.22384e-09
4.56609e-10
1.74521e-10
4.93928e-11
2.19523e-11
-2.19523e-12
4.39047e-12
2.305e-11
2.19523e-12
-8.78094e-12
1.31714e-11
0
1.31714e-11
0
-2.19523e-12
0
1.09762e-12
4.39047e-12
-2.19523e-12
0
2.19523e-12
-1.09762e-12
0.221129
0.650827
1.04407
1.38052
1.64517
1.82942
1.93129
1.95492
1.90939
1.80721
1.66271
1.4905
1.30418
1.11551
0.933799
0.765792
0.615766
0.485833
0.376358
0.286419
0.21424
0.157572
0.113993
0.0811358
0.0568243
0.0391604
0.0265519
0.0177074
0.0116103
0.00748045
0.004733
0.00293889
0.00178976
0.00106841
0.000624943
0.000358121
0.000201066
0.000110643
5.97116e-05
3.16309e-05
1.64631e-05
8.4275e-06
4.24665e-06
2.10772e-06
1.03059e-06
4.96289e-07
2.35216e-07
1.09585e-07
5.01293e-08
2.24803e-08
9.84673e-09
4.20058e-09
1.74082e-09
6.94792e-10
2.52452e-10
1.07567e-10
2.52452e-11
4.39047e-12
-1.31714e-11
-8.78094e-12
7.68332e-12
1.53666e-11
6.58571e-12
1.09762e-11
3.29285e-12
4.39047e-12
-9.87856e-12
0
-1.09762e-12
1.09762e-12
1.09762e-12
1.09762e-12
0
1.09762e-12
1.31714e-11
0.143153
0.421458
0.676528
0.89534
1.06822
1.18951
1.25776
1.27541
1.24808
1.18367
1.09131
0.980367
0.859672
0.73689
0.618171
0.508018
0.409334
0.32361
0.251182
0.191524
0.143529
0.10576
0.0766506
0.0546539
0.038343
0.0264664
0.0179705
0.0119984
0.00787335
0.00507441
0.00320984
0.00199124
0.00121057
0.00072079
0.000420121
0.000239649
0.000133786
7.3114e-05
3.91374e-05
2.05372e-05
1.05753e-05
5.3496e-06
2.6613e-06
1.30317e-06
6.28464e-07
2.98544e-07
1.39627e-07
6.42688e-08
2.90792e-08
1.29113e-08
5.61761e-09
2.38183e-09
9.74684e-10
4.02826e-10
1.64643e-10
4.39047e-11
2.08547e-11
7.68332e-12
-7.68332e-12
5.48809e-12
-1.4269e-11
-3.29285e-12
9.87856e-12
7.68332e-12
-2.19523e-12
-1.31714e-11
2.19524e-12
1.09762e-12
0
-1.09762e-12
7.68332e-12
3.29285e-12
0
3.29285e-12
-4.39047e-12
0.0917032
0.270058
0.433732
0.574467
0.686086
0.764926
0.809956
0.822604
0.806339
0.766093
0.707623
0.636894
0.559558
0.480562
0.403909
0.33256
0.268454
0.212617
0.165324
0.126279
0.0947985
0.0699741
0.0508027
0.0362867
0.0255009
0.017631
0.0119891
0.00801481
0.005264
0.00339409
0.00214658
0.00133048
0.000807511
0.000479574
0.000278543
0.000158165
8.77975e-05
4.76531e-05
2.5302e-05
1.31524e-05
6.70011e-06
3.34875e-06
1.64413e-06
7.93828e-07
3.77257e-07
1.7658e-07
8.13993e-08
3.69711e-08
1.65082e-08
7.23769e-09
3.12711e-09
1.32373e-09
5.54297e-10
2.18426e-10
9.54927e-11
1.53666e-11
1.53666e-11
1.86595e-11
1.97571e-11
1.64643e-11
4.39047e-12
-4.39047e-12
1.09762e-11
-1.64643e-11
-3.29285e-12
-1.09762e-12
0
1.09762e-12
1.09762e-12
0
-7.68332e-12
0
-4.39047e-12
-1.4269e-11
-1.09762e-12
0.0581226
0.171207
0.275097
0.364608
0.435837
0.486439
0.515707
0.524474
0.514861
0.489926
0.453268
0.40864
0.359624
0.309373
0.260459
0.214802
0.173675
0.13777
0.107292
0.0820802
0.061715
0.045627
0.0331807
0.0237401
0.0167123
0.0115742
0.00788304
0.00527713
0.00346956
0.00223838
0.00141564
0.000876798
0.000531341
0.000314794
0.000182216
0.00010301
5.68655e-05
3.06582e-05
1.61494e-05
8.31738e-06
4.19229e-06
2.07041e-06
1.00313e-06
4.77431e-07
2.23465e-07
1.02959e-07
4.67497e-08
2.09151e-08
9.20901e-09
3.97338e-09
1.67167e-09
7.07963e-10
2.8099e-10
1.03176e-10
3.18309e-11
8.78094e-12
-1.75619e-11
-1.53666e-11
1.09762e-12
-8.78094e-12
1.09762e-12
0
-8.78094e-12
-2.19524e-11
2.19523e-12
0
-2.19524e-12
-3.29285e-12
1.09762e-12
-1.09762e-12
1.09762e-12
-2.19524e-12
0
0
1.31714e-11
0.0364458
0.107377
0.172603
0.228897
0.27382
0.305889
0.324633
0.330535
0.324884
0.30956
0.286791
0.258919
0.228185
0.196579
0.165731
0.136867
0.110811
0.0880186
0.0686374
0.0525783
0.039587
0.0293094
0.021347
0.0152983
0.0107881
0.00748447
0.00510627
0.00342355
0.00225369
0.00145513
0.000920483
0.000569838
0.000344875
0.000203874
0.000117639
6.62262e-05
3.63672e-05
1.94816e-05
1.01841e-05
5.19857e-06
2.59352e-06
1.26598e-06
6.05418e-07
2.84044e-07
1.30927e-07
5.93646e-08
2.6514e-08
1.16545e-08
5.0666e-09
2.14145e-09
8.83582e-10
3.63311e-10
1.39397e-10
5.92713e-11
1.31714e-11
-2.19523e-12
-1.97571e-11
-2.85381e-11
-2.19523e-11
-2.19524e-11
-1.97571e-11
0
-1.4269e-11
6.58571e-12
0
-1.09762e-12
0
0
6.58571e-12
4.39047e-12
6.5857e-12
-1.97571e-11
2.19524e-12
1.09762e-11
0
0.0226087
0.0666208
0.107124
0.14213
0.170129
0.190195
0.202021
0.205888
0.202575
0.193227
0.179214
0.161979
0.142914
0.123257
0.104029
0.0860035
0.0697035
0.0554232
0.0432637
0.0331764
0.0250071
0.0185377
0.0135203
0.00970425
0.0068549
0.00476432
0.00325638
0.00218702
0.00144181
0.000931915
0.000589807
0.000365063
0.000220726
0.000130241
7.49404e-05
4.2028e-05
2.29671e-05
1.223e-05
6.34776e-06
3.21319e-06
1.58754e-06
7.66373e-07
3.61925e-07
1.67455e-07
7.60111e-08
3.3901e-08
1.48716e-08
6.40789e-09
2.72868e-09
1.14811e-09
4.73073e-10
1.75619e-10
7.57356e-11
2.19523e-11
2.19523e-12
-1.09762e-12
-9.87856e-12
-2.74404e-11
-2.74404e-11
-3.29285e-11
-2.85381e-11
-9.87856e-12
-1.09762e-11
1.75619e-11
1.09762e-12
0
-1.09762e-12
1.31714e-11
0
1.09762e-12
-7.68332e-12
0
0
0
-7.68332e-12
0.0138749
0.04089
0.0657656
0.0872873
0.10453
0.116924
0.124272
0.12674
0.124794
0.119129
0.110579
0.100026
0.0883237
0.0762349
0.064391
0.0532723
0.0432058
0.0343775
0.0268538
0.0206078
0.0155464
0.0115358
0.00842351
0.00605458
0.00428386
0.00298281
0.00204263
0.00137443
0.000907632
0.00058743
0.000372087
0.000230343
0.000139188
8.20094e-05
4.70766e-05
2.63136e-05
1.43172e-05
7.58278e-06
3.91014e-06
1.96408e-06
9.61715e-07
4.59501e-07
2.14466e-07
9.79141e-08
4.37719e-08
1.91864e-08
8.25299e-09
3.48933e-09
1.43898e-09
5.91616e-10
2.41476e-10
6.80523e-11
1.31714e-11
-4.39047e-12
5.48809e-12
8.78094e-12
-2.19524e-12
-3.07333e-11
-2.41476e-11
-2.85381e-11
-3.40261e-11
-3.51238e-11
-1.75619e-11
0
0
2.19524e-12
1.09762e-12
0
-8.78094e-12
4.39047e-12
1.09762e-12
2.41476e-11
2.19524e-12
4.39047e-12
0
0.00842401
0.0248277
0.0399374
0.0530177
0.063508
0.0710608
0.0755554
0.0770874
0.0759371
0.072523
0.0673486
0.0609485
0.0538409
0.0464902
0.0392816
0.0325091
0.0263738
0.0209907
0.0164017
0.0125914
0.00950348
0.00705665
0.00515761
0.00371169
0.00263019
0.00183465
0.00125883
0.000848727
0.000561521
0.000363996
0.000230819
0.000142964
8.63707e-05
5.08387e-05
2.91289e-05
1.62365e-05
8.80131e-06
4.63938e-06
2.37856e-06
1.18656e-06
5.76307e-07
2.7279e-07
1.25968e-07
5.68094e-08
2.50509e-08
1.08028e-08
4.54853e-09
1.8901e-09
7.49673e-10
2.89771e-10
1.05371e-10
2.41476e-11
-6.5857e-12
9.87856e-12
9.87856e-12
5.48809e-12
4.39047e-12
-2.305e-11
-2.63428e-11
-1.75619e-11
-1.31714e-11
-9.87856e-12
3.29285e-12
-2.19524e-12
-1.09762e-12
-1.09762e-11
1.09762e-12
-6.5857e-12
-1.09762e-12
-1.09762e-12
-2.19523e-12
0
-9.87856e-12
0
5.48809e-12
0.00506004
0.0149133
0.0239896
0.0318474
0.0381501
0.0426892
0.045392
0.0463156
0.0456277
0.0435791
0.0404718
0.0366266
0.0323551
0.0279364
0.0236025
0.0195307
0.0158422
0.0126065
0.00984905
0.00756053
0.00570693
0.00423894
0.00310011
0.00223319
0.00158463
0.0011072
0.000761171
0.000514248
0.000340909
0.00022138
0.000140576
8.71427e-05
5.26567e-05
3.09773e-05
1.7725e-05
9.85822e-06
5.32743e-06
2.79699e-06
1.42688e-06
7.07568e-07
3.41264e-07
1.6021e-07
7.33055e-08
3.27222e-08
1.42515e-08
6.07422e-09
2.5322e-09
1.02847e-09
4.15997e-10
1.49276e-10
4.93928e-11
4.17095e-11
2.19523e-11
1.75619e-11
-3.29285e-12
5.48809e-12
6.5857e-12
5.48809e-12
0
8.78094e-12
1.09762e-11
2.19523e-11
1.75619e-11
-6.5857e-12
1.09762e-12
-1.09762e-12
-1.09762e-12
1.09762e-12
2.19523e-12
-8.78094e-12
-1.31714e-11
-4.39047e-12
-6.5857e-12
-7.68332e-12
-1.09762e-12
0.00300707
0.008862
0.0142533
0.0189179
0.022656
0.025344
0.0269398
0.0274783
0.0270601
0.025835
0.0239827
0.0216942
0.0191545
0.0165296
0.013957
0.0115418
0.00935584
0.00743999
0.00580897
0.00445683
0.00336296
0.00249767
0.00182711
0.00131705
0.000935587
0.0006547
0.000450917
0.000305259
0.00020278
0.000131931
8.39082e-05
5.20722e-05
3.14817e-05
1.85178e-05
1.05867e-05
5.87854e-06
3.16911e-06
1.65845e-06
8.42574e-07
4.15725e-07
1.99323e-07
9.29265e-08
4.21705e-08
1.86408e-08
8.05432e-09
3.38944e-09
1.42141e-09
5.60883e-10
2.17328e-10
8.34189e-11
4.82952e-11
3.7319e-11
2.19523e-11
-8.78094e-12
4.39047e-12
-5.48809e-12
-1.31714e-11
1.53666e-11
3.51238e-11
3.40261e-11
2.85381e-11
1.64643e-11
2.08547e-11
2.19524e-12
0
1.09762e-11
-2.19524e-12
0
0
5.48809e-12
8.78094e-12
0
9.87856e-12
2.19523e-12
-6.58571e-12
0.00176803
0.00520954
0.00837584
0.0111114
0.0132985
0.0148654
0.0157888
0.0160907
0.0158317
0.0151009
0.0140047
0.0126556
0.0111623
0.00962204
0.00811523
0.00670302
0.00542694
0.00431045
0.00336162
0.00257646
0.00194246
0.00144186
0.00105459
0.000760412
0.000540598
0.000378777
0.000261314
0.000177244
0.000117979
7.69082e-05
4.89964e-05
3.04461e-05
1.84219e-05
1.08384e-05
6.1938e-06
3.43551e-06
1.84878e-06
9.65075e-07
4.88723e-07
2.40147e-07
1.14588e-07
5.31159e-08
2.39489e-08
1.04965e-08
4.5134e-09
1.89119e-09
7.77113e-10
3.15016e-10
1.04274e-10
5.70761e-11
4.39047e-11
2.305e-11
2.41476e-11
4.39047e-12
7.68332e-12
-2.52452e-11
-1.86595e-11
9.87856e-12
1.97571e-11
7.68332e-12
1.86595e-11
2.19523e-12
1.31714e-11
-2.19524e-12
-4.39047e-12
1.09762e-12
-1.09762e-12
1.20738e-11
0
0
2.08547e-11
9.87856e-12
6.58571e-12
4.39047e-12
0
0.00102846
0.00302941
0.00486767
0.00645181
0.00771336
0.00861143
0.00913381
0.00929495
0.00913157
0.00869661
0.0080526
0.00726516
0.00639737
0.00550532
0.00463518
0.00382184
0.00308878
0.00244901
0.00190668
0.00145904
0.00109851
0.000814559
0.000595398
0.000429259
0.000305302
0.00021412
0.000147928
0.000100513
6.7033e-05
4.37807e-05
2.79401e-05
1.73866e-05
1.05306e-05
6.1987e-06
3.54225e-06
1.96354e-06
1.05535e-06
5.49886e-07
2.77756e-07
1.36043e-07
6.46881e-08
2.98332e-08
1.34008e-08
5.87884e-09
2.51464e-09
1.07018e-09
4.39047e-10
2.05254e-10
8.23213e-11
4.28071e-11
3.84166e-11
4.28071e-11
4.93928e-11
5.1588e-11
2.41476e-11
1.97571e-11
1.75619e-11
2.52452e-11
0
-4.39047e-12
-3.29285e-12
-2.19523e-12
-1.09762e-12
5.48809e-12
-3.29285e-12
0
4.39047e-12
-4.39047e-12
-2.19523e-12
-1.31714e-11
-5.48809e-12
6.5857e-12
-1.09762e-12
-5.48809e-12
2.19523e-12
0.000591839
0.00174249
0.00279727
0.00370275
0.00441955
0.00492488
0.00521296
0.00529353
0.005189
0.00493077
0.00455533
0.00410056
0.00360251
0.00309301
0.00259808
0.00213717
0.00172318
0.00136308
0.00105884
0.000808535
0.000607593
0.000449835
0.000328437
0.000236653
0.000168316
0.000118117
8.16941e-05
5.55923e-05
3.71397e-05
2.43005e-05
1.55346e-05
9.68103e-06
5.87016e-06
3.45788e-06
1.97646e-06
1.09532e-06
5.8824e-07
3.06105e-07
1.54321e-07
7.54151e-08
3.57285e-08
1.64247e-08
7.34306e-09
3.2259e-09
1.38739e-09
5.92713e-10
2.39281e-10
9.32975e-11
7.02475e-11
3.95142e-11
4.82952e-11
5.26856e-11
4.50023e-11
3.7319e-11
5.48809e-12
2.305e-11
2.96357e-11
1.86595e-11
1.64643e-11
8.78094e-12
-2.19524e-12
5.48809e-12
-1.09762e-12
1.20738e-11
3.29285e-12
-1.09762e-12
0
-1.20738e-11
1.09762e-12
0
-1.64643e-11
-9.87856e-12
1.09762e-12
-7.68332e-12
0
0.000336896
0.000991237
0.00158923
0.00209985
0.00250069
0.00277939
0.00293369
0.00297026
0.00290287
0.00275009
0.00253307
0.00227339
0.00199135
0.00170467
0.00142767
0.00117093
0.000941349
0.000742483
0.000575139
0.000438013
0.000328358
0.000242596
0.000176839
0.000127284
9.04894e-05
6.35135e-05
4.39619e-05
2.99521e-05
2.00404e-05
1.31339e-05
8.40962e-06
5.2484e-06
3.18615e-06
1.87843e-06
1.07416e-06
5.95316e-07
3.19578e-07
1.66168e-07
8.36791e-08
4.08434e-08
1.92906e-08
8.84899e-09
3.91081e-09
1.7068e-09
7.41989e-10
3.15016e-10
1.13055e-10
5.04904e-11
3.84166e-11
3.62214e-11
2.19524e-11
3.18309e-11
1.20738e-11
0
-1.31714e-11
-2.19523e-11
4.39047e-12
1.4269e-11
2.305e-11
1.31714e-11
-3.29285e-12
-1.4269e-11
0
0
5.48809e-12
0
-1.09762e-12
0
6.58571e-12
1.53666e-11
5.48809e-12
-5.48809e-12
-8.78094e-12
1.09762e-12
-4.39047e-12
0.000189661
0.000557555
0.000892429
0.00117636
0.00139678
0.00154719
0.00162708
0.00164106
0.0015976
0.00150767
0.0013834
0.00123694
0.00107951
0.000920757
0.000768384
0.000627978
0.000503087
0.000395444
0.000305294
0.000231765
0.000173233
0.000127655
9.28552e-05
6.6731e-05
4.73975e-05
3.32598e-05
2.30299e-05
1.57045e-05
1.05206e-05
6.90476e-06
4.4276e-06
2.76705e-06
1.68177e-06
9.92399e-07
5.67855e-07
3.148e-07
1.68982e-07
8.78138e-08
4.41945e-08
2.15375e-08
1.01595e-08
4.64182e-09
2.04486e-09
8.80289e-10
3.7319e-10
1.47081e-10
6.47594e-11
4.93928e-11
1.75619e-11
2.52452e-11
-7.68332e-12
-4.39047e-12
-1.09762e-12
-1.4269e-11
0
4.39047e-12
1.09762e-11
3.07333e-11
2.305e-11
2.19523e-11
5.48809e-12
0
1.31714e-11
-4.39047e-12
0
-4.39047e-12
-1.09762e-12
-1.09762e-12
0
6.5857e-12
8.78094e-12
-2.19523e-12
-4.39047e-12
8.78094e-12
0
0.000105563
0.000309996
0.000495156
0.000650764
0.000769848
0.00084914
0.000888885
0.000892232
0.000864406
0.00081185
0.000741458
0.000659952
0.000573419
0.000486995
0.000404699
0.000329388
0.000262813
0.000205762
0.000158243