/*--------------------------------*- C++ -*----------------------------------*\
  =========                 |
  \\      /  F ield         | OpenFOAM: The Open Source CFD Toolbox
   \\    /   O peration     | Website:  https://openfoam.org
    \\  /    A nd           | Version:  10
     \\/     M anipulation  |
\*---------------------------------------------------------------------------*/
FoamFile
{
    format      ascii;
    class       volScalarField;
    location    "237";
    object      gradTx;
}
// * * * * * * * * * * * * * * * * * * * * * * * * * * * * * * * * * * * * * //

dimensions      [0 -1 0 1 0 0 0];

internalField   nonuniform List<scalar> 
11250
(
14290.3
8075.66
5263.81
3764.1
2850.56
2236.41
1793.46
1457.79
1194.46
982.85
810.008
667.312
548.741
449.897
367.434
298.717
241.603
194.313
155.343
123.404
97.3856
76.3286
59.4049
45.9013
35.2073
26.8036
20.2515
15.184
11.2966
8.33883
6.10715
4.43735
3.19847
2.28705
1.62223
1.14141
0.796614
0.551476
0.378676
0.257908
0.174225
0.116735
0.0775756
0.0511305
0.0334238
0.0216693
0.0139328
0.00888428
0.00561805
0.003523
0.00219071
0.00135078
0.000825823
0.000500575
0.000300817
0.000179208
0.000105829
6.19445e-05
3.59353e-05
2.06596e-05
1.17696e-05
6.6436e-06
3.71542e-06
2.0584e-06
1.12964e-06
6.14023e-07
3.30562e-07
1.7622e-07
9.30143e-08
4.85784e-08
2.5085e-08
1.27774e-08
6.32337e-09
2.88125e-09
8.12237e-10
4086.26
4674.72
3954.73
3182.12
2556.35
2071.24
1692.91
1392.72
1150.37
951.933
787.754
650.977
536.576
440.741
360.492
293.426
237.56
191.22
152.977
121.596
96.0076
75.2816
58.6124
45.3041
34.7595
26.4695
20.0037
15.0013
11.1627
8.24141
6.03671
4.38677
3.1624
2.26152
1.60429
1.12889
0.787949
0.545521
0.374615
0.25516
0.17238
0.115506
0.0767633
0.0505978
0.0330773
0.0214457
0.0137897
0.00879343
0.00556085
0.00348728
0.0021686
0.0013372
0.000817559
0.000495588
0.000297834
0.00017744
0.00010479
6.13397e-05
3.55865e-05
2.04602e-05
1.16568e-05
6.58036e-06
3.68028e-06
2.03911e-06
1.11913e-06
6.08349e-07
3.27506e-07
1.74613e-07
9.21768e-08
4.81525e-08
2.48621e-08
1.26709e-08
6.30581e-09
2.87137e-09
8.27604e-10
1466.87
2584.09
2701.33
2457.42
2126.58
1805.27
1520.9
1277.02
1069.95
894.527
745.913
619.985
513.337
423.158
347.104
283.192
229.718
185.207
148.369
118.07
93.3169
73.235
57.0618
44.1346
33.8819
25.8145
19.5177
14.6428
10.8999
8.05005
5.8983
4.28736
3.0915
2.21132
1.569
1.10427
0.770896
0.533801
0.366622
0.24975
0.168747
0.113085
0.075163
0.0495482
0.0323945
0.021005
0.0135076
0.0086143
0.00544804
0.00341683
0.00212497
0.00131041
0.000801251
0.000485746
0.000291946
0.000173948
0.000102738
6.01449e-05
3.48971e-05
2.00662e-05
1.14337e-05
6.45526e-06
3.6108e-06
2.00085e-06
1.09827e-06
5.97113e-07
3.21514e-07
1.71436e-07
9.05051e-08
4.73073e-08
2.44582e-08
1.24711e-08
6.18727e-09
2.81319e-09
8.21018e-10
664.637
1495.27
1812.05
1823.72
1692.33
1508.2
1314.95
1131.58
965.297
817.943
689.059
577.286
480.98
398.475
328.189
268.655
218.533
176.601
141.755
112.998
89.4383
70.2798
54.8197
42.4415
32.6099
24.8642
18.8119
14.1218
10.5178
7.77166
5.69685
4.14259
2.9882
2.13815
1.51755
1.06836
0.746019
0.516699
0.354954
0.241852
0.163442
0.109549
0.0728252
0.0480148
0.0313966
0.0203609
0.0130951
0.0083524
0.00528309
0.0033138
0.00206115
0.00127122
0.000777386
0.00047134
0.000283326
0.000168836
9.97329e-05
5.83946e-05
3.3887e-05
1.94887e-05
1.11066e-05
6.27176e-06
3.50887e-06
1.94479e-06
1.06773e-06
5.80632e-07
3.127e-07
1.66763e-07
8.80542e-08
4.60319e-08
2.37952e-08
1.21407e-08
6.01494e-09
2.73417e-09
7.67235e-10
361.639
922.06
1230.81
1337.01
1315.71
1225.96
1105.47
975.924
848.943
730.305
622.553
526.484
441.969
368.403
304.95
250.676
204.622
165.849
133.46
106.616
84.5452
66.5431
51.979
40.2928
30.9933
23.6549
17.9127
13.4574
10.0301
7.41602
5.43931
3.9574
2.856
2.04445
1.45163
1.02233
0.714121
0.494762
0.339983
0.231714
0.15663
0.105009
0.0698222
0.0460444
0.0301142
0.0195329
0.0125649
0.00801559
0.00507091
0.00318125
0.00197903
0.00122077
0.000746662
0.000452789
0.000272223
0.000162249
9.586e-05
5.61382e-05
3.25844e-05
1.87437e-05
1.06845e-05
6.0349e-06
3.37724e-06
1.87235e-06
1.02825e-06
5.59323e-07
3.01327e-07
1.60752e-07
8.49183e-08
4.4392e-08
2.29479e-08
1.16907e-08
5.78993e-09
2.63977e-09
7.47478e-10
222.074
602.237
854.893
981.604
1012.26
979.945
911.168
824.326
731.204
638.922
551.547
471.219
398.892
334.795
278.724
230.223
188.692
153.469
123.865
99.2063
78.8448
62.1776
48.6522
37.771
29.0926
22.2308
16.8523
12.6729
9.45357
6.99523
5.13432
3.73792
2.69919
1.93324
1.37335
0.967635
0.676201
0.468672
0.322171
0.219648
0.14852
0.0996001
0.0662441
0.0436961
0.0285853
0.0185455
0.0119324
0.00761372
0.00481768
0.003023
0.00188097
0.00116052
0.000709953
0.000430617
0.000258948
0.000154371
9.1227e-05
5.34379e-05
3.1025e-05
1.78514e-05
1.01788e-05
5.75096e-06
3.21935e-06
1.7854e-06
9.80856e-07
5.33757e-07
2.87666e-07
1.53533e-07
8.11502e-08
4.24602e-08
2.19908e-08
1.12023e-08
5.54407e-09
2.52781e-09
7.25525e-10
147.045
411.548
607.593
725.885
776.254
775.633
740.78
685.325
619.261
549.446
480.346
414.72
354.153
299.437
250.837
208.281
171.477
140.007
113.378
91.0703
72.5623
57.3506
44.9634
34.9679
26.9753
20.6414
15.6668
11.7946
8.80726
6.52294
4.79165
3.49108
2.52269
1.80797
1.2851
0.905945
0.633404
0.43921
0.302046
0.206008
0.139349
0.0934817
0.0621947
0.0410375
0.0268537
0.0174269
0.0112156
0.00715816
0.00453053
0.0028435
0.0017697
0.00109213
0.000668272
0.000405435
0.000243866
0.000145417
8.59585e-05
5.03659e-05
2.925e-05
1.68353e-05
9.60256e-06
5.42727e-06
3.03924e-06
1.68619e-06
9.26757e-07
5.04534e-07
2.72035e-07
1.45266e-07
7.68266e-08
4.02474e-08
2.08734e-08
1.06513e-08
5.28613e-09
2.3972e-09
6.80523e-10
102.119
290.86
440.564
541.519
595.488
610.503
596.521
562.901
517.343
465.694
412.147
359.558
309.772
263.892
222.491
185.769
153.676
125.993
102.398
82.5108
65.9249
52.2324
41.0397
31.9782
24.7115
18.9384
14.3943
10.8502
8.11126
6.01366
4.42169
3.2243
2.33174
1.67232
1.18947
0.839042
0.586958
0.407216
0.28018
0.19118
0.129373
0.0868235
0.0577862
0.0381419
0.0249671
0.0162076
0.010434
0.00666122
0.00421718
0.00264755
0.00164819
0.00101741
0.000622723
0.000377904
0.00022737
0.00013562
8.01913e-05
4.70015e-05
2.73051e-05
1.57214e-05
8.97045e-06
5.07196e-06
2.84142e-06
1.5771e-06
8.67164e-07
4.72307e-07
2.54811e-07
1.3614e-07
7.20301e-08
3.77394e-08
1.95639e-08
1.00114e-08
4.99745e-09
2.26768e-09
6.42106e-10
73.1764
210.652
324.644
407.348
457.65
479.004
477.076
458.003
427.388
389.873
349.055
307.581
267.298
229.423
194.692
163.481
135.907
111.907
91.296
73.8112
59.1486
46.9867
37.0044
28.8942
22.3702
17.173
13.0723
9.86731
7.3857
5.48196
4.03493
2.94507
2.13166
1.53004
1.08908
0.768744
0.538119
0.37355
0.257155
0.175557
0.118857
0.0798009
0.0531341
0.0350848
0.0229744
0.0149192
0.00960773
0.00613568
0.00388566
0.00244016
0.00151953
0.00093827
0.000574453
0.000348715
0.000209872
0.000125223
7.40678e-05
4.34272e-05
2.52377e-05
1.45365e-05
8.29767e-06
4.69355e-06
2.63061e-06
1.46074e-06
8.03557e-07
4.37885e-07
2.36372e-07
1.26363e-07
6.68888e-08
3.50436e-08
1.81776e-08
9.31987e-09
4.64841e-09
2.13157e-09
6.23447e-10
53.5612
155.264
242.2
308.559
352.447
375.084
379.577
369.833
349.782
322.947
292.246
259.967
227.807
196.963
168.224
142.057
118.687
98.1594
80.393
65.2217
52.4267
41.7617
32.9706
25.8015
20.0156
15.3931
11.7366
8.87218
6.64979
4.9418
3.64144
2.6606
1.92758
1.38477
0.986461
0.696828
0.488113
0.339052
0.233545
0.159527
0.108059
0.0725862
0.0483521
0.0319407
0.020924
0.0135929
0.00875674
0.00559417
0.00354391
0.00222627
0.00138679
0.000856575
0.000524602
0.000318556
0.000191785
0.000114469
6.77306e-05
3.97261e-05
2.30956e-05
1.3308e-05
7.59961e-06
4.3006e-06
2.41151e-06
1.33975e-06
7.37404e-07
4.02046e-07
2.17128e-07
1.16152e-07
6.15215e-08
3.22645e-08
1.67573e-08
8.56361e-09
4.25217e-09
1.96803e-09
5.8064e-10
39.7794
115.874
182.345
234.976
271.885
293.256
300.727
296.733
283.968
265.025
242.186
217.337
191.954
167.132
143.639
121.973
102.412
85.0741
69.9511
56.9506
45.923
36.6849
29.0365
22.7753
17.7049
13.6418
10.4191
7.8886
5.92103
4.40598
3.2505
2.37758
1.72427
1.23987
0.884002
0.624951
0.438088
0.304513
0.209887
0.143452
0.0972246
0.0653423
0.0435479
0.0287803
0.0188617
0.0122582
0.00789999
0.00504871
0.00319952
0.00201062
0.00125288
0.000774127
0.000474267
0.000288088
0.000173501
0.000103593
6.13176e-05
3.59783e-05
2.0925e-05
1.20623e-05
6.89126e-06
3.90154e-06
2.18879e-06
1.21666e-06
6.70036e-07
3.65518e-07
1.97492e-07
1.05709e-07
5.60345e-08
2.94205e-08
1.52646e-08
7.79308e-09
3.87788e-09
1.76936e-09
5.08197e-10
29.8388
87.2246
138.162
179.607
209.946
228.925
237.359
236.741
228.891
215.679
198.843
179.89
160.05
140.282
121.287
103.548
87.3646
72.8908
60.169
49.16
39.7675
31.8593
25.2829
19.878
15.4859
11.9554
9.14744
6.93707
5.21461
3.88563
2.87023
2.10186
1.52595
1.09835
0.783816
0.554593
0.389073
0.27064
0.186667
0.127663
0.0865745
0.0582169
0.0388192
0.0256676
0.0168295
0.0109422
0.00705478
0.00451033
0.00285941
0.00179755
0.00112051
0.000692579
0.000424455
0.000257921
0.000155388
9.28115e-05
5.49564e-05
3.22583e-05
1.8769e-05
1.08241e-05
6.1866e-06
3.50423e-06
1.96689e-06
1.09388e-06
6.02724e-07
3.28999e-07
1.77883e-07
9.52677e-08
5.05288e-08
2.65426e-08
1.37586e-08
7.03683e-09
3.5014e-09
1.58167e-09
4.60999e-10
22.5298
66.034
105.12
137.593
162.147
178.383
186.663
187.893
183.288
174.178
161.863
147.518
132.144
116.545
101.338
86.9643
73.7175
61.7669
51.1838
41.9655
34.0558
27.3625
21.7716
17.1584
13.3965
10.3631
7.94367
6.03431
4.54302
3.39002
2.50741
1.83839
1.33616
0.962737
0.687699
0.487018
0.341948
0.238043
0.164302
0.112442
0.0763001
0.0513378
0.0342509
0.0226587
0.0148638
0.00966849
0.00623627
0.00398867
0.00252968
0.00159087
0.000992039
0.000613394
0.000376059
0.000228594
0.000137769
8.23178e-05
4.87611e-05
2.86328e-05
1.66663e-05
9.61547e-06
5.49825e-06
3.11578e-06
1.74971e-06
9.73599e-07
5.3674e-07
2.93175e-07
1.58628e-07
8.4983e-08
4.51077e-08
2.36921e-08
1.22889e-08
6.28386e-09
3.12711e-09
1.44337e-09
4.40145e-10
17.08
50.1634
80.1684
105.505
125.151
138.693
146.255
148.376
145.862
139.652
130.705
119.922
108.097
95.8906
83.8246
72.2889
61.5537
51.7876
43.0761
35.4397
28.8506
23.247
18.5457
14.6514
11.4644
8.88651
6.82453
5.19307
3.91587
2.9263
2.16735
1.59105
1.15773
0.835066
0.597095
0.423245
0.297428
0.207217
0.143132
0.0980227
0.0665587
0.0448106
0.0299132
0.0197996
0.0129948
0.00845677
0.00545714
0.00349182
0.00221546
0.0013938
0.000869474
0.000537805
0.000329835
0.000200567
0.00012092
7.22769e-05
4.28291e-05
2.51591e-05
1.46502e-05
8.45574e-06
4.83717e-06
2.74241e-06
1.54077e-06
8.57795e-07
4.73173e-07
2.58579e-07
1.39975e-07
7.50364e-08
3.98369e-08
2.09195e-08
1.0873e-08
5.59785e-09
2.8121e-09
1.30177e-09
3.79776e-10
12.9753
38.1698
61.1911
80.8832
96.4615
107.55
114.153
116.586
115.383
111.201
104.741
96.6839
87.6501
78.17
68.6757
59.4995
50.881
42.9776
35.8784
29.617
24.1848
19.5428
15.6313
12.3786
9.70746
7.53997
5.80133
4.42216
3.33991
2.49961
1.85387
1.36266
0.992723
0.716837
0.513084
0.364042
0.256052
0.178538
0.123418
0.0845829
0.0574716
0.0387172
0.0258607
0.0171267
0.0112464
0.00732246
0.00472733
0.00302614
0.00192079
0.00120889
0.000754403
0.000466798
0.000286387
0.000174208
0.000105065
6.28217e-05
3.72395e-05
2.18836e-05
1.27476e-05
7.36057e-06
4.21242e-06
2.38924e-06
1.34296e-06
7.48013e-07
4.12832e-07
2.25714e-07
1.22252e-07
6.55903e-08
3.48384e-08
1.83236e-08
9.54049e-09
4.90855e-09
2.46635e-09
1.1503e-09
3.2709e-10
9.86223
29.05
46.6882
61.9344
74.1914
83.1407
88.7329
91.1476
90.7356
87.9559
83.3171
77.33
70.4712
63.1602
55.7473
48.5089
41.6507
35.3139
29.5838
24.5001
20.0665
16.26
13.0389
10.3502
8.13461
6.33116
4.88044
3.72668
2.8192
2.11308
1.56939
1.15506
0.842494
0.609044
0.436387
0.309927
0.218188
0.152267
0.105341
0.0722476
0.0491242
0.0331151
0.0221323
0.0146658
0.00963544
0.0062767
0.00405407
0.00259629
0.00164863
0.001038
0.000648
0.000401102
0.000246166
0.000149792
9.03697e-05
5.40528e-05
3.20521e-05
1.88417e-05
1.09795e-05
6.34197e-06
3.63088e-06
2.06023e-06
1.15851e-06
6.45537e-07
3.56437e-07
1.9499e-07
1.05679e-07
5.6726e-08
3.01735e-08
1.58957e-08
8.28372e-09
4.24668e-09
2.1184e-09
9.90051e-10
2.96357e-10
7.49072
22.088
35.5727
47.3289
56.9058
64.0437
68.6733
70.8932
70.9335
69.1136
65.8006
61.3739
56.1965
50.5955
44.8499
39.1853
33.774
28.7381
24.1556
20.0671
16.4834
13.3926
10.7666
8.56637
6.74721
5.26193
4.06381
3.10852
2.35538
1.7681
1.31502
0.969112
0.707732
0.512207
0.367394
0.261187
0.184046
0.128552
0.0890068
0.0610911
0.0415678
0.0280398
0.0187517
0.0124328
0.00817275
0.00532654
0.00344196
0.00220525
0.00140089
0.000882354
0.000551034
0.000341198
0.00020947
0.000127503
7.69466e-05
4.60381e-05
2.7308e-05
1.60579e-05
9.36029e-06
5.40843e-06
3.09746e-06
1.75819e-06
9.89055e-07
5.51346e-07
3.04542e-07
1.66664e-07
9.03756e-08
4.85454e-08
2.58291e-08
1.35907e-08
7.08512e-09
3.65946e-09
1.82644e-09
8.12237e-10
2.25012e-10
5.67965
16.7624
27.0424
36.0685
43.5024
49.1375
52.9025
54.8481
55.1247
53.954
51.6002
48.343
44.4564
40.1924
35.7703
31.371
27.1359
23.1679
19.5356
16.2775
13.4079
10.9223
8.80207
7.01929
5.54043
4.32938
3.3498
2.56678
1.94804
1.46453
1.09077
0.80491
0.588541
0.426436
0.306201
0.217904
0.153691
0.107444
0.0744533
0.0511413
0.0348227
0.0235055
0.0157292
0.0104349
0.00686309
0.00447521
0.00289318
0.00185445
0.00117851
0.000742565
0.000463895
0.000287336
0.000176457
0.000107439
6.48567e-05
3.88153e-05
2.30299e-05
1.35459e-05
7.89824e-06
4.56495e-06
2.61517e-06
1.48488e-06
8.35566e-07
4.65967e-07
2.57475e-07
1.40973e-07
7.64875e-08
4.11211e-08
2.18733e-08
1.15217e-08
6.01824e-09
3.10187e-09
1.55313e-09
6.8162e-10
1.76716e-10
4.29541
12.6865
20.4964
27.3948
33.1286
37.5367
40.5537
42.2028
42.5822
41.8454
40.1816
37.7961
34.8941
31.6677
28.2872
24.8957
21.6071
18.5065
15.652
13.0787
10.8019
8.82158
7.12594
5.69524
4.50468
3.52688
2.73385
2.09839
1.59511
1.20099
0.895745
0.661866
0.484545
0.351489
0.252659
0.179983
0.127066
0.0889093
0.0616609
0.0423872
0.0288828
0.0195092
0.0130632
0.00867122
0.00570618
0.00372267
0.00240778
0.00154397
0.000981577
0.000618701
0.000386642
0.000239557
0.000147157
8.9623e-05
5.41151e-05
3.23943e-05
1.92247e-05
1.13103e-05
6.59621e-06
3.81329e-06
2.18508e-06
1.24097e-06
6.98495e-07
3.89633e-07
2.15348e-07
1.17947e-07
6.39977e-08
3.44059e-08
1.83335e-08
9.6766e-09
5.0655e-09
2.58269e-09
1.2897e-09
5.92713e-10
1.52569e-10
3.23796
9.5693
15.4792
20.7258
25.1207
28.5398
30.9269
32.2901
32.693
32.2419
31.0719
29.3329
27.1774
24.7508
22.1836
19.5878
17.0537
14.6502
12.4259
10.4111
8.6207
7.05725
5.71374
4.57638
3.62702
2.84513
2.20933
1.69864
1.29327
0.975174
0.728336
0.538871
0.394986
0.286854
0.206421
0.147194
0.104016
0.072846
0.0505626
0.034785
0.0237198
0.0160326
0.010742
0.00713457
0.00469748
0.00306611
0.00198401
0.00127275
0.000809451
0.000510379
0.000319046
0.000197731
0.000121494
7.401e-05
4.46971e-05
2.67617e-05
1.58849e-05
9.34702e-06
5.45216e-06
3.15245e-06
1.80673e-06
1.02628e-06
5.77763e-07
3.22344e-07
1.78199e-07
9.76133e-08
5.29677e-08
2.84898e-08
1.518e-08
8.01919e-09
4.17314e-09
2.13267e-09
1.08006e-09
4.9283e-10
1.41593e-10
2.43145
7.18962
11.642
15.6119
18.9595
21.5903
23.4578
24.5622
24.9447
24.6787
23.8603
22.5984
21.0057
19.1913
17.2545
15.2817
13.3436
11.4952
9.77613
8.21196
6.81634
5.59304
4.53819
3.64237
2.89243
2.27309
1.7682
1.36172
1.03836
0.784103
0.586435
0.434445
0.318831
0.231812
0.166993
0.119199
0.0843132
0.0591
0.0410556
0.0282665
0.0192888
0.0130464
0.00874663
0.00581263
0.00382911
0.00250051
0.00161873
0.00103883
0.000660914
0.000416854
0.000260654
0.000161581
9.93032e-05
6.05036e-05
3.65461e-05
2.18845e-05
1.29915e-05
7.6454e-06
4.4601e-06
2.57911e-06
1.47829e-06
8.39832e-07
4.72845e-07
2.63822e-07
1.45878e-07
7.99285e-08
4.34009e-08
2.33738e-08
1.24481e-08
6.57473e-09
3.41469e-09
1.76936e-09
8.90168e-10
3.99533e-10
1.30616e-10
1.8179
5.37787
8.71617
11.7038
14.2376
16.2461
17.6922
18.5722
18.9125
18.7639
18.1944
17.283
16.1124
14.7638
13.312
11.823
10.3517
8.94126
7.62335
6.41915
5.34056
4.39179
3.57099
2.8718
2.28483
1.79881
1.40165
1.08116
0.825674
0.624392
0.467618
0.346865
0.254864
0.185514
0.133783
0.0955906
0.0676778
0.0474813
0.0330116
0.0227458
0.0155327
0.0105129
0.00705243
0.00468938
0.00309076
0.00201929
0.00130775
0.000839571
0.00053432
0.000337105
0.00021084
0.000130728
8.03559e-05
4.89663e-05
2.95805e-05
1.77149e-05
1.0517e-05
6.18949e-06
3.61089e-06
2.08812e-06
1.19689e-06
6.79977e-07
3.8286e-07
2.13624e-07
1.18117e-07
6.47265e-08
3.51644e-08
1.89174e-08
1.00915e-08
5.32564e-09
2.80222e-09
1.45105e-09
7.0028e-10
3.23797e-10
7.90285e-11
1.35269
4.00325
6.49337
8.72914
10.6347
12.1566
13.2656
13.9567
14.2468
14.1707
13.7767
13.1215
12.2657
11.2691
10.1879
9.07191
7.9631
6.89502
5.8927
4.97324
4.14669
3.41719
2.78412
2.24329
1.78804
1.41014
1.1006
0.85027
0.650307
0.492465
0.369306
0.274284
0.201773
0.147034
0.106146
0.0759183
0.0538002
0.0377781
0.026287
0.0181263
0.0123869
0.00838922
0.00563121
0.00374644
0.0024705
0.00161478
0.0010462
0.000671893
0.000427736
0.00026993
0.000168862
0.000104718
6.43764e-05
3.92325e-05
2.37018e-05
1.41948e-05
8.42721e-06
4.95952e-06
2.89323e-06
1.67303e-06
9.58938e-07
5.44748e-07
3.06698e-07
1.71123e-07
9.46278e-08
5.18591e-08
2.81363e-08
1.51109e-08
8.05541e-09
4.26863e-09
2.23694e-09
1.14921e-09
5.70761e-10
2.61233e-10
6.47594e-11
1.00137
2.96455
4.81187
6.47521
7.89905
9.04361
9.88643
10.4223
10.6618
10.629
10.3579
9.88927
9.26691
8.5349
7.73486
6.90414
6.07458
5.27191
4.5156
3.81924
3.19112
2.63498
2.15094
1.73629
1.38636
1.09518
0.856138
0.662415
0.507361
0.384741
0.288897
0.214828
0.15822
0.115423
0.0834121
0.0597172
0.0423582
0.0297694
0.0207311
0.014306
0.00978308
0.00663002
0.004453
0.00296417
0.0019556
0.00127878
0.000828825
0.000532463
0.000339066
0.000214022
0.00013391
8.30541e-05
5.10625e-05
3.112e-05
1.88008e-05
1.12593e-05
6.68401e-06
3.93327e-06
2.29428e-06
1.32651e-06
7.60211e-07
4.31807e-07
2.43074e-07
1.35615e-07
7.50013e-08
4.10805e-08
2.22783e-08
1.19717e-08
6.37606e-09
3.3631e-09
1.75399e-09
9.02242e-10
4.78561e-10
2.35988e-10
8.34189e-11
0.737251
2.1833
3.54594
4.77592
5.83281
6.68728
7.32221
7.73285
7.92587
7.91767
7.73224
7.39862
6.94852
6.41406
5.82589
5.21178
4.59563
3.99695
3.43072
2.90756
2.43416
2.01376
1.64684
1.33171
1.0651
0.842752
0.65982
0.511269
0.392142
0.297765
0.223871
0.166674
0.122895
0.0897502
0.0649253
0.0465269
0.0330321
0.0232348
0.0161934
0.0111829
0.00765263
0.00518949
0.00348749
0.00232269
0.0015331
0.00100292
0.000650258
0.000417871
0.000266161
0.000168035
0.000105152
6.52229e-05
4.01011e-05
2.44393e-05
1.47639e-05
8.84081e-06
5.24762e-06
3.0875e-06
1.80059e-06
1.04085e-06
5.96334e-07
3.3864e-07
1.90594e-07
1.06314e-07
5.87522e-08
3.21734e-08
1.74719e-08
9.40219e-09
5.00514e-09
2.63209e-09
1.39397e-09
7.4638e-10
3.94045e-10
1.98669e-10
5.26856e-11
0.53969
1.59867
2.59782
3.50168
4.28097
4.91417
5.38845
5.69973
5.85214
5.85691
5.73083
5.49455
5.17084
4.78299
4.3534
3.90254
3.4482
3.00501
2.58437
2.19447
1.84059
1.52545
1.24967
1.01223
0.810889
0.642601
0.503861
0.390976
0.300284
0.228309
0.171863
0.128104
0.094561
0.0691312
0.0500596
0.0359077
0.0255157
0.0179627
0.0125288
0.00865853
0.00592915
0.00402323
0.00270524
0.00180261
0.00119036
0.000779005
0.000505248
0.000324772
0.000206906
0.000130646
8.17625e-05
5.07172e-05
3.11821e-05
1.90024e-05
1.14781e-05
6.87211e-06
4.07823e-06
2.39889e-06
1.39864e-06
8.08246e-07
4.62927e-07
2.62782e-07
1.4785e-07
8.24036e-08
4.55226e-08
2.49291e-08
1.35226e-08
7.28159e-09
3.89544e-09
2.05254e-09
1.06908e-09
5.74054e-10
2.87576e-10
1.1964e-10
4.06118e-11
0.392714
1.16358
1.8917
2.55166
3.12236
3.58816
3.9395
4.17305
4.29135
4.30204
4.21684
4.05037
3.81889
3.53916
3.22745
2.89873
2.56611
2.24049
1.93041
1.64213
1.37974
1.14545
0.939926
0.762554
0.611816
0.485562
0.38127
0.296255
0.227833
0.173441
0.130717
0.0975454
0.0720822
0.0527519
0.0382364
0.0274523
0.0195244
0.0137562
0.00960215
0.00664064
0.00455033
0.00308948
0.00207851
0.00138567
0.000915416
0.000599295
0.00038881
0.000249987
0.00015929
0.000100592
6.29572e-05
3.90521e-05
2.40085e-05
1.4629e-05
8.83484e-06
5.28833e-06
3.13744e-06
1.8449e-06
1.07525e-06
6.21103e-07
3.55598e-07
2.01765e-07
1.13445e-07
6.32008e-08
3.49108e-08
1.90985e-08
1.0345e-08
5.56163e-09
2.96686e-09
1.55313e-09
8.00163e-10
3.91849e-10
1.98669e-10
1.00981e-10
5.37833e-11
0.284
0.841647
1.36889
1.84762
2.2627
2.60283
2.86099
3.03452
3.12496
3.1375
3.0803
2.96363
2.79905
2.59856
2.37389
2.13588
1.89414
1.65668
1.42986
1.21839
1.0254
0.85266
0.700766
0.569391
0.457509
0.363613
0.285905
0.222447
0.171288
0.130553
0.0985078
0.0735915
0.0544387
0.03988
0.028934
0.0207923
0.0148003
0.0104361
0.00729009
0.00504516
0.00345928
0.00235007
0.00158189
0.00105508
0.000697296
0.000456654
0.00029635
0.00019058
0.000121454
7.67046e-05
4.80076e-05
2.97773e-05
1.83045e-05
1.11514e-05
6.73298e-06
4.029e-06
2.38946e-06
1.40449e-06
8.18185e-07
4.72384e-07
2.70291e-07
1.53288e-07
8.61399e-08
4.79999e-08
2.648e-08
1.44655e-08
7.8337e-09
4.21046e-09
2.24353e-09
1.18652e-09
6.10275e-10
2.82088e-10
1.47081e-10
7.4638e-11
1.86595e-11
0.204075
0.604902
0.984213
1.32915
1.62895
1.87549
2.06364
2.19137
2.25958
2.27178
2.23363
2.15231
2.03599
1.8932
1.73234
1.56122
1.38679
1.21492
1.05028
0.896369
0.755565
0.629241
0.517917
0.42143
0.339097
0.26987
0.212474
0.165524
0.127611
0.0973776
0.0735578
0.0550113
0.0407359
0.029871
0.0216923
0.0156021
0.011115
0.00784362
0.0054831
0.00379718
0.00260519
0.00177084
0.00119259
0.00079578
0.000526129
0.000344667
0.000223731
0.000143905
9.17196e-05
5.79282e-05
3.62549e-05
2.24854e-05
1.38197e-05
8.41723e-06
5.08062e-06
3.03913e-06
1.80164e-06
1.05845e-06
6.16269e-07
3.55592e-07
2.03328e-07
1.15234e-07
6.47276e-08
3.60414e-08
1.98625e-08
1.0839e-08
5.86018e-09
3.16333e-09
1.67935e-09
8.93461e-10
4.44535e-10
2.26109e-10
1.1525e-10
3.40261e-11
-4.39047e-12
0.145686
0.431906
0.702979
0.949832
1.16484
1.34222
1.47826
1.57142
1.62222
1.63304
1.60775
1.55139
1.46968
1.36864
1.25424
1.13207
1.00713
0.883652
0.76506
0.653924
0.552015
0.460386
0.37947
0.3092
0.249126
0.198524
0.156498
0.122065
0.0942169
0.0719761
0.0544287
0.0407477
0.0302037
0.0221689
0.0161136
0.0115995
0.00827022
0.00584054
0.00408573
0.00283131
0.00194369
0.00132191
0.000890685
0.000594577
0.000393245
0.00025769
0.000167309
0.000107631
6.86054e-05
4.333e-05
2.71167e-05
1.68155e-05
1.03327e-05
6.29156e-06
3.79622e-06
2.26985e-06
1.34494e-06
7.8969e-07
4.59502e-07
2.64954e-07
1.51388e-07
8.57173e-08
4.81086e-08
2.675e-08
1.47311e-08
8.03676e-09
4.34217e-09
2.31158e-09
1.20409e-09
6.48692e-10
3.35871e-10
1.95376e-10
8.45165e-11
3.7319e-11
5.48809e-12
0.10331
0.306325
0.498733
0.674173
0.827275
0.953945
1.05153
1.11887
1.15627
1.16532
1.14868
1.10983
1.05278
0.981747
0.900945
0.814341
0.725497
0.637458
0.552689
0.473066
0.399896
0.333971
0.275641
0.224892
0.181428
0.144756
0.11425
0.0892157
0.0689393
0.0527227
0.0399109
0.029909
0.022191
0.0163026
0.01186
0.00854465
0.00609694
0.0043089
0.00301634
0.00209158
0.00143669
0.000977609
0.000659006
0.000440095
0.00029117
0.000190852
0.000123938
7.97403e-05
5.083e-05
3.21025e-05
2.00882e-05
1.24547e-05
7.65112e-06
4.65719e-06
2.80889e-06
1.67868e-06
9.94098e-07
5.83322e-07
3.39178e-07
1.95432e-07
1.11585e-07
6.31295e-08
3.53817e-08
1.96452e-08
1.08159e-08
5.87994e-09
3.1776e-09
1.67716e-09
8.78094e-10
4.6539e-10
2.54647e-10
1.21836e-10
2.85381e-11
1.4269e-11
1.75619e-11
0.0727628
0.215779
0.351411
0.475223
0.58346
0.673243
0.742688
0.790947
0.818177
0.825444
0.814571
0.787954
0.748365
0.698757
0.642077
0.58112
0.518407
0.456104
0.395976
0.339377
0.287259
0.240211
0.198508
0.16216
0.130978
0.104627
0.0826721
0.0646292
0.0499946
0.0382742
0.0290025
0.0217554
0.0161564
0.0118799
0.00864982
0.00623683
0.0044536
0.00314974
0.00220636
0.00153086
0.00105213
0.000716288
0.000483063
0.00032272
0.000213581
0.000140029
9.09499e-05
5.85217e-05
3.73051e-05
2.35592e-05
1.47402e-05
9.13694e-06
5.61124e-06
3.4142e-06
2.05822e-06
1.22939e-06
7.27578e-07
4.26655e-07
2.47895e-07
1.4273e-07
8.14257e-08
4.60286e-08
2.57622e-08
1.42646e-08
7.83918e-09
4.25656e-09
2.29183e-09
1.23262e-09
6.68449e-10
3.29285e-10
1.6574e-10
6.5857e-11
1.4269e-11
-4.39047e-12
-4.39047e-12
0.0508937
0.150945
0.245887
0.332644
0.408608
0.471769
0.520799
0.555084
0.574704
0.580367
0.573311
0.55518
0.527885
0.493469
0.453985
0.411387
0.367445
0.323686
0.281364
0.241445
0.204617
0.171312
0.141739
0.115921
0.0937385
0.0749631
0.0592979
0.0464056
0.0359346
0.0275378
0.0208871
0.0156824
0.0116568
0.00857865
0.00625128
0.0045109
0.00322351
0.00228135
0.00159909
0.00111017
0.000763406
0.000519976
0.000350819
0.000234456
0.000155212
0.000101784
6.61189e-05
4.25473e-05
2.71219e-05
1.71267e-05
1.07138e-05
6.63938e-06
4.07602e-06
2.47899e-06
1.49368e-06
8.9164e-07
5.27324e-07
3.09006e-07
1.79421e-07
1.03222e-07
5.88389e-08
3.32282e-08
1.85882e-08
1.02836e-08
5.64724e-09
3.08101e-09
1.6574e-09
8.97851e-10
4.78561e-10
2.52452e-10
1.1964e-10
6.0369e-11
2.74404e-11
1.64643e-11
-2.63428e-11
0.0353479
0.10485
0.170838
0.231195
0.284119
0.328217
0.362561
0.386712
0.400705
0.405011
0.400466
0.388189
0.369489
0.345775
0.318462
0.288908
0.258345
0.227842
0.198282
0.170347
0.14453
0.121143
0.100344
0.0821572
0.0665077
0.0532432
0.0421606
0.0330277
0.0256005
0.0196373
0.0149084
0.0112035
0.00833479
0.00613893
0.00447698
0.003233
0.00231195
0.00163731
0.00114837
0.000797709
0.000548827
0.000373994
0.000252429
0.000168758
0.00011175
7.32973e-05
4.76202e-05
3.06449e-05
1.95341e-05
1.23338e-05
7.71398e-06
4.779e-06
2.93279e-06
1.78285e-06
1.07363e-06
6.40455e-07
3.78496e-07
2.21622e-07
1.28567e-07
7.38795e-08
4.20772e-08
2.37305e-08
1.32647e-08
7.34196e-09
4.04143e-09
2.2106e-09
1.19421e-09
6.36618e-10
3.21602e-10
1.83302e-10
1.1525e-10
7.24428e-11
2.41476e-11
1.53666e-11
-4.39047e-12
0.0243764
0.0723137
0.11785
0.159535
0.196135
0.22669
0.250558
0.267428
0.277311
0.280518
0.277611
0.269348
0.256621
0.240391
0.221631
0.201275
0.180174
0.159073
0.138585
0.11919
0.101235
0.084945
0.0704349
0.0577295
0.0467812
0.0374888
0.0297148
0.0233004
0.0180776
0.0138794
0.0105465
0.00793234
0.00590608
0.00435354
0.00317735
0.00229614
0.00164312
0.00116439
0.000817164
0.000567952
0.000390948
0.000266527
0.000179962
0.00012035
7.97151e-05
5.22952e-05
3.39791e-05
2.18672e-05
1.39381e-05
8.79932e-06
5.50213e-06
3.40764e-06
2.09037e-06
1.27012e-06
7.64399e-07
4.557e-07
2.69105e-07
1.5743e-07
9.12153e-08
5.2364e-08
2.97817e-08
1.6787e-08
9.38573e-09
5.20271e-09
2.82527e-09
1.54545e-09
8.50654e-10
4.40145e-10
2.23914e-10
1.1525e-10
6.80523e-11
4.71976e-11
1.75619e-11
-8.78094e-12
1.20738e-11
0.0166896
0.0495152
0.0807102
0.10929
0.134412
0.155424
0.171881
0.183565
0.190479
0.192825
0.190979
0.185452
0.176846
0.165815
0.153021
0.139102
0.124643
0.110156
0.0960655
0.0827048
0.0703173
0.0590616
0.0490217
0.0402185
0.0326228
0.0261677
0.0207608
0.0162942
0.0126531
0.00972311
0.0073945
0.00556621
0.00414764
0.00305967
0.00223467
0.00161603
0.00115719
0.000820551
0.000576189
0.00040068
0.000275939
0.0001882
0.000127122
8.50391e-05
5.63397e-05
3.69665e-05
2.40214e-05
1.54591e-05
9.85296e-06
6.21932e-06
3.88792e-06
2.4071e-06
1.47595e-06
8.96312e-07
5.39079e-07
3.21153e-07
1.89508e-07
1.10756e-07
6.41228e-08
3.67691e-08
2.08877e-08
1.1761e-08
6.56924e-09
3.63531e-09
1.97352e-09
1.06469e-09
5.8503e-10
3.13919e-10
1.80009e-10
8.23213e-11
1.97571e-11
9.87856e-12
7.68332e-12
-1.4269e-11
1.20738e-11
0.0113438
0.0336581
0.0548726
0.0743221
0.0914379
0.105776
0.117033
0.125059
0.12985
0.131539
0.130376
0.126702
0.120921
0.113475
0.104812
0.0953646
0.085531
0.0756604
0.0660444
0.0569128
0.0484342
0.0407197
0.0338293
0.0277801
0.0225541
0.0181076
0.0143788
0.011295
0.00877854
0.00675132
0.00513856
0.00387108
0.0028867
0.00213104
0.00155753
0.0011271
0.000807592
0.000572994
0.000402578
0.000280094
0.000192983
0.000131675
8.89727e-05
5.95362e-05
3.94525e-05
2.58902e-05
1.68252e-05
1.08279e-05
6.90063e-06
4.35503e-06
2.72175e-06
1.68448e-06
1.03238e-06
6.26579e-07
3.76604e-07
2.24158e-07
1.32171e-07
7.71812e-08
4.465e-08
2.55756e-08
1.44984e-08
8.13005e-09
4.52987e-09
2.4872e-09
1.36763e-09
7.18939e-10
3.74288e-10
2.19523e-10
1.4269e-10
8.8907e-11
3.95142e-11
8.78094e-12
1.09762e-11
1.09762e-11
2.19524e-12
0.00765384
0.0227115
0.0370322
0.0501701
0.061743
0.0714517
0.0790917
0.0845592
0.0878489
0.0890474
0.0883194
0.0858919
0.0820352
0.0770443
0.0712204
0.0648549
0.058217
0.0515432
0.0450317
0.0388396
0.0330826
0.0278377
0.0231474
0.0190247
0.015459
0.0124218
0.0098721
0.00776122
0.00603689
0.00464644
0.0035392
0.0026682
0.00199114
0.00147094
0.00107579
0.000778989
0.000558505
0.000396491
0.000278718
0.000194013
0.000133733
9.12838e-05
6.17012e-05
4.12988e-05
2.73731e-05
1.79657e-05
1.16761e-05
7.51412e-06
4.78828e-06
3.02135e-06
1.8877e-06
1.16784e-06
7.1541e-07
4.33954e-07
2.6066e-07
1.55042e-07
9.13306e-08
5.32937e-08
3.07926e-08
1.76244e-08
9.97185e-09
5.59236e-09
3.10296e-09
1.69033e-09
9.04437e-10
4.62097e-10
2.40378e-10
1.383e-10
8.12237e-11
5.26856e-11
4.17095e-11
3.29285e-12
1.97571e-11
2.96357e-11
8.78094e-12
0.00512603
0.0152117
0.0248071
0.033615
0.0413809
0.0479044
0.0530483
0.056742
0.0589804
0.0598192
0.0593668
0.057773
0.0552172
0.0518954
0.0480084
0.0437513
0.0393043
0.0348265
0.0304515
0.0262856
0.0224077
0.0188707
0.015704
0.0129175
0.0105049
0.00844769
0.00671896
0.00528635
0.00411498
0.00316954
0.002416
0.0018227
0.00136112
0.00100618
0.000736357
0.000533528
0.000382741
0.000271863
0.000191207
0.00013316
9.18266e-05
6.27027e-05
4.23962e-05
2.83848e-05
1.88173e-05
1.2352e-05
8.02814e-06
5.16636e-06
3.29186e-06
2.0767e-06
1.29712e-06
8.02148e-07
4.91154e-07
2.97755e-07
1.78726e-07
1.06241e-07
6.25291e-08
3.64519e-08
2.10205e-08
1.19981e-08
6.79535e-09
3.79995e-09
2.09425e-09
1.13603e-09
5.83933e-10
2.98552e-10
1.44886e-10
7.13451e-11
1.97571e-11
-1.20738e-11
-5.48809e-12
1.31714e-11
2.08547e-11
1.31714e-11
1.4269e-11
0.00340751
0.0101126
0.0164937
0.0223543
0.0275256
0.031875
0.0353109
0.0377857
0.0392949
0.0398746
0.0395953
0.0385555