/*--------------------------------*- C++ -*----------------------------------*\
  =========                 |
  \\      /  F ield         | OpenFOAM: The Open Source CFD Toolbox
   \\    /   O peration     | Website:  https://openfoam.org
    \\  /    A nd           | Version:  10
     \\/     M anipulation  |
\*---------------------------------------------------------------------------*/
FoamFile
{
    format      ascii;
    class       volScalarField;
    location    "273";
    object      gradTx;
}
// * * * * * * * * * * * * * * * * * * * * * * * * * * * * * * * * * * * * * //

dimensions      [0 -1 0 1 0 0 0];

internalField   nonuniform List<scalar> 
11250
(
14294.8
8088.86
5285.43
3793.58
2887.14
2279.19
1841.42
1509.81
1249.41
1039.58
867.431
724.402
604.58
503.692
418.529
346.596
285.896
234.787
191.887
156.021
126.173
101.458
81.1072
64.4477
50.8938
39.9371
31.138
24.1193
18.5593
14.1856
10.7695
8.1204
6.08096
4.52232
3.33985
2.44937
1.78374
1.28987
0.926165
0.660314
0.46744
0.328554
0.229292
0.158879
0.109304
0.0746612
0.0506333
0.0340925
0.0227907
0.0151262
0.00996714
0.00652044
0.00423489
0.00273063
0.00174796
0.00111081
0.000700778
0.000438879
0.000272849
0.000168385
0.000103151
6.27216e-05
3.7855e-05
2.26764e-05
1.3482e-05
7.95509e-06
4.65824e-06
2.70674e-06
1.56042e-06
8.92043e-07
5.04911e-07
2.8153e-07
1.51891e-07
7.41298e-08
2.21005e-08
4090.66
4687.81
3976.16
3211.33
2592.61
2113.65
1740.45
1444.29
1204.84
1008.17
844.675
707.569
591.928
494.067
411.14
340.888
281.467
231.34
189.202
153.929
124.544
100.192
80.1257
63.689
50.3095
39.4888
30.7956
23.859
18.3624
14.0374
10.6586
8.03788
6.01992
4.47743
3.30704
2.42554
1.76654
1.27753
0.917375
0.654093
0.463066
0.325499
0.227173
0.157419
0.108305
0.0739819
0.0501748
0.0337851
0.0225861
0.0149909
0.00987837
0.00646258
0.00419745
0.00270657
0.00173261
0.00110109
0.000694664
0.000435063
0.000270484
0.00016693
0.000102262
6.21831e-05
3.75311e-05
2.24831e-05
1.33675e-05
7.88773e-06
4.61891e-06
2.68399e-06
1.54736e-06
8.84618e-07
5.00719e-07
2.79211e-07
1.50696e-07
7.35327e-08
2.19458e-08
1471.2
2596.95
2722.38
2486.13
2162.21
1846.94
1567.61
1327.69
1123.47
949.787
801.844
675.592
567.726
475.557
396.872
329.828
272.862
224.63
183.965
149.842
121.358
97.7135
78.2021
62.2009
49.1625
38.6083
30.1227
23.3472
17.9751
13.7459
10.4403
7.87541
5.89969
4.38899
3.24238
2.37856
1.73263
1.25321
0.900043
0.641823
0.454437
0.319471
0.22299
0.154537
0.106332
0.0726409
0.0492695
0.0331782
0.022182
0.0147238
0.00970301
0.00634827
0.00412346
0.00265902
0.00170227
0.00108187
0.000682578
0.000427516
0.000265807
0.000164052
0.000100505
6.11179e-05
3.68902e-05
2.21004e-05
1.31407e-05
7.75439e-06
4.54112e-06
2.63893e-06
1.52148e-06
8.69895e-07
4.92455e-07
2.74622e-07
1.4821e-07
7.23165e-08
2.15912e-08
668.848
1507.79
1832.56
1851.68
1727.04
1548.79
1360.44
1180.93
1017.43
871.768
743.538
631.449
533.957
449.514
376.665
314.082
260.558
215.002
176.428
143.947
116.753
94.1243
75.4126
60.0402
47.4952
37.3272
29.1427
22.6013
17.4102
13.3204
10.1217
7.6381
5.724
4.25971
3.14784
2.30985
1.68301
1.21761
0.874668
0.623855
0.441798
0.310641
0.216863
0.150313
0.103441
0.0706751
0.0479422
0.0322882
0.0215895
0.014332
0.00944577
0.00618057
0.00401491
0.00258925
0.00165775
0.00105366
0.000664836
0.000416438
0.00025894
0.000159827
9.7924e-05
5.95533e-05
3.59488e-05
2.15383e-05
1.28075e-05
7.55845e-06
4.42676e-06
2.57271e-06
1.48344e-06
8.48232e-07
4.80225e-07
2.67831e-07
1.44554e-07
7.05461e-08
2.10391e-08
365.705
934.152
1250.61
1364.01
1349.22
1265.15
1149.39
1023.58
899.276
782.274
675.153
578.78
493.121
417.683
351.756
294.538
245.2
202.928
166.94
136.5
110.921
89.5678
71.8642
57.2869
45.3674
35.69
27.8891
21.6461
16.6862
12.7747
9.71258
7.33324
5.49818
4.09345
3.02619
2.22141
1.61912
1.17175
0.84197
0.600694
0.425503
0.299253
0.208957
0.144863
0.0997089
0.0681374
0.0462285
0.031139
0.0208241
0.0138259
0.00911342
0.00596387
0.00387461
0.00249907
0.00160019
0.00101719
0.000641894
0.00040211
0.000250057
0.00015436
9.45849e-05
5.75287e-05
3.47305e-05
2.08106e-05
1.23762e-05
7.30474e-06
4.2787e-06
2.48697e-06
1.43419e-06
8.20173e-07
4.64395e-07
2.59018e-07
1.39804e-07
6.82477e-08
2.03652e-08
225.966
613.809
873.843
1007.44
1044.32
1017.45
953.209
869.934
779.376
688.661
601.89
521.272
447.85
381.962
323.524
272.205
227.532
188.96
155.912
127.811
104.091
84.2174
67.6871
54.0387
42.8525
33.7518
26.4027
20.5121
15.8257
12.1254
9.22545
6.96994
5.22886
3.89504
2.88093
2.11574
1.54274
1.11691
0.80285
0.572974
0.405992
0.285613
0.199486
0.138331
0.0952355
0.0650948
0.0441733
0.0297604
0.0199058
0.0132185
0.00871451
0.00570372
0.00370616
0.00239076
0.00153106
0.000973378
0.000614328
0.000384892
0.000239381
0.000147789
9.057e-05
5.5094e-05
3.3265e-05
1.99351e-05
1.18573e-05
6.99945e-06
4.10046e-06
2.38374e-06
1.37488e-06
7.86399e-07
4.4538e-07
2.48448e-07
1.3411e-07
6.54729e-08
1.9542e-08
150.737
422.527
625.571
750.398
806.678
811.215
780.666
728.594
664.964
596.635
528.109
462.209
400.604
344.188
293.343
248.114
208.329
173.682
143.786
118.212
96.5183
78.2641
63.0259
50.4049
40.0328
31.5745
24.7301
19.2341
14.8547
11.3918
8.67448
6.55863
4.92369
3.67003
2.71608
1.99574
1.45596
1.05456
0.758351
0.541428
0.383779
0.270077
0.188695
0.130887
0.0901354
0.0616248
0.0418288
0.0281873
0.0188578
0.0125251
0.00825899
0.00540658
0.00351372
0.00226701
0.00145205
0.000923295
0.000582811
0.000365203
0.00022717
0.000140271
8.59761e-05
5.23075e-05
3.15874e-05
1.89328e-05
1.12629e-05
6.64971e-06
3.89625e-06
2.26543e-06
1.30689e-06
7.47669e-07
4.23538e-07
2.36317e-07
1.27599e-07
6.22876e-08
1.85827e-08
105.591
301.185
457.471
564.571
624.1
643.966
634.032
603.594
560.325
510.075
457.068
404.221
353.459
305.982
262.469
223.234
188.337
157.667
131
108.041
88.4588
71.9048
58.0306
46.4997
36.9949
29.2237
22.9207
17.8492
13.8008
10.5945
8.07493
6.11055
4.59091
3.42444
2.536
1.86455
1.36102
0.98631
0.709613
0.506858
0.359424
0.253036
0.176853
0.122715
0.0845343
0.0578126
0.0392522
0.026458
0.0177053
0.0117624
0.00775781
0.00507959
0.00330188
0.00213076
0.00136503
0.000868127
0.000548086
0.000343504
0.00021371
0.000131983
8.09098e-05
4.92337e-05
2.97365e-05
1.78266e-05
1.06068e-05
6.26348e-06
3.67069e-06
2.1347e-06
1.23173e-06
7.04797e-07
3.99314e-07
2.22872e-07
1.20388e-07
5.87675e-08
1.75322e-08
76.4132
220.277
340.406
428.839
484.324
510.2
512.046
495.941
467.46
431.249
390.936
349.221
308.028
268.665
231.966
198.413
168.225
141.441
117.965
97.6167
80.1608
65.331
52.8487
42.436
33.8252
26.7649
21.0242
16.3949
12.6922
9.75448
7.44243
5.63726
4.239
3.16447
2.3452
1.72545
1.26027
0.913827
0.657819
0.470099
0.333513
0.234897
0.164242
0.114007
0.0785639
0.0537475
0.0365037
0.0246127
0.016475
0.010948
0.00722249
0.00473021
0.00307548
0.0019851
0.00127199
0.000809121
0.000510935
0.000320283
0.000199302
0.000123109
7.54841e-05
4.5941e-05
2.77532e-05
1.66409e-05
9.90326e-06
5.84926e-06
3.42867e-06
1.9944e-06
1.15103e-06
6.5876e-07
3.73326e-07
2.0843e-07
1.12603e-07
5.50049e-08
1.64258e-08
56.5525
164.159
256.766
328.419
377.098
403.913
411.895
404.894
386.816
361.186
330.952
298.451
265.451
233.232
202.675
174.343
148.558
125.457
105.044
87.2264
71.85
58.7193
47.6176
38.3204
30.6057
24.261
19.0885
14.9074
11.5562
8.89236
6.79228
5.15011
3.87635
2.89627
2.14816
1.58164
1.15603
0.838777
0.604151
0.431984
0.306629
0.216066
0.151142
0.104958
0.0723568
0.0495192
0.0336437
0.0226917
0.0151939
0.0100996
0.00666467
0.00436603
0.00283942
0.00183317
0.00117492
0.00074754
0.000472153
0.000296036
0.000184253
0.000113837
6.98136e-05
4.24988e-05
2.56791e-05
1.54006e-05
9.16717e-06
5.4157e-06
3.17524e-06
1.84743e-06
1.06646e-06
6.10532e-07
3.46096e-07
1.93243e-07
1.04405e-07
5.10304e-08
1.52514e-08
42.5196
124.022
195.689
253.17
294.468
319.668
330.334
328.853
317.897
300.058
277.647
252.596
226.443
200.362
175.205
151.555
129.783
110.087
92.5392
77.1146
63.7219
52.2248
42.4594
34.2483
27.4105
21.7694
17.1575
13.4204
10.4184
8.02729
6.13887
4.65979
3.51086
2.62564
1.94911
1.43624
1.05053
0.762754
0.549745
0.393316
0.279338
0.196937
0.137828
0.0957562
0.0660411
0.0452151
0.030731
0.0207346
0.0138881
0.00923459
0.00609567
0.00399443
0.00259846
0.00167805
0.00107577
0.000684624
0.000432517
0.000271248
0.000168863
0.000104352
6.40111e-05
3.89753e-05
2.35554e-05
1.41302e-05
8.41295e-06
4.97131e-06
2.91537e-06
1.69666e-06
9.79693e-07
5.61014e-07
3.18085e-07
1.77645e-07
9.60086e-08
4.69078e-08
1.40078e-08
32.3274
94.6248
150.28
196.13
230.454
252.911
264.247
265.912
259.705
247.496
231.05
211.913
191.376
170.464
149.957
130.418
112.226
95.6117
80.6877
67.4772
55.9368
45.9769
37.4776
30.3016
24.3041
19.3402
15.2702
11.9637
9.3014
7.17653
5.49517
4.17603
3.14975
2.35791
1.75197
1.29207
0.945822
0.687234
0.495653
0.354842
0.252163
0.177877
0.124554
0.086576
0.0597371
0.0409166
0.0278208
0.0187782
0.0125822
0.00836915
0.00552619
0.00362237
0.00235712
0.00152263
0.00097639
0.000621542
0.000392764
0.000246378
0.000153417
9.48295e-05
5.81837e-05
3.54355e-05
2.14212e-05
1.2853e-05
7.65436e-06
4.52418e-06
2.65386e-06
1.54486e-06
8.92283e-07
5.11092e-07
2.89841e-07
1.61924e-07
8.75317e-08
4.27588e-08
1.27708e-08
24.7702
72.6962
116.03
152.468
180.61
199.977
210.871
214.156
211.029
202.824
190.86
176.351
160.349
143.721
127.153
111.16
96.1048
82.2272
69.6616
58.4613
48.6177
40.0771
32.7548
26.5469
21.3394
17.015
13.4591
10.5625
8.22476
6.35488
4.87241
3.70726
2.79931
2.09775
1.56017
1.15164
0.843727
0.613526
0.442812
0.317226
0.225574
0.159215
0.111548
0.0775758
0.053553
0.0366977
0.0249629
0.0168561
0.0112987
0.00751809
0.00496594
0.0032562
0.00211951
0.00136954
0.000878474
0.000559365
0.000353567
0.000221847
0.000138177
8.54307e-05
5.24298e-05
3.1939e-05
1.93123e-05
1.15905e-05
6.90424e-06
4.08189e-06
2.39506e-06
1.39456e-06
8.05695e-07
4.61614e-07
2.61863e-07
1.46319e-07
7.91163e-08
3.86888e-08
1.15821e-08
19.0794
56.1092
89.905
118.781
141.63
157.966
167.861
171.816
170.622
165.22
156.587
145.658
133.273
120.149
106.869
93.8874
81.5387
70.053
59.5723
50.1669
41.8517
34.5993
28.3526
23.0346
18.5571
14.8267
11.7501
9.2372
7.20417
5.57447
4.27984
3.26047
2.4648
1.84906
1.37659
1.01708
0.745789
0.542749
0.392025
0.281041
0.199975
0.141234
0.0990078
0.0688924
0.0475829
0.0326224
0.0222008
0.0149974
0.0100568
0.00669435
0.00442343
0.00290147
0.00188922
0.00122112
0.000783506
0.000499037
0.000315522
0.000198029
0.000123374
7.6298e-05
4.68368e-05
2.85391e-05
1.72608e-05
1.03619e-05
6.174e-06
3.6511e-06
2.14284e-06
1.24805e-06
7.2123e-07
4.13329e-07
2.34548e-07
1.31132e-07
7.09412e-08
3.47045e-08
1.03736e-08
14.7443
43.4305
69.8057
92.6294
111.041
124.602
133.269
137.327
137.292
133.825
127.642
119.457
109.928
99.6366
89.0687
78.6136
68.5677
59.1431
50.4785
42.652
35.6925
29.5914
24.3124
19.7998
15.9865
12.799
10.1623
8.0029
6.2516
4.84461
3.72463
2.84114
2.15036
1.61496
1.20355
0.890086
0.653255
0.475806
0.343942
0.246752
0.175697
0.124168
0.0870968
0.0606389
0.0419048
0.0287439
0.0195707
0.0132265
0.00887309
0.00590874
0.0039058
0.00256285
0.00166931
0.00107933
0.00069274
0.000441357
0.000279132
0.000175238
0.000109205
6.75528e-05
4.14791e-05
2.52809e-05
1.52941e-05
9.1836e-06
5.47332e-06
3.23757e-06
1.90065e-06
1.10731e-06
6.40072e-07
3.66935e-07
2.08288e-07
1.16485e-07
6.30373e-08
3.08441e-08
9.20901e-09
11.4139
33.6642
54.2444
72.2373
86.9799
98.0983
105.501
109.34
109.954
107.802
103.407
97.3074
90.0151
81.9928
73.6385
65.2786
57.1688
49.4977
42.3946
35.9381
30.1647
25.0782
20.6574
16.8634
13.6456
10.9472
8.70836
6.86995
5.3753
4.17182
3.21188
2.45321
1.85901
1.39773
1.04276
0.771937
0.567066
0.413386
0.299063
0.214717
0.152996
0.108197
0.0759417
0.0529036
0.0365795
0.0251043
0.017101
0.0115628
0.00776035
0.00516988
0.00341873
0.00224408
0.00146219
0.000945725
0.000607184
0.000386965
0.000244804
0.00015373
9.58271e-05
5.92933e-05
3.6417e-05
2.22013e-05
1.34344e-05
8.06894e-06
4.81021e-06
2.84607e-06
1.67126e-06
9.73917e-07
5.63145e-07
3.22939e-07
1.83373e-07
1.02552e-07
5.55021e-08
2.71583e-08
8.12786e-09
8.84002
26.1004
42.1434
56.2882
68.0265
77.0507
83.2552
86.7142
87.6465
86.3725
83.2724
78.7482
73.1943
66.9752
60.4113
53.7718
47.2722
41.0762
35.2998
30.0175
25.2687
21.0647
17.3951
14.2335
11.5427
9.27883
7.39509
5.84414
4.58011
3.56006
2.74476
2.0992
1.5927
1.19888
0.895374
0.663497
0.487866
0.355964
0.257735
0.185189
0.132052
0.09345
0.0656333
0.0457502
0.0316515
0.0217339
0.0148126
0.0100203
0.00672814
0.00448413
0.00296645
0.00194794
0.00126969
0.000821495
0.000527595
0.000336346
0.000212843
0.000133697
8.33626e-05
5.15944e-05
3.16966e-05
1.93284e-05
1.16989e-05
7.02831e-06
4.19086e-06
2.48023e-06
1.45681e-06
8.49175e-07
4.91142e-07
2.81697e-07
1.59992e-07
8.95294e-08
4.84565e-08
2.36866e-08
7.07085e-09
6.84287
20.2215
32.7069
43.7924
53.0897
60.3513
65.4741
68.4882
69.5341
68.8346
66.6646
63.3237
59.1129
54.3164
49.1891
43.9496
38.7765
33.8085
29.1469
24.8596
20.9855
17.5401
14.52
11.9082
9.67755
7.79502
6.22409
4.92727
3.86782
3.01096
2.32471
1.7803
1.35242
1.0192
0.762008
0.565245
0.41602
0.303816
0.220163
0.158318
0.112976
0.0800063
0.0562285
0.0392189
0.0271489
0.0186524
0.012719
0.00860826
0.00578268
0.00385569
0.00255175
0.00167627
0.00109301
0.000707429
0.000454486
0.000289828
0.000183461
0.000115273
7.18942e-05
4.4508e-05
2.73501e-05
1.6682e-05
1.00995e-05
6.06893e-06
3.61966e-06
2.1427e-06
1.25886e-06
7.33991e-07
4.24613e-07
2.4361e-07
1.38411e-07
7.74655e-08
4.19444e-08
2.04936e-08
6.10714e-09
5.28962
15.643
25.3379
33.9965
41.3231
47.1215
51.2992
53.8619
54.8991
54.5653
53.059
50.6023
47.4235
43.7423
39.7594
35.65
31.5598
27.6045
23.8704
20.4174
17.282
14.4811
12.0162
9.87668
8.04337
6.4914
5.19268
4.11782
3.23762
2.52417
1.95162
1.49656
1.1383
0.858832
0.642812
0.477319
0.351647
0.257038
0.186425
0.134165
0.0958133
0.0679006
0.0477528
0.0333283
0.0230849
0.0158692
0.0108269
0.00733132
0.0049272
0.00328673
0.00217612
0.00143007
0.000932822
0.000603959
0.000388139
0.000247595
0.000156773
9.85323e-05
6.14696e-05
3.80641e-05
2.3396e-05
1.42736e-05
8.64344e-06
5.19512e-06
3.09919e-06
1.83501e-06
1.07831e-06
6.28854e-07
3.63901e-07
2.08846e-07
1.18696e-07
6.64157e-08
3.59689e-08
1.7597e-08
5.24442e-09
4.08044
12.0746
19.5819
26.3201
32.0649
36.6622
40.0331
42.1706
43.1312
43.0219
41.9857
40.1867
37.797
34.9851
31.9078
28.7038
25.4906
22.363
19.3933
16.633
14.1149
11.856
9.86049
8.12228
6.62805
5.35939
4.29486
3.41159
2.68661
2.09771
1.62417
1.2471
0.949732
0.7174
0.537544
0.399565
0.294651
0.215575
0.156487
0.112712
0.0805543
0.0571282
0.0402042
0.0280779
0.01946
0.013385
0.00913691
0.0061901
0.00416219
0.00277767
0.00183984
0.00120956
0.000789278
0.000511199
0.000328634
0.000209701
0.000132818
8.3499e-05
5.21045e-05
3.22728e-05
1.9841e-05
1.21075e-05
7.33334e-06
4.40862e-06
2.63054e-06
1.55784e-06
9.15624e-07
5.34083e-07
3.09121e-07
1.77447e-07
1.00843e-07
5.64483e-08
3.05895e-08
1.49726e-08
4.47608e-09
3.13926
9.29446
15.089
20.312
24.7938
28.4146
31.1088
32.864
33.7153
33.7367
33.0309
31.7189
29.9297
27.7919
25.4267
22.9431
20.4346
17.9779
15.6326
13.4421
11.435
9.62736
8.02457
6.62377
5.41586
4.38737
3.52207
2.80237
2.21029
1.72834
1.34003
1.03028
0.785578
0.594092
0.445639
0.331593
0.244765
0.179242
0.130226
0.0938738
0.0671427
0.0476517
0.0335582
0.0234516
0.0162636
0.0111929
0.00764467
0.00518178
0.00348587
0.00232737
0.00154223
0.0010143
0.000662109
0.000428983
0.000275869
0.000176085
0.000111558
7.01523e-05
4.37869e-05
2.71274e-05
1.66814e-05
1.01815e-05
6.16805e-06
3.70877e-06
2.21338e-06
1.31104e-06
7.70727e-07
4.49675e-07
2.60299e-07
1.49445e-07
8.4938e-08
4.75751e-08
2.57786e-08
1.26094e-08
3.78678e-09
2.4075
7.13119
11.5875
15.6191
19.0977
21.931
24.0658
25.4881
26.2192
26.3101
25.8348
24.8819
23.5478
21.93
20.1215
18.2072
16.2609
14.3437
12.5042
10.7783
9.19028
7.75464
6.47728
5.35731
4.38869
3.56167
2.86411
2.28253
1.80304
1.41193
1.09621
0.843902
0.644252
0.487777
0.366289
0.272831
0.201586
0.147758
0.107445
0.0775157
0.0554857
0.0394075
0.0277715
0.0194204
0.0134762
0.00927993
0.00634159
0.00430072
0.00289456
0.00193345
0.00128173
0.000843313
0.000550694
0.000356919
0.000229599
0.000146595
9.29003e-05
5.84343e-05
3.64815e-05
2.26065e-05
1.39042e-05
8.48811e-06
5.14309e-06
3.093e-06
1.84619e-06
1.09373e-06
6.43085e-07
3.75238e-07
2.17256e-07
1.2475e-07
7.09489e-08
3.97381e-08
2.15045e-08
1.05327e-08
3.1348e-09
1.83965
5.45136
8.86485
11.9629
14.6489
16.852
18.5301
19.6692
20.2822
20.4042
20.0881
19.3989
18.4082
17.1895
15.8138
14.3467
12.8456
11.3591
9.92604
8.57562
7.32831
6.19661
5.18634
4.29785
3.52724
2.86755
2.30976
1.84365
1.45852
1.14376
0.889195
0.685408
0.523885
0.397097
0.298516
0.222578
0.164615
0.12077
0.0878962
0.0634644
0.0454631
0.0323128
0.0227875
0.0159455
0.0110718
0.00762861
0.00521598
0.00353917
0.00238315
0.00159256
0.0010562
0.000695191
0.000454134
0.000294435
0.000189463
0.000121004
7.67028e-05
4.82578e-05
3.01349e-05
1.86774e-05
1.14898e-05
7.01539e-06
4.25142e-06
2.55715e-06
1.52656e-06
9.04493e-07
5.31851e-07
3.10343e-07
1.79702e-07
1.03216e-07
5.86984e-08
3.28747e-08
1.78088e-08
8.72057e-09
2.59477e-09
1.40015
4.15044
6.75394
9.12343
11.1864
12.889
14.1979
15.1008
15.6049
15.7345
15.5274
15.031
14.2984
13.3847
12.3436
11.2254
10.0747
8.92947
7.82041
6.77112
5.79836
4.91279
4.11977
3.4203
2.81199
2.28992
1.84745
1.47688
1.17007
0.918829
0.715266
0.552028
0.422437
0.320562
0.241238
0.180053
0.133292
0.0978786
0.0712977
0.0515217
0.0369364
0.0262717
0.01854
0.0129818
0.00901949
0.00621816
0.00425392
0.00288786
0.00194551
0.00130068
0.00086298
0.000568235
0.000371332
0.00024083
0.000155016
9.90308e-05
6.27903e-05
3.95137e-05
2.46796e-05
1.52992e-05
9.41316e-06
5.74832e-06
3.48403e-06
2.09584e-06
1.25133e-06
7.41459e-07
4.36011e-07
2.54454e-07
1.47352e-07
8.46208e-08
4.81174e-08
2.69564e-08
1.46334e-08
7.17622e-09
2.16121e-09
1.06106
3.14624
5.12292
6.92631
8.50225
9.80989
10.8234
11.5322
11.9401
12.064
11.9306
11.5747
11.0352
10.3533
9.56954
8.72211
7.84525
6.96843
6.11577
5.30602
4.55274
3.86478
3.24688
2.70038
2.22387
1.81393
1.4657
1.17344
0.930981
0.732061
0.570607
0.440922
0.337806
0.256624
0.193325
0.144436
0.107027
0.0786625
0.0573491
0.0414757
0.0297572
0.0211808
0.0149576
0.0104802
0.00728589
0.00502589
0.00344013
0.00233659
0.00157487
0.00105336
0.000699168
0.000460547
0.000301064
0.000195319
0.000125759
8.0361e-05
5.09648e-05
3.20788e-05
2.00397e-05
1.24248e-05
7.64575e-06
4.6696e-06
2.83054e-06
1.70289e-06
1.01677e-06
6.02517e-07
3.54357e-07
2.06825e-07
1.19773e-07
6.87745e-08
3.91356e-08
2.19513e-08
1.19081e-08
5.84372e-09
1.74631e-09
0.800409
2.374
3.86755
5.23313
6.43036
7.42851
8.20766
8.75907
9.08467
9.19586
9.11186
8.85771
8.46217
7.95572
7.36875
6.73011
6.06591
5.39881
4.74756
4.12689
3.54763
3.017
2.53909
2.11528
1.74484
1.42542
1.1535
0.924817
0.734734
0.578502
0.451479
0.349285
0.267905
0.203742
0.153646
0.114904
0.0852236
0.0626933
0.0457454
0.0331103
0.0237735
0.0169339
0.0119667
0.00838998
0.00583629
0.00402824
0.00275874
0.00187472
0.00126416
0.000845903
0.000561696
0.00037013
0.000242039
0.000157075
0.000101163
6.46599e-05
4.10162e-05
2.58218e-05
1.61336e-05
1.00045e-05
6.1571e-06
3.76077e-06
2.27982e-06
1.37162e-06
8.19005e-07
4.85355e-07
2.85451e-07
1.66618e-07
9.65058e-08
5.54242e-08
3.15192e-08
1.76771e-08
9.57562e-09
4.68463e-09
1.40385e-09
0.60087
1.78259
2.90545
3.93406
4.83849
5.5957
6.19052
6.61587
6.87253
6.96828
6.91679
6.73616
6.44742
6.07309
5.63582
5.15724
4.65712
4.15275
3.65857
3.18603
2.74366
2.3373
1.97032
1.64409
1.35828
1.11129
0.900584
0.72304
0.575191
0.45346
0.354323
0.27444
0.210732
0.160432
0.121108
0.0906582
0.0673024
0.0495533
0.0361877
0.0262133
0.0188355
0.0134261
0.00949427
0.0066608
0.00463621
0.00320175
0.00219388
0.0014916
0.00100628
0.000673632
0.000447481
0.000294973
0.000192955
0.000125258
8.06926e-05
5.15881e-05
3.27309e-05
2.06093e-05
1.28787e-05
7.98704e-06
4.91597e-06
3.0029e-06
1.82045e-06
1.09527e-06
6.54021e-07
3.87571e-07
2.27922e-07
1.33025e-07
7.70407e-08
4.42351e-08
2.51453e-08
1.40671e-08
7.62844e-09
3.74946e-09
1.14482e-09
0.448799
1.33173
2.1715
2.94211
3.62143
4.19231
4.64328
4.96873
5.16878
5.24875
5.21832
5.09053
4.88071
4.6054
4.28138
3.92478
3.55046
3.17151
2.79894
2.44158
2.10608
1.79707
1.51731
1.26803
1.04915
0.859598
0.69758
0.560803
0.4467
0.352595
0.275835
0.213889
0.164415
0.125301
0.0946816
0.0709434
0.0527143
0.0388459
0.0283916
0.0205821
0.0148002
0.0105572
0.00747046
0.00524428
0.00365242
0.00252375
0.00173021
0.00117693
0.00079435
0.000531982
0.00035352
0.000233117
0.00015254
9.90501e-05
6.3825e-05
4.08132e-05
2.58993e-05
1.63102e-05
1.01935e-05
6.32231e-06
3.89157e-06
2.37726e-06
1.44119e-06
8.67133e-07
5.17753e-07
3.06792e-07
1.80411e-07
1.05287e-07
6.09639e-08
3.50129e-08
1.98965e-08
1.11134e-08
6.03251e-09
2.96027e-09
8.83582e-10
0.333458
0.989666
1.61435
2.18846
2.69573
3.12347
3.46304
3.71009
3.86442
3.92963
3.91256
3.82258
3.67081
3.46934
3.23053
2.96635
2.68787
2.40493
2.12586
1.85741
1.6047
1.37136
1.15961
0.97051
0.804124
0.659748
0.536109
0.431545
0.344167
0.271985
0.213018
0.16536
0.127246
0.0970721
0.073422
0.0550649
0.0409521
0.0302037
0.022093
0.0160284
0.0115341
0.00823313
0.00582974
0.00409503
0.00285368
0.00197292
0.00135327
0.000920962
0.000621865
0.000416636
0.000276972
0.000182701
0.000119587
7.76727e-05
5.00616e-05
3.20184e-05
2.03217e-05
1.27993e-05
8.00003e-06
4.9622e-06
3.05449e-06
1.86592e-06
1.13119e-06
6.8058e-07
4.06331e-07
2.40743e-07
1.41556e-07
8.26122e-08
4.78221e-08
2.74646e-08
1.55917e-08
8.72386e-09
4.73183e-09
2.29951e-09
6.7284e-10
0.24642
0.731472
1.19359
1.61887
1.99543
2.31391
2.56788
2.75398
2.87188
2.92402
2.91521
2.85216
2.7429
2.59623
2.42118
2.22659
2.02066
1.81073
1.60305
1.40273
1.21368
1.03871
0.879574
0.737163
0.611609
0.502457
0.408814
0.329484
0.263084
0.208147
0.1632
0.126823
0.0976912
0.0745992
0.0564775
0.0423953
0.0315569
0.0232937
0.0170521
0.0123805
0.00891549
0.00636826
0.00451217
0.00317145
0.00221133
0.00152965
0.00104975
0.000714735
0.000482821
0.000323607
0.000215205
0.000142003
9.29746e-05
6.0403e-05
3.89393e-05
2.49093e-05
1.58118e-05
9.95995e-06
6.22577e-06
3.86183e-06
2.37717e-06
1.45211e-06
8.80279e-07
5.29553e-07
3.16135e-07
1.87285e-07
1.10103e-07
6.42183e-08
3.71511e-08
2.13421e-08
1.21298e-08
6.81181e-09
3.67592e-09
1.7946e-09
5.31247e-10
0.181088
0.537624
0.877541
1.19076
1.46861
1.70425
1.89291
2.03205
2.1213
2.16229
2.15842
2.11446
2.03618
1.92995
1.80236
1.65986
1.50851
1.35372
1.20017
1.05168
0.91122
0.780924
0.662177
0.555698
0.461645
0.379733
0.30934
0.249607
0.199533
0.158041
0.124047
0.0964968
0.0744048
0.0568715
0.0430958
0.0323788
0.0241215
0.0178197
0.0130549
0.00948541
0.00683546
0.00488577
0.00346395
0.00243615
0.00169959
0.00117628
0.000807636
0.000550141
0.000371789
0.000249285
0.000165836
0.000109461
7.16874e-05
4.65842e-05
3.00368e-05
1.92174e-05
1.22003e-05
7.68565e-06
4.80438e-06
2.98019e-06
1.83444e-06
1.12052e-06
6.79189e-07
4.08527e-07
2.43857e-07
1.44426e-07
8.48952e-08
4.94938e-08
2.86357e-08
1.64412e-08
9.3528e-09
5.22576e-09
2.79673e-09
1.36763e-09
4.21485e-10
0.132319
0.392891
0.641479
0.870799
1.07457
1.24781
1.38702
1.49028
1.55724
1.58901
1.58795
1.55745
1.50164
1.42511
1.33263
1.2289
1.11834
1.00493
0.892141
0.782803
0.679146
0.582792
0.494805
0.415761
0.345817
0.284798
0.232274
0.187635
0.150158
0.119061
0.0935477
0.0728439
0.0562211
0.0430127
0.0326231
0.0245314
0.0182905
0.0135227
0.00991439
0.00720875
0.00519841
0.00371808
0.00263771
0.00185614
0.00129566
0.000897181
0.000616302
0.000419995
0.000283951
0.000190459
0.000126745
8.3683e-05
5.48191e-05
3.56305e-05
2.29781e-05
1.47033e-05
9.33541e-06
5.8813e-06
3.67655e-06
2.28056e-06
1.40372e-06
8.57355e-07
5.19601e-07
3.12464e-07
1.8647e-07
1.10419e-07
6.48857e-08
3.78448e-08
2.19052e-08
1.25392e-08
7.12024e-09
3.96789e-09
2.13048e-09
1.03396e-09
3.07333e-10
0.0961221
0.285449
0.466174
0.633063
0.781588
0.90814
1.01017
1.08624
1.13606
1.16036
1.16078
1.13973
1.10014
1.04531
0.978661
0.903594
0.823324
0.740765
0.658449
0.578475
0.502499
0.431737
0.367001
0.308741
0.257101
0.211978
0.173077
0.139967
0.112129
0.088999
0.0699972
0.0545581
0.0421473
0.0322743
0.0244998
0.0184384
0.0137586
0.0101799
0.00746908
0.0054346
0.00392165
0.00280669
0.00199234
0.0014028
0.000979735
0.000678759
0.000466478
0.00031803
0.000215099
0.000144328
9.60765e-05
6.3452e-05
4.15761e-05
2.70284e-05
1.74334e-05
1.11567e-05
7.08413e-06
4.46318e-06
2.79007e-06
1.73062e-06
1.06514e-06
6.50489e-07
3.9418e-07
2.37001e-07
1.41409e-07
8.3735e-08
4.91809e-08
2.86785e-08
1.6585e-08
9.51086e-09
5.3882e-09
3.01516e-09
1.63216e-09
8.03456e-10
2.09645e-10
0.0694136
0.206158
0.33676
0.457474
0.565058
0.656912
0.731187
0.786832
0.823589
0.841949
0.843059
0.828604
0.800669
0.761595
0.713838
0.659841
0.601925
0.542204
0.482521
0.424415
0.369105
0.317496
0.2702
0.227564
0.189712
0.156587
0.127987
0.103611
0.0830883
0.0660137
0.0519692
0.0405442
0.0313494
0.0240267
0.0182543
0.0137492
0.0102675
0.00760259
0.00558207
0.00406437
0.0029348
0.00210172
0.00149279
0.00105165
0.000734872
0.000509366
0.000350221
0.000238869
0.00016162
0.000108482
7.2236e-05
4.77196e-05
3.12746e-05
2.03352e-05
1.31181e-05
8.39587e-06
5.33143e-06
3.35899e-06
2.09975e-06
1.30233e-06
8.01464e-07
4.89378e-07
2.96502e-07
1.78246e-07
1.06334e-07
6.29517e-08
3.697e-08
2.15418e-08
1.24404e-08
7.14878e-09
4.07545e-09
2.28963e-09
1.22604e-09
6.00397e-10
1.70131e-10
0.0498247
0.147995
0.241801
0.328579
0.406016
0.472255
0.525964
0.566373
0.593276
0.606998
0.608333
0.59846
0.578849
0.551159
0.517139
0.478533
0.437006
0.394081
0.351091
0.309154
0.269162
0.231782
0.197469
0.166488
0.138942
0.114801
0.0939288
0.0761149
0.0610979
0.0485883
0.0382863
0.0298961
0.0231363
0.0177469
0.0134942
0.0101718
0.00760177
0.00563284
0.0041387
0.00301544
0.00217878
0.00156124
0.00110955
0.000782086
0.000546781
0.000379173
0.000260819
0.000177964
0.000120455
8.08778e-05
5.38707e-05
3.55962e-05
2.3334e-05
1.51746e-05
9.79026e-06
6.26651e-06
3.97942e-06
2.50716e-06
1.56715e-06
9.71902e-07
5.98026e-07
3.65102e-07
2.21169e-07
1.3293e-07
7.92469e-08
4.68957e-08
2.75546e-08
1.60318e-08
9.2595e-09
5.30369e-09
3.01625e-09
1.69801e-09
9.13218e-10
4.28071e-10
1.43788e-10
0.0355455
0.105591
0.172553
0.234547
0.289933
0.337389
0.375964
0.4051
0.424636
0.434786
0.436096
0.429388
0.415694
0.396183
0.372091
0.344657
0.315069
0.284414
0.25365
0.223586
0.194866
0.167978
0.143257
0.120905
0.101002
0.0835357
0.0684143
0.055492
0.0445853
0.0354888
0.0279891
0.0218743
0.0169424
0.0130064
0.0098974
0.00746626
0.0055839
0.00414053
0.00304429
0.0022195
0.00160467
0.00115053
0.000818116
0.000576968
0.000403576
0.000279994
0.00019268
0.000131522
8.90519e-05
5.98113e-05
3.98497e-05
2.63377e-05
1.72682e-05
1.12316e-05
7.24706e-06
4.63898e-06
2.94594e-06
1.85598e-06
1.16005e-06
7.19339e-07
4.42541e-07
2.70125e-07
1.63592e-07
9.82949e-08
5.85798e-08
3.46353e-08
2.0341e-08
1.18477e-08
6.85462e-09
3.9163e-09
2.20072e-09
1.22823e-09
6.64059e-10
3.09528e-10
1.08664e-10
0.0252017
0.0748709
0.122373
0.166381
0.205742
0.23952
0.267039
0.287898
0.301974
0.309408
0.310573
0.306041
0.29653
0.28286
0.2659
0.246525
0.225576
0.203825
0.181956
0.160546
0.140061
0.120854
0.103169
0.0871552
0.0728779
0.0603316
0.0494563
0.0401513
0.0322885
0.0257232
0.0203044
0.0158816
0.0123108
0.00945821
0.00720281
0.00543754
0.00406953
0.00301966
0.00222164
0.00162074
0.00117248
0.000841138
0.000598438
0.000422258
0.000295501
0.000205105
0.000141202
9.64194e-05
6.53066e-05
4.3876e-05
2.92404e-05
1.93299e-05
1.26758e-05
8.24567e-06
5.32092e-06
3.40614e-06
2.16305e-06
1.36269e-06
8.51649e-07
5.28031e-07
3.24775e-07
1.98168e-07
1.19974e-07
7.2052e-08
4.29432e-08
2.53637e-08
1.48727e-08
8.67996e-09
5.03697e-09
2.89551e-09
1.63435e-09
8.97851e-10
4.8844e-10
2.46964e-10
6.91499e-11
0.0177563
0.0527558
0.0862406
0.117283
0.145075
0.168959
0.188458
0.203287
0.213351
0.218744
0.219721
0.216675
0.210105
0.200583
0.188716
0.175118
0.160379
0.145046
0.129602
0.114458
0.0999462
0.0863195
0.0737559
0.0623648
0.0521958
0.0432487
0.035484
0.0288328
0.0232062
0.018503
0.0146171
0.0114423
0.00887646
0.00682478
0.00520114
0.00392922
0.0029427
0.00218497
0.00160856
0.0011742
0.000849935
0.000610081
0.000434277
0.000306578
0.000214646
0.000149048
0.000102651
7.01204e-05
4.75092e-05
3.19281e-05
2.12831e-05
1.40725e-05
9.22969e-06
6.00466e-06
3.8751e-06
2.48069e-06
1.5753e-06
9.92364e-07
6.20129e-07
3.84423e-07
2.36395e-07
1.4421e-07
8.72727e-08
5.23805e-08
3.11877e-08
1.84092e-08
1.07874e-08
6.28386e-09
3.63421e-09
2.08877e-09
1.19421e-09
6.47594e-10
3.66604e-10
2.00864e-10
5.92713e-11
0.0124314
0.0369378
0.0603917
0.0821484
0.101644
0.118421
0.132144
0.14261
0.149753
0.15363
0.154415
0.152379
0.147867
0.141272
0.133019
0.123535
0.113232
0.102493
0.0916587
0.0810186
0.070808
0.0612074
0.0523443
0.0442984
0.0371071
0.0307725
0.0252689
0.0205494
0.0165527
0.0132085
0.0104427
0.00818072
0.006351
0.00488658
0.00372667
0.00281724
0.0021113
0.00156865
0.00115554
0.000844005
0.00061127
0.000439003
0.000312657
0.000220825
0.000154677
0.000107451
7.4031e-05
5.05878e-05
3.42858e-05
2.30476e-05
1.5367e-05
1.01627e-05
6.66637e-06
4.33747e-06
2.79934e-06
1.79207e-06
1.13798e-06
7.16804e-07
4.47849e-07
2.77556e-07
1.70653e-07
1.04072e-07
6.29517e-08
3.77679e-08
2.24573e-08
1.32537e-08
7.75137e-09
4.50352e-09
2.57721e-09
1.45434e-09
8.22116e-10
4.77464e-10
2.74404e-10
1.37202e-10
5.37833e-11
0.00864787
0.0256975
0.0420201
0.0571699
0.0707568
0.0824629
0.0920551
0.0993913
0.104422
0.107184
0.107797
0.106443
0.103361
0.0988213
0.0931166
0.0865428
0.0793868
0.071915
0.0643649
0.0569395
0.0498044
0.043087
0.0368781
0.0312351
0.0261857
0.021733
0.0178603
0.014536
0.0117179
0.00935759
0.00740363
0.00580419
0.00450922
0.00347189
0.00264957
0.0020043
0.00150302
0.0011174
0.000823612
0.000601909
0.000436169
0.000313411
0.00022332
0.000157801
0.00011058
7.68482e-05
5.2966e-05
3.62055e-05
2.45455e-05
1.65043e-05
1.10067e-05
7.28036e-06
4.77628e-06
3.10799e-06
2.00594e-06
1.28412e-06
8.15371e-07
5.13525e-07
3.20791e-07
1.98787e-07
1.22183e-07
7.4481e-08
4.50122e-08