/*--------------------------------*- C++ -*----------------------------------*\
  =========                 |
  \\      /  F ield         | OpenFOAM: The Open Source CFD Toolbox
   \\    /   O peration     | Website:  https://openfoam.org
    \\  /    A nd           | Version:  10
     \\/     M anipulation  |
\*---------------------------------------------------------------------------*/
FoamFile
{
    format      ascii;
    class       volScalarField;
    location    "55";
    object      gradTx;
}
// * * * * * * * * * * * * * * * * * * * * * * * * * * * * * * * * * * * * * //

dimensions      [0 -1 0 1 0 0 0];

internalField   nonuniform List<scalar> 
11250
(
14178.4
7748.25
4745.07
3090.5
2066.12
1387.47
923.804
605.022
387.806
242.495
147.611
87.3511
50.2081
28.0167
15.1736
7.97561
4.0689
2.01516
0.969118
0.452708
0.205491
0.0906716
0.0389078
0.0162433
0.00660047
0.00261173
0.00100675
0.000378224
0.000138544
4.95019e-05
1.72594e-05
5.87446e-06
1.9526e-06
6.34038e-07
2.01199e-07
6.24171e-08
1.89427e-08
5.60224e-09
1.62777e-09
4.43437e-10
1.10859e-10
3.51238e-11
1.09762e-12
-5.48809e-12
-5.48809e-12
1.09762e-12
0
-4.39047e-12
2.19524e-12
0
1.09762e-12
0
1.4269e-11
0
1.09762e-12
0
1.09762e-12
-2.19524e-12
0
2.19524e-12
0
1.09762e-12
0
-2.19524e-11
9.87856e-12
-1.09762e-12
-1.09762e-12
0
1.09762e-12
0
-5.48809e-12
0
-7.68332e-12
0
-9.87856e-12
3977.08
4355.4
3448.72
2524.87
1790.69
1242.28
843.311
559.147
361.379
227.288
138.943
82.484
47.5275
26.5725
14.4139
7.586
3.87425
1.92047
0.924283
0.432047
0.196224
0.0866264
0.0371885
0.0155318
0.00631361
0.00249905
0.000963611
0.000362118
0.000132679
4.74182e-05
1.65368e-05
5.62979e-06
1.87169e-06
6.07899e-07
1.92955e-07
5.98805e-08
1.81557e-08
5.38162e-09
1.55423e-09
4.4673e-10
1.14152e-10
3.95142e-11
-1.09762e-12
-1.09762e-12
0
0
-1.09762e-12
0
-2.19523e-12
0
-1.75619e-11
0
-1.4269e-11
8.78094e-12
-1.31714e-11
-6.5857e-12
-1.4269e-11
0
-4.39047e-12
0
0
-1.09762e-12
0
2.41476e-11
5.48809e-12
0
-1.09762e-12
1.09762e-12
-1.09762e-12
0
-8.78094e-12
0
8.78094e-12
2.19523e-12
0
1363.01
2280.26
2219.7
1831.53
1396.97
1014.66
709.811
480.335
314.926
200.142
123.3
73.6326
42.624
23.9188
13.0132
6.8656
3.51349
1.74464
0.840893
0.393565
0.178944
0.079074
0.0339754
0.0142007
0.00577654
0.0022879
0.000882706
0.000331891
0.000121665
4.3502e-05
1.51777e-05
5.16926e-06
1.71929e-06
5.58668e-07
1.77422e-07
5.50817e-08
1.67079e-08
4.96782e-09
1.428e-09
4.09411e-10
1.08664e-10
1.53666e-11
8.78094e-12
7.68332e-12
5.48809e-12
7.68332e-12
1.09762e-12
5.48809e-12
0
0
1.09762e-12
-1.09762e-12
4.39047e-12
8.78094e-12
0
-2.19523e-12
0
4.39047e-12
0
-2.19524e-12
0
0
0
-1.4269e-11
-1.09762e-11
2.19524e-12
3.29285e-12
2.19523e-12
0
0
3.29285e-12
8.78094e-12
0
-1.09762e-12
8.78094e-12
568.199
1213.08
1364.51
1241.68
1013.17
771.349
557.89
386.719
258.077
166.21
103.444
62.2683
36.2736
20.4591
11.1773
5.91734
3.03698
1.51173
0.730161
0.342359
0.155909
0.0689913
0.02968
0.0124191
0.0050569
0.00200471
0.000774091
0.000291278
0.000106854
3.82319e-05
1.33475e-05
4.5487e-06
1.51377e-06
4.9216e-07
1.56387e-07
4.85795e-08
1.47673e-08
4.38937e-09
1.2897e-09
3.84166e-10
1.17445e-10
1.31714e-11
3.29285e-12
0
0
0
0
1.09762e-12
0
0
1.53666e-11
0
1.09762e-12
-8.78094e-12
1.31714e-11
5.48809e-12
1.4269e-11
-4.39047e-12
5.48809e-12
6.58571e-12
0
-2.19523e-12
0
-1.09762e-12
-4.39047e-12
3.29285e-12
0
1.09762e-12
0
2.19524e-12
5.48809e-12
0
-1.09762e-12
-1.09762e-12
-5.48809e-12
274.173
666.043
824.491
808.06
697.668
554.319
414.072
294.166
200.053
130.746
82.3193
50.0115
29.3517
16.6563
9.14583
4.86238
2.50447
1.25047
0.605566
0.284589
0.129861
0.0575668
0.0248044
0.0103937
0.00423763
0.00168189
0.000650139
0.00024488
8.99165e-05
3.22e-05
1.12509e-05
3.83723e-06
1.27796e-06
4.15747e-07
1.32173e-07
4.10652e-08
1.2481e-08
3.69458e-09
1.09432e-09
3.227e-10
1.02078e-10
1.86595e-11
5.48809e-12
0
-2.19523e-12
-1.09762e-11
-4.39047e-12
-2.19523e-12
1.09762e-12
3.29285e-12
8.78094e-12
1.09762e-12
-5.48809e-12
-9.87856e-12
0
5.48809e-12
1.09762e-12
-8.78094e-12
-5.48809e-12
0
0
0
0
1.86595e-11
0
-1.09762e-12
-1.09762e-12
-3.29285e-12
0
-1.09762e-12
-9.87856e-12
-1.20738e-11
-7.68332e-12
-1.09762e-12
-1.09762e-12
144.505
375.092
494.1
511.331
461.867
380.615
292.738
212.862
147.477
97.8338
62.3458
38.2521
22.6331
12.9306
7.14033
3.81438
1.97272
0.988441
0.480137
0.226247
0.103482
0.0459692
0.0198443
0.00832938
0.00340118
0.0013518
0.000523218
0.000197311
7.25309e-05
2.60014e-05
9.09416e-06
3.10457e-06
1.03489e-06
3.3697e-07
1.07187e-07
3.33237e-08
1.01244e-08
3.00637e-09
8.75899e-10
2.3489e-10
5.26856e-11
1.31714e-11
-6.58571e-12
-1.09762e-12
1.09762e-12
1.09762e-12
0
1.09762e-12
-2.19524e-12
-2.19523e-12
-6.58571e-12
-1.09762e-12
0
-3.29285e-12
-1.09762e-12
0
-1.09762e-12
2.19524e-12
1.09762e-12
-6.58571e-12
1.09762e-12
2.19523e-12
1.09762e-12
0
-1.09762e-12
-4.39047e-12
0
0
0
-2.19524e-12
4.39047e-12
1.09762e-12
-4.39047e-12
0
0
79.6915
214.222
293.852
316.34
296.008
251.434
198.36
147.311
103.856
69.8979
45.0797
27.9359
16.668
9.59016
5.32764
2.8607
1.48607
0.747475
0.364312
0.172178
0.0789593
0.0351581
0.0152094
0.00639616
0.00261634
0.00104153
0.000403725
0.000152459
5.61159e-05
2.01414e-05
7.05273e-06
2.41031e-06
8.04304e-07
2.62164e-07
8.34738e-08
2.59872e-08
7.88967e-09
2.34232e-09
6.65156e-10
1.81107e-10
4.17095e-11
3.18309e-11
5.48809e-12
-8.78094e-12
-4.39047e-12
2.19524e-12
5.48809e-12
1.09762e-12
-1.09762e-12
-4.39047e-12
-9.87856e-12
0
0
-1.09762e-12
0
-9.87856e-12
-1.09762e-12
-7.68332e-12
4.39047e-12
-4.39047e-12
0
-2.19523e-12
1.09762e-12
-5.48809e-12
2.19523e-12
2.19524e-12
0
0
-1.20738e-11
1.09762e-12
1.31714e-11
2.19524e-12
0
-7.68332e-12
0
44.7755
122.763
172.995
191.656
184.319
160.484
129.379
97.8895
70.1191
47.8331
31.2049
19.527
11.7482
6.80782
3.80526
2.05415
1.07204
0.541416
0.264827
0.125558
0.0577433
0.0257768
0.0111768
0.00471013
0.00193037
0.000769817
0.000298891
0.000113044
4.16684e-05
1.49763e-05
5.25095e-06
1.79682e-06
6.00318e-07
1.95892e-07
6.24588e-08
1.94465e-08
5.90408e-09
1.74521e-09
4.78561e-10
1.16347e-10
3.62214e-11
9.87856e-12
2.19523e-11
0
-5.48809e-12
-9.87856e-12
0
-1.09762e-12
1.09762e-12
-3.29285e-12
5.48809e-12
0
0
4.39047e-12
1.09762e-12
4.39047e-12
2.305e-11
3.29285e-12
-3.29285e-12
0
0
0
-3.29285e-12
0
0
0
7.68332e-12
-1.09762e-12
0
1.09762e-12
-1.09762e-12
0
6.5857e-12
0
4.39047e-12
25.2268
70.0034
100.484
113.698
111.697
99.2248
81.4653
62.6443
45.5146
31.4349
20.7282
13.0921
7.9404
4.63364
2.60587
1.41425
0.741569
0.37608
0.184638
0.0878297
0.0405124
0.0181336
0.00788189
0.00332903
0.00136716
0.000546252
0.000212466
8.0491e-05
2.97161e-05
1.06964e-05
3.75571e-06
1.28692e-06
4.30522e-07
1.40665e-07
4.49035e-08
1.39902e-08
4.26973e-09
1.28092e-09
3.52335e-10
6.91499e-11
5.48809e-12
-2.63428e-11
-1.75619e-11
8.78094e-12
0
0
-3.29285e-12
0
0
-1.20738e-11
-2.19524e-12
0
-1.09762e-12
-3.29285e-12
0
8.78094e-12
1.4269e-11
1.4269e-11
-4.39047e-12
4.39047e-12
-1.09762e-12
2.19523e-12
8.78094e-12
0
-1.09762e-12
0
1.4269e-11
2.19523e-12
1.31714e-11
-1.09762e-12
2.19523e-12
5.48809e-12
6.58571e-12
8.78094e-12
2.19524e-12
14.114
39.4756
57.4084
65.9901
65.915
59.5162
49.6165
38.6902
28.4656
19.8806
13.2393
8.43514
5.1553
3.02878
1.71352
0.934882
0.492517
0.250825
0.123606
0.0589967
0.0272962
0.0122519
0.00533894
0.00226025
0.000930243
0.00037243
0.000145131
5.50793e-05
2.03687e-05
7.34356e-06
2.58243e-06
8.86185e-07
2.96863e-07
9.71183e-08
3.1056e-08
9.70513e-09
2.97674e-09
8.82484e-10
2.43671e-10
6.14666e-11
-1.09762e-12
-1.53666e-11
-3.29285e-12
0
5.48809e-12
8.78094e-12
-1.09762e-12
-4.39047e-12
1.09762e-12
4.39047e-12
-2.19524e-12
-1.09762e-12
0
0
0
-5.48809e-12
-1.97571e-11
-1.09762e-12
2.19523e-12
-1.09762e-12
-1.09762e-12
0
1.09762e-12
-1.09762e-12
-1.09762e-12
-1.09762e-12
-6.58571e-12
0
-1.09762e-12
0
1.09762e-12
0
-6.58571e-12
0
1.09762e-12
7.79285
21.9154
32.1758
37.4315
37.8822
34.6613
29.2681
23.0981
17.1823
12.1208
8.14461
5.23111
3.22018
1.90407
1.08342
0.594148
0.314457
0.160809
0.0795436
0.038095
0.0176801
0.00795822
0.00347694
0.00147551
0.000608631
0.00024418
9.53411e-05
3.62507e-05
1.34295e-05
4.84997e-06
1.70834e-06
5.87192e-07
1.97026e-07
6.45586e-08
2.06879e-08
6.48911e-09
1.99657e-09
5.87225e-10
1.85497e-10
7.4638e-11
3.51238e-11
4.39047e-12
1.97571e-11
8.78094e-12
6.5857e-12
0
3.29285e-12
-5.48809e-12
-1.09762e-12
1.20738e-11
2.19523e-12
0
2.19523e-12
4.39047e-12
2.19523e-12
1.09762e-12
-1.4269e-11
0
4.39047e-12
-1.09762e-12
3.29285e-12
1.4269e-11
-8.78094e-12
0
0
-9.87856e-12
-3.7319e-11
-1.09762e-12
0
0
-3.29285e-12
-5.48809e-12
0
-2.19523e-12
-3.29285e-12
4.22865
11.9393
17.6546
20.7298
21.1997
19.609
16.7367
13.345
10.0232
7.13379
4.83274
3.127
1.93785
1.15279
0.65953
0.363476
0.193234
0.0992186
0.0492596
0.023671
0.0110198
0.00497441
0.00217904
0.000926986
0.000383245
0.000154087
6.02858e-05
2.29661e-05
8.52376e-06
3.08375e-06
1.08808e-06
3.74618e-07
1.2594e-07
4.13483e-08
1.32526e-08
4.16326e-09
1.29299e-09
4.33559e-10
1.62447e-10
5.81737e-11
3.62214e-11
1.64643e-11
1.09762e-11
1.09762e-11
0
1.09762e-12
0
1.20738e-11
1.09762e-12
2.19523e-12
4.39047e-12
4.39047e-12
0
1.09762e-12
-1.09762e-12
-1.09762e-12
-3.29285e-12
0
-1.09762e-12
2.19524e-12
0
-1.09762e-12
5.48809e-12
0
-1.09762e-11
-5.48809e-12
-2.19524e-12
-1.09762e-12
0
1.09762e-12
0
0
4.39047e-12
0
1.09762e-12
2.24873
6.3681
9.46833
11.1991
11.5498
10.7793
9.28397
7.46823
5.6567
4.05796
2.76926
1.80397
1.12489
0.672965
0.387006
0.21429
0.114413
0.0589782
0.0293869
0.0141683
0.00661614
0.00299502
0.00131543
0.000560975
0.000232461
9.36667e-05
3.67227e-05
1.40173e-05
5.21228e-06
1.88915e-06
6.67752e-07
2.30298e-07
7.75346e-08
2.54922e-08
8.17396e-09
2.5816e-09
8.36385e-10
3.06235e-10
1.24031e-10
3.51238e-11
6.5857e-12
1.31714e-11
-2.41476e-11
-1.20738e-11
-1.09762e-12
0
-1.09762e-12
4.39047e-12
0
1.09762e-12
0
1.09762e-12
0
0
-1.09762e-12
0
1.09762e-12
-8.78094e-12
-7.68332e-12
-3.29285e-12
-1.09762e-12
-1.4269e-11
1.09762e-12
-1.20738e-11
-1.09762e-12
1.09762e-11
2.305e-11
-2.19523e-12
0
0
-1.09762e-12
-4.39047e-12
-8.78094e-12
1.09762e-12
6.58571e-12
1.16962
3.31989
4.95747
5.89805
6.12471
5.75884
4.99809
4.05126
3.09125
2.23318
1.53406
1.00549
0.630561
0.379222
0.21914
0.121883
0.0653427
0.0338109
0.0169058
0.0081772
0.00382995
0.00173861
0.000765604
0.000327301
0.000135944
5.4897e-05
2.15678e-05
8.24908e-06
3.0733e-06
1.11596e-06
3.95172e-07
1.36539e-07
4.60308e-08
1.51471e-08
4.86354e-09
1.53776e-09
4.99416e-10
1.64643e-10
5.81737e-11
2.19523e-11
3.29285e-12
-3.29285e-12
-2.19523e-11
-9.87856e-12
-5.48809e-12
-6.5857e-12
-1.09762e-12
-6.5857e-12
0
-1.09762e-12
0
-2.19523e-12
-1.09762e-12
1.09762e-12
0
0
4.39047e-12
0
1.09762e-12
0
-1.09762e-12
-1.09762e-12
-6.5857e-12
0
1.20738e-11
8.78094e-12
2.19523e-12
0
-1.09762e-12
-2.19523e-12
-6.5857e-12
4.39047e-12
0
0
0
0.594207
1.6897
2.5319
3.02661
3.1608
2.9906
2.61253
2.13158
1.637
1.18998
0.822302
0.541988
0.341674
0.206488
0.119864
0.066948
0.0360318
0.018712
0.00938773
0.00455503
0.00213969
0.000973984
0.000430005
0.000184278
7.6716e-05
3.10476e-05
1.22235e-05
4.68458e-06
1.74871e-06
6.36182e-07
2.25683e-07
7.81087e-08
2.63747e-08
8.69203e-09
2.80002e-09
8.70411e-10
2.40378e-10
7.57356e-11
2.19524e-12
-3.29285e-12
4.39047e-12
1.31714e-11
0
2.19523e-12
0
-5.48809e-12
4.39047e-12
0
-5.48809e-12
-1.09762e-12
0
-3.29285e-12
-8.78094e-12
0
-1.4269e-11
-1.09762e-12
0
7.68332e-12
8.78094e-12
6.58571e-12
1.09762e-12
-4.39047e-12
0
1.31714e-11
9.87856e-12
0
-1.09762e-12
2.19523e-12
-4.39047e-12
0
-7.68332e-12
3.29285e-12
8.78094e-12
9.87856e-12
-3.29285e-12
0.29458
0.838917
1.2606
1.51281
1.58738
1.50986
1.32637
1.08839
0.84061
0.614456
0.42687
0.282785
0.179127
0.108744
0.0633922
0.0355468
0.0192024
0.0100067
0.00503657
0.00245121
0.00115472
0.000527035
0.00023327
0.000100207
4.18123e-05
1.69587e-05
6.69065e-06
2.56931e-06
9.6097e-07
3.50264e-07
1.24484e-07
4.31495e-08
1.45939e-08
4.80976e-09
1.55752e-09
4.96123e-10
1.41593e-10
2.52452e-11
6.58571e-12
5.48809e-12
9.87856e-12
2.08547e-11
1.4269e-11
0
5.48809e-12
5.48809e-12
1.09762e-12
2.19524e-12
-1.09762e-12
0
1.09762e-12
-1.09762e-12
0
-2.19524e-12
0
-4.39047e-12
-4.39047e-12
0
8.78094e-12
-1.09762e-12
0
1.09762e-12
0
-2.19524e-12
5.48809e-12
-4.39047e-12
-1.09762e-12
-1.09762e-12
0
1.09762e-12
-4.39047e-12
-7.68332e-12
-2.19524e-12
2.19523e-12
5.48809e-12
0.142421
0.406086
0.611626
0.736395
0.775779
0.741222
0.654293
0.539576
0.418831
0.307665
0.214766
0.142933
0.0909383
0.0554372
0.0324449
0.018261
0.00989914
0.00517559
0.00261306
0.00127545
0.000602495
0.000275707
0.000122332
5.26747e-05
2.20283e-05
8.95373e-06
3.53981e-06
1.36207e-06
5.10406e-07
1.86391e-07
6.63411e-08
2.30159e-08
7.80406e-09
2.58489e-09
8.55044e-10
2.75502e-10
7.79308e-11
8.78094e-12
6.5857e-12
5.48809e-12
4.39047e-12
-2.08547e-11
7.68332e-12
5.48809e-12
-1.53666e-11
6.5857e-12
-5.48809e-12
0
7.68332e-12
0
-1.09762e-12
4.39047e-12
8.78094e-12
0
1.4269e-11
2.19523e-12
1.09762e-12
3.29285e-12
0
-2.19523e-12
-2.19523e-12
5.48809e-12
1.09762e-12
0
-9.87856e-12
-1.09762e-12
0
-3.29285e-12
4.39047e-12
-1.09762e-12
-3.29285e-12
5.48809e-12
-3.29285e-12
-9.87856e-12
-1.09762e-12
0.0671244
0.191587
0.289121
0.34906
0.368979
0.353911
0.313716
0.259845
0.202594
0.149481
0.104798
0.0700396
0.0447418
0.0273808
0.0160837
0.00908404
0.00494068
0.00259123
0.00131214
0.000642259
0.000304197
0.000139555
6.20701e-05
2.67881e-05
1.12273e-05
4.57316e-06
1.81166e-06
6.98461e-07
2.62236e-07
9.59438e-08
3.41941e-08
1.18729e-08
4.02935e-09
1.35007e-09
4.45633e-10
1.33909e-10
3.29285e-11
1.09762e-11
-1.53666e-11
2.19524e-12
3.29285e-12
1.53666e-11
1.4269e-11
0
-1.53666e-11
-2.19524e-12
0
-3.29285e-12
1.09762e-12
0
0
0
0
-1.09762e-12
-2.19524e-12
5.48809e-12
-1.09762e-12
-2.19524e-12
-9.87856e-12
0
0
-4.39047e-12
0
2.19524e-12
-4.39047e-12
1.09762e-12
8.78094e-12
4.39047e-12
0
0
9.87856e-12
1.20738e-11
5.48809e-12
-5.48809e-12
-4.39047e-12
0.0308343
0.088083
0.133145
0.161125
0.170818
0.164393
0.146257
0.12161
0.0951913
0.0705143
0.0496307
0.033297
0.0213496
0.0131122
0.00772866
0.00437945
0.00238936
0.00125687
0.000638251
0.000313247
0.000148745
6.8406e-05
3.04961e-05
1.31909e-05
5.54039e-06
2.2614e-06
8.97628e-07
3.4673e-07
1.30427e-07
4.77892e-08
1.70855e-08
5.96226e-09
2.0284e-09
6.89304e-10
2.10743e-10
7.24428e-11
2.74404e-11
9.87856e-12
5.48809e-12
2.08547e-11
7.68332e-12
3.07333e-11
-1.09762e-12
-5.48809e-12
1.4269e-11
1.09762e-12
1.31714e-11
0
6.58571e-12
1.09762e-12
0
0
0
0
1.09762e-12
-2.19523e-12
-1.09762e-12
-1.09762e-12
-1.09762e-12
2.19524e-12
-1.09762e-12
-8.78094e-12
-1.09762e-12
0
-8.78094e-12
-9.87856e-12
0
2.19523e-12
4.39047e-12
1.09762e-12
1.31714e-11
-4.39047e-12
3.29285e-12
-1.09762e-12
-1.09762e-12
0.013804
0.0394622
0.059735
0.0724349
0.0769869
0.0743087
0.0663246
0.0553368
0.0434687
0.0323155
0.0228261
0.0153678
0.00988745
0.00609274
0.00360274
0.00204778
0.00112054
0.000591097
0.000300975
0.000148096
7.04969e-05
3.2497e-05
1.45203e-05
6.29425e-06
2.64923e-06
1.08352e-06
4.30914e-07
1.66768e-07
6.28265e-08
2.30434e-08
8.23652e-09
2.88893e-09
9.97734e-10
3.43554e-10
1.08664e-10
3.84166e-11
1.31714e-11
-7.68332e-12
2.305e-11
1.64643e-11
1.09762e-12
2.19523e-12
-4.39047e-12
2.19523e-12
1.53666e-11
-8.78094e-12
1.09762e-12
1.09762e-12
-2.19523e-12
-8.78094e-12
0
-1.09762e-12
0
1.09762e-12
3.29285e-12
3.29285e-12
1.86595e-11
0
2.19523e-12
0
0
-6.5857e-12
-1.09762e-12
3.29285e-12
0
-1.09762e-12
-7.68332e-12
0
0
1.09762e-12
-4.39047e-12
-8.78094e-12
0
0
-5.48809e-12
0.00602292
0.017229
0.0261121
0.0317195
0.0337876
0.0326966
0.0292671
0.0244932
0.0193015
0.0143957
0.0102016
0.00689046
0.00444731
0.00274895
0.00163038
0.00092939
0.000509977
0.000269741
0.0001377
6.79235e-05
3.24096e-05
1.49739e-05
6.70521e-06
2.91268e-06
1.2284e-06
5.03394e-07
2.00576e-07
7.77662e-08
2.93415e-08
1.07698e-08
3.8241e-09
1.3358e-09
4.70878e-10
1.78912e-10
7.24428e-11
1.4269e-11
-2.19524e-12
-1.31714e-11
2.19524e-12
-2.19524e-12
2.19523e-11
6.58571e-12
1.97571e-11
0
-5.48809e-12
-1.09762e-12
-1.09762e-11
-4.39047e-12
-4.39047e-12
0
0
2.19524e-12
-1.09762e-12
2.19524e-12
-1.09762e-12
-1.09762e-12
9.87856e-12
0
0
-2.19524e-12
3.29285e-12
8.78094e-12
0
-1.86595e-11
8.78094e-12
1.09762e-11
0
1.09762e-12
-4.39047e-12
0
-1.20738e-11
0
0
-3.29285e-12
2.19524e-12
0.0025615
0.00733148
0.0111235
0.0135331
0.0144437
0.0140093
0.012572
0.0105503
0.00833795
0.00623712
0.00443317
0.00300323
0.00194408
0.00120514
0.000716773
0.000409709
0.000225412
0.000119531
6.11693e-05
3.02444e-05
1.44639e-05
6.69723e-06
3.00529e-06
1.30814e-06
5.52755e-07
2.26953e-07
9.05952e-08
3.51874e-08
1.32998e-08
4.87891e-09
1.73863e-09
6.0808e-10
2.25012e-10
9.65903e-11
5.48809e-11
2.08547e-11
2.41476e-11
1.97571e-11
9.87856e-12
-7.68332e-12
1.31714e-11
-1.20738e-11
0
-2.19523e-12
0
9.87856e-12
-1.09762e-12
0
0
7.68332e-12
0
1.09762e-12
0
1.09762e-12
-1.09762e-12
-2.19523e-12
-1.86595e-11
-7.68332e-12
-1.09762e-12
0
-1.09762e-12
1.09762e-11
1.09762e-12
-2.19524e-12
-1.09762e-12
-4.39047e-12
9.87856e-12
-1.09762e-12
2.19524e-12
-2.19524e-12
3.29285e-12
0
-2.19524e-12
3.29285e-12
-8.78094e-12
0.00106206
0.0030413
0.00461871
0.00562695
0.00601605
0.00584712
0.0052593
0.00442455
0.00350591
0.00262967
0.00187424
0.0012732
0.000826444
0.000513701
0.000306341
0.000175558
9.683e-05
5.14716e-05
2.64023e-05
1.30839e-05
6.2708e-06
2.90968e-06
1.30834e-06
5.70624e-07
2.41592e-07
9.93607e-08
3.97425e-08
1.54523e-08
5.86018e-09
2.16121e-09
7.79308e-10
2.63428e-10
1.00981e-10
3.40261e-11
3.07333e-11
3.29285e-11
3.62214e-11
3.18309e-11
1.20738e-11
7.68332e-12
-1.64643e-11
-9.87856e-12
-8.78094e-12
-2.19523e-12
4.39047e-12
0
2.19523e-12
0
-1.09762e-12
2.19523e-12
1.09762e-12
-2.19523e-12
7.68332e-12
-3.29285e-12
-2.19523e-12
5.48809e-12
-7.68332e-12
1.20738e-11
1.09762e-12
0
1.09762e-12
-2.19523e-12
-1.09762e-12
1.31714e-11
0
1.31714e-11
0
-2.19523e-12
0
1.09762e-12
4.39047e-12
-2.19523e-12
0
2.19523e-12
-1.09762e-12
0.000429406
0.00123019
0.00186982
0.0022808
0.00244233
0.00237815
0.00214353
0.0018074
0.00143559
0.00107948
0.000771335
0.000525328
0.000341871
0.000213041
0.000127363
7.31684e-05
4.0453e-05
2.15534e-05
1.10806e-05
5.50305e-06
2.64301e-06
1.22886e-06
5.5365e-07
2.41916e-07
1.02622e-07
4.22824e-08
1.69351e-08
6.59229e-09
2.52123e-09
9.37365e-10
3.39164e-10
1.1525e-10
1.75619e-11
2.19524e-12
1.20738e-11
2.41476e-11
2.52452e-11
2.52452e-11
1.20738e-11
2.19524e-11
-2.19523e-12
5.48809e-12
-6.58571e-12
3.29285e-12
2.19524e-12
-1.09762e-12
-1.09762e-12
-5.48809e-12
-2.19524e-12
2.19523e-12
-7.68332e-12
-7.68332e-12
-1.09762e-12
0
-1.31714e-11
6.5857e-12
1.09762e-12
1.09762e-11
0
-1.09762e-12
1.09762e-12
0
-1.09762e-12
4.39047e-12
3.29285e-12
4.39047e-12
-9.87856e-12
0
-1.09762e-12
1.09762e-12
1.09762e-12
1.09762e-12
0
1.09762e-12
1.31714e-11
0.000169345
0.000485342
0.000738261
0.000901525
0.000966742
0.000942923
0.00085152
0.000719488
0.000572745
0.000431665
0.000309177
0.000211077
0.000137696
8.60132e-05
5.15438e-05
2.96803e-05
1.64469e-05
8.78245e-06
4.52482e-06
2.25185e-06
1.08372e-06
5.04848e-07
2.27856e-07
9.97427e-08
4.23944e-08
1.75169e-08
7.03244e-09
2.75173e-09
1.03725e-09
3.84166e-10
1.39397e-10
6.0369e-11
7.68332e-12
-2.19524e-12
2.19523e-11
3.62214e-11
3.40261e-11
2.52452e-11
3.40261e-11
4.17095e-11
3.84166e-11
2.305e-11
-2.19524e-12
0
0
1.53666e-11
-1.09762e-12
1.09762e-12
0
-1.09762e-12
-1.09762e-12
-3.29285e-12
-7.68332e-12
1.09762e-12
1.09762e-12
-4.39047e-12
0
-3.29285e-12
-2.19523e-12
2.19524e-12
-1.09762e-12
2.19523e-12
0
6.58571e-12
-2.19523e-12
-1.31714e-11
2.19524e-12
1.09762e-12
0
-1.09762e-12
7.68332e-12
3.29285e-12
0
3.29285e-12
-4.39047e-12
6.51611e-05
0.000186819
0.000284372
0.000347611
0.000373241
0.000364607
0.000329841
0.000279235
0.000222741
0.000168238
0.000120768
8.26357e-05
5.40305e-05
3.38278e-05
2.03174e-05
1.17254e-05
6.51168e-06
3.4846e-06
1.79904e-06
8.97109e-07
4.32584e-07
2.01889e-07
9.12779e-08
4.00378e-08
1.70559e-08
7.03353e-09
2.85271e-09
1.14042e-09
4.30266e-10
1.69033e-10
7.90285e-11
3.95142e-11
3.07333e-11
2.52452e-11
3.84166e-11
1.53666e-11
7.68332e-12
-6.5857e-12
8.78094e-12
3.29285e-12
2.52452e-11
2.52452e-11
2.19523e-11
4.39047e-12
-1.09762e-12
2.19523e-12
1.09762e-12
9.87856e-12
1.09762e-12
-2.19523e-12
7.68332e-12
6.5857e-12
2.19523e-12
-2.19523e-12
1.4269e-11
-6.5857e-12
-1.09762e-12
-3.29285e-12
1.09762e-12
2.19523e-12
-1.09762e-12
-2.19523e-12
2.19523e-12
-1.20738e-11
-3.29285e-12
-1.09762e-12
0
1.09762e-12
1.09762e-12
0
-7.68332e-12
0
-4.39047e-12
-1.4269e-11
-1.09762e-12
2.44711e-05
7.01832e-05
0.0001069
0.000130794
0.000140605
0.000137549
0.000124636
0.000105703
8.44802e-05
6.39379e-05
4.59936e-05
3.15389e-05
2.06662e-05
1.2967e-05
7.80501e-06
4.51399e-06
2.51213e-06
1.34707e-06
6.96861e-07
3.4819e-07
1.68193e-07
7.86201e-08
3.56276e-08
1.56498e-08
6.64498e-09
2.73965e-09
1.1075e-09
4.48926e-10
1.96474e-10
8.67118e-11
4.06118e-11
2.63428e-11
2.74404e-11
3.84166e-11
1.64643e-11
-6.58571e-12
-1.97571e-11
-3.07333e-11
-3.40261e-11
-2.85381e-11
-1.97571e-11
-5.48809e-12
1.09762e-11
4.39047e-12
-4.39047e-12
-1.64643e-11
1.09762e-12
1.09762e-12
1.09762e-11
0
-1.09762e-12
3.29285e-12
-6.5857e-12
0
-2.19524e-12
0
0
-7.68332e-12
4.39047e-12
-3.29285e-12
0
-1.09762e-12
-5.48809e-12
-2.08547e-11
2.19523e-12
0
-2.19524e-12
-3.29285e-12
1.09762e-12
-1.09762e-12
1.09762e-12
-2.19524e-12
0
0
1.31714e-11
8.97253e-06
2.57413e-05
3.92313e-05
4.80416e-05
5.17027e-05
5.06463e-05
4.59617e-05
3.90455e-05
3.12627e-05
2.37062e-05
1.70871e-05
1.1741e-05
7.70941e-06
4.84739e-06
2.92375e-06
1.69444e-06
9.449e-07
5.07683e-07
2.6312e-07
1.31723e-07
6.37408e-08
2.98497e-08
1.35336e-08
5.92823e-09
2.49928e-09
1.02408e-09
3.92947e-10
1.383e-10
5.59785e-11
4.17095e-11
3.07333e-11
1.75619e-11
7.68332e-12
-2.19524e-12
-2.41476e-11
-3.29285e-12
-3.51238e-11
-1.53666e-11
-3.18309e-11
-1.53666e-11
-3.18309e-11
-3.07333e-11
-1.97571e-11
-4.39047e-12
0
1.09762e-12
6.5857e-12
-2.19524e-12
8.78094e-12
-2.19523e-12
-1.09762e-12
1.09762e-12
0
3.29285e-12
0
-1.09762e-12
0
0
-1.09762e-12
0
0
3.29285e-12
-1.09762e-12
7.68332e-12
0
-1.09762e-12
0
0
6.58571e-12
4.39047e-12
6.5857e-12
-1.97571e-11
2.19524e-12
1.09762e-11
0
3.21316e-06
9.22059e-06
1.40605e-05
1.7232e-05
1.85645e-05
1.8208e-05
1.65475e-05
1.40799e-05
1.12928e-05
8.57892e-06
6.19534e-06
4.26535e-06
2.8063e-06
1.76803e-06
1.06854e-06
6.20501e-07
3.467e-07
1.86632e-07
9.69054e-08
4.86168e-08
2.35768e-08
1.10585e-08
5.01172e-09
2.19743e-09
9.18706e-10
3.5014e-10
1.25128e-10
2.63428e-11
-1.09762e-12
6.5857e-12
3.29285e-12
1.09762e-12
-7.68332e-12
-2.52452e-11
-3.62214e-11
-3.40261e-11
-4.82952e-11
-1.53666e-11
-1.4269e-11
-1.53666e-11
-1.4269e-11
-2.08547e-11
-2.19523e-11
-3.29285e-12
0
0
1.75619e-11
0
-1.09762e-11
0
2.19523e-12
0
2.08547e-11
0
0
0
8.78094e-12
0
-1.09762e-12
-2.19523e-12
-1.09762e-12
1.09762e-12
4.39047e-12
1.86595e-11
1.09762e-12
0
-1.09762e-12
1.31714e-11
0
1.09762e-12
-7.68332e-12
0
0
0
-7.68332e-12
1.1242e-06
3.22677e-06
4.92304e-06
6.03805e-06
6.51127e-06
6.3938e-06
5.81866e-06
4.95846e-06
3.98353e-06
3.03152e-06
2.19327e-06
1.51287e-06
9.9728e-07
6.29517e-07
3.81212e-07
2.21775e-07
1.24147e-07
6.69327e-08
3.48494e-08
1.75114e-08
8.51093e-09
3.98764e-09
1.81326e-09
7.94675e-10
3.36969e-10
1.27324e-10
3.18309e-11
-5.48809e-12
-1.64643e-11
-3.62214e-11
-3.40261e-11
-2.96357e-11
-1.97571e-11
-2.41476e-11
-2.96357e-11
-2.96357e-11
-3.18309e-11
-1.86595e-11
-4.39047e-12
-1.09762e-11
-9.87856e-12
-2.19524e-12
-3.29285e-12
-2.19523e-12
0
-1.09762e-12
2.19523e-12
0
-7.68332e-12
2.19523e-12
-2.19524e-12
-1.31714e-11
-1.09762e-12
-2.19524e-12
1.09762e-12
3.29285e-12
7.68332e-12
-1.20738e-11
-1.09762e-12
2.19524e-12
-1.09762e-12
-5.48809e-12
-3.29285e-12
0
0
2.19524e-12
1.09762e-12
0
-8.78094e-12
4.39047e-12
1.09762e-12
2.41476e-11
2.19524e-12
4.39047e-12
0
3.84425e-07
1.10376e-06
1.68477e-06
2.06784e-06
2.23196e-06
2.19413e-06
1.99939e-06
1.70629e-06
1.37297e-06
1.04664e-06
7.58597e-07
5.24218e-07
3.46207e-07
2.18951e-07
1.32851e-07
7.74161e-08
4.33866e-08
2.3421e-08
1.22253e-08
6.13897e-09
2.9954e-09
1.41812e-09
6.39911e-10
2.65623e-10
1.1964e-10
5.26856e-11
2.305e-11
3.29285e-12
-1.09762e-11
-2.41476e-11
-1.86595e-11
-3.40261e-11
-1.64643e-11
-2.08547e-11
-4.17095e-11
-1.31714e-11
3.29285e-12
-1.20738e-11
-1.09762e-12
-3.29285e-12
-2.63428e-11
-2.19524e-12
2.19524e-12
-2.19523e-12
0
0
-1.86595e-11
0
-1.09762e-12
-1.09762e-12
-4.39047e-12
-5.48809e-12
-1.4269e-11
2.19524e-12
2.19524e-12
0
-8.78094e-12
-1.64643e-11
-8.78094e-12
-1.20738e-11
-3.29285e-12
-1.09762e-12
1.09762e-12
-2.19524e-12
-1.09762e-12
-1.09762e-11
1.09762e-12
-6.5857e-12
-1.09762e-12
-1.09762e-12
-2.19523e-12
0
-9.87856e-12
0
5.48809e-12
1.285e-07
3.69001e-07
5.63442e-07
6.92109e-07
7.47769e-07
7.3586e-07
6.71399e-07
5.73826e-07
4.62434e-07
3.53097e-07
2.56343e-07
1.77446e-07
1.17401e-07
7.43855e-08
4.52251e-08
2.63922e-08
1.48189e-08
8.02907e-09
4.17534e-09
2.1195e-09
1.04932e-09
5.1588e-10
2.50257e-10
1.20738e-10
5.48809e-11
2.41476e-11
3.95142e-11
2.85381e-11
2.63428e-11
8.78094e-12
-1.53666e-11
-3.40261e-11
-3.95142e-11
-9.87856e-12
-2.08547e-11
-2.19523e-11
0
-2.19523e-11
-2.41476e-11
-1.64643e-11
-2.19523e-12
7.68332e-12
1.97571e-11
7.68332e-12
-2.19523e-12
0
-9.87856e-12
-1.09762e-12
1.09762e-12
-4.39047e-12
1.09762e-12
1.31714e-11
1.09762e-12
0
-3.29285e-12
6.5857e-12
-7.68332e-12
7.68332e-12
-8.78094e-12
-2.19523e-12
-1.31714e-11
5.48809e-12
4.39047e-12
-7.68332e-12
1.09762e-12
-1.09762e-12
-1.09762e-12
1.09762e-12
2.19523e-12
-8.78094e-12
-1.31714e-11
-4.39047e-12
-6.5857e-12
-7.68332e-12
-1.09762e-12
4.19729e-08
1.2058e-07
1.84149e-07
2.26397e-07
2.44854e-07
2.41199e-07
2.2034e-07
1.88593e-07
1.52213e-07
1.16409e-07
8.46362e-08
5.86885e-08
3.89105e-08
2.47172e-08
1.50516e-08
8.8007e-09
4.95355e-09
2.68148e-09
1.38849e-09
7.2333e-10
3.57823e-10
1.72326e-10
1.00981e-10
6.47594e-11
4.17095e-11
3.7319e-11
2.08547e-11
1.64643e-11
2.85381e-11
7.68332e-12
8.78094e-12
-9.87856e-12
-2.305e-11
-3.29285e-12
-6.5857e-12
-2.74404e-11
-1.97571e-11
-3.07333e-11
-2.96357e-11
-1.75619e-11
1.09762e-12
-3.29285e-12
4.39047e-12
-4.39047e-12
5.48809e-12
-8.78094e-12
0
-1.31714e-11
-1.09762e-12
1.09762e-12
0
1.09762e-12
-1.09762e-12
-1.31714e-11
-1.09762e-12
4.39047e-12
0
4.39047e-12
1.86595e-11
1.31714e-11
4.39047e-12
2.19523e-12
0
2.19524e-12
0
1.09762e-11
-2.19524e-12
0
0
5.48809e-12
8.78094e-12
0
9.87856e-12
2.19523e-12
-6.58571e-12
1.34744e-08
3.86449e-08
5.91309e-08
7.2693e-08
7.86838e-08
7.76016e-08
7.10027e-08
6.08475e-08
4.91809e-08
3.76702e-08
2.74437e-08
1.90744e-08
1.26643e-08
8.06968e-09
4.92281e-09
2.88454e-09
1.62338e-09
8.71508e-10
4.63195e-10
2.09645e-10
1.10859e-10
7.13451e-11
2.63428e-11
1.64643e-11
1.75619e-11
4.93928e-11
3.07333e-11
2.96357e-11
3.07333e-11
2.305e-11
2.96357e-11
3.29285e-11
2.96357e-11
-1.09762e-12
1.64643e-11
-2.19524e-12
1.20738e-11
9.87856e-12
1.97571e-11
0
1.64643e-11
2.19524e-12
-4.39047e-12
-1.75619e-11
1.09762e-12
2.19524e-12
0
0
-2.19524e-12
-4.39047e-12
1.09762e-12
3.29285e-12
0
-2.19524e-12
2.19524e-12
-2.305e-11
-1.09762e-12
0
7.68332e-12
1.09762e-12
1.4269e-11
-2.19523e-12
-1.09762e-12
-1.09762e-12
-4.39047e-12
1.09762e-12
-1.09762e-12
1.20738e-11
0
0
2.08547e-11
9.87856e-12
6.58571e-12
4.39047e-12
0
4.19729e-09
1.20299e-08
1.84663e-08
2.26921e-08
2.4591e-08
2.431e-08
2.22663e-08
1.91007e-08
1.54687e-08
1.18532e-08
8.64044e-09
6.02702e-09
3.99203e-09
2.5355e-09
1.55313e-09
9.29682e-10
5.37833e-10
3.20504e-10
1.71228e-10
7.79308e-11
5.04904e-11
3.40261e-11
1.53666e-11
1.53666e-11
2.52452e-11
3.62214e-11
4.28071e-11
6.47594e-11
4.60999e-11
5.1588e-11
3.51238e-11
4.93928e-11
3.51238e-11
1.31714e-11
4.06118e-11
1.64643e-11
1.53666e-11
3.51238e-11
1.20738e-11
-6.5857e-12
2.85381e-11
2.19523e-12
1.20738e-11
1.4269e-11
0
8.78094e-12
9.87856e-12
2.305e-11
2.19523e-12
-6.5857e-12
4.39047e-12
6.5857e-12
1.53666e-11
2.08547e-11
1.09762e-12
5.48809e-12
4.39047e-12
1.4269e-11
-1.09762e-11
0
0
-2.19523e-12
-1.09762e-12
0
-3.29285e-12
0
4.39047e-12
-4.39047e-12
-2.19523e-12
-1.31714e-11
-5.48809e-12
6.5857e-12
-1.09762e-12
-5.48809e-12
2.19523e-12
1.22055e-09
3.57384e-09
5.43979e-09
6.70644e-09
7.3255e-09
7.30135e-09
6.724e-09
5.78664e-09
4.69341e-09
3.5947e-09
2.62989e-09
1.844e-09
1.23372e-09
7.81504e-10
4.8844e-10
2.96357e-10
1.81107e-10
1.18543e-10
4.39047e-11
3.40261e-11
2.08547e-11
-7.68332e-12
7.68332e-12
2.63428e-11
3.95142e-11
2.74404e-11
4.39047e-11
4.28071e-11
3.07333e-11
3.7319e-11
2.41476e-11
2.41476e-11
2.08547e-11
2.63428e-11
0
-2.19524e-12
-7.68332e-12
1.64643e-11
-7.68332e-12
6.58571e-12
-2.19523e-12
0
3.29285e-12
2.305e-11
1.09762e-12
-1.09762e-12
2.19523e-12
-1.09762e-12
1.09762e-12
8.78094e-12
1.09762e-12
4.39047e-12
1.4269e-11
1.09762e-12
-2.19524e-12
1.4269e-11
1.31714e-11
2.19524e-12
2.19523e-12
0
0
-2.19523e-12
2.19524e-12
8.78094e-12
3.29285e-12
-1.09762e-12
0
-1.20738e-11
1.09762e-12
0
-1.64643e-11
-9.87856e-12
1.09762e-12
-7.68332e-12
0
3.7319e-10
1.16787e-09
1.77814e-09
2.2106e-09
2.43891e-09
2.43232e-09
2.2589e-09
1.92303e-09
1.58057e-09
1.20409e-09
8.98949e-10
6.17959e-10
4.17095e-10
2.766e-10
1.844e-10
1.11957e-10
7.57356e-11
2.63428e-11
3.29285e-12
-2.74404e-11
-1.31714e-11
-1.20738e-11
-5.48809e-12
7.68332e-12
7.68332e-12
2.52452e-11
2.41476e-11
2.19524e-12
1.09762e-11
3.18309e-11
2.96357e-11
7.68332e-12
-1.09762e-11
-4.39047e-12
-1.97571e-11
0
-4.39047e-12
8.78094e-12
1.75619e-11
3.62214e-11
3.29285e-12
6.58571e-12
-1.64643e-11
-1.09762e-11
1.09762e-12
0
-1.09762e-11
-7.68332e-12
0
5.48809e-12
0
-2.19524e-12
-1.4269e-11
-8.78094e-12
0
-2.08547e-11
-4.39047e-12
-4.39047e-12
1.09762e-12
0
0
-2.19523e-12
4.39047e-12
0
5.48809e-12
0
-1.09762e-12
0
6.58571e-12
1.53666e-11
5.48809e-12
-5.48809e-12
-8.78094e-12
1.09762e-12
-4.39047e-12
1.27324e-10
3.90752e-10
5.35637e-10
6.71742e-10
7.26623e-10
7.13451e-10
6.27837e-10
5.40028e-10
4.35754e-10
3.05138e-10
2.32695e-10
1.49276e-10
9.98832e-11
7.57356e-11
4.60999e-11
3.40261e-11
1.20738e-11
-7.68332e-12
2.19523e-12
-2.74404e-11
-4.06118e-11
-1.75619e-11
-2.19523e-12
-1.86595e-11
-1.09762e-11
8.78094e-12
-4.39047e-12
-8.78094e-12
1.09762e-12
2.08547e-11