/*--------------------------------*- C++ -*----------------------------------*\
  =========                 |
  \\      /  F ield         | OpenFOAM: The Open Source CFD Toolbox
   \\    /   O peration     | Website:  https://openfoam.org
    \\  /    A nd           | Version:  10
     \\/     M anipulation  |
\*---------------------------------------------------------------------------*/
FoamFile
{
    format      ascii;
    class       volScalarField;
    location    "337";
    object      gradTx;
}
// * * * * * * * * * * * * * * * * * * * * * * * * * * * * * * * * * * * * * //

dimensions      [0 -1 0 1 0 0 0];

internalField   nonuniform List<scalar> 
11250
(
14300.3
8105.38
5312.56
3830.72
2933.51
2333.8
1903.15
1577.45
1321.65
1115.13
944.975
802.7
682.468
580.114
492.556
417.445
352.93
297.52
249.982
209.277
174.513
144.918
119.817
98.6131
80.7798
65.8512
53.4153
43.1084
34.6108
27.6427
21.9601
17.3519
13.6361
10.6573
8.28306
6.40188
4.92017
3.76006
2.85719
2.15874
1.6217
1.21126
0.899492
0.664111
0.487485
0.355757
0.258116
0.186182
0.133512
0.0951836
0.0674616
0.0475339
0.0332966
0.023187
0.0160522
0.0110477
0.00755878
0.00514133
0.00347649
0.00233694
0.00156169
0.00103748
0.000685177
0.000449841
0.000293593
0.00019048
0.000122841
7.8734e-05
5.01328e-05
3.16769e-05
1.98028e-05
1.21485e-05
7.14371e-06
3.72838e-06
1.15508e-06
4096.17
4704.21
4003.09
3248.21
2638.63
2167.86
1801.73
1511.43
1276.55
1083.16
921.649
785.292
669.244
569.928
484.625
411.217
348.01
293.614
246.872
206.795
172.53
143.335
118.553
97.605
79.9775
65.214
52.9106
42.7098
34.2972
27.3967
21.768
17.2024
13.5203
10.568
8.21449
6.34948
4.88033
3.72991
2.83449
2.14174
1.60903
1.20187
0.892565
0.65903
0.483779
0.353068
0.256176
0.18479
0.132519
0.0944788
0.0669643
0.0471849
0.0330531
0.023018
0.0159357
0.0109678
0.00750428
0.00510438
0.00345158
0.00232025
0.00155056
0.00103011
0.000680321
0.000446661
0.000291522
0.00018914
0.000121979
7.81825e-05
4.97824e-05
3.14559e-05
1.9665e-05
1.20641e-05
7.09422e-06
3.70258e-06
1.14713e-06
1476.62
2613.11
2748.92
2522.46
2207.56
1900.35
1627.99
1393.84
1194.13
1023.68
877.692
752.178
643.912
550.309
469.283
399.13
338.433
285.995
240.793
201.937
168.645
140.228
116.07
95.6237
78.3992
63.9599
51.9167
41.9246
33.6789
26.9117
21.389
16.9074
13.2918
10.3916
8.07908
6.24599
4.80161
3.67034
2.78962
2.10812
1.58397
1.18329
0.878867
0.648982
0.476448
0.347749
0.252337
0.182036
0.130553
0.0930838
0.0659798
0.0464941
0.0325711
0.0226836
0.015705
0.0108095
0.00739636
0.00503119
0.00340224
0.00228717
0.00152852
0.0010155
0.000670698
0.000440358
0.000287418
0.000186483
0.000120269
7.70891e-05
4.90876e-05
3.10178e-05
1.93916e-05
1.18967e-05
6.99592e-06
3.65134e-06
1.13127e-06
674.156
1523.6
1858.52
1887.22
1771.39
1601.03
1419.5
1245.64
1086.54
944.042
817.727
706.361
608.477
522.632
447.495
381.871
324.698
275.029
232.018
194.906
163.011
135.713
112.457
92.7365
76.0969
62.1285
50.4641
40.7761
32.774
26.2014
20.8336
16.475
12.9565
10.1329
7.88033
6.09404
4.686
3.58281
2.7237
2.05872
1.54714
1.15598
0.858721
0.634202
0.465663
0.339923
0.246689
0.177981
0.12766
0.09103
0.0645304
0.0454769
0.0318612
0.0221911
0.0153652
0.0105764
0.00723736
0.00492336
0.00332953
0.00223843
0.00149603
0.000993974
0.000656514
0.000431068
0.000281368
0.000182566
0.000117749
7.54769e-05
4.80631e-05
3.03717e-05
1.89885e-05
1.16498e-05
6.85094e-06
3.57576e-06
1.10785e-06
370.859
949.497
1275.81
1398.51
1392.29
1315.87
1206.74
1086.4
966.384
852.447
747.187
651.516
565.477
488.68
420.531
360.361
307.481
261.216
220.92
185.985
155.84
129.955
107.838
89.0393
73.144
59.7763
48.5961
39.2977
31.608
25.2853
20.1168
15.9166
12.5233
9.7984
7.62324
5.89739
4.53632
3.46945
2.63828
1.99469
1.4994
1.12057
0.832591
0.615027
0.451669
0.329765
0.239356
0.172718
0.123902
0.0883628
0.0626477
0.0441554
0.030939
0.0215511
0.0149236
0.0102734
0.00703069
0.00478319
0.00323501
0.00217506
0.00145379
0.000965979
0.000638069
0.000418985
0.000273499
0.000177472
0.00011447
7.33795e-05
4.67302e-05
2.9531e-05
1.84638e-05
1.13285e-05
6.66225e-06
3.4774e-06
1.07741e-06
230.932
628.598
898.13
1040.7
1085.83
1066.34
1008.47
930.483
844.056
756.295
671.319
591.379
517.592
450.394
389.815
335.652
287.566
245.145
207.946
175.513
147.393
123.151
102.367
84.6496
69.6312
56.9734
46.3669
37.5309
30.213
24.1883
19.2576
15.2466
12.0032
9.39649
7.31415
5.66084
4.35618
3.33296
2.53539
1.91753
1.44184
1.07786
0.80107
0.591889
0.434777
0.317501
0.230502
0.16636
0.119363
0.08514
0.0603723
0.0425581
0.029824
0.0207772
0.0143895
0.009907
0.00678069
0.00461362
0.00312065
0.00209837
0.00140267
0.000932096
0.000615741
0.000404358
0.000263972
0.000171303
0.0001105
7.08395e-05
4.51159e-05
2.85128e-05
1.78284e-05
1.09393e-05
6.43366e-06
3.35821e-06
1.04051e-06
155.488
436.676
648.806
782.212
846.388
857.986
833.54
786.524
726.846
661.345
594.536
529.285
467.332
409.664
356.772
308.823
265.773
227.445
193.577
163.859
137.956
115.522
96.2149
79.7005
65.6615
53.7997
43.8383
35.5237
28.626
22.9386
18.2778
14.4817
11.4089
8.9369
6.96044
5.38995
4.14976
3.17647
2.41736
1.82898
1.37575
1.0288
0.764851
0.565294
0.415356
0.303397
0.220315
0.159044
0.114138
0.0814295
0.0577522
0.0407184
0.0285396
0.0198856
0.0137741
0.00948464
0.0064925
0.00441811
0.00298878
0.00200994
0.0013437
0.00089301
0.000589982
0.00038748
0.000252979
0.000164184
0.000105917
6.79076e-05
4.32523e-05
2.73373e-05
1.70947e-05
1.04898e-05
6.16971e-06
3.22057e-06
9.97869e-07
110.104
314.622
479.537
594.785
661.813
688.385
684.247
658.611
619.096
571.533
520.158
467.928
416.837
368.172
322.716
280.898
242.902
208.736
178.297
151.403
127.824
107.3
89.5613
74.3324
61.3447
50.3405
41.0766
33.3276
26.8868
21.5672
17.2011
13.6404
10.7545
8.43032
6.57022
5.09087
3.9217
3.00345
2.2868
1.73097
1.30257
0.974449
0.724707
0.535805
0.393812
0.287745
0.209008
0.150921
0.108335
0.0773072
0.0548405
0.0386735
0.0271116
0.0188941
0.0130896
0.00901481
0.00617187
0.00420055
0.002842
0.0019115
0.00127806
0.000849489
0.000561297
0.000368683
0.000240733
0.000156253
0.000100811
6.46405e-05
4.11753e-05
2.6027e-05
1.62767e-05
9.98871e-06
5.87542e-06
3.0671e-06
9.50345e-07
80.6671
232.944
361.208
457.322
519.877
552.075
559.387
547.809
522.868
489.191
450.417
409.286
367.784
327.302
288.772
252.785
219.676
189.597
162.566
138.508
117.284
98.712
82.5859
68.6867
56.7919
46.683
38.1502
30.9959
25.037
20.1061
16.0525
12.7416
10.0546
7.88797
6.15206
4.77009
3.67689
2.8176
2.14644
1.62554
1.2238
0.915924
0.681457
0.504019
0.370582
0.270862
0.196806
0.142152
0.102069
0.0728546
0.0516946
0.0364635
0.0255679
0.017822
0.0123493
0.00850657
0.00582494
0.0039651
0.00268314
0.00180492
0.00120698
0.000802358
0.000530227
0.00034832
0.000227466
0.00014766
9.52778e-05
6.10994e-05
3.89239e-05
2.46064e-05
1.53899e-05
9.44532e-06
5.55623e-06
2.90068e-06
8.9882e-07
60.5334
176.014
276.234
355.075
410.37
443.103
456.199
453.436
438.672
415.414
386.622
354.668
321.38
288.115
255.845
225.238
196.72
170.536
146.796
125.507
106.604
89.9716
75.4596
62.899
52.1104
42.9121
35.1259
28.581
23.1175
18.5875
14.8567
11.8046
9.32402
7.32119
5.71459
4.43418
3.42031
2.62265
1.99911
1.5148
1.14101
0.854371
0.635945
0.470555
0.346113
0.25307
0.183942
0.132904
0.0954575
0.0681553
0.0483734
0.0341296
0.0239372
0.0166892
0.0115669
0.00796929
0.00545811
0.0037161
0.00251509
0.00169217
0.00113176
0.000752475
0.000497337
0.000326761
0.000213416
0.000138558
8.94164e-05
5.73478e-05
3.65383e-05
2.3101e-05
1.44499e-05
8.86931e-06
5.21782e-06
2.7242e-06
8.44175e-07
46.2178
135.035
213.774
277.933
325.378
356.075
371.494
373.951
366.073
350.44
329.37
304.828
278.409
251.357
224.61
198.847
174.537
151.978
131.34
112.691
96.0224
81.2716
68.3378
57.0945
47.4005
39.1076
32.0668
26.1329
21.1676
17.042
13.6378
10.848
8.57712
6.74102
5.26628
4.08959
3.15685
2.42229
1.84757
1.4008
1.05574
0.790927
0.589007
0.436022
0.320849
0.234692
0.170649
0.123343
0.0886199
0.0632934
0.044936
0.0317133
0.0222485
0.0155157
0.0107562
0.00741239
0.00507779
0.00345787
0.00234078
0.00157519
0.00105371
0.000700701
0.000463194
0.000304376
0.000198826
0.000129104
8.33275e-05
5.34499e-05
3.40593e-05
2.15364e-05
1.34728e-05
8.27047e-06
4.86599e-06
2.54066e-06
7.87312e-07
35.7378
104.781
166.958
218.967
258.96
286.487
302.206
307.504
304.137
293.963
278.754
260.088
239.307
217.501
195.53
174.043
153.511
134.257
116.484
100.3
85.7386
72.778
61.3565
51.3837
42.7515
35.3413
29.0305
23.6972
19.2235
15.4981
12.4179
9.88916
7.82741
6.15789
4.81514
3.74243
2.89115
2.22005
1.69447
1.28554
0.969446
0.726685
0.541448
0.401012
0.295223
0.21604
0.15715
0.11363
0.0816708
0.0583501
0.0414398
0.0292548
0.0205296
0.0143209
0.00993047
0.00684506
0.00469025
0.00319468
0.00216307
0.0014559
0.000974103
0.000647881
0.000428354
0.00028153
0.000183933
0.000119452
7.71095e-05
4.94687e-05
3.15269e-05
1.99378e-05
1.24743e-05
7.65847e-06
4.50636e-06
2.35306e-06
7.29215e-07
27.8924
81.9937
131.298
173.375
206.707
230.716
245.624
252.235
251.71
245.368
234.538
220.462
204.237
186.793
168.885
151.109
133.913
117.62
102.447
88.5243
75.915
64.6271
54.6292
45.8604
38.2401
31.6756
26.0673
21.3143
17.3173
13.9812
11.2173
8.94388
7.08715
5.58132
4.3685
3.39833
2.6275
2.01917
1.54226
1.17086
0.883517
0.662666
0.494022
0.366077
0.269636
0.197407
0.143658
0.103917
0.0747184
0.0534024
0.037939
0.0267921
0.0188073
0.0131233
0.00910253
0.00627602
0.00430142
0.00293053
0.00198468
0.00133611
0.000894145
0.000594819
0.000393346
0.000258569
0.000168961
0.000109748
7.08565e-05
4.54642e-05
2.89792e-05
1.83293e-05
1.14695e-05
7.04244e-06
4.14433e-06
2.16423e-06
6.7075e-07
21.9169
64.559
103.781
137.781
165.348
185.904
199.446
206.425
207.597
203.889
196.288
185.754
173.168
159.303
144.806
130.206
115.912
102.232
89.3817
77.5028
66.674
56.9247
48.2459
40.6001
33.9292
28.1621
23.2194
19.0185
15.4766
12.5135
10.0533
8.02587
6.36711
5.01969
3.93285
3.06229
2.36974
1.82256
1.39315
1.0584
0.799192
0.599792
0.447411
0.33172
0.244456
0.179059
0.130366
0.0943422
0.0678619
0.0485206
0.0344835
0.0243603
0.0171058
0.0119398
0.00828405
0.0057133
0.00391679
0.00266917
0.00180811
0.00121752
0.000814963
0.000542259
0.000358661
0.000235814
0.000154121
0.000100126
6.46557e-05
4.14925e-05
2.64518e-05
1.67333e-05
1.04724e-05
6.43105e-06
3.78499e-06
1.97675e-06
6.12653e-07
17.3044
51.054
82.3253
109.773
132.441
149.809
161.768
168.554
170.655
168.718
163.467
155.639
145.93
134.971
123.307
111.392
99.5923
88.1882
77.3864
67.3284
58.1012
49.7473
42.2736
35.6603
29.8675
24.8417
20.5206
16.8374
13.7238
11.1129
8.94048
7.14664
5.67638
4.48011
3.51373
2.73859
2.12116
1.63275
1.24904
0.949625
0.71755
0.538871
0.402212
0.29838
0.220006
0.161232
0.117443
0.0850291
0.0611891
0.0437674
0.0311173
0.0219903
0.0154469
0.0107854
0.00748549
0.00516408
0.00354127
0.00241391
0.00163561
0.00110164
0.000737566
0.00049087
0.00032474
0.000213555
0.0001396
9.07102e-05
5.8586e-05
3.76038e-05
2.39768e-05
1.517e-05
9.49548e-06
5.83196e-06
3.4328e-06
1.79297e-06
5.55711e-07
13.7069
40.4924
65.4579
87.5923
106.147
120.676
131.029
137.313
139.839
139.059
135.5
129.722
122.269
113.65
104.315
94.6487
84.9685
75.5251
66.5082
58.0532
50.2488
43.1443
36.7575
31.0813
26.09
21.7443
17.9961
14.792
12.0763
9.79365
7.89024
6.31538
5.02226
3.96835
3.11567
2.43074
1.88447
1.45182
1.11154
0.845725
0.639501
0.48058
0.358932
0.266432
0.19656
0.144126
0.105036
0.0760823
0.0547753
0.0391964
0.0278787
0.0197091
0.0138495
0.0096734
0.00671589
0.00463459
0.00317911
0.00216765
0.00146915
0.000989773
0.000662831
0.000441235
0.000291969
0.000192045
0.000125565
8.16063e-05
5.27162e-05
3.38424e-05
2.15823e-05
1.36573e-05
8.54997e-06
5.25199e-06
3.09178e-06
1.615e-06
5.00595e-07
10.8789
32.1721
52.1145
69.942
85.0707
97.1281
105.956
111.589
114.224
114.17
111.815
107.577
101.882
95.1332
87.6982
79.898
72.0028
64.2314
56.7537
49.6946
43.1398
37.1413
31.7232
26.8876
22.6191
18.8899
15.6632
12.8971
10.5465
8.56607
6.91104
5.53896
4.41026
3.48881
2.74213
2.14148
1.66179
1.28141
0.981884
0.747665
0.565769
0.425467
0.317978
0.236178
0.174341
0.127905
0.0932628
0.0675877
0.0486823
0.0348517
0.0247989
0.0175388
0.0123291
0.00861451
0.00598278
0.00413001
0.00283386
0.00193281
0.00131035
0.000883025
0.000591495
0.000393843
0.00026067
0.000171496
0.000112153
7.29048e-05
4.71045e-05
3.02456e-05
1.92919e-05
1.22101e-05
7.6452e-06
4.69693e-06
2.76538e-06
1.44461e-06
4.47786e-07
8.64275
25.5815
41.5093
55.8459
68.1365
78.076
85.515
90.4495
92.9988
93.3778
91.866
88.7792
84.4447
79.1816
73.2862
67.023
60.6185
54.2604
48.0973
42.2417
36.7733
31.7436
27.1797
23.0897
19.4658
16.289
13.5319
11.1616
9.14226
7.4368
6.0085
4.82202
3.84421
3.04457
2.39559
1.87278
1.45468
1.12272
0.861021
0.656159
0.4969
0.373943
0.279658
0.207848
0.153521
0.112694
0.0822158
0.0596122
0.0429583
0.030768
0.0219026
0.0154967
0.0108979
0.00761732
0.00529209
0.00365444
0.00250835
0.00171132
0.00116052
0.000782275
0.000524146
0.000349087
0.000231103
0.000152079
9.94771e-05
6.46783e-05
4.17977e-05
2.68434e-05
1.71251e-05
1.08406e-05
6.78885e-06
4.17145e-06
2.45632e-06
1.28327e-06
3.97786e-07
6.86707
20.3406
33.0526
44.5607
54.511
62.6567
68.8649
73.1112
75.4668
76.0791
75.1505
72.9175
69.6313
65.5421
60.8869
55.881
50.7123
45.5392
40.4895
35.6622
31.1295
26.94
23.1218
19.6864
16.6315
13.9446
11.6057
9.58931
7.86711
6.40923
5.18564
4.1672
3.32632
2.63751
2.07759
1.62586
1.26412
0.976541
0.749565
0.571688
0.433265
0.326291
0.244189
0.181604
0.134219
0.0985828
0.0719604
0.0522036
0.0376381
0.0269701
0.0192076
0.0135957
0.00956483
0.00668812
0.00464822
0.00321093
0.00220465
0.0015046
0.00102064
0.000688181
0.000461225
0.000307261
0.000203464
0.000133923
8.76205e-05
5.69818e-05
3.68316e-05
2.36587e-05
1.50963e-05
9.55808e-06
5.98672e-06
3.67911e-06
2.16669e-06
1.1321e-06
3.5094e-07
5.45301
16.1621
26.2946
35.5124
43.5403
50.1805
55.3186
58.9217
61.0302
61.7449
61.2123
59.6087
57.1264
53.9604
50.2989
46.3155
42.1645
37.9777
33.8636
29.9077
26.1738
22.7066
19.5333
16.6671
14.1095
11.8528
9.88253
8.17941
6.72115
5.48385
4.44319
3.5753
2.85742
2.26837
1.78879
1.40132
1.09061
0.843284
0.647847
0.494517
0.375072
0.282675
0.211695
0.157543
0.116509
0.0856254
0.0625374
0.0453918
0.0327435
0.0234741
0.0167254
0.0118439
0.00833586
0.00583106
0.00405408
0.0028015
0.00192419
0.00131361
0.000891359
0.000601187
0.000403034
0.000268566
0.000177886
0.000117115
7.6642e-05
4.98533e-05
3.22307e-05
2.07076e-05
1.32158e-05
8.369e-06
5.24281e-06
3.22246e-06
1.89803e-06
9.91823e-07
3.07488e-07
4.32501
12.8256
20.8881
28.2534
34.7078
40.0936
44.3149
47.3368
49.1803
49.9143
49.6443
48.502
46.6336
44.1906
41.3215
38.1652
34.8471
31.4758
28.1421
24.9189
21.8616
19.0099
16.3894
14.0139
11.8869
10.0044
8.35609
6.92755
5.70141
4.65872
3.77991
3.04559
2.4371
1.93696
1.52914
1.19916
0.934192
0.723014
0.55594
0.424716
0.322385
0.243149
0.182223
0.1357
0.100419
0.0738454
0.0539646
0.0391907
0.0282849
0.0202877
0.0144618
0.0102455
0.00721393
0.00504828
0.00351119
0.00242723
0.0016677
0.00113889
0.000773041
0.000521543
0.00034974
0.000233117
0.000154446
0.000101708
6.65751e-05
4.33149e-05
2.80096e-05
1.79994e-05
1.14896e-05
7.27725e-06
4.55966e-06
2.80303e-06
1.6512e-06
8.62914e-07
2.67556e-07
3.42454
10.1599
16.5616
22.4307
27.6014
31.9489
35.394
37.9032
39.4859
40.1886
40.0878
39.2811
37.8798
36.001
33.7609
31.2703
28.63
25.9288
23.2418
20.6302
18.1414
15.8102
13.6597
11.7034
9.94613
8.38615
7.01652
5.82645
4.80258
3.92998
3.19303
2.57607
2.06392
1.64228
1.29793
1.0189
0.794547
0.61551
0.473697
0.362189
0.275141
0.207673
0.155747
0.116063
0.0859427
0.0632383
0.04624
0.0335994
0.0242623
0.0174111
0.0124171
0.00880094
0.00619946
0.00434013
0.00301983
0.00208834
0.00143536
0.000980548
0.00066578
0.000449314
0.000301392
0.000200947
0.000133167
8.77177e-05
5.74311e-05
3.73742e-05
2.41734e-05
1.55374e-05
9.92001e-06
6.28428e-06
3.93823e-06
2.42138e-06
1.42654e-06
7.45595e-07
2.3116e-07
2.70577
8.03065
13.1009
17.7638
21.891
25.3839
28.1781
30.2433
31.582
32.2256
32.229
31.665
30.6177
29.1774
27.4348
25.4773
23.3857
21.2318
19.0772
16.9727
14.9583
13.0638
11.3099
9.70889
8.26632
6.98205
5.85148
4.86672
4.01753
3.29226
2.67851
2.16374
1.73567
1.38268
1.09395
0.859669
0.671034
0.520313
0.400787
0.306699
0.233173
0.176129
0.132185
0.0985717
0.0730382
0.0537761
0.0393443
0.0286048
0.0206666
0.0148382
0.0105874
0.00750747
0.00529063
0.00370542
0.00257923
0.00178431
0.00122684
0.000838384
0.000569438
0.000384415
0.000257935
0.000172021
0.000114029
7.51301e-05
4.92017e-05
3.20261e-05
2.07188e-05
1.33197e-05
8.50582e-06
5.38943e-06
3.37802e-06
2.07727e-06
1.22399e-06
6.39786e-07
1.98366e-07
2.1325
6.33138
10.3358
14.0286
17.3103
20.1037
22.3567
24.0429
25.1612
25.7323
25.7959
25.4059
24.6261
23.5254
22.1746
20.6423
18.9927
17.2834
15.5645
13.8777
12.2563
10.7257
9.30369
8.00151
6.82473
5.7742
4.84704
4.03752
3.3379
2.73914
2.23146
1.80487
1.44953
1.15605
0.915635
0.720278
0.562778
0.436776
0.336737
0.257901
0.19623
0.148336
0.111407
0.0831339
0.0616395
0.0454117
0.0332443
0.0241834
0.0174816
0.0125579
0.00896464
0.00635975
0.0044838
0.00314165
0.00218768
0.00151402
0.00104137
0.000711888
0.00048368
0.000326624
0.000219224
0.000146245
9.69688e-05
6.39063e-05
4.18615e-05
2.72546e-05
1.76359e-05
1.13401e-05
7.24311e-06
4.59019e-06
2.87756e-06
1.7698e-06
1.04299e-06
5.45239e-07
1.69087e-07
1.67592
4.9773
8.13015
11.0447
13.6439
15.8676
17.6739
19.0407
19.9647
20.4596
20.5541
20.2879
19.7093
18.8709
17.8276
16.6329
15.3374
13.9873
12.6229
11.278
9.98016
8.75058
7.60447
6.55175
5.59772
4.7438
3.98831
3.32717
2.75456
2.26351
1.84637
1.49524
1.20228
0.959926
0.761109
0.599328
0.468728
0.364118
0.280966
0.215366
0.163997
0.124064
0.0932444
0.0696285
0.0516598
0.0380831
0.0278958
0.0203042
0.0146853
0.0105546
0.00753826
0.00535034
0.00377382
0.00264531
0.0018428
0.00127583
0.000877861
0.000600322
0.000408014
0.000275615
0.000185043
0.000123478
8.18953e-05
5.39861e-05
3.5372e-05
2.30349e-05
1.49087e-05
9.58853e-06
6.12554e-06
3.88266e-06
2.43446e-06
1.49753e-06
8.82638e-07
4.61467e-07
1.43103e-07
1.31298
3.90045
6.37454
8.66645
10.7169
12.4788
13.9192
15.0194
15.7755
16.1964
16.3027
16.1239
15.6961
15.0597
14.2567
13.3289
12.316
11.2546
10.1768
9.11014
8.07695
7.09476
6.17638
5.3304
4.56166
3.87186
3.26014
2.72363
2.25801
1.85793
1.51745
1.23035
0.990429
0.791651
0.628345
0.495279
0.387722
0.301466
0.232823
0.178612
0.136116
0.103049
0.0775061
0.0579159
0.0429979
0.0317174
0.0232468
0.01693
0.0122515
0.00880991
0.00629528
0.00447023
0.00315445
0.0022121
0.00154164
0.00106774
0.000734953
0.000502771
0.000341827
0.000230979
0.000155122
0.000103542
6.86913e-05
4.52936e-05
2.96839e-05
1.93352e-05
1.25169e-05
8.05192e-06
5.14491e-06
3.26169e-06
2.04543e-06
1.25841e-06
7.41778e-07
3.87839e-07
1.20284e-07
1.02516
3.04616
4.98071
6.77618
8.38697
9.77657
10.9189
11.7988
12.4121
12.7646
12.871
12.753
12.438
11.9564
11.3406
10.623
9.83453
9.00395
8.15684
7.31516
6.49706
5.71684
4.98517
4.30932
3.69361
3.1398
2.64757
2.21496
1.83875
1.5149
1.2388
1.00561
0.810422
0.648469
0.515229
0.406518
0.318537
0.247894
0.191614
0.147118
0.112204
0.0850096
0.0639836
0.047844
0.0355434
0.026235
0.01924
0.0140199
0.0101511
0.00730331
0.00522129
0.00370934
0.0026187
0.00183719
0.00128088
0.000887486
0.000611105
0.000418196
0.000284421
0.000192249
0.000129151
8.62312e-05
5.72228e-05
3.77413e-05
2.47404e-05
1.61188e-05
1.0437e-05
6.71532e-06
4.29169e-06
2.72126e-06
1.70678e-06
1.05019e-06
6.1913e-07
3.23755e-07
1.00432e-07
0.797553
2.37035
3.87733
5.27832
6.53834
7.62916
8.53032
9.22961
9.72305
10.0143
10.114
10.038
9.80689
9.44375
8.97328
8.42043
7.80931
7.16239
6.49984
5.83912
5.19478
4.57843
3.99881
3.46202
2.97181
2.52988
2.13625
1.78959
1.48755
1.22708
1.00464
0.816458
0.658708
0.527628
0.419641
0.331419
0.259931
0.202465
0.156631
0.120357
0.0918643
0.0696514
0.0524613
0.0392547
0.0291814
0.0215524
0.0158153
0.0115309
0.00835346
0.00601311
0.00430102
0.003057
0.00215914
0.00151543
0.00105698
0.000732638
0.000504667
0.00034548
0.000235044
0.000158925
0.000106796
7.13257e-05
4.73444e-05
3.1234e-05
2.04796e-05
1.33459e-05
8.64336e-06
5.56239e-06
3.55552e-06
2.25488e-06
1.41449e-06
8.70446e-07
5.13226e-07
2.68403e-07
8.32411e-08
0.618121
1.83742
3.00672
4.09541
5.07673
5.92896
6.63613
7.18851
7.58251
7.82043
7.90977
7.86239
7.69348
7.42058
7.06248
6.63832
6.16673
5.66521
5.14954
4.63353
4.12875
3.64452
3.18794
2.76406
2.37607
2.02553
1.71267
1.4366
1.19563
0.987459
0.809392
0.658518
0.531853
0.426455
0.339509
0.268387
0.210687
0.16425
0.127174
0.0977996
0.0747045
0.0566825
0.0427231
0.0319896
0.0237959
0.0175857
0.0129121
0.00941952
0.00682757
0.00491726
0.00351893
0.00250229
0.00176815
0.00124154
0.000866304
0.000600704
0.00041394
0.00028347
0.000192921
0.000130485
8.77111e-05
5.85961e-05
3.89053e-05
2.56731e-05
1.68374e-05
1.09748e-05
7.10926e-06
4.57605e-06
2.92558e-06
1.85569e-06
1.16425e-06
7.16563e-07
4.22536e-07
2.20966e-07
6.85199e-08
0.477153
1.41862
2.32219
3.16461
3.92547
4.5881
5.14015
5.57387
5.88621
6.07854
6.1562
6.12789
6.00496
5.8006
5.52907
5.20498
4.84268
4.45569
4.05633
3.65539
3.26203
2.88367
2.52602
2.19322
1.88793
1.61154
1.36437
1.14587
0.954817
0.789492
0.64785
0.527658
0.426608
0.342409
0.272862
0.215901
0.169636
0.13236
0.102567
0.0789381
0.0603427
0.0458186
0.0345587
0.0258936
0.0192736
0.0142524
0.0104708
0.00764283
0.00554274
0.00399397
0.0028596
0.0020344
0.00143817
0.00101027
0.000705223
0.000489198
0.000337227
0.000231018
0.000157276
0.000106409
7.1549e-05
4.78124e-05
3.17538e-05
2.09591e-05
1.37491e-05
8.96381e-06
5.80776e-06
3.73899e-06
2.39083e-06
1.51676e-06
9.51763e-07
5.85886e-07
3.45504e-07
1.80697e-07
5.60443e-08
0.366812
1.09073
1.78601
2.43501
3.02224
3.53497
3.96366
4.30225
4.54815
4.70215
4.76805
4.75224
4.66314
4.51065
4.30556
4.05898
3.78188
3.48468
3.1769
2.86696
2.56205
2.26802
1.98943
1.72963
1.49081
1.27417
1.08007
0.908187
0.75764
0.627159
0.5152
0.420058
0.339958
0.273128
0.217857
0.172535
0.13568
0.105955
0.0821711
0.0632902
0.0484169
0.0367895
0.0277676
0.020819
0.0155062
0.0114734
0.00843404
0.00615959
0.00446945
0.00322222
0.00230817
0.00164287
0.00116191
0.000816549
0.000570226
0.000395706
0.000272879
0.000187001
0.000127352
8.61903e-05
5.79711e-05
3.87498e-05
2.57418e-05
1.69951e-05
1.11513e-05
7.27171e-06
4.71238e-06
3.03435e-06
1.94061e-06
1.23132e-06
7.72769e-07
4.75734e-07
2.8055e-07
1.4675e-07
4.55358e-08
0.280781
0.835034
1.36769
1.86545
2.31658
2.71137
3.04253
3.30532
3.49763
3.61986
3.67472
3.66687
3.60257
3.48921
3.33492
3.1481
2.93713
2.70996
2.47393
2.23557
2.00046
1.7732
1.5574
1.35573
1.16999
1.00118
0.84967
0.715273
0.597371
0.495027
0.407083
0.332244
0.269153
0.216447
0.172804
0.136976
0.107808
0.0842585
0.0653965
0.0504083
0.0385905
0.0293436
0.0221626
0.0166274
0.012392
0.0091746
0.00674809
0.00493102
0.00357988
0.0025822
0.0018506
0.0013178
0.000932413
0.000655546
0.000457976
0.000317933
0.000219326
0.000150354
0.000102428
6.93436e-05
4.66537e-05
3.11936e-05
2.07275e-05
1.36878e-05
8.98328e-06
5.8592e-06
3.79774e-06
2.44587e-06
1.56453e-06
9.92809e-07
6.23155e-07
3.83668e-07
2.26283e-07
1.18367e-07
3.67153e-08
0.213981
0.636455
1.0427
1.42272
1.76764
2.07013
2.32461
2.52741
2.67683
2.77305
2.81799
2.81504
2.76884
2.68488
2.56927
2.42835
2.26845
2.09564
1.91554
1.73316
1.55283
1.37813
1.21189
1.05624
0.9126
0.781832
0.664267
0.559813
0.468038
0.388257
0.319604
0.261104
0.211723
0.17042
0.136179
0.108037
0.0851026
0.0665659
0.0517045
0.0398841
0.0305555
0.02325
0.0175719
0.0131917
0.00983747
0.00728765
0.00536325
0.00392121
0.00284826
0.0020555
0.00147383
0.00104999
0.000743249
0.00052277
0.000365362
0.000253735
0.000175103
0.000120079
8.18296e-05
5.54156e-05
3.72939e-05
2.49421e-05
1.65778e-05
1.09501e-05
7.1881e-06
4.6893e-06
3.04003e-06
1.95822e-06
1.25278e-06
7.95114e-07
4.99123e-07
3.07346e-07
1.81306e-07
9.48495e-08
2.9392e-08
0.162337
0.482903
0.791321
1.08009
1.34254
1.57315
1.76767
1.9233
2.03867
2.11382
2.15012
2.15004
2.11699
2.05505
1.96878
1.86294
1.74231
1.61148
1.47474
1.33592
1.19833
1.06476
0.937415
0.817947
0.707511
0.6068
0.516113
0.435415
0.364409
0.302596
0.249334
0.203889
0.165481
0.133318
0.106624
0.0846604
0.0667425
0.0522458
0.0406122
0.0313505
0.0240348
0.0183007
0.0138404
0.0103969
0.00775798
0.0057505
0.00423437
0.00309753
0.00225112
0.00162537
0.00116597
0.000831038
0.000588518
0.00041411
0.000289534
0.00020115
0.000138863
9.52595e-05
6.49369e-05
4.3989e-05
2.96123e-05
1.981e-05
1.317e-05
8.7012e-06
5.71306e-06
3.72777e-06
2.41712e-06
1.55722e-06
9.96377e-07
6.32486e-07
3.97107e-07
2.44559e-07
1.44264e-07
7.54799e-08
2.34045e-08
0.122589
0.364702
0.597752
0.816135
1.01487
1.18979
1.3377
1.45645
1.54497
1.60324
1.63221
1.63367
1.61013
1.56462
1.50051
1.42138
1.33079
1.23223
1.12893
1.0238
0.919387
0.817817
0.720796
0.629618
0.545193
0.468081
0.398537
0.336564
0.281957
0.234356
0.193288
0.158203
0.128516
0.103627
0.0829473
0.0659147
0.0520052
0.0407406
0.0316922
0.0244822
0.0187821
0.0143107
0.0108298
0.00814035
0.00607783
0.00450769
0.00332106
0.00243071
0.00176741
0.00127674
0.000916312
0.000653387
0.000462909
0.000325859
0.00022792
0.000158403
0.000109392
7.50671e-05
5.11881e-05
3.46857e-05
2.33561e-05
1.56288e-05
1.03928e-05
6.86792e-06
4.51027e-06
2.94352e-06
1.90895e-06
1.23002e-06
7.87133e-07
4.99712e-07
3.13776e-07
1.93267e-07
1.14017e-07
5.96369e-08
1.85146e-08
0.0921363
0.274132
0.449394
0.61375
0.763488
0.895496
1.00737
1.09748
1.16498
1.20984
1.2327
1.23487
1.21819
1.18487
1.13744
1.07853
1.01084
0.936945
0.859297
0.780099
0.701279
0.62446
0.550952
0.481756
0.417584
0.358881
0.305864
0.258552
0.216809
0.180374
0.1489
0.12198
0.0991758
0.080036
0.0641164
0.0509909
0.0402615
0.0315641
0.0245714
0.0189946
0.014582
0.0111178
0.00841878
0.00633192
0.00473037
0.00351031
0.00258764
0.0018949
0.00137851
0.000996284
0.000715359
0.00051032
0.000361702
0.000254718
0.00017823
0.000123914
8.56034e-05
5.87624e-05
4.00824e-05
2.71682e-05
1.82991e-05
1.2248e-05
8.1466e-06
5.38473e-06
3.53696e-06
2.30872e-06
1.49752e-06
9.65079e-07
6.17682e-07
3.92174e-07
2.46244e-07
1.51673e-07
8.9492e-08
4.68035e-08
1.45379e-08
0.0689164
0.205065
0.336228
0.459317
0.571575
0.670687
0.754853
0.822844
0.874017
0.9083
0.926162
0.92854
0.916769
0.892486
0.857541
0.813896
0.763542
0.708419
0.650351
0.590997
0.531813
0.474028
0.418642
0.366423
0.317923
0.273492
0.23331
0.197404
0.165684
0.137964
0.11399
0.0934612
0.0760517
0.0614244
0.0492455
0.0391943
0.0309702
0.0242975
0.018928
0.014642
0.0112479
0.0085812
0.00650201
0.00489318
0.00365763
0.00271576
0.002003
0.00146753
0.00106813
0.00077233
0.000554805
0.000395957
0.000280761
0.000197797
0.000138453
9.62941e-05
6.65454e-05
4.56947e-05
3.11783e-05
2.1139e-05
1.42419e-05
9.53481e-06
6.3434e-06
4.19373e-06
2.7552e-06
1.79874e-06
1.1669e-06
7.52134e-07
4.81469e-07
3.05734e-07
1.91995e-07
1.18247e-07
6.97799e-08
3.65144e-08
1.13274e-08
0.0512971
0.15265
0.250329
0.342053
0.425788
0.499815
0.562799
0.613816
0.652374
0.678404
0.692228
0.694524
0.686259
0.668633
0.643002
0.610813
0.57354
0.532622
0.489418
0.445168
0.400964
0.357734
0.316233
0.277046
0.240598
0.207164
0.176886
0.149797
0.125837
0.104873
0.0867221
0.0711627
0.0579534
0.0468437
0.0375845
0.0299356
0.0236714
0.0185843
0.0144872
0.0112142
0.00862025
0.0065806
0.00498914
0.00375684
0.0028098
0.00208738
0.00154035
0.00112913
0.000822222
0.000594801
0.000427467
0.000305208
0.000216503
0.000152586
0.000106846
7.43378e-05
5.13894e-05
3.52987e-05
2.40921e-05
1.63391e-05
1.1011e-05
7.37351e-06
4.90661e-06
3.2445e-06
2.13195e-06
1.39208e-06
9.03222e-07
5.82249e-07
3.72754e-07
2.36723e-07
1.48688e-07
9.15764e-08
5.40566e-08
2.83043e-08
8.77984e-09
0.0379936
0.11307
0.18545
0.253458
0.315597
0.370602
0.417481
0.455549
0.484431
0.504062
0.514668
0.516734
0.51096
0.498219
0.479504
0.455875
0.428418
0.398197
0.366218
0.333401
0.300563
0.268396
0.23747
0.208228
0.180993
0.155978
0.133296
0.112979
0.0949872
0.0792283
0.0655687
0.0538472
0.043886
0.0354999
0.028504
0.0227195
0.0179779
0.014124
0.0110175
0.0085339
0.00656405
0.00501395
0.00380361
0.00286576
0.00214452
0.001594
0.00117687
0.00086311
0.000628809
0.000455092
0.000327206
0.000233721
0.000165859
0.000116938
8.19143e-05
5.70112e-05
3.94245e-05
2.70886e-05
1.84939e-05
1.25458e-05
8.45683e-06
5.66446e-06
3.77014e-06
2.49351e-06
1.63875e-06
1.07021e-06
6.94472e-07
4.4773e-07
2.86643e-07
1.82031e-07
1.14337e-07
7.04561e-08
4.1592e-08
2.17658e-08
6.76462e-09
0.0279994
0.0833326
0.136696
0.186863
0.232739
0.273394
0.3081
0.336346
0.357853
0.372563
0.380632
0.382408
0.378394
0.369224
0.35562
0.338358
0.318231
0.296023
0.272474
0.248265
0.224
0.200196
0.177278
0.15558
0.135344
0.116735
0.0998422
0.0846929
0.071263
0.059487
0.0492693
0.0404924
0.0330264
0.026735
0.0214817
0.0171342
0.0135675
0.0106661
0.00832558
0.00645282
0.00496636
0.0037958
0.00288117
0.00217197
0.00162621
0.00120937
0.000893342
0.00065549
0.000477772
0.000345936
0.000248831
0.000177811
0.000126232
8.90332e-05
6.23895e-05
4.34369e-05
3.00472e-05
2.06517e-05
1.41033e-05
9.5699e-06
6.45243e-06
4.32288e-06
2.87779e-06
1.9037e-06
1.25136e-06
8.17372e-07
5.30477e-07
3.4201e-07
2.1897e-07
1.39081e-07
8.73517e-08
5.38348e-08
3.17815e-08
1.66311e-08
5.15002e-09
0.0205296
0.0611048
0.100247
0.137064
0.170757
0.200647
0.226202
0.247044
0.262965
0.273917
0.280008
0.281484
0.278708
0.272137
0.262294
0.249743
0.235063
0.218825
0.201574
0.183809
0.165976
0.148457
0.131568
0.115556
0.100607
0.086843
0.0743343
0.0631045
0.0531388
0.0443915
0.036794
0.0302617
0.0246998
0.0200087
0.0160882
0.0128409
0.0101746
0.00800394
0.00625149
0.00484823
0.00373362
0.00285526
0.00216847
0.00163558
0.00122525
0.00091165
0.00067375
0.000494598
0.000360666
0.000261259
0.000188002
0.000134398
9.54489e-05
6.73459e-05
4.72088e-05
3.28787e-05
2.27508e-05
1.56414e-05
1.06847e-05
7.25203e-06
4.89079e-06
3.27738e-06
2.18224e-06
1.44384e-06
9.49244e-07
6.20133e-07
4.02527e-07
2.59526e-07
1.66174e-07
1.05585e-07
6.63345e-08
4.08456e-08
2.41212e-08
1.26314e-08
3.89654e-09
0.0149756
0.0445764
0.0731395
0.100019
0.124635
0.146494
0.165208
0.180501
0.192218
0.200321
0.204883