/*--------------------------------*- C++ -*----------------------------------*\
  =========                 |
  \\      /  F ield         | OpenFOAM: The Open Source CFD Toolbox
   \\    /   O peration     | Website:  https://openfoam.org
    \\  /    A nd           | Version:  10
     \\/     M anipulation  |
\*---------------------------------------------------------------------------*/
FoamFile
{
    format      ascii;
    class       volScalarField;
    location    "496";
    object      gradTx;
}
// * * * * * * * * * * * * * * * * * * * * * * * * * * * * * * * * * * * * * //

dimensions      [0 -1 0 1 0 0 0];

internalField   nonuniform List<scalar> 
11250
(
14307.9
8128
5349.84
3882.06
2998.06
2410.53
1990.86
1674.79
1427.18
1227.34
1062.31
923.619
805.462
703.741
615.467
538.404
470.835
411.41
359.049
312.864
272.117
236.183
204.522
176.665
152.198
130.753
112.003
95.6513
81.4316
69.1031
58.4481
49.2698
41.3905
34.6501
28.9048
24.0258
19.8979
16.4187
13.4978
11.0551
9.0203
7.33214
5.93717
4.78914
3.84817
3.08009
2.4557
1.95022
1.5427
1.21552
0.953944
0.745686
0.580574
0.450219
0.347736
0.267506
0.204961
0.156407
0.118875
0.0899847
0.0678399
0.050937
0.0380892
0.0283641
0.0210327
0.0155274
0.0114084
0.00833609
0.00604898
0.00434628
0.00307363
0.0021118
0.00136765
0.00076665
0.000246792
4103.71
4726.7
4040.17
3299.25
2702.82
2244.16
1888.95
1608.24
1381.51
1194.75
1038.34
905.545
791.562
692.875
606.861
531.513
465.268
406.881
355.342
309.816
269.603
234.103
202.797
175.233
151.008
129.765
111.182
94.9695
80.866
68.6345
58.0604
48.9496
41.1266
34.433
28.7267
23.8799
19.7788
16.3218
13.4191
10.9913
8.96887
7.29076
5.90399
4.76261
3.82704
3.06331
2.44242
1.93975
1.53448
1.20908
0.948923
0.741784
0.577553
0.447888
0.345945
0.266134
0.203914
0.155612
0.118274
0.0895311
0.0674991
0.0506821
0.0378992
0.0282231
0.0209285
0.0154507
0.0113522
0.00829513
0.00601933
0.00432503
0.00305864
0.00210152
0.001361
0.000762929
0.000245596
1484.08
2635.36
2785.59
2572.95
2271.05
1975.81
1714.25
1489.59
1297.93
1134.04
993.1
871.111
764.887
671.908
590.18
518.11
454.41
398.025
348.081
303.837
264.662
230.01
199.401
172.411
148.662
127.814
109.56
93.6225
79.748
67.7078
57.2935
48.316
40.6041
34.0032
28.3739
23.5911
19.5429
16.1297
13.2631
10.865
8.86691
7.20872
5.83819
4.71001
3.78513
3.03003
2.41609
1.91898
1.51816
1.19631
0.938957
0.734038
0.571554
0.44326
0.342388
0.263411
0.201837
0.154034
0.117079
0.08863
0.0668223
0.0501757
0.0375218
0.027943
0.0207214
0.0152983
0.0112405
0.00821373
0.00596042
0.0042828
0.00302883
0.00208108
0.00134778
0.000755528
0.000243215
681.49
1545.48
1894.58
1936.87
1833.83
1675.25
1504.34
1339.8
1188.63
1052.59
931.237
823.341
727.467
642.238
566.411
498.904
438.779
385.23
337.556
295.147
257.466
224.038
194.437
168.281
145.224
124.953
107.179
91.6426
78.1037
66.3439
56.1641
47.3824
39.834
33.3694
27.8534
23.1648
19.1946
15.846
13.0326
10.6784
8.71625
7.08746
5.74091
4.63223
3.72314
2.9808
2.37713
1.88826
1.49401
1.1774
0.924207
0.722572
0.562675
0.43641
0.337122
0.259379
0.198761
0.151696
0.115309
0.0872955
0.0658198
0.0494255
0.0369627
0.0275279
0.0204145
0.0150724
0.0110751
0.00809313
0.00587312
0.00422021
0.00298466
0.00205079
0.00132819
0.000744557
0.000239685
378.032
970.897
1311.08
1447.07
1453.35
1388.47
1289.72
1178.5
1066.24
958.622
858.218
765.942
681.872
605.679
536.859
474.848
419.083
369.025
324.171
284.056
248.253
216.372
188.051
162.958
140.786
121.253
104.097
89.0768
75.9705
64.5731
54.6964
46.1684
38.832
32.5441
27.1754
22.6092
18.7406
15.476
12.732
10.4348
8.51952
6.92909
5.61382
4.53059
3.64213
2.91645
2.32619
1.84808
1.46243
1.15267
0.904908
0.707569
0.551055
0.427443
0.330229
0.254099
0.194733
0.148635
0.112991
0.0855476
0.0645068
0.048443
0.0362304
0.0269842
0.0200126
0.0147765
0.0108582
0.00793508
0.0057587
0.00413819
0.00292677
0.00201108
0.00130251
0.000730176
0.000235058
237.91
649.414
932.439
1087.93
1145.23
1136.95
1089.2
1020.08
941.19
859.578
779.327
702.691
630.822
564.215
502.986
447.036
396.146
350.039
308.407
270.937
237.317
207.243
180.425
156.586
135.462
116.806
100.386
85.984
73.3959
62.4333
52.9213
44.6988
37.6179
31.5435
26.3528
21.9347
18.189
15.0263
12.3664
10.1385
8.28013
6.7363
5.45907
4.40678
3.54342
2.83802
2.26409
1.79909
1.42392
1.1225
0.881364
0.689262
0.536873
0.416498
0.321814
0.247654
0.189815
0.144897
0.110161
0.0834126
0.0629027
0.0472425
0.0353355
0.0263198
0.0195213
0.0144148
0.0105932
0.00774189
0.00561884
0.00403791
0.00285599
0.00196253
0.00127111
0.000712592
0.0002294
162.237
456.811
681.994
827.907
903.849
926.294
911.626
873.194
820.813
761.262
699.027
636.976
576.881
519.788
466.27
416.595
370.837
328.945
290.792
256.205
224.982
196.909
171.764
149.328
129.383
111.719
96.1331
82.4327
70.4352
59.9694
50.8748
43.0026
36.2152
30.3865
25.4008
21.1535
17.5499
14.5048
11.9422
9.7946
8.00214
6.51233
5.27922
4.26285
3.42862
2.74678
2.19183
1.74206
1.37907
1.08737
0.853937
0.667932
0.520346
0.40374
0.312003
0.240138
0.184079
0.140536
0.106859
0.0809217
0.061031
0.0458416
0.0342911
0.0255443
0.0189478
0.0139925
0.0102837
0.0075163
0.00545551
0.0039208
0.00277333
0.00190582
0.00123443
0.000692052
0.000222791
116.596
333.992
511.464
638.744
717.091
754.099
759.369
741.993
709.5
667.664
620.691
571.544
522.244
474.135
428.081
384.607
344.008
306.418
271.859
240.283
211.588
185.641
162.287
141.362
122.693
106.106
91.4299
78.4981
67.1494
57.2307
48.5969
41.1123
34.6504
29.0943
24.3367
20.2797
16.8343
13.9206
11.4667
9.40881
7.69013
6.26082
5.07716
4.10107
3.29954
2.64415
2.11051
1.67786
1.32858
1.0478
0.82304
0.643897
0.501719
0.389359
0.300942
0.231662
0.17761
0.135617
0.103133
0.0781108
0.0589185
0.0442602
0.033112
0.0246687
0.0183003
0.0135157
0.00993417
0.00726149
0.00527101
0.00378849
0.00267993
0.00184175
0.00119299
0.00066884
0.000215323
86.8785
251.476
391.752
499.379
572.764
614.947
631.261
627.587
609.367
581.171
546.614
508.435
468.651
428.705
389.607
352.039
316.445
283.093
252.124
223.589
197.472
173.713
152.216
132.867
115.536
100.086
86.3739
74.2593
63.6029
54.2696
46.1303
39.0626
32.9514
27.6898
23.1789
19.3279
16.0543
13.2833
10.9477
8.98736
7.34908
5.98575
4.85606
3.92396
3.15816
2.53169
2.02138
1.60748
1.2732
1.00438
0.789128
0.617509
0.481263
0.373561
0.288788
0.222348
0.170499
0.130209
0.0990362
0.0750193
0.0565948
0.0425205
0.0318146
0.0237051
0.0175875
0.0129908
0.00954938
0.00698093
0.00506784
0.00364279
0.00257706
0.00177118
0.00114734
0.000643272
0.000207096
66.4433
193.646
305.296
395.091
460.691
502.926
524.589
529.348
520.982
502.943
478.166
449.025
417.375
384.625
351.82
319.713
288.833
259.539
232.056
206.51
182.954
161.387
141.766
124.021
108.06
93.7781
81.0627
69.7964
59.8611
51.1397
43.5187
36.8891
31.1474
26.1966
21.9466
18.3139
15.2225
12.603
10.3931
8.53681
6.98424
5.69131
4.61924
3.73415
3.00658
2.41106
1.92573
1.53191
1.21371
0.95773
0.752682
0.58914
0.459265
0.356568
0.275711
0.212324
0.162844
0.124387
0.0946243
0.0716894
0.0540914
0.0406459
0.0304165
0.0226665
0.0168192
0.0124248
0.00913445
0.00667836
0.0048487
0.00348561
0.00246609
0.00169504
0.00109808
0.000615682
0.000198218
51.81
151.719
241.274
315.799
372.995
412.686
436.213
445.79
443.97
433.278
416.011
394.135
369.271
342.712
315.462
288.284
261.744
236.246
212.069
189.394
168.325
148.907
131.14
114.991
100.402
87.2979
75.5913
65.1877
55.9886
47.8941
40.8057
34.6275
29.2675
24.6385
20.6591
17.2533
14.3515
11.8901
9.8115
8.06387
6.60097
5.38178
4.37014
3.53439
2.84695
2.28396
1.8249
1.45221
1.15096
0.908495
0.7142
0.559177
0.436023
0.338609
0.261887
0.201724
0.154748
0.118227
0.0899555
0.0681649
0.0514412
0.0386609
0.0289357
0.0215664
0.0160052
0.0118251
0.00869472
0.00635766
0.00461641
0.00331898
0.00234842
0.0016143
0.00104585
0.000586423
0.000188802
41.0006
120.482
192.838
254.603
303.774
339.766
363.117
375.118
377.455
371.936
360.309
344.157
324.843
303.506
281.066
258.253
235.627
213.61
192.51
172.541
153.841
136.489
120.52
105.931
92.6919
80.7528
70.0496
60.5078
52.0471
44.5838
38.0334
32.3125
27.3402
23.0389
19.3355
16.1617
13.4541
11.1548
9.21103
7.57518
6.20463
5.06146
4.11218
3.32738
2.68144
2.15211
1.72025
1.36946
1.08576
0.857323
0.674189
0.528012
0.41184
0.319916
0.247494
0.190684
0.146313
0.111807
0.0850893
0.0644904
0.0486775
0.0365906
0.027391
0.0204184
0.0151557
0.0111992
0.00823566
0.00602282
0.00437383
0.00314495
0.00222552
0.00152995
0.000991279
0.000555852
0.000178965
32.8181
96.6893
155.522
206.729
248.653
280.586
302.639
315.528
320.344
318.362
310.89
299.171
284.325
267.323
248.982
229.969
210.817
191.942
173.659
156.197
139.716
124.32
110.067
96.9776
85.045
74.2406
64.5196
55.8255
48.0943
41.2567
35.2416
29.977
25.3926
21.42
17.9942
15.054
12.5425
10.407
8.59977
7.07726
5.80046
4.73455
3.84872
3.11582
2.51217
2.01719
1.6131
1.28468
1.01894
0.804856
0.633148
0.496031
0.387015
0.30072
0.232708
0.179339
0.137643
0.105207
0.0800845
0.0607104
0.0458338
0.0344598
0.0258008
0.0192365
0.0142808
0.0105544
0.00776273
0.00567779
0.00412383
0.00296557
0.00209882
0.001443
0.000935013
0.000524331
0.000168821
26.5022
78.2389
126.33
168.831
204.396
232.33
252.526
265.351
271.498
271.852
267.381
259.045
247.748
234.3
219.405
203.658
187.548
171.469
155.727
140.556
126.126
112.554
99.9151
88.2476
77.5621
67.8471
59.0743
51.2026
44.182
37.9565
32.4666
27.6514
23.4499
19.8026
16.6522
13.9443
11.628
9.65613
7.98534
6.57627
5.39343
4.40507
3.58297
2.90228
2.34121
1.88082
1.50475
1.19891
0.951296
0.751715
0.59156
0.46361
0.361839
0.281245
0.217702
0.167822
0.128838
0.0985021
0.0749988
0.0568682
0.0429426
0.0322929
0.0241832
0.0180339
0.0133905
0.00989817
0.00728127
0.00532648
0.00386924
0.00278286
0.00196976
0.00135441
0.000877683
0.000492212
0.000158484
21.5495
63.7194
103.202
138.52
168.595
192.795
210.917
223.118
229.827
231.655
229.307
223.519
215.007
204.439
192.411
179.44
165.963
152.342
138.866
125.763
113.204
101.313
90.1741
79.8376
70.3275
61.6456
53.7768
46.6928
40.356
34.7217
29.741
25.3627
21.5348
18.2057
15.3253
12.8456
10.7215
8.91081
7.3748
6.07796
4.98821
4.07676
3.31796
2.68916
2.17047
1.74455
1.39639
1.11308
0.883578
0.698489
0.549887
0.431108
0.336588
0.261705
0.20264
0.156258
0.119994
0.0917652
0.0698874
0.0530054
0.0400351
0.0301132
0.0225557
0.0168237
0.0124943
0.00923743
0.00679642
0.00497263
0.00361277
0.00259878
0.0018397
0.00126512
0.000819898
0.000459834
0.000148064
17.616
52.1553
84.6828
114.065
139.442
160.263
176.292
187.565
194.339
197.029
196.147
192.251
185.906
177.652
167.986
157.352
146.132
134.651
123.176
111.92
101.05
90.6897
80.9286
71.8243
63.4095
55.6961
48.6794
42.3416
36.6552
31.5856
27.0931
23.135
19.6674
16.6459
14.0272
11.7692
9.83224
8.17888
6.77456
5.58755
4.58902
3.75305
3.05645
2.47869
2.00172
1.60978
1.28916
1.0281
0.816484
0.645726
0.508554
0.398856
0.311521
0.242299
0.187676
0.144764
0.1112
0.0850646
0.0648018
0.0491611
0.0371406
0.0279426
0.0209346
0.0156179
0.0116012
0.00857883
0.00631303
0.00461977
0.00335696
0.00241514
0.00170994
0.00117602
0.00076223
0.000427521
0.000137664
14.4592
42.854
69.7227
94.1893
115.567
133.389
147.417
157.623
164.15
167.279
167.379
164.87
160.194
153.784
146.051
137.368
128.068
118.434
108.708
99.0865
89.7261
80.7476
72.24
64.2649
56.8604
50.0457
43.8239
38.1856
33.1118
28.5759
24.5464
20.9883
17.8646
15.1377
12.77
10.7253
8.9687
7.46721
6.19027
5.10966
4.19964
3.43699
2.8009
2.27285
1.83657
1.47778
1.18407
0.944757
0.750648
0.593922
0.467952
0.367159
0.286873
0.223208
0.172949
0.133448
0.10254
0.078463
0.0597898
0.045371
0.0342862
0.0258015
0.019335
0.0144278
0.0107195
0.00792847
0.00583559
0.00427118
0.0031042
0.00223365
0.00158167
0.00108795
0.000705214
0.00039557
0.00012738
11.9044
35.3126
57.5504
77.9357
95.9196
111.112
123.291
132.393
138.492
141.773
142.502
140.994
137.592
132.643
126.48
119.418
111.737
103.686
95.4784
87.2912
79.2692
71.5263
64.1488
57.1989
50.7179
44.7294
39.2422
34.2534
29.7507
25.7146
22.1202
18.9391
16.1406
13.6929
11.564
9.72239
8.13789
6.78166
5.62677
4.64827
3.82333
3.13125
2.55346
2.07339
1.6764
1.34967
1.08201
0.863764
0.686628
0.543519
0.428426
0.336286
0.262855
0.204597
0.158585
0.122406
0.0940864
0.0720167
0.0548939
0.0416676
0.0314961
0.0237079
0.0177706
0.0132636
0.00985674
0.0072919
0.00536816
0.00392982
0.00285663
0.00205586
0.00145599
0.00100163
0.000649333
0.000364252
0.0001173
9.82252
29.1583
47.5881
64.5776
79.6876
92.5946
103.1
111.124
116.699
119.945
121.05
120.252
117.815
114.014
109.122
103.396
97.0743
90.3711
83.4719
76.5346
69.6902
63.0437
56.6769
50.6504
45.0062
39.7706
34.9564
30.5654
26.5907
23.0184
19.8291
17.0003
14.5065
12.3211
10.417
8.76723
7.34559
6.12706
5.08807
4.20669
3.4628
2.83806
2.31597
1.88178
1.52242
1.22641
0.983742
0.78573
0.624909
0.494897
0.390276
0.306473
0.239649
0.186607
0.144694
0.111724
0.0859044
0.0657751
0.0501517
0.0380792
0.0287917
0.0216781
0.0162533
0.0121341
0.00901948
0.006674
0.00491432
0.00359832
0.00261616
0.00188313
0.00133387
0.000917746
0.000595018
0.000333809
0.000107501
8.11679
24.1097
39.396
53.5548
66.234
77.1668
86.1794
93.1903
98.203
101.294
102.598
102.292
100.579
97.6773
93.8058
89.1774
83.9914
78.429
72.6509
66.7958
60.9804
55.3001
49.8305
44.6292
39.7375
35.1827
30.9801
27.1349
23.6443
20.4987
17.6836
15.1811
12.9704
11.0295
9.33539
7.86516
6.59631
5.50721
4.57735
3.78759
3.12026
2.55922
2.08989
1.69921
1.37559
1.10879
0.889901
0.71116
0.565891
0.448376
0.353754
0.277915
0.217409
0.169357
0.131369
0.101472
0.0780488
0.0597801
0.0455951
0.03463
0.0261914
0.0197257
0.0147934
0.011047
0.00821345
0.00607899
0.00447719
0.00327894
0.00238442
0.00171663
0.00121614
0.000836863
0.00054264
0.000304449
9.80498e-05
6.71321
19.951
32.6343
44.4299
55.0552
64.2908
71.9874
78.0666
82.5165
85.3839
86.764
86.7883
85.6137
83.4115
80.358
76.6272
72.3847
67.7835
62.9609
58.0373
53.1157
48.2812
43.6028
39.134
34.914
30.9703
27.3194
23.9687
20.9184
18.1624
15.6903
13.4877
11.538
9.82301
8.32347
7.01998
5.89333
4.92491
4.097
3.39297
2.79738
2.29612
1.87638
1.52665
1.23668
0.997433
0.800988
0.640458
0.509898
0.404212
0.319061
0.250772
0.196261
0.152946
0.118685
0.0917089
0.0705647
0.0540663
0.0412506
0.0313401
0.0237102
0.0178622
0.0133995
0.0100088
0.0074434
0.00551038
0.00405934
0.00297357
0.0021628
0.00155738
0.00110351
0.000759466
0.000492512
0.000276348
8.90035e-05
5.5544
16.5146
27.0374
36.858
45.7492
53.5312
60.0772
65.3149
69.2243
71.8326
73.2064
73.4436
72.6646
71.0041
68.6033
65.6038
62.1425
58.3474
54.3352
50.2095
46.0599
41.9617
37.9767
34.1537
30.5295
27.1306
23.9737
21.0678
18.4152
16.0125
13.8521
11.9232
10.2123
8.70456
7.38394
6.23411
5.23878
4.38204
3.64864
3.0242
2.49534
2.04976
1.67626
1.36476
1.10626
0.892795
0.71738
0.573926
0.457172
0.362598
0.286352
0.225168
0.1763
0.137448
0.106701
0.0824807
0.0634874
0.0486607
0.0371388
0.0282252
0.0213603
0.0160966
0.0120785
0.00902445
0.00671311
0.00497098
0.00366284
0.00268373
0.0019524
0.00140615
0.000996526
0.000685943
0.000444887
0.000249647
8.04075e-05
4.59529
13.6683
22.3948
30.5638
37.9923
44.5332
50.0797
54.5674
57.9725
60.3091
61.6236
61.9888
61.4969
60.2536
58.3718
55.9662
53.1494
50.0279
46.7002
43.2546
39.7683
36.3075
32.9266
29.6698
26.5708
23.6544
20.9371
18.4287
16.1327
14.048
12.1693
10.4882
8.99425
7.67522
6.51793
5.50871
4.63378
3.87962
3.23318
2.68211
2.21486
1.82075
1.49006
1.214
0.984696
0.795185
0.639328
0.511773
0.407883
0.323672
0.255736
0.201188
0.157595
0.122918
0.0954606
0.0738204
0.0568426
0.0435834
0.0332751
0.0252972
0.0191504
0.0144357
0.0108353
0.00809786
0.00602544
0.00446291
0.00328927
0.00241057
0.00175406
0.00126356
0.000895635
0.000616593
0.000399958
0.000224455
7.2297e-05
3.80007
11.3069
18.5382
25.3256
31.5215
37.0058
41.6891
45.5149
48.4589
50.5265
51.7499
52.1828
51.8961
50.9725
49.502
47.5772
45.2904
42.7298
39.9778
37.1094
34.1906
31.2787
28.4216
25.6583
23.0194
20.5277
18.1993
16.0437
14.0656
12.2652
10.6391
9.18106
7.8828
6.73448
5.72527
4.84379
4.07848
3.41789
2.85092
2.367
1.95621
1.60936
1.31802
1.07458
0.872186
0.704772
0.566976
0.454116
0.362128
0.287513
0.22728
0.178887
0.140189
0.10939
0.0849898
0.0657494
0.0506472
0.0388473
0.0296696
0.0225637
0.0170866
0.012884
0.00967346
0.00723162
0.00538236
0.00398763
0.00293972
0.00215491
0.00156837
0.00113003
0.000801136
0.000551625
0.000357863
0.00020085
6.46967e-05
3.13998
9.34563
15.3318
20.9635
26.1219
30.7089
34.6502
37.897
40.4257
42.2367
43.3517
43.8107
43.6678
42.9878
41.8421
40.3057
38.4534
36.3583
34.089
31.7084
29.2729
26.8316
24.4261
22.0907
19.8528
17.7331
15.7463
13.9022
12.2057
10.6579
9.25697
7.99829
6.87543
5.88049
5.00463
4.23844
3.57225
2.99643
2.50159
2.07871
1.71934
1.41556
1.16015
0.946525
0.768762
0.621593
0.500362
0.400993
0.319942
0.254153
0.20101
0.158287
0.124103
0.0968799
0.0753022
0.0582785
0.0449097
0.0344594
0.0263277
0.020029
0.0151722
0.011444
0.00859494
0.00642721
0.00478499
0.003546
0.00261481
0.0019172
0.00139569
0.00100582
0.000713214
0.000491167
0.000318683
0.000178877
5.76217e-05
2.59175
7.71595
12.6649
17.3304
21.6167
25.4436
28.7498
31.4935
33.6529
35.2252
36.2252
36.682
36.6374
36.1418
35.252
34.0282
32.5314
30.8214
28.9552
26.9855
24.9599
22.9203
20.9024
18.9363
17.046
15.25
13.5621
11.9912
10.5425
9.21795
8.01648
6.9349
5.96826
5.11026
4.35373
3.69091
3.11378
2.61426
2.18445
1.81671
1.50383
1.23907
1.01625
0.829694
0.67432
0.545576
0.439438
0.352372
0.281304
0.223579
0.176919
0.139383
0.109333
0.0853879
0.0663982
0.0514085
0.0396312
0.0304206
0.0232504
0.0176941
0.013408
0.0101165
0.00760028
0.0056851
0.00423369
0.00313831
0.00231478
0.00169764
0.00123614
0.000891027
0.00063194
0.000435269
0.000282453
0.000158556
5.10783e-05
2.13637
6.36172
10.447
14.3053
17.8594
21.0441
23.8087
26.118
27.9522
29.307
30.1919
30.6285
30.6486
30.2918
29.6029
28.6303
27.4235
26.0313
24.5008
22.8759
21.1965
19.4982
17.8117
16.1626
14.5721
13.0566
11.6284
10.296
9.06433
7.93574
6.90995
5.98477
5.15642
4.41993
3.76952
3.19882
2.7012
2.26993
1.89838
1.5801
1.30901
1.07937
0.885909
0.723784
0.588634
0.476552
0.384075
0.308157
0.246144
0.195738
0.154967
0.122149
0.0958587
0.0748985
0.0582667
0.0451314
0.034806
0.026727
0.0204349
0.0155569
0.0117925
0.00890052
0.00668881
0.00500481
0.00372816
0.00276434
0.00203948
0.00149611
0.00108965
0.000785613
0.000557287
0.000383916
0.000249163
0.000139882
4.50649e-05
1.75823
5.23681
8.60326
11.7879
14.7284
17.3718
19.6764
21.6125
23.1628
24.3222
25.0966
25.502
25.5627
25.3095
24.7779
24.0067
23.0357
21.905
20.6532
19.3167
17.9288
16.5195
15.1147
13.7367
12.4036
11.1298
9.92634
8.80084
7.75817
6.80073
5.9288
5.14093
4.43429
3.805
3.24838
2.75928
2.33222
1.96162
1.64193
1.36778
1.134
0.935773
0.7686
0.628377
0.51138
0.41427
0.334081
0.268201
0.214348
0.170545
0.135091
0.106534
0.0836442
0.0653844
0.0508874
0.0394321
0.0304228
0.0233703
0.017875
0.0136129
0.0103224
0.00779356
0.00585877
0.00438508
0.00326747
0.00242343
0.00178845
0.0013123
0.000956005
0.000689409
0.000489142
0.000337029
0.000218764
0.000122828
3.95727e-05
1.44446
4.30307
7.07191
9.69506
12.1222
14.3105
16.2256
17.8428
19.1471
20.1331
20.8045
21.1728
21.2567
21.0802
20.6714
20.0612
19.2818
18.3657
17.3445
16.2483
15.1049
13.9393
12.7733
11.626
10.5128
9.44642
8.43635
7.48955
6.61057
5.8018
5.06386
4.39587
3.79575
3.26046
2.78628
2.36902
2.0042
1.68721
1.41345
1.1784
0.97775
0.807435
0.663664
0.542957
0.442155
0.358417
0.289215
0.232317
0.185773
0.147888
0.117204
0.092474
0.0726394
0.0568078
0.0442318
0.0342891
0.0264656
0.0203383
0.0155618
0.0118555
0.00899294
0.00679203
0.00510752
0.00382397
0.00285021
0.00211456
0.00156093
0.00114565
0.000834808
0.000602146
0.000427315
0.000294481
0.000191174
0.000107348
3.45871e-05
1.18437
3.52884
5.80144
7.9573
9.9559
11.7625
13.349
14.6949
15.7874
16.6211
17.1983
17.5273
17.6223
17.502
17.1888
16.707
16.0828
15.3423
14.5116
13.6151
12.676
11.715
10.7506
9.79879
8.87277
7.98337
7.13899
6.34576
5.60782
4.92751
4.30565
3.74177
3.23435
2.78104
2.37891
2.02455
1.71433
1.44443
1.21107
1.01048
0.83907
0.693423
0.570356
0.466938
0.380497
0.30863
0.24919
0.200283
0.160245
0.127634
0.101205
0.0798899
0.0627843
0.049123
0.038265
0.0296761
0.0229144
0.0176161
0.013484
0.0102763
0.00779777
0.00589135
0.00443165
0.00331898
0.00247456
0.00183639
0.00135597
0.000995475
0.000725559
0.000523465
0.000371556
0.000256101
0.000166282
9.33801e-05
3.00883e-05
0.969047
2.88773
4.74889
6.51655
8.15808
9.64537
10.9556
12.0717
12.9828
13.6842
14.1766
14.4664
14.5642
14.4848
14.2456
13.8662
13.3673
12.7703
12.0962
11.3652
10.5963
9.80663
9.01168
8.22481
7.4573
6.71837
6.01525
5.35334
4.73635
4.16649
3.64466
3.17071
2.74353
2.36135
2.02182
1.72224
1.45962
1.23088
1.03286
0.862464
0.716704
0.592729
0.487875
0.399681
0.325902
0.264511
0.213696
0.171854
0.137576
0.109637
0.0869782
0.0686936
0.0540108
0.0422779
0.0329473
0.0255629
0.0197464
0.0151866
0.0116288
0.00886566
0.0067297
0.00508612
0.00382718
0.00286718
0.00213835
0.00158735
0.0011724
0.000860941
0.00062766
0.000452939
0.000321564
0.000221683
0.000143956
8.08508e-05
2.60526e-05
0.791076
2.35771
3.87833
5.32411
6.66884
7.88979
8.9684
9.89068
10.6475
11.2344
11.6517
11.904
11.9993
11.9491
11.7671
11.4689
11.0712
10.5911
10.0456
9.45122
8.82352
8.17675
7.52369
6.87551
6.2417
5.63009
5.04687
4.49673
3.98295
3.50757
3.07153
2.67485
2.31678
1.99596
1.71055
1.4584
1.23708
1.04408
0.876815
0.732732
0.609351
0.504307
0.415382
0.340519
0.277839
0.225641
0.182402
0.146771
0.11756
0.0937357
0.0744015
0.0587897
0.0462457
0.0362161
0.0282358
0.0219166
0.0169367
0.0130308
0.00998183
0.00761283
0.00578075
0.00437041
0.00328971
0.00246531
0.00183919
0.00136568
0.00100896
0.000741116
0.000540439
0.000390088
0.000277002
0.000190998
0.000124048
6.96768e-05
2.24532e-05
0.644242
1.92033
3.15965
4.33912
5.4377
6.4371
7.32224
8.08167
8.70773
9.19657
9.54804
9.76536
9.8548
9.82516
9.68728
9.45351
9.13713
8.75194
8.31171
7.82985
7.31905
6.79102
6.25633
5.72427
5.20278
4.69845
4.21654
3.7611
3.33498
2.94003
2.57718
2.24658
1.94771
1.67957
1.4407
1.2294
1.04371
0.881598
0.740946
0.61966
0.515696
0.427099
0.352028
0.288773
0.235767
0.19159
0.154967
0.124766
0.0999895
0.0797677
0.0633468
0.0500791
0.0394123
0.0308787
0.0240851
0.0187028
0.014459
0.0111289
0.00852817
0.00650656
0.00494245
0.00373792
0.00281454
0.00210989
0.00157452
0.00116949
0.000864261
0.000635001
0.000463174
0.000334398
0.000237507
0.000163795
0.000106396
5.97684e-05
1.92612e-05
0.52334
1.56013
2.56757
3.52721
4.4222
5.23782
5.96187
6.58501
7.10089
7.50616
7.80043
7.98601
8.06766
8.05222
7.94819
7.76534
7.51427
7.20603
6.85172
6.4622
6.0478
5.61811
5.18182
4.7466
4.31908
3.90475
3.50808
3.1325
2.78049
2.4537
2.153
1.87861
1.63022
1.40706
1.20801
1.03171
0.876606
0.741036
0.623289
0.52165
0.434442
0.360055
0.296967
0.243763
0.199143
0.161926
0.13105
0.105569
0.0846509
0.0675665
0.0536844
0.0424611
0.0334326
0.0262057
0.0204491
0.015886
0.0122864
0.00946042
0.00725234
0.0055352
0.00420609
0.0031821
0.00239682
0.00179732
0.00134168
0.000996837
0.000736879
0.000541555
0.000395115
0.000285329
0.000202699
0.000139816
9.08339e-05
5.10316e-05
1.64466e-05
0.42401
1.26415
2.08089
2.85952
3.58655
4.25017
4.84054
5.35006
5.7735
6.10799
6.35301
6.51022
6.58322
6.57731
6.49916
6.35649
6.15772
5.91169
5.62732
5.31337
4.97822
4.62969
4.27489
3.92014
3.5709
3.23178
2.90651
2.59799
2.30836
2.03905
1.79087
1.56409
1.35851
1.17357
1.00841
0.861955
0.732958
0.620086
0.52195
0.437155
0.364329
0.302153
0.249374
0.204828
0.167438
0.136227
0.110315
0.088915
0.0713349
0.0569675
0.0452857
0.0358355
0.0282291
0.0221369
0.0172817
0.013431
0.0103919
0.00800482
0.00613881
0.00468704
0.00356285
0.00269639
0.00203164
0.00152397
0.00113797
0.000845741
0.000625364
0.000459725
0.000335498
0.000242335
0.000172193
0.000118796
7.71894e-05
4.33705e-05
1.39783e-05
0.342596
1.02152
1.68182
2.31178
2.90063
3.43891
3.91871
4.33388
4.6801
4.95497
5.15792
5.29012
5.3543
5.35456
5.29613
5.18508
5.02811
4.83225
4.60464
4.35235
4.08214
3.80036
3.5128
3.22465
2.9404
2.66386
2.39814
2.14568
1.90831
1.68726
1.48326
1.29659
1.12716
0.974541
0.838087
0.716943
0.610125
0.516559
0.435128
0.364697
0.304152
0.252414
0.208459
0.171328
0.140139
0.114084
0.0924354
0.074545
0.0598379
0.0478106
0.0380253
0.0301047
0.0237256
0.0186137
0.0145375
0.011303
0.00874898
0.00674193
0.00517227
0.00395052
0.00300405
0.00227426
0.00171415
0.00128623
0.000960743
0.000714236
0.000528276
0.000388458
0.000283562
0.00020487
0.000145603
0.000100471
6.52921e-05
3.66896e-05
1.18258e-05
0.276034
0.823121
1.35542
1.86361
2.3391
2.77435
3.163
3.5001
3.78212
4.00704
4.1743
4.28471
4.34036
4.34441
4.30093
4.21471
4.09105
3.93554
3.75389
3.55175
3.33458
3.1075
2.87524
2.642
2.41147
2.18679
1.97054
1.76475
1.57097
1.39025
1.22325
1.07023
0.931158
0.805744
0.693481
0.593703
0.505631
0.428406
0.36113
0.302888
0.252775
0.209914
0.17347
0.142659
0.116758
0.095105
0.0771013
0.0622124
0.0499646
0.039942
0.0317828
0.0251745
0.0198492
0.0155795
0.0121729
0.00946851
0.00733194
0.00565217
0.00433787
0.00331442
0.00252124
0.0019094
0.00143962
0.00108057
0.000807382
0.000600403
0.000444207
0.000326729
0.000238563
0.0001724
0.000122553
8.45813e-05
5.49745e-05
3.08952e-05
9.95863e-06
0.221758
0.661328
1.08918
1.4979
1.88068
2.23149
2.54527
2.81801
3.04686
3.23014
3.36732
3.45897
3.50665
3.5128
3.48062
3.41386
3.31668
3.19354
3.04898
2.88751
2.71352
2.53114
2.34417
2.15603
1.96975
1.78788
1.61254
1.44545
1.28786
1.14071
1.00453
0.879605
0.765931
0.6633
0.571328
0.489497
0.417191
0.353728
0.298388
0.250435
0.209138
0.173788
0.143705
0.118253
0.0968396
0.0789251
0.0640195
0.0516844
0.0415307
0.0332166
0.026444
0.0209556
0.0165303
0.0129802
0.0101463
0.00789543
0.00611628
0.00471684
0.00362139
0.002768
0.00210632
0.00159571
0.00120351
0.000903639
0.000675388
0.000502396
0.000371803
0.000273548
0.000199784
0.000144411
0.000102679
7.08781e-05
4.6075e-05
2.58965e-05
8.34784e-06
0.177625
0.529751
0.872605
1.20032
1.5075
1.78935
2.04182
2.26172
2.44673
2.59547
2.70745
2.78306
2.82349
2.83062
2.80693
2.75537
2.67921
2.58197
2.46725
2.33867
2.19972
2.05371
1.90371
1.75249
1.6025
1.45582
1.3142
1.17903
1.05139
0.932028
0.821439
0.719861
0.627326
0.543687
0.468653
0.401823
0.342714
0.290784
0.245458
0.206148
0.172266
0.143237
0.118515
0.0975821
0.079958
0.0652028
0.0529175
0.0427439
0.0343641
0.0274983
0.0219022
0.0173644
0.0137037
0.0107653
0.00841861
0.00655367
0.00507889
0.00391832
0.00300945
0.00230109
0.00175164
0.00132746
0.00100152
0.000752218
0.000562387
0.000418463
0.000309776
0.000227975
0.000166543
0.000120412
8.56336e-05
5.91232e-05
3.84394e-05
2.16072e-05
6.96558e-06
0.141841
0.423058
0.696955
0.958901
1.20462
1.43032
1.63278
1.80945
1.95845
2.07866
2.16965
2.23169
2.26566
2.27302
2.25568
2.21596
2.15642
2.07985
1.98909
1.88701
1.7764
1.6599
1.53997
1.41886
1.29852
1.18066
1.06669
0.957772
0.854777
0.758346
0.668893
0.586634
0.511614
0.443733
0.382773
0.328424
0.280307
0.237995
0.201031
0.168945
0.141266
0.117534
0.097306
0.0801655
0.0657241
0.053625
0.0435442
0.0351909
0.0283061
0.0226617
0.0180584
0.0143236
0.0113089
0.00888791
0.00695335
0.0054152
0.00419827
0.00324017
0.00248952
0.00190423
0.00145005
0.00109927
0.000829632
0.000623314
0.000466156
0.000346962
0.000256919
0.000189127
0.000138199
9.99425e-05
7.1092e-05
4.90926e-05
3.19228e-05
1.79461e-05
5.78562e-06
0.112913
0.336799
0.554922
0.763631
0.959553
1.13969
1.30149
1.44291
1.56247
1.65924
1.73285
1.78347
1.81178
1.81888
1.80628
1.77576
1.72935
1.66922
1.59763
1.51684
1.42907
1.33642
1.24087
1.14421
1.04801
0.953649
0.862285
0.774848
0.692065
0.614464
0.542395
0.476048
0.415475
0.360609
0.311288
0.267274
0.228271
0.193942
0.163926
0.137849
0.115335
0.0960168
0.0795384
0.0655649
0.0537834
0.0439061
0.035671
0.0288427
0.0232113
0.0185917
0.0148221
0.0117619
0.00929053
0.00730472
0.00571713
0.00445424
0.00345461
0.00266724
0.00205007
0.00156865
0.00119492
0.000906171
0.000684119
0.00051415
0.000384633
0.000286368
0.000212111
0.000156184
0.000114156
8.25753e-05
5.87509e-05
4.0578e-05
2.63901e-05
1.48374e-05
4.78365e-06
0.0896001
0.267277
0.440427
0.60618
0.761883
0.905172
1.03403
1.14684
1.24241
1.32
1.37928
1.42038
1.44379
1.45036
1.44126
1.41788
1.38179
1.33471
1.27841
1.21467
1.14526
1.07183
0.995964
0.919083
0.84246
0.767197
0.694225
0.624302
0.558021
0.495817
0.437984
0.384686
0.335976
0.291811
0.252072
0.216576
0.185092
0.157358
0.133087
0.111985
0.0937516
0.0780939
0.0647283
0.0533863
0.0438169
0.0357888
0.0290911
0.0235341
0.0189484
0.0151844
0.0121112
0.00961504
0.00759803
0.0059765
0.0046795
0.00364727
0.00282984
0.00218568
0.00168055
0.00128637
0.000980228
0.000743604
0.00056157
0.00042218
0.000315927
0.000235284
0.000174322
0.000128394
9.38683e-05
6.7916e-05
4.83315e-05
3.33878e-05
2.17172e-05
1.22114e-05
3.93726e-06
0.0708712
0.21142
0.348423
0.47963
0.602958
0.716549
0.818817
0.90848
0.984592
1.04655
1.09409
1.12728
1.1465
1.15241
1.14589
1.12802
1.10004
1.06329
1.01915
0.969022
0.9143
0.856303
0.796274
0.735347
0.674536
0.614725
0.556661
0.500957
0.448093
0.398427
0.352201
0.309556
0.270544
0.235139
0.203252
0.174743
0.149436
0.127124
0.107582
0.0905777
0.0758742
0.0632383
0.0524444
0.0432784
0.0355396
0.029043
0.0236197
0.0191172
0.0153995
0.0123462
0.00985188
0.00782481
0.006186
0.00486784
0.00381299
0.00297307
0.00230762
0.001783
0.00137143
0.00105012
0.000800475
0.000607444
0.00045889
0.000345094
0.00025832
0.000192438
0.000142617
0.00010507
7.68362e-05
5.5606e-05
3.95798e-05
2.73472e-05
1.77907e-05
1.00046e-05
3.22591e-06
0.0558735
0.166688
0.274732
0.378247
0.475603
0.565343
0.646222
0.71723
0.777617
0.826899
0.86486
0.89154
0.907221
0.912401
0.907765
0.894153
0.872522
0.843912
0.80941
0.770119
0.727125
0.681471
0.634139
0.586027
0.537941
0.490585
0.444557
0.400348
0.358348
0.318846
0.282044
0.24806
0.216941
0.188673
0.163191
0.14039
0.120132
0.102257
0.0865891
0.0729452
0.0611388
0.0509852
0.0423057
0.0349302
0.0286991
0.0234648
0.0190925
0.0154604
0.0124597
0.00999386
0.00797833
0.0063395
0.00501388
0.00394711
0.00309301
0.00241262
0.00187332
0.00144797
0.00111413
0.000853398
0.000650742
0.000493981
0.000373293
0.000280811
0.000210264