/*--------------------------------*- C++ -*----------------------------------*\
  =========                 |
  \\      /  F ield         | OpenFOAM: The Open Source CFD Toolbox
   \\    /   O peration     | Website:  https://openfoam.org
    \\  /    A nd           | Version:  10
     \\/     M anipulation  |
\*---------------------------------------------------------------------------*/
FoamFile
{
    format      ascii;
    class       volScalarField;
    location    "454";
    object      gradTx;
}
// * * * * * * * * * * * * * * * * * * * * * * * * * * * * * * * * * * * * * //

dimensions      [0 -1 0 1 0 0 0];

internalField   nonuniform List<scalar> 
11250
(
14306.4
8123.56
5342.51
3871.94
2985.3
2395.3
1973.35
1655.25
1405.85
1204.48
1038.21
898.557
779.716
677.583
589.161
512.198
444.958
386.072
334.434
289.133
249.406
214.6
184.15
157.564
134.404
114.282
96.8504
81.7958
68.8377
57.7229
48.2241
40.1368
33.2779
27.484
22.6096
18.5256
15.1182
12.2875
9.94586
8.01725
6.43575
5.14461
4.09519
3.24605
2.56205
2.01355
1.5757
1.22775
0.952516
0.735784
0.565902
0.43335
0.330401
0.250809
0.189557
0.142637
0.10686
0.0797047
0.0591889
0.0437602
0.0322106
0.0236045
0.0172211
0.0125079
0.00904352
0.0065083
0.00466082
0.0033196
0.00234874
0.00164679
0.00113806
0.000765938
0.000487605
0.000269971
8.63416e-05
4102.23
4722.28
4032.88
3289.19
2690.12
2229
1871.53
1588.78
1360.28
1172
1014.35
880.601
765.935
666.84
580.678
505.429
439.512
381.661
330.842
286.197
246.998
212.62
182.521
156.222
133.298
113.371
96.1002
81.1789
68.331
57.3075
47.8842
39.8593
33.0519
27.3004
22.4608
18.4055
15.0215
12.2098
9.88374
7.96771
6.39639
5.11344
4.07061
3.22673
2.54692
2.00175
1.56653
1.22066
0.947044
0.731583
0.562689
0.430903
0.328544
0.249406
0.188502
0.141846
0.10627
0.0792667
0.0588648
0.0435215
0.0320355
0.0234767
0.0171281
0.0124405
0.00899497
0.00647346
0.00463594
0.00330192
0.00233626
0.00163806
0.00113204
0.000761894
0.000485035
0.00026855
8.58879e-05
1482.62
2630.98
2778.36
2562.97
2258.46
1960.79
1696.99
1470.32
1276.9
1111.51
969.339
846.4
739.5
646.116
564.242
492.27
428.895
373.041
323.81
280.438
242.268
208.728
179.314
153.578
131.118
111.574
94.6194
79.9605
67.33
56.4866
47.2122
39.3105
32.6048
26.9371
22.1665
18.1676
14.83
12.0561
9.76068
7.86958
6.3184
5.05169
4.02188
3.18843
2.51693
1.97835
1.54834
1.20658
0.936192
0.72325
0.556315
0.426048
0.324861
0.246624
0.186409
0.140278
0.1051
0.0783972
0.0582216
0.0430476
0.0316879
0.0232228
0.0169435
0.0123068
0.00889855
0.00640426
0.00458651
0.00326681
0.00231147
0.00162072
0.00112008
0.000753859
0.000479927
0.000265725
8.49851e-05
680.045
1541.16
1887.46
1927.04
1821.42
1660.44
1487.33
1320.8
1167.9
1030.37
907.809
798.975
702.436
616.806
540.835
473.425
413.621
360.595
313.624
272.075
235.385
203.053
174.63
149.71
127.925
108.939
92.4469
78.1715
65.8591
55.2794
46.2236
38.5026
31.9464
26.4019
21.7326
17.817
14.5475
11.8292
9.5791
7.72473
6.20327
4.9605
3.94992
3.13185
2.47261
1.94378
1.52147
1.18578
0.920152
0.71093
0.546892
0.41887
0.319415
0.242509
0.183313
0.137958
0.103369
0.077111
0.05727
0.0423465
0.0311736
0.022847
0.0166702
0.0121089
0.00875586
0.00630185
0.00451336
0.00321483
0.00227478
0.00159505
0.00110238
0.000741962
0.000472364
0.000261541
8.36479e-05
376.614
966.663
1304.09
1437.42
1441.18
1373.93
1273.02
1159.86
1045.89
936.818
835.225
742.029
657.305
580.72
511.758
449.843
394.393
344.848
300.684
261.412
226.583
195.778
168.613
144.732
123.808
105.536
89.6381
75.8559
63.9533
53.714
44.9405
37.4535
31.0907
25.7059
21.1682
17.3606
14.1796
11.5337
9.34248
7.53593
6.05315
4.84157
3.85604
3.05803
2.41478
1.89864
1.48639
1.15861
0.8992
0.694837
0.53458
0.409489
0.312298
0.23713
0.179265
0.134925
0.101105
0.0754292
0.0560255
0.0414296
0.0305009
0.0223556
0.0163127
0.01185
0.00856917
0.00616784
0.00441763
0.00314681
0.00222676
0.00156145
0.0010792
0.00072639
0.000462464
0.000256066
8.18975e-05
236.524
645.277
925.61
1078.51
1133.34
1122.75
1072.88
1001.86
921.31
838.279
756.867
679.333
606.826
539.835
478.468
422.61
372.028
326.422
285.465
248.819
216.148
187.126
161.437
138.782
118.877
101.454
86.2627
73.0693
61.6571
51.8257
43.3913
36.1856
30.0558
24.8636
20.4846
16.8076
13.7336
11.1752
9.05531
7.30669
5.8708
4.69705
3.74194
2.96827
2.34444
1.84374
1.44369
1.12555
0.873696
0.675243
0.519588
0.398064
0.303627
0.230578
0.174334
0.131229
0.0983469
0.0733791
0.0545083
0.0403116
0.0296805
0.0217562
0.0158767
0.0115342
0.00834144
0.00600436
0.00430084
0.00306381
0.00216817
0.00152045
0.00105092
0.000707386
0.000450381
0.000249382
7.9761e-05
160.89
452.79
675.354
818.742
892.285
912.489
895.764
855.485
801.484
740.555
677.191
614.266
553.55
496.084
442.432
392.848
347.388
305.984
268.486
234.7
204.401
177.349
153.303
132.019
113.259
96.7926
82.4011
69.8761
59.0219
49.6559
41.609
34.7254
28.8628
23.8917
19.6953
16.1685
13.2179
10.7604
8.72288
7.04119
5.65952
4.52954
3.60962
2.86414
2.26282
1.78
1.39412
1.08715
0.844066
0.652473
0.502161
0.384782
0.293545
0.222957
0.168597
0.126929
0.0951371
0.0709933
0.0527425
0.0390102
0.0287255
0.0210584
0.015369
0.0111664
0.00807621
0.00581395
0.00416479
0.00296713
0.0020999
0.00147268
0.00101796
0.00068524
0.000436301
0.000241593
7.7271e-05
115.293
330.101
505.039
629.875
705.901
740.74
744.02
724.856
690.796
647.625
599.561
549.568
499.667
451.197
405.013
361.627
321.317
284.198
250.274
219.473
191.671
166.713
144.422
124.612
107.089
91.6611
78.1412
66.3468
56.1044
47.25
39.6301
33.1022
27.5351
22.8091
18.8152
15.4554
12.642
10.2969
8.35115
6.74413
5.423
4.34192
3.46135
2.74742
2.17129
1.7085
1.33849
1.04404
0.810795
0.626899
0.482583
0.369856
0.282213
0.214389
0.162146
0.122093
0.0915265
0.0683091
0.0507555
0.0375456
0.0276505
0.0202728
0.0147974
0.0107523
0.0077775
0.00559948
0.00401154
0.00285821
0.00202299
0.00141885
0.000980827
0.000660283
0.000420432
0.000232814
7.44646e-05
85.6233
247.728
385.564
490.837
561.986
602.081
616.478
611.082
591.352
561.871
526.262
487.268
446.905
406.613
367.389
329.905
294.589
261.691
231.333
203.545
178.289
155.482
135.009
116.733
100.507
86.1727
73.5741
62.5552
52.9642
44.6561
37.4933
31.3471
26.0978
21.6357
17.8604
14.681
12.0161
9.7928
7.94656
6.4206
5.16525
4.13734
3.29959
2.62002
2.07133
1.63039
1.2777
0.996911
0.77441
0.598922
0.46116
0.353519
0.269806
0.205007
0.155081
0.116794
0.0875698
0.0653671
0.0485773
0.0359397
0.0264717
0.0194112
0.0141703
0.010298
0.00744976
0.00536412
0.00384334
0.00273865
0.00193856
0.00135975
0.000940052
0.000632879
0.000403006
0.000223174
7.13827e-05
65.2399
190.052
299.363
386.902
450.358
490.591
510.417
513.525
503.711
484.441
458.655
428.733
396.529
363.446
330.52
298.493
267.881
239.022
212.125
187.294
164.564
143.91
125.27
108.554
93.6508
80.4397
68.7916
58.5756
49.6617
41.9231
35.2383
29.4921
24.5767
20.3924
16.8475
13.8587
11.3509
9.25652
7.51582
6.07591
4.89045
3.9191
3.12694
2.48396
1.96454
1.5469
1.21269
0.946492
0.735468
0.568969
0.438216
0.336017
0.256511
0.194949
0.147505
0.111111
0.0833255
0.0622105
0.0462397
0.0342161
0.0252062
0.0184861
0.0134969
0.00980996
0.00709767
0.00511126
0.00366261
0.00261017
0.00184781
0.00129623
0.000896218
0.000603416
0.000384269
0.000212808
6.80687e-05
50.6619
148.29
235.614
307.986
363.137
400.916
422.691
430.693
427.491
415.624
397.395
374.774
349.38
322.503
295.138
268.037
241.751
216.669
193.051
171.059
150.777
132.23
115.399
100.232
86.6527
74.5701
63.882
54.4805
46.256
39.0993
32.9042
27.5689
22.9974
19.0998
15.7932
13.0019
10.657
8.69662
7.06572
5.71545
4.60288
3.69055
2.94602
2.34131
1.8525
1.45927
1.14442
0.893525
0.694543
0.537478
0.414085
0.317603
0.242519
0.184361
0.139527
0.105126
0.0788539
0.0588841
0.0437757
0.0323988
0.0238717
0.0175103
0.0127866
0.00929508
0.00672613
0.00484438
0.00347183
0.00247452
0.00175199
0.00122915
0.000849923
0.000572296
0.000364477
0.000201857
6.45677e-05
39.9101
117.226
187.462
247.182
294.411
328.588
350.275
360.78
361.805
355.169
342.629
325.769
305.953
284.313
261.764
239.023
216.639
195.017
174.448
155.127
137.174
120.65
105.57
91.9134
79.6333
68.6645
58.9284
50.3385
42.8034
36.2307
30.5287
25.6084
21.3849
17.7782
14.7139
12.1236
9.94494
8.12154
6.603
5.34456
4.30675
3.45504
2.75946
2.19411
1.73684
1.36875
1.07386
0.838758
0.652208
0.504888
0.389102
0.298532
0.228022
0.173389
0.131257
0.098919
0.0742155
0.0554327
0.0412186
0.0305124
0.0224861
0.016497
0.0120487
0.00876016
0.00634006
0.00456701
0.00327353
0.0023335
0.00165236
0.00115939
0.000801775
0.000539927
0.000343888
0.000190465
6.09256e-05
31.7874
93.6116
150.44
199.715
239.803
270.02
290.5
301.974
305.55
302.513
294.177
281.789
266.467
249.18
230.736
211.792
192.868
174.366
156.585
139.735
123.961
109.347
95.9345
83.7265
72.7005
62.8131
54.0064
46.212
39.3558
33.3601
28.1469
23.6392
19.7627
16.4467
13.625
11.2365
9.22491
7.53937
6.13412
4.96839
4.00616
3.2158
2.5698
2.04438
1.6191
1.27655
1.00196
0.78292
0.609023
0.47163
0.363597
0.279054
0.213211
0.162174
0.122801
0.0925709
0.0694702
0.0519008
0.0386011
0.028581
0.0210671
0.015459
0.0112927
0.008212
0.00594436
0.00428267
0.0030702
0.00218888
0.00155017
0.00108783
0.000752377
0.000506714
0.000322761
0.000178774
5.71877e-05
25.5324
75.3431
121.549
162.231
196.069
222.389
241.105
252.599
257.579
256.941
251.657
242.691
230.947
217.23
202.237
186.555
170.66
154.932
139.662
125.067
111.302
98.4662
86.6178
75.7795
65.9469
57.0948
49.1822
42.157
35.9596
30.5262
25.7909
21.6877
18.1524
15.1229
12.541
10.3521
8.50627
6.95769
5.66515
4.59181
3.70496
2.97588
2.37947
1.894
1.50078
1.18384
0.929622
0.726708
0.565528
0.438116
0.337883
0.25941
0.198267
0.150854
0.114263
0.0861592
0.0646758
0.0483312
0.035955
0.026628
0.0196319
0.0144088
0.0105277
0.00765716
0.00554375
0.00399475
0.00286427
0.00204239
0.00144664
0.00101532
0.000702315
0.00047305
0.000301345
0.000166923
5.33983e-05
20.6414
61.0077
98.7252
132.34
160.797
183.486
200.221
211.176
216.793
217.691
214.581
208.203
199.273
188.454
176.334
163.423
150.148
136.855
123.822
111.258
99.3218
88.1198
77.7209
68.161
59.4496
51.5757
44.5124
38.2212
32.6553
27.7628
23.4888
19.7774
16.5733
13.8227
11.4747
9.48112
7.7976
6.38342
5.20167
4.21926
3.40673
2.73812
2.1907
1.74475
1.38326
1.0917
0.857679
0.670774
0.522225
0.404734
0.312259
0.239824
0.183361
0.139559
0.105741
0.0797568
0.0598868
0.0447646
0.0333103
0.0246753
0.0181965
0.0133583
0.00976228
0.00710187
0.00514273
0.00370647
0.00265804
0.00189566
0.00134292
0.000942667
0.000652146
0.00043931
0.000279879
0.000155042
4.95996e-05
16.7695
49.6277
80.5096
108.305
132.173
151.586
166.323
176.434
182.19
184.013
182.421
177.976
171.24
162.752
153.001
142.423
131.39
120.216
109.152
98.3995
88.1093
78.3916
69.3204
60.9399
53.2696
46.3093
40.0434
34.4445
29.4768
25.0987
21.2648
17.9283
15.0421
12.56
10.4376
8.63277
7.1065
5.82271
4.74864
3.85474
3.11464
2.50505
2.0055
1.59821
1.2678
1.0011
0.786902
0.615713
0.479574
0.371837
0.286995
0.220505
0.168652
0.128408
0.097324
0.0734312
0.0551536
0.0412383
0.0306946
0.0227436
0.0167761
0.0123185
0.0090044
0.00655194
0.00474548
0.00342084
0.00245367
0.00175021
0.0012401
0.000870623
0.000602391
0.000405843
0.000258583
0.000143256
4.58307e-05
13.6739
40.5091
65.851
88.845
108.823
125.339
138.168
147.296
152.879
155.204
154.645
151.626
146.588
139.96
132.148
123.518
114.391
105.041
95.6972
86.5425
77.7202
69.3375
61.4699
54.1662
47.4525
41.3365
35.8113
30.8585
26.4514
22.557
19.1386
16.1572
13.573
11.3465
9.4393
7.81505
6.43947
5.28089
4.31037
3.50173
2.8315
2.27891
1.82566
1.45579
1.1555
0.912931
0.717971
0.562056
0.437986
0.339743
0.262334
0.201638
0.15428
0.117508
0.0890934
0.0672432
0.0505215
0.0377861
0.0281331
0.0208512
0.0153843
0.0112993
0.00826134
0.00601262
0.0043558
0.00314058
0.00225309
0.00160744
0.00113914
0.000799877
0.000553524
0.000372969
0.000237663
0.000131676
4.21275e-05
11.1792
33.1473
53.9753
73.0007
89.6928
103.678
114.75
122.857
128.083
130.622
130.743
128.764
125.028
119.877
113.642
106.627
99.107
91.3185
83.4634
75.7072
68.1821
60.9893
54.2028
47.873
42.0298
36.6864
31.8424
27.4867
23.5997
20.156
17.1259
14.4774
12.1771
10.1915
8.48778
7.0345
5.80192
4.76238
3.89048
3.16315
2.55967
2.06161
1.65269
1.3187
1.04732
0.827933
0.651475
0.510261
0.397817
0.308726
0.238488
0.183386
0.14037
0.106953
0.0811199
0.0612461
0.0460307
0.034438
0.0256479
0.0190147
0.014033
0.0103095
0.00753953
0.00548859
0.00397707
0.00286813
0.00205805
0.00146859
0.00104093
0.00073104
0.000505967
0.000340971
0.000217297
0.000120402
3.85222e-05
9.15599
27.1681
44.3022
60.0418
73.9644
85.7622
95.2495
102.36
107.133
109.695
110.242
109.011
106.267
102.281
97.3212
91.6394
85.4656
79.0033
72.4282
65.887
59.4992
53.3583
47.5347
42.0781
37.02
32.3774
28.1545
24.3454
20.9366
17.9087
15.2382
12.8989
10.863
9.10239
7.58915
6.2963
5.19816
4.27073
3.49188
2.84139
2.30108
1.85468
1.48783
1.18794
0.944049
0.746731
0.587905
0.460713
0.359367
0.279019
0.215637
0.165885
0.127026
0.0968236
0.0734642
0.0554855
0.0417153
0.0312195
0.023258
0.0172479
0.0127327
0.00935672
0.0068445
0.00498385
0.00361218
0.00260557
0.00187006
0.00133471
0.000946216
0.000664644
0.000460088
0.000310097
0.000197645
0.000109521
3.50426e-05
7.50704
22.289
36.3899
49.4052
60.9982
70.9163
78.9978
85.1721
89.4511
91.9177
92.7106
92.0082
90.014
86.9429
83.0101
78.4221
73.3709
68.0289
62.5473
57.0545
51.6568
46.439
41.4663
36.7863
32.4308
28.4185
24.7568
21.4439
18.471
15.8235
13.4831
11.4284
9.63671
8.0844
6.7479
5.60422
4.63136
3.80861
3.11677
2.53827
2.05721
1.65935
1.33207
1.06428
0.846314
0.669823
0.527655
0.41372
0.322876
0.250809
0.193924
0.149248
0.114334
0.0871843
0.0661757
0.0499989
0.0376034
0.0281515
0.020979
0.0155626
0.0114919
0.00844726
0.00618087
0.00450177
0.00326357
0.00235466
0.00169035
0.0012067
0.00085564
0.000601133
0.000416194
0.000280555
0.000178837
9.91077e-05
3.1712e-05
6.15798
18.2932
29.8971
40.6514
50.2876
58.5992
65.448
70.7654
74.5471
76.8459
77.7604
77.424
75.9931
73.6367
70.5273
66.8333
62.7135
58.3129
53.7602
49.1666
44.6252
40.2119
35.986
31.9918
28.2601
24.8104
21.652
18.786
16.2071
13.9048
11.8648
10.07
8.5019
7.14078
5.96691
4.9608
4.1037
3.37785
2.76671
2.25507
1.82914
1.4765
1.18613
0.948315
0.754581
0.597584
0.47102
0.369517
0.28853
0.22424
0.173464
0.133561
0.102361
0.0780864
0.0592933
0.0448157
0.0337172
0.0252507
0.0188235
0.0139679
0.0103174
0.00758613
0.0055523
0.00404502
0.00293319
0.0021168
0.00151995
0.00108529
0.000769712
0.000540868
0.000374535
0.000252511
0.00016098
8.922e-05
2.85496e-05
5.05118
15.012
24.5565
33.4334
41.4282
48.3726
54.1502
58.6974
62.0013
64.0942
65.046
64.9562
63.9448
62.1445
59.693
56.7269
53.3767
49.7634
45.9958
42.1691
38.3641
34.6476
31.0726
27.6798
24.4982
21.547
18.8365
16.3699
14.1446
12.153
10.3844
8.82511
7.46006
6.27308
5.24765
4.36739
3.6164
2.97954
2.44263
1.99261
1.61754
1.30668
1.05046
0.840424
0.669165
0.530267
0.418206
0.328267
0.256457
0.199415
0.154334
0.118887
0.0911548
0.0695667
0.0528452
0.0399573
0.030073
0.0225295
0.0168005
0.0124708
0.00921442
0.0067771
0.00496157
0.00361564
0.00262251
0.00189306
0.00135961
0.000971028
0.00068882
0.000484123
0.000335301
0.000226095
0.000144158
7.9904e-05
2.55697e-05
4.14132
12.3128
20.1568
27.4744
34.0942
39.8795
44.7329
48.5976
51.4563
53.3279
54.2618
54.3319
53.6304
52.261
50.3334
47.9578
45.2411
42.2836
39.1765
36.0006
32.8252
29.7087
26.6978
23.829
21.1292
18.6167
16.3021
14.19
12.2795
10.5657
9.04038
7.69284
6.51088
5.48127
4.59032
3.82431
3.16983
2.61406
2.14492
1.75122
1.42273
1.15019
0.925325
0.740818
0.590243
0.468018
0.369331
0.290068
0.226736
0.176395
0.136585
0.105264
0.0807457
0.0616491
0.0468499
0.035438
0.0266816
0.0199959
0.0149163
0.0110758
0.00818628
0.00602273
0.00441057
0.003215
0.00233254
0.00168417
0.00120988
0.000864292
0.000613239
0.00043109
0.000298627
0.000201398
0.000128428
7.11918e-05
2.27829e-05
3.39243
10.0897
16.5286
22.5515
28.0213
32.827
36.8879
40.1544
42.6077
44.2578
45.1392
45.3072
44.8322
43.7954
42.2837
40.3858
38.1889
35.7755
33.2216
30.5953
27.9557
25.3529
22.8279
20.413
18.1326
16.0036
14.0368
12.2371
10.6052
9.13787
7.82907
6.67053
5.65245
4.76404
3.99401
3.33095
2.76361
2.28119
1.87345
1.53088
1.24471
1.00704
0.810754
0.649541
0.51786
0.410882
0.324437
0.254954
0.199398
0.155208
0.120239
0.0927105
0.0711484
0.0543453
0.0413165
0.0312649
0.0235486
0.0176544
0.0131742
0.00978556
0.00723495
0.00532447
0.00390037
0.0028439
0.00206386
0.00149057
0.00107107
0.000765311
0.000543131
0.000381886
0.000264592
0.000178474
0.000113826
6.31032e-05
2.01954e-05
2.77565
8.25776
13.5356
18.4841
22.9935
26.9741
30.359
33.1059
35.1961
36.6338
37.4433
37.6654
37.3542
36.5729
35.3904
33.8779
32.106
30.1424
28.0501
25.8859
23.6998
21.5348
19.4261
17.4022
15.4847
13.6891
12.0255
10.4995
9.11233
7.8623
6.74499
5.75402
4.88159
4.11898
3.45692
2.88597
2.39676
1.98021
1.62771
1.33118
1.08322
0.877051
0.706614
0.566502
0.451955
0.358818
0.283498
0.222911
0.174433
0.135847
0.105293
0.0812253
0.0623631
0.0476557
0.036246
0.027439
0.020675
0.0155058
0.011575
0.00860061
0.00636094
0.00468273
0.0034313
0.00250262
0.00181669
0.00131241
0.000943289
0.000674171
0.00047856
0.000336557
0.000233231
0.000157347
0.000100365
5.56464e-05
1.78098e-05
2.26763
6.74815
11.067
15.1247
18.8335
22.121
24.9322
27.2311
29.0004
30.2407
30.9687
31.2149
31.0204
30.4347
29.5122
28.3097
26.8843
25.2913
23.5825
21.8053
20.0016
18.2077
16.4539
14.7648
13.1595
11.6519
10.2515
8.96354
7.79016
6.73046
5.78134
4.93794
4.19411
3.54282
2.97651
2.48741
2.06775
1.70995
1.40679
1.15147
0.937728
0.759832
0.612619
0.491486
0.392367
0.311707
0.246425
0.193873
0.151794
0.118278
0.0917229
0.0707912
0.0543772
0.0415717
0.0316321
0.023956
0.0180576
0.0135479
0.0101171
0.00751996
0.00556355
0.00409702
0.00300305
0.00219091
0.00159087
0.00114958
0.000826473
0.000590829
0.000419498
0.000295085
0.000204532
0.000138009
8.80428e-05
4.88193e-05
1.56256e-05
1.84936
5.50474
9.03202
12.3521
15.3949
18.1019
20.4283
22.3436
23.8323
24.8931
25.5372
25.7872
25.6747
25.238
24.5201
23.5663
22.4226
21.134
19.7429
18.2884
16.8055
15.3248
13.8721
12.4683
11.1302
9.87004
8.69643
7.61456
6.62668
5.73265
4.93034
4.21608
3.58506
3.03163
2.54968
2.13284
1.77468
1.46892
1.20954
0.990844
0.807556
0.654851
0.52836
0.424181
0.338859
0.26937
0.213084
0.167739
0.131406
0.102446
0.0794856
0.0613765
0.0471675
0.036076
0.0274623
0.0208066
0.0156899
0.011776
0.00879712
0.00654111
0.00484099
0.00356608
0.00261469
0.00190815
0.00138595
0.00100178
0.000720405
0.000515133
0.00036584
0.000257397
0.000178446
0.000120429
7.68383e-05
4.26108e-05
1.36392e-05
1.50527
4.48146
7.35613
10.0664
12.5562
14.7785
16.6968
18.2857
19.5315
20.4317
20.9939
21.2348
21.1785
20.8549
20.2976
19.543
18.6277
17.5883
16.4593
15.2729
14.0582
12.8406
11.642
10.4801
9.36947
8.32077
7.34169
6.43705
5.60924
4.85856
4.18361
3.58167
3.04897
2.58104
2.17293
1.81946
1.51534
1.25539
1.0346
0.848225
0.691862
0.561456
0.453331
0.364196
0.291133
0.231577
0.183299
0.144376
0.113166
0.0882733
0.0685243
0.0529385
0.0407021
0.031145
0.0237189
0.017978
0.0135623
0.010183
0.00760992
0.00566038
0.0041906
0.00308799
0.00226486
0.00165336
0.00120124
0.00086851
0.000624733
0.000446836
0.000317413
0.000223376
0.000154891
0.000104551
6.67175e-05
3.70021e-05
1.18446e-05
1.22253
3.64039
5.97777
8.18471
10.2165
12.0354
13.6115
14.9241
15.9613
16.7198
17.2049
17.4289
17.4102
17.1719
16.7406
16.1449
15.4143
14.5782
13.6648
12.7004
11.7088
10.7114
9.72624
8.76857
7.85057
6.98159
6.1684
5.41539
4.72491
4.09754
3.53244
3.02758
2.58008
2.18638
1.84251
1.54426
1.28732
1.06742
0.880432
0.722417
0.589704
0.478909
0.386957
0.311086
0.24884
0.19806
0.156864
0.123627
0.0969559
0.0756692
0.0587702
0.0454252
0.034942
0.0267496
0.0203803
0.0154539
0.0116629
0.00876032
0.00654914
0.00487309
0.00360899
0.00266029
0.00195179
0.00142525
0.00103581
0.000749117
0.000538999
0.000385615
0.000273991
0.000192862
0.000133761
9.03046e-05
5.76348e-05
3.19681e-05
1.02337e-05
0.990559
2.95014
4.84596
6.63835
8.29168
9.77563
11.0662
12.1461
13.0052
13.6404
14.0548
14.2578
14.2631
14.0889
13.7559
13.2868
12.7052
12.0347
11.2979
10.5165
9.71
8.89592
8.0894
7.30317
6.54756
5.83058
5.15813
4.53413
3.96081
3.43893
2.96801
2.5466
2.17247
1.84283
1.55451
1.3041
1.0881
0.903011
0.745441
0.612142
0.50007
0.406415
0.328614
0.264362
0.211603
0.168527
0.133554
0.105317
0.0826418
0.0645322
0.050146
0.0387784
0.0298432
0.0228566
0.017422
0.0132162
0.00997817
0.00749778
0.00560738
0.00417385
0.0030922
0.00228011
0.0016734
0.00122234
0.000888611
0.000642844
0.000462661
0.000331087
0.000235306
0.00016567
0.000114926
7.76029e-05
4.95356e-05
2.74787e-05
8.79703e-06
0.800583
2.38471
3.91836
5.37007
6.71148
7.91834
8.97124
9.85613
10.5644
11.0931
11.4441
11.6243
11.6442
11.5179
11.2615
10.893
10.4312
9.89495
9.30259
8.67155
8.01786
7.35588
6.69814
6.05524
5.43585
4.84679
4.29312
3.77832
3.30443
2.87228
2.48167
2.13157
1.82027
1.5456
1.30502
1.0958
0.915103
0.760088
0.62797
0.516082
0.421915
0.343146
0.277651
0.223514
0.179022
0.142668
0.113129
0.089261
0.0700816
0.0547534
0.042569
0.0329352
0.0253584
0.0194306
0.014817
0.0112449
0.00849323
0.00638447
0.00477656
0.00355672
0.00263592
0.00194432
0.00142742
0.00104299
0.000758453
0.000548842
0.000395116
0.000282826
0.000201057
0.000141589
9.82417e-05
6.63495e-05
4.23587e-05
2.35e-05
7.52374e-06
0.645317
1.92248
3.15973
4.33214
5.41719
6.3955
7.25149
7.97369
8.55497
8.99249
9.28747
9.44484
9.47272
9.38187
9.18504
8.89634
8.53064
8.10301
7.62823
7.12034
6.59237
6.05605
5.52169
4.99807
4.49242
4.01048
3.55657
3.13372
2.74376
2.38754
2.06504
1.77553
1.51774
1.28995
1.09017
0.916211
0.765791
0.636598
0.526366
0.432915
0.354187
0.288269
0.233409
0.188022
0.150692
0.120165
0.0953413
0.0752692
0.0591286
0.0462204
0.0359532
0.0278302
0.021438
0.0164341
0.0125375
0.00951889
0.00719254
0.00540884
0.00404816
0.00301544
0.00223556
0.00164955
0.00121142
0.000885436
0.000644076
0.000466211
0.000335723
0.000240376
0.000170922
0.000120396
8.35549e-05
5.64411e-05
3.60385e-05
1.99958e-05
6.40219e-06
0.518708
1.54549
2.54076
3.4848
4.35973
5.15015
5.84356
6.43066
6.90556
7.26571
7.51179
7.64741
7.67873
7.61408
7.46339
7.23776
6.94896
6.60897
6.22962
5.82221
5.39728
4.96437
4.53191
4.10712
3.696
3.30334
2.93281
2.58698
2.26751
1.9752
1.71015
1.47185
1.25936
1.07134
0.906238
0.762295
0.63768
0.530531
0.43901
0.361342
0.295846
0.240955
0.195232
0.157372
0.126207
0.100701
0.0799453
0.0631502
0.0496354
0.0388201
0.030212
0.0233976
0.0180319
0.0138293
0.0105549
0.00801704
0.00606019
0.00455909
0.00341347
0.00254359
0.0018864
0.0013924
0.0010229
0.00074788
0.000544182
0.000394018
0.000283815
0.000203265
0.000144571
0.000101859
7.07051e-05
4.777e-05
3.05066e-05
1.69283e-05
5.42033e-06
0.415723
1.23879
2.03701
2.79482
3.49808
4.13454
4.69422
5.16963
5.55591
5.85085
6.05476
6.17028
6.2021
6.15662
6.0416
5.86572
5.63827
5.36876
5.06663
4.74092
4.40013
4.05197
3.70331
3.36005
3.02714
2.70855
2.40736
2.12576
1.86518
1.62639
1.40953
1.21429
1.03995
0.885489
0.749681
0.63114
0.528399
0.439962
0.364345
0.300109
0.245888
0.200405
0.162485
0.13106
0.105171
0.083967
0.0666991
0.0527163
0.0414569
0.0324405
0.0252597
0.0195718
0.0150905
0.0115787
0.00884104
0.00671808
0.00508035
0.00382345
0.00286377
0.00213475
0.00158375
0.0011694
0.000859356
0.000628509
0.000457462
0.000331325
0.000238724
0.000171017
0.000121666
8.57413e-05
5.95301e-05
4.02276e-05
2.56939e-05
1.42593e-05
4.56599e-06
0.332177
0.98994
1.62815
2.23455
2.79797
3.3087
3.7588
4.14225
4.45509
4.69542
4.86333
4.96074
4.9912
4.95966
4.87211
4.73537
4.55675
4.34376
4.1039
3.8444
3.57205
3.29309
3.01306
2.73677
2.46827
2.21085
1.96705
1.73873
1.52712
1.33291
1.15628
0.997041
0.854661
0.728361
0.617177
0.520017
0.435714
0.363071
0.300895
0.248026
0.203358
0.165855
0.134561
0.108605
0.0872056
0.0696648
0.0553698
0.0437863
0.0344526
0.0269735
0.0210134
0.0162895
0.0125656
0.00964566
0.00736825
0.00560129
0.00423752
0.00319039
0.0023905
0.00178261
0.00132297
0.000977176
0.000718333
0.000525534
0.000382629
0.000277207
0.000199788
0.000143162
0.000101875
7.18115e-05
4.98695e-05
3.37059e-05
2.15317e-05
1.19507e-05
3.82699e-06
0.264592
0.788602
1.29726
1.78092
2.2308
2.63921
2.99986
3.30793
3.56021
3.7551
3.89254
3.97393
4.00197
3.98044
3.91402
3.808
3.66812
3.50032
3.31051
3.10445
2.88758
2.66488
2.44083
2.21932
2.00365
1.7965
1.59999
1.41566
1.24456
1.0873
0.944089
0.814801
0.699055
0.596256
0.505655
0.426393
0.357547
0.298161
0.247282
0.203978
0.167358
0.136585
0.110885
0.0895527
0.0719506
0.0575118
0.0457365
0.0361881
0.0284891
0.022316
0.0173936
0.0134899
0.0104108
0.00799515
0.00611007
0.00464677
0.00351682
0.00264881
0.00198545
0.0014811
0.00109959
0.000812457
0.000597441
0.000437228
0.000318432
0.000230766
0.000166364
0.000119244
8.48765e-05
5.98434e-05
4.15673e-05
2.80999e-05
1.79533e-05
9.96569e-06
3.19152e-06
0.210081
0.626189
1.03027
1.41476
1.77274
2.09819
2.3861
2.63264
2.83522
2.9925
3.10436
3.17182
3.1969
3.18251
3.13226
3.05029
2.94107
2.80927
2.65957
2.49652
2.32444
2.14732
1.96874
1.79184
1.6193
1.45329
1.29555
1.14737
1.00963
0.882854
0.767246
0.662748
0.569081
0.485795
0.412309
0.34795
0.29199
0.243673
0.202237
0.166937
0.137059
0.11193
0.0909272
0.0734792
0.0590715
0.0472445
0.0375923
0.0297602
0.023441
0.018371
0.0143257
0.0111158
0.00858254
0.00659404
0.00504146
0.00383567
0.00290412
0.00218818
0.0016408
0.00122444
0.000909356
0.000672127
0.000494411
0.000361941
0.000263681
0.000191144
0.000137839
9.88247e-05
7.03605e-05
4.96205e-05
3.4474e-05
2.33092e-05
1.48948e-05
8.26889e-06
2.64825e-06
0.16625
0.495582
0.815515
1.12013
1.40401
1.66241
1.89139
2.08791
2.2499
2.37625
2.4668
2.52227
2.54422
2.53486
2.49697
2.43376
2.34874
2.24555
2.12787
1.99929
1.86325
1.7229
1.58111
1.44039
1.30291
1.17042
1.04433
0.925717
0.815306
0.713548
0.620638
0.536554
0.461098
0.393929
0.334599
0.282584
0.237312
0.198184
0.164598
0.13596
0.1117
0.091279
0.074197
0.0599955
0.0482598
0.0386193
0.0307461
0.0243533
0.0191921
0.0150486
0.0117406
0.00911417
0.00704026
0.00541146
0.00413908
0.00315041
0.00238623
0.00179866
0.00134922
0.00100721
0.000748289
0.000553264
0.000407109
0.000298125
0.000217256
0.000157536
0.000113635
8.14937e-05
5.80362e-05
4.09388e-05
2.84486e-05
1.92389e-05
1.22957e-05
6.82678e-06
2.18652e-06
0.131121
0.390893
0.643337
0.883833
1.10815
1.31257
1.49401
1.65005
1.77904
1.88007
1.95297
1.99828
2.01715
2.01127
1.98279
1.9342
1.86821
1.78768
1.69548
1.59445
1.48728
1.37648
1.26433
1.15284
1.04373
0.938419
0.838058
0.74351
0.655387
0.574067
0.499727
0.432371
0.371859
0.317934
0.270253
0.228408
0.191953
0.160416
0.133321
0.110198
0.0905927
0.0740769
0.0602507
0.0487474
0.0392344
0.0314143
0.0250235
0.0198309
0.0156361
0.0122663
0.00957449
0.00743607
0.00574658
0.004419
0.0033814
0.00257476
0.00195098
0.00147114
0.00110395
0.000824409
0.000612692
0.00045316
0.000333558
0.000244339
0.000178114
0.000129192
9.32157e-05
6.68679e-05
4.76324e-05
3.3608e-05
2.33595e-05
1.58003e-05
1.00997e-05
5.6081e-06
1.79631e-06
0.103059
0.307256
0.505756
0.694964
0.871582
1.03271
1.17592
1.29933
1.40161
1.48204
1.54044
1.5772
1.59318
1.58968
1.56834
1.53109
1.48003
1.41739
1.3454
1.26629
1.18218
1.09504
1.00668
0.918688
0.83244
0.749079
0.669525
0.594481
0.524447
0.459742
0.400523
0.346807
0.298496
0.2554
0.217255
0.183747
0.154527
0.129227
0.107471
0.0888883
0.0731203
0.0598264
0.048689
0.0394158
0.0317417
0.0254289
0.0202665
0.0160693
0.0126765
0.00994938
0.00776966
0.0060371
0.00466753
0.00359077
0.00274878
0.0020939
0.00158724
0.00119731
0.000898798
0.000671445
0.000499183
0.000369329
0.00027194
0.000199265
0.000145301
0.000105422
7.60863e-05
5.45948e-05
3.88997e-05
2.7453e-05
1.90856e-05
1.29119e-05
8.25466e-06
4.58411e-06
1.46839e-06
0.0807185
0.240668
0.396199
0.544524
0.683081
0.809613
0.922225
1.01944
1.10021
1.16394
1.21049
1.24012
1.25349
1.25158
1.23565
1.20718
1.1678
1.11922
1.06321
1.00149
0.93571
0.867439
0.798089
0.72892
0.66102
0.595303
0.532504
0.473191
0.417772
0.36651
0.319542
0.276893
0.238496
0.204209
0.173832
0.147123
0.123811
0.103608
0.0862205
0.0713571
0.0587349
0.0480851
0.0391562
0.0317166
0.0255556
0.020484
0.016334
0.0129578
0.0102269
0.00803064
0.00627419
0.0048773
0.00377249
0.00290344
0.00222354
0.00169447
0.00128495
0.000969653
0.000728162
0.000544164
0.000404695
0.00029952
0.000220609
0.000161703
0.000117946
8.55997e-05
6.17973e-05
4.43537e-05
3.16108e-05
2.23143e-05
1.55164e-05
1.04992e-05
6.71327e-06
3.72853e-06
1.19438e-06
0.062996
0.187838
0.309265
0.425119
0.533418
0.632409
0.720619
0.796892
0.860408
0.910692
0.947611
0.971357
0.982417
0.981538
0.969684
0.947989
0.91771
0.880175
0.836742
0.788756
0.737511
0.684224
0.630005
0.575846
0.522608
0.471012
0.421645
0.374963
0.331296
0.29086
0.253772
0.220059
0.189677
0.162522
0.13844
0.117247
0.0987337
0.0826756
0.0688441
0.057011
0.0469545
0.0384631
0.0313387
0.0253984
0.0204758
0.0164209
0.0131007
0.010398
0.00821061
0.00645036
0.00504185
0.00392107
0.00303417
0.00233618
0.00178984
0.0013645
0.00103513
0.000781423
0.000587022
0.000438842
0.000326477
0.000241709
0.000178086
0.000130574
9.52694e-05
6.91619e-05
4.99441e-05
3.58559e-05
2.55609e-05
1.80478e-05
1.25524e-05
8.49522e-06
5.43273e-06
3.01766e-06
9.66726e-07
0.0489869
0.146074
0.24053
0.33069
0.415023
0.492175
0.561004
0.620609
0.670349
0.709847
0.738988
0.757907
0.766967
0.766735
0.757944
0.741464
0.718258
0.68935
0.655791
0.61862
0.578845
0.537411
0.495188
0.45295
0.411375
0.371032
0.332387
0.295801
0.26154
0.229781
0.200622
0.174091
0.150158
0.128746
0.109742
0.0930023
0.0783666
0.0656618
0.0547099
0.0453332
0.0373584
0.0306198
0.024962
0.0202414
0.0163268
0.0131004
0.0104568
0.00830357
0.00655988
0.00515591
0.00403187
0.00313697
0.00242846
0.00187058
0.0014337
0.00109342
0.0008298
0.000626648
0.000470919
0.000352168
0.000262084
0.000194099
0.000143053
0.00010492
7.6574e-05
5.56057e-05
4.01657e-05
2.88434e-05
2.0567e-05
1.45252e-05
1.01045e-05
6.83986e-06
4.37477e-06
2.43025e-06
7.78598e-07
0.0379535
0.11318
0.186384
0.256288
0.321712
0.381613
0.435109
0.481503
0.520293
0.551183
0.574075
0.589064
0.59642
0.596572
0.590076
0.577595
0.559868
0.537681
0.511843