/*--------------------------------*- C++ -*----------------------------------*\
  =========                 |
  \\      /  F ield         | OpenFOAM: The Open Source CFD Toolbox
   \\    /   O peration     | Website:  https://openfoam.org
    \\  /    A nd           | Version:  10
     \\/     M anipulation  |
\*---------------------------------------------------------------------------*/
FoamFile
{
    format      ascii;
    class       volScalarField;
    location    "344";
    object      T;
}
// * * * * * * * * * * * * * * * * * * * * * * * * * * * * * * * * * * * * * //

dimensions      [0 0 0 1 0 0 0];

internalField   nonuniform List<scalar> 
11250
(
249.846
167.566
139.376
126.967
120.199
115.908
112.909
110.674
108.933
107.535
106.387
105.429
104.621
103.933
103.344
102.839
102.405
102.031
101.711
101.435
101.2
100.999
100.829
100.684
100.562
100.46
100.374
100.303
100.244
100.196
100.156
100.124
100.098
100.077
100.06
100.046
100.036
100.028
100.021
100.016
100.012
100.009
100.007
100.005
100.004
100.003
100.002
100.001
100.001
100.001
100.001
100
100
100
100
100
100
100
100
100
100
100
100
100
100
100
100
100
100
100
100
100
100
100
100
331.509
248.616
202.355
175.272
158.136
146.454
137.987
131.552
126.483
122.383
119
116.168
113.771
111.728
109.978
108.474
107.181
106.067
105.111
104.289
103.587
102.987
102.477
102.045
101.68
101.374
101.119
100.906
100.73
100.585
100.467
100.37
100.292
100.23
100.179
100.139
100.107
100.082
100.063
100.048
100.036
100.027
100.02
100.015
100.011
100.008
100.006
100.004
100.003
100.002
100.002
100.001
100.001
100.001
100
100
100
100
100
100
100
100
100
100
100
100
100
100
100
100
100
100
100
100
100
359.089
293.05
246.187
213.671
190.67
173.845
161.1
151.138
143.146
136.6
131.151
126.56
122.658
119.32
116.453
113.985
111.858
110.025
108.448
107.093
105.933
104.942
104.099
103.385
102.782
102.276
101.853
101.501
101.21
100.97
100.774
100.614
100.485
100.38
100.297
100.231
100.178
100.137
100.104
100.079
100.06
100.045
100.034
100.025
100.018
100.014
100.01
100.007
100.005
100.004
100.003
100.002
100.001
100.001
100.001
100
100
100
100
100
100
100
100
100
100
100
100
100
100
100
100
100
100
100
100
370.898
318.336
275.722
242.623
217.111
197.256
181.542
168.878
158.496
149.859
142.59
136.414
131.131
126.59
122.676
119.295
116.376
113.856
111.684
109.816
108.214
106.845
105.68
104.692
103.858
103.157
102.57
102.083
101.679
101.346
101.074
100.852
100.673
100.528
100.412
100.32
100.247
100.19
100.145
100.11
100.083
100.062
100.047
100.035
100.026
100.019
100.014
100.01
100.007
100.005
100.004
100.003
100.002
100.001
100.001
100.001
100
100
100
100
100
100
100
100
100
100
100
100
100
100
100
100
100
100
100
377.079
333.716
295.808
264.08
238.011
216.662
199.093
184.509
172.286
161.949
153.138
145.581
139.069
133.441
128.566
124.342
120.683
117.517
114.784
112.429
110.408
108.678
107.204
105.953
104.897
104.008
103.265
102.646
102.133
101.711
101.365
101.084
100.856
100.672
100.525
100.407
100.315
100.242
100.185
100.14
100.106
100.08
100.059
100.044
100.033
100.024
100.017
100.013
100.009
100.007
100.005
100.003
100.002
100.002
100.001
100.001
100.001
100
100
100
100
100
100
100
100
100
100
100
100
100
100
100
100
100
100
380.8
343.692
309.802
279.997
254.34
232.465
213.858
197.999
184.427
172.761
162.691
153.967
146.39
139.8
134.065
129.075
124.738
120.976
117.72
114.91
112.495
110.425
108.659
107.159
105.891
104.824
103.93
103.186
102.57
102.062
101.646
101.306
101.032
100.81
100.633
100.492
100.38
100.292
100.223
100.169
100.128
100.096
100.072
100.053
100.039
100.029
100.021
100.015
100.011
100.008
100.006
100.004
100.003
100.002
100.001
100.001
100.001
100
100
100
100
100
100
100
100
100
100
100
100
100
100
100
100
100
100
383.249
350.513
319.815
291.91
267.065
245.214
226.118
209.467
194.95
182.281
171.21
161.525
153.046
145.624
139.131
133.457
128.509
124.204
120.469
117.24
114.459
112.072
110.034
108.3
106.833
105.598
104.563
103.7
102.986
102.396
101.913
101.519
101.2
100.942
100.736
100.572
100.442
100.339
100.259
100.197
100.149
100.112
100.084
100.062
100.046
100.034
100.025
100.018
100.013
100.009
100.007
100.005
100.003
100.002
100.002
100.001
100.001
100.001
100
100
100
100
100
100
100
100
100
100
100
100
100
100
100
100
100
384.957
355.37
327.158
300.931
277.004
255.457
236.213
219.112
203.96
190.556
178.709
168.248
159.02
150.891
143.742
137.468
131.977
127.185
123.017
119.406
116.289
113.611
111.321
109.371
107.719
106.326
105.159
104.185
103.378
102.712
102.166
101.72
101.359
101.068
100.834
100.648
100.501
100.385
100.294
100.223
100.169
100.127
100.095
100.07
100.052
100.038
100.028
100.02
100.015
100.01
100.007
100.005
100.004
100.003
100.002
100.001
100.001
100.001
100
100
100
100
100
100
100
100
100
100
100
100
100
100
100
100
100
386.196
358.935
332.656
307.843
284.803
263.678
244.485
227.163
211.603
197.673
185.237
174.162
164.322
155.601
147.892
141.099
135.131
129.908
125.353
121.398
117.978
115.035
112.514
110.365
108.543
107.005
105.715
104.639
103.745
103.008
102.403
101.909
101.508
101.185
100.926
100.72
100.557
100.428
100.327
100.248
100.188
100.141
100.105
100.078
100.058
100.042
100.031
100.023
100.016
100.012
100.008
100.006
100.004
100.003
100.002
100.001
100.001
100.001
100
100
100
100
100
100
100
100
100
100
100
100
100
100
100
100
100
387.119
361.612
336.84
313.195
290.953
270.28
251.245
233.847
218.04
203.744
190.869
179.314
168.98
159.77
151.59
144.352
137.972
132.371
127.474
123.213
119.522
116.34
113.61
111.281
109.303
107.633
106.23
105.059
104.086
103.283
102.623
102.085
101.648
101.295
101.013
100.787
100.609
100.468
100.358
100.272
100.205
100.154
100.115
100.086
100.063
100.046
100.034
100.025
100.018
100.013
100.009
100.006
100.005
100.003
100.002
100.002
100.001
100.001
100
100
100
100
100
100
100
100
100
100
100
100
100
100
100
100
100
387.82
363.657
340.069
317.376
295.827
275.589
256.759
239.374
223.429
208.886
195.687
183.763
173.036
163.426
154.854
147.24
140.506
134.578
129.383
124.852
120.92
117.525
114.608
112.116
109.998
108.208
106.703
105.445
104.4
103.536
102.827
102.247
101.777
101.397
101.092
100.849
100.657
100.505
100.386
100.293
100.222
100.167
100.125
100.093
100.068
100.05
100.037
100.027
100.019
100.014
100.01
100.007
100.005
100.003
100.002
100.002
100.001
100.001
100.001
100
100
100
100
100
100
100
100
100
100
100
100
100
100
100
100
388.36
365.24
342.585
320.667
299.706
279.864
261.253
243.931
227.922
213.216
199.783
187.576
176.539
166.606
157.71
149.781
142.748
136.539
131.085
126.319
122.175
118.592
115.509
112.872
110.629
108.73
107.133
105.797
104.687
103.768
103.013
102.396
101.895
101.491
101.166
100.907
100.701
100.539
100.412
100.314
100.237
100.178
100.133
100.099
100.073
100.054
100.039
100.028
100.021
100.015
100.011
100.007
100.005
100.004
100.003
100.002
100.001
100.001
100.001
100
100
100
100
100
100
100
100
100
100
100
100
100
100
100
100
388.781
366.476
344.562
323.272
302.803
283.312
264.912
247.679
231.652
216.843
203.243
190.823
179.542
169.35
160.19
151.999
144.713
138.265
132.59
127.621
123.293
119.545
116.316
113.551
111.196
109.201
107.522
106.116
104.946
103.978
103.182
102.532
102.003
101.576
101.233
100.959
100.742
100.571
100.436
100.332
100.251
100.189
100.141
100.105
100.077
100.057
100.042
100.03
100.022
100.016
100.011
100.008
100.006
100.004
100.003
100.002
100.001
100.001
100.001
100
100
100
100
100
100
100
100
100
100
100
100
100
100
100
100
389.111
367.449
346.124
325.342
305.283
286.094
267.89
250.754
234.738
219.868
206.15
193.57
182.101
171.702
162.326
153.92
146.423
139.774
133.91
128.766
124.28
120.388
117.032
114.155
111.701
109.622
107.87
106.402
105.179
104.167
103.335
102.654
102.1
101.653
101.293
101.006
100.779
100.599
100.458
100.348
100.264
100.198
100.148
100.11
100.081
100.06
100.044
100.032
100.023
100.016
100.012
100.008
100.006
100.004
100.003
100.002
100.001
100.001
100.001
100
100
100
100
100
100
100
100
100
100
100
100
100
100
100
100
389.372
368.219
347.364
326.993
307.272
288.34
270.311
253.272
237.283
222.38
208.581
195.882
184.266
173.704
164.155
155.571
147.9
141.083
135.059
129.767
125.144
121.13
117.663
114.688
112.149
109.995
108.179
106.656
105.387
104.336
103.471
102.763
102.187
101.722
101.348
101.049
100.812
100.625
100.478
100.364
100.275
100.207
100.155
100.115
100.085
100.062
100.046
100.033
100.024
100.017
100.012
100.009
100.006
100.004
100.003
100.002
100.001
100.001
100.001
100
100
100
100
100
100
100
100
100
100
100
100
100
100
100
100
389.579
368.83
348.351
328.313
308.869
290.153
272.277
255.329
239.375
224.459
210.604
197.817
186.089
175.397
165.709
156.981
149.166
142.209
136.052
130.634
125.896
121.776
118.215
115.156
112.542
110.324
108.451
106.881
105.571
104.486
103.592
102.86
102.265
101.783
101.396
101.087
100.841
100.647
100.495
100.377
100.285
100.215
100.16
100.119
100.088
100.065
100.047
100.034
100.025
100.018
100.013
100.009
100.006
100.004
100.003
100.002
100.001
100.001
100.001
100
100
100
100
100
100
100
100
100
100
100
100
100
100
100
100
389.744
369.316
349.138
329.369
310.152
291.616
273.871
257.007
241.09
226.172
212.28
199.429
187.615
176.821
167.022
158.178
150.245
143.172
136.903
131.381
126.545
122.336
118.694
115.562
112.885
110.611
108.69
107.078
105.733
104.618
103.699
102.946
102.333
101.838
101.439
101.12
100.867
100.668
100.511
100.389
100.294
100.221
100.166
100.123
100.091
100.067
100.049
100.036
100.026
100.018
100.013
100.009
100.007
100.005
100.003
100.002
100.002
100.001
100.001
100
100
100
100
100
100
100
100
100
100
100
100
100
100
100
100
389.875
369.703
349.767
330.214
311.182
292.796
275.162
258.371
242.492
227.578
213.663
200.765
188.885
178.013
168.124
159.187
151.158
143.99
137.629
132.019
127.101
122.817
119.106
115.913
113.182
110.859
108.897
107.249
105.874
104.732
103.792
103.021
102.393
101.885
101.477
101.15
100.891
100.686
100.525
100.399
100.302
100.227
100.17
100.127
100.094
100.069
100.05
100.037
100.026
100.019
100.014
100.01
100.007
100.005
100.003
100.002
100.002
100.001
100.001
100.001
100
100
100
100
100
100
100
100
100
100
100
100
100
100
100
389.979
370.012
350.268
330.89
312.009
293.745
276.205
259.478
243.634
228.729
214.799
201.867
189.937
179.003
169.045
160.032
151.925
144.68
138.243
132.56
127.575
123.227
119.459
116.214
113.437
111.074
109.076
107.397
105.995
104.832
103.873
103.086
102.445
101.927
101.51
101.176
100.911
100.701
100.537
100.409
100.309
100.233
100.174
100.13
100.096
100.07
100.051
100.037
100.027
100.019
100.014
100.01
100.007
100.005
100.003
100.002
100.002
100.001
100.001
100.001
100
100
100
100
100
100
100
100
100
100
100
100
100
100
100
390.062
370.258
350.669
331.43
312.671
294.509
277.046
260.373
244.561
229.666
215.729
202.772
190.805
179.823
169.809
160.736
152.567
145.258
138.759
133.017
127.975
123.575
119.759
116.471
113.654
111.257
109.229
107.524
106.1
104.918
103.942
103.142
102.491
101.963
101.538
101.198
100.928
100.715
100.547
100.417
100.315
100.237
100.178
100.132
100.098
100.072
100.053
100.038
100.028
100.02
100.014
100.01
100.007
100.005
100.003
100.002
100.002
100.001
100.001
100.001
100
100
100
100
100
100
100
100
100
100
100
100
100
100
100
390.128
370.454
350.988
331.862
313.201
295.121
277.723
261.095
245.311
230.428
216.486
203.512
191.516
180.497
170.44
161.319
153.1
145.74
139.191
133.4
128.311
123.868
120.012
116.687
113.838
111.412
109.359
107.633
106.19
104.991
104.002
103.191
102.529
101.994
101.562
101.218
100.943
100.727
100.556
100.424
100.321
100.241
100.181
100.134
100.099
100.073
100.053
100.039
100.028
100.02
100.014
100.01
100.007
100.005
100.004
100.002
100.002
100.001
100.001
100.001
100
100
100
100
100
100
100
100
100
100
100
100
100
100
100
390.181
370.61
351.242
332.205
313.624
295.61
278.265
261.676
245.916
231.043
217.1
204.114
192.097
181.05
170.959
161.8
153.54
146.139
139.549
133.718
128.592
124.113
120.224
116.87
113.994
111.543
109.469
107.724
106.265
105.053
104.053
103.232
102.562
102.02
101.583
101.234
100.956
100.737
100.564
100.43
100.325
100.245
100.183
100.136
100.101
100.074
100.054
100.039
100.028
100.02
100.015
100.01
100.007
100.005
100.004
100.002
100.002
100.001
100.001
100.001
100
100
100
100
100
100
100
100
100
100
100
100
100
100
100
390.222
370.734
351.443
332.479
313.961
296.001
278.699
262.141
246.402
231.539
217.596
204.602
192.569
181.5
171.382
162.193
153.902
146.468
139.845
133.982
128.824
124.316
120.401
117.021
114.123
111.653
109.561
107.801
106.329
105.106
104.095
103.266
102.59
102.042
101.601
101.248
100.967
100.745
100.571
100.435
100.329
100.248
100.186
100.138
100.102
100.075
100.055
100.04
100.029
100.021
100.015
100.011
100.007
100.005
100.004
100.003
100.002
100.001
100.001
100.001
100
100
100
100
100
100
100
100
100
100
100
100
100
100
100
390.255
370.832
351.603
332.696
314.229
296.312
279.044
262.513
246.791
231.938
217.996
204.995
192.951
181.864
171.726
162.514
154.197
146.737
140.087
134.198
129.016
124.484
120.547
117.147
114.231
111.745
109.638
107.865
106.382
105.149
104.131
103.295
102.614
102.061
101.616
101.26
100.976
100.752
100.576
100.439
100.333
100.25
100.187
100.139
100.103
100.076
100.055
100.04
100.029
100.021
100.015
100.011
100.008
100.005
100.004
100.003
100.002
100.001
100.001
100.001
100
100
100
100
100
100
100
100
100
100
100
100
100
100
100
390.281
370.909
351.729
332.867
314.44
296.558
279.319
262.809
247.102
232.256
218.315
205.311
193.257
182.159
172.004
162.774
154.437
146.956
140.285
134.376
129.173
124.622
120.667
117.251
114.32
111.82
109.702
107.919
106.426
105.186
104.161
103.32
102.633
102.077
101.629
101.27
100.984
100.758
100.581
100.443
100.335
100.252
100.189
100.141
100.104
100.077
100.056
100.041
100.029
100.021
100.015
100.011
100.008
100.005
100.004
100.003
100.002
100.001
100.001
100.001
100
100
100
100
100
100
100
100
100
100
100
100
100
100
100
390.302
370.97
351.829
333.002
314.608
296.753
279.536
263.044
247.348
232.509
218.57
205.563
193.503
182.395
172.228
162.983
154.631
147.133
140.446
134.519
129.301
124.735
120.765
117.336
114.393
111.882
109.754
107.962
106.463
105.216
104.186
103.34
102.65
102.09
101.639
101.278
100.991
100.764
100.585
100.446
100.338
100.254
100.19
100.142
100.105
100.077
100.056
100.041
100.03
100.021
100.015
100.011
100.008
100.005
100.004
100.003
100.002
100.001
100.001
100.001
100
100
100
100
100
100
100
100
100
100
100
100
100
100
100
390.318
371.017
351.907
333.109
314.739
296.906
279.707
263.229
247.543
232.709
218.773
205.764
193.699
182.583
172.407
163.151
154.786
147.276
140.575
134.636
129.404
124.826
120.845
117.405
114.452
111.933
109.797
107.998
106.493
105.241
104.206
103.356
102.663
102.101
101.647
101.285
100.996
100.768
100.588
100.448
100.34
100.256
100.191
100.142
100.105
100.078
100.057
100.041
100.03
100.021
100.015
100.011
100.008
100.005
100.004
100.003
100.002
100.001
100.001
100.001
100
100
100
100
100
100
100
100
100
100
100
100
100
100
100
390.33
371.055
351.968
333.192
314.842
297.027
279.842
263.374
247.697
232.868
218.933
205.922
193.854
182.733
172.549
163.285
154.911
147.39
140.679
134.729
129.488
124.9
120.909
117.461
114.5
111.974
109.832
108.028
106.517
105.261
104.223
103.37
102.674
102.109
101.655
101.29
101
100.771
100.591
100.45
100.341
100.257
100.192
100.143
100.106
100.078
100.057
100.041
100.03
100.022
100.015
100.011
100.008
100.005
100.004
100.003
100.002
100.001
100.001
100.001
100
100
100
100
100
100
100
100
100
100
100
100
100
100
100
390.34
371.084
352.016
333.257
314.923
297.121
279.947
263.488
247.817
232.992
219.058
206.048
193.977
182.851
172.662
163.391
155.009
147.481
140.762
134.804
129.554
124.959
120.961
117.506
114.539
112.007
109.86
108.051
106.537
105.277
104.236
103.381
102.683
102.117
101.66
101.295
101.004
100.774
100.593
100.452
100.342
100.258
100.193
100.144
100.106
100.078
100.057
100.042
100.03
100.022
100.015
100.011
100.008
100.005
100.004
100.003
100.002
100.001
100.001
100.001
100
100
100
100
100
100
100
100
100
100
100
100
100
100
100
390.348
371.106
352.053
333.307
314.985
297.194
280.029
263.577
247.911
233.089
219.157
206.146
194.073
182.944
172.751
163.475
155.087
147.553
140.827
134.863
129.607
125.005
121.002
117.542
114.57
112.033
109.882
108.07
106.553
105.29
104.247
103.39
102.69
102.122
101.665
101.298
101.007
100.776
100.595
100.453
100.343
100.259
100.194
100.144
100.107
100.079
100.057
100.042
100.03
100.022
100.016
100.011
100.008
100.005
100.004
100.003
100.002
100.001
100.001
100.001
100
100
100
100
100
100
100
100
100
100
100
100
100
100
100
390.354
371.124
352.081
333.346
315.034
297.25
280.093
263.647
247.984
233.165
219.233
206.222
194.148
183.017
172.82
163.54
155.149
147.609
140.879
134.91
129.649
125.043
121.035
117.57
114.594
112.054
109.9
108.085
106.565
105.301
104.255
103.397
102.696
102.127
101.669
101.301
101.009
100.778
100.596
100.454
100.344
100.259
100.194
100.145
100.107
100.079
100.058
100.042
100.03
100.022
100.016
100.011
100.008
100.005
100.004
100.003
100.002
100.001
100.001
100.001
100
100
100
100
100
100
100
100
100
100
100
100
100
100
100
390.358
371.137
352.103
333.376
315.071
297.294
280.142
263.7
248.041
233.223
219.293
206.282
194.207
183.074
172.875
163.592
155.197
147.654
140.92
134.946
129.682
125.072
121.061
117.593
114.614
112.071
109.915
108.097
106.575
105.309
104.262
103.402
102.7
102.131
101.672
101.304
101.011
100.779
100.597
100.455
100.345
100.26
100.195
100.145
100.107
100.079
100.058
100.042
100.03
100.022
100.016
100.011
100.008
100.005
100.004
100.003
100.002
100.001
100.001
100.001
100
100
100
100
100
100
100
100
100
100
100
100
100
100
100
390.362
371.148
352.12
333.399
315.1
297.328
280.18
263.741
248.084
233.268
219.339
206.328
194.252
183.118
172.917
163.631
155.234
147.688
140.951
134.975
129.708
125.095
121.081
117.61
114.629
112.084
109.926
108.107
106.583
105.316
104.268
103.407
102.704
102.134
101.674
101.306
101.013
100.781
100.598
100.456
100.346
100.26
100.195
100.145
100.107
100.079
100.058
100.042
100.03
100.022
100.016
100.011
100.008
100.006
100.004
100.003
100.002
100.001
100.001
100.001
100
100
100
100
100
100
100
100
100
100
100
100
100
100
100
390.364
371.156
352.133
333.417
315.122
297.353
280.209
263.772
248.117
233.303
219.374
206.363
194.287
183.151
172.949
163.662
155.263
147.715
140.976
134.997
129.728
125.112
121.096
117.624
114.641
112.094
109.934
108.114
106.59
105.321
104.272
103.41
102.707
102.136
101.676
101.307
101.014
100.782
100.599
100.457
100.346
100.261
100.195
100.145
100.108
100.079
100.058
100.042
100.03
100.022
100.016
100.011
100.008
100.006
100.004
100.003
100.002
100.001
100.001
100.001
100
100
100
100
100
100
100
100
100
100
100
100
100
100
100
390.366
371.162
352.143
333.43
315.138
297.373
280.231
263.796
248.143
233.329
219.401
206.39
194.314
183.177
172.974
163.686
155.285
147.735
140.995
135.014
129.743
125.126
121.109
117.635
114.65
112.102
109.941
108.12
106.594
105.325
104.275
103.413
102.709
102.138
101.677
101.308
101.015
100.782
100.6
100.457
100.346
100.261
100.195
100.145
100.108
100.079
100.058
100.042
100.03
100.022
100.016
100.011
100.008
100.006
100.004
100.003
100.002
100.001
100.001
100.001
100
100
100
100
100
100
100
100
100
100
100
100
100
100
100
390.368
371.166
352.15
333.441
315.151
297.388
280.247
263.815
248.162
233.349
219.422
206.41
194.334
183.197
172.993
163.704
155.302
147.751
141.009
135.028
129.755
125.137
121.118
117.643
114.657
112.108
109.947
108.124
106.598
105.328
104.278
103.415
102.711
102.139
101.678
101.309
101.015
100.783
100.6
100.457
100.347
100.261
100.195
100.146
100.108
100.079
100.058
100.042
100.03
100.022
100.016
100.011
100.008
100.006
100.004
100.003
100.002
100.001
100.001
100.001
100
100
100
100
100
100
100
100
100
100
100
100
100
100
100
390.369
371.17
352.156
333.448
315.161
297.399
280.26
263.828
248.177
233.365
219.437
206.426
194.349
183.212
173.008
163.718
155.315
147.763
141.02
135.038
129.764
125.145
121.125
117.649
114.663
112.113
109.951
108.128
106.601
105.331
104.28
103.417
102.712
102.14
101.679
101.31
101.016
100.783
100.6
100.458
100.347
100.261
100.196
100.146
100.108
100.079
100.058
100.042
100.031
100.022
100.016
100.011
100.008
100.006
100.004
100.003
100.002
100.001
100.001
100.001
100
100
100
100
100
100
100
100
100
100
100
100
100
100
100
390.37
371.172
352.16
333.454
315.168
297.407
280.269
263.839
248.188
233.376
219.449
206.438
194.361
183.223
173.018
163.728
155.325
147.772
141.028
135.045
129.771
125.151
121.131
117.654
114.667
112.117
109.954
108.13
106.603
105.332
104.282
103.418
102.713
102.141
101.68
101.31
101.016
100.784
100.601
100.458
100.347
100.261
100.196
100.146
100.108
100.079
100.058
100.042
100.031
100.022
100.016
100.011
100.008
100.006
100.004
100.003
100.002
100.001
100.001
100.001
100
100
100
100
100
100
100
100
100
100
100
100
100
100
100
390.371
371.174
352.163
333.458
315.173
297.414
280.276
263.846
248.196
233.385
219.458
206.446
194.37
183.232
173.027
163.736
155.332
147.779
141.035
135.051
129.776
125.156
121.135
117.658
114.67
112.12
109.956
108.132
106.605
105.334
104.283
103.419
102.714
102.142
101.68
101.311
101.017
100.784
100.601
100.458
100.347
100.261
100.196
100.146
100.108
100.079
100.058
100.042
100.031
100.022
100.016
100.011
100.008
100.006
100.004
100.003
100.002
100.001
100.001
100.001
100
100
100
100
100
100
100
100
100
100
100
100
100
100
100
390.371
371.175
352.166
333.461
315.177
297.418
280.282
263.852
248.202
233.391
219.464
206.453
194.376
183.238
173.033
163.742
155.337
147.784
141.039
135.055
129.78
125.159
121.138
117.66
114.672
112.122
109.958
108.134
106.606
105.335
104.284
103.42
102.714
102.142
101.681
101.311
101.017
100.784
100.601
100.458
100.347
100.261
100.196
100.146
100.108
100.079
100.058
100.042
100.031
100.022
100.016
100.011
100.008
100.006
100.004
100.003
100.002
100.001
100.001
100.001
100
100
100
100
100
100
100
100
100
100
100
100
100
100
100
390.371
371.176
352.167
333.464
315.18
297.422
280.286
263.856
248.207
233.396
219.469
206.458
194.381
183.243
173.037
163.746
155.341
147.788
141.043
135.058
129.783
125.162
121.14
117.662
114.674
112.123
109.959
108.135
106.607
105.336
104.284
103.42
102.715
102.143
101.681
101.311
101.017
100.784
100.601
100.458
100.347
100.262
100.196
100.146
100.108
100.079
100.058
100.042
100.031
100.022
100.016
100.011
100.008
100.006
100.004
100.003
100.002
100.001
100.001
100.001
100
100
100
100
100
100
100
100
100
100
100
100
100
100
100
390.372
371.177
352.169
333.466
315.182
297.424
280.288
263.859
248.21
233.399
219.472
206.461
194.384
183.246
173.041
163.749
155.344
147.791
141.046
135.061
129.785
125.164
121.142
117.664
114.676
112.124
109.96
108.136
106.608
105.336
104.285
103.421
102.715
102.143
101.681
101.312
101.017
100.784
100.601
100.458
100.347
100.262
100.196
100.146
100.108
100.079
100.058
100.042
100.031
100.022
100.016
100.011
100.008
100.006
100.004
100.003
100.002
100.001
100.001
100.001
100
100
100
100
100
100
100
100
100
100
100
100
100
100
100
390.372
371.178
352.17
333.467
315.184
297.426
280.291
263.862
248.212
233.402
219.475
206.464
194.387
183.249
173.043
163.752
155.347
147.793
141.047
135.063
129.787
125.165
121.143
117.665
114.677
112.125
109.961
108.136
106.608
105.337
104.285
103.421
102.715
102.143
101.681
101.312
101.017
100.784
100.601
100.458
100.347
100.262
100.196
100.146
100.108
100.079
100.058
100.042
100.031
100.022
100.016
100.011
100.008
100.006
100.004
100.003
100.002
100.001
100.001
100.001
100
100
100
100
100
100
100
100
100
100
100
100
100
100
100
390.372
371.178
352.17
333.468
315.185
297.428
280.292
263.863
248.214
233.404
219.477
206.466
194.389
183.251
173.045
163.753
155.348
147.794
141.049
135.064
129.788
125.166
121.144
117.666
114.677
112.126
109.961
108.137
106.609
105.337
104.285
103.421
102.716
102.143
101.682
101.312
101.017
100.785
100.601
100.458
100.347
100.262
100.196
100.146
100.108
100.079
100.058
100.042
100.031
100.022
100.016
100.011
100.008
100.006
100.004
100.003
100.002
100.001
100.001
100.001
100
100
100
100
100
100
100
100
100
100
100
100
100
100
100
390.372
371.178
352.171
333.468
315.186
297.428
280.293
263.865
248.215
233.405
219.478
206.467
194.39
183.252
173.046
163.754
155.35
147.796
141.05
135.065
129.789
125.167
121.145
117.666
114.678
112.126
109.962
108.137
106.609
105.337
104.286
103.421
102.716
102.143
101.682
101.312
101.017
100.785
100.601
100.458
100.347
100.262
100.196
100.146
100.108
100.079
100.058
100.042
100.031
100.022
100.016
100.011
100.008
100.006
100.004
100.003
100.002
100.001
100.001
100.001
100
100
100
100
100
100
100
100
100
100
100
100
100
100
100
390.372
371.179
352.171
333.469
315.186
297.429
280.294
263.866
248.216
233.406
219.479
206.468
194.391
183.253
173.047
163.755
155.35
147.796
141.051
135.066
129.789
125.168
121.145
117.667
114.678
112.127
109.962
108.137
106.609
105.338
104.286
103.422
102.716
102.143
101.682
101.312
101.018
100.785
100.601
100.458
100.347
100.262
100.196
100.146
100.108
100.079
100.058
100.042
100.031
100.022
100.016
100.011
100.008
100.006
100.004
100.003
100.002
100.001
100.001
100.001
100
100
100
100
100
100
100
100
100
100
100
100
100
100
100
390.372
371.179
352.171
333.469
315.187
297.43
280.295
263.866
248.217
233.407
219.48
206.469
194.392
183.254
173.048
163.756
155.351
147.797
141.051
135.066
129.79
125.168
121.146
117.667
114.678
112.127
109.962
108.138
106.609
105.338
104.286
103.422
102.716
102.143
101.682
101.312
101.018
100.785
100.601
100.458
100.347
100.262
100.196
100.146
100.108
100.079
100.058
100.042
100.031
100.022
100.016
100.011
100.008
100.006
100.004
100.003
100.002
100.001
100.001
100.001
100
100
100
100
100
100
100
100
100
100
100
100
100
100
100
390.372
371.179
352.171
333.469
315.187
297.43
280.295
263.867
248.218
233.407
219.481
206.47
194.393
183.254
173.048
163.757
155.351
147.797
141.052
135.066
129.79
125.168
121.146
117.667
114.679
112.127
109.962
108.138
106.61
105.338
104.286
103.422
102.716
102.143
101.682
101.312
101.018
100.785
100.602
100.458
100.347
100.262
100.196
100.146
100.108
100.079
100.058
100.042
100.031
100.022
100.016
100.011
100.008
100.006
100.004
100.003
100.002
100.001
100.001
100.001
100
100
100
100
100
100
100
100
100
100
100
100
100
100
100
390.372
371.179
352.172
333.47
315.187
297.43
280.295
263.867
248.218
233.407
219.481
206.47
194.393
183.255
173.049
163.757
155.352
147.798
141.052
135.067
129.79
125.168
121.146
117.668
114.679
112.127
109.962
108.138
106.61
105.338
104.286
103.422
102.716
102.144
101.682
101.312
101.018
100.785
100.602
100.458
100.347
100.262
100.196
100.146
100.108
100.079
100.058
100.042
100.031
100.022
100.016
100.011
100.008
100.006
100.004
100.003
100.002
100.001
100.001
100.001
100
100
100
100
100
100
100
100
100
100
100
100
100
100
100
390.372
371.179
352.172
333.47
315.187
297.43
280.295
263.867
248.218
233.408
219.481
206.47
194.393
183.255
173.049
163.757
155.352
147.798
141.052
135.067
129.79
125.169
121.146
117.668
114.679
112.127
109.963
108.138
106.61
105.338
104.286
103.422
102.716
102.144
101.682
101.312
101.018
100.785
100.602
100.458
100.347
100.262
100.196
100.146
100.108
100.079
100.058
100.042
100.031
100.022
100.016
100.011
100.008
100.006
100.004
100.003
100.002
100.001
100.001
100.001
100
100
100
100
100
100
100
100
100
100
100
100
100
100
100
390.372
371.179
352.172
333.47
315.187
297.431
280.296
263.867
248.218
233.408
219.481
206.47
194.393
183.255
173.049
163.757
155.352
147.798
141.052
135.067
129.79
125.169
121.146
117.668
114.679
112.127
109.963
108.138
106.61
105.338
104.286
103.422
102.716
102.144
101.682
101.312
101.018
100.785
100.602
100.458
100.347
100.262
100.196
100.146
100.108
100.079
100.058
100.042
100.031
100.022
100.016
100.011
100.008
100.006
100.004
100.003
100.002
100.001
100.001
100.001
100
100
100
100
100
100
100
100
100
100
100
100
100
100
100
390.372
371.179
352.172
333.47
315.188
297.431
280.296
263.867
248.218
233.408
219.481
206.471
194.393
183.255
173.049
163.757
155.352
147.798
141.052
135.067
129.791
125.169
121.146
117.668
114.679
112.127
109.963
108.138
106.61
105.338
104.286
103.422
102.716
102.144
101.682
101.312
101.018
100.785
100.602
100.458
100.347
100.262
100.196
100.146
100.108
100.079
100.058
100.042
100.031
100.022
100.016
100.011
100.008
100.006
100.004
100.003
100.002
100.001
100.001
100.001
100
100
100
100
100
100
100
100
100
100
100
100
100
100
100
390.372
371.179
352.172
333.47
315.188
297.431
280.296
263.867
248.219
233.408
219.482
206.471
194.394
183.255
173.049
163.757
155.352
147.798
141.052
135.067
129.791
125.169
121.146
117.668
114.679
112.127
109.963
108.138
106.61
105.338
104.286
103.422
102.716
102.144
101.682
101.312
101.018
100.785
100.602
100.458
100.347
100.262
100.196
100.146
100.108
100.079
100.058
100.042
100.031
100.022
100.016
100.011
100.008
100.006
100.004
100.003
100.002
100.001
100.001
100.001
100
100
100
100
100
100
100
100
100
100
100
100
100
100
100
390.372
371.179
352.172
333.47
315.188
297.431
280.296
263.868
248.219
233.408
219.482
206.471
194.394
183.255
173.049
163.758
155.352
147.798
141.052
135.067
129.791
125.169
121.146
117.668
114.679
112.127
109.963
108.138
106.61
105.338
104.286
103.422
102.716
102.144
101.682
101.312
101.018
100.785
100.602
100.458
100.347
100.262
100.196
100.146
100.108
100.079
100.058
100.042
100.031
100.022
100.016
100.011
100.008
100.006
100.004
100.003
100.002
100.001
100.001
100.001
100
100
100
100
100
100
100
100
100
100
100
100
100
100
100
390.372
371.179
352.172
333.47
315.188
297.431
280.296
263.868
248.219
233.408
219.482
206.471
194.394
183.255
173.049
163.758
155.352
147.798
141.052
135.067
129.791
125.169
121.146
117.668
114.679
112.127
109.963
108.138
106.61
105.338
104.286
103.422
102.716
102.144
101.682
101.312
101.018
100.785
100.602
100.458
100.347
100.262
100.196
100.146
100.108
100.079
100.058
100.042
100.031
100.022
100.016
100.011
100.008
100.006
100.004
100.003
100.002
100.001
100.001
100.001
100
100
100
100
100
100
100
100
100
100
100
100
100
100
100
390.372
371.179
352.172
333.47
315.188
297.431
280.296
263.868
248.219
233.408
219.482
206.471
194.394