/*--------------------------------*- C++ -*----------------------------------*\
  =========                 |
  \\      /  F ield         | OpenFOAM: The Open Source CFD Toolbox
   \\    /   O peration     | Website:  https://openfoam.org
    \\  /    A nd           | Version:  10
     \\/     M anipulation  |
\*---------------------------------------------------------------------------*/
FoamFile
{
    format      ascii;
    class       volScalarField;
    location    "246";
    object      gradTz;
}
// * * * * * * * * * * * * * * * * * * * * * * * * * * * * * * * * * * * * * //

dimensions      [0 -1 0 1 0 0 0];

internalField   nonuniform List<scalar> 
11250
(
-14356.3
-4151.61
-1531.05
-727.09
-421.87
-279.639
-201.565
-153.291
-120.773
-97.4351
-79.858
-66.1219
-55.0822
-46.0236
-38.48
-32.1358
-26.7688
-22.2164
-18.3544
-15.0842
-12.3246
-10.0068
-8.07106
-6.4646
-5.14071
-4.05775
-3.17875
-2.47102
-1.90587
-1.45838
-1.10707
-0.833633
-0.622662
-0.461306
-0.338978
-0.247052
-0.178579
-0.128025
-0.0910283
-0.0641907
-0.0448932
-0.0311388
-0.0214208
-0.0146145
-0.00988881
-0.00663621
-0.00441683
-0.00291551
-0.00190867
-0.00123924
-0.000797971
-0.000509584
-0.000322727
-0.000202691
-0.000126242
-7.79694e-05
-4.77509e-05
-2.89971e-05
-1.74592e-05
-1.04223e-05
-6.16799e-06
-3.6186e-06
-2.1044e-06
-1.21301e-06
-6.92957e-07
-3.92328e-07
-2.20135e-07
-1.22398e-07
-6.74266e-08
-3.68141e-08
-1.9936e-08
-1.07698e-08
-5.8525e-09
-3.35432e-09
-2.33902e-09
-8272.86
-4870.15
-2776.01
-1682.04
-1102.19
-774.388
-574.596
-443.894
-352.995
-286.473
-235.733
-195.733
-163.385
-136.722
-114.444
-95.6613
-79.7411
-66.2173
-54.7313
-44.9967
-36.7762
-29.8678
-24.0953
-19.303
-15.3524
-12.1199
-9.49557
-7.3822
-5.69436
-4.3577
-3.3082
-2.49127
-1.8609
-1.37874
-1.01318
-0.73845
-0.533803
-0.382702
-0.272117
-0.191895
-0.13421
-0.0930929
-0.0640414
-0.0436936
-0.0295657
-0.0198414
-0.013206
-0.0087173
-0.00570697
-0.00370542
-0.00238602
-0.00152374
-0.000965018
-0.000606096
-0.000377499
-0.000233154
-0.000142793
-8.67133e-05
-5.22108e-05
-3.11677e-05
-1.84457e-05
-1.08218e-05
-6.29345e-06
-3.62772e-06
-2.07255e-06
-1.17345e-06
-6.58377e-07
-3.6605e-07
-2.01683e-07
-1.10135e-07
-5.96347e-08
-3.21481e-08
-1.74982e-08
-1.00926e-08
-6.98963e-09
-5590.44
-4278.42
-3019.2
-2121.4
-1529.14
-1140.02
-877.643
-694.03
-560.403
-459.518
-380.865
-317.881
-266.361
-223.534
-187.523
-157.015
-131.063
-108.954
-90.1345
-74.1571
-60.646
-49.2787
-39.7717
-31.8731
-25.3578
-20.0241
-15.692
-12.202
-9.41391
-7.20531
-5.47077
-4.12034
-3.07812
-2.28081
-1.67622
-1.22181
-0.883278
-0.633297
-0.450329
-0.317588
-0.22213
-0.154085
-0.106005
-0.072327
-0.0489427
-0.0328464
-0.0218626
-0.014432
-0.00944853
-0.00613493
-0.00395056
-0.00252293
-0.00159788
-0.0010036
-0.000625094
-0.000386086
-0.00023646
-0.000143599
-8.64643e-05
-5.16172e-05
-3.0549e-05
-1.79232e-05
-1.04236e-05
-6.00868e-06
-3.43292e-06
-1.94374e-06
-1.09061e-06
-6.06373e-07
-3.34093e-07
-1.82454e-07
-9.88119e-08
-5.32608e-08
-2.90002e-08
-1.67255e-08
-1.15974e-08
-4217.14
-3631.07
-2898.31
-2252.78
-1750.81
-1377.08
-1100.45
-893.078
-734.349
-609.981
-510.325
-428.88
-361.236
-304.355
-256.108
-214.96
-179.775
-149.681
-123.985
-102.114
-83.5818
-67.9652
-54.8872
-44.0101
-35.0298
-27.6725
-21.6932
-16.8737
-13.0215
-9.96889
-7.57065
-5.70294
-4.26112
-3.15786
-2.3211
-1.69208
-1.22338
-0.877235
-0.623849
-0.439998
-0.307771
-0.213508
-0.146895
-0.100233
-0.06783
-0.0455246
-0.0303027
-0.0200045
-0.0130974
-0.00850449
-0.00547666
-0.00349768
-0.00221531
-0.00139145
-0.000866702
-0.000535334
-0.000327881
-0.000199124
-0.000119903
-7.15821e-05
-4.23668e-05
-2.48578e-05
-1.44574e-05
-8.33435e-06
-4.76186e-06
-2.69632e-06
-1.51297e-06
-8.41263e-07
-4.63522e-07
-2.53126e-07
-1.37099e-07
-7.39289e-08
-4.0276e-08
-2.32157e-08
-1.6079e-08
-3425.9
-3126.5
-2686.5
-2237.23
-1841.22
-1514.5
-1251.94
-1041.96
-872.931
-735.245
-621.571
-526.516
-446.168
-377.687
-318.993
-268.531
-225.11
-187.789
-155.796
-128.482
-105.281
-85.6893
-69.2553
-55.5684
-44.2553
-34.9781
-27.4323
-21.346
-16.4785
-12.6192
-9.58597
-7.2228
-5.3979
-4.00109
-2.94141
-2.14462
-1.5508
-1.11216
-0.791012
-0.557959
-0.390323
-0.270801
-0.18633
-0.127151
-0.0860527
-0.0577589
-0.0384488
-0.0253838
-0.0166203
-0.0107926
-0.00695053
-0.0044392
-0.00281178
-0.00176619
-0.00110017
-0.000679572
-0.000416244
-0.000252801
-0.000152232
-9.08875e-05
-5.37959e-05
-3.15655e-05
-1.83597e-05
-1.05846e-05
-6.04798e-06
-3.42483e-06
-1.9219e-06
-1.06871e-06
-5.88878e-07
-3.21617e-07
-1.74214e-07
-9.39429e-08
-5.11676e-08
-2.95051e-08
-2.04464e-08
-2928.98
-2757.56
-2479.26
-2164.13
-1858.54
-1584.52
-1348.24
-1147.94
-978.9
-835.879
-714.193
-610
-520.276
-442.687
-375.425
-317.08
-266.523
-222.825
-185.201
-152.964
-125.502
-102.258
-82.7233
-66.4275
-52.94
-41.8673
-32.8525
-25.5754
-19.7515
-15.1311
-11.4978
-8.66582
-6.478
-4.80281
-3.53155
-2.57539
-1.86262
-1.33599
-0.950351
-0.670442
-0.469069
-0.325471
-0.22397
-0.152851
-0.103456
-0.0694458
-0.0462322
-0.0305247
-0.0199878
-0.0129802
-0.00835988
-0.00533967
-0.00338234
-0.0021247
-0.00132357
-0.000817615
-0.000500827
-0.000304189
-0.000183188
-0.000109377
-6.47438e-05
-3.7992e-05
-2.20992e-05
-1.27415e-05
-7.28098e-06
-4.12338e-06
-2.3141e-06
-1.28693e-06
-7.092e-07
-3.87359e-07
-2.09856e-07
-1.13194e-07
-6.16477e-08
-3.55343e-08
-2.46382e-08
-2597.33
-2489.53
-2303.22
-2076.29
-1839.72
-1612.91
-1405.41
-1220.34
-1057.32
-914.432
-789.318
-679.681
-583.508
-499.109
-425.084
-360.274
-303.698
-254.509
-211.954
-175.352
-144.073
-117.531
-95.1762
-76.4952
-61.0106
-48.2824
-37.9087
-29.5269
-22.8137
-17.4842
-13.2907
-10.0204
-7.49281
-5.55668
-4.08686
-2.98101
-2.15641
-1.547
-1.10063
-0.776582
-0.543407
-0.377101
-0.25953
-0.17714
-0.119908
-0.0804971
-0.0535943
-0.0353886
-0.0231746
-0.0150509
-0.00969424
-0.0061924
-0.00392276
-0.00246435
-0.00153526
-0.000948445
-0.000581006
-0.000352913
-0.000212545
-0.000126914
-7.51306e-05
-4.40905e-05
-2.56487e-05
-1.47893e-05
-8.45194e-06
-4.78703e-06
-2.68684e-06
-1.49435e-06
-8.23569e-07
-4.4987e-07
-2.43775e-07
-1.31541e-07
-7.16448e-08
-4.1299e-08
-2.86412e-08
-2366.35
-2293.09
-2161.22
-1992.07
-1805.8
-1617.46
-1436.52
-1267.96
-1113.81
-974.35
-848.961
-736.675
-636.427
-547.189
-468.018
-398.059
-336.533
-282.716
-235.931
-195.529
-160.89
-131.418
-106.539
-85.7091
-68.4162
-54.1824
-42.5683
-33.175
-25.6453
-19.6631
-14.953
-11.2778
-8.43573
-6.25779
-4.60375
-3.35885
-2.43027
-1.74382
-1.24089
-0.875695
-0.612856
-0.425358
-0.292781
-0.19986
-0.135303
-0.0908423
-0.0604883
-0.0399445
-0.0261604
-0.0169916
-0.0109451
-0.00699199
-0.00442963
-0.00278299
-0.00173389
-0.00107124
-0.000656276
-0.000398663
-0.000240118
-0.00014339
-8.4891e-05
-4.98228e-05
-2.8986e-05
-1.67152e-05
-9.55356e-06
-5.41153e-06
-3.0377e-06
-1.68969e-06
-9.31342e-07
-5.08786e-07
-2.75753e-07
-1.48837e-07
-8.10953e-08
-4.67585e-08
-3.24039e-08
-2200.57
-2147.41
-2049.09
-1918.19
-1767.93
-1609.5
-1451.11
-1298.11
-1153.62
-1019.21
-895.494
-782.509
-679.987
-587.502
-504.555
-430.607
-365.101
-307.465
-257.117
-213.465
-175.916
-143.879
-116.774
-94.0361
-75.1282
-59.5433
-46.8116
-36.5038
-28.2335
-21.6579
-16.477
-12.4319
-9.30226
-6.90277
-5.07969
-3.70705
-2.68285
-1.92548
-1.37043
-0.967288
-0.677073
-0.470001
-0.323557
-0.220898
-0.149564
-0.100429
-0.0668792
-0.0441695
-0.0289303
-0.0187924
-0.0121062
-0.00773438
-0.00490036
-0.00307899
-0.00191846
-0.00118536
-0.000726253
-0.000441208
-0.000265765
-0.000158719
-9.3975e-05
-5.51594e-05
-3.20939e-05
-1.85093e-05
-1.05801e-05
-5.99369e-06
-3.36489e-06
-1.87194e-06
-1.03193e-06
-5.63825e-07
-3.05607e-07
-1.64951e-07
-8.99124e-08
-5.18745e-08
-3.59525e-08
-2079.01
-2038.21
-1961.3
-1856.12
-1731.54
-1595.83
-1455.75
-1316.35
-1181.11
-1052.3
-931.29
-818.853
-715.339
-620.827
-535.212
-458.254
-389.617
-328.887
-275.588
-229.2
-189.168
-154.921
-125.879
-101.47
-81.1386
-64.3569
-50.6308
-39.5062
-30.5724
-23.4636
-17.8586
-13.4797
-10.0899
-7.48972
-5.51327
-4.02456
-2.91335
-2.09139
-1.48883
-1.05106
-0.735842
-0.510881
-0.351753
-0.240183
-0.162643
-0.109225
-0.072745
-0.0480487
-0.0314744
-0.020447
-0.0131733
-0.00841691
-0.00533327
-0.00335128
-0.0020883
-0.00129041
-0.000790681
-0.00048039
-0.000289392
-0.000172845
-0.000102348
-6.00801e-05
-3.49605e-05
-2.01647e-05
-1.15277e-05
-6.53124e-06
-3.66712e-06
-2.04036e-06
-1.12494e-06
-6.14711e-07
-3.33229e-07
-1.79914e-07
-9.80798e-08
-5.65811e-08
-3.92717e-08
-1988.52
-1955.63
-1892.82
-1805.22
-1699
-1580.34
-1454.74
-1326.7
-1199.73
-1076.39
-958.508
-847.336
-743.685
-648.036
-560.612
-481.442
-410.39
-347.195
-291.491
-242.833
-200.713
-164.586
-133.882
-108.028
-86.4581
-68.6293
-54.0292
-42.1839
-32.6626
-25.0802
-19.0975
-14.4207
-10.7983
-8.01817
-5.90407
-4.31103
-3.12153
-2.24136
-1.59593
-1.1269
-0.789079
-0.547936
-0.377326
-0.257682
-0.174517
-0.117214
-0.0780752
-0.0515752
-0.033788
-0.0219523
-0.0141445
-0.00903828
-0.00572751
-0.00359933
-0.00224306
-0.00138616
-0.000849425
-0.000516126
-0.000310948
-0.000185737
-0.000109993
-6.45738e-05
-3.75793e-05
-2.16776e-05
-1.2394e-05
-7.02293e-06
-3.94369e-06
-2.19452e-06
-1.2101e-06
-6.61347e-07
-3.58597e-07
-1.93647e-07
-1.05546e-07
-6.09068e-08
-4.22956e-08
-1920.42
-1892.78
-1839.49
-1764.1
-1671.07
-1565.13
-1450.79
-1332.01
-1212.11
-1093.75
-979.008
-869.439
-766.178
-670.008
-581.421
-500.665
-427.784
-362.657
-305.022
-254.506
-210.653
-172.948
-140.836
-113.747
-91.1125
-72.3786
-57.0193
-44.5454
-34.5099
-26.5116
-20.1965
-15.2567
-11.4284
-8.48895
-6.25263
-4.56682
-3.30759
-2.37551
-1.69183
-1.19485
-0.836815
-0.581184
-0.400286
-0.273403
-0.18519
-0.124398
-0.0828709
-0.0547494
-0.0358715
-0.0233083
-0.0150197
-0.00959843
-0.00608303
-0.00382309
-0.00238272
-0.00147259
-0.000902468
-0.000548405
-0.000330424
-0.000197389
-0.000116904
-6.86381e-05
-3.99487e-05
-2.30469e-05
-1.31784e-05
-7.46835e-06
-4.19432e-06
-2.33429e-06
-1.28736e-06
-7.03687e-07
-3.81617e-07
-2.06093e-07
-1.12378e-07
-6.48659e-08
-4.50111e-08
-1868.79
-1844.72
-1798
-1731.2
-1647.71
-1551.25
-1445.58
-1334.18
-1220.16
-1106.14
-994.326
-886.448
-783.865
-687.582
-598.295
-516.433
-442.193
-375.573
-316.406
-264.39
-219.116
-180.101
-146.81
-118.679
-95.1402
-75.6327
-59.6216
-46.6056
-36.125
-27.7657
-21.161
-15.9916
-11.9832
-8.90397
-6.56028
-4.79285
-3.47217
-2.4943
-1.77681
-1.25512
-0.879189
-0.610719
-0.420694
-0.287385
-0.194687
-0.130796
-0.0871431
-0.0575785
-0.0377291
-0.0245179
-0.0158007
-0.0100985
-0.00640052
-0.00402298
-0.00250752
-0.00154986
-0.0009499
-0.000577278
-0.000347852
-0.000207819
-0.000123093
-7.22786e-05
-4.20719e-05
-2.42744e-05
-1.38819e-05
-7.8679e-06
-4.41929e-06
-2.45981e-06
-1.35676e-06
-7.41757e-07
-4.02328e-07
-2.17302e-07
-1.18512e-07
-6.83991e-08
-4.74884e-08
-1829.47
-1807.87
-1765.74
-1705.07
-1628.51
-1539.12
-1440.08
-1334.5
-1225.25
-1114.91
-1005.69
-899.443
-797.664
-701.516
-611.852
-529.242
-454.008
-386.25
-325.884
-272.669
-226.243
-186.155
-151.887
-122.887
-98.5879
-78.4269
-61.8622
-48.3839
-37.5222
-28.8528
-21.9987
-16.6309
-12.4666
-9.26606
-6.82905
-4.99055
-3.61629
-2.59842
-1.85137
-1.30804
-0.916425
-0.636692
-0.438655
-0.299698
-0.203056
-0.136435
-0.0909115
-0.0600752
-0.0393693
-0.0255863
-0.0164909
-0.0105405
-0.0066813
-0.00419982
-0.00261796
-0.00161826
-0.000991905
-0.000602856
-0.000363296
-0.000217064
-0.00012858
-7.55081e-05
-4.3956e-05
-2.53641e-05
-1.45066e-05
-8.22292e-06
-4.61928e-06
-2.57145e-06
-1.41853e-06
-7.7564e-07
-4.20772e-07
-2.27291e-07
-1.23946e-07
-7.15438e-08
-4.97385e-08
-1799.43
-1779.58
-1740.71
-1684.44
-1612.95
-1528.82
-1434.83
-1333.79
-1228.37
-1121.07
-1014.08
-909.309
-808.352
-712.477
-622.65
-539.553
-463.605
-394.99
-333.695
-279.533
-232.184
-191.225
-156.157
-126.44
-101.508
-80.801
-63.7712
-49.9028
-38.7184
-29.7853
-22.7186
-17.1813
-12.8834
-9.57876
-7.06147
-5.16171
-3.7412
-2.68876
-1.91613
-1.35404
-0.948823
-0.659307
-0.454304
-0.310434
-0.210358
-0.141359
-0.0942032
-0.0622571
-0.0408034
-0.0265209
-0.0170948
-0.0109275
-0.0069272
-0.00435475
-0.00271476
-0.00167823
-0.00102874
-0.000625296
-0.000376849
-0.000225181
-0.0001334
-7.83451e-05
-4.56117e-05
-2.6322e-05
-1.5056e-05
-8.5353e-06
-4.79529e-06
-2.66976e-06
-1.47296e-06
-8.05491e-07
-4.36983e-07
-2.36068e-07
-1.28781e-07
-7.438e-08
-5.17077e-08
-1776.46
-1757.85
-1721.32
-1668.23
-1600.46
-1520.26
-1430.11
-1332.58
-1230.19
-1125.35
-1020.23
-916.757
-816.577
-721.037
-631.185
-547.784
-471.33
-402.079
-340.071
-285.169
-237.087
-195.428
-159.712
-129.408
-103.957
-82.7975
-65.381
-51.1869
-39.7319
-30.5771
-23.331
-17.6504
-13.2392
-9.84607
-7.26043
-5.30842
-3.84839
-2.76637
-1.97181
-1.39364
-0.976733
-0.678805
-0.467807
-0.319703
-0.216667
-0.145615
-0.0970503
-0.0641454
-0.0420451
-0.0273305
-0.0176182
-0.0112631
-0.00714047
-0.00448918
-0.00279877
-0.00173029
-0.00106074
-0.000644791
-0.000388628
-0.000232237
-0.000137591
-8.08132e-05
-4.70526e-05
-2.7156e-05
-1.55345e-05
-8.80743e-06
-4.94869e-06
-2.75548e-06
-1.52042e-06
-8.31543e-07
-4.51195e-07
-2.43785e-07
-1.32986e-07
-7.68157e-08
-5.34474e-08
-1758.9
-1741.18
-1706.34
-1655.57
-1590.54
-1513.26
-1426.01
-1331.18
-1231.18
-1128.31
-1024.72
-922.349
-822.87
-727.677
-637.879
-554.3
-477.497
-407.777
-345.229
-289.753
-241.095
-198.88
-162.643
-131.864
-105.99
-84.4598
-66.725
-52.2616
-40.5821
-31.2427
-23.8468
-18.0461
-13.5399
-10.0723
-7.42905
-5.43292
-3.93947
-2.83238
-2.01922
-1.42739
-1.00054
-0.695451
-0.479343
-0.327628
-0.222064
-0.149259
-0.0994892
-0.0657638
-0.0431099
-0.0280251
-0.0180675
-0.0115512
-0.00732366
-0.00460468
-0.00287099
-0.00177506
-0.00108826
-0.000661566
-0.000398765
-0.000238312
-0.0001412
-8.29394e-05
-4.82944e-05
-2.78749e-05
-1.59471e-05
-9.04218e-06
-5.08108e-06
-2.82947e-06
-1.5614e-06
-8.54059e-07
-4.63468e-07
-2.50452e-07
-1.36648e-07
-7.89428e-08
-5.49336e-08
-1745.49
-1728.41
-1694.8
-1645.73
-1582.71
-1507.61
-1422.55
-1329.8
-1231.64
-1130.33
-1027.98
-926.528
-827.656
-732.795
-643.093
-559.421
-482.379
-412.319
-349.364
-293.448
-244.341
-201.686
-165.036
-133.876
-107.66
-85.8302
-67.8361
-53.1522
-41.2883
-31.7967
-24.277
-18.3767
-13.7915
-10.2619
-7.57056
-5.53754
-4.01609
-2.88798
-2.0592
-1.45587
-1.02065
-0.709524
-0.489104
-0.334339
-0.226637
-0.152348
-0.101558
-0.0671375
-0.0440141
-0.0286152
-0.0184493
-0.0117961
-0.0074795
-0.00470298
-0.00293247
-0.00181319
-0.0011117
-0.000675858
-0.000407406
-0.000243491
-0.000144278
-8.47531e-05
-4.93539e-05
-2.84886e-05
-1.62994e-05
-9.24268e-06
-5.19418e-06
-2.89271e-06
-1.59648e-06
-8.73337e-07
-4.7395e-07
-2.56143e-07
-1.39808e-07
-8.07814e-08
-5.61717e-08
-1735.26
-1718.65
-1685.93
-1638.11
-1576.58
-1503.11
-1419.7
-1328.52
-1231.79
-1131.7
-1030.34
-929.636
-831.277
-736.715
-647.126
-563.415
-486.215
-415.909
-352.651
-296.4
-246.945
-203.948
-166.971
-135.509
-109.021
-86.9493
-68.7456
-53.8831
-41.8691
-32.2534
-24.6322
-18.6502
-13.9999
-10.4192
-7.68815
-5.62459
-4.07992
-2.93435
-2.09258
-1.47968
-1.03747
-0.721306
-0.497283
-0.339966
-0.230474
-0.154942
-0.103296
-0.0682922
-0.0447746
-0.0291118
-0.0187708
-0.0120025
-0.0076108
-0.00478582
-0.0029843
-0.00184534
-0.00113148
-0.000687919
-0.000414699
-0.000247864
-0.000146878
-8.62852e-05
-5.02492e-05
-2.90072e-05
-1.65973e-05
-9.41223e-06
-5.28984e-06
-2.94624e-06
-1.62616e-06
-8.89624e-07
-4.8285e-07
-2.60994e-07
-1.4248e-07
-8.23422e-08
-5.72342e-08
-1727.49
-1711.22
-1679.16
-1632.24
-1571.81
-1499.55
-1417.38
-1327.39
-1231.75
-1132.62
-1032.04
-931.937
-834.002
-739.7
-650.226
-566.508
-489.205
-418.724
-355.243
-298.738
-249.017
-205.755
-168.523
-136.823
-110.118
-87.8544
-69.4833
-54.4772
-42.3423
-32.6261
-24.9227
-18.8743
-14.171
-10.5486
-7.78494
-5.69633
-4.13259
-2.97266
-2.12018
-1.49938
-1.05141
-0.731077
-0.50407
-0.344639
-0.233663
-0.1571
-0.104743
-0.0692537
-0.0454082
-0.0295256
-0.0190388
-0.0121746
-0.00772036
-0.00485498
-0.00302757
-0.00187219
-0.001148
-0.000697998
-0.000420796
-0.00025152
-0.000149052
-8.75667e-05
-5.09981e-05
-2.94412e-05
-1.68466e-05
-9.55417e-06
-5.36998e-06
-2.99104e-06
-1.65099e-06
-9.03291e-07
-4.90322e-07
-2.65069e-07
-1.44696e-07
-8.36396e-08
-5.8132e-08
-1721.6
-1705.58
-1674
-1627.75
-1568.13
-1496.76
-1415.52
-1326.43
-1231.63
-1133.23
-1033.26
-933.632
-836.042
-741.959
-652.593
-568.887
-491.519
-420.915
-357.269
-300.574
-250.652
-207.185
-169.755
-137.87
-110.995
-88.5798
-70.0759
-54.9557
-42.7241
-32.9275
-25.1581
-19.0562
-14.3101
-10.6538
-7.86383
-5.75489
-4.17564
-3.004
-2.14278
-1.51553
-1.06285
-0.739102
-0.50965
-0.348484
-0.236289
-0.158877
-0.105935
-0.0700466
-0.0459309
-0.0298673
-0.0192601
-0.0123167
-0.00781091
-0.00491215
-0.00306337
-0.00189441
-0.00116167
-0.00070634
-0.000425842
-0.000254547
-0.000150852
-8.86281e-05
-5.16186e-05
-2.98007e-05
-1.70531e-05
-9.67181e-06
-5.43637e-06
-3.0282e-06
-1.67161e-06
-9.14638e-07
-4.96525e-07
-2.684e-07
-1.46536e-07
-8.47273e-08
-5.88938e-08
-1717.16
-1701.32
-1670.08
-1624.33
-1565.31
-1494.61
-1414.05
-1325.64
-1231.47
-1133.62
-1034.13
-934.876
-837.562
-743.659
-654.388
-570.703
-493.296
-422.606
-358.841
-302.005
-251.93
-208.308
-170.725
-138.696
-111.69
-89.1558
-70.5476
-55.3374
-43.0294
-33.169
-25.3469
-19.2023
-14.422
-10.7387
-7.92754
-5.80224
-4.21048
-3.0294
-2.16112
-1.52865
-1.07215
-0.745631
-0.514193
-0.351616
-0.23843
-0.160327
-0.106909
-0.0706944
-0.0463582
-0.0301466
-0.0194412
-0.0124331
-0.00788504
-0.00495897
-0.00309268
-0.00191261
-0.00117287
-0.000713177
-0.000429979
-0.000257028
-0.000152328
-8.94985e-05
-5.21275e-05
-3.00956e-05
-1.72226e-05
-9.7683e-06
-5.49083e-06
-3.05869e-06
-1.68854e-06
-9.23966e-07
-5.01604e-07
-2.71183e-07
-1.4807e-07
-8.55933e-08
-5.95161e-08
-1713.82
-1698.11
-1667.13
-1621.74
-1563.16
-1492.94
-1412.9
-1325
-1231.3
-1133.88
-1034.75
-935.784
-838.687
-744.931
-655.742
-572.082
-494.652
-423.903
-360.051
-303.111
-252.921
-209.181
-171.483
-139.343
-112.235
-89.6091
-70.9197
-55.6391
-43.2713
-33.3606
-25.4971
-19.3188
-14.5113
-10.8065
-7.9785
-5.84016
-4.23843
-3.0498
-2.17586
-1.53921
-1.07963
-0.750893
-0.517857
-0.354145
-0.240159
-0.161499
-0.107696
-0.0712185
-0.0467041
-0.0303729
-0.019588
-0.0125274
-0.00794515
-0.00499694
-0.00311647
-0.00192738
-0.00118197
-0.000718726
-0.000433337
-0.000259043
-0.000153526
-9.02053e-05
-5.25407e-05
-3.03351e-05
-1.73602e-05
-9.84667e-06
-5.5351e-06
-3.08348e-06
-1.70228e-06
-9.31496e-07
-5.05725e-07
-2.73459e-07
-1.49314e-07
-8.63254e-08
-5.99947e-08
-1711.33
-1695.71
-1664.92
-1619.78
-1561.53
-1491.67
-1412.01
-1324.48
-1231.14
-1134.04
-1035.18
-936.444
-839.517
-745.877
-656.756
-573.12
-495.679
-424.889
-360.976
-303.959
-253.684
-209.855
-172.069
-139.846
-112.659
-89.9627
-71.2106
-55.8755
-43.4611
-33.5113
-25.6154
-19.4106
-14.5819
-10.8602
-8.01889
-5.87025
-4.26063
-3.06602
-2.1876
-1.54762
-1.08561
-0.755094
-0.520785
-0.356167
-0.241543
-0.162437
-0.108327
-0.0716387
-0.0469815
-0.0305545
-0.0197057
-0.0126032
-0.00799342
-0.00502745
-0.00313558
-0.00193925
-0.00118927
-0.000723187
-0.000436037
-0.000260663
-0.00015449
-9.07736e-05
-5.28729e-05
-3.05277e-05
-1.74708e-05
-9.90972e-06
-5.57072e-06
-3.10338e-06
-1.7133e-06
-9.37577e-07
-5.09062e-07
-2.75252e-07
-1.50304e-07
-8.68951e-08
-6.04096e-08
-1709.47
-1693.93
-1663.27
-1618.32
-1560.3
-1490.71
-1411.33
-1324.08
-1231
-1134.14
-1035.49
-936.921
-840.125
-746.577
-657.51
-573.897
-496.451
-425.634
-361.676
-304.603
-254.266
-210.371
-172.519
-140.232
-112.987
-90.2361
-71.4361
-56.0591
-43.6088
-33.6288
-25.7078
-19.4825
-14.6372
-10.9023
-8.05061
-5.89391
-4.2781
-3.0788
-2.19686
-1.55426
-1.09033
-0.758417
-0.523103
-0.357769
-0.24264
-0.163182
-0.108827
-0.0719724
-0.0472019
-0.0306988
-0.0197994
-0.0126634
-0.00803184
-0.00505173
-0.00315079
-0.00194869
-0.00119509
-0.000726739
-0.000438186
-0.000261953
-0.000155257
-9.1226e-05
-5.31374e-05
-3.0681e-05
-1.75589e-05
-9.9599e-06
-5.59902e-06
-3.11923e-06
-1.72211e-06
-9.424e-07
-5.11677e-07
-2.76674e-07
-1.51071e-07
-8.73638e-08
-6.07696e-08
-1708.1
-1692.6
-1662.04
-1617.24
-1559.38
-1489.99
-1410.81
-1323.76
-1230.88
-1134.2
-1035.71
-937.265
-840.568
-747.091
-658.068
-574.475
-497.028
-426.192
-362.203
-305.09
-254.706
-210.763
-172.862
-140.527
-113.237
-90.4457
-71.6092
-56.2004
-43.7227
-33.7195
-25.7792
-19.5381
-14.6801
-10.935
-8.07529
-5.91235
-4.29173
-3.08878
-2.2041
-1.55946
-1.09402
-0.761022
-0.524922
-0.359027
-0.243501
-0.163767
-0.109221
-0.0722349
-0.0473754
-0.0308124
-0.0198732
-0.0127109
-0.00806211
-0.00507087
-0.00316278
-0.00195615
-0.00119968
-0.000729541
-0.000439882
-0.00026297
-0.000155862
-9.15826e-05
-5.33459e-05
-3.08018e-05
-1.76283e-05
-9.99938e-06
-5.62132e-06
-3.1317e-06
-1.72903e-06
-9.46206e-07
-5.13731e-07
-2.77801e-07
-1.51723e-07
-8.77468e-08
-6.10198e-08
-1707.08
-1691.63
-1661.14
-1616.43
-1558.7
-1489.45
-1410.41
-1323.52
-1230.78
-1134.23
-1035.86
-937.511
-840.889
-747.467
-658.479
-574.902
-497.455
-426.608
-362.597
-305.455
-255.037
-211.058
-173.12
-140.751
-113.427
-90.605
-71.7411
-56.3082
-43.8097
-33.7889
-25.834
-19.5809
-14.7131
-10.9601
-8.09431
-5.92658
-4.30227
-3.0965
-2.2097
-1.56349
-1.09689
-0.763044
-0.526334
-0.360005
-0.244172
-0.164223
-0.109528
-0.0724396
-0.0475107
-0.0309011
-0.0199307
-0.0127479
-0.00808575
-0.00508582
-0.00317215
-0.00196197
-0.00120326
-0.000731728
-0.000441206
-0.000263764
-0.000156334
-9.1861e-05
-5.35086e-05
-3.0896e-05
-1.76824e-05
-1.00302e-05
-5.63869e-06
-3.1414e-06
-1.73442e-06
-9.49193e-07
-5.15357e-07
-2.78676e-07
-1.52208e-07
-8.80147e-08
-6.12163e-08
-1706.34
-1690.91
-1660.47
-1615.84
-1558.2
-1489.05
-1410.12
-1323.34
-1230.7
-1134.25
-1035.96
-937.686
-841.121
-747.74
-658.778
-575.215
-497.77
-426.914
-362.888
-305.725
-255.284
-211.278
-173.314
-140.918
-113.57
-90.7251
-71.8407
-56.3897
-43.8757
-33.8416
-25.8757
-19.6134
-14.7382
-10.9794
-8.10885
-5.93746
-4.31034
-3.10242
-2.214
-1.56658
-1.0991
-0.7646
-0.527422
-0.360758
-0.244689
-0.164574
-0.109765
-0.0725976
-0.0476153
-0.0309696
-0.0199752
-0.0127766
-0.00810403
-0.00509738
-0.0031794
-0.00196647
-0.00120604
-0.000733421
-0.00044223
-0.000264378
-0.000156699
-9.20763e-05
-5.36343e-05
-3.09688e-05
-1.77242e-05
-1.0054e-05
-5.65212e-06
-3.1489e-06
-1.73857e-06
-9.51476e-07
-5.16611e-07
-2.7935e-07
-1.52546e-07
-8.82089e-08
-6.14051e-08
-1705.81
-1690.39
-1659.99
-1615.41
-1557.83
-1488.75
-1409.91
-1323.2
-1230.64
-1134.26
-1036.03
-937.81
-841.287
-747.937
-658.996
-575.443
-498
-427.14
-363.103
-305.925
-255.466
-211.442
-173.458
-141.043
-113.676
-90.8148
-71.9152
-56.4508
-43.9252
-33.8813
-25.907
-19.6379
-14.7572
-10.9939
-8.11987
-5.94572
-4.31646
-3.10692
-2.21727
-1.56894
-1.10078
-0.765787
-0.528253
-0.361333
-0.245084
-0.164843
-0.109946
-0.0727186
-0.0476953
-0.0310221
-0.0200093
-0.0127985
-0.00811805
-0.00510624
-0.00318495
-0.00196992
-0.00120816
-0.000734718
-0.000443014
-0.000264849
-0.000156979
-9.2241e-05
-5.37305e-05
-3.10245e-05
-1.77562e-05
-1.00722e-05
-5.66235e-06
-3.15461e-06
-1.74174e-06
-9.53227e-07
-5.17596e-07
-2.79872e-07
-1.52822e-07
-8.83889e-08
-6.14852e-08
-1705.42
-1690.02
-1659.64
-1615.1
-1557.57
-1488.54
-1409.75
-1323.1
-1230.6
-1134.27
-1036.08
-937.898
-841.405
-748.078
-659.152
-575.608
-498.167
-427.303
-363.259
-306.071
-255.6
-211.562
-173.564
-141.135
-113.755
-90.8812
-71.9705
-56.4963
-43.9621
-33.9109
-25.9305
-19.6563
-14.7714
-11.0048
-8.12813
-5.95192
-4.32107
-3.1103
-2.21974
-1.57071
-1.10204
-0.766684
-0.52888
-0.361769
-0.245383
-0.165046
-0.110083
-0.0728103
-0.047756
-0.0310619
-0.0200352
-0.0128152
-0.00812868
-0.00511297
-0.00318917
-0.00197254
-0.00120978
-0.000735702
-0.00044361
-0.000265206
-0.000157191
-9.23658e-05
-5.38034e-05
-3.10667e-05
-1.77804e-05
-1.00859e-05
-5.67009e-06
-3.15894e-06
-1.74414e-06
-9.54546e-07
-5.18302e-07
-2.80243e-07
-1.53045e-07
-8.85163e-08
-6.15676e-08
-1705.14
-1689.75
-1659.39
-1614.87
-1557.38
-1488.38
-1409.63
-1323.02
-1230.56
-1134.27
-1036.11
-937.959
-841.489
-748.179
-659.265
-575.726
-498.287
-427.422
-363.373
-306.178
-255.697
-211.649
-173.641
-141.202
-113.813
-90.9301
-72.0113
-56.5298
-43.9893
-33.9327
-25.9478
-19.6699
-14.782
-11.0129
-8.13428
-5.95654
-4.3245
-3.11283
-2.22158
-1.57204
-1.10299
-0.767355
-0.529351
-0.362095
-0.245608
-0.165199
-0.110186
-0.0728792
-0.0478016
-0.0310918
-0.0200547
-0.0128278
-0.00813669
-0.00511803
-0.00319235
-0.00197451
-0.00121099
-0.000736442
-0.000444057
-0.000265474
-0.00015735
-9.24596e-05
-5.38581e-05
-3.10984e-05
-1.77985e-05
-1.00962e-05
-5.6759e-06
-3.1622e-06
-1.74591e-06
-9.5549e-07
-5.18825e-07
-2.80548e-07
-1.5322e-07
-8.86074e-08
-6.1629e-08
-1704.94
-1689.56
-1659.21
-1614.71
-1557.24
-1488.27
-1409.55
-1322.97
-1230.53
-1134.27
-1036.14
-938.002
-841.548
-748.25
-659.344
-575.811
-498.374
-427.507
-363.455
-306.254
-255.768
-211.713
-173.697
-141.251
-113.855
-90.9657
-72.041
-56.5543
-44.0093
-33.9488
-25.9606
-19.6799
-14.7898
-11.0189
-8.13882
-5.95995
-4.32704
-3.1147
-2.22294
-1.57303
-1.1037
-0.767853
-0.5297
-0.362338
-0.245775
-0.165313
-0.110263
-0.0729306
-0.0478356
-0.0311142
-0.0200692
-0.0128371
-0.00814266
-0.00512181
-0.00319471
-0.00197598
-0.00121189
-0.000736994
-0.00044439
-0.000265674
-0.000157469
-9.25293e-05
-5.38988e-05
-3.11218e-05
-1.7812e-05
-1.01039e-05
-5.68019e-06
-3.16459e-06
-1.74724e-06
-9.56222e-07
-5.19227e-07
-2.80787e-07
-1.53335e-07
-8.86348e-08
-6.16696e-08
-1704.8
-1689.42
-1659.08
-1614.6
-1557.14
-1488.19
-1409.49
-1322.93
-1230.51
-1134.26
-1036.15
-938.032
-841.59
-748.301
-659.401
-575.871
-498.435
-427.567
-363.513
-306.309
-255.818
-211.758
-173.738
-141.287
-113.885
-90.9914
-72.0625
-56.5721
-44.0238
-33.9604
-25.9698
-19.6872
-14.7954
-11.0232
-8.14213
-5.96245
-4.3289
-3.11607
-2.22394
-1.57375
-1.10421
-0.76822
-0.529957
-0.362517
-0.245898
-0.165397
-0.110319
-0.0729684
-0.0478607
-0.0311306
-0.0200799
-0.012844
-0.00814706
-0.00512459
-0.00319646
-0.00197706
-0.00121256
-0.000737401
-0.000444636
-0.000265821
-0.000157556
-9.25807e-05
-5.39287e-05
-3.11391e-05
-1.78218e-05
-1.01095e-05
-5.68333e-06
-3.16632e-06
-1.74822e-06
-9.56775e-07
-5.1951e-07
-2.80934e-07
-1.53421e-07
-8.87007e-08
-6.16784e-08
-1704.7
-1689.32
-1658.99
-1614.52
-1557.07
-1488.14
-1409.44
-1322.9
-1230.5
-1134.26
-1036.16
-938.052
-841.618
-748.336
-659.44
-575.913
-498.478
-427.61
-363.554
-306.348
-255.854
-211.791
-173.767
-141.312
-113.907
-91.0099
-72.078
-56.5849
-44.0342
-33.9688
-25.9765
-19.6925
-14.7995
-11.0264
-8.14454
-5.96426
-4.33025
-3.11707
-2.22467
-1.57428
-1.10459
-0.768487
-0.530145
-0.362647
-0.245987
-0.165458
-0.110361
-0.0729961
-0.0478791
-0.0311427
-0.0200878
-0.0128491
-0.00815029
-0.00512663
-0.00319774
-0.00197786
-0.00121305
-0.000737698
-0.000444816
-0.000265928
-0.00015762
-9.26182e-05
-5.39505e-05
-3.11517e-05
-1.7829e-05
-1.01136e-05
-5.68563e-06
-3.16761e-06
-1.74892e-06
-9.5716e-07
-5.19731e-07
-2.81047e-07
-1.53471e-07
-8.87479e-08
-6.17026e-08
-1704.63
-1689.26
-1658.93
-1614.46
-1557.02
-1488.1
-1409.41
-1322.88
-1230.49
-1134.26
-1036.17
-938.066
-841.638
-748.36
-659.468
-575.943
-498.508
-427.64
-363.583
-306.375
-255.879
-211.814
-173.787
-141.33
-113.922
-91.023
-72.089
-56.594
-44.0416
-33.9748
-25.9813
-19.6963
-14.8025
-11.0287
-8.14627
-5.96556
-4.33122
-3.11779
-2.2252
-1.57466
-1.10486
-0.76868
-0.530281
-0.362742
-0.246053
-0.165502
-0.110391
-0.0730162
-0.0478924
-0.0311514
-0.0200934
-0.0128527
-0.00815263
-0.00512811
-0.00319866
-0.00197843
-0.0012134
-0.000737914
-0.000444946
-0.000266006
-0.000157666
-9.26452e-05
-5.39663e-05
-3.11608e-05
-1.78342e-05
-1.01165e-05
-5.68728e-06
-3.16854e-06
-1.74942e-06
-9.57403e-07
-5.19856e-07
-2.81155e-07
-1.53546e-07
-8.87687e-08
-6.1719e-08
-1704.58
-1689.21
-1658.89
-1614.42
-1556.99
-1488.07
-1409.39
-1322.86
-1230.48
-1134.26
-1036.17
-938.076
-841.652
-748.377
-659.487
-575.963
-498.529
-427.661
-363.603
-306.394
-255.897
-211.83
-173.801
-141.342
-113.933
-91.0322
-72.0967
-56.6004
-44.0469
-33.9791
-25.9847
-19.6989
-14.8046
-11.0303
-8.1475
-5.96649
-4.33192
-3.1183
-2.22557
-1.57493
-1.10506
-0.768819
-0.530378
-0.362809
-0.246099
-0.165534
-0.110412
-0.0730306
-0.047902
-0.0311577
-0.0200975
-0.0128554
-0.00815431
-0.00512918
-0.00319933
-0.00197885
-0.00121366
-0.000738068
-0.000445039
-0.000266062
-0.000157699
-9.26646e-05
-5.39775e-05
-3.11673e-05
-1.78379e-05
-1.01186e-05
-5.68846e-06
-3.16921e-06
-1.74978e-06
-9.57611e-07
-5.19961e-07
-2.8119e-07
-1.53581e-07
-8.87852e-08
-6.17289e-08
-1704.55
-1689.18
-1658.86
-1614.39
-1556.96
-1488.05
-1409.38
-1322.85
-1230.47
-1134.26
-1036.18
-938.082
-841.661
-748.388
-659.5
-575.977
-498.544
-427.676
-363.617
-306.408
-255.909
-211.841
-173.811
-141.351
-113.941
-91.0387
-72.1022
-56.6049
-44.0506
-33.9821
-25.9871
-19.7008
-14.806
-11.0314
-8.14836
-5.96715
-4.33241
-3.11866
-2.22584
-1.57512
-1.1052
-0.768917
-0.530447
-0.362857
-0.246132
-0.165557
-0.110428
-0.0730409
-0.0479088
-0.0311622
-0.0201004
-0.0128572
-0.00815551
-0.00512993
-0.0031998
-0.00197914
-0.00121384
-0.000738178
-0.000445106
-0.000266102
-0.000157722
-9.26784e-05
-5.39855e-05
-3.11719e-05
-1.78406e-05
-1.01201e-05
-5.68927e-06
-3.16964e-06
-1.75004e-06
-9.57772e-07
-5.20049e-07
-2.8123e-07
-1.53609e-07
-8.87907e-08
-6.17278e-08
-1704.52
-1689.16
-1658.83
-1614.37
-1556.95
-1488.04
-1409.37
-1322.85
-1230.47
-1134.26
-1036.18
-938.086
-841.667
-748.396
-659.509
-575.987
-498.554
-427.686
-363.627
-306.417
-255.918
-211.849
-173.818
-141.357
-113.946
-91.0432
-72.106
-56.608
-44.0532
-33.9842
-25.9888
-19.7021
-14.8071
-11.0322
-8.14897
-5.96761
-4.33275
-3.11892
-2.22602
-1.57526
-1.10529
-0.768986
-0.530496
-0.362891
-0.246156
-0.165573
-0.110439
-0.0730481
-0.0479136
-0.0311653
-0.0201025
-0.0128586
-0.00815635
-0.00513047
-0.00320014
-0.00197935
-0.00121396
-0.000738256
-0.000445152
-0.000266129
-0.000157739
-9.2688e-05
-5.39911e-05
-3.11751e-05
-1.78424e-05
-1.01211e-05
-5.68984e-06
-3.16994e-06
-1.7502e-06
-9.57869e-07
-5.20126e-07