/*--------------------------------*- C++ -*----------------------------------*\
  =========                 |
  \\      /  F ield         | OpenFOAM: The Open Source CFD Toolbox
   \\    /   O peration     | Website:  https://openfoam.org
    \\  /    A nd           | Version:  10
     \\/     M anipulation  |
\*---------------------------------------------------------------------------*/
FoamFile
{
    format      ascii;
    class       volScalarField;
    location    "246";
    object      gradTx;
}
// * * * * * * * * * * * * * * * * * * * * * * * * * * * * * * * * * * * * * //

dimensions      [0 -1 0 1 0 0 0];

internalField   nonuniform List<scalar> 
11250
(
14291.6
8079.32
5269.8
3772.26
2860.67
2248.2
1806.64
1472.04
1209.46
998.274
825.547
682.683
563.693
464.216
380.947
311.291
253.15
204.782
164.716
131.696
104.635
82.595
64.7607
50.4287
38.9931
29.9356
22.8155
17.2613
12.9623
9.66104
7.14619
5.24578
3.82129
2.76221
1.98124
1.41006
0.99574
0.697676
0.485013
0.334531
0.228927
0.155428
0.104695
0.0699657
0.0463872
0.0305112
0.0199096
0.0128884
0.00827674
0.00527273
0.00333207
0.00208873
0.00129875
0.000800989
0.000489964
0.000297248
0.000178841
0.000106705
6.31307e-05
3.70348e-05
2.15407e-05
1.24211e-05
7.10036e-06
4.02329e-06
2.25963e-06
1.25778e-06
6.93848e-07
3.79272e-07
2.05403e-07
1.1016e-07
5.84525e-08
3.05895e-08
1.55346e-08
7.23879e-09
2.08986e-09
4087.48
4678.35
3960.67
3190.2
2566.36
2082.92
1705.97
1406.84
1165.23
967.214
803.15
666.208
551.391
454.929
373.881
305.886
249.001
201.592
162.264
129.812
103.191
81.4905
63.919
49.7899
38.5105
29.5728
22.5442
17.0595
12.8131
9.55149
7.06622
5.18778
3.77951
2.73233
1.96001
1.39508
0.985249
0.690382
0.479978
0.331081
0.226581
0.153844
0.103634
0.0692605
0.0459219
0.0302066
0.0197117
0.0127608
0.00819519
0.00522099
0.00329951
0.0020684
0.00128616
0.000793254
0.000485252
0.000294401
0.000177136
0.000105692
6.25341e-05
3.66865e-05
2.13392e-05
1.23055e-05
7.03464e-06
3.98631e-06
2.23897e-06
1.24635e-06
6.87557e-07
3.75869e-07
2.03581e-07
1.09204e-07
5.79432e-08
3.03294e-08
1.54512e-08
7.17952e-09
2.07999e-09
1468.07
2587.65
2707.16
2465.35
2136.41
1816.73
1533.72
1290.88
1084.54
909.529
761.028
634.937
527.881
437.086
360.248
295.423
240.949
195.389
157.486
126.136
100.369
79.3303
62.2715
48.5384
37.5643
28.861
22.0117
16.6634
12.5202
9.33619
6.90901
5.07374
3.69734
2.67352
1.91822
1.3656
0.964594
0.676017
0.470061
0.324285
0.221958
0.150724
0.101544
0.0678703
0.0450047
0.029606
0.0193215
0.0125093
0.00803431
0.0051189
0.00323524
0.00202827
0.0012613
0.000777982
0.000475946
0.000288778
0.000173766
0.00010369
6.1355e-05
3.5998e-05
2.09407e-05
1.20769e-05
6.90466e-06
3.91302e-06
2.19803e-06
1.22372e-06
6.75158e-07
3.69121e-07
1.99944e-07
1.07281e-07
5.69543e-08
2.98157e-08
1.51735e-08
7.04012e-09
2.05035e-09
665.802
1498.73
1817.72
1831.43
1701.89
1519.36
1327.42
1145.06
979.488
832.536
703.762
591.83
495.127
412.023
340.974
280.553
229.458
186.505
150.623
120.844
96.2977
76.2088
59.8872
46.7252
36.1919
27.8276
21.2379
16.0873
12.0939
9.02273
6.67999
4.90753
3.57753
2.58775
1.85725
1.32256
0.934438
0.655039
0.455574
0.314356
0.215203
0.146162
0.0984871
0.0658376
0.0436632
0.0287275
0.0187507
0.0121413
0.00779888
0.00496949
0.00314117
0.00196952
0.0012249
0.000755615
0.000462315
0.00028054
0.000168829
0.000100756
5.96266e-05
3.49885e-05
2.03563e-05
1.17416e-05
6.71395e-06
3.80556e-06
2.13803e-06
1.19051e-06
6.56943e-07
3.59218e-07
1.9461e-07
1.04433e-07
5.54451e-08
2.90309e-08
1.47641e-08
6.8623e-09
1.98449e-09
362.763
925.399
1236.27
1344.45
1324.93
1236.71
1117.49
988.92
862.62
744.369
636.722
540.5
455.603
381.46
317.272
262.142
215.151
175.394
142.007
114.178
91.1562
72.2574
56.863
44.4213
34.4456
26.511
20.2508
15.3517
11.5491
8.62181
6.38687
4.69466
3.42399
2.47778
1.77904
1.26733
0.895724
0.628098
0.436964
0.301596
0.20652
0.140298
0.094556
0.0632227
0.0419371
0.027597
0.0180159
0.0116674
0.0074957
0.00477704
0.00301998
0.00189381
0.00117799
0.000726784
0.000444742
0.000269917
0.000162461
9.69711e-05
5.73962e-05
3.36855e-05
1.96017e-05
1.13085e-05
6.46759e-06
3.6667e-06
2.06047e-06
1.14757e-06
6.33412e-07
3.4644e-07
1.87744e-07
1.00762e-07
5.351e-08
2.80057e-08
1.42438e-08
6.6362e-09
1.92303e-09
223.147
605.425
860.109
988.706
1021.05
990.211
922.644
836.737
744.264
652.351
565.077
484.604
411.912
347.264
290.491
241.172
198.747
162.584
132.027
106.427
85.1579
67.6344
53.3162
41.7136
32.3894
24.9583
19.0851
14.4819
10.9042
8.14671
6.03922
4.44198
3.24161
2.34707
1.68602
1.20162
0.849631
0.596008
0.414788
0.286385
0.196165
0.133302
0.0898651
0.0601015
0.0398763
0.0262467
0.0171381
0.0111012
0.00713335
0.00454698
0.00287508
0.00180327
0.00112188
0.000692287
0.000423708
0.000257199
0.000154835
9.24374e-05
5.47237e-05
3.21238e-05
1.8697e-05
1.0789e-05
6.172e-06
3.49999e-06
1.96732e-06
1.09602e-06
6.05129e-07
3.31079e-07
1.79489e-07
9.63873e-08
5.1239e-08
2.68269e-08
1.36379e-08
6.34862e-09
1.8451e-09
148.06
414.565
612.528
732.604
784.579
785.347
751.639
697.067
631.618
562.152
493.148
427.384
366.472
311.234
261.97
218.641
180.991
148.632
121.1
97.9021
78.5356
62.5137
49.3763
38.6983
30.0946
23.2221
17.7795
13.5063
10.1799
7.6125
5.64788
4.15729
3.03595
2.19955
1.58097
1.12735
0.797512
0.559702
0.389686
0.269159
0.184433
0.125372
0.0845464
0.0565613
0.037538
0.0247143
0.0161415
0.0104582
0.00672174
0.00428557
0.00271037
0.00170033
0.00105806
0.000653043
0.000399775
0.000242723
0.000146153
8.72736e-05
5.16788e-05
3.03438e-05
1.76655e-05
1.01965e-05
5.83465e-06
3.30968e-06
1.86095e-06
1.0371e-06
5.72798e-07
3.13511e-07
1.70035e-07
9.13701e-08
4.86069e-08
2.54713e-08
1.29673e-08
6.02482e-09
1.74302e-09
103.071
293.688
445.19
547.818
603.292
619.609
606.701
573.909
528.927
477.607
424.149
371.431
321.321
274.952
232.927
195.481
162.595
134.079
109.638
88.9157
71.525
57.0729
45.1769
35.4755
27.636
21.3579
16.375
12.455
9.39813
7.03517
5.22446
3.84891
2.81295
2.03946
1.46687
1.04663
0.740823
0.520188
0.36235
0.25039
0.171644
0.116724
0.0787433
0.0526971
0.0349848
0.0230403
0.0150526
0.00975537
0.00627166
0.00399963
0.00253016
0.00158766
0.000988186
0.000610063
0.000373553
0.000226858
0.000136634
8.16101e-05
4.83379e-05
2.83899e-05
1.65327e-05
9.54553e-06
5.46384e-06
3.10036e-06
1.74384e-06
9.7218e-07
5.37175e-07
2.94131e-07
1.59584e-07
8.577e-08
4.56269e-08
2.3939e-08
1.22154e-08
5.67029e-09
1.63984e-09
74.0601
213.278
328.941
413.2
464.899
487.462
486.532
468.229
438.149
400.938
360.204
318.609
278.025
239.697
204.387
172.503
144.192
119.418
98.0212
79.7608
64.3506
51.4832
40.8476
32.143
25.0869
19.4206
14.9123
11.3581
8.58115
6.43092
4.78068
3.52532
2.5787
1.87111
1.34678
0.961592
0.681062
0.478503
0.333493
0.230565
0.158128
0.10758
0.072604
0.0486071
0.0322811
0.021267
0.0138985
0.00901024
0.00579433
0.00369627
0.0023389
0.00146805
0.000913976
0.000564398
0.000345683
0.000209988
0.000126508
7.55831e-05
4.4781e-05
2.63088e-05
1.53256e-05
8.85145e-06
5.06832e-06
2.87693e-06
1.61875e-06
9.02799e-07
4.99047e-07
2.7337e-07
1.48379e-07
7.97715e-08
4.24558e-08
2.2297e-08
1.13779e-08
5.31137e-09
1.55423e-09
54.3746
157.682
246.155
313.944
359.119
382.869
388.28
379.244
359.687
333.131
302.507
270.117
237.68
206.418
177.147
150.361
126.312
105.072
86.583
70.6978
57.2148
45.9004
36.508
28.7918
22.5162
17.4619
13.4302
10.2444
7.75017
5.81529
4.32789
3.19471
2.33908
1.69872
1.22368
0.874348
0.619695
0.435665
0.303817
0.210164
0.14421
0.0981578
0.0662751
0.0443888
0.0294913
0.0194363
0.0127066
0.00824032
0.00530092
0.00338257
0.00214105
0.00134425
0.000837145
0.000517101
0.000316805
0.000192501
0.000116007
6.93299e-05
4.10889e-05
2.41473e-05
1.40711e-05
8.12977e-06
4.6568e-06
2.64436e-06
1.48851e-06
8.30498e-07
4.59264e-07
2.51706e-07
1.36683e-07
7.35327e-08
3.91608e-08
2.05419e-08
1.0468e-08
4.90855e-09
1.43568e-09
40.5211
118.078
185.952
239.887
277.97
300.356
308.664
305.316
293.001
274.313
251.544
226.594
200.958
175.755
151.777
129.546
109.367
91.3788
75.5963
61.9448
50.2898
40.4594
32.2627
25.5025
19.9855
15.5286
11.9638
9.1401
6.92464
5.20266
3.87659
2.86473
2.0996
1.52623
1.10037
0.786868
0.558107
0.392636
0.273985
0.18964
0.130199
0.0886674
0.0598964
0.0401348
0.0266765
0.0175883
0.0115029
0.0074624
0.00480215
0.00306532
0.00194086
0.00121895
0.000759345
0.000469187
0.000287537
0.00017477
0.000105354
6.29833e-05
3.73396e-05
2.19513e-05
1.27959e-05
7.3957e-06
4.23791e-06
2.40748e-06
1.35576e-06
7.5676e-07
4.18649e-07
2.2956e-07
1.24726e-07
6.71435e-08
3.57494e-08
1.87528e-08
9.57013e-09
4.45633e-09
1.28531e-09
30.509
89.2167
141.421
184.045
215.444
235.34
244.531
244.497
237.053
224.072
207.299
188.254
168.187
148.074
128.641
110.391
93.6489
78.5881
65.2705
53.6731
43.7137
35.2703
28.1984
22.3426
17.5468
13.6605
10.5434
8.06808
6.1216
4.60562
3.43606
2.54213
1.86516
1.35715
0.979363
0.700932
0.497546
0.350287
0.244599
0.169409
0.116378
0.0792989
0.0535955
0.0359303
0.0238928
0.0157597
0.0103112
0.00669189
0.00430791
0.00275081
0.00174232
0.00109461
0.00068211
0.000421599
0.000258454
0.000157143
9.47583e-05
5.66673e-05
3.36063e-05
1.97634e-05
1.15247e-05
6.66343e-06
3.81981e-06
2.17085e-06
1.223e-06
6.82979e-07
3.78028e-07
2.07376e-07
1.12734e-07
6.07125e-08
3.23237e-08
1.69845e-08
8.66569e-09
4.01728e-09
1.17445e-09
23.1299
67.8177
108.039
141.566
167.069
184.127
193.085
194.837
190.595
181.692
169.434
155.008
139.43
123.522
107.922
93.092
79.3446
66.8683
55.7517
46.0067
37.5893
30.4168
24.3822
19.3654
15.242
11.89
9.19371
7.04711
5.35522
4.03476
3.01411
2.23266
1.63993
1.1945
0.862819
0.618072
0.439092
0.309372
0.216185
0.149829
0.102992
0.0702188
0.0474847
0.0318499
0.0211897
0.0139831
0.00915275
0.00594248
0.00382695
0.0024446
0.00154892
0.000973443
0.000606805
0.000375177
0.000230071
0.000139931
8.44066e-05
5.04935e-05
2.99551e-05
1.76223e-05
1.02798e-05
5.94589e-06
3.40981e-06
1.93864e-06
1.09265e-06
6.10479e-07
3.38077e-07
1.85527e-07
1.00916e-07
5.43617e-08
2.89628e-08
1.52064e-08
7.76564e-09
3.6386e-09
1.08664e-09
17.6124
51.7459
82.7574
109.03
129.519
143.79
151.952
154.536
152.345
146.319
137.422
126.567
114.561
102.081
89.6665
77.7256
66.5462
56.3139
47.129
39.0253
31.9857
25.957
20.8621
16.6095
13.1019
10.2413
7.9337
6.09175
4.63656
3.49841
2.61697
1.9409
1.42728
1.04073
0.752496
0.539543
0.383635
0.270516
0.189174
0.131201
0.0902464
0.0615667
0.0416577
0.0279566
0.0186088
0.0122859
0.00804539
0.00522573
0.00336672
0.00215143
0.00136366
0.000857317
0.000534599
0.000330643
0.000202828
0.000123401
7.44604e-05
4.45582e-05
2.64429e-05
1.55615e-05
9.08089e-06
5.25438e-06
3.01441e-06
1.71455e-06
9.66778e-07
5.40381e-07
2.99382e-07
1.64382e-07
8.94361e-08
4.81898e-08
2.57029e-08
1.35347e-08
6.93694e-09
3.26541e-09
9.56025e-10
13.4433
39.561
63.4672
83.9823
100.301
112.03
119.161
122.003
121.083
117.062
110.646
102.526
93.3328
83.6123
73.8116
64.2792
55.2702
46.957
39.4416
32.7694
26.9412
21.9254
17.6678
14.1003
11.1472
8.73116
6.77656
5.21231
3.97358
3.00264
2.24921
1.67029
1.22974
0.897678
0.649731
0.466306
0.331857
0.2342
0.163906
0.113759
0.0783022
0.0534523
0.0361888
0.0242999
0.0161833
0.0106897
0.00700342
0.00455092
0.00293318
0.00187512
0.00118897
0.000747756
0.00046644
0.000288584
0.000177085
0.000107774
6.50519e-05
3.89406e-05
2.31168e-05
1.36086e-05
7.94409e-06
4.59824e-06
2.63898e-06
1.50158e-06
8.47048e-07
4.73648e-07
2.62534e-07
1.4423e-07
7.85038e-08
4.23373e-08
2.2601e-08
1.19135e-08
6.10605e-09
2.87356e-09
8.33092e-10
10.27
30.2619
48.671
64.6341
77.5361
87.0436
93.096
95.8658
95.701
93.0617
88.4616
82.4191
75.4217
67.9013
60.2215
52.6728
45.4745
38.7806
32.688
27.2465
22.4679
18.3357
14.8132
11.8501
9.38893
7.36896
5.73009
4.41511
3.3713
2.55136
1.91384
1.42309
1.04901
0.766614
0.555452
0.399035
0.284242
0.200769
0.140622
0.0976718
0.067276
0.0459555
0.0311323
0.0209167
0.0139376
0.00921102
0.00603749
0.00392499
0.00253081
0.00161854
0.00102666
0.00064591
0.000403048
0.000249446
0.000153118
9.32172e-05
5.62829e-05
3.37019e-05
2.00131e-05
1.17853e-05
6.88199e-06
3.98484e-06
2.28774e-06
1.30218e-06
7.34844e-07
4.11083e-07
2.27965e-07
1.25285e-07
6.82531e-08
3.68393e-08
1.96825e-08
1.03549e-08
5.2993e-09
2.4894e-09
7.38697e-10
7.84268
23.1341
37.2842
49.6593
59.7929
67.4126
72.4395
74.9661
75.2198
73.5211
70.2414
65.7669
60.47
54.6882
48.7122
42.7798
37.0749
31.7308
26.8354
22.4379
18.5564
15.1846
12.2983
9.86126
7.83009
6.15789
4.79735
3.70287
2.83204
2.1465
1.61241
1.20053
0.886038
0.648256
0.470198
0.338127
0.241081
0.170432
0.119471
0.0830447
0.0572419
0.0391275
0.0265234
0.0178306
0.0118878
0.00786037
0.00515467
0.00335258
0.00216264
0.00138363
0.000877984
0.000552569
0.00034492
0.000213539
0.000131118
7.98478e-05
4.8225e-05
2.88854e-05
1.7158e-05
1.0107e-05
5.9037e-06
3.41945e-06
1.96379e-06
1.11817e-06
6.3121e-07
3.53234e-07
1.95961e-07
1.07754e-07
5.87247e-08
3.16937e-08
1.69318e-08
8.939e-09
4.57267e-09
2.1173e-09
6.06982e-10
5.9807
17.6573
28.5063
38.0619
45.972
52.0193
56.124
58.3319
58.7911
57.7242
55.3988
52.1008
48.1119
43.6933
39.0741
34.4458
29.9596
25.728
21.828
18.3056
15.1813
12.4553
10.1124
8.12704
6.46682
5.09588
3.97735
3.07526
2.35583
1.78826
1.34521
1.0029
0.741097
0.542839
0.394162
0.283735
0.202492
0.143279
0.10052
0.0699265
0.0482348
0.0329933
0.0223795
0.0150538
0.010042
0.00664341
0.00435873
0.00283619
0.00183031
0.00117147
0.000743634
0.000468177
0.000292337
0.000181042
0.000111196
6.77354e-05
4.09208e-05
2.4517e-05
1.45671e-05
8.5831e-06
5.01495e-06
2.90548e-06
1.66909e-06
9.50675e-07
5.36828e-07
3.00522e-07
1.66779e-07
9.17619e-08
5.00107e-08
2.70058e-08
1.44479e-08
7.62625e-09
3.90423e-09
1.7957e-09
5.03806e-10
4.55059
13.445
21.7373
29.0844
35.2219
39.9794
43.2844
45.1558
45.69
45.0411
43.4015
40.9814
37.9927
34.6353
31.0878
27.5022
24.0007
20.6766
17.5953
14.798
12.3053
10.1211
8.23675
6.63433
5.29003
4.17669
3.26587
2.52947
1.94083
1.47546
1.11146
0.82973
0.613889
0.450183
0.327239
0.235801
0.168444
0.119294
0.0837639
0.0583158
0.0402555
0.0275544
0.0187023
0.0125879
0.00840182
0.00556121
0.00365048
0.00237641
0.00153424
0.000982358
0.000623814
0.000392873
0.000245393
0.000152014
9.33934e-05
5.69055e-05
3.43868e-05
2.06073e-05
1.22469e-05
7.21774e-06
4.21819e-06
2.44444e-06
1.40457e-06
8.0022e-07
4.51979e-07
2.531e-07
1.40491e-07
7.72975e-08
4.21661e-08
2.27931e-08
1.22121e-08
6.41887e-09
3.28846e-09
1.53008e-09
4.30266e-10
3.4523
10.2064
16.5215
22.145
26.879
30.5916
33.2206
34.7705
35.3034
34.9263
33.7766
32.0086
29.7803
27.2435
24.5362
21.7772
19.0644
16.4732
14.0583
11.8553
9.88357
8.14894
6.6469
5.36529
4.28679
3.39103
2.65629
2.0608
1.58373
1.20577
0.909574
0.679906
0.50366
0.369776
0.269084
0.194094
0.138784
0.0983772
0.0691351
0.0481696
0.0332763
0.022793
0.0154806
0.0104258
0.00696263
0.00461102
0.00302822
0.00197222
0.00127381
0.00081592
0.000518304
0.000326529
0.000204014
0.000126416
7.76859e-05
4.73459e-05
2.86164e-05
1.71527e-05
1.0196e-05
6.01016e-06
3.51312e-06
2.03625e-06
1.17025e-06
6.66851e-07
3.7673e-07
2.11e-07
1.17144e-07
6.44773e-08
3.51786e-08
1.90206e-08
1.01628e-08
5.34649e-09
2.75722e-09
1.2886e-09
3.74288e-10
2.60986
7.71992
12.5096
16.7933
20.4231
23.2981
25.367
26.6269
27.1176
26.9131
26.1116
24.8256
23.1724
21.2663
19.2128
17.1042
15.0174
13.0127
11.135
9.41423
7.86764
6.50184
5.31504
4.29914
3.44169
2.72756
2.14031
1.66323
1.28018
0.976089
0.737331
0.551871
0.409314
0.300856
0.219168
0.158251
0.113263
0.0803594
0.0565209
0.039412
0.0272467
0.0186759
0.0126926
0.00855328
0.00571534
0.00378697
0.00248823
0.00162125
0.00104755
0.000671239
0.00042654
0.0002688
0.000167991
0.00010412
6.3999e-05
3.90122e-05
2.35838e-05
1.41386e-05
8.40561e-06
4.95554e-06
2.89708e-06
1.67944e-06
9.65327e-07
5.50131e-07
3.10845e-07
1.74133e-07
9.67133e-08
5.32762e-08
2.90627e-08
1.57157e-08
8.39019e-09
4.43328e-09
2.27756e-09
1.0592e-09
3.227e-10
1.96507
5.8153
9.43183
12.6783
15.4449
17.6549
19.2671
20.2753
20.705
20.6071
20.0516
19.1203
17.8997
16.4755
14.9275
13.3265
11.7325
10.1931
8.74437
7.41098
6.20786
5.14154
4.21188
3.41364
2.73798
2.17377
1.70865
1.32993
1.02519
0.782795
0.592121
0.443753
0.329523
0.242485
0.176836
0.127814
0.091567
0.0650244
0.0457736
0.0319432
0.0220997
0.0151585
0.0103087
0.00695103
0.0046473
0.00308086
0.00202524
0.00132014
0.000853332
0.000546982
0.000347691
0.000219172
0.00013701
8.49365e-05
5.22175e-05
3.18358e-05
1.92483e-05
1.15409e-05
6.86197e-06
4.04589e-06
2.3655e-06
1.37139e-06
7.88329e-07
4.49293e-07
2.53883e-07
1.42248e-07
7.90296e-08
4.35118e-08
2.37524e-08
1.28421e-08
6.89414e-09
3.64299e-09
1.83412e-09
8.63825e-10
2.37085e-10
1.473
4.36083
7.07839
9.52572
11.6216
13.3082
14.553
15.349
15.7121
15.6775
15.2949
14.6235
13.7268
12.6685
11.5086
10.301
9.0919
7.91847
6.80918
5.78412
4.85576
4.03017
3.30811
2.6863
2.15854
1.71671
1.35161
1.05367
0.813444
0.621986
0.471109
0.353509
0.262823
0.19362
0.141351
0.102269
0.0733358
0.0521244
0.0367236
0.0256478
0.0177574
0.0121884
0.00829423
0.005596
0.00374341
0.00248289
0.00163291
0.00106485
0.000688571
0.000441519
0.000280736
0.000177011
0.000110679
6.86261e-05
4.21968e-05
2.57297e-05
1.55581e-05
9.32903e-06
5.54718e-06
3.27083e-06
1.91242e-06
1.10873e-06
6.37348e-07
3.63263e-07
2.05287e-07
1.15026e-07
6.38682e-08
3.51413e-08
1.91798e-08
1.03922e-08
5.56492e-09
2.93393e-09
1.49605e-09
7.0028e-10
1.94278e-10
1.09883
3.25423
5.28581
7.12054
8.69857
9.97658
10.9294
11.5502
11.8489
11.8497
11.5879
11.1061
10.4506
9.6686
8.80482
7.89996
6.98913
6.1011
5.25814
4.47623
3.76563
3.13164
2.5755
2.09524
1.68656
1.34359
1.05953
0.827233
0.639554
0.489696
0.371393
0.279029
0.207693
0.153176
0.111943
0.0810724
0.0581904
0.0413962
0.0291894
0.0204019
0.0141356
0.00970913
0.00661125
0.00446313
0.00298719
0.0019823
0.00130427
0.00085088
0.000550406
0.000353037
0.000224537
0.000141609
8.85599e-05
5.49199e-05
3.37731e-05
2.05951e-05
1.2454e-05
7.46797e-06
4.44059e-06
2.61829e-06
1.53083e-06
8.87486e-07
5.10136e-07
2.90751e-07
1.64323e-07
9.20429e-08
5.10908e-08
2.81221e-08
1.53425e-08
8.29579e-09
4.44096e-09
2.34451e-09
1.22494e-09
5.88323e-10
1.844e-10
0.815498
2.41588
3.92645
5.29403
6.47472
7.43633
8.15961
8.63845
8.87895
8.89777
8.71978
8.3756
7.89895
7.32433
6.68499
6.01136
5.32996
4.66275
4.02695
3.43511
2.89548
2.41258
1.98777
1.61995
1.30617
1.04223
0.823156
0.643627
0.498302
0.382052
0.290123
0.218234
0.162627
0.120071
0.0878398
0.0636784
0.045748
0.0325732
0.022987
0.0160791
0.0111486
0.0076626
0.00522095
0.0035266
0.00236161
0.00156791
0.00103207
0.00067356
0.000435851
0.000279642
0.0001779
0.000112219
7.01913e-05
4.35338e-05
2.67734e-05
1.63273e-05
9.87328e-06
5.9203e-06
3.52013e-06
2.07542e-06
1.21329e-06
7.03307e-07
4.04231e-07
2.30367e-07
1.30146e-07
7.28928e-08
4.04856e-08
2.22959e-08
1.21638e-08
6.56485e-09
3.53543e-09
1.89339e-09
9.86758e-10
4.75268e-10
1.36105e-10
0.60195
1.78373
2.90059
3.91394
4.79173
5.51019
6.05477
6.42032
6.61052
6.63679
6.51664
6.27196
5.92713
5.50733
5.03703
4.53881
4.03255
3.53484
3.05884
2.61429
2.20771
1.84283
1.52099
1.24162
1.00274
0.801359
0.633856
0.496318
0.384777
0.295395
0.224595
0.169143
0.126186
0.0932649
0.0682988
0.0495601
0.0356375
0.0253961
0.0179366
0.0125559
0.00871193
0.00599181
0.00408505
0.00276088
0.00184979
0.00122868
0.000809103
0.00052824
0.000341925
0.000219438
0.000139631
8.80941e-05
5.51082e-05
3.41818e-05
2.10226e-05
1.28202e-05
7.75217e-06
4.64807e-06
2.76338e-06
1.62901e-06
9.52177e-07
5.51832e-07
3.17112e-07
1.80641e-07
1.02025e-07
5.7142e-08
3.17233e-08
1.74719e-08
9.54927e-09
5.1588e-09
2.75722e-09
1.47959e-09
7.56258e-10
3.40261e-10
1.07567e-10
0.441811
1.30951
2.13046
2.87676
3.52515
4.05818
4.46496
4.74132
4.88942
4.91706
4.83655
4.66346
4.41533
4.11041
3.7666
3.40054
3.02698
2.65836
2.30463
1.97324
1.66929
1.39578
1.15392
0.943487
0.763144
0.610786
0.483808
0.379348
0.294482
0.226359
0.172313
0.129918
0.0970297
0.0717901
0.0526248
0.0382224
0.0275093
0.0196203
0.0138683
0.00971527
0.00674564
0.00464246
0.00316699
0.00214158
0.00143558
0.000953972
0.000628454
0.000410441
0.000265753
0.000170594
0.000108572
6.85083e-05
4.28599e-05
2.65856e-05
1.63507e-05
9.9706e-06
6.02846e-06
3.61405e-06
2.14827e-06
1.26612e-06
7.39894e-07
4.28695e-07
2.46259e-07
1.40237e-07
7.91986e-08
4.43262e-08
2.45877e-08
1.35259e-08
7.38916e-09
3.97996e-09
2.1184e-09
1.09981e-09
5.69663e-10
2.77697e-10
1.06469e-10
0.322373
0.955706
1.5555
2.10171
2.57751
2.97019
3.27168
3.47867
3.59241
3.61821
3.56467
3.44283
3.26525
3.04507
2.79531
2.52812
2.25438
1.98332
1.72238
1.47722
1.25175
1.04834
0.868052
0.710832
0.575809
0.461508
0.366066
0.287408
0.223393
0.171925
0.131028
0.0989015
0.0739436
0.0547649
0.0401836
0.029213
0.0210434
0.0150211
0.0106256
0.00744909
0.00517568
0.00356423
0.00243286
0.00164602
0.00110392
0.000733894
0.000483654
0.000315975
0.000204643
0.000131394
8.36371e-05
5.27803e-05
3.3022e-05
2.04833e-05
1.2597e-05
7.68081e-06
4.64331e-06
2.7831e-06
1.65393e-06
9.74509e-07
5.69284e-07
3.29747e-07
1.89346e-07
1.07827e-07
6.08519e-08
3.40327e-08
1.88746e-08
1.03813e-08
5.66261e-09
3.06455e-09
1.62777e-09
8.26506e-10
4.31364e-10
2.10743e-10
5.70761e-11
0.2338
0.693256
1.12877
1.52598
1.87282
2.16007
2.38179
2.53544
2.6217
2.64417
2.60886
2.52354
2.39715
2.23912
2.05882
1.86509
1.66588
1.46798
1.27691
1.0969
0.930932
0.780853
0.647529
0.53102
0.430758
0.345721
0.274586
0.215858
0.167985
0.129435
0.0987572
0.0746236
0.0558501
0.0414053
0.0304097
0.0221273
0.0159529
0.0113966
0.00806785
0.00565998
0.0039352
0.00271165
0.00185195
0.00125364
0.000841154
0.000559435
0.000368813
0.000241021
0.000156137
0.000100269
6.38332e-05
4.02858e-05
2.52052e-05
1.5634e-05
9.61378e-06
5.86099e-06
3.54246e-06
2.12273e-06
1.2611e-06
7.42787e-07
4.33743e-07
2.51128e-07
1.44156e-07
8.20513e-08
4.62756e-08
2.58697e-08
1.4336e-08
7.89846e-09
4.29388e-09
2.33024e-09
1.22275e-09
6.38813e-10
3.30383e-10
1.40495e-10
2.19523e-11
0.168509
0.499743
0.813964
1.10096
1.35208
1.56071
1.72253
1.83559
1.90026
1.91896
1.89586
1.83643
1.74698
1.63424
1.50493
1.3654
1.22143
1.07797
0.939088
0.807912
0.686682
0.576814
0.479005
0.39336
0.319518
0.256776
0.204199
0.160722
0.125224
0.0965964
0.0737822
0.0558104
0.0418118
0.0310276
0.0228088
0.0166112
0.0119859
0.00856931
0.00607087
0.00426196
0.00296512
0.00204441
0.00139702
0.000946155
0.000635123
0.000422573
0.000278679
0.000182169
0.000118038
7.58146e-05
4.82699e-05
3.04649e-05
1.90603e-05
1.18215e-05
7.26841e-06
4.43028e-06
2.67703e-06
1.60364e-06
9.5237e-07
5.6071e-07
3.2727e-07
1.89364e-07
1.08649e-07
6.17915e-08
3.48307e-08
1.94651e-08
1.07819e-08
5.90847e-09
3.18968e-09
1.73533e-09
9.28584e-10
5.07099e-10
2.51354e-10
1.11957e-10
3.18309e-11
0.120678
0.357948
0.583194
0.789178
0.969763
1.12022
1.23742
1.31991
1.36787
1.38292
1.36794
1.32677
1.26383
1.18389
1.09174
0.991929
0.888605
0.785357
0.685145
0.590271
0.502397
0.422591
0.351403
0.288952
0.235009
0.189097
0.150559
0.118641
0.0925426
0.0714642
0.0546433
0.0413752
0.0310275
0.0230463
0.0169568
0.0123597
0.00892545
0.00638612
0.00452746
0.00318058
0.00221418
0.00152753
0.00104437
0.000707656
0.000475229
0.000316307
0.000208664
0.000136436
8.84222e-05
5.68004e-05
3.61665e-05
2.28262e-05
1.42804e-05
8.85594e-06
5.44403e-06
3.31746e-06
2.004e-06
1.20003e-06
7.12367e-07
4.1922e-07
2.44571e-07
1.41439e-07
8.10799e-08
4.60747e-08
2.59641e-08
1.44809e-08
8.01919e-09
4.3751e-09
2.37415e-09
1.28421e-09
6.95889e-10
3.57823e-10
1.51471e-10
6.80523e-11
3.40261e-11
0.0858631
0.254717
0.415119
0.561971
0.690939
0.798666
0.882909
0.942595
0.977786
0.989586
0.979971
0.951596
0.907572
0.851249
0.786008
0.715091
0.641456
0.567681
0.495904
0.4278
0.36459
0.30707
0.255667
0.210491
0.171404
0.138081
0.110068
0.086831
0.0678034
0.052415
0.0401185
0.0304069
0.0228237
0.0169681
0.0124954
0.00911535
0.00658773
0.00471698
0.00334646
0.00235246
0.00163867
0.00113113
0.000773752
0.000524529
0.000352393
0.000234631
0.000154829
0.00010126
6.56362e-05
4.21678e-05
2.68507e-05
1.69463e-05
1.06009e-05
6.57308e-06
4.03977e-06
2.46104e-06
1.48613e-06
8.89574e-07
5.27822e-07
3.10462e-07
1.8102e-07
1.0463e-07
5.99288e-08
3.39998e-08
1.9137e-08
1.06655e-08
5.89311e-09
3.23907e-09
1.77265e-09
9.26389e-10
4.89537e-10
2.42573e-10
1.03176e-10
4.17095e-11
7.68332e-12
0.0606883
0.180058
0.293519
0.397503
0.488967
0.565545
0.625641
0.66847
0.694043
0.703096
0.696983
0.677539
0.646929
0.607494
0.561611
0.511566
0.459458
0.407122
0.356089
0.307568
0.262446
0.221311
0.184485
0.152066
0.123971
0.0999825
0.079786
0.0630097
0.0492534
0.0381134
0.0292005
0.0221527
0.0166432
0.012384
0.00912727
0.00666363
0.00481951
0.00345338
0.00245166
0.00172453
0.00120198
0.000830149
0.000568144
0.000385317
0.000258967
0.000172484
0.00011385
7.44749e-05
4.82817e-05
3.10211e-05
1.97533e-05
1.24663e-05
7.79746e-06
4.83386e-06
2.97011e-06
1.80879e-06
1.09182e-06
6.53255e-07
3.87432e-07
2.2776e-07
1.32716e-07
7.66499e-08
4.38817e-08
2.48819e-08
1.39935e-08
7.81065e-09
4.31473e-09
2.37634e-09
1.2919e-09
6.92597e-10
3.5453e-10
1.87693e-10
9.43951e-11
5.04904e-11
-1.64643e-11
0.0426068
0.126426
0.206139
0.279263
0.343675
0.397717
0.440263
0.470747
0.489153
0.495973
0.492127
0.478878
0.457723
0.430289
0.398235
0.363162
0.326548
0.289688
0.253672
0.219362
0.187397
0.158207
0.132031
0.108951
0.0889192
0.0717902
0.0573487
0.0453365
0.0354739
0.0274771
0.0210713
0.016
0.0120312
0.00895983
0.00660891
0.00482875
0.00349499
0.00250605
0.00178029
0.00125305
0.000873864
0.00060385
0.000413465
0.000280532
0.000188612
0.000125664
8.29672e-05
5.42833e-05
3.51961e-05
2.2615e-05
1.44005e-05
9.08739e-06
5.68318e-06
3.52238e-06
2.16364e-06
1.31714e-06
7.94701e-07
4.75251e-07
2.81695e-07
1.65479e-07
9.63664e-08
5.56075e-08
3.18101e-08
1.8035e-08
1.01431e-08
5.6659e-09
3.1315e-09
1.71338e-09
9.16511e-10
5.10392e-10
2.88673e-10
1.63545e-10
7.13451e-11
3.84166e-11
3.29285e-12
0.0297091
0.0881643
0.143783
0.194848
0.239887
0.277749
0.307643
0.329165
0.342291
0.347346
0.344954
0.335978
0.321447
0.302486
0.280242
0.255833
0.230287
0.204515
0.179284
0.155205
0.132734
0.112179
0.0937188
0.0774178
0.0632496
0.0511175
0.0408754
0.0323452
0.0253329
0.0196403
0.015075
0.0114569
0.00862222
0.0064263
0.00474383
0.00346863
0.00251233
0.00180266
0.00128142
0.000902457
0.00062971
0.000435357
0.000298232
0.00020243
0.000136149
9.07368e-05
5.99215e-05
3.9212e-05
2.5427e-05
1.63386e-05
1.04035e-05
6.56449e-06
4.10467e-06
2.54342e-06
1.56178e-06
9.50395e-07
5.73162e-07
3.42575e-07
2.02903e-07
1.1911e-07
6.93069e-08
3.99741e-08
2.28623e-08
1.29596e-08
7.25745e-09
4.04911e-09
2.24902e-09
1.21396e-09
6.50887e-10
3.47945e-10
1.98669e-10
1.18543e-10
5.48809e-11
8.78094e-12
1.75619e-11
0.020573
0.0610581
0.0995958
0.135006
0.166275
0.192607
0.213452
0.228526
0.237802
0.241495
0.240025
0.233979
0.22406
0.21104
0.19571
0.178839
0.161143
0.143255
0.12571
0.108938
0.0932604
0.0788988
0.0659817
0.0545596
0.0446184
0.036095
0.0288902
0.0228824
0.0179378
0.0139193
0.010693
0.00813336
0.00612596
0.00456935
0.00337558
0.00246995
0.00179021
0.00128536
0.000914253
0.000644247
0.000449777
0.00031111
0.000213213
0.000144778
9.7407e-05
6.49351e-05
4.28918e-05
2.80723e-05
1.82051e-05
1.16983e-05
7.4485e-06
4.69933e-06
2.93782e-06
1.81989e-06
1.11709e-06
6.79501e-07
4.09592e-07
2.44659e-07
1.44824e-07
8.49523e-08
4.93851e-08
2.84689e-08
1.62667e-08
9.2145e-09
5.15551e-09
2.8571e-09
1.58496e-09
8.70411e-10
4.81854e-10
2.50257e-10
1.11957e-10
5.81737e-11
3.40261e-11
-4.39047e-12
1.4269e-11
0.0141473
0.041991
0.0685063
0.0928869
0.11444
0.132619
0.147045
0.157518
0.164016
0.166677
0.165785
0.161737
0.155009
0.146128
0.135634
0.124055
0.111885
0.0995586
0.0874489
0.0758542
0.0650004
0.0550432
0.0460755
0.0381352
0.0312157
0.0252756
0.0202487
0.0160521
0.0125943
0.00978108
0.00752015
0.00572457
0.00431502
0.00322097
0.00238118
0.00174355
0.00126455
0.000908504
0.000646586
0.000455882
0.000318434
0.000220364
0.000151086
0.00010263
6.9072e-05
4.60581e-05
3.04291e-05
1.99184e-05
1.29182e-05
8.30108e-06
5.28506e-06
3.33391e-06
2.08375e-06
1.29041e-06
7.91785e-07
4.81378e-07
2.90011e-07
1.73128e-07
1.02416e-07
6.00353e-08
3.48592e-08
2.00513e-08
1.14416e-08
6.45838e-09
3.62653e-09
1.99108e-09
1.08993e-09
6.14666e-10
3.57823e-10
2.04157e-10
1.00981e-10
3.95142e-11
2.63428e-11
1.53666e-11
4.39047e-12
0.00966013
0.0286749
0.0467892
0.0634561
0.0782048
0.0906627
0.100571
0.10779
0.112301
0.114195
0.113662
0.110967
0.106433
0.100415
0.0932809
0.0853905
0.0770799
0.0686488
0.0603525
0.0523975
0.0449404
0.0380903
0.031913
0.0264367
0.0216588
0.0175525
0.0140736
0.0111661
0.008768
0.00681493
0.00524373
0.00399473
0.00301334
0.00225094
0.00166521
0.0012201
0.000885472
0.000636542
0.000453288
0.000319765
0.000223467
0.000154714
0.000106118
7.21103e-05
4.85463e-05
3.23794e-05
2.13961e-05
1.40074e-05
9.08511e-06
5.83792e-06
3.71651e-06
2.34406e-06
1.46473e-06
9.06778e-07
5.56184e-07
3.37989e-07
2.03505e-07
1.21418e-07
7.17743e-08
4.2042e-08
2.43858e-08
1.40089e-08
7.98078e-09
4.48816e-09
2.49598e-09
1.35885e-09
7.43087e-10
4.11607e-10
2.305e-10
1.32812e-10
8.34189e-11
2.63428e-11
2.85381e-11
3.51238e-11
7.68332e-12
0.00654941
0.0194426
0.0317294
0.0430411
0.0530601
0.0615343
0.0682874
0.0732241
0.0763291
0.0776621
0.0773481
0.0755648
0.0725284
0.0684781
0.0636617
0.0583227
0.0526889
0.0469642
0.0413228
0.0359061
0.0308218
0.0261457
0.0219239
0.0181768
0.014904
0.0120882
0.00970006
0.00770221
0.00605272
0.00470806
0.0036253
0.00276379
0.00208628
0.00155949
0.00115445
0.000846408
0.000614642
0.000442105
0.000315
0.000222326
0.000155446
0.000107667
7.38777e-05
5.02192e-05
3.38186e-05
2.25616e-05
1.49113e-05
9.76304e-06
6.33258e-06
4.06909e-06
2.5902e-06
1.63338e-06
1.02039e-06
6.31493e-07
3.87173e-07
2.35181e-07
1.41526e-07
8.43804e-08
4.98274e-08
2.9145e-08
1.68989e-08
9.70184e-09
5.50675e-09
3.0887e-09
1.69362e-09
9.21999e-10
4.9283e-10
2.66721e-10
1.25128e-10
4.82952e-11
2.63428e-11
2.63428e-11
2.41476e-11
1.31714e-11
1.09762e-11
0.00440865
0.0130884
0.0213625
0.0289842
0.0357404
0.0414619
0.0460298
0.0493789
0.0514979
0.0524253
0.0522435
0.0510705
0.0490503
0.0463427
0.0431136
0.0395267
0.0357352
0.0318768
0.0280693
0.0244089
0.020969
0.0178016
0.0149388
0.0123952