/*--------------------------------*- C++ -*----------------------------------*\
  =========                 |
  \\      /  F ield         | OpenFOAM: The Open Source CFD Toolbox
   \\    /   O peration     | Website:  https://openfoam.org
    \\  /    A nd           | Version:  10
     \\/     M anipulation  |
\*---------------------------------------------------------------------------*/
FoamFile
{
    format      ascii;
    class       volScalarField;
    location    "252";
    object      gradTz;
}
// * * * * * * * * * * * * * * * * * * * * * * * * * * * * * * * * * * * * * //

dimensions      [0 -1 0 1 0 0 0];

internalField   nonuniform List<scalar> 
11250
(
-14355.5
-4150.86
-1530.34
-726.44
-421.294
-279.148
-201.168
-152.993
-120.576
-97.3362
-79.8517
-66.2
-55.2345
-46.2384
-38.7446
-32.4375
-27.0954
-22.5562
-18.6972
-15.4211
-12.6483
-10.3117
-8.35299
-6.721
-5.37026
-4.26026
-3.35491
-2.62222
-2.034
-1.5656
-1.19572
-0.906075
-0.681182
-0.508053
-0.375911
-0.275919
-0.200904
-0.145111
-0.10397
-0.0738951
-0.0520974
-0.0364342
-0.0252753
-0.0173931
-0.0118728
-0.00803941
-0.00539996
-0.00359794
-0.00237801
-0.00155907
-0.00101394
-0.000654103
-0.000418566
-0.000265679
-0.000167271
-0.000104457
-6.46999e-05
-3.97464e-05
-2.42162e-05
-1.46321e-05
-8.76763e-06
-5.20964e-06
-3.06946e-06
-1.79314e-06
-1.03855e-06
-5.96337e-07
-3.39471e-07
-1.91568e-07
-1.07154e-07
-5.94261e-08
-3.27167e-08
-1.7979e-08
-9.96417e-09
-5.83823e-09
-4.12704e-09
-8270.57
-4867.91
-2773.89
-1680.1
-1100.46
-772.919
-573.409
-443.004
-352.406
-286.177
-235.714
-195.966
-163.841
-137.365
-115.236
-96.5638
-80.7179
-67.2338
-55.7567
-46.0044
-37.7445
-30.7797
-24.9386
-20.0699
-16.039
-12.7256
-10.0225
-7.83448
-6.07759
-4.67841
-3.57336
-2.70795
-2.03594
-1.51856
-1.12365
-0.824793
-0.600577
-0.433806
-0.310827
-0.220922
-0.155758
-0.108932
-0.0755706
-0.0520048
-0.0355
-0.0240385
-0.0161466
-0.0107585
-0.00711079
-0.00466206
-0.00303201
-0.00195601
-0.00125168
-0.0007945
-0.000500221
-0.000312382
-0.000193489
-0.000118866
-7.24218e-05
-4.376e-05
-2.62216e-05
-1.55808e-05
-9.18011e-06
-5.36298e-06
-3.10628e-06
-1.78369e-06
-1.01534e-06
-5.72953e-07
-3.2052e-07
-1.77796e-07
-9.78636e-08
-5.36812e-08
-2.97839e-08
-1.75388e-08
-1.23493e-08
-5586.63
-4274.71
-3015.69
-2118.18
-1526.29
-1137.59
-875.677
-692.556
-559.427
-459.028
-380.834
-318.268
-267.116
-224.598
-188.834
-158.511
-132.681
-110.638
-91.8334
-75.8267
-62.2503
-50.7895
-41.1688
-33.1437
-26.4954
-21.0276
-16.565
-12.9514
-10.0488
-7.73665
-5.91009
-4.47933
-3.36812
-2.51247
-1.85925
-1.36486
-0.993908
-0.717964
-0.514464
-0.365679
-0.257831
-0.180327
-0.125106
-0.086097
-0.0587746
-0.0398001
-0.0267346
-0.0178139
-0.0117744
-0.00771988
-0.00502082
-0.00323912
-0.00207282
-0.00131575
-0.000828419
-0.000517352
-0.000320454
-0.000196869
-0.00011995
-7.24801e-05
-4.34322e-05
-2.5808e-05
-1.52064e-05
-8.88374e-06
-5.14568e-06
-2.95485e-06
-1.68207e-06
-9.49202e-07
-5.31003e-07
-2.94561e-07
-1.6216e-07
-8.89531e-08
-4.93566e-08
-2.9043e-08
-2.04969e-08
-4211.85
-3625.92
-2893.44
-2248.31
-1746.84
-1373.7
-1097.72
-891.032
-732.994
-609.301
-510.282
-429.418
-362.283
-305.832
-257.927
-217.035
-182.021
-152.018
-126.342
-104.43
-85.8078
-70.0616
-56.8259
-45.7732
-36.6083
-29.0651
-22.9046
-17.9134
-13.9026
-10.7062
-8.18027
-6.20108
-4.66353
-3.47931
-2.57508
-1.89058
-1.3769
-0.994724
-0.712845
-0.506731
-0.357312
-0.249923
-0.173401
-0.119341
-0.0814732
-0.0551739
-0.0370634
-0.0246973
-0.0163248
-0.0107039
-0.0069618
-0.00449149
-0.00287436
-0.0018246
-0.00114885
-0.000717485
-0.000444435
-0.000273045
-0.000166369
-0.000100533
-6.02444e-05
-3.57995e-05
-2.10943e-05
-1.23241e-05
-7.1387e-06
-4.09949e-06
-2.3338e-06
-1.31705e-06
-7.36809e-07
-4.08723e-07
-2.25026e-07
-1.23464e-07
-6.85319e-08
-4.03232e-08
-2.84305e-08
-3419.19
-3119.96
-2680.31
-2231.55
-1836.18
-1510.21
-1248.47
-1039.36
-871.209
-734.381
-621.516
-527.199
-447.498
-379.563
-321.305
-271.168
-227.964
-190.758
-158.792
-131.426
-108.109
-88.3532
-71.7189
-57.8088
-46.2611
-36.7476
-28.9717
-22.6672
-17.598
-13.5561
-10.3606
-7.85581
-5.90925
-4.40957
-3.26415
-2.39687
-1.74588
-1.26146
-0.904103
-0.642759
-0.453276
-0.317075
-0.220012
-0.151432
-0.10339
-0.0700207
-0.0470399
-0.0313472
-0.0207216
-0.0135874
-0.00883776
-0.00570207
-0.00364926
-0.0023166
-0.0014587
-0.000911037
-0.000564354
-0.000346734
-0.000211279
-0.000127677
-7.65141e-05
-4.54699e-05
-2.67938e-05
-1.56548e-05
-9.06854e-06
-5.20805e-06
-2.96508e-06
-1.6734e-06
-9.36221e-07
-5.19382e-07
-2.85972e-07
-1.56918e-07
-8.70883e-08
-5.12532e-08
-3.61445e-08
-2920.89
-2749.68
-2471.81
-2157.28
-1852.47
-1579.35
-1344.06
-1144.81
-976.826
-834.838
-714.127
-610.822
-521.879
-444.947
-378.21
-320.257
-269.96
-226.403
-188.81
-156.511
-128.91
-105.467
-85.6909
-69.1263
-55.3563
-43.9989
-34.7068
-27.167
-21.1001
-16.2598
-12.431
-9.42835
-7.09399
-5.29488
-3.92032
-2.87926
-2.09761
-1.51584
-1.08658
-0.772596
-0.544905
-0.381215
-0.264545
-0.182102
-0.124341
-0.0842169
-0.0565814
-0.0377084
-0.0249283
-0.016347
-0.0106333
-0.00686097
-0.0043912
-0.00278776
-0.00175547
-0.00109645
-0.000679245
-0.000417345
-0.000254319
-0.000153695
-9.21116e-05
-5.47423e-05
-3.22598e-05
-1.88497e-05
-1.092e-05
-6.27176e-06
-3.57094e-06
-2.0155e-06
-1.12771e-06
-6.25661e-07
-3.44527e-07
-1.8908e-07
-1.04944e-07
-6.17509e-08
-4.356e-08
-2587.93
-2480.38
-2294.56
-2068.34
-1832.67
-1606.9
-1400.56
-1216.7
-1054.91
-913.223
-789.242
-680.637
-585.37
-501.734
-428.32
-363.964
-307.691
-258.664
-216.146
-179.471
-148.031
-121.259
-98.6237
-79.6304
-63.8175
-50.7586
-40.0628
-31.3759
-24.3804
-18.7953
-14.3748
-10.9062
-8.20841
-6.12832
-4.5385
-3.33401
-2.4294
-1.75593
-1.2589
-0.895255
-0.631506
-0.441858
-0.306667
-0.21112
-0.14417
-0.0976569
-0.0656172
-0.043734
-0.0289141
-0.0189621
-0.0123353
-0.00795972
-0.00509477
-0.00323463
-0.002037
-0.00127237
-0.000788276
-0.000484368
-0.00029518
-0.0001784
-0.000106925
-6.35503e-05
-3.7453e-05
-2.18857e-05
-1.26798e-05
-7.28314e-06
-4.14716e-06
-2.34091e-06
-1.30988e-06
-7.26792e-07
-4.00284e-07
-2.19733e-07
-1.21965e-07
-7.1771e-08
-5.0643e-08
-2355.72
-2282.74
-2151.43
-1983.08
-1797.82
-1610.67
-1431.03
-1263.85
-1111.09
-972.981
-848.874
-737.756
-638.533
-550.159
-471.678
-402.233
-341.05
-287.417
-240.673
-200.19
-165.369
-135.635
-110.439
-89.256
-71.5917
-56.9838
-45.0053
-35.2668
-27.4177
-21.1464
-16.1794
-12.2799
-9.24531
-6.9045
-5.1147
-3.75821
-2.73911
-1.98019
-1.41994
-1.00995
-0.712526
-0.49862
-0.346108
-0.238303
-0.162752
-0.110256
-0.0740901
-0.049386
-0.0326537
-0.0214165
-0.0139331
-0.00899141
-0.00575555
-0.00365442
-0.00230152
-0.0014377
-0.000890767
-0.000547383
-0.000333606
-0.000201638
-0.000120862
-7.1839e-05
-4.23413e-05
-2.47442e-05
-1.43372e-05
-8.23585e-06
-4.69009e-06
-2.64764e-06
-1.48167e-06
-8.22181e-07
-4.52893e-07
-2.48661e-07
-1.38046e-07
-8.12566e-08
-5.73198e-08
-2188.78
-2135.94
-2038.23
-1908.22
-1759.08
-1601.97
-1445.03
-1293.55
-1150.6
-1017.69
-895.398
-783.707
-682.322
-590.795
-508.612
-435.234
-370.109
-312.677
-262.374
-218.631
-180.88
-148.554
-121.097
-97.9678
-78.6483
-62.6488
-49.5131
-38.8226
-30.1983
-23.3022
-17.8365
-13.5428
-10.1997
-7.61966
-5.6461
-4.14976
-3.02522
-2.1875
-1.56892
-1.11612
-0.787561
-0.551217
-0.382673
-0.263515
-0.179993
-0.12195
-0.0819577
-0.0546359
-0.0361285
-0.0236976
-0.0154185
-0.00995084
-0.00637021
-0.00404501
-0.00254771
-0.0015916
-0.000986198
-0.000606071
-0.000369402
-0.000223291
-0.000133851
-7.95664e-05
-4.68997e-05
-2.74106e-05
-1.58836e-05
-9.12501e-06
-5.19698e-06
-2.93411e-06
-1.64217e-06
-9.11358e-07
-5.02059e-07
-2.75671e-07
-1.53083e-07
-9.01451e-08
-6.35927e-08
-2066.16
-2025.7
-1949.46
-1845.25
-1721.89
-1587.62
-1449.11
-1311.37
-1177.81
-1050.64
-931.185
-820.16
-717.886
-624.418
-539.637
-463.301
-395.079
-334.571
-281.322
-234.835
-194.583
-160.02
-130.594
-105.758
-84.9781
-67.7441
-53.5774
-42.0354
-32.7155
-25.2571
-19.3415
-14.6915
-11.0688
-8.27166
-6.13107
-4.50744
-3.2868
-2.3772
-1.70533
-1.2134
-0.856358
-0.599468
-0.416235
-0.286667
-0.195833
-0.132699
-0.0891919
-0.059465
-0.0393259
-0.0257974
-0.0167862
-0.0108345
-0.00693651
-0.00440497
-0.00277465
-0.00173351
-0.00107421
-0.000660214
-0.000402434
-0.000243278
-0.000145844
-8.67028e-05
-5.11108e-05
-2.98746e-05
-1.7313e-05
-9.94722e-06
-5.66583e-06
-3.19919e-06
-1.79076e-06
-9.93922e-07
-5.47595e-07
-3.00735e-07
-1.67032e-07
-9.83597e-08
-6.94441e-08
-1974.68
-1942.16
-1880.08
-1793.52
-1688.62
-1571.5
-1447.59
-1321.35
-1196.18
-1074.61
-958.395
-848.743
-746.427
-651.901
-565.376
-486.874
-416.269
-353.313
-297.663
-248.898
-206.541
-170.075
-138.958
-112.644
-90.5909
-72.2752
-57.2008
-44.9063
-34.9694
-27.0107
-20.6937
-15.725
-11.8519
-8.85987
-6.56908
-4.83081
-3.52351
-2.549
-1.82897
-1.30164
-0.918805
-0.643292
-0.446736
-0.307719
-0.210244
-0.142482
-0.0957791
-0.0638641
-0.0422396
-0.0277116
-0.0180335
-0.0116406
-0.00745327
-0.00473354
-0.00298186
-0.00186313
-0.00115462
-0.000709692
-0.000432628
-0.000261552
-0.000156813
-9.3232e-05
-5.49646e-05
-3.21302e-05
-1.86221e-05
-1.07005e-05
-6.09552e-06
-3.44219e-06
-1.927e-06
-1.06968e-06
-5.89443e-07
-3.2377e-07
-1.79814e-07
-1.0591e-07
-7.48037e-08
-1905.68
-1878.44
-1825.92
-1751.64
-1660.02
-1555.72
-1443.19
-1326.31
-1208.33
-1091.86
-978.888
-870.937
-769.097
-674.123
-586.492
-506.448
-434.043
-369.171
-311.592
-260.963
-216.858
-178.791
-146.24
-118.661
-95.5123
-76.26
-60.3959
-47.4437
-36.9658
-28.5669
-21.8958
-16.6453
-12.5502
-9.38503
-6.96061
-5.12019
-3.73554
-2.70304
-1.93993
-1.38088
-0.974926
-0.682704
-0.474182
-0.326674
-0.223226
-0.1513
-0.101719
-0.0678327
-0.0448693
-0.0294398
-0.0191601
-0.012369
-0.00792033
-0.0050306
-0.00316926
-0.00198038
-0.00122739
-0.00075448
-0.000459969
-0.000278105
-0.000166751
-9.91494e-05
-5.84586e-05
-3.41758e-05
-1.98097e-05
-1.13841e-05
-6.48563e-06
-3.66288e-06
-2.0508e-06
-1.13856e-06
-6.27487e-07
-3.44702e-07
-1.91496e-07
-1.12809e-07
-7.96464e-08
-1853.25
-1829.6
-1783.68
-1718.06
-1636.05
-1541.33
-1437.56
-1328.17
-1216.17
-1104.14
-994.198
-888.028
-786.944
-691.922
-603.643
-522.533
-448.794
-382.443
-323.336
-271.2
-225.66
-186.264
-152.509
-123.863
-99.7808
-79.7267
-63.1831
-49.6626
-38.7154
-29.9335
-22.9534
-17.4562
-13.1664
-9.84913
-7.30704
-5.37653
-3.92357
-2.83977
-2.0385
-1.45135
-1.02486
-0.7178
-0.498639
-0.343574
-0.234807
-0.159171
-0.107024
-0.0713785
-0.0472199
-0.0309853
-0.0201679
-0.0130208
-0.00833846
-0.00529664
-0.00333714
-0.00208546
-0.00129262
-0.000794641
-0.000484493
-0.000292956
-0.000175671
-0.000104462
-6.15964e-05
-3.60136e-05
-2.0877e-05
-1.19986e-05
-6.83648e-06
-3.86148e-06
-2.16223e-06
-1.2006e-06
-6.61778e-07
-3.6357e-07
-2.02e-07
-1.19005e-07
-8.40523e-08
-1813.21
-1792.04
-1750.77
-1691.32
-1616.31
-1528.73
-1431.69
-1328.21
-1221.09
-1112.82
-1005.56
-901.096
-800.885
-706.057
-617.448
-535.625
-460.916
-393.439
-333.135
-279.795
-233.091
-192.604
-157.851
-128.311
-103.444
-82.7109
-65.589
-51.5828
-40.2328
-31.1212
-23.8742
-18.1635
-13.7047
-10.2551
-7.61049
-5.60133
-4.08864
-2.95993
-2.12522
-1.51338
-1.06887
-0.748747
-0.52022
-0.358497
-0.24504
-0.166129
-0.111716
-0.0745162
-0.049301
-0.0323542
-0.0210609
-0.0135986
-0.00870924
-0.00553263
-0.00348611
-0.00217873
-0.00135054
-0.000830313
-0.000506282
-0.000306156
-0.000183601
-0.000109187
-6.43879e-05
-3.76491e-05
-2.18271e-05
-1.25459e-05
-7.14909e-06
-4.03849e-06
-2.2616e-06
-1.25594e-06
-6.92361e-07
-3.80421e-07
-2.11367e-07
-1.24535e-07
-8.803e-08
-1782.53
-1763.13
-1725.15
-1670.15
-1600.27
-1518.02
-1426.11
-1327.25
-1224.04
-1118.89
-1013.94
-911.027
-811.7
-717.197
-628.467
-546.187
-470.784
-402.462
-341.231
-286.94
-239.301
-197.927
-162.356
-132.077
-106.555
-85.2534
-67.6445
-53.2274
-41.5355
-32.1429
-24.6679
-18.7742
-14.1702
-10.6067
-7.87364
-5.79652
-4.23214
-3.06449
-2.20074
-1.56747
-1.10726
-0.775771
-0.539079
-0.371547
-0.253994
-0.172221
-0.115826
-0.0772664
-0.0511258
-0.0335551
-0.0218447
-0.0141059
-0.00903492
-0.00573999
-0.00361706
-0.00226074
-0.00140148
-0.000861698
-0.000525459
-0.000317777
-0.000190585
-0.000113349
-6.68479e-05
-3.90909e-05
-2.2665e-05
-1.30288e-05
-7.42495e-06
-4.19475e-06
-2.34938e-06
-1.30481e-06
-7.19347e-07
-3.95288e-07
-2.1969e-07
-1.29489e-07
-9.15237e-08
-1759
-1740.85
-1705.24
-1653.47
-1587.36
-1509.1
-1421.1
-1325.82
-1225.72
-1123.1
-1020.09
-918.531
-820.036
-725.914
-637.194
-554.637
-478.748
-409.798
-347.858
-292.822
-244.441
-202.354
-166.117
-135.232
-109.172
-87.3979
-69.383
-54.622
-42.6427
-33.0131
-25.3451
-19.2962
-14.5688
-10.9082
-8.09959
-5.96433
-4.35565
-3.1546
-2.26589
-1.61416
-1.14044
-0.799142
-0.555401
-0.382849
-0.261753
-0.177504
-0.119393
-0.079654
-0.0527109
-0.0345987
-0.022526
-0.0145471
-0.00931829
-0.00592047
-0.00373107
-0.00233218
-0.00144587
-0.000889053
-0.000542178
-0.000327912
-0.000196678
-0.000116981
-6.89954e-05
-4.03498e-05
-2.33969e-05
-1.34507e-05
-7.66608e-06
-4.3314e-06
-2.42615e-06
-1.34758e-06
-7.43035e-07
-4.08363e-07
-2.26952e-07
-1.33787e-07
-9.46179e-08
-1740.95
-1723.7
-1689.81
-1640.39
-1577.07
-1501.79
-1416.75
-1324.24
-1226.58
-1126
-1024.57
-924.173
-826.425
-732.69
-644.057
-561.346
-485.122
-415.712
-353.234
-297.62
-248.654
-205.999
-169.227
-137.851
-111.35
-89.189
-70.8391
-55.7929
-43.5744
-33.7469
-25.9173
-19.7381
-14.9067
-11.1642
-8.29172
-6.10721
-4.46094
-3.23149
-2.32155
-1.65409
-1.16884
-0.819161
-0.569393
-0.392544
-0.268415
-0.182042
-0.122458
-0.0817071
-0.0540747
-0.035497
-0.0231128
-0.0149273
-0.00956251
-0.00607609
-0.00382941
-0.00239381
-0.00148418
-0.000912669
-0.000556617
-0.000336667
-0.000201942
-0.000120121
-7.08521e-05
-4.14387e-05
-2.40301e-05
-1.38158e-05
-7.87484e-06
-4.44973e-06
-2.49265e-06
-1.38466e-06
-7.63554e-07
-4.19691e-07
-2.33289e-07
-1.37538e-07
-9.72774e-08
-1727.11
-1710.52
-1677.87
-1630.19
-1568.93
-1495.88
-1413.07
-1322.69
-1226.93
-1127.96
-1027.83
-928.395
-831.295
-737.926
-649.416
-566.632
-490.183
-420.44
-357.557
-301.5
-252.078
-208.973
-171.774
-140.004
-113.147
-90.6706
-72.0468
-56.7665
-44.3509
-34.3598
-26.3962
-20.1085
-15.1904
-11.3794
-8.45352
-6.22768
-4.54983
-3.29647
-2.36863
-1.6879
-1.19291
-0.836145
-0.581273
-0.400783
-0.274079
-0.185902
-0.125067
-0.0834561
-0.055237
-0.0362629
-0.0236134
-0.0152517
-0.00977103
-0.006209
-0.00391343
-0.00244648
-0.00151693
-0.000932867
-0.000568969
-0.000344158
-0.000206449
-0.000122809
-7.24423e-05
-4.23716e-05
-2.45727e-05
-1.41288e-05
-8.05381e-06
-4.55123e-06
-2.54975e-06
-1.41651e-06
-7.81156e-07
-4.29406e-07
-2.38754e-07
-1.40775e-07
-9.95352e-08
-1716.53
-1700.42
-1668.68
-1622.27
-1562.53
-1491.14
-1410.03
-1321.27
-1226.98
-1129.29
-1030.19
-931.54
-834.988
-741.946
-653.573
-570.768
-494.172
-424.19
-361.005
-304.61
-254.834
-211.378
-173.842
-141.758
-114.615
-91.8847
-73.0391
-57.5684
-44.9919
-34.8668
-26.793
-20.416
-15.4264
-11.5588
-8.58847
-6.3283
-4.62416
-3.35088
-2.4081
-1.71627
-1.21312
-0.850418
-0.591265
-0.407717
-0.278849
-0.189157
-0.127268
-0.0849319
-0.0562183
-0.03691
-0.0240365
-0.015526
-0.0099474
-0.00632146
-0.00398455
-0.00249108
-0.00154467
-0.000949977
-0.000579436
-0.000350509
-0.000210269
-0.000125089
-7.37912e-05
-4.31631e-05
-2.50333e-05
-1.43944e-05
-8.2058e-06
-4.63746e-06
-2.59825e-06
-1.44354e-06
-7.9615e-07
-4.37691e-07
-2.4339e-07
-1.43541e-07
-1.0147e-07
-1708.45
-1692.69
-1661.62
-1616.14
-1557.53
-1487.39
-1407.55
-1320.02
-1226.87
-1130.17
-1031.89
-933.871
-837.773
-745.016
-656.778
-573.981
-497.292
-427.141
-363.733
-307.082
-257.035
-213.306
-175.506
-143.173
-115.804
-92.8704
-73.8469
-58.2228
-45.5161
-35.2822
-27.1189
-20.6689
-15.6208
-11.7067
-8.69998
-6.41155
-4.68573
-3.396
-2.44086
-1.73985
-1.22993
-0.862301
-0.59959
-0.413499
-0.28283
-0.191874
-0.129107
-0.0861657
-0.0570391
-0.0374514
-0.0243907
-0.0157557
-0.0100952
-0.00641573
-0.00404418
-0.00252849
-0.00156795
-0.000964337
-0.000588223
-0.000355841
-0.000213478
-0.000127004
-7.49246e-05
-4.38283e-05
-2.54204e-05
-1.46178e-05
-8.33364e-06
-4.70996e-06
-2.63903e-06
-1.46631e-06
-8.08781e-07
-4.44684e-07
-2.47276e-07
-1.45849e-07
-1.03107e-07
-1702.31
-1686.8
-1656.22
-1611.43
-1553.66
-1484.44
-1405.56
-1318.97
-1226.68
-1130.74
-1033.1
-935.593
-839.864
-747.347
-659.233
-576.46
-499.715
-429.445
-365.874
-309.031
-258.778
-214.838
-176.832
-144.306
-116.758
-93.6635
-74.4984
-58.7518
-45.9409
-35.6195
-27.3839
-20.875
-15.7794
-11.8276
-8.79124
-6.47978
-4.73625
-3.43306
-2.4678
-1.75925
-1.24378
-0.872102
-0.606462
-0.418275
-0.286121
-0.194122
-0.130629
-0.0871875
-0.0577193
-0.0379003
-0.0246844
-0.0159464
-0.0102178
-0.006494
-0.00409371
-0.00255958
-0.00158729
-0.000976276
-0.00059553
-0.000360276
-0.000216148
-0.000128597
-7.58678e-05
-4.43819e-05
-2.57427e-05
-1.48039e-05
-8.44008e-06
-4.77038e-06
-2.67303e-06
-1.48529e-06
-8.19305e-07
-4.50466e-07
-2.50526e-07
-1.47787e-07
-1.04487e-07
-1697.65
-1682.33
-1652.11
-1607.83
-1550.67
-1482.14
-1403.98
-1318.09
-1226.47
-1131.11
-1033.97
-936.858
-841.426
-749.107
-661.102
-578.361
-501.584
-431.231
-367.542
-310.556
-260.146
-216.045
-177.881
-145.204
-117.516
-94.296
-75.0192
-59.1756
-46.2819
-35.8909
-27.5975
-21.0414
-15.9077
-11.9255
-8.86526
-6.53518
-4.77733
-3.46323
-2.48976
-1.77508
-1.25509
-0.88011
-0.612082
-0.422184
-0.288816
-0.195964
-0.131877
-0.088026
-0.0582777
-0.038269
-0.0249258
-0.0161031
-0.0103187
-0.0065584
-0.00413448
-0.00258516
-0.00160322
-0.000986107
-0.000601548
-0.000363929
-0.000218347
-0.00012991
-7.66453e-05
-4.48383e-05
-2.60084e-05
-1.49572e-05
-8.52785e-06
-4.82019e-06
-2.70108e-06
-1.50096e-06
-8.27984e-07
-4.55281e-07
-2.53221e-07
-1.49363e-07
-1.05622e-07
-1694.14
-1678.95
-1649
-1605.09
-1548.39
-1480.37
-1402.74
-1317.38
-1226.25
-1131.35
-1034.59
-937.784
-842.586
-750.429
-662.517
-579.808
-503.015
-432.606
-368.83
-311.739
-261.212
-216.989
-178.703
-145.91
-118.114
-94.7959
-75.4319
-59.5122
-46.5532
-36.1072
-27.768
-21.1745
-16.0105
-12.0041
-8.92473
-6.57976
-4.81042
-3.48757
-2.50748
-1.78788
-1.26424
-0.886594
-0.616636
-0.425354
-0.291004
-0.19746
-0.132892
-0.0887077
-0.0587319
-0.0385691
-0.0251224
-0.0162308
-0.0104009
-0.00661089
-0.00416771
-0.00260603
-0.00161621
-0.000994129
-0.000606459
-0.000366911
-0.000220143
-0.000130982
-7.728e-05
-4.5211e-05
-2.62253e-05
-1.50824e-05
-8.59955e-06
-4.8609e-06
-2.72398e-06
-1.51372e-06
-8.35066e-07
-4.59231e-07
-2.55423e-07
-1.50682e-07
-1.06525e-07
-1691.5
-1676.41
-1646.65
-1603.02
-1546.65
-1479.01
-1401.77
-1316.81
-1226.06
-1131.49
-1035.02
-938.459
-843.444
-751.415
-663.58
-580.904
-504.103
-433.656
-369.819
-312.65
-262.035
-217.72
-179.343
-146.461
-118.582
-95.1876
-75.756
-59.7771
-46.7672
-36.2781
-27.9031
-21.28
-16.0921
-12.0666
-8.97209
-6.6153
-4.83683
-3.50701
-2.52166
-1.79812
-1.27158
-0.891795
-0.620292
-0.427901
-0.292762
-0.198663
-0.133708
-0.0892568
-0.059098
-0.0388111
-0.025281
-0.0163338
-0.0104673
-0.00665328
-0.00419456
-0.00262289
-0.00162671
-0.00100061
-0.000610429
-0.000369322
-0.000221594
-0.000131849
-7.77932e-05
-4.55123e-05
-2.64007e-05
-1.51838e-05
-8.65756e-06
-4.89379e-06
-2.74247e-06
-1.52406e-06
-8.40813e-07
-4.62383e-07
-2.57194e-07
-1.51732e-07
-1.07277e-07
-1689.52
-1674.51
-1644.89
-1601.46
-1545.34
-1477.97
-1401.03
-1316.36
-1225.88
-1131.57
-1035.33
-938.948
-844.076
-752.148
-664.375
-581.727
-504.925
-434.452
-370.572
-313.346
-262.667
-218.283
-179.836
-146.887
-118.944
-95.492
-76.0084
-59.9838
-46.9345
-36.4119
-28.009
-21.3629
-16.1564
-12.1158
-9.00945
-6.64337
-4.85772
-3.52241
-2.5329
-1.80625
-1.2774
-0.89593
-0.623201
-0.42993
-0.294164
-0.199623
-0.13436
-0.0896951
-0.0593904
-0.0390044
-0.0254077
-0.0164162
-0.0105204
-0.0066872
-0.00421604
-0.00263639
-0.00163512
-0.0010058
-0.000613609
-0.000371253
-0.000222757
-0.000132543
-7.82042e-05
-4.57536e-05
-2.65413e-05
-1.52649e-05
-8.70398e-06
-4.92015e-06
-2.75732e-06
-1.53233e-06
-8.45385e-07
-4.64907e-07
-2.58593e-07
-1.52581e-07
-1.07916e-07
-1688.05
-1673.09
-1643.58
-1600.29
-1544.35
-1477.19
-1400.46
-1316
-1225.74
-1131.62
-1035.54
-939.301
-844.538
-752.688
-664.966
-582.342
-505.541
-435.052
-371.141
-313.875
-263.147
-218.712
-180.213
-147.213
-119.223
-95.7265
-76.2032
-60.1437
-47.0641
-36.5158
-28.0913
-21.4275
-16.2065
-12.1543
-9.03868
-6.66536
-4.8741
-3.53449
-2.54173
-1.81264
-1.28198
-0.899187
-0.625495
-0.43153
-0.29527
-0.200381
-0.134875
-0.0900418
-0.0596218
-0.0391575
-0.0255081
-0.0164814
-0.0105625
-0.00671409
-0.00423308
-0.00264709
-0.00164178
-0.00100992
-0.000616131
-0.000372784
-0.000223679
-0.000133094
-7.85303e-05
-4.59451e-05
-2.66527e-05
-1.53292e-05
-8.74079e-06
-4.94104e-06
-2.76907e-06
-1.53889e-06
-8.48996e-07
-4.66917e-07
-2.59747e-07
-1.53268e-07
-1.0839e-07
-1686.97
-1672.05
-1642.61
-1599.42
-1543.61
-1476.6
-1400.03
-1315.73
-1225.62
-1131.64
-1035.69
-939.555
-844.874
-753.085
-665.402
-582.798
-506.001
-435.501
-371.568
-314.272
-263.51
-219.037
-180.499
-147.461
-119.435
-95.9056
-76.3523
-60.2663
-47.1637
-36.5958
-28.1548
-21.4774
-16.2452
-12.1841
-9.06133
-6.68243
-4.88683
-3.54389
-2.54861
-1.81762
-1.28556
-0.901731
-0.627287
-0.432781
-0.296136
-0.200975
-0.135278
-0.0903136
-0.0598032
-0.0392776
-0.0255869
-0.0165327
-0.0105955
-0.00673521
-0.00424647
-0.0026555
-0.00164702
-0.00101316
-0.000618113
-0.000373988
-0.000224404
-0.000133527
-7.87865e-05
-4.60955e-05
-2.67402e-05
-1.53797e-05
-8.76969e-06
-4.95741e-06
-2.7783e-06
-1.54406e-06
-8.51859e-07
-4.68488e-07
-2.60627e-07
-1.53777e-07
-1.08768e-07
-1686.17
-1671.27
-1641.89
-1598.78
-1543.07
-1476.16
-1399.71
-1315.53
-1225.53
-1131.66
-1035.79
-939.736
-845.117
-753.375
-665.722
-583.134
-506.341
-435.834
-371.887
-314.569
-263.781
-219.281
-180.715
-147.649
-119.596
-96.0413
-76.4655
-60.3595
-47.2396
-36.6568
-28.2034
-21.5155
-16.2749
-12.2069
-9.07874
-6.69555
-4.89663
-3.55114
-2.55391
-1.82147
-1.28832
-0.903698
-0.628674
-0.433751
-0.296807
-0.201436
-0.135591
-0.0905247
-0.0599443
-0.039371
-0.0256482
-0.0165725
-0.0106212
-0.00675165
-0.00425689
-0.00266205
-0.0016511
-0.00101568
-0.000619657
-0.000374925
-0.000224968
-0.000133864
-7.89859e-05
-4.62125e-05
-2.68083e-05
-1.5419e-05
-8.79216e-06
-4.97016e-06
-2.78547e-06
-1.54806e-06
-8.54084e-07
-4.69709e-07
-2.61281e-07
-1.54166e-07
-1.09089e-07
-1685.58
-1670.71
-1641.36
-1598.31
-1542.66
-1475.84
-1399.47
-1315.37
-1225.46
-1131.66
-1035.86
-939.865
-845.293
-753.585
-665.956
-583.381
-506.59
-436.08
-372.122
-314.789
-263.983
-219.463
-180.876
-147.789
-119.716
-96.1433
-76.5508
-60.4298
-47.2969
-36.703
-28.2401
-21.5445
-16.2974
-12.2243
-9.092
-6.70556
-4.90411
-3.55668
-2.55797
-1.82442
-1.29044
-0.905208
-0.629739
-0.434495
-0.297323
-0.20179
-0.135832
-0.0906873
-0.0600529
-0.0394429
-0.0256954
-0.0166033
-0.0106411
-0.00676433
-0.00426493
-0.0026671
-0.00165425
-0.00101762
-0.000620848
-0.000375648
-0.000225404
-0.000134123
-7.91396e-05
-4.63027e-05
-2.68608e-05
-1.54493e-05
-8.80945e-06
-4.97996e-06
-2.79097e-06
-1.55115e-06
-8.55822e-07
-4.70657e-07
-2.61797e-07
-1.54484e-07
-1.09281e-07
-1685.16
-1670.3
-1640.98
-1597.97
-1542.37
-1475.6
-1399.29
-1315.26
-1225.4
-1131.66
-1035.91
-939.956
-845.418
-753.736
-666.125
-583.56
-506.773
-436.26
-372.294
-314.951
-264.132
-219.597
-180.995
-147.893
-119.806
-96.2194
-76.6144
-60.4824
-47.3398
-36.7376
-28.2677
-21.5663
-16.3144
-12.2374
-9.10201
-6.71313
-4.90978
-3.56087
-2.56105
-1.82666
-1.29205
-0.906355
-0.63055
-0.435062
-0.297716
-0.20206
-0.136016
-0.0908113
-0.0601358
-0.0394979
-0.0257315
-0.0166268
-0.0106562
-0.00677403
-0.00427108
-0.00267097
-0.00165666
-0.00101911
-0.000621758
-0.000376201
-0.000225736
-0.000134322
-7.9257e-05
-4.63715e-05
-2.69008e-05
-1.54723e-05
-8.82263e-06
-4.98743e-06
-2.79518e-06
-1.55349e-06
-8.57103e-07
-4.71355e-07
-2.62212e-07
-1.54733e-07
-1.09436e-07
-1684.85
-1670
-1640.7
-1597.72
-1542.16
-1475.42
-1399.16
-1315.17
-1225.36
-1131.65
-1035.95
-940.02
-845.507
-753.845
-666.247
-583.689
-506.905
-436.391
-372.42
-315.07
-264.241
-219.696
-181.083
-147.97
-119.872
-96.2756
-76.6615
-60.5214
-47.3717
-36.7634
-28.2883
-21.5825
-16.3271
-12.2472
-9.1095
-6.7188
-4.91402
-3.56402
-2.56336
-1.82834
-1.29326
-0.90722
-0.631161
-0.43549
-0.298013
-0.202264
-0.136155
-0.0909051
-0.0601985
-0.0395395
-0.0257588
-0.0166446
-0.0106677
-0.00678137
-0.00427573
-0.00267389
-0.00165848
-0.00102024
-0.000622447
-0.000376619
-0.000225988
-0.000134472
-7.93457e-05
-4.64236e-05
-2.69311e-05
-1.54898e-05
-8.83261e-06
-4.9931e-06
-2.79833e-06
-1.55522e-06
-8.5807e-07
-4.71911e-07
-2.62526e-07
-1.54907e-07
-1.0956e-07
-1684.63
-1669.79
-1640.5
-1597.54
-1542
-1475.3
-1399.07
-1315.11
-1225.33
-1131.65
-1035.97
-940.065
-845.571
-753.922
-666.334
-583.782
-507
-436.485
-372.511
-315.155
-264.32
-219.768
-181.147
-148.026
-119.92
-96.3168
-76.6961
-60.5501
-47.3952
-36.7824
-28.3035
-21.5945
-16.3365
-12.2545
-9.11506
-6.72301
-4.91718
-3.56637
-2.56509
-1.82959
-1.29417
-0.907865
-0.631617
-0.43581
-0.298235
-0.202417
-0.136259
-0.0909754
-0.0602456
-0.0395707
-0.0257793
-0.0166579
-0.0106763
-0.00678689
-0.00427923
-0.00267609
-0.00165985
-0.00102108
-0.000622965
-0.000376933
-0.000226177
-0.000134585
-7.94123e-05
-4.64626e-05
-2.69537e-05
-1.55028e-05
-8.84005e-06
-4.99731e-06
-2.8007e-06
-1.55654e-06
-8.58807e-07
-4.72343e-07
-2.62747e-07
-1.54993e-07
-1.09649e-07
-1684.47
-1669.64
-1640.36
-1597.41
-1541.89
-1475.21
-1399
-1315.06
-1225.3
-1131.65
-1035.98
-940.097
-845.615
-753.977
-666.396
-583.848
-507.068
-436.553
-372.577
-315.217
-264.378
-219.82
-181.193
-148.067
-119.955
-96.3468
-76.7214
-60.5711
-47.4124
-36.7963
-28.3146
-21.6033
-16.3434
-12.2598
-9.11916
-6.72612
-4.91951
-3.5681
-2.56636
-1.83052
-1.29484
-0.908343
-0.631956
-0.436047
-0.2984
-0.20253
-0.136337
-0.0910276
-0.0602805
-0.0395939
-0.0257946
-0.0166679
-0.0106827
-0.00679099
-0.00428183
-0.00267773
-0.00166087
-0.00102171
-0.000623349
-0.000377167
-0.000226317
-0.000134668
-7.94617e-05
-4.64915e-05
-2.69705e-05
-1.55125e-05
-8.84555e-06
-5.00041e-06
-2.80246e-06
-1.55753e-06
-8.59347e-07
-4.72626e-07
-2.6291e-07
-1.55113e-07
-1.09693e-07
-1684.36
-1669.53
-1640.26
-1597.32
-1541.81
-1475.14
-1398.95
-1315.03
-1225.28
-1131.64
-1035.99
-940.118
-845.646
-754.015
-666.439
-583.895
-507.117
-436.601
-372.624
-315.261
-264.419
-219.857
-181.226
-148.096
-119.981
-96.3684
-76.7396
-60.5862
-47.4248
-36.8064
-28.3227
-21.6097
-16.3484
-12.2637
-9.12214
-6.72839
-4.92122
-3.56937
-2.56729
-1.8312
-1.29533
-0.908694
-0.632204
-0.436222
-0.298521
-0.202614
-0.136394
-0.0910661
-0.0603063
-0.039611
-0.0258058
-0.0166752
-0.0106874
-0.00679401
-0.00428375
-0.00267893
-0.00166162
-0.00102217
-0.000623633
-0.000377338
-0.00022642
-0.00013473
-7.94981e-05
-4.65128e-05
-2.69829e-05
-1.55196e-05
-8.84961e-06
-5.0027e-06
-2.80373e-06
-1.55824e-06
-8.59746e-07
-4.7284e-07
-2.63023e-07
-1.55194e-07
-1.09744e-07
-1684.28
-1669.45
-1640.19
-1597.25
-1541.76
-1475.1
-1398.91
-1315
-1225.27
-1131.64
-1036
-940.133
-845.668
-754.042
-666.47
-583.928
-507.151
-436.635
-372.657
-315.293
-264.448
-219.883
-181.25
-148.117
-119.999
-96.3839
-76.7527
-60.5971
-47.4338
-36.8137
-28.3286
-21.6144
-16.352
-12.2665
-9.12431
-6.73003
-4.92245
-3.57028
-2.56797
-1.83169
-1.29569
-0.90895
-0.632385
-0.436349
-0.29861
-0.202674
-0.136435
-0.0910942
-0.0603251
-0.0396235
-0.025814
-0.0166805
-0.0106909
-0.00679622
-0.00428515
-0.00267981
-0.00166217
-0.00102251
-0.00062384
-0.000377464
-0.000226496
-0.000134775
-7.95246e-05
-4.65283e-05
-2.69918e-05
-1.55248e-05
-8.85256e-06
-5.00438e-06
-2.80466e-06
-1.55873e-06
-8.60001e-07
-4.73016e-07
-2.63141e-07
-1.55246e-07
-1.09778e-07
-1684.23
-1669.4
-1640.14
-1597.21
-1541.72
-1475.07
-1398.89
-1314.99
-1225.26
-1131.64
-1036.01
-940.143
-845.683
-754.061
-666.491
-583.951
-507.175
-436.659
-372.68
-315.315
-264.468
-219.902
-181.267
-148.132
-120.012
-96.3949
-76.762
-60.6048
-47.4401
-36.8189
-28.3327
-21.6177
-16.3546
-12.2685
-9.12586
-6.73121
-4.92334
-3.57095
-2.56846
-1.83205
-1.29594
-0.909134
-0.632516
-0.436441
-0.298673
-0.202718
-0.136465
-0.0911145
-0.0603388
-0.0396325
-0.02582
-0.0166844
-0.0106934
-0.00679783
-0.00428617
-0.00268045
-0.00166257
-0.00102276
-0.00062399
-0.000377555
-0.00022655
-0.000134807
-7.95437e-05
-4.65395e-05
-2.69984e-05
-1.55285e-05
-8.85468e-06
-5.00559e-06
-2.80534e-06
-1.55912e-06
-8.60211e-07
-4.73107e-07
-2.63203e-07
-1.55278e-07
-1.09801e-07
-1684.19
-1669.36
-1640.1
-1597.18
-1541.69
-1475.04
-1398.87
-1314.97
-1225.26
-1131.64
-1036.01
-940.15
-845.693
-754.073
-666.506
-583.967
-507.191
-436.675
-372.696
-315.33
-264.483
-219.915
-181.279
-148.142
-120.021
-96.4027
-76.7685
-60.6103
-47.4447
-36.8225
-28.3357
-21.62
-16.3565
-12.27
-9.12696
-6.73205
-4.92397
-3.57142
-2.56881
-1.8323
-1.29613
-0.909266
-0.63261
-0.436506
-0.298719
-0.20275
-0.136487
-0.0911291
-0.0603485
-0.039639
-0.0258243
-0.0166872
-0.0106952
-0.00679898
-0.0042869
-0.00268091
-0.00166285
-0.00102293
-0.000624097
-0.00037762
-0.000226589
-0.00013483
-7.95574e-05
-4.65475e-05
-2.7003e-05
-1.55311e-05
-8.85616e-06
-5.00641e-06
-2.80582e-06
-1.5594e-06
-8.60364e-07
-4.73192e-07
-2.63255e-07
-1.55295e-07
-1.09812e-07
-1684.16
-1669.34
-1640.08
-1597.16
-1541.67
-1475.03
-1398.86
-1314.97
-1225.25
-1131.64
-1036.01
-940.155
-845.7
-754.082
-666.516
-583.978
-507.203
-436.687
-372.707
-315.341
-264.493
-219.924
-181.287
-148.149
-120.027
-96.4081
-76.7731
-60.6142
-47.4478
-36.8251
-28.3378
-21.6217
-16.3578
-12.271
-9.12774
-6.73264
-4.92442
-3.57175
-2.56905
-1.83248
-1.29626
-0.90936
-0.632676
-0.436553
-0.298752
-0.202772
-0.136502
-0.0911395
-0.0603555
-0.0396436
-0.0258273
-0.0166892
-0.0106965
-0.0067998
-0.00428742
-0.00268123
-0.00166305
-0.00102306
-0.000624174
-0.000377666
-0.000226617
-0.000134847
-7.95671e-05
-4.65532e-05
-2.70063e-05
-1.5533e-05
-8.85723e-06
-5.007e-06
-2.80613e-06
-1.55959e-06
-8.60489e-07
-4.73253e-07
-2.63267e-07
-1.55322e-07
-1.09839e-07
-1684.14
-1669.32
-1640.06