/*--------------------------------*- C++ -*----------------------------------*\
  =========                 |
  \\      /  F ield         | OpenFOAM: The Open Source CFD Toolbox
   \\    /   O peration     | Website:  https://openfoam.org
    \\  /    A nd           | Version:  10
     \\/     M anipulation  |
\*---------------------------------------------------------------------------*/
FoamFile
{
    format      ascii;
    class       volScalarField;
    location    "252";
    object      T;
}
// * * * * * * * * * * * * * * * * * * * * * * * * * * * * * * * * * * * * * //

dimensions      [0 0 0 1 0 0 0];

internalField   nonuniform List<scalar> 
11250
(
249.789
167.398
139.099
126.589
119.728
115.354
112.284
109.99
108.204
106.774
105.608
104.645
103.843
103.172
102.61
102.139
101.745
101.416
101.143
100.918
100.732
100.58
100.457
100.358
100.278
100.215
100.164
100.125
100.094
100.071
100.053
100.039
100.029
100.021
100.015
100.011
100.008
100.005
100.004
100.003
100.002
100.001
100.001
100.001
100
100
100
100
100
100
100
100
100
100
100
100
100
100
100
100
100
100
100
100
100
100
100
100
100
100
100
100
100
100
100
331.34
248.112
201.529
174.141
156.726
144.796
136.115
129.505
124.302
120.107
116.67
113.822
111.444
109.453
107.781
106.38
105.206
104.227
103.413
102.74
102.187
101.734
101.366
101.069
100.831
100.641
100.491
100.374
100.282
100.212
100.158
100.116
100.085
100.062
100.045
100.032
100.023
100.016
100.011
100.008
100.005
100.004
100.003
100.002
100.001
100.001
100
100
100
100
100
100
100
100
100
100
100
100
100
100
100
100
100
100
100
100
100
100
100
100
100
100
100
100
100
358.809
292.214
244.817
211.796
188.332
171.095
157.996
147.744
139.528
132.826
127.287
122.67
118.8
115.547
112.811
110.511
108.584
106.973
105.633
104.524
103.611
102.864
102.257
101.766
101.373
101.06
100.812
100.618
100.467
100.35
100.261
100.193
100.141
100.103
100.074
100.053
100.038
100.027
100.019
100.013
100.009
100.006
100.004
100.003
100.002
100.001
100.001
100.001
100
100
100
100
100
100
100
100
100
100
100
100
100
100
100
100
100
100
100
100
100
100
100
100
100
100
100
370.508
317.176
273.817
240.017
213.862
193.435
177.23
164.162
153.469
144.616
137.221
131.008
125.77
121.347
117.614
114.469
111.827
109.615
107.773
106.246
104.988
103.958
103.12
102.443
101.899
101.466
101.124
100.856
100.647
100.485
100.361
100.267
100.196
100.142
100.103
100.074
100.053
100.037
100.026
100.018
100.012
100.009
100.006
100.004
100.003
100.002
100.001
100.001
100
100
100
100
100
100
100
100
100
100
100
100
100
100
100
100
100
100
100
100
100
100
100
100
100
100
100
376.583
332.239
293.384
260.764
233.876
211.799
193.604
178.506
165.888
155.274
146.304
138.7
132.246
126.767
122.124
118.199
114.893
112.12
109.806
107.885
106.301
105.002
103.945
103.09
102.403
101.856
101.424
101.084
100.819
100.614
100.458
100.338
100.248
100.181
100.131
100.094
100.067
100.047
100.033
100.023
100.016
100.011
100.007
100.005
100.003
100.002
100.001
100.001
100.001
100
100
100
100
100
100
100
100
100
100
100
100
100
100
100
100
100
100
100
100
100
100
100
100
100
100
380.201
341.909
306.876
275.994
249.348
226.595
207.232
190.753
176.704
164.704
154.442
145.661
138.153
131.744
126.288
121.659
117.748
114.46
111.71
109.425
107.537
105.987
104.724
103.702
102.881
102.226
101.707
101.3
100.983
100.738
100.549
100.406
100.298
100.217
100.157
100.112
100.08
100.057
100.04
100.028
100.019
100.013
100.009
100.006
100.004
100.003
100.002
100.001
100.001
100
100
100
100
100
100
100
100
100
100
100
100
100
100
100
100
100
100
100
100
100
100
100
100
100
100
382.552
348.437
316.408
287.249
261.252
238.378
218.402
201.029
185.956
172.898
161.604
151.852
143.453
136.242
130.074
124.82
120.368
116.615
113.47
110.851
108.684
106.904
105.451
104.274
103.327
102.572
101.974
101.504
101.137
100.854
100.636
100.47
100.345
100.251
100.182
100.13
100.093
100.066
100.046
100.032
100.022
100.015
100.01
100.007
100.005
100.003
100.002
100.001
100.001
100.001
100
100
100
100
100
100
100
100
100
100
100
100
100
100
100
100
100
100
100
100
100
100
100
100
100
384.166
353.015
323.293
295.643
270.411
247.701
227.46
209.541
193.757
179.911
167.811
157.275
148.137
140.247
133.467
127.669
122.74
118.575
115.076
112.157
109.737
107.747
106.12
104.802
103.74
102.893
102.221
101.692
101.28
100.961
100.716
100.53
100.389
100.283
100.205
100.147
100.105
100.074
100.052
100.036
100.025
100.017
100.012
100.008
100.005
100.003
100.002
100.001
100.001
100.001
100
100
100
100
100
100
100
100
100
100
100
100
100
100
100
100
100
100
100
100
100
100
100
100
100
385.316
356.316
328.358
301.963
277.472
255.055
234.753
216.52
200.258
185.838
173.12
161.961
152.221
143.765
136.466
130.202
124.86
120.333
116.522
113.336
110.692
108.513
106.73
105.283
104.118
103.186
102.447
101.866
101.412
101.061
100.791
100.585
100.429
100.313
100.226
100.162
100.116
100.082
100.057
100.04
100.028
100.019
100.013
100.009
100.006
100.004
100.003
100.002
100.001
100.001
100
100
100
100
100
100
100
100
100
100
100
100
100
100
100
100
100
100
100
100
100
100
100
100
100
386.156
358.746
332.137
306.761
282.931
260.844
240.595
222.201
205.625
190.792
177.608
165.961
155.737
146.817
139.085
132.427
126.731
121.891
117.809
114.39
111.547
109.201
107.279
105.718
104.459
103.452
102.653
102.023
101.532
101.151
100.858
100.635
100.466
100.34
100.246
100.176
100.126
100.089
100.062
100.043
100.03
100.021
100.014
100.009
100.006
100.004
100.003
100.002
100.001
100.001
100
100
100
100
100
100
100
100
100
100
100
100
100
100
100
100
100
100
100
100
100
100
100
100
100
386.78
360.562
334.989
310.427
287.162
265.397
245.255
226.794
210.019
194.896
181.363
169.339
158.73
149.434
141.346
134.357
128.362
123.257
118.941
115.319
112.304
109.811
107.768
106.106
104.764
103.69
102.837
102.165
101.64
101.232
100.919
100.68
100.5
100.364
100.264
100.189
100.135
100.095
100.067
100.047
100.032
100.022
100.015
100.01
100.007
100.004
100.003
100.002
100.001
100.001
100.001
100
100
100
100
100
100
100
100
100
100
100
100
100
100
100
100
100
100
100
100
100
100
100
100
387.249
361.933
337.157
313.241
290.447
268.974
248.961
230.489
213.593
198.267
184.477
172.163
161.252
151.654
143.275
136.014
129.77
124.44
119.925
116.131
112.966
110.348
108.199
106.448
105.034
103.901
103.001
102.291
101.735
101.305
100.974
100.721
100.53
100.386
100.28
100.201
100.143
100.101
100.071
100.049
100.034
100.023
100.016
100.011
100.007
100.005
100.003
100.002
100.001
100.001
100.001
100
100
100
100
100
100
100
100
100
100
100
100
100
100
100
100
100
100
100
100
100
100
100
100
387.605
362.975
338.816
315.41
293.001
271.782
251.899
233.447
216.481
201.016
187.037
174.504
163.356
153.519
144.905
137.422
130.971
125.454
120.772
116.832
113.54
110.814
108.573
106.747
105.27
104.086
103.144
102.401
101.82
101.369
101.022
100.757
100.556
100.406
100.294
100.211
100.15
100.106
100.075
100.052
100.036
100.025
100.017
100.011
100.008
100.005
100.003
100.002
100.001
100.001
100.001
100
100
100
100
100
100
100
100
100
100
100
100
100
100
100
100
100
100
100
100
100
100
100
100
387.876
363.772
340.088
317.085
294.987
273.983
254.22
235.805
218.802
203.242
189.126
176.427
165.097
155.07
146.269
138.605
131.986
126.314
121.494
117.43
114.033
111.215
108.897
107.005
105.475
104.247
103.269
102.498
101.894
101.425
101.064
100.788
100.58
100.423
100.306
100.22
100.157
100.111
100.078
100.054
100.037
100.026
100.017
100.012
100.008
100.005
100.003
100.002
100.001
100.001
100.001
100
100
100
100
100
100
100
100
100
100
100
100
100
100
100
100
100
100
100
100
100
100
100
100
388.084
364.382
341.067
318.378
296.53
275.704
256.049
237.675
220.656
205.034
190.819
177.995
166.525
156.35
147.399
139.591
132.834
127.037
122.102
117.937
114.45
111.556
109.172
107.226
105.65
104.385
103.377
102.581
101.957
101.473
101.1
100.815
100.6
100.438
100.317
100.228
100.162
100.115
100.081
100.056
100.039
100.027
100.018
100.012
100.008
100.005
100.004
100.002
100.002
100.001
100.001
100
100
100
100
100
100
100
100
100
100
100
100
100
100
100
100
100
100
100
100
100
100
100
100
388.243
364.851
341.82
319.378
297.728
277.048
257.485
239.152
222.13
206.466
192.18
179.264
167.686
157.396
148.328
140.404
133.538
127.638
122.61
118.362
114.801
111.843
109.405
107.413
105.799
104.502
103.469
102.652
102.012
101.515
101.132
100.839
100.617
100.45
100.326
100.234
100.167
100.118
100.083
100.058
100.04
100.027
100.019
100.013
100.008
100.006
100.004
100.002
100.002
100.001
100.001
100
100
100
100
100
100
100
100
100
100
100
100
100
100
100
100
100
100
100
100
100
100
100
100
388.365
365.21
342.399
320.149
298.655
278.093
258.608
240.313
223.295
207.605
193.268
180.283
168.623
158.245
149.085
141.07
134.116
128.133
123.03
118.714
115.094
112.083
109.6
107.57
105.924
104.601
103.546
102.712
102.058
101.55
101.158
100.859
100.632
100.461
100.334
100.24
100.171
100.121
100.085
100.059
100.041
100.028
100.019
100.013
100.009
100.006
100.004
100.002
100.002
100.001
100.001
100
100
100
100
100
100
100
100
100
100
100
100
100
100
100
100
100
100
100
100
100
100
100
100
388.458
365.486
342.844
320.742
299.372
278.904
259.482
241.222
224.211
208.504
194.132
181.095
169.374
158.927
149.696
141.61
134.586
128.538
123.374
119.003
115.334
112.281
109.762
107.701
106.028
104.683
103.611
102.762
102.097
101.579
101.18
100.875
100.644
100.47
100.341
100.245
100.175
100.124
100.087
100.06
100.042
100.029
100.02
100.013
100.009
100.006
100.004
100.003
100.002
100.001
100.001
100
100
100
100
100
100
100
100
100
100
100
100
100
100
100
100
100
100
100
100
100
100
100
100
388.529
365.696
343.185
321.198
299.925
279.531
260.161
241.93
224.927
209.211
194.813
181.739
169.972
159.473
150.186
142.044
134.966
128.866
123.654
119.239
115.531
112.444
109.894
107.808
106.114
104.751
103.664
102.804
102.129
101.604
101.199
100.889
100.655
100.478
100.346
100.249
100.178
100.126
100.088
100.062
100.043
100.029
100.02
100.013
100.009
100.006
100.004
100.003
100.002
100.001
100.001
100
100
100
100
100
100
100
100
100
100
100
100
100
100
100
100
100
100
100
100
100
100
100
100
388.584
365.857
343.446
321.548
300.348
280.013
260.685
242.479
225.484
209.762
195.346
182.245
170.443
159.904
150.576
142.39
135.27
129.129
123.879
119.43
115.691
112.575
110.002
107.895
106.184
104.807
103.708
102.838
102.155
101.624
101.214
100.901
100.663
100.484
100.351
100.252
100.18
100.127
100.09
100.062
100.043
100.03
100.02
100.014
100.009
100.006
100.004
100.003
100.002
100.001
100.001
100
100
100
100
100
100
100
100
100
100
100
100
100
100
100
100
100
100
100
100
100
100
100
100
388.625
365.98
343.644
321.814
300.672
280.383
261.087
242.901
225.915
210.19
195.762
182.64
170.813
160.244
150.883
142.665
135.511
129.339
124.059
119.582
115.818
112.681
110.089
107.966
106.241
104.852
103.744
102.866
102.177
101.641
101.227
100.91
100.67
100.49
100.355
100.255
100.182
100.129
100.091
100.063
100.044
100.03
100.02
100.014
100.009
100.006
100.004
100.003
100.002
100.001
100.001
100
100
100
100
100
100
100
100
100
100
100
100
100
100
100
100
100
100
100
100
100
100
100
100
388.657
366.073
343.794
322.016
300.919
280.665
261.395
243.226
226.246
210.52
196.083
182.947
171.1
160.509
151.124
142.88
135.701
129.504
124.202
119.703
115.92
112.766
110.159
108.022
106.287
104.889
103.772
102.888
102.194
101.654
101.237
100.918
100.676
100.494
100.358
100.257
100.184
100.13
100.091
100.064
100.044
100.03
100.021
100.014
100.009
100.006
100.004
100.003
100.002
100.001
100.001
100
100
100
100
100
100
100
100
100
100
100
100
100
100
100
100
100
100
100
100
100
100
100
100
388.68
366.143
343.908
322.169
301.106
280.879
261.629
243.473
226.499
210.773
196.33
183.184
171.323
160.715
151.311
143.048
135.85
129.634
124.313
119.798
116
112.833
110.214
108.067
106.323
104.918
103.795
102.906
102.208
101.665
101.245
100.924
100.681
100.497
100.361
100.259
100.185
100.131
100.092
100.064
100.044
100.03
100.021
100.014
100.009
100.006
100.004
100.003
100.002
100.001
100.001
100
100
100
100
100
100
100
100
100
100
100
100
100
100
100
100
100
100
100
100
100
100
100
100
388.698
366.195
343.994
322.285
301.247
281.041
261.806
243.66
226.692
210.965
196.519
183.365
171.493
160.873
151.455
143.177
135.965
129.735
124.4
119.873
116.063
112.885
110.257
108.103
106.352
104.941
103.813
102.92
102.219
101.673
101.252
100.929
100.684
100.5
100.363
100.261
100.186
100.132
100.093
100.065
100.045
100.031
100.021
100.014
100.009
100.006
100.004
100.003
100.002
100.001
100.001
100
100
100
100
100
100
100
100
100
100
100
100
100
100
100
100
100
100
100
100
100
100
100
100
388.711
366.235
344.058
322.371
301.352
281.162
261.94
243.801
226.837
211.111
196.662
183.502
171.623
160.994
151.566
143.277
136.053
129.812
124.468
119.93
116.112
112.926
110.291
108.13
106.374
104.958
103.827
102.931
102.228
101.68
101.257
100.933
100.687
100.502
100.364
100.262
100.187
100.132
100.093
100.065
100.045
100.031
100.021
100.014
100.009
100.006
100.004
100.003
100.002
100.001
100.001
100
100
100
100
100
100
100
100
100
100
100
100
100
100
100
100
100
100
100
100
100
100
100
100
388.721
366.264
344.105
322.435
301.431
281.253
262.039
243.907
226.946
211.221
196.769
183.606
171.721
161.085
151.65
143.353
136.121
129.872
124.519
119.974
116.149
112.957
110.317
108.152
106.391
104.972
103.838
102.94
102.235
101.685
101.261
100.936
100.689
100.504
100.365
100.263
100.188
100.133
100.093
100.065
100.045
100.031
100.021
100.014
100.01
100.006
100.004
100.003
100.002
100.001
100.001
100
100
100
100
100
100
100
100
100
100
100
100
100
100
100
100
100
100
100
100
100
100
100
100
388.729
366.286
344.141
322.483
301.489
281.32
262.113
243.986
227.027
211.302
196.85
183.684
171.795
161.154
151.713
143.41
136.172
129.917
124.558
120.008
116.178
112.981
110.337
108.168
106.404
104.983
103.847
102.947
102.24
101.689
101.264
100.938
100.691
100.505
100.366
100.264
100.188
100.133
100.094
100.065
100.045
100.031
100.021
100.014
100.01
100.006
100.004
100.003
100.002
100.001
100.001
100
100
100
100
100
100
100
100
100
100
100
100
100
100
100
100
100
100
100
100
100
100
100
100
388.734
366.302
344.167
322.518
301.532
281.37
262.168
244.044
227.087
211.363
196.91
183.742
171.85
161.206
151.76
143.453
136.21
129.95
124.588
120.034
116.199
112.999
110.352
108.18
106.415
104.991
103.853
102.952
102.244
101.692
101.266
100.94
100.693
100.506
100.367
100.264
100.189
100.134
100.094
100.065
100.045
100.031
100.021
100.014
100.01
100.006
100.004
100.003
100.002
100.001
100.001
100
100
100
100
100
100
100
100
100
100
100
100
100
100
100
100
100
100
100
100
100
100
100
100
388.738
366.313
344.186
322.544
301.564
281.406
262.208
244.087
227.132
211.408
196.954
183.785
171.891
161.244
151.796
143.485
136.239
129.976
124.61
120.053
116.216
113.013
110.363
108.19
106.422
104.997
103.858
102.956
102.247
101.695
101.268
100.942
100.694
100.507
100.368
100.264
100.189
100.134
100.094
100.066
100.045
100.031
100.021
100.014
100.01
100.006
100.004
100.003
100.002
100.001
100.001
100
100
100
100
100
100
100
100
100
100
100
100
100
100
100
100
100
100
100
100
100
100
100
100
388.741
366.322
344.199
322.562
301.587
281.432
262.238
244.118
227.164
211.441
196.987
183.816
171.921
161.272
151.822
143.509
136.26
129.995
124.626
120.067
116.228
113.023
110.372
108.197
106.428
105.002
103.862
102.959
102.249
101.696
101.269
100.943
100.694
100.508
100.368
100.265
100.189
100.134
100.094
100.066
100.045
100.031
100.021
100.014
100.01
100.006
100.004
100.003
100.002
100.001
100.001
100
100
100
100
100
100
100
100
100
100
100
100
100
100
100
100
100
100
100
100
100
100
100
100
388.743
366.328
344.209
322.576
301.604
281.452
262.259
244.141
227.188
211.465
197.01
183.839
171.943
161.292
151.841
143.526
136.275
130.008
124.638
120.077
116.237
113.031
110.378
108.202
106.432
105.005
103.865
102.961
102.251
101.698
101.271
100.943
100.695
100.508
100.368
100.265
100.189
100.134
100.094
100.066
100.045
100.031
100.021
100.014
100.01
100.006
100.004
100.003
100.002
100.001
100.001
100
100
100
100
100
100
100
100
100
100
100
100
100
100
100
100
100
100
100
100
100
100
100
100
388.744
366.332
344.217
322.586
301.616
281.466
262.274
244.157
227.205
211.482
197.027
183.856
171.959
161.307
151.854
143.538
136.287
130.018
124.647
120.085
116.243
113.036
110.383
108.206
106.435
105.008
103.867
102.963
102.252
101.699
101.271
100.944
100.695
100.508
100.369
100.265
100.189
100.134
100.094
100.066
100.045
100.031
100.021
100.014
100.01
100.006
100.004
100.003
100.002
100.001
100.001
100
100
100
100
100
100
100
100
100
100
100
100
100
100
100
100
100
100
100
100
100
100
100
100
388.745
366.335
344.222
322.593
301.624
281.475
262.285
244.169
227.217
211.494
197.04
183.868
171.97
161.318
151.864
143.548
136.295
130.026
124.654
120.09
116.248
113.04
110.386
108.208
106.438
105.01
103.868
102.964
102.253
101.699
101.272
100.944
100.696
100.509
100.369
100.265
100.189
100.134
100.094
100.066
100.045
100.031
100.021
100.014
100.01
100.006
100.004
100.003
100.002
100.001
100.001
100
100
100
100
100
100
100
100
100
100
100
100
100
100
100
100
100
100
100
100
100
100
100
100
388.746
366.338
344.225
322.597
301.63
281.482
262.293
244.177
227.226
211.503
197.048
183.876
171.979
161.326
151.871
143.554
136.301
130.031
124.658
120.094
116.251
113.043
110.388
108.21
106.439
105.011
103.869
102.965
102.254
101.7
101.272
100.945
100.696
100.509
100.369
100.265
100.19
100.134
100.094
100.066
100.045
100.031
100.021
100.014
100.01
100.006
100.004
100.003
100.002
100.001
100.001
100
100
100
100
100
100
100
100
100
100
100
100
100
100
100
100
100
100
100
100
100
100
100
100
388.747
366.339
344.228
322.601
301.634
281.487
262.298
244.183
227.232
211.509
197.055
183.882
171.984
161.331
151.877
143.559
136.305
130.035
124.662
120.097
116.254
113.045
110.39
108.212
106.44
105.012
103.87
102.965
102.254
101.7
101.273
100.945
100.696
100.509
100.369
100.266
100.19
100.134
100.094
100.066
100.046
100.031
100.021
100.014
100.01
100.006
100.004
100.003
100.002
100.001
100.001
100
100
100
100
100
100
100
100
100
100
100
100
100
100
100
100
100
100
100
100
100
100
100
100
388.747
366.34
344.23
322.603
301.637
281.491
262.302
244.187
227.236
211.513
197.059
183.887
171.988
161.335
151.88
143.562
136.308
130.037
124.664
120.099
116.255
113.047
110.391
108.213
106.441
105.013
103.871
102.966
102.255
101.701
101.273
100.945
100.696
100.509
100.369
100.266
100.19
100.134
100.094
100.066
100.046
100.031
100.021
100.014
100.01
100.006
100.004
100.003
100.002
100.001
100.001
100
100
100
100
100
100
100
100
100
100
100
100
100
100
100
100
100
100
100
100
100
100
100
100
388.747
366.341
344.231
322.605
301.639
281.493
262.305
244.19
227.239
211.517
197.062
183.89
171.991
161.338
151.883
143.564
136.31
130.039
124.665
120.101
116.257
113.048
110.392
108.214
106.442
105.013
103.871
102.966
102.255
101.701
101.273
100.945
100.696
100.509
100.369
100.266
100.19
100.134
100.094
100.066
100.046
100.031
100.021
100.014
100.01
100.006
100.004
100.003
100.002
100.001
100.001
100
100
100
100
100
100
100
100
100
100
100
100
100
100
100
100
100
100
100
100
100
100
100
100
388.747
366.342
344.232
322.606
301.641
281.495
262.307
244.192
227.241
211.519
197.064
183.892
171.993
161.34
151.884
143.566
136.312
130.041
124.667
120.102
116.258
113.049
110.393
108.214
106.442
105.013
103.871
102.966
102.255
101.701
101.273
100.945
100.696
100.509
100.369
100.266
100.19
100.134
100.094
100.066
100.046
100.031
100.021
100.014
100.01
100.006
100.004
100.003
100.002
100.001
100.001
100
100
100
100
100
100
100
100
100
100
100
100
100
100
100
100
100
100
100
100
100
100
100
100
388.748
366.342
344.232
322.607
301.642
281.496
262.308
244.193
227.242
211.52
197.065
183.893
171.995
161.341
151.886
143.567
136.313
130.041
124.667
120.102
116.258
113.049
110.393
108.215
106.443
105.014
103.872
102.966
102.255
101.701
101.273
100.945
100.696
100.509
100.369
100.266
100.19
100.134
100.094
100.066
100.046
100.031
100.021
100.014
100.01
100.006
100.004
100.003
100.002
100.001
100.001
100
100
100
100
100
100
100
100
100
100
100
100
100
100
100
100
100
100
100
100
100
100
100
100
388.748
366.342
344.233
322.608
301.643
281.497
262.309
244.194
227.243
211.521
197.066
183.894
171.996
161.342
151.886
143.568
136.313
130.042
124.668
120.103
116.259
113.049
110.394
108.215
106.443
105.014
103.872
102.966
102.255
101.701
101.273
100.945
100.696
100.509
100.369
100.266
100.19
100.134
100.094
100.066
100.046
100.031
100.021
100.014
100.01
100.006
100.004
100.003
100.002
100.001
100.001
100
100
100
100
100
100
100
100
100
100
100
100
100
100
100
100
100
100
100
100
100
100
100
100
388.748
366.342
344.233
322.608
301.643
281.497
262.31
244.195
227.244
211.522
197.067
183.895
171.996
161.342
151.887
143.568
136.314
130.042
124.668
120.103
116.259
113.05
110.394
108.215
106.443
105.014
103.872
102.967
102.255
101.701
101.273
100.945
100.696
100.509
100.369
100.266
100.19
100.134
100.094
100.066
100.046
100.031
100.021
100.014
100.01
100.006
100.004
100.003
100.002
100.001
100.001
100
100
100
100
100
100
100
100
100
100
100
100
100
100
100
100
100
100
100
100
100
100
100
100
388.748
366.343
344.233
322.608
301.643
281.498
262.31
244.195
227.245
211.522
197.068
183.895
171.997
161.343
151.887
143.569
136.314
130.043
124.669
120.103
116.259
113.05
110.394
108.215
106.443
105.014
103.872
102.967
102.255
101.701
101.273
100.945
100.697
100.509
100.369
100.266
100.19
100.134
100.094
100.066
100.046
100.031
100.021
100.014
100.01
100.006
100.004
100.003
100.002
100.001
100.001
100
100
100
100
100
100
100
100
100
100
100
100
100
100
100
100
100
100
100
100
100
100
100
100
388.748
366.343
344.233
322.608
301.644
281.498
262.31
244.196
227.245
211.523
197.068
183.895
171.997
161.343
151.888
143.569
136.314
130.043
124.669
120.104
116.259
113.05
110.394
108.215
106.443
105.014
103.872
102.967
102.255
101.701
101.273
100.945
100.697
100.509
100.369
100.266
100.19
100.134
100.094
100.066
100.046
100.031
100.021
100.014
100.01
100.006
100.004
100.003
100.002
100.001
100.001
100
100
100
100
100
100
100
100
100
100
100
100
100
100
100
100
100
100
100
100
100
100
100
100
388.748
366.343
344.233
322.608
301.644
281.498
262.31
244.196
227.245
211.523
197.068
183.896
171.997
161.343
151.888
143.569
136.314
130.043
124.669
120.104
116.259
113.05
110.394
108.215
106.443
105.014
103.872
102.967
102.255
101.701
101.273
100.945
100.697
100.509
100.369
100.266
100.19
100.134
100.094
100.066
100.046
100.031
100.021
100.014
100.01
100.006
100.004
100.003
100.002
100.001
100.001
100
100
100
100
100
100
100
100
100
100
100
100
100
100
100
100
100
100
100
100
100
100
100
100
388.748
366.343
344.233
322.608
301.644
281.498
262.31
244.196
227.245
211.523
197.068
183.896
171.997
161.343
151.888
143.569
136.315
130.043
124.669
120.104
116.259
113.05
110.394
108.215
106.443
105.014
103.872
102.967
102.255
101.701
101.273
100.945
100.697
100.509
100.369
100.266
100.19
100.134
100.094
100.066
100.046
100.031
100.021
100.014
100.01
100.006
100.004
100.003
100.002
100.001
100.001
100
100
100
100
100
100
100
100
100
100
100
100
100
100
100
100
100
100
100
100
100
100
100
100
388.748
366.343
344.233
322.609
301.644
281.498
262.311
244.196
227.245
211.523
197.068
183.896
171.997
161.344
151.888
143.569
136.315
130.043
124.669
120.104
116.259
113.05
110.394
108.215
106.443
105.014
103.872
102.967
102.255
101.701
101.273
100.945
100.697
100.509
100.369
100.266
100.19
100.134
100.094
100.066
100.046
100.031
100.021
100.014
100.01
100.006
100.004
100.003
100.002
100.001
100.001
100
100
100
100
100
100
100
100
100
100
100
100
100
100
100
100
100
100
100
100
100
100
100
100
388.748
366.343
344.233
322.609
301.644
281.498
262.311
244.196
227.245
211.523
197.068
183.896
171.997
161.344
151.888
143.569
136.315
130.043
124.669
120.104
116.259
113.05
110.394
108.215
106.443
105.014
103.872
102.967
102.255
101.701
101.273
100.945
100.697
100.509
100.369
100.266
100.19
100.134
100.094
100.066
100.046
100.031
100.021
100.014
100.01
100.006
100.004
100.003
100.002
100.001
100.001
100
100
100
100
100
100
100
100
100
100
100
100
100
100
100
100
100
100
100
100
100
100
100
100
388.748
366.343
344.233
322.609
301.644
281.498
262.311
244.196
227.245
211.523
197.068
183.896
171.997
161.344
151.888
143.569
136.315
130.043
124.669
120.104
116.259
113.05
110.394
108.215
106.443
105.014
103.872
102.967
102.255
101.701
101.273
100.945
100.697
100.509
100.369
100.266
100.19
100.134
100.094
100.066
100.046
100.031
100.021
100.014
100.01
100.006
100.004
100.003
100.002
100.001
100.001
100
100
100
100
100
100
100
100
100
100
100
100
100
100
100
100
100
100
100
100
100
100
100
100
388.748
366.343
344.233
322.609
301.644
281.498
262.311
244.196
227.245
211.523
197.068
183.896
171.997
161.344
151.888
143.569
136.315
130.043
124.669
120.104
116.259
113.05
110.394
108.215
106.443
105.014
103.872
102.967
102.255
101.701
101.273
100.945
100.697
100.509
100.369
100.266
100.19
100.134
100.094
100.066
100.046
100.031
100.021
100.014
100.01
100.006
100.004
100.003
100.002
100.001
100.001
100
100
100
100
100
100
100
100
100
100
100
100
100
100
100
100
100
100
100
100
100
100
100
100
388.748
366.343
344.234
322.609
301.644
281.498
262.311
244.196
227.245
211.523
197.068
183.896
171.997
161.344
151.888
143.569
136.315
130.043
124.669
120.104
116.259
113.05
110.394
108.215
106.443
105.014
103.872
102.967
102.255
101.701
101.273
100.945
100.697
100.509
100.369
100.266
100.19
100.134
100.094
100.066
100.046
100.031
100.021
100.014
100.01
100.006
100.004
100.003
100.002
100.001
100.001
100
100
100
100
100
100
100
100
100
100
100
100
100
100
100
100
100
100
100
100
100
100
100
100
388.748
366.343
344.234
322.609
301.644
281.498
262.311
244.196
227.245
211.523
197.068
183.896
171.997
161.344
151.888
143.569
136.315
130.043
124.669
120.104
116.259
113.05
110.394
108.215
106.443
105.014
103.872
102.967
102.255
101.701
101.273
100.945
100.697
100.509
100.369
100.266
100.19
100.134
100.094
100.066
100.046
100.031
100.021
100.014
100.01
100.006
100.004
100.003
100.002
100.001
100.001
100
100
100
100
100
100
100
100
100
100
100
100
100
100
100
100
100
100
100
100
100
100
100
100
388.748
366.343
344.234
322.609
301.644
281.498
262.311
244.196
227.245
211.523
197.068
183.896
171.997
161.344
151.888
143.569
136.315
130.043
124.669
120.104
116.259
113.05
110.394
108.215
106.443
105.014
103.872
102.967
102.255
101.701
101.273
100.945
100.697
100.509
100.369
100.266
100.19
100.134
100.094
100.066
100.046
100.031
100.021
100.014
100.01
100.006
100.004
100.003
100.002
100.001
100.001
100
100
100
100
100
100
100
100
100
100
100
100
100
100
100
100
100
100
100
100
100
100
100
100
388.748
366.343
344.234
322.609
301.644
281.498
262.311
244.196
227.245
211.523
197.068
183.896
171.997
161.344
151.888
143.569
136.315
130.043
124.669
120.104
116.259
113.05
110.394
108.215
106.443
105.014
103.872
102.967
102.255
101.701
101.273
100.945
100.697
100.509
100.369
100.266
100.19
100.134
100.094
100.066
100.046
100.031
100.021
100.014
100.01
100.006
100.004
100.003
100.002
100.001
100.001
100
100
100
100
100
100
100
100
100
100
100
100
100
100
100
100
100
100
100
100
100
100
100
100
388.748
366.343
344.234
322.609
301.644
281.498
262.311
244.196
227.245
211.523
197.068
183.896
171.997
161.344
151.888
143.569
136.315
130.043
124.669
120.104
116.259
113.05
110.394
108.215
106.443
105.014
103.872
102.967
102.255
101.701
101.273
100.945
100.697
100.509
100.369
100.266
100.19
100.134
100.094
100.066
100.046
100.031
100.021
100.014
100.01
100.006
100.004
100.003
100.002
100.001
100.001
100
100
100
100
100
100
100
100
100
100
100
100
100
100
100
100
100
100
100
100
100
100
100
100
388.748
366.343
344.234
322.609
301.644
281.498
262.311
244.196
227.245
211.523
197.068
183.896
171.997
161.344
151.888
143.569
136.315
130.043
124.669
120.104
116.259
113.05
110.394
108.215
106.443
105.014
103.872
102.967
102.255
101.701
101.273
100.945
100.697
100.509
100.369
100.266
100.19
100.134
100.094
100.066
100.046
100.031
100.021
100.014
100.01
100.006
100.004
100.003
100.002
100.001
100.001
100
100
100
100
100
100
100
100
100
100
100
100
100
100
100
100
100
100
100
100
100
100
100
100
388.748
366.343
344.234
322.609
301.644
281.498
262.311
244.196
227.245
211.523
197.068
183.896
171.997
161.344
151.888
143.569
136.315
130.043
124.669
120.104
116.259
113.05
110.394
108.215
106.443
105.014
103.872
102.967
102.255
101.701
101.273
100.945
100.697
100.509
100.369
100.266
100.19
100.134
100.094
100.066
100.046
100.031
100.021
100.014
100.01
100.006
100.004
100.003
100.002
100.001
100.001
100
100
100
100
100
100
100
100
100
100
100
100
100
100
100
100
100
100
100
100
100
100
100
100
388.748
366.343
344.234
322.609
301.644
281.498
262.311
244.196
227.245
211.523
197.068
183.896
171.997
161.344
151.888
143.569
136.315
130.043
124.669
120.104
116.259
113.05
110.394
108.215
106.443
105.014
103.872
102.967
102.255
101.701
101.273
100.945
100.697
100.509
100.369
100.266
100.19
100.134
100.094
100.066
100.046
100.031
100.021
100.014
100.01
100.006
100.004
100.003
100.002
100.001
100.001
100
100
100
100
100
100
100
100
100
100
100
100
100
100
100
100
100
100
100
100
100
100
100
100
388.748
366.343
344.234
322.609
301.644
281.498
262.311
244.196
227.245
211.523
197.068
183.896
171.997
161.344
151.888
143.569
136.315
130.043
124.669
120.104
116.259
113.05
110.394
108.215
106.443
105.014
103.872
102.967
102.255
101.701
101.273
100.945
100.697
100.509
100.369
100.266
100.19
100.134
100.094
100.066
100.046
100.031
100.021
100.014
100.01
100.006
100.004
100.003
100.002
100.001
100.001
100
100
100
100
100
100
100
100
100
100
100
100
100
100
100
100
100
100
100
100
100
100
100
100
388.748
366.343
344.234
322.609
301.644
281.498
262.311
244.196
227.245
211.523
197.068
183.896
171.997
161.344
151.888
143.569
136.315
130.043
124.669
120.104
116.259
113.05
110.394
108.215
106.443
105.014
103.872
102.967
102.255
101.701
101.273
100.945
100.697
100.509
100.369
100.266
100.19
100.134
100.094
100.066
100.046
100.031
100.021
100.014
100.01
100.006
100.004
100.003
100.002
100.001
100.001
100
100
100
100
100
100
100
100
100
100
100
100
100
100