/*--------------------------------*- C++ -*----------------------------------*\
  =========                 |
  \\      /  F ield         | OpenFOAM: The Open Source CFD Toolbox
   \\    /   O peration     | Website:  https://openfoam.org
    \\  /    A nd           | Version:  10
     \\/     M anipulation  |
\*---------------------------------------------------------------------------*/
FoamFile
{
    format      ascii;
    class       volScalarField;
    location    "315";
    object      gradTx;
}
// * * * * * * * * * * * * * * * * * * * * * * * * * * * * * * * * * * * * * //

dimensions      [0 -1 0 1 0 0 0];

internalField   nonuniform List<scalar> 
11250
(
14298.7
8100.46
5304.46
3819.62
2919.62
2317.4
1884.55
1556.99
1299.7
1092.07
921.176
778.528
658.268
556.205
469.225
394.939
331.457
277.247
231.034
191.737
158.43
130.306
106.658
86.8668
70.3837
56.7272
45.4737
36.252
28.7388
22.6535
17.7541
13.8335
10.7155
8.25116
6.31573
4.8053
3.63404
2.73161
2.04077
1.51533
1.11828
0.820183
0.597839
0.433076
0.311778
0.223061
0.158596
0.11206
0.0786856
0.0549063
0.0380741
0.0262371
0.0179672
0.0122269
0.00826855
0.00555665
0.00371079
0.00246257
0.00162396
0.00106421
0.000693014
0.00044845
0.000288365
0.000184256
0.00011699
7.38089e-05
4.62684e-05
2.88154e-05
1.78235e-05
1.09398e-05
6.64659e-06
3.96853e-06
2.27835e-06
1.16743e-06
3.58018e-07
4094.52
4699.32
3995.05
3237.18
2624.84
2151.57
1783.26
1491.11
1254.76
1060.26
898.013
761.284
645.209
546.182
461.453
388.864
326.683
273.479
228.052
189.375
156.557
128.822
105.484
85.9388
69.6522
56.1521
45.023
35.9002
28.4651
22.4414
17.5905
13.7079
10.6195
8.1782
6.26054
4.76375
3.60294
2.70845
2.02362
1.5027
1.10902
0.813445
0.59296
0.429564
0.309265
0.221272
0.157331
0.111171
0.078064
0.0544745
0.037776
0.0260325
0.0178276
0.0121323
0.00820475
0.00551391
0.00368234
0.00244375
0.00161159
0.00105612
0.000687762
0.000445061
0.000286191
0.000182871
0.000116112
7.32565e-05
4.5923e-05
2.86008e-05
1.76911e-05
1.08587e-05
6.59744e-06
3.93926e-06
2.26164e-06
1.15886e-06
3.55417e-07
1475.01
2608.28
2740.99
2511.59
2193.96
1884.28
1609.77
1373.8
1172.63
1001.09
854.377
728.497
620.203
526.885
446.425
377.081
317.396
266.134
222.229
184.753
152.889
125.912
103.178
84.1157
68.2141
55.0209
44.1361
35.2073
27.926
22.0236
17.2682
13.4604
10.4303
8.03427
6.15162
4.68176
3.54153
2.66271
1.98974
1.47774
1.09074
0.80013
0.583318
0.422622
0.304296
0.217737
0.15483
0.109412
0.0768348
0.0536205
0.0371862
0.0256276
0.0175513
0.011945
0.0080785
0.00542934
0.00362603
0.00240649
0.00158709
0.00104011
0.000677362
0.000438348
0.000281885
0.000180126
0.000114374
7.21622e-05
4.52385e-05
2.81755e-05
1.74286e-05
1.0698e-05
6.50002e-06
3.88121e-06
2.22835e-06
1.14182e-06
3.50207e-07
672.57
1518.87
1850.75
1876.56
1758.06
1585.29
1401.65
1226
1065.48
921.909
794.885
683.16
585.25
499.684
425.101
360.269
304.088
255.57
213.831
178.072
147.574
121.688
99.8268
81.462
66.1183
53.3709
42.8413
34.195
27.1377
21.4124
16.7963
13.0978
10.153
7.82332
5.99192
4.56149
3.45144
2.59559
1.94001
1.4411
1.0639
0.780573
0.569154
0.412423
0.296994
0.21254
0.151154
0.106827
0.0750274
0.0523646
0.0363187
0.0250321
0.017145
0.0116694
0.00789274
0.00530489
0.00354317
0.00235166
0.00155103
0.00101654
0.000662053
0.000428466
0.000275546
0.000176085
0.000111813
7.05507e-05
4.42305e-05
2.75491e-05
1.70419e-05
1.04612e-05
6.35642e-06
3.79564e-06
2.1793e-06
1.11674e-06
3.42495e-07
369.315
944.898
1268.25
1388.14
1379.32
1300.55
1189.36
1067.3
945.888
830.911
724.961
628.942
542.877
466.351
398.741
339.342
287.427
242.282
203.223
169.604
140.82
116.307
95.5488
78.0686
63.4343
51.2547
41.1788
32.8939
26.1236
20.6254
16.1883
12.6303
9.79536
7.551
5.78567
4.4061
3.33499
2.5088
1.87568
1.39369
1.02915
0.755255
0.550812
0.399212
0.287534
0.205807
0.146389
0.103475
0.0726842
0.0507361
0.0351938
0.0242598
0.0166179
0.0113119
0.00765173
0.00514341
0.00343564
0.00228049
0.00150422
0.000985947
0.000642177
0.000415635
0.000267314
0.000170837
0.000108489
6.84575e-05
4.29212e-05
2.67353e-05
1.65396e-05
1.01535e-05
6.16985e-06
3.68444e-06
2.11556e-06
1.08413e-06
3.32511e-07
229.441
624.154
890.824
1030.68
1073.3
1051.54
991.687
912.021
824.249
735.483
649.84
569.562
495.751
428.815
368.757
315.339
268.185
226.847
190.844
159.682
132.877
109.962
90.4903
74.0473
60.2475
48.7379
39.1985
31.3421
24.9127
19.6847
15.4609
12.0706
9.36674
7.22447
5.5382
4.21955
3.19513
2.40451
1.79835
1.33667
0.98735
0.724785
0.52873
0.383303
0.27614
0.197694
0.140647
0.0994357
0.0698592
0.0487724
0.0338371
0.0233281
0.015982
0.0108805
0.00736086
0.0049485
0.00330583
0.00219457
0.0014477
0.000948999
0.000618172
0.000400136
0.00025737
0.000164496
0.000104471
6.59281e-05
4.13388e-05
2.57518e-05
1.59325e-05
9.78157e-06
5.94434e-06
3.55002e-06
2.0385e-06
1.04469e-06
3.20431e-07
154.057
432.411
641.794
772.595
834.359
843.779
817.427
768.804
707.835
641.369
573.92
508.346
446.368
388.952
336.56
289.326
247.171
209.882
177.161
148.664
124.023
102.863
84.8148
69.5239
56.6546
45.8947
36.9576
29.5832
23.5383
18.6157
14.6334
11.4331
8.87821
6.852
5.25571
4.00645
3.03526
2.28524
1.70987
1.2714
0.939476
0.689875
0.503421
0.365062
0.263071
0.188386
0.134058
0.0947987
0.0666157
0.0465173
0.0322787
0.0222577
0.0152512
0.0103846
0.00702651
0.00472441
0.00315656
0.00209576
0.00138269
0.000906493
0.000590553
0.000382302
0.000245926
0.000157198
9.98466e-05
6.30161e-05
3.95167e-05
2.46191e-05
1.52332e-05
9.35316e-06
5.68453e-06
3.39516e-06
1.94973e-06
9.99244e-07
3.06487e-07
108.739
310.556
472.853
585.618
650.345
674.842
668.887
641.719
600.974
552.49
500.505
447.967
396.853
348.427
303.448
262.312
225.168
191.994
162.648
136.918
114.541
95.2318
78.6933
64.6308
52.7582
42.8044
34.5171
27.6643
22.0365
17.4459
13.7268
10.734
8.3418
6.44263
4.94498
3.77187
2.85915
2.15376
1.61227
1.19937
0.886617
0.651311
0.475452
0.344897
0.248618
0.178089
0.126766
0.0896654
0.063024
0.0440195
0.0305521
0.0210714
0.0144413
0.00983495
0.00665574
0.00447587
0.00299098
0.00198612
0.00131055
0.000859318
0.000559895
0.000362502
0.000233218
0.000149094
9.471e-05
5.97811e-05
3.74924e-05
2.33606e-05
1.44561e-05
8.87693e-06
5.39564e-06
3.22296e-06
1.85103e-06
9.48714e-07
2.90995e-07
79.375
229.095
354.879
448.643
509.02
539.253
544.844
531.816
505.71
471.161
431.81
390.386
348.863
308.608
270.529
235.187
202.886
173.745
147.749
124.793
104.708
87.2851
72.2957
59.5007
48.6617
39.5474
31.9392
25.6335
20.4443
16.2039
12.7627
9.98955
7.77004
6.00584
4.61311
3.52112
2.67075
2.01301
1.50772
1.12215
0.829922
0.609928
0.445424
0.323236
0.233087
0.16702
0.118924
0.0841431
0.0591589
0.0413306
0.028693
0.0197938
0.0135686
0.00924261
0.00625612
0.00420792
0.00281244
0.00186788
0.00123273
0.00080842
0.000526812
0.000341132
0.000219501
0.000140343
8.91634e-05
5.62874e-05
3.53058e-05
2.20009e-05
1.36163e-05
8.36228e-06
5.08341e-06
3.03681e-06
1.74429e-06
8.94092e-07
2.74275e-07
59.3184
172.394
270.283
346.913
400.16
431.045
442.524
438.396
422.536
398.459
369.124
336.895
303.586
270.535
238.69
208.689
180.93
155.629
132.863
112.61
94.7777
79.2257
65.7826
54.2605
44.4647
36.2017
29.2849
23.5381
18.7984
14.9176
11.7629
9.21642
7.17547
5.5511
4.26724
3.25954
2.47404
1.86593
1.39838
1.04135
0.770559
0.566572
0.413946
0.300519
0.216791
0.1554
0.110688
0.0783417
0.0550969
0.0385039
0.0267379
0.0184499
0.0126505
0.00861917
0.00583541
0.00392577
0.00262438
0.00174332
0.00115073
0.000754776
0.000491937
0.000318601
0.000205035
0.000131114
8.33121e-05
5.26011e-05
3.29982e-05
2.05658e-05
1.27298e-05
7.8189e-06
4.75372e-06
2.84016e-06
1.63148e-06
8.36363e-07
2.56583e-07
45.0831
131.654
208.216
270.311
315.842
344.814
358.722
359.904
351.003
334.605
313.027
288.229
261.79
234.938
208.587
183.391
159.79
138.055
118.326
100.645
84.976
71.2348
59.2993
49.0259
40.2591
32.8398
26.6111
21.4225
17.1333
13.6141
10.7479
8.43044
6.5702
5.0876
3.91432
2.99235
2.27292
1.71543
1.28641
0.958537
0.709676
0.522077
0.381623
0.277179
0.200039
0.143449
0.102214
0.07237
0.0509142
0.0355921
0.0247232
0.0170645
0.0117037
0.00797612
0.00540135
0.00363459
0.00243025
0.0016147
0.00106604
0.000699362
0.000455904
0.000295316
0.000190082
0.000121572
7.72615e-05
4.87885e-05
3.06111e-05
1.90809e-05
1.18125e-05
7.25649e-06
4.41237e-06
2.63654e-06
1.5147e-06
7.76536e-07
2.38226e-07
34.6852
101.644
161.802
211.896
250.114
276.041
290.358
294.474
290.158
279.274
263.594
244.69
223.891
202.27
180.667
159.705
139.831
121.341
104.412
89.1251
75.4913
63.4671
52.9717
43.8986
36.1265
29.5267
23.9692
19.3274
15.4808
12.3179
9.73687
7.64631
5.96549
4.62392
3.56083
2.72444
2.07105
1.56422
1.17383
0.875204
0.648364
0.477238
0.349029
0.25363
0.183128
0.131379
0.0936516
0.0663327
0.0466836
0.0326458
0.0226839
0.0156617
0.0107447
0.00732456
0.0049614
0.00333937
0.00223338
0.00148423
0.000980116
0.000643123
0.000419325
0.000271673
0.000174896
0.00011188
7.11137e-05
4.49139e-05
2.81847e-05
1.75712e-05
1.08796e-05
6.68443e-06
4.0651e-06
2.42939e-06
1.39586e-06
7.15656e-07
2.19567e-07
26.9226
79.1043
126.548
166.86
198.558
221.092
234.708
240.23
238.831
231.835
220.571
206.276
190.034
172.76
155.191
137.899
121.309
105.719
91.3233
78.2279
66.4733
56.0482
46.9035
38.9636
32.1359
26.318
21.4038
17.2879
13.8687
11.0509
8.74685
6.87719
5.37146
4.16781
3.21268
2.46026
1.87179
1.41482
1.06248
0.792717
0.587628
0.432788
0.316696
0.230254
0.166331
0.119383
0.0851377
0.060327
0.0424733
0.0297123
0.0206527
0.014264
0.00978876
0.00667487
0.00452258
0.00304482
0.0020369
0.00135397
0.000894308
0.000586947
0.000382778
0.000248045
0.000159716
0.000102188
6.49656e-05
4.10382e-05
2.57571e-05
1.60605e-05
9.94583e-06
6.11169e-06
3.71738e-06
2.2219e-06
1.27681e-06
6.54715e-07
2.00899e-07
21.0295
61.915
99.4347
131.82
157.891
177.097
189.458
195.44
195.811
191.505
183.507
172.772
160.171
146.461
132.275
118.117
104.378
91.3416
79.2026
68.0803
58.0337
49.0739
41.1759
34.2885
28.3429
23.259
18.9515
15.3336
12.3205
9.83169
7.79236
6.13441
4.79688
3.726
2.875
2.20372
1.67807
1.26942
0.954011
0.712295
0.528362
0.389381
0.285099
0.207395
0.149895
0.107639
0.0767975
0.0544408
0.0383447
0.0268345
0.0186592
0.0128915
0.00884983
0.00603649
0.00409125
0.0027552
0.00184364
0.00122582
0.000809861
0.000531647
0.000346791
0.000224773
0.000144761
9.26384e-05
5.89056e-05
3.72171e-05
2.3363e-05
1.45703e-05
9.02454e-06
5.54649e-06
3.37417e-06
2.0171e-06
1.15929e-06
5.94525e-07
1.82422e-07
16.4978
48.651
78.3748
104.354
125.663
141.804
152.69
158.57
159.943
157.462
151.851
143.84
134.117
123.3
111.917
100.405
89.1089
78.29
68.1344
58.7641
50.2478
42.6114
35.8473
29.9234
24.7898
20.385
16.6412
13.4878
10.855
8.67515
6.88525
5.42727
4.24899
3.30409
2.55209
1.9581
1.49238
1.1299
0.849825
0.634975
0.471334
0.34758
0.254648
0.18535
0.134035
0.0962984
0.0687393
0.0487505
0.0343515
0.0240497
0.0167292
0.0115623
0.00794008
0.00541771
0.00367302
0.00247427
0.00165612
0.00110144
0.00072787
0.000477939
0.00031183
0.000202159
0.000130225
8.33533e-05
5.30122e-05
3.35001e-05
2.10337e-05
1.312e-05
8.12774e-06
4.99622e-06
3.03993e-06
1.81758e-06
1.04476e-06
5.35849e-07
1.64421e-07
12.9788
38.3232
61.8918
82.7014
100.029
113.451
122.833
128.3
130.17
128.898
125.014
119.07
111.605
103.114
94.0326
84.7298
75.5045
66.5894
58.1559
50.3217
43.1589
36.7021
30.9559
25.9021
21.5058
17.7207
14.4936
11.7679
9.4862
7.59273
6.03464
4.76301
3.73349
2.90653
2.2474
1.72603
1.31672
0.997774
0.751061
0.561608
0.417173
0.307847
0.225681
0.164364
0.118925
0.0854884
0.0610535
0.0433201
0.0305387
0.0213894
0.0148846
0.0102914
0.00706982
0.00482556
0.00327262
0.00220523
0.00147648
0.000982235
0.000649268
0.000426436
0.000278295
0.00018046
0.000116273
7.44392e-05
4.73528e-05
2.99297e-05
1.87957e-05
1.17263e-05
7.26569e-06
4.46712e-06
2.71848e-06
1.62562e-06
9.34541e-07
4.79366e-07
1.47119e-07
10.2261
30.2271
48.9171
65.5568
79.5852
90.6495
98.6078
103.508
105.554
105.06
102.412
98.027
92.3204
85.6862
78.4787
71.0043
63.517
56.2193
49.2645
42.7619
36.7825
31.3647
26.521
22.2434
18.5084
15.2819
12.5225
10.1853
8.22388
6.59239
5.24701
4.14684
3.25452
2.53657
1.96346
1.50948
1.15262
0.874198
0.65859
0.492848
0.366367
0.270543
0.198463
0.14463
0.104708
0.0753097
0.053812
0.0382007
0.0269422
0.0188787
0.0131429
0.00909071
0.00624735
0.00426569
0.0028939
0.00195065
0.00130643
0.000869362
0.000574816
0.000377636
0.00024651
0.000159887
0.000103042
6.59831e-05
4.19826e-05
2.6541e-05
1.66709e-05
1.04027e-05
6.44681e-06
3.96435e-06
2.41293e-06
1.44317e-06
8.29768e-07
4.25636e-07
1.30616e-07
8.06143
23.8494
38.6619
51.9408
63.2515
72.3066
78.9715
83.2529
85.278
85.2648
83.4928
80.2742
75.9295
70.7684
65.0757
59.1024
53.0612
47.1248
41.4275
36.0675
31.1114
26.5988
22.5465
18.9534
15.8047
13.0756
10.7346
8.74631
7.0735
5.67886
4.52634
3.58203
2.81475
2.19638
1.70199
1.30981
1.00112
0.759979
0.573028
0.429163
0.319266
0.235929
0.173187
0.12629
0.0914851
0.0658365
0.0470681
0.0334302
0.0235889
0.0165365
0.0115173
0.00796953
0.00547896
0.00374241
0.00253978
0.00171253
0.0011473
0.000763702
0.000505099
0.000331924
0.000216727
0.000140605
9.06364e-05
5.80525e-05
3.69447e-05
2.3361e-05
1.46765e-05
9.16002e-06
5.67776e-06
3.4921e-06
2.12588e-06
1.27168e-06
7.31285e-07
3.75147e-07
1.15117e-07
6.35289
18.8086
30.534
41.1065
50.19
57.5535
63.0769
66.7457
68.6374
68.9028
67.7441
65.3945
62.0992
58.1001
53.6241
48.8747
44.0273
39.2272
34.5894
30.2005
26.121
22.3889
19.0232
16.0273
13.3927
11.1018
9.13101
7.45257
6.03693
4.854
3.87438
3.07017
2.41554
1.88708
1.46392
1.12777
0.862817
0.655593
0.494748
0.370838
0.276088
0.20417
0.149977
0.109435
0.0793239
0.0571178
0.0408573
0.029034
0.020497
0.0143756
0.0100167
0.0069341
0.00476901
0.0032587
0.0022123
0.00149222
0.00100004
0.000665877
0.000440528
0.000289572
0.000189124
0.000122728
7.91319e-05
5.06956e-05
3.227e-05
2.04094e-05
1.28248e-05
8.00591e-06
4.96338e-06
3.0533e-06
1.8591e-06
1.11224e-06
6.39688e-07
3.28214e-07
1.00718e-07
5.00128
14.8161
24.082
32.4778
39.7442
45.6971
50.2335
53.3292
55.0302
55.44
54.7052
52.9992
50.5089
47.4221
43.9179
40.1599
36.2911
32.432
28.6797
25.1089
21.7732
18.7078
15.932
13.452
11.2637
9.35489
7.70806
6.30186
5.11294
4.11722
3.29093
2.61128
2.05706
1.60891
1.24951
0.963593
0.737936
0.561224
0.423901
0.317997
0.236933
0.175343
0.128891
0.0941115
0.0682589
0.0491794
0.0351985
0.025026
0.0176763
0.0124033
0.0086463
0.005988
0.00411999
0.00281631
0.00191267
0.00129056
0.000865177
0.000576262
0.000381355
0.000250747
0.000163811
0.000106329
6.85752e-05
4.39428e-05
2.79778e-05
1.76986e-05
1.11237e-05
6.94537e-06
4.3067e-06
2.64982e-06
1.61367e-06
9.65579e-07
5.55427e-07
2.85015e-07
8.74779e-08
3.93081
11.6511
18.9573
25.6053
31.3951
36.1812
39.8775
42.4566
43.9445
44.4124
43.9659
42.7341
40.8587
38.4849
35.753
32.7933
29.7214
26.6361
23.6182
20.731
18.0211
15.5201
13.2465
11.2079
9.4032
7.82429
6.45826
5.28884
4.29776
3.46592
2.77419
2.20416
1.7385
1.36134
1.05841
0.817072
0.626343
0.476797
0.360449
0.270622
0.201793
0.149449
0.109934
0.0803236
0.0582955
0.0420261
0.0300958
0.0214095
0.0151297
0.0106215
0.00740763
0.00513239
0.00353276
0.00241585
0.00164131
0.00110786
0.000742945
0.000495006
0.000327681
0.000215518
0.000140834
9.14391e-05
5.89868e-05
3.78075e-05
2.4077e-05
1.52343e-05
9.57682e-06
5.98076e-06
3.70925e-06
2.28263e-06
1.3903e-06
8.32073e-07
4.78684e-07
2.45653e-07
7.54206e-08
3.08287
9.14192
14.888
20.1354
24.7301
28.5579
31.5478
33.6732
34.9476
35.4198
35.1659
34.2816
32.8743
31.0553
28.9342
26.6139
24.187
21.7336
19.3203
16.9999
14.8123
12.785
10.9352
9.27101
7.79303
6.49624
5.37128
4.40582
3.58571
2.89589
2.32111
1.84657
1.45825
1.14322
0.889798
0.687621
0.527628
0.402025
0.304191
0.228574
0.170575
0.126423
0.0930628
0.0680423
0.0494138
0.0356447
0.0255407
0.0181791
0.0128535
0.00902793
0.0062992
0.00436635
0.00300674
0.00205695
0.00139801
0.000943976
0.000633258
0.000422061
0.000279479
0.000183869
0.000120186
7.80531e-05
5.03641e-05
3.22884e-05
2.05669e-05
1.30161e-05
8.18411e-06
5.11197e-06
3.17105e-06
1.95177e-06
1.18901e-06
7.11709e-07
4.09463e-07
2.10163e-07
6.45026e-08
2.41162
7.15423
11.6601
15.7878
19.4191
22.4645
24.8668
26.6015
27.6748
28.1199
27.9915
27.3607
26.3082
24.9193
23.2791
21.4683
19.5604
17.6198
15.7008
13.8471
12.0919
10.4591
8.964
7.61448
6.41238
5.3547
4.4348
3.64342
2.96968
2.40178
1.92768
1.53553
1.21409
0.952899
0.742476
0.574366
0.441157
0.336451
0.254799
0.19162
0.143111
0.106148
0.0781935
0.0572095
0.0415735
0.0300075
0.021514
0.0153214
0.0108386
0.00761656
0.00531693
0.00368714
0.00254011
0.00173842
0.00118198
0.000798393
0.00053578
0.000357209
0.000236609
0.00015571
0.000101808
6.61354e-05
4.26848e-05
2.73717e-05
1.7439e-05
1.10389e-05
6.94225e-06
4.33709e-06
2.69086e-06
1.65652e-06
1.0093e-06
6.04219e-07
3.47691e-07
1.7847e-07
5.47755e-08
1.88096
5.58192
9.1037
12.3388
15.1965
17.6072
19.5251
20.9287
21.8199
22.2213
22.1722
21.725
20.9406
19.884
18.6207
17.2138
15.7212
14.1944
12.6769
11.2045
9.80482
8.49799
7.29733
6.21022
5.23909
4.38234
3.63534
2.99121
2.44164
1.97747
1.58922
1.26752
1.00338
0.788411
0.614974
0.476219
0.366128
0.279488
0.211846
0.15945
0.11918
0.088464
0.0652135
0.0477453
0.0347185
0.025075
0.0179881
0.0128175
0.00907213
0.0063784
0.00445473
0.00309062
0.00213007
0.0014584
0.000991965
0.000670291
0.00044997
0.000300098
0.000198841
0.000130894
8.56064e-05
5.56252e-05
3.59102e-05
2.30329e-05
1.46779e-05
9.29304e-06
5.84544e-06
3.65256e-06
2.26655e-06
1.39552e-06
8.50399e-07
5.09169e-07
2.93058e-07
1.50455e-07
4.62053e-08
1.46226
4.34071
7.08362
9.60933
11.8484
13.747
15.2687
16.3954
17.1266
17.4773
17.476
17.1612
16.5787
15.7778
14.8087
13.7205
12.5585
11.3633
10.1699
9.00713
7.89761
6.85811
5.90002
5.02999
4.25064
3.56133
2.95888
2.43823
1.99309
1.61638
1.3007
1.03868
0.823194
0.647553
0.505639
0.391949
0.30163
0.230463
0.174838
0.131705
0.0985196
0.0731836
0.0539878
0.0395534
0.0287803
0.020799
0.0149294
0.010644
0.00753771
0.00530226
0.00370491
0.00257158
0.00177312
0.0012145
0.000826391
0.000558615
0.000375131
0.000250268
0.000165876
0.000109225
7.14547e-05
4.64418e-05
2.9989e-05
1.92394e-05
1.22631e-05
7.76575e-06
4.88572e-06
3.05344e-06
1.89509e-06
1.16699e-06
7.11257e-07
4.25939e-07
2.45169e-07
1.25882e-07
3.8646e-08
1.13271
3.36335
5.49157
7.45545
9.202
10.6897
11.8898
12.7875
13.3809
13.6801
13.7056
13.4858
13.0547
12.4498
11.7095
10.8715
9.97117
9.04047
8.10705
7.19399
6.31966
5.49784
4.7381
4.04625
3.4249
2.874
2.39141
1.97346
1.61539
1.31179
1.05693
0.845036
0.67049
0.52801
0.412725
0.320246
0.246684
0.188652
0.143243
0.107993
0.0808456
0.0600997
0.0443674
0.0325272
0.0236831
0.017126
0.0123001
0.0087743
0.00621698
0.00437543
0.00305877
0.00212406
0.00146518
0.00100399
0.000683418
0.00046214
0.000310453
0.000207186
0.000137364
9.04773e-05
5.92059e-05
3.84906e-05
2.48606e-05
1.59529e-05
1.01704e-05
6.44184e-06
4.05353e-06
2.53379e-06
1.57284e-06
9.68695e-07
5.90463e-07
3.53647e-07
2.03564e-07
1.04506e-07
3.2091e-08
0.874088
2.59604
4.24072
5.76128
7.11738
8.27711
9.21817
9.92832
10.4052
10.6557
10.6943
10.542
10.2242
9.76903
9.20578
8.56339
7.86922
7.14817
6.42203
5.70911
5.02413
4.37832
3.77959
3.23293
2.74075
2.30335
1.91936
1.58611
1.30006
1.05708
0.852749
0.682587
0.542204
0.427443
0.334459
0.259771
0.200288
0.153308
0.116505
0.0879072
0.0658601
0.0489961
0.036196
0.0265545
0.0193468
0.0139988
0.01006
0.00718036
0.0050903
0.0035843
0.00250691
0.00174163
0.0012019
0.000823919
0.000561062
0.00037954
0.000255053
0.000170269
0.000112923
7.44003e-05
4.86988e-05
3.16678e-05
2.04587e-05
1.31311e-05
8.37317e-06
5.30447e-06
3.33842e-06
2.08711e-06
1.29575e-06
7.98149e-07
4.86565e-07
2.9141e-07
1.6777e-07
8.61509e-08
2.648e-08
0.671791
1.99564
3.26132
4.43345
5.48144
6.38089
7.11451
7.67246
8.05237
8.2587
8.30193
8.19736
7.9639
7.6227
7.19595
6.70574
6.17311
5.61736
5.0555
4.50196
3.96845
3.46399
2.99504
2.5658
2.17843
1.83342
1.52989
1.26596
1.03899
0.84585
0.683163
0.547466
0.435349
0.343565
0.269098
0.209207
0.161451
0.123689
0.0940762
0.0710409
0.0532649
0.0396551
0.0293159
0.0215215
0.01569
0.0113598
0.0081683
0.00583337
0.00413758
0.00291491
0.00203971
0.0014177
0.000978776
0.000671237
0.000457268
0.000309439
0.000208016
0.000138913
9.21557e-05
6.07349e-05
3.97646e-05
2.58645e-05
1.67134e-05
1.07296e-05
6.84315e-06
4.33596e-06
2.72934e-06
1.70659e-06
1.05966e-06
6.52813e-07
3.98006e-07
2.38377e-07
1.37249e-07
7.04835e-08
2.16395e-08
0.514127
1.52757
2.49733
3.39677
4.20277
4.89674
5.46537
5.90086
6.20097
6.36863
6.41132
6.34025
6.16941
5.91464
5.59268
5.2203
4.81361
4.38746
3.95506
3.52768
3.11454
2.72282
2.35777
2.02283
1.71988
1.44949
1.21114
1.0035
0.824606
0.672124
0.543479
0.436011
0.347089
0.274194
0.214974
0.167286
0.129216
0.0990799
0.0754212
0.056999
0.0427691
0.0318643
0.0235728
0.0173168
0.0126327
0.0091518
0.00658444
0.00470486
0.00333889
0.00235341
0.00164758
0.00114567
0.000791308
0.000542894
0.000369978
0.00025046
0.000168426
0.000112511
7.46625e-05
4.92198e-05
3.22338e-05
2.09712e-05
1.35544e-05
8.7034e-06
5.55194e-06
3.51842e-06
2.21507e-06
1.38524e-06
8.60228e-07
5.30011e-07
3.23152e-07
1.93585e-07
1.11463e-07
5.72199e-08
1.75498e-08
0.391732
1.16411
1.90378
2.59074
3.20758
3.74023
4.17845
4.51617
4.75138
4.88599
4.92531
4.87754
4.75301
4.56353
4.32167
4.04011
3.73111
3.40603
3.07505
2.74691
2.42882
2.12645
1.84399
1.58425
1.34882
1.13827
0.952318
0.790026
0.64997
0.530395
0.429356
0.344827
0.274786
0.217293
0.170526
0.132821
0.102685
0.0788033
0.0600353
0.0454066
0.0340963
0.0254211
0.0188191
0.0138338
0.0100981
0.00732006
0.00526958
0.0037674
0.002675
0.00188641
0.00132127
0.000919174
0.000635138
0.000435925
0.000297193
0.000201259
0.000135386
9.0468e-05
6.00526e-05
3.95994e-05
2.594e-05
1.68805e-05
1.09128e-05
7.00855e-06
4.4716e-06
2.83425e-06
1.7846e-06
1.11615e-06
6.93188e-07
4.27144e-07
2.60475e-07
1.56072e-07
8.98521e-08
4.61373e-08
1.41637e-08
0.297113
0.883065
1.4446
1.96676
2.43649
2.84315
3.17897
3.4392
3.62216
3.72906
3.76367
3.73197
3.64156
3.50121
3.32032
3.10843
2.87481
2.62812
2.37613
2.12559
1.88209
1.65007
1.43283
1.23264
1.05082
0.887912
0.743773
0.617758
0.508829
0.415685
0.336862
0.270825
0.216033
0.170998
0.134321
0.104715
0.0810267
0.0622339
0.04745
0.0359156
0.0269893
0.0201365
0.0149171
0.0109726
0.00801455
0.00581313
0.00418715
0.00299515
0.00212778
0.00150125
0.00105198
0.000732166
0.000506131
0.00034752
0.000237012
0.000160561
0.000108044
7.22201e-05
4.79535e-05
3.16296e-05
2.07245e-05
1.34895e-05
8.72243e-06
5.60287e-06
3.57536e-06
2.26652e-06
1.42732e-06
8.92786e-07
5.54527e-07
3.41728e-07
2.08412e-07
1.24861e-07
7.18599e-08
3.69074e-08
1.13494e-08
0.224288
0.666712
1.09097
1.48592
1.8418
2.15062
2.4065
2.60578
2.74707
2.83112
2.86061
2.83987
2.7745
2.67097
2.53628
2.37758
2.20184
2.01561
1.8248
1.63458
1.44925
1.27225
1.10617
0.952826
0.813288
0.688032
0.577019
0.479806
0.395642
0.323566
0.262485
0.211242
0.16867
0.133635
0.105067
0.0819811
0.0634891
0.0488036
0.0372393
0.0282082
0.0212128
0.0158378
0.0117404
0.00864143
0.0063157
0.0045836
0.00330338
0.00236424
0.00168043
0.0011862
0.000831604
0.000579039
0.000400444
0.000275061
0.000187663
0.000127175
8.56058e-05
5.72391e-05
3.8017e-05
2.50821e-05
1.64384e-05
1.07021e-05
6.9214e-06
4.44675e-06
2.83805e-06
1.79937e-06
1.13327e-06
7.08961e-07
4.40399e-07
2.71388e-07
1.65511e-07
9.91522e-08
5.7075e-08
2.93031e-08
8.99827e-09
0.168496
0.500929
0.8199
1.11714
1.38537
1.61863
1.8125
1.96416
2.0725
2.13797
2.16247
2.14914
2.10207
2.02602
1.92619
1.8079
1.67636
1.53651
1.39281
1.24919
1.10894
0.974713
0.848514
0.731762
0.625335
0.529636
0.444681
0.37017
0.305564
0.250158
0.203139
0.163642
0.130786
0.103715
0.0816156
0.0637372
0.0494011
0.0380045
0.0290214
0.0219995
0.0165556
0.012369
0.00917507
0.00675749
0.00494178
0.00358856
0.00258769
0.001853
0.00131772
0.00093061
0.000652716
0.000454677
0.000314569
0.000216158
0.00014753
0.000100011
6.73426e-05
4.50411e-05
2.99236e-05
1.97474e-05
1.29451e-05
8.42957e-06
5.45275e-06
3.50378e-06
2.23655e-06
1.41821e-06
8.93301e-07
5.58894e-07
3.47197e-07
2.13983e-07
1.30496e-07
7.81899e-08
4.50287e-08
2.31279e-08
7.06975e-09
0.125957
0.374506
0.613117
0.835673
1.03679
1.21203
1.35807
1.47279
1.55529
1.60584
1.6258
1.61741
1.58365
1.52804
1.45439
1.36664
1.26869
1.16422
1.05659
0.948768
0.843241
0.74204
0.646713
0.558366
0.477692
0.405034
0.340432
0.283687
0.234416
0.192103
0.156148
0.125906
0.10072
0.0799427
0.0629627
0.0492113
0.0381731
0.0293896
0.0224596
0.0170376
0.0128305
0.00959235
0.00711997
0.00524714
0.00383953
0.00278973
0.00201275
0.00144204
0.00102599
0.000724924
0.000508679
0.000354493
0.000245355
0.000168661
0.000115154
7.80899e-05
5.25982e-05
3.51897e-05
2.33849e-05
1.54362e-05
1.01212e-05
6.59201e-06
4.26487e-06
2.74093e-06
1.74985e-06
1.10972e-06
6.99064e-07
4.37391e-07
2.71724e-07
1.67485e-07
1.02166e-07
6.12262e-08
3.52456e-08
1.81096e-08
5.55065e-09
0.0936826
0.278575
0.45616
0.621936
0.771929
0.902856
1.01224
1.09849
1.16089
1.19961
1.21559
1.21045
1.18634
1.14585
1.09176
1.027
0.954436
0.876814
0.796643
0.716143
0.6372
0.561347
0.489771
0.423322
0.362547
0.307726
0.258911
0.215972
0.178638
0.146534
0.11922
0.0962177
0.0770382
0.0611991
0.0482405
0.037735
0.0292939
0.0225705
0.017261
0.0131033
0.00987437
0.00738714
0.0054866
0.00404586
0.00296223
0.0021535
0.00155455
0.00111434
0.000793215
0.000560717
0.000393629
0.000274431
0.000190017
0.00013067
8.92464e-05
6.05409e-05
4.07903e-05
2.72976e-05
1.8145e-05
1.19801e-05
7.85681e-06
5.11819e-06
3.31192e-06
2.12881e-06
1.3592e-06
8.62068e-07
5.43119e-07
3.39822e-07
2.11122e-07
1.30119e-07
7.93742e-08
4.75718e-08
2.73845e-08
1.40484e-08
4.32791e-09
0.0693204
0.206152
0.337633
0.460466
0.571732
0.669013
0.750476
0.814926
0.861818
0.891235
0.90384
0.900793
0.883661
0.854306
0.814779
0.767216
0.713739
0.656373
0.596983
0.537223
0.478505
0.421986
0.368562
0.318886
0.273383
0.232277
0.195623
0.163338
0.13523
0.11103
0.0904154
0.0730351
0.0585268
0.0465324
0.0367091
0.0287373
0.0223259
0.0172144
0.0131743
0.0100078
0.00754671
0.0056494
0.00419853
0.00309787
0.00226944
0.00165076
0.00119226
0.000855066
0.000608951
0.000430659
0.000302458
0.000210955
0.000146123
0.000100521
6.86788e-05
4.66036e-05
3.14092e-05
2.10253e-05
1.39793e-05
9.23183e-06
6.05565e-06
3.94557e-06
2.55353e-06
1.64156e-06
1.04822e-06
6.64873e-07
4.18906e-07
2.62136e-07
1.62879e-07
1.00382e-07
6.12032e-08
3.66703e-08
2.11171e-08
1.08247e-08
3.34115e-09
0.0510261
0.15176
0.248595
0.339124
0.421215
0.493095
0.553415
0.601285
0.63629
0.658469
0.668286
0.666568
0.654444
0.633262
0.604514
0.56976
0.530555
0.488387
0.444635
0.400522
0.3571
0.315233
0.275596
0.238684
0.204823
0.174192
0.146843
0.122722
0.101695
0.0835706
0.0681134
0.0550668
0.0441644
0.0351417
0.0277447
0.0217362
0.0168992
0.0130395
0.00998613
0.00759105
0.00572796
0.00429059
0.00319061
0.00235555
0.00172659
0.00125657
0.000908026
0.000651538
0.000464223
0.000328452
0.000230775
0.000161023
0.000111578
7.67849e-05
5.2479e-05
3.56219e-05
2.40148e-05
1.60798e-05
1.06937e-05
7.06359e-06
4.63428e-06
3.01997e-06
1.95477e-06
1.25679e-06
8.02626e-07
5.09121e-07
3.20777e-07
2.00753e-07
1.24756e-07
7.69024e-08
4.68924e-08
2.80771e-08
1.61756e-08
8.31226e-09
2.54977e-09
0.0373611
0.111127
0.182065
0.248426
0.30866
0.361475
0.405882
0.441224
0.467187
0.483785
0.491341
0.490443
0.481902
0.466688
0.445883
0.420618
0.392027
0.3612
0.329147
0.296769
0.264843
0.234012
0.204779
0.177517
0.152474
0.12979
0.10951
0.0916027
0.0759742
0.0624869
0.0509719
0.0412423
0.0331033
0.0263608
0.0208279
0.0163294
0.0127047
0.0098098
0.00751776
0.00571842
0.00431767
0.00323617
0.00240793
0.00177872
0.0013045
0.000949877
0.000686748
0.000493001
0.000351427
0.000248754
0.00017485
0.00012205
8.46038e-05
5.82422e-05
3.98189e-05
2.70366e-05
1.82321e-05
1.22109e-05
8.1226e-06
5.36641e-06
3.52144e-06
2.29514e-06
1.4858e-06
9.55364e-07
6.1016e-07
3.87053e-07
2.43883e-07
1.52626e-07
9.48342e-08
5.84558e-08
3.56616e-08
2.13465e-08
1.23054e-08
6.33764e-09
1.94608e-09
0.0272091
0.0809369
0.132623
0.181003
0.224956
0.263543
0.296046
0.321982
0.341115
0.353447
0.3592
0.358794
0.352803
0.341928
0.326945
0.308674
0.287935
0.265521
0.24217
0.21854
0.195203
0.172632
0.151201
0.131187
0.112779
0.0960842
0.0811406
0.0679296
0.056387
0.0464148
0.037892
0.0306832
0.0246469
0.0196416
0.0155304
0.0121847
0.0094866
0.00732993
0.00562099
0.00427835
0.00323233
0.00242413
0.00180475
0.0013339
0.000978789
0.000713076
0.000515797
0.000370454
0.00026419
0.000187084
0.000131556
9.18642e-05
6.37026e-05
4.38685e-05
3.00014e-05
2.03766e-05
1.37446e-05
9.20773e-06
6.12626e-06
4.04826e-06
2.65694e-06
1.73196e-06
1.12134e-06
7.21086e-07
4.60547e-07
2.92168e-07
1.84086e-07
1.15199e-07
7.1557e-08
4.40792e-08
2.68861e-08
1.61284e-08
9.29792e-09
4.77354e-09
1.4741e-09
0.0197082
0.0586286
0.0960818
0.131159
0.163053
0.191086
0.214738
0.233657
0.247668
0.256764
0.261102
0.260975
0.256793
0.249056
0.238321
0.225176
0.210213
0.194007
0.17709
0.159943
0.142983
0.126557
0.110939
0.0963353
0.0828867
0.0706753
0.0597324
0.0500474
0.0415765
0.0342505
0.0279829
0.0226764
0.0182288
0.0145374
0.0115027
0.0090309
0.00703588
0.00543991
0.00417426
0.00317915
0.00240331
0.00180344
0.0013434
0.000993448
0.000729353
0.00053162
0.000384727
0.000276444
0.000197233
0.000139728
9.82941e-05
6.86636e-05
4.76311e-05
3.28117e-05
2.24467e-05
1.52499e-05
1.02891e-05
6.89446e-06
4.58812e-06
3.03244e-06
1.99057e-06
1.29775e-06
8.40288e-07
5.40421e-07
3.45194e-07
2.19022e-07
1.38002e-07
8.63254e-08
5.36131e-08
3.30427e-08
2.01391e-08
1.20771e-08
6.96768e-09
3.57823e-09
1.09103e-09
0.0141969
0.0422363
0.0692266
0.0945179
0.117531
0.137781
0.154892
0.16861
0.178804
0.185468
0.188707
0.188729
0.185824
0.180346
0.172693
0.163286
0.15255
0.140896
0.12871
0.116339
0.104085
0.0922004
0.0808868
0.0702951
0.0605298
0.0516529
0.0436894
0.036634
0.0304566
0.0251089
0.0205293
0.0166484
0.0133926
0.010688
0.00846261
0.00664855
0.00518318
0.00401
0.00307893
0.00234634
0.00177477
0.00133253
0.000993158
0.000734828
0.000539757
0.000393617
0.000284989
0.000204869
0.000146229
0.000103637
7.29335e-05
5.09665e-05
3.5367e-05
2.43712e-05
1.66774e-05
1.13335e-05