/*--------------------------------*- C++ -*----------------------------------*\
  =========                 |
  \\      /  F ield         | OpenFOAM: The Open Source CFD Toolbox
   \\    /   O peration     | Website:  https://openfoam.org
    \\  /    A nd           | Version:  10
     \\/     M anipulation  |
\*---------------------------------------------------------------------------*/
FoamFile
{
    format      ascii;
    class       volScalarField;
    location    "262";
    object      gradTz;
}
// * * * * * * * * * * * * * * * * * * * * * * * * * * * * * * * * * * * * * //

dimensions      [0 -1 0 1 0 0 0];

internalField   nonuniform List<scalar> 
11250
(
-14354.3
-4149.69
-1529.23
-725.418
-420.383
-278.367
-200.532
-152.509
-120.247
-97.1591
-79.8189
-66.2997
-55.4516
-46.5554
-39.1427
-32.8974
-27.5981
-23.084
-19.2338
-15.9525
-13.1626
-10.7995
-8.80739
-7.13724
-5.74568
-4.59395
-3.64744
-2.8753
-2.25018
-1.74802
-1.34783
-1.03146
-0.783379
-0.59044
-0.441618
-0.327771
-0.241401
-0.176418
-0.127931
-0.0920519
-0.0657223
-0.0465601
-0.0327291
-0.0228284
-0.0157993
-0.0108497
-0.00739307
-0.00499866
-0.00335356
-0.00223246
-0.00147464
-0.000966524
-0.000628579
-0.000405627
-0.000259721
-0.000165005
-0.000104013
-6.50539e-05
-4.03684e-05
-2.48531e-05
-1.51801e-05
-9.19843e-06
-5.52941e-06
-3.29722e-06
-1.9503e-06
-1.14425e-06
-6.65897e-07
-3.84363e-07
-2.20048e-07
-1.25001e-07
-7.0545e-08
-3.97634e-08
-2.26998e-08
-1.37586e-08
-9.95868e-09
-8266.97
-4864.4
-2770.57
-1677.04
-1097.74
-770.585
-571.506
-441.557
-351.421
-285.648
-235.616
-196.265
-164.49
-138.313
-116.427
-97.9396
-82.2219
-68.8127
-57.362
-47.5939
-39.2829
-32.239
-26.2978
-21.315
-17.162
-13.7238
-10.8975
-8.59151
-6.72426
-5.22408
-4.02837
-3.08301
-2.34164
-1.76501
-1.3202
-0.979901
-0.721717
-0.527456
-0.382501
-0.275235
-0.196515
-0.139222
-0.0978677
-0.0682637
-0.0472454
-0.0324452
-0.0221087
-0.0149486
-0.0100291
-0.00667643
-0.00441014
-0.00289058
-0.00187991
-0.00121314
-0.000776775
-0.000493503
-0.00031109
-0.00019457
-0.000120739
-7.43349e-05
-4.5404e-05
-2.75129e-05
-1.65388e-05
-9.86236e-06
-5.83371e-06
-3.42276e-06
-1.99184e-06
-1.14969e-06
-6.58241e-07
-3.73948e-07
-2.1104e-07
-1.18879e-07
-6.78843e-08
-4.12133e-08
-2.98047e-08
-5580.66
-4268.9
-3010.18
-2113.11
-1521.77
-1133.72
-872.523
-690.157
-557.796
-458.15
-380.671
-318.762
-268.192
-226.17
-190.808
-160.79
-135.173
-113.254
-94.4935
-78.4606
-64.7995
-53.2075
-43.4212
-35.207
-28.3563
-22.6817
-18.015
-14.2058
-11.1204
-8.64087
-6.66408
-5.10084
-3.8747
-2.92085
-2.18495
-1.62189
-1.19465
-0.873152
-0.633234
-0.455681
-0.325369
-0.230521
-0.162055
-0.11304
-0.078238
-0.053731
-0.0366145
-0.0247573
-0.0166102
-0.0110579
-0.00730454
-0.0047878
-0.00311386
-0.00200947
-0.0012867
-0.000817489
-0.000515333
-0.00032232
-0.000200018
-0.000123146
-7.52198e-05
-4.55812e-05
-2.74008e-05
-1.63399e-05
-9.66547e-06
-5.67107e-06
-3.30032e-06
-1.90498e-06
-1.09069e-06
-6.19638e-07
-3.49721e-07
-1.96995e-07
-1.125e-07
-6.82927e-08
-4.94268e-08
-4203.57
-3617.86
-2885.8
-2241.28
-1740.57
-1368.33
-1093.34
-887.703
-730.729
-608.082
-510.056
-430.103
-363.776
-308.013
-260.666
-220.199
-185.48
-155.65
-130.034
-108.086
-89.3462
-73.4179
-59.9522
-48.637
-39.1912
-31.361
-24.9173
-19.6547
-15.39
-11.9613
-9.22682
-7.06375
-5.36667
-4.04616
-3.02716
-2.24734
-1.65553
-1.21013
-0.877702
-0.631657
-0.451057
-0.319593
-0.224687
-0.156738
-0.108489
-0.0745104
-0.0507769
-0.034335
-0.0230372
-0.0153371
-0.0101317
-0.00664111
-0.00431937
-0.00278752
-0.00178496
-0.00113409
-0.000714934
-0.000447176
-0.000277507
-0.00017086
-0.000104367
-6.32458e-05
-3.8021e-05
-2.26738e-05
-1.34126e-05
-7.8699e-06
-4.58012e-06
-2.64381e-06
-1.51375e-06
-8.59995e-07
-4.85403e-07
-2.73456e-07
-1.56188e-07
-9.48144e-08
-6.8611e-08
-3408.66
-3109.71
-2670.59
-2222.61
-1828.22
-1503.38
-1242.9
-1035.13
-868.331
-732.832
-621.229
-528.07
-449.397
-382.336
-324.787
-275.19
-232.361
-195.374
-163.485
-136.074
-112.607
-92.6196
-75.6929
-61.4492
-49.5445
-39.6661
-31.5301
-24.8806
-19.4888
-15.1516
-11.691
-8.95242
-6.80307
-5.13013
-3.83882
-2.85038
-2.10007
-1.53528
-1.11367
-0.801564
-0.572445
-0.405639
-0.285206
-0.198971
-0.137732
-0.0946013
-0.0644726
-0.0435986
-0.0292543
-0.0194773
-0.0128673
-0.00843468
-0.00548616
-0.00354066
-0.00226732
-0.00144062
-0.000908213
-0.000568091
-0.000352558
-0.000217078
-0.000132604
-8.03603e-05
-4.83117e-05
-2.88118e-05
-1.70443e-05
-1.00013e-05
-5.82085e-06
-3.36014e-06
-1.92399e-06
-1.09313e-06
-6.17029e-07
-3.47619e-07
-1.98549e-07
-1.20554e-07
-8.72386e-08
-2908.2
-2737.33
-2460.1
-2146.5
-1842.87
-1571.13
-1337.35
-1139.71
-973.357
-832.971
-713.781
-611.872
-524.167
-448.288
-382.406
-325.104
-275.26
-231.966
-194.466
-162.111
-134.33
-110.609
-90.4802
-73.5135
-59.3132
-47.5161
-37.7901
-29.8345
-23.3787
-18.1825
-14.0343
-10.7499
-8.17119
-6.16328
-4.6129
-3.42581
-2.52448
-1.84584
-1.33914
-0.963983
-0.688524
-0.48795
-0.343116
-0.239395
-0.16573
-0.113841
-0.077591
-0.0524736
-0.0352118
-0.0234453
-0.0154897
-0.0101543
-0.00660499
-0.00426297
-0.00273001
-0.00173469
-0.00109366
-0.000684121
-0.000424587
-0.00026144
-0.000159711
-9.67924e-05
-5.81935e-05
-3.47069e-05
-2.05327e-05
-1.20489e-05
-7.01297e-06
-4.04857e-06
-2.31832e-06
-1.31726e-06
-7.43603e-07
-4.18983e-07
-2.39312e-07
-1.45293e-07
-1.05165e-07
-2573.19
-2466.03
-2280.95
-2055.81
-1821.5
-1597.34
-1392.77
-1210.77
-1050.87
-911.053
-788.839
-681.858
-588.029
-505.617
-433.197
-369.598
-313.851
-265.13
-222.72
-185.981
-154.332
-127.235
-104.19
-84.7295
-68.4167
-54.8466
-43.6465
-34.4763
-27.0288
-21.0301
-16.2383
-12.4423
-9.46044
-7.13766
-5.34349
-3.96927
-2.92555
-2.13949
-1.55245
-1.11771
-0.798436
-0.565919
-0.39799
-0.277713
-0.192277
-0.132089
-0.090037
-0.0608959
-0.0408668
-0.0272127
-0.01798
-0.0117876
-0.00766791
-0.0049493
-0.00316973
-0.00201422
-0.00126996
-0.000794448
-0.000493087
-0.000303636
-0.000185498
-0.000112427
-6.75973e-05
-4.03178e-05
-2.38536e-05
-1.39986e-05
-8.14832e-06
-4.7043e-06
-2.69399e-06
-1.53081e-06
-8.64248e-07
-4.87035e-07
-2.78199e-07
-1.68916e-07
-1.22281e-07
-2339.03
-2266.49
-2136.02
-1968.9
-1785.19
-1599.85
-1422.21
-1257.14
-1106.53
-970.525
-848.419
-739.138
-641.543
-554.555
-477.199
-408.611
-348.022
-294.736
-248.115
-207.558
-172.5
-142.4
-116.74
-95.0281
-76.7978
-61.6113
-49.0619
-38.7764
-30.4157
-23.6761
-18.2889
-14.0187
-10.6626
-8.04705
-6.02593
-4.47731
-3.30075
-2.41438
-1.75224
-1.26177
-0.90149
-0.639057
-0.449487
-0.313686
-0.217209
-0.149234
-0.101734
-0.0688134
-0.0461843
-0.0307561
-0.0203228
-0.0133246
-0.00866836
-0.00559544
-0.00358378
-0.00227747
-0.00143603
-0.000898396
-0.000557639
-0.000343407
-0.000209809
-0.000127169
-7.64659e-05
-4.56104e-05
-2.69868e-05
-1.58384e-05
-9.21993e-06
-5.3234e-06
-3.04876e-06
-1.73253e-06
-9.7823e-07
-5.51338e-07
-3.14989e-07
-1.9128e-07
-1.38448e-07
-2170.28
-2117.91
-2021.14
-1892.49
-1745.07
-1589.96
-1435.24
-1286.1
-1145.53
-1014.97
-894.893
-785.24
-685.66
-595.67
-514.735
-442.308
-377.842
-320.795
-270.628
-226.804
-188.79
-156.058
-128.086
-104.37
-84.423
-67.7817
-54.0129
-42.7155
-33.5237
-26.1082
-20.1764
-15.4716
-11.7718
-8.88704
-6.65689
-4.94743
-3.64821
-2.66913
-1.93752
-1.39545
-0.997172
-0.706998
-0.497348
-0.347135
-0.240401
-0.165187
-0.112622
-0.0761862
-0.0511376
-0.0340579
-0.0225065
-0.0147575
-0.00960132
-0.00619813
-0.00397008
-0.00252315
-0.00159105
-0.000995442
-0.000617917
-0.000380553
-0.000232519
-0.000140944
-8.47546e-05
-5.0558e-05
-2.99164e-05
-1.75591e-05
-1.02224e-05
-5.9027e-06
-3.38082e-06
-1.92142e-06
-1.08497e-06
-6.11531e-07
-3.49431e-07
-2.12252e-07
-1.53643e-07
-2045.96
-2006.02
-1930.81
-1828.07
-1706.6
-1574.51
-1438.43
-1303.25
-1172.28
-1047.67
-930.633
-821.833
-721.53
-629.74
-546.32
-471.022
-403.52
-343.432
-290.331
-243.755
-203.217
-168.21
-138.223
-112.747
-91.281
-73.3466
-58.4888
-46.2844
-36.3451
-28.3198
-21.8954
-16.7967
-12.7847
-9.65499
-7.23434
-5.37809
-3.96679
-2.90289
-2.10766
-1.51829
-1.08515
-0.769504
-0.541403
-0.37794
-0.261769
-0.179893
-0.122662
-0.0829875
-0.0557086
-0.0371058
-0.0245229
-0.0160811
-0.0104633
-0.00675513
-0.00432719
-0.00275031
-0.00173442
-0.00108522
-0.000673693
-0.000414933
-0.000253544
-0.000153699
-9.24314e-05
-5.51416e-05
-3.26311e-05
-1.9154e-05
-1.11518e-05
-6.43993e-06
-3.68888e-06
-2.09667e-06
-1.18404e-06
-6.67467e-07
-3.81441e-07
-2.31708e-07
-1.67789e-07
-1952.92
-1920.97
-1859.99
-1775.02
-1672.14
-1557.38
-1436.09
-1312.6
-1190.23
-1071.41
-957.801
-850.544
-750.351
-657.633
-572.574
-495.19
-425.361
-362.858
-307.368
-258.507
-215.842
-178.896
-147.175
-120.171
-97.3802
-78.31
-62.4913
-49.4832
-38.8791
-30.3098
-23.4448
-17.9927
-13.7003
-10.35
-7.75751
-5.76868
-4.256
-3.11528
-2.26237
-1.63007
-1.16526
-0.826458
-0.581569
-0.406039
-0.281271
-0.19332
-0.131834
-0.089203
-0.0598875
-0.0398932
-0.0263677
-0.0172924
-0.0112524
-0.00726519
-0.00465429
-0.00295844
-0.00186581
-0.00116752
-0.000724836
-0.000446465
-0.000272831
-0.000165403
-9.94776e-05
-5.93497e-05
-3.51242e-05
-2.06191e-05
-1.20058e-05
-6.9337e-06
-3.97208e-06
-2.25787e-06
-1.27523e-06
-7.18961e-07
-4.10873e-07
-2.49622e-07
-1.80814e-07
-1882.5
-1855.86
-1804.52
-1731.94
-1642.46
-1540.68
-1430.93
-1316.98
-1201.99
-1088.44
-978.255
-872.856
-773.278
-680.23
-594.162
-515.308
-443.73
-379.34
-321.932
-271.201
-226.767
-188.19
-154.994
-126.681
-102.746
-82.6896
-66.0324
-52.32
-41.1313
-32.0818
-24.8269
-19.0614
-14.5195
-10.9726
-8.2268
-6.11942
-4.51596
-3.30637
-2.40169
-1.73081
-1.23751
-0.877858
-0.61784
-0.43143
-0.298903
-0.205466
-0.140134
-0.0948302
-0.0636724
-0.0424189
-0.0280398
-0.0183907
-0.0119682
-0.00772796
-0.00495116
-0.00314739
-0.00198513
-0.00124227
-0.000771305
-0.000475122
-0.000290365
-0.000176046
-0.000105887
-6.31783e-05
-3.7393e-05
-2.19528e-05
-1.27835e-05
-7.38348e-06
-4.23014e-06
-2.4048e-06
-1.35836e-06
-7.65896e-07
-4.37784e-07
-2.6601e-07
-1.9266e-07
-1828.78
-1805.76
-1761.09
-1697.26
-1617.52
-1525.45
-1424.62
-1318.33
-1209.48
-1100.54
-993.53
-890.054
-791.357
-698.368
-611.739
-531.885
-459.019
-393.177
-334.25
-282.007
-236.119
-196.185
-161.751
-132.328
-107.416
-86.5135
-69.1328
-54.8099
-43.1124
-33.6438
-26.0473
-20.0066
-15.2452
-11.525
-8.64362
-6.43131
-4.74737
-3.47664
-2.52594
-1.82072
-1.30205
-0.923805
-0.650285
-0.454156
-0.314693
-0.216349
-0.147575
-0.0998776
-0.0670687
-0.0446863
-0.0295415
-0.0193774
-0.0126114
-0.00814401
-0.00521814
-0.00331736
-0.0020925
-0.00130956
-0.000813143
-0.000500931
-0.00030616
-0.000185637
-0.000111663
-6.66302e-05
-3.94392e-05
-2.3156e-05
-1.34853e-05
-7.7895e-06
-4.46317e-06
-2.53755e-06
-1.4335e-06
-8.08338e-07
-4.62088e-07
-2.80806e-07
-2.03416e-07
-1787.58
-1767.08
-1727.1
-1669.54
-1596.91
-1512.11
-1418.14
-1317.9
-1214.08
-1109.05
-1004.86
-903.218
-805.507
-712.807
-625.926
-545.419
-471.623
-404.68
-344.564
-291.112
-244.044
-202.994
-167.529
-137.176
-111.44
-89.8183
-71.8197
-56.9733
-44.8375
-35.0068
-27.1143
-20.8344
-15.8817
-12.0101
-9.01022
-6.70596
-4.95138
-3.62691
-2.63569
-1.90022
-1.35916
-0.96449
-0.679036
-0.474307
-0.328702
-0.226011
-0.154185
-0.104363
-0.0700884
-0.046703
-0.0308777
-0.0202558
-0.0131843
-0.00851464
-0.00545606
-0.00346888
-0.00218824
-0.00136958
-0.000850472
-0.000523965
-0.000320261
-0.000194201
-0.000116823
-6.97145e-05
-4.1268e-05
-2.42316e-05
-1.41129e-05
-8.15275e-06
-4.67171e-06
-2.65637e-06
-1.50078e-06
-8.46361e-07
-4.83855e-07
-2.94067e-07
-2.13099e-07
-1755.88
-1737.17
-1700.54
-1647.49
-1580.09
-1500.73
-1412.02
-1316.53
-1216.75
-1114.97
-1013.21
-913.233
-816.506
-724.218
-637.285
-556.374
-481.921
-414.153
-353.119
-298.71
-250.694
-208.734
-172.422
-141.298
-114.872
-92.646
-74.1252
-58.8342
-46.325
-36.1844
-28.038
-21.5523
-16.4346
-12.4322
-9.32956
-6.94549
-5.12952
-3.75825
-2.73172
-1.96984
-1.40921
-1.00018
-0.704274
-0.492008
-0.341017
-0.234508
-0.160001
-0.108312
-0.0727485
-0.0484804
-0.0320559
-0.0210305
-0.0136897
-0.0088418
-0.00566614
-0.00360273
-0.00227284
-0.00142263
-0.000883476
-0.000544337
-0.000332735
-0.000201779
-0.000121391
-7.24453e-05
-4.28877e-05
-2.51846e-05
-1.46691e-05
-8.47475e-06
-4.85665e-06
-2.76177e-06
-1.56043e-06
-8.80076e-07
-5.03225e-07
-3.05906e-07
-2.21683e-07
-1731.44
-1714.01
-1679.79
-1630.04
-1566.49
-1491.23
-1406.52
-1314.73
-1218.18
-1119.04
-1019.33
-920.812
-825.006
-733.173
-646.312
-565.171
-490.263
-421.887
-360.15
-304.993
-256.221
-213.528
-176.525
-144.767
-117.771
-95.042
-76.0843
-60.4196
-47.5952
-37.1922
-28.83
-22.1688
-16.9102
-12.7958
-9.60508
-7.15242
-5.28359
-3.87198
-2.81495
-2.03024
-1.45267
-1.0312
-0.726223
-0.507414
-0.351742
-0.241913
-0.165073
-0.111758
-0.0750703
-0.0500325
-0.0330852
-0.0217077
-0.0141317
-0.00912798
-0.00584997
-0.00371988
-0.00234691
-0.00146909
-0.000912392
-0.00056219
-0.000343671
-0.000208425
-0.000125397
-7.48413e-05
-4.43092e-05
-2.60213e-05
-1.51575e-05
-8.75761e-06
-5.01915e-06
-2.85441e-06
-1.61294e-06
-9.0979e-07
-5.20243e-07
-3.16281e-07
-2.29263e-07
-1712.6
-1696.09
-1663.63
-1616.29
-1555.6
-1483.4
-1401.75
-1312.83
-1218.82
-1121.82
-1023.8
-926.52
-831.538
-740.158
-653.436
-572.182
-496.969
-428.149
-365.879
-310.141
-260.773
-217.494
-179.934
-147.66
-120.197
-97.053
-77.7332
-61.7573
-48.6694
-38.0463
-29.5025
-22.6934
-17.3156
-13.1062
-9.84056
-7.32951
-5.41559
-3.96953
-2.88641
-2.08215
-1.49006
-1.0579
-0.745137
-0.520699
-0.360996
-0.248307
-0.169455
-0.114736
-0.0770785
-0.0513757
-0.0339763
-0.0222942
-0.0145146
-0.00937603
-0.00600937
-0.0038215
-0.00241118
-0.00150942
-0.000937497
-0.000577695
-0.000353171
-0.000214199
-0.000128879
-7.69245e-05
-4.55455e-05
-2.67491e-05
-1.55825e-05
-9.00382e-06
-5.16063e-06
-2.93511e-06
-1.65867e-06
-9.35679e-07
-5.35107e-07
-3.2535e-07
-2.35858e-07
-1698.08
-1682.24
-1651.06
-1605.51
-1546.94
-1477.04
-1397.71
-1311.01
-1218.99
-1123.69
-1027.04
-930.799
-836.532
-745.575
-659.023
-577.731
-502.317
-433.179
-370.509
-314.324
-264.49
-220.747
-182.742
-150.051
-122.209
-98.7253
-79.1081
-62.8756
-49.5695
-38.7634
-30.0683
-23.1355
-17.6577
-13.3685
-10.0399
-7.47965
-5.52765
-4.05243
-2.94721
-2.12636
-1.52193
-1.08068
-0.761285
-0.53205
-0.368909
-0.253778
-0.173206
-0.117287
-0.0787996
-0.0525274
-0.0347408
-0.0227976
-0.0148435
-0.0095891
-0.00614634
-0.00390885
-0.00246644
-0.00154411
-0.000959098
-0.000591039
-0.00036135
-0.000219172
-0.000131879
-7.87193e-05
-4.66109e-05
-2.73764e-05
-1.5949e-05
-9.21618e-06
-5.28274e-06
-3.00476e-06
-1.69813e-06
-9.5802e-07
-5.47969e-07
-3.33203e-07
-2.41527e-07
-1686.9
-1671.56
-1641.32
-1597.08
-1540.09
-1471.92
-1394.36
-1309.35
-1218.88
-1124.92
-1029.38
-933.992
-840.331
-749.751
-663.376
-582.092
-506.553
-437.187
-374.22
-317.695
-267.499
-223.391
-185.032
-152.009
-123.861
-100.103
-80.2441
-63.8018
-50.3167
-39.3601
-30.5399
-23.5046
-17.9439
-13.5884
-10.2072
-7.60577
-5.6219
-4.12223
-2.99846
-2.16366
-1.54885
-1.09994
-0.774946
-0.54166
-0.375613
-0.258416
-0.176388
-0.119453
-0.0802614
-0.0535061
-0.0353908
-0.0232258
-0.0151233
-0.00977047
-0.00626298
-0.00398326
-0.00251354
-0.00157368
-0.000977515
-0.00060242
-0.000368327
-0.000223415
-0.000134439
-8.02516e-05
-4.75208e-05
-2.79123e-05
-1.62621e-05
-9.39766e-06
-5.38709e-06
-3.0643e-06
-1.73191e-06
-9.77153e-07
-5.58969e-07
-3.39938e-07
-2.46396e-07
-1678.32
-1663.34
-1633.8
-1590.53
-1534.71
-1467.84
-1391.62
-1307.9
-1218.63
-1125.73
-1031.06
-936.365
-843.207
-752.953
-666.747
-585.497
-509.883
-440.358
-377.172
-320.39
-269.915
-225.523
-186.886
-153.599
-125.207
-101.229
-81.1743
-64.5621
-50.9314
-39.8519
-30.9294
-23.8101
-18.1811
-13.7708
-10.3462
-7.71075
-5.70044
-4.18048
-3.04127
-2.19485
-1.57138
-1.11607
-0.786399
-0.549723
-0.381242
-0.262313
-0.179064
-0.121275
-0.0814918
-0.0543303
-0.0359384
-0.0235867
-0.0153592
-0.00992348
-0.00636141
-0.00404608
-0.00255331
-0.00159866
-0.000993077
-0.000612039
-0.000374225
-0.000227003
-0.000136604
-8.1548e-05
-4.82906e-05
-2.83659e-05
-1.65272e-05
-9.5513e-06
-5.47545e-06
-3.11475e-06
-1.76055e-06
-9.93384e-07
-5.6827e-07
-3.45628e-07
-2.50531e-07
-1671.75
-1657.04
-1628.01
-1585.46
-1530.52
-1464.62
-1389.4
-1306.67
-1218.32
-1126.24
-1032.27
-938.122
-845.375
-755.396
-669.342
-588.139
-512.483
-442.849
-379.503
-322.527
-271.839
-227.228
-188.373
-154.878
-126.293
-102.14
-81.9293
-65.1806
-51.4326
-40.2537
-31.2483
-24.0605
-18.376
-13.9209
-10.4608
-7.79734
-5.76531
-4.22864
-3.07671
-2.22069
-1.59006
-1.12946
-0.795914
-0.556427
-0.385925
-0.265558
-0.181293
-0.122794
-0.0825182
-0.0550182
-0.0363956
-0.0238882
-0.0155564
-0.0100514
-0.00644373
-0.00409863
-0.00258659
-0.00161956
-0.00100611
-0.000620096
-0.000379166
-0.00023001
-0.000138419
-8.26347e-05
-4.89362e-05
-2.87463e-05
-1.67495e-05
-9.68023e-06
-5.54961e-06
-3.15709e-06
-1.78459e-06
-1.00697e-06
-5.76092e-07
-3.50417e-07
-2.54019e-07
-1666.74
-1652.22
-1623.57
-1581.55
-1527.26
-1462.09
-1387.63
-1305.65
-1218.01
-1126.56
-1033.12
-939.417
-847
-757.25
-671.329
-590.176
-514.501
-444.792
-381.329
-324.208
-273.36
-228.58
-189.557
-155.9
-127.163
-102.871
-82.5368
-65.6795
-51.8377
-40.5791
-31.507
-24.2641
-18.5346
-14.0433
-10.5543
-7.86813
-5.81841
-4.2681
-3.10578
-2.24191
-1.60542
-1.14048
-0.803749
-0.561951
-0.389788
-0.268235
-0.183134
-0.124049
-0.0833667
-0.0555871
-0.0367741
-0.0241378
-0.0157197
-0.0101574
-0.00651197
-0.00414221
-0.00261419
-0.00163691
-0.00101692
-0.000626783
-0.000383269
-0.000232507
-0.000139926
-8.35374e-05
-4.94724e-05
-2.90623e-05
-1.69342e-05
-9.78738e-06
-5.61128e-06
-3.19232e-06
-1.80456e-06
-1.01831e-06
-5.82614e-07
-3.54378e-07
-2.56922e-07
-1662.93
-1648.55
-1620.18
-1578.56
-1524.76
-1460.12
-1386.23
-1304.82
-1217.71
-1126.75
-1033.73
-940.367
-848.214
-758.649
-672.841
-591.737
-516.055
-446.296
-382.75
-325.522
-274.552
-229.643
-190.491
-156.708
-127.854
-103.453
-83.0214
-66.0783
-52.1623
-40.8404
-31.715
-24.4281
-18.6625
-14.1421
-10.6299
-7.92549
-5.86149
-4.30015
-3.12941
-2.25919
-1.61793
-1.14946
-0.810143
-0.566464
-0.392945
-0.270426
-0.184641
-0.125077
-0.084062
-0.0560536
-0.0370845
-0.0243426
-0.0158538
-0.0102445
-0.00656803
-0.00417802
-0.00263689
-0.00165118
-0.00102582
-0.000632284
-0.000386644
-0.000234561
-0.000141167
-8.42804e-05
-4.99139e-05
-2.93225e-05
-1.70864e-05
-9.87564e-06
-5.66205e-06
-3.22129e-06
-1.82101e-06
-1.02766e-06
-5.87988e-07
-3.57673e-07
-2.59287e-07
-1660.04
-1645.78
-1617.61
-1576.28
-1522.83
-1458.6
-1385.14
-1304.15
-1217.45
-1126.86
-1034.16
-941.062
-849.116
-759.7
-673.985
-592.925
-517.245
-447.453
-383.848
-326.541
-275.48
-230.474
-191.222
-157.343
-128.397
-103.913
-83.4048
-66.3945
-52.4201
-41.0483
-31.8809
-24.559
-18.7649
-14.2213
-10.6906
-7.97156
-5.89612
-4.32596
-3.14846
-2.27312
-1.62803
-1.15672
-0.815316
-0.570117
-0.395503
-0.272201
-0.185863
-0.125911
-0.0846267
-0.0564327
-0.0373368
-0.0245092
-0.0159629
-0.0103153
-0.00661368
-0.00420719
-0.00265537
-0.0016628
-0.00103306
-0.000636768
-0.000389396
-0.000236237
-0.000142179
-8.48865e-05
-5.02741e-05
-2.95348e-05
-1.72106e-05
-9.94762e-06
-5.70345e-06
-3.24496e-06
-1.83446e-06
-1.03526e-06
-5.92361e-07
-3.60346e-07
-2.61245e-07
-1657.87
-1643.68
-1615.67
-1574.55
-1521.37
-1457.44
-1384.29
-1303.62
-1217.22
-1126.91
-1034.46
-941.567
-849.783
-760.484
-674.846
-593.824
-518.15
-448.337
-384.689
-327.325
-276.196
-231.117
-191.791
-157.838
-128.822
-104.272
-83.7056
-66.6431
-52.6232
-41.2123
-32.012
-24.6627
-18.846
-14.2842
-10.7389
-8.00824
-5.92374
-4.34655
-3.16368
-2.28426
-1.63612
-1.16254
-0.819463
-0.573048
-0.397557
-0.273628
-0.186846
-0.126582
-0.0850813
-0.056738
-0.0375401
-0.0246436
-0.0160509
-0.0103725
-0.00665052
-0.00423074
-0.0026703
-0.00167219
-0.00103892
-0.000640392
-0.00039162
-0.000237591
-0.000142996
-8.53763e-05
-5.05652e-05
-2.97064e-05
-1.73109e-05
-1.00058e-05
-5.73696e-06
-3.26407e-06
-1.8453e-06
-1.0414e-06
-5.95875e-07
-3.62516e-07
-2.62864e-07
-1656.24
-1642.11
-1614.21
-1573.25
-1520.26
-1456.55
-1383.64
-1303.21
-1217.04
-1126.93
-1034.67
-941.934
-850.274
-761.067
-675.49
-594.5
-518.834
-449.007
-385.33
-327.924
-276.745
-231.611
-192.229
-158.22
-129.151
-104.551
-83.9396
-66.8369
-52.7818
-41.3407
-32.1148
-24.7441
-18.9098
-14.3338
-10.777
-8.03719
-5.94556
-4.36284
-3.17573
-2.2931
-1.64254
-1.16716
-0.82276
-0.57538
-0.399192
-0.274765
-0.187629
-0.127117
-0.0854441
-0.0569818
-0.0377026
-0.0247509
-0.0161212
-0.0104182
-0.00667999
-0.00424958
-0.00268225
-0.0016797
-0.00104361
-0.000643293
-0.000393401
-0.000238675
-0.000143651
-8.57687e-05
-5.07983e-05
-2.98439e-05
-1.73912e-05
-1.00524e-05
-5.76379e-06
-3.27939e-06
-1.85397e-06
-1.04633e-06
-5.98738e-07
-3.64267e-07
-2.64124e-07
-1655.03
-1640.93
-1613.11
-1572.27
-1519.42
-1455.88
-1383.14
-1302.88
-1216.89
-1126.94
-1034.82
-942.198
-850.633
-761.498
-675.969
-595.006
-519.347
-449.513
-385.815
-328.379
-277.163
-231.989
-192.564
-158.513
-129.403
-104.766
-84.1203
-66.9868
-52.9047
-41.4403
-32.1946
-24.8075
-18.9596
-14.3724
-10.8067
-8.05984
-5.96265
-4.37562
-3.18519
-2.30004
-1.64758
-1.17079
-0.825357
-0.577218
-0.400482
-0.275662
-0.188248
-0.127541
-0.0857311
-0.0571747
-0.0378312
-0.0248359
-0.016177
-0.0104544
-0.00670336
-0.00426452
-0.00269173
-0.00168566
-0.00104733
-0.000645595
-0.000394814
-0.000239535
-0.000144171
-8.60801e-05
-5.09834e-05
-2.99529e-05
-1.7455e-05
-1.00894e-05
-5.78507e-06
-3.29156e-06
-1.86087e-06
-1.05023e-06
-6.00983e-07
-3.6563e-07
-2.6513e-07
-1654.12
-1640.06
-1612.3
-1571.54
-1518.8
-1455.37
-1382.76
-1302.64
-1216.76
-1126.93
-1034.92
-942.388
-850.895
-761.815
-676.323
-595.382
-519.73
-449.891
-386.179
-328.721
-277.479
-232.274
-192.818
-158.736
-129.596
-104.931
-84.2585
-67.1017
-52.9991
-41.517
-32.2562
-24.8564
-18.998
-14.4023
-10.8297
-8.07743
-5.97593
-4.38556
-3.19256
-2.30545
-1.65152
-1.17363
-0.827387
-0.578656
-0.401491
-0.276365
-0.188733
-0.127872
-0.0859561
-0.0573261
-0.0379321
-0.0249027
-0.0162207
-0.0104829
-0.00672172
-0.00427627
-0.00269918
-0.00169035
-0.00105026
-0.000647406
-0.000395926
-0.000240212
-0.00014458
-8.6325e-05
-5.11289e-05
-3.00387e-05
-1.75052e-05
-1.01185e-05
-5.80179e-06
-3.3011e-06
-1.8663e-06
-1.0533e-06
-6.02718e-07
-3.66689e-07
-2.65946e-07
-1653.46
-1639.42
-1611.7
-1571
-1518.34
-1454.99
-1382.48
-1302.45
-1216.67
-1126.93
-1034.99
-942.523
-851.085
-762.046
-676.583
-595.659
-520.014
-450.172
-386.45
-328.977
-277.715
-232.489
-193.01
-158.905
-129.742
-105.055
-84.3636
-67.1892
-53.071
-41.5755
-32.3033
-24.8939
-19.0275
-14.4253
-10.8475
-8.09095
-5.98616
-4.39322
-3.19824
-2.30963
-1.65457
-1.17583
-0.828958
-0.57977
-0.402274
-0.27691
-0.18911
-0.12813
-0.0861311
-0.0574438
-0.0380107
-0.0249547
-0.0162548
-0.0105051
-0.00673603
-0.00428542
-0.00270499
-0.00169401
-0.00105254
-0.000648818
-0.000396793
-0.00024074
-0.000144898
-8.65158e-05
-5.12423e-05
-3.01055e-05
-1.75442e-05
-1.01411e-05
-5.8148e-06
-3.30855e-06
-1.87055e-06
-1.0557e-06
-6.04084e-07
-3.67536e-07
-2.66526e-07
-1652.97
-1638.95
-1611.26
-1570.6
-1517.99
-1454.72
-1382.27
-1302.31
-1216.59
-1126.92
-1035.03
-942.62
-851.222
-762.214
-676.773
-595.862
-520.223
-450.38
-386.652
-329.167
-277.892
-232.649
-193.153
-159.031
-129.851
-105.149
-84.4427
-67.2551
-53.1254
-41.6198
-32.339
-24.9223
-19.0499
-14.4428
-10.861
-8.10127
-5.99398
-4.39908
-3.20259
-2.31283
-1.6569
-1.17752
-0.830165
-0.580627
-0.402877
-0.27733
-0.1894
-0.128329
-0.086266
-0.0575346
-0.0380713
-0.0249948
-0.0162812
-0.0105222
-0.00674709
-0.0042925
-0.00270948
-0.00169683
-0.0010543
-0.000649909
-0.000397462
-0.000241148
-0.000145145
-8.66633e-05
-5.13299e-05
-3.01571e-05
-1.75743e-05
-1.01586e-05
-5.82486e-06
-3.31429e-06
-1.87379e-06
-1.05752e-06
-6.05156e-07
-3.6819e-07
-2.66982e-07
-1652.61
-1638.6
-1610.93
-1570.31
-1517.74
-1454.51
-1382.11
-1302.2
-1216.54
-1126.91
-1035.06
-942.688
-851.32
-762.336
-676.911
-596.011
-520.376
-450.532
-386.799
-329.308
-278.022
-232.768
-193.259
-159.125
-129.933
-105.219
-84.5018
-67.3046
-53.1662
-41.6531
-32.3658
-24.9437
-19.0668
-14.456
-10.8712
-8.10908
-5.9999
-4.40352
-3.2059
-2.31526
-1.65867
-1.1788
-0.831084
-0.581279
-0.403336
-0.27765
-0.189621
-0.128481
-0.086369
-0.057604
-0.0381177
-0.0250255
-0.0163013
-0.0105353
-0.00675555
-0.00429791
-0.00271291
-0.00169899
-0.00105565
-0.000650745
-0.000397975
-0.00024146
-0.000145333
-8.67762e-05
-5.13969e-05
-3.01966e-05
-1.75974e-05
-1.0172e-05
-5.83251e-06
-3.31863e-06
-1.87626e-06
-1.05894e-06
-6.05972e-07
-3.68682e-07
-2.67338e-07
-1652.35
-1638.35
-1610.7
-1570.1
-1517.56
-1454.36
-1381.99
-1302.12
-1216.49
-1126.9
-1035.09
-942.736
-851.39
-762.423
-677.011
-596.118
-520.487
-450.644
-386.908
-329.41
-278.117
-232.855
-193.338
-159.194
-129.993
-105.271
-84.5457
-67.3413
-53.1966
-41.6779
-32.3858
-24.9597
-19.0795
-14.4659
-10.8788
-8.11494
-6.00434
-4.40686
-3.20838
-2.3171
-1.66001
-1.17977
-0.831778
-0.581772
-0.403683
-0.277893
-0.189789
-0.128596
-0.0864471
-0.0576567
-0.0381528
-0.0250487
-0.0163166
-0.0105453
-0.00676198
-0.00430202
-0.00271552
-0.00170064
-0.00105667
-0.000651379
-0.000398365
-0.000241697
-0.000145476
-8.68618e-05
-5.14477e-05
-3.02265e-05
-1.76149e-05
-1.01821e-05
-5.83834e-06
-3.32195e-06
-1.87814e-06
-1.06003e-06
-6.06579e-07
-3.69011e-07
-2.67605e-07
-1652.17
-1638.17
-1610.53
-1569.95
-1517.43
-1454.25
-1381.91
-1302.06
-1216.46
-1126.89
-1035.1
-942.769
-851.44
-762.485
-677.083
-596.195
-520.567
-450.724
-386.986
-329.485
-278.187
-232.919
-193.395
-159.245
-130.037
-105.309
-84.578
-67.3683
-53.2189
-41.6962
-32.4006
-24.9715
-19.0888
-14.4732
-10.8845
-8.1193
-6.00765
-4.40935
-3.21024
-2.31846
-1.66101
-1.18049
-0.832298
-0.582142
-0.403943
-0.278074
-0.189914
-0.128682
-0.0865058
-0.0576962
-0.0381793
-0.0250663
-0.0163281
-0.0105528
-0.00676681
-0.00430512
-0.00271749
-0.00170187
-0.00105745
-0.000651857
-0.000398658
-0.000241875
-0.000145584
-8.69262e-05
-5.1486e-05
-3.0249e-05
-1.7628e-05
-1.01897e-05
-5.84271e-06
-3.32446e-06
-1.87955e-06
-1.06082e-06
-6.07036e-07
-3.69309e-07
-2.67778e-07
-1652.03
-1638.04
-1610.41
-1569.84
-1517.33
-1454.17
-1381.85
-1302.02
-1216.44
-1126.88
-1035.11
-942.793
-851.475
-762.53
-677.134
-596.251
-520.625
-450.782
-387.042
-329.539
-278.237
-232.965
-193.437
-159.281
-130.07
-105.336
-84.6016
-67.3881
-53.2353
-41.7096
-32.4115
-24.9802
-19.0957
-14.4786
-10.8887
-8.12252
-6.0101
-4.41119
-3.21161
-2.31948
-1.66175
-1.18103
-0.832684
-0.582416
-0.404137
-0.278209
-0.190008
-0.128746
-0.0865495
-0.0577257
-0.038199
-0.0250793
-0.0163367
-0.0105584
-0.00677042
-0.00430743
-0.00271896
-0.0017028
-0.00105802
-0.000652213
-0.000398876
-0.000242008
-0.000145664
-8.69742e-05
-5.15144e-05
-3.02658e-05
-1.76378e-05
-1.01953e-05
-5.84595e-06
-3.3263e-06
-1.88061e-06
-1.06141e-06
-6.07367e-07
-3.69526e-07
-2.67931e-07
-1651.94
-1637.95
-1610.32
-1569.76
-1517.26
-1454.12
-1381.81
-1301.99
-1216.42
-1126.88
-1035.12
-942.809
-851.5
-762.561
-677.17
-596.29
-520.666
-450.823
-387.083
-329.577
-278.273
-232.998
-193.467
-159.308
-130.093
-105.356
-84.6186
-67.4025
-53.2473
-41.7194
-32.4194
-24.9866
-19.1008
-14.4825
-10.8917
-8.12488
-6.01189
-4.41254
-3.21262
-2.32022
-1.6623
-1.18142
-0.832968
-0.582618
-0.404279
-0.278309
-0.190077
-0.128794
-0.0865818
-0.0577475
-0.0382135
-0.025089
-0.016343
-0.0105625
-0.00677309
-0.00430914
-0.00272004
-0.00170348
-0.00105845
-0.000652476
-0.000399038
-0.000242107
-0.000145723
-8.70096e-05
-5.15354e-05
-3.02781e-05
-1.7645e-05
-1.01995e-05
-5.84834e-06
-3.32763e-06
-1.88135e-06
-1.06186e-06
-6.07645e-07
-3.69678e-07
-2.68034e-07
-1651.87
-1637.88
-1610.26
-1569.7
-1517.22
-1454.08
-1381.78
-1301.97
-1216.41
-1126.87
-1035.12
-942.82
-851.517
-762.583
-677.195
-596.318
-520.695
-450.852
-387.111
-329.605
-278.299
-233.022
-193.488
-159.327
-130.11
-105.371
-84.6309
-67.4128
-53.2558
-41.7264
-32.4251
-24.9912
-19.1044
-14.4854
-10.894
-8.12659
-6.0132
-4.41353
-3.21335
-2.32076
-1.6627
-1.18171
-0.833175
-0.582766
-0.404383
-0.278382
-0.190128
-0.128828
-0.0866055
-0.0577634
-0.0382242
-0.025096
-0.0163477
-0.0105655
-0.00677505
-0.00431039
-0.00272084
-0.00170398
-0.00105876
-0.00065267
-0.000399156
-0.000242179
-0.000145767
-8.70356e-05
-5.15508e-05
-3.02871e-05
-1.76503e-05
-1.02026e-05
-5.85009e-06
-3.32865e-06
-1.88192e-06
-1.06216e-06
-6.07831e-07
-3.69783e-07
-2.68108e-07
-1651.82
-1637.84
-1610.22
-1569.67
-1517.18
-1454.05
-1381.75
-1301.95
-1216.4
-1126.87
-1035.12
-942.828
-851.529
-762.598
-677.213
-596.337
-520.715
-450.873
-387.132
-329.624
-278.317
-233.039
-193.503
-159.341
-130.122
-105.381
-84.6397
-67.4202
-53.262
-41.7315
-32.4292
-24.9945
-19.107
-14.4875
-10.8956
-8.12782
-6.01413
-4.41424
-3.21388
-2.32116
-1.66298
-1.18192
-0.833325
-0.582873
-0.404459
-0.278435
-0.190164
-0.128853
-0.0866227
-0.057775
-0.038232
-0.0251012
-0.0163511
-0.0105677
-0.00677647
-0.0043113
-0.00272141
-0.00170434
-0.00105899
-0.00065281
-0.000399243
-0.000242231
-0.000145798
-8.70544e-05
-5.1562e-05
-3.02937e-05
-1.76541e-05
-1.02047e-05
-5.85136e-06
-3.32938e-06
-1.88233e-06
-1.06239e-06
-6.07967e-07
-3.69858e-07
-2.68158e-07
-1651.79
-1637.8
-1610.19
-1569.64
-1517.16
-1454.03
-1381.74
-1301.94
-1216.39
-1126.87
-1035.12
-942.833
-851.537
-762.609
-677.225
-596.351
-520.729
-450.887
-387.146
-329.638
-278.33
-233.051
-193.514
-159.35
-130.13
-105.388
-84.6459
-67.4254
-53.2663
-41.7351
-32.4322
-24.9968
-19.1089
-14.4889
-10.8967
-8.1287
-6.01481
-4.41474
-3.21426
-2.32144
-1.66319
-1.18207
-0.833433
-0.58295
-0.404513
-0.278473
-0.190191
-0.128872
-0.086635
-0.0577834
-0.0382376
-0.0251049
-0.0163535
-0.0105693
-0.0067775
-0.00431196
-0.00272183
-0.00170461
-0.00105915
-0.000652911
-0.000399305
-0.000242269
-0.000145821
-8.7068e-05
-5.157e-05
-3.02984e-05
-1.76568e-05
-1.02063e-05
-5.85224e-06
-3.3299e-06
-1.88265e-06
-1.06256e-06
-6.08034e-07
-3.69919e-07
-2.68218e-07
-1651.77
-1637.78
-1610.17
-1569.62
-1517.14
-1454.01
-1381.73
-1301.94
-1216.39
-1126.87
-1035.13
-942.837
-851.543
-762.616
-677.234
-596.36
-520.739