/*--------------------------------*- C++ -*----------------------------------*\
  =========                 |
  \\      /  F ield         | OpenFOAM: The Open Source CFD Toolbox
   \\    /   O peration     | Website:  https://openfoam.org
    \\  /    A nd           | Version:  10
     \\/     M anipulation  |
\*---------------------------------------------------------------------------*/
FoamFile
{
    format      ascii;
    class       volScalarField;
    location    "262";
    object      T;
}
// * * * * * * * * * * * * * * * * * * * * * * * * * * * * * * * * * * * * * //

dimensions      [0 0 0 1 0 0 0];

internalField   nonuniform List<scalar> 
11250
(
249.797
167.422
139.139
126.642
119.794
115.432
112.371
110.085
108.304
106.878
105.713
104.75
103.945
103.271
102.704
102.227
101.827
101.491
101.211
100.978
100.786
100.627
100.498
100.392
100.307
100.239
100.185
100.142
100.108
100.082
100.062
100.046
100.034
100.025
100.018
100.013
100.01
100.007
100.005
100.003
100.002
100.002
100.001
100.001
100.001
100
100
100
100
100
100
100
100
100
100
100
100
100
100
100
100
100
100
100
100
100
100
100
100
100
100
100
100
100
100
331.364
248.184
201.646
174.302
156.925
145.029
136.376
129.789
124.602
120.418
116.984
114.134
111.751
109.748
108.062
106.643
105.451
104.451
103.616
102.921
102.346
101.874
101.487
101.172
100.918
100.715
100.552
100.424
100.323
100.245
100.184
100.137
100.102
100.075
100.055
100.04
100.029
100.02
100.014
100.01
100.007
100.005
100.003
100.002
100.002
100.001
100.001
100
100
100
100
100
100
100
100
100
100
100
100
100
100
100
100
100
100
100
100
100
100
100
100
100
100
100
100
358.849
292.333
245.012
212.062
188.662
171.481
158.429
148.214
140.025
133.34
127.808
123.188
119.307
116.037
113.276
110.948
108.989
107.344
105.968
104.824
103.876
103.096
102.457
101.938
101.518
101.182
100.914
100.701
100.535
100.405
100.304
100.227
100.168
100.124
100.09
100.066
100.047
100.034
100.024
100.017
100.012
100.008
100.006
100.004
100.003
100.002
100.001
100.001
100.001
100
100
100
100
100
100
100
100
100
100
100
100
100
100
100
100
100
100
100
100
100
100
100
100
100
100
370.564
317.341
274.088
240.386
214.32
193.971
177.831
164.815
154.159
145.329
137.944
131.728
126.474
122.027
118.261
115.076
112.389
110.13
108.238
106.662
105.356
104.279
103.398
102.681
102.101
101.636
101.265
100.971
100.741
100.561
100.422
100.315
100.233
100.172
100.125
100.091
100.065
100.047
100.033
100.023
100.016
100.011
100.008
100.005
100.004
100.002
100.002
100.001
100.001
100
100
100
100
100
100
100
100
100
100
100
100
100
100
100
100
100
100
100
100
100
100
100
100
100
100
376.654
332.449
293.728
261.233
234.459
212.48
194.368
179.336
166.765
156.181
147.223
139.615
133.141
127.631
122.945
118.97
115.607
112.774
110.397
108.414
106.768
105.411
104.299
103.393
102.66
102.071
101.602
101.231
100.939
100.711
100.535
100.399
100.296
100.218
100.159
100.115
100.083
100.059
100.042
100.03
100.021
100.014
100.01
100.007
100.005
100.003
100.002
100.001
100.001
100.001
100
100
100
100
100
100
100
100
100
100
100
100
100
100
100
100
100
100
100
100
100
100
100
100
100
380.286
342.162
307.29
276.559
250.05
227.416
208.154
191.753
177.761
165.797
155.549
146.763
139.232
132.785
127.278
122.588
118.608
115.247
112.423
110.062
108.1
106.479
105.15
104.067
103.19
102.485
101.923
101.477
101.127
100.854
100.642
100.48
100.356
100.262
100.191
100.139
100.1
100.071
100.051
100.036
100.025
100.017
100.012
100.008
100.006
100.004
100.002
100.002
100.001
100.001
100
100
100
100
100
100
100
100
100
100
100
100
100
100
100
100
100
100
100
100
100
100
100
100
100
382.651
348.731
316.89
287.906
262.068
239.332
219.472
202.192
187.185
174.169
162.89
153.133
144.708
137.452
131.224
125.9
121.368
117.531
114.298
111.592
109.339
107.476
105.946
104.698
103.686
102.873
102.224
101.709
101.305
100.989
100.744
100.556
100.412
100.303
100.222
100.161
100.116
100.083
100.059
100.041
100.029
100.02
100.014
100.009
100.006
100.004
100.003
100.002
100.001
100.001
100.001
100
100
100
100
100
100
100
100
100
100
100
100
100
100
100
100
100
100
100
100
100
100
100
100
384.278
353.348
323.838
296.387
271.334
248.782
228.672
210.856
195.148
181.349
169.268
158.725
149.557
141.617
134.769
128.892
123.873
119.611
116.013
112.995
110.478
108.395
106.681
105.282
104.147
103.234
102.504
101.925
101.47
101.114
100.838
100.626
100.465
100.342
100.25
100.181
100.131
100.093
100.066
100.047
100.033
100.023
100.016
100.011
100.007
100.005
100.003
100.002
100.001
100.001
100.001
100
100
100
100
100
100
100
100
100
100
100
100
100
100
100
100
100
100
100
100
100
100
100
100
385.44
356.686
328.963
302.788
278.496
256.253
236.097
217.98
201.801
187.433
174.735
163.569
153.796
145.285
137.911
131.558
126.116
121.482
117.562
114.266
111.514
109.231
107.352
105.816
104.569
103.564
102.761
102.124
101.622
101.23
100.926
100.692
100.513
100.378
100.276
100.201
100.145
100.103
100.073
100.052
100.036
100.025
100.017
100.012
100.008
100.005
100.004
100.002
100.002
100.001
100.001
100
100
100
100
100
100
100
100
100
100
100
100
100
100
100
100
100
100
100
100
100
100
100
100
386.292
359.15
332.798
307.661
284.049
262.152
242.062
223.794
207.309
192.533
179.371
167.716
157.456
148.475
140.662
133.907
128.102
123.146
118.944
115.404
112.444
109.985
107.958
106.299
104.951
103.865
102.995
102.305
101.761
101.336
101.006
100.752
100.558
100.411
100.301
100.218
100.157
100.112
100.08
100.056
100.039
100.027
100.019
100.013
100.009
100.006
100.004
100.003
100.002
100.001
100.001
100
100
100
100
100
100
100
100
100
100
100
100
100
100
100
100
100
100
100
100
100
100
100
100
386.926
360.996
335.7
311.397
288.366
266.806
246.836
228.51
211.833
196.771
183.263
171.23
160.581
151.22
143.044
135.952
129.839
124.609
120.163
116.412
113.27
110.656
108.499
106.732
105.295
104.135
103.206
102.468
101.887
101.432
101.078
100.806
100.599
100.441
100.323
100.234
100.169
100.121
100.086
100.06
100.042
100.029
100.02
100.014
100.009
100.006
100.004
100.003
100.002
100.001
100.001
100.001
100
100
100
100
100
100
100
100
100
100
100
100
100
100
100
100
100
100
100
100
100
100
100
387.405
362.395
337.915
314.275
291.73
270.476
250.645
232.318
215.526
200.265
186.501
174.178
163.224
153.557
145.085
137.713
131.343
125.88
121.228
117.295
113.996
111.248
108.977
107.115
105.599
104.375
103.394
102.614
101.999
101.517
101.143
100.855
100.635
100.468
100.342
100.249
100.179
100.128
100.091
100.064
100.045
100.031
100.021
100.015
100.01
100.007
100.004
100.003
100.002
100.001
100.001
100.001
100
100
100
100
100
100
100
100
100
100
100
100
100
100
100
100
100
100
100
100
100
100
100
387.769
363.463
339.616
316.501
294.355
273.367
253.677
235.377
218.521
203.124
189.173
176.63
165.439
155.527
146.816
139.214
132.632
126.974
122.147
118.061
114.627
111.764
109.395
107.451
105.867
104.586
103.56
102.743
102.098
101.593
101.201
100.899
100.667
100.492
100.36
100.261
100.189
100.135
100.096
100.068
100.047
100.033
100.023
100.015
100.011
100.007
100.005
100.003
100.002
100.001
100.001
100.001
100
100
100
100
100
100
100
100
100
100
100
100
100
100
100
100
100
100
100
100
100
100
100
388.048
364.283
340.926
318.227
296.405
275.643
256.082
237.826
220.938
205.45
191.364
178.654
167.278
157.174
148.27
140.483
133.725
127.906
122.934
118.718
115.171
112.21
109.757
107.742
106.099
104.771
103.704
102.855
102.185
101.66
101.251
100.937
100.696
100.513
100.376
100.273
100.197
100.141
100.1
100.071
100.049
100.034
100.024
100.016
100.011
100.007
100.005
100.003
100.002
100.001
100.001
100.001
100
100
100
100
100
100
100
100
100
100
100
100
100
100
100
100
100
100
100
100
100
100
100
388.263
364.914
341.938
319.566
298.005
277.431
257.986
239.777
222.878
207.33
193.146
180.311
168.793
158.538
149.48
141.544
134.644
128.692
123.6
119.276
115.634
112.591
110.068
107.993
106.3
104.929
103.829
102.953
102.26
101.717
101.295
100.97
100.721
100.532
100.389
100.283
100.204
100.146
100.104
100.073
100.051
100.036
100.025
100.017
100.011
100.008
100.005
100.003
100.002
100.001
100.001
100.001
100
100
100
100
100
100
100
100
100
100
100
100
100
100
100
100
100
100
100
100
100
100
100
388.428
365.4
342.721
320.606
299.253
278.833
259.487
241.326
224.427
208.841
194.586
181.659
170.031
159.658
150.48
142.424
135.409
129.35
124.158
119.746
116.025
112.913
110.331
108.206
106.471
105.065
103.936
103.036
102.325
101.767
101.333
100.998
100.742
100.548
100.401
100.291
100.21
100.15
100.107
100.075
100.053
100.037
100.025
100.017
100.012
100.008
100.005
100.004
100.002
100.002
100.001
100.001
100
100
100
100
100
100
100
100
100
100
100
100
100
100
100
100
100
100
100
100
100
100
100
388.555
365.776
343.326
321.412
300.225
279.93
260.667
242.55
225.659
210.048
195.743
182.746
171.036
160.572
151.299
143.147
136.04
129.895
124.623
120.138
116.353
113.184
110.553
108.386
106.615
105.18
104.027
103.107
102.38
101.81
101.366
101.023
100.76
100.561
100.411
100.299
100.216
100.154
100.11
100.077
100.054
100.038
100.026
100.018
100.012
100.008
100.005
100.004
100.002
100.002
100.001
100.001
100
100
100
100
100
100
100
100
100
100
100
100
100
100
100
100
100
100
100
100
100
100
100
388.653
366.065
343.793
322.037
300.98
280.785
261.592
243.513
226.632
211.006
196.667
183.619
171.846
161.311
151.964
143.737
136.557
130.342
125.006
120.462
116.624
113.409
110.737
108.536
106.736
105.277
104.103
103.167
102.427
101.845
101.393
101.044
100.776
100.573
100.42
100.305
100.22
100.158
100.112
100.079
100.055
100.038
100.027
100.018
100.012
100.008
100.006
100.004
100.002
100.002
100.001
100.001
100
100
100
100
100
100
100
100
100
100
100
100
100
100
100
100
100
100
100
100
100
100
100
388.728
366.288
344.153
322.519
301.565
281.45
262.313
244.267
227.397
211.764
197.399
184.314
172.493
161.905
152.5
144.215
136.977
130.707
125.319
120.728
116.847
113.594
110.89
108.66
106.836
105.357
104.167
103.217
102.466
101.875
101.416
101.061
100.789
100.583
100.427
100.31
100.224
100.16
100.114
100.08
100.056
100.039
100.027
100.018
100.013
100.008
100.006
100.004
100.002
100.002
100.001
100.001
100
100
100
100
100
100
100
100
100
100
100
100
100
100
100
100
100
100
100
100
100
100
100
388.786
366.459
344.43
322.891
302.016
281.965
262.874
244.855
227.996
212.359
197.977
184.864
173.007
162.378
152.929
144.598
137.315
131.001
125.572
120.943
117.029
113.746
111.015
108.762
106.919
105.423
104.219
103.258
102.498
101.9
101.435
101.075
100.8
100.591
100.433
100.315
100.227
100.163
100.116
100.082
100.057
100.04
100.027
100.019
100.013
100.009
100.006
100.004
100.003
100.002
100.001
100.001
100
100
100
100
100
100
100
100
100
100
100
100
100
100
100
100
100
100
100
100
100
100
100
388.83
366.59
344.643
323.176
302.364
282.362
263.307
245.312
228.463
212.823
198.43
185.296
173.413
162.753
153.269
144.903
137.585
131.237
125.776
121.117
117.175
113.868
111.116
108.845
106.986
105.477
104.262
103.292
102.524
101.921
101.451
101.087
100.809
100.597
100.438
100.318
100.23
100.165
100.117
100.083
100.058
100.04
100.028
100.019
100.013
100.009
100.006
100.004
100.003
100.002
100.001
100.001
100
100
100
100
100
100
100
100
100
100
100
100
100
100
100
100
100
100
100
100
100
100
100
388.864
366.69
344.805
323.394
302.63
282.667
263.641
245.664
228.824
213.184
198.782
185.634
173.731
163.047
153.538
145.145
137.8
131.425
125.939
121.256
117.293
113.966
111.197
108.912
107.04
105.521
104.297
103.32
102.545
101.937
101.463
101.097
100.816
100.603
100.442
100.321
100.232
100.166
100.118
100.083
100.058
100.041
100.028
100.019
100.013
100.009
100.006
100.004
100.003
100.002
100.001
100.001
100
100
100
100
100
100
100
100
100
100
100
100
100
100
100
100
100
100
100
100
100
100
100
388.89
366.766
344.928
323.561
302.833
282.901
263.897
245.934
229.102
213.462
199.055
185.896
173.978
163.277
153.748
145.334
137.968
131.573
126.067
121.366
117.386
114.045
111.263
108.965
107.084
105.556
104.325
103.342
102.563
101.951
101.474
101.105
100.822
100.607
100.445
100.324
100.234
100.168
100.119
100.084
100.059
100.041
100.028
100.019
100.013
100.009
100.006
100.004
100.003
100.002
100.001
100.001
100
100
100
100
100
100
100
100
100
100
100
100
100
100
100
100
100
100
100
100
100
100
100
388.909
366.823
345.022
323.687
302.988
283.078
264.092
246.141
229.314
213.676
199.265
186.098
174.17
163.455
153.911
145.482
138.1
131.689
126.168
121.453
117.46
114.107
111.314
109.007
107.118
105.583
104.347
103.359
102.577
101.961
101.482
101.111
100.827
100.611
100.448
100.326
100.235
100.169
100.12
100.085
100.059
100.041
100.028
100.019
100.013
100.009
100.006
100.004
100.003
100.002
100.001
100.001
100
100
100
100
100
100
100
100
100
100
100
100
100
100
100
100
100
100
100
100
100
100
100
388.924
366.866
345.092
323.782
303.104
283.212
264.239
246.298
229.476
213.838
199.425
186.253
174.317
163.592
154.037
145.596
138.202
131.779
126.246
121.52
117.517
114.155
111.354
109.041
107.145
105.605
104.365
103.373
102.588
101.97
101.489
101.116
100.831
100.614
100.45
100.327
100.236
100.169
100.12
100.085
100.06
100.041
100.029
100.02
100.013
100.009
100.006
100.004
100.003
100.002
100.001
100.001
100
100
100
100
100
100
100
100
100
100
100
100
100
100
100
100
100
100
100
100
100
100
100
388.935
366.899
345.145
323.853
303.192
283.313
264.351
246.416
229.598
213.962
199.547
186.371
174.429
163.697
154.134
145.684
138.28
131.848
126.307
121.573
117.562
114.193
111.386
109.067
107.166
105.623
104.378
103.384
102.596
101.977
101.494
101.12
100.834
100.616
100.452
100.329
100.237
100.17
100.121
100.085
100.06
100.042
100.029
100.02
100.013
100.009
100.006
100.004
100.003
100.002
100.001
100.001
100
100
100
100
100
100
100
100
100
100
100
100
100
100
100
100
100
100
100
100
100
100
100
388.943
366.923
345.185
323.907
303.257
283.389
264.434
246.505
229.691
214.055
199.639
186.46
174.514
163.776
154.207
145.75
138.34
131.901
126.353
121.613
117.596
114.222
111.41
109.087
107.183
105.636
104.389
103.393
102.603
101.982
101.498
101.123
100.836
100.618
100.453
100.33
100.238
100.171
100.121
100.086
100.06
100.042
100.029
100.02
100.013
100.009
100.006
100.004
100.003
100.002
100.001
100.001
100
100
100
100
100
100
100
100
100
100
100
100
100
100
100
100
100
100
100
100
100
100
100
388.949
366.941
345.214
323.946
303.306
283.445
264.496
246.571
229.759
214.124
199.708
186.527
174.577
163.836
154.262
145.801
138.385
131.941
126.388
121.643
117.622
114.244
111.429
109.102
107.196
105.646
104.397
103.399
102.608
101.986
101.501
101.126
100.838
100.619
100.454
100.33
100.239
100.171
100.122
100.086
100.06
100.042
100.029
100.02
100.013
100.009
100.006
100.004
100.003
100.002
100.001
100.001
100
100
100
100
100
100
100
100
100
100
100
100
100
100
100
100
100
100
100
100
100
100
100
388.953
366.954
345.236
323.976
303.342
283.487
264.542
246.621
229.81
214.176
199.759
186.577
174.625
163.881
154.304
145.839
138.42
131.972
126.415
121.666
117.642
114.261
111.443
109.114
107.205
105.654
104.404
103.404
102.612
101.989
101.503
101.128
100.839
100.62
100.455
100.331
100.239
100.171
100.122
100.086
100.06
100.042
100.029
100.02
100.013
100.009
100.006
100.004
100.003
100.002
100.001
100.001
100
100
100
100
100
100
100
100
100
100
100
100
100
100
100
100
100
100
100
100
100
100
100
388.957
366.964
345.251
323.997
303.369
283.517
264.576
246.657
229.848
214.215
199.797
186.614
174.661
163.914
154.335
145.867
138.445
131.994
126.435
121.684
117.657
114.273
111.453
109.123
107.212
105.66
104.408
103.408
102.615
101.991
101.505
101.129
100.841
100.621
100.455
100.331
100.239
100.172
100.122
100.086
100.06
100.042
100.029
100.02
100.013
100.009
100.006
100.004
100.003
100.002
100.001
100.001
100
100
100
100
100
100
100
100
100
100
100
100
100
100
100
100
100
100
100
100
100
100
100
388.959
366.971
345.263
324.013
303.388
283.54
264.601
246.684
229.876
214.243
199.825
186.641
174.687
163.939
154.358
145.888
138.464
132.011
126.45
121.697
117.668
114.283
111.461
109.129
107.218
105.664
104.412
103.411
102.617
101.993
101.507
101.13
100.841
100.622
100.456
100.332
100.24
100.172
100.122
100.086
100.06
100.042
100.029
100.02
100.014
100.009
100.006
100.004
100.003
100.002
100.001
100.001
100
100
100
100
100
100
100
100
100
100
100
100
100
100
100
100
100
100
100
100
100
100
100
388.961
366.976
345.271
324.024
303.402
283.556
264.619
246.703
229.896
214.263
199.845
186.661
174.706
163.957
154.374
145.903
138.478
132.024
126.461
121.706
117.677
114.29
111.467
109.134
107.222
105.668
104.415
103.413
102.619
101.995
101.508
101.131
100.842
100.622
100.456
100.332
100.24
100.172
100.122
100.086
100.06
100.042
100.029
100.02
100.014
100.009
100.006
100.004
100.003
100.002
100.001
100.001
100
100
100
100
100
100
100
100
100
100
100
100
100
100
100
100
100
100
100
100
100
100
100
388.962
366.98
345.278
324.033
303.412
283.568
264.632
246.717
229.911
214.278
199.86
186.675
174.72
163.97
154.387
145.915
138.488
132.033
126.469
121.713
117.683
114.295
111.471
109.138
107.225
105.67
104.417
103.415
102.62
101.995
101.508
101.131
100.842
100.622
100.456
100.332
100.24
100.172
100.122
100.086
100.061
100.042
100.029
100.02
100.014
100.009
100.006
100.004
100.003
100.002
100.001
100.001
100
100
100
100
100
100
100
100
100
100
100
100
100
100
100
100
100
100
100
100
100
100
100
388.963
366.983
345.282
324.039
303.42
283.576
264.642
246.727
229.921
214.289
199.871
186.686
174.73
163.98
154.396
145.923
138.496
132.04
126.475
121.718
117.687
114.299
111.475
109.14
107.227
105.672
104.418
103.416
102.621
101.996
101.509
101.132
100.843
100.623
100.457
100.332
100.24
100.172
100.122
100.086
100.061
100.042
100.029
100.02
100.014
100.009
100.006
100.004
100.003
100.002
100.001
100.001
100
100
100
100
100
100
100
100
100
100
100
100
100
100
100
100
100
100
100
100
100
100
100
388.964
366.985
345.285
324.043
303.425
283.582
264.648
246.734
229.929
214.296
199.878
186.693
174.737
163.987
154.402
145.929
138.501
132.044
126.479
121.722
117.69
114.301
111.477
109.142
107.229
105.673
104.419
103.417
102.622
101.997
101.509
101.132
100.843
100.623
100.457
100.332
100.24
100.172
100.122
100.086
100.061
100.042
100.029
100.02
100.014
100.009
100.006
100.004
100.003
100.002
100.001
100.001
100
100
100
100
100
100
100
100
100
100
100
100
100
100
100
100
100
100
100
100
100
100
100
388.964
366.986
345.287
324.046
303.428
283.587
264.653
246.739
229.934
214.302
199.884
186.699
174.742
163.991
154.406
145.933
138.505
132.048
126.482
121.725
117.693
114.303
111.479
109.144
107.23
105.674
104.42
103.417
102.622
101.997
101.51
101.132
100.843
100.623
100.457
100.333
100.24
100.172
100.122
100.086
100.061
100.042
100.029
100.02
100.014
100.009
100.006
100.004
100.003
100.002
100.001
100.001
100
100
100
100
100
100
100
100
100
100
100
100
100
100
100
100
100
100
100
100
100
100
100
388.964
366.987
345.289
324.048
303.431
283.59
264.656
246.743
229.938
214.306
199.888
186.702
174.746
163.995
154.41
145.936
138.507
132.05
126.484
121.727
117.694
114.305
111.48
109.145
107.231
105.675
104.421
103.418
102.623
101.997
101.51
101.133
100.843
100.623
100.457
100.333
100.24
100.172
100.122
100.086
100.061
100.042
100.029
100.02
100.014
100.009
100.006
100.004
100.003
100.002
100.001
100.001
100
100
100
100
100
100
100
100
100
100
100
100
100
100
100
100
100
100
100
100
100
100
100
388.965
366.988
345.29
324.049
303.433
283.592
264.659
246.745
229.94
214.308
199.89
186.705
174.748
163.997
154.412
145.938
138.509
132.052
126.486
121.728
117.695
114.306
111.481
109.145
107.231
105.675
104.421
103.418
102.623
101.998
101.51
101.133
100.843
100.623
100.457
100.333
100.24
100.172
100.123
100.086
100.061
100.042
100.029
100.02
100.014
100.009
100.006
100.004
100.003
100.002
100.001
100.001
100
100
100
100
100
100
100
100
100
100
100
100
100
100
100
100
100
100
100
100
100
100
100
388.965
366.988
345.291
324.05
303.434
283.593
264.66
246.747
229.942
214.31
199.892
186.707
174.75
163.999
154.414
145.939
138.511
132.053
126.487
121.729
117.696
114.306
111.481
109.146
107.232
105.676
104.421
103.418
102.623
101.998
101.51
101.133
100.843
100.623
100.457
100.333
100.24
100.172
100.123
100.087
100.061
100.042
100.029
100.02
100.014
100.009
100.006
100.004
100.003
100.002
100.001
100.001
100
100
100
100
100
100
100
100
100
100
100
100
100
100
100
100
100
100
100
100
100
100
100
388.965
366.988
345.291
324.051
303.435
283.594
264.661
246.748
229.943
214.311
199.894
186.708
174.751
164
154.415
145.94
138.512
132.054
126.487
121.73
117.697
114.307
111.482
109.146
107.232
105.676
104.421
103.418
102.623
101.998
101.51
101.133
100.843
100.623
100.457
100.333
100.24
100.172
100.123
100.087
100.061
100.042
100.029
100.02
100.014
100.009
100.006
100.004
100.003
100.002
100.001
100.001
100
100
100
100
100
100
100
100
100
100
100
100
100
100
100
100
100
100
100
100
100
100
100
388.965
366.989
345.291
324.051
303.435
283.595
264.662
246.749
229.944
214.312
199.894
186.709
174.752
164.001
154.415
145.941
138.512
132.054
126.488
121.73
117.697
114.307
111.482
109.146
107.232
105.676
104.422
103.419
102.623
101.998
101.51
101.133
100.844
100.623
100.457
100.333
100.24
100.172
100.123
100.087
100.061
100.042
100.029
100.02
100.014
100.009
100.006
100.004
100.003
100.002
100.001
100.001
100
100
100
100
100
100
100
100
100
100
100
100
100
100
100
100
100
100
100
100
100
100
100
388.965
366.989
345.292
324.052
303.436
283.595
264.663
246.75
229.945
214.313
199.895
186.709
174.753
164.001
154.416
145.942
138.513
132.055
126.488
121.73
117.697
114.308
111.482
109.147
107.232
105.676
104.422
103.419
102.623
101.998
101.51
101.133
100.844
100.623
100.457
100.333
100.24
100.172
100.123
100.087
100.061
100.042
100.029
100.02
100.014
100.009
100.006
100.004
100.003
100.002
100.001
100.001
100
100
100
100
100
100
100
100
100
100
100
100
100
100
100
100
100
100
100
100
100
100
100
388.965
366.989
345.292
324.052
303.436
283.596
264.663
246.75
229.945
214.313
199.895
186.71
174.753
164.002
154.416
145.942
138.513
132.055
126.489
121.73
117.697
114.308
111.482
109.147
107.232
105.676
104.422
103.419
102.623
101.998
101.51
101.133
100.844
100.623
100.457
100.333
100.24
100.172
100.123
100.087
100.061
100.042
100.029
100.02
100.014
100.009
100.006
100.004
100.003
100.002
100.001
100.001
100
100
100
100
100
100
100
100
100
100
100
100
100
100
100
100
100
100
100
100
100
100
100
388.965
366.989
345.292
324.052
303.436
283.596
264.663
246.75
229.945
214.314
199.896
186.71
174.753
164.002
154.417
145.942
138.513
132.055
126.489
121.731
117.698
114.308
111.482
109.147
107.232
105.676
104.422
103.419
102.623
101.998
101.51
101.133
100.844
100.623
100.457
100.333
100.24
100.172
100.123
100.087
100.061
100.042
100.029
100.02
100.014
100.009
100.006
100.004
100.003
100.002
100.001
100.001
100
100
100
100
100
100
100
100
100
100
100
100
100
100
100
100
100
100
100
100
100
100
100
388.965
366.989
345.292
324.052
303.436
283.596
264.663
246.75
229.946
214.314
199.896
186.71
174.753
164.002
154.417
145.942
138.513
132.055
126.489
121.731
117.698
114.308
111.482
109.147
107.232
105.676
104.422
103.419
102.623
101.998
101.51
101.133
100.844
100.623
100.457
100.333
100.24
100.172
100.123
100.087
100.061
100.042
100.029
100.02
100.014
100.009
100.006
100.004
100.003
100.002
100.001
100.001
100
100
100
100
100
100
100
100
100
100
100
100
100
100
100
100
100
100
100
100
100
100
100
388.965
366.989
345.292
324.052
303.437
283.596
264.664
246.751
229.946
214.314
199.896
186.71
174.754
164.002
154.417
145.942
138.513
132.055
126.489
121.731
117.698
114.308
111.482
109.147
107.233
105.676
104.422
103.419
102.623
101.998
101.51
101.133
100.844
100.623
100.457
100.333
100.24
100.172
100.123
100.087
100.061
100.042
100.029
100.02
100.014
100.009
100.006
100.004
100.003
100.002
100.001
100.001
100
100
100
100
100
100
100
100
100
100
100
100
100
100
100
100
100
100
100
100
100
100
100
388.965
366.989
345.292
324.052
303.437
283.596
264.664
246.751
229.946
214.314
199.896
186.711
174.754
164.002
154.417
145.942
138.513
132.056
126.489
121.731
117.698
114.308
111.482
109.147
107.233
105.676
104.422
103.419
102.623
101.998
101.51
101.133
100.844
100.623
100.457
100.333
100.24
100.172
100.123
100.087
100.061
100.042
100.029
100.02
100.014
100.009
100.006
100.004
100.003
100.002
100.001
100.001
100
100
100
100
100
100
100
100
100
100
100
100
100
100
100
100
100
100
100
100
100
100
100
388.965
366.989
345.292
324.052
303.437
283.596
264.664
246.751
229.946
214.314
199.896
186.711
174.754
164.002
154.417
145.942
138.513
132.056
126.489
121.731
117.698
114.308
111.482
109.147
107.233
105.676
104.422
103.419
102.623
101.998
101.51
101.133
100.844
100.623
100.457
100.333
100.24
100.172
100.123
100.087
100.061
100.042
100.029
100.02
100.014
100.009
100.006
100.004
100.003
100.002
100.001
100.001
100
100
100
100
100
100
100
100
100
100
100
100
100
100
100
100
100
100
100
100
100
100
100
388.965
366.989
345.292
324.052
303.437
283.596
264.664
246.751
229.946
214.314
199.896
186.711
174.754
164.003
154.417
145.942
138.513
132.056
126.489
121.731
117.698
114.308
111.482
109.147
107.233
105.676
104.422
103.419
102.623
101.998
101.51
101.133
100.844
100.623
100.457
100.333
100.24
100.172
100.123
100.087
100.061
100.042
100.029
100.02
100.014
100.009
100.006
100.004
100.003
100.002
100.001
100.001
100
100
100
100
100
100
100
100
100
100
100
100
100
100
100
100
100
100
100
100
100
100
100
388.965
366.989
345.292
324.052
303.437
283.596
264.664
246.751
229.946
214.314
199.896
186.711
174.754
164.003
154.417
145.942
138.513
132.056
126.489
121.731
117.698
114.308
111.482
109.147
107.233
105.676
104.422
103.419
102.623
101.998
101.51
101.133
100.844
100.623
100.457
100.333
100.24
100.172
100.123
100.087
100.061
100.042
100.029
100.02
100.014
100.009
100.006
100.004
100.003
100.002
100.001
100.001
100
100
100
100
100
100
100
100
100
100
100
100
100
100
100
100
100
100
100
100
100
100
100
388.965
366.989
345.292
324.052
303.437
283.596
264.664
246.751
229.946
214.314
199.896
186.711
174.754
164.003
154.417
145.943
138.513
132.056
126.489
121.731
117.698
114.308
111.482
109.147
107.233
105.676
104.422
103.419
102.623
101.998
101.51
101.133
100.844
100.623
100.457
100.333
100.24
100.172
100.123
100.087
100.061
100.042
100.029
100.02
100.014
100.009
100.006
100.004
100.003
100.002
100.001
100.001
100
100
100
100
100
100
100
100
100
100
100
100
100
100
100
100
100
100
100
100
100
100
100
388.965
366.989
345.292
324.052
303.437
283.596
264.664
246.751
229.946
214.314
199.896
186.711
174.754
164.003
154.417
145.943
138.513
132.056
126.489
121.731
117.698
114.308
111.482
109.147
107.233
105.676
104.422
103.419
102.623
101.998
101.51
101.133
100.844
100.623
100.457
100.333
100.24
100.172
100.123
100.087
100.061
100.042
100.029
100.02
100.014
100.009
100.006
100.004
100.003
100.002
100.001
100.001
100
100
100
100
100
100
100
100
100
100
100
100
100
100
100
100
100
100
100
100
100
100
100
388.965
366.989
345.292
324.052
303.437
283.596
264.664
246.751
229.946
214.314
199.896
186.711
174.754
164.003
154.417
145.943
138.513
132.056
126.489
121.731
117.698
114.308
111.482
109.147
107.233
105.676
104.422
103.419
102.623
101.998
101.51
101.133
100.844
100.623
100.457
100.333
100.24
100.172
100.123
100.087
100.061
100.042
100.029
100.02
100.014
100.009
100.006
100.004
100.003
100.002
100.001
100.001
100
100
100
100
100
100
100
100
100
100
100
100
100
100
100
100
100
100
100
100
100
100
100
388.965
366.989
345.292
324.052
303.437
283.596
264.664
246.751
229.946
214.314
199.896
186.711
174.754
164.003
154.417
145.943
138.513
132.056
126.489
121.731
117.698
114.308
111.482
109.147
107.233
105.676
104.422
103.419
102.623
101.998
101.51
101.133
100.844
100.623
100.457
100.333
100.24
100.172
100.123
100.087
100.061
100.042
100.029
100.02
100.014
100.009
100.006
100.004
100.003
100.002
100.001
100.001
100
100
100
100
100
100
100
100
100
100
100
100
100
100
100
100
100
100
100
100
100
100
100
388.965
366.989
345.292
324.052
303.437
283.596
264.664
246.751
229.946
214.314
199.896
186.711
174.754
164.003
154.417
145.943
138.513
132.056
126.489
121.731
117.698
114.308
111.482
109.147
107.233
105.676
104.422
103.419
102.623
101.998
101.51
101.133
100.844
100.623
100.457
100.333
100.24
100.172
100.123
100.087
100.061
100.042
100.029
100.02
100.014
100.009
100.006
100.004
100.003
100.002
100.001
100.001
100
100
100
100
100
100
100
100
100
100
100
100
100
100
100
100
100
100
100
100
100
100
100
388.965
366.989
345.292
324.052
303.437
283.596
264.664
246.751
229.946
214.314
199.896
186.711
174.754
164.003
154.417
145.943
138.513
132.056
126.489
121.731
117.698
114.308
111.482
109.147
107.233
105.676
104.422
103.419
102.623
101.998
101.51
101.133
100.844
100.623
100.457
100.333
100.24
100.172
100.123
100.087
100.061
100.042
100.029
100.02
100.014
100.009
100.006
100.004
100.003
100.002
100.001
100.001
100
100
100
100
100
100
100
100
100
100
100
100
100
100
100
100
100
100
100
100
100
100
100
388.965
366.989
345.292
324.052
303.437
283.596
264.664
246.751
229.946
214.314
199.896
186.711
174.754
164.003
154.417
145.943
138.513
132.056
126.489
121.731
117.698
114.308
111.482
109.147
107.233
105.676
104.422
103.419
102.623
101.998
101.51
101.133
100.844
100.623
100.457
100.333
100.24
100.172
100.123
100.087
100.061
100.042
100.029
100.02
100.014
100.009
100.006
100.004
100.003
100.002
100.001
100.001
100
100
100
100
100
100
100
100
100
100
100
100
100
100
100
100
100
100
100
100
100
100
100
388.965
366.989
345.292
324.052
303.437
283.596
264.664
246.751
229.946
214.314
199.896
186.711
174.754
164.003
154.417
145.943
138.513
132.056
126.489
121.731
117.698
114.308
111.482
109.147
107.233
105.676
104.422
103.419
102.623
101.998
101.51
101.133
100.844
100.623
100.457
100.333
100.24
100.172
100.123
100.087
100.061
100.042
100.029
100.02
100.014
100.009
100.006
100.004
100.003
100.002
100.001
100.001
100
100
100
100
100
100
100
100
100
100
100
100
100
100
100
100
100
100
100
100
100
100
100
388.965
366.989
345.292
324.052
303.437
283.596
264.664
246.751
229.946
214.314
199.896
186.711
174.754
164.003
154.417
145.943
138.513
132.056
126.489
121.731
117.698
114.308
111.482
109.147
107.233
105.676
104.422
103.419
102.623
101.998