/*--------------------------------*- C++ -*----------------------------------*\
  =========                 |
  \\      /  F ield         | OpenFOAM: The Open Source CFD Toolbox
   \\    /   O peration     | Website:  https://openfoam.org
    \\  /    A nd           | Version:  10
     \\/     M anipulation  |
\*---------------------------------------------------------------------------*/
FoamFile
{
    format      ascii;
    class       volScalarField;
    location    "393";
    object      T;
}
// * * * * * * * * * * * * * * * * * * * * * * * * * * * * * * * * * * * * * //

dimensions      [0 0 0 1 0 0 0];

internalField   nonuniform List<scalar> 
11250
(
249.865
167.624
139.47
127.097
120.362
116.102
113.13
110.918
109.196
107.814
106.677
105.726
104.921
104.232
103.639
103.127
102.683
102.298
101.963
101.673
101.421
101.203
101.015
100.854
100.715
100.597
100.496
100.41
100.338
100.277
100.227
100.184
100.149
100.12
100.096
100.077
100.061
100.048
100.038
100.03
100.023
100.018
100.014
100.011
100.008
100.006
100.005
100.004
100.003
100.002
100.001
100.001
100.001
100.001
100
100
100
100
100
100
100
100
100
100
100
100
100
100
100
100
100
100
100
100
100
331.567
248.788
202.639
175.662
158.625
147.034
138.648
132.282
127.272
123.218
119.868
117.057
114.67
112.625
110.863
109.338
108.015
106.865
105.867
105
104.248
103.598
103.036
102.553
102.139
101.785
101.483
101.227
101.011
100.83
100.678
100.551
100.446
100.359
100.288
100.23
100.183
100.145
100.114
100.089
100.069
100.054
100.042
100.032
100.024
100.019
100.014
100.011
100.008
100.006
100.004
100.003
100.002
100.002
100.001
100.001
100.001
100
100
100
100
100
100
100
100
100
100
100
100
100
100
100
100
100
100
359.185
293.336
246.658
214.318
191.482
174.808
162.197
152.351
144.455
137.985
132.592
128.037
124.15
120.809
117.922
115.418
113.242
111.349
109.703
108.272
107.031
105.956
105.028
104.229
103.544
102.957
102.458
102.034
101.677
101.376
101.124
100.914
100.74
100.596
100.478
100.382
100.303
100.24
100.189
100.148
100.115
100.089
100.069
100.053
100.04
100.031
100.023
100.017
100.013
100.01
100.007
100.005
100.004
100.003
100.002
100.002
100.001
100.001
100.001
100
100
100
100
100
100
100
100
100
100
100
100
100
100
100
100
371.032
318.734
276.377
243.523
218.241
198.595
183.069
170.566
160.318
151.787
144.595
138.468
133.206
128.662
124.719
121.29
118.302
115.699
113.43
111.457
109.742
108.257
106.973
105.867
104.917
104.104
103.412
102.825
102.328
101.911
101.561
101.27
101.028
100.828
100.664
100.53
100.421
100.333
100.262
100.205
100.16
100.124
100.096
100.074
100.056
100.043
100.032
100.024
100.018
100.014
100.01
100.007
100.005
100.004
100.003
100.002
100.002
100.001
100.001
100.001
100
100
100
100
100
100
100
100
100
100
100
100
100
100
100
377.249
334.223
296.644
265.229
239.452
218.371
201.04
186.662
174.61
164.408
155.695
148.201
141.717
136.083
131.173
126.886
123.14
119.868
117.012
114.522
112.357
110.478
108.853
107.452
106.248
105.217
104.338
103.592
102.962
102.431
101.987
101.616
101.309
101.055
100.846
100.676
100.537
100.424
100.334
100.262
100.204
100.158
100.122
100.094
100.072
100.054
100.041
100.031
100.023
100.017
100.013
100.009
100.007
100.005
100.004
100.003
100.002
100.001
100.001
100.001
100
100
100
100
100
100
100
100
100
100
100
100
100
100
100
381.006
344.306
310.813
281.387
256.084
234.533
216.214
200.604
187.24
175.737
165.786
157.137
149.594
142.998
137.219
132.153
127.712
123.821
120.416
117.443
114.853
112.603
110.654
108.972
107.526
106.287
105.23
104.332
103.573
102.933
102.397
101.951
101.58
101.274
101.022
100.816
100.648
100.513
100.404
100.316
100.246
100.191
100.148
100.113
100.087
100.066
100.05
100.037
100.028
100.021
100.016
100.011
100.008
100.006
100.004
100.003
100.002
100.002
100.001
100.001
100.001
100
100
100
100
100
100
100
100
100
100
100
100
100
100
383.49
351.23
320.996
293.534
269.102
247.629
228.869
212.51
198.235
185.757
174.825
165.228
156.788
149.359
142.815
137.053
131.982
127.527
123.619
120.199
117.214
114.617
112.364
110.418
108.743
107.307
106.081
105.039
104.157
103.414
102.791
102.271
101.84
101.484
101.191
100.951
100.756
100.598
100.471
100.369
100.287
100.223
100.172
100.132
100.101
100.077
100.058
100.044
100.033
100.024
100.018
100.013
100.01
100.007
100.005
100.004
100.003
100.002
100.001
100.001
100.001
100
100
100
100
100
100
100
100
100
100
100
100
100
100
385.231
356.186
328.503
302.779
279.323
258.205
239.345
222.576
207.699
194.512
182.823
172.463
163.28
155.142
147.935
141.56
135.93
130.967
126.602
122.773
119.425
116.507
113.974
111.781
109.892
108.272
106.887
105.709
104.711
103.87
103.165
102.577
102.088
101.684
101.352
101.08
100.858
100.679
100.535
100.419
100.327
100.253
100.196
100.15
100.115
100.087
100.066
100.05
100.037
100.028
100.021
100.015
100.011
100.008
100.006
100.004
100.003
100.002
100.002
100.001
100.001
100.001
100
100
100
100
100
100
100
100
100
100
100
100
100
386.501
359.846
334.156
309.905
287.391
266.745
247.981
231.029
215.776
202.088
189.829
178.866
169.076
160.345
152.572
145.666
139.543
134.129
129.354
125.156
121.478
118.267
115.475
113.056
110.969
109.176
107.644
106.339
105.233
104.301
103.519
102.865
102.322
101.873
101.504
101.202
100.955
100.756
100.595
100.466
100.364
100.282
100.218
100.167
100.128
100.097
100.074
100.055
100.042
100.031
100.023
100.017
100.012
100.009
100.007
100.005
100.003
100.002
100.002
100.001
100.001
100.001
100
100
100
100
100
100
100
100
100
100
100
100
100
387.454
362.613
338.489
315.461
293.796
273.65
255.085
238.094
222.624
208.595
195.914
184.482
174.203
164.982
156.732
149.371
142.82
137.009
131.87
127.343
123.368
119.891
116.863
114.237
111.969
110.018
108.349
106.927
105.721
104.704
103.849
103.135
102.542
102.051
101.647
101.316
101.047
100.828
100.652
100.511
100.399
100.309
100.239
100.184
100.14
100.107
100.081
100.061
100.046
100.034
100.025
100.019
100.014
100.01
100.007
100.005
100.004
100.003
100.002
100.001
100.001
100.001
100
100
100
100
100
100
100
100
100
100
100
100
100
388.184
364.743
341.857
319.834
298.911
279.246
260.925
243.982
228.403
214.149
201.161
189.37
178.702
169.081
160.433
152.684
145.766
139.609
134.152
129.332
125.092
121.378
118.138
115.324
112.89
110.796
109.002
107.472
106.174
105.078
104.157
103.387
102.747
102.217
101.781
101.423
101.132
100.896
100.706
100.553
100.432
100.335
100.259
100.199
100.152
100.116
100.088
100.066
100.049
100.037
100.027
100.02
100.015
100.011
100.008
100.006
100.004
100.003
100.002
100.001
100.001
100.001
100.001
100
100
100
100
100
100
100
100
100
100
100
100
388.751
366.405
344.504
323.305
303.016
283.789
265.725
248.876
233.26
218.865
205.658
193.595
182.62
172.676
163.698
155.625
148.393
141.939
136.204
131.128
126.654
122.728
119.298
116.315
113.733
111.508
109.601
107.973
106.591
105.423
104.441
103.62
102.936
102.371
101.905
101.523
101.212
100.959
100.756
100.593
100.462
100.359
100.277
100.213
100.163
100.124
100.094
100.071
100.053
100.039
100.029
100.022
100.016
100.012
100.008
100.006
100.004
100.003
100.002
100.002
100.001
100.001
100.001
100
100
100
100
100
100
100
100
100
100
100
100
389.197
367.716
346.603
326.078
306.324
287.487
269.67
252.939
237.33
222.852
209.493
197.225
186.012
175.807
166.56
158.215
150.718
144.01
138.035
132.736
128.057
123.944
120.346
117.213
114.498
112.156
110.147
108.43
106.972
105.739
104.701
103.833
103.111
102.512
102.019
101.614
101.285
101.017
100.802
100.629
100.491
100.381
100.294
100.226
100.173
100.132
100.1
100.075
100.056
100.042
100.031
100.023
100.017
100.012
100.009
100.006
100.005
100.003
100.002
100.002
100.001
100.001
100.001
100
100
100
100
100
100
100
100
100
100
100
100
389.55
368.758
348.279
328.304
309
290.501
272.912
256.306
240.732
226.211
212.747
200.328
188.93
178.517
169.05
160.482
152.762
145.839
139.658
134.166
129.308
125.033
121.287
118.021
115.187
112.741
110.64
108.845
107.318
106.026
104.938
104.028
103.269
102.641
102.123
101.698
101.352
101.071
100.844
100.662
100.517
100.401
100.31
100.238
100.182
100.139
100.105
100.079
100.059
100.044
100.033
100.024
100.018
100.013
100.009
100.007
100.005
100.004
100.003
100.002
100.001
100.001
100.001
100
100
100
100
100
100
100
100
100
100
100
100
389.833
369.591
349.623
330.099
311.169
292.961
275.576
259.094
243.568
229.031
215.498
202.968
191.426
180.85
171.204
162.451
154.546
147.441
141.086
135.428
130.417
125.999
122.124
118.742
115.804
113.266
111.084
109.218
107.629
106.285
105.152
104.204
103.413
102.758
102.218
101.774
101.413
101.119
100.882
100.692
100.54
100.42
100.324
100.249
100.191
100.145
100.11
100.083
100.062
100.046
100.034
100.025
100.019
100.014
100.01
100.007
100.005
100.004
100.003
100.002
100.001
100.001
100.001
100
100
100
100
100
100
100
100
100
100
100
100
390.059
370.26
350.706
331.55
312.931
294.97
277.765
261.398
245.926
231.391
217.814
205.203
193.553
182.846
173.057
164.153
156.094
148.837
142.334
136.536
131.392
126.852
122.865
119.381
116.353
113.733
111.48
109.551
107.908
106.517
105.345
104.362
103.543
102.864
102.303
101.843
101.468
101.163
100.917
100.72
100.562
100.436
100.337
100.259
100.198
100.151
100.114
100.086
100.065
100.048
100.036
100.026
100.019
100.014
100.01
100.007
100.005
100.004
100.003
100.002
100.001
100.001
100.001
100
100
100
100
100
100
100
100
100
100
100
100
390.241
370.799
351.58
332.726
314.364
296.611
279.563
263.3
247.884
233.36
219.757
207.088
195.354
184.546
174.642
165.615
157.429
150.045
143.418
137.501
132.245
127.6
123.516
119.944
116.837
114.147
111.831
109.847
108.157
106.724
105.516
104.504
103.659
102.958
102.38
101.905
101.517
101.203
100.949
100.744
100.581
100.451
100.349
100.268
100.205
100.156
100.118
100.089
100.067
100.05
100.037
100.027
100.02
100.015
100.011
100.008
100.006
100.004
100.003
100.002
100.001
100.001
100.001
100
100
100
100
100
100
100
100
100
100
100
100
390.388
371.234
352.288
333.679
315.531
297.952
281.037
264.867
249.505
234.999
221.381
208.671
196.875
185.986
175.991
166.864
158.574
151.085
144.354
138.337
132.985
128.251
124.084
120.437
117.261
114.51
112.14
110.108
108.376
106.907
105.668
104.629
103.762
103.042
102.448
101.96
101.562
101.238
100.976
100.766
100.598
100.465
100.359
100.276
100.212
100.161
100.122
100.092
100.069
100.051
100.038
100.028
100.021
100.015
100.011
100.008
100.006
100.004
100.003
100.002
100.001
100.001
100.001
100
100
100
100
100
100
100
100
100
100
100
100
390.507
371.586
352.86
334.453
316.48
299.046
282.246
266.156
250.844
236.358
222.734
209.996
198.152
187.202
177.133
167.925
159.551
151.975
145.158
139.056
133.624
128.814
124.578
120.866
117.631
114.827
112.41
110.337
108.568
107.068
105.802
104.74
103.853
103.116
102.508
102.009
101.601
101.269
101.001
100.786
100.614
100.477
100.369
100.284
100.217
100.165
100.125
100.094
100.071
100.053
100.039
100.029
100.021
100.016
100.011
100.008
100.006
100.004
100.003
100.002
100.002
100.001
100.001
100.001
100
100
100
100
100
100
100
100
100
100
100
390.603
371.871
353.324
335.08
317.251
299.939
283.234
267.215
251.947
237.482
223.858
211.1
199.22
188.222
178.095
168.823
160.379
152.732
145.843
139.672
134.173
129.299
125.003
121.236
117.951
115.102
112.645
110.536
108.736
107.209
105.919
104.837
103.932
103.182
102.561
102.052
101.635
101.297
101.023
100.803
100.628
100.488
100.377
100.29
100.222
100.169
100.128
100.097
100.072
100.054
100.04
100.03
100.022
100.016
100.012
100.008
100.006
100.004
100.003
100.002
100.002
100.001
100.001
100.001
100
100
100
100
100
100
100
100
100
100
100
390.68
372.101
353.699
335.589
317.878
300.666
284.042
268.083
252.854
238.409
224.788
212.016
200.111
189.075
178.902
169.578
161.078
153.372
146.425
140.196
134.641
129.714
125.367
121.554
118.227
115.34
112.847
110.708
108.882
107.331
106.021
104.921
104.002
103.238
102.608
102.089
101.665
101.321
101.042
100.819
100.639
100.497
100.384
100.296
100.226
100.172
100.131
100.099
100.074
100.055
100.041
100.03
100.022
100.016
100.012
100.009
100.006
100.004
100.003
100.002
100.002
100.001
100.001
100.001
100
100
100
100
100
100
100
100
100
100
100
390.743
372.287
354.003
336.002
318.387
301.258
284.7
268.792
253.598
239.172
225.554
212.774
200.849
189.784
179.576
170.21
161.665
153.912
146.917
140.639
135.038
130.066
125.678
121.826
118.463
115.543
113.022
110.856
109.007
107.436
106.109
104.994
104.062
103.288
102.648
102.122
101.692
101.342
101.059
100.832
100.65
100.505
100.391
100.301
100.23
100.175
100.133
100.1
100.075
100.056
100.042
100.031
100.023
100.017
100.012
100.009
100.006
100.004
100.003
100.002
100.002
100.001
100.001
100.001
100
100
100
100
100
100
100
100
100
100
100
390.794
372.437
354.248
336.335
318.8
301.738
285.236
269.37
254.205
239.796
226.184
213.399
201.46
190.373
180.136
170.737
162.155
154.364
147.329
141.013
135.373
130.364
125.941
122.056
118.664
115.716
113.17
110.983
109.114
107.526
106.184
105.057
104.114
103.33
102.682
102.15
101.714
101.36
101.074
100.843
100.659
100.512
100.396
100.305
100.234
100.178
100.135
100.102
100.076
100.057
100.042
100.031
100.023
100.017
100.012
100.009
100.006
100.005
100.003
100.002
100.002
100.001
100.001
100.001
100
100
100
100
100
100
100
100
100
100
100
390.834
372.558
354.446
336.604
319.133
302.126
285.67
269.84
254.701
240.307
226.7
213.912
201.962
190.858
180.599
171.174
162.563
154.741
147.674
141.325
135.654
130.615
126.163
122.251
118.833
115.863
113.297
111.091
109.206
107.603
106.249
105.11
104.158
103.367
102.712
102.174
101.734
101.376
101.086
100.853
100.667
100.518
100.401
100.309
100.236
100.18
100.137
100.103
100.077
100.058
100.043
100.032
100.023
100.017
100.012
100.009
100.006
100.005
100.003
100.002
100.002
100.001
100.001
100.001
100
100
100
100
100
100
100
100
100
100
100
390.867
372.656
354.606
336.821
319.402
302.441
286.022
270.221
255.103
240.722
227.122
214.332
202.374
191.257
180.981
171.534
162.9
155.053
147.96
141.586
135.888
130.824
126.348
122.414
118.976
115.987
113.403
111.182
109.283
107.668
106.303
105.156
104.196
103.398
102.738
102.195
101.75
101.389
101.097
100.862
100.674
100.524
100.405
100.312
100.239
100.182
100.138
100.104
100.078
100.058
100.043
100.032
100.023
100.017
100.013
100.009
100.007
100.005
100.003
100.002
100.002
100.001
100.001
100.001
100
100
100
100
100
100
100
100
100
100
100
390.893
372.734
354.734
336.996
319.618
302.694
286.306
270.529
255.429
241.06
227.464
214.674
202.711
191.584
181.293
171.831
163.178
155.311
148.197
141.801
136.083
130.998
126.503
122.551
119.095
116.09
113.492
111.258
109.348
107.723
106.35
105.194
104.228
103.424
102.759
102.212
101.765
101.401
101.106
100.869
100.679
100.528
100.409
100.315
100.241
100.184
100.139
100.105
100.079
100.059
100.044
100.032
100.024
100.017
100.013
100.009
100.007
100.005
100.003
100.002
100.002
100.001
100.001
100.001
100
100
100
100
100
100
100
100
100
100
100
390.915
372.797
354.836
337.136
319.792
302.897
286.534
270.777
255.692
241.332
227.741
214.951
202.984
191.85
181.549
172.073
163.406
155.522
148.392
141.979
136.244
131.143
126.631
122.664
119.194
116.177
113.567
111.322
109.402
107.769
106.388
105.226
104.254
103.446
102.777
102.227
101.777
101.41
101.114
100.875
100.684
100.532
100.412
100.317
100.243
100.185
100.14
100.106
100.079
100.059
100.044
100.033
100.024
100.017
100.013
100.009
100.007
100.005
100.003
100.002
100.002
100.001
100.001
100.001
100
100
100
100
100
100
100
100
100
100
100
390.931
372.847
354.918
337.248
319.931
303.06
286.717
270.977
255.904
241.552
227.965
215.176
203.206
192.065
181.757
172.271
163.592
155.695
148.552
142.125
136.376
131.261
126.737
122.758
119.276
116.248
113.629
111.375
109.447
107.808
106.42
105.253
104.277
103.464
102.792
102.239
101.787
101.418
101.12
100.88
100.688
100.535
100.414
100.319
100.244
100.186
100.141
100.106
100.08
100.06
100.044
100.033
100.024
100.018
100.013
100.009
100.007
100.005
100.003
100.002
100.002
100.001
100.001
100.001
100
100
100
100
100
100
100
100
100
100
100
390.945
372.886
354.983
337.337
320.042
303.19
286.864
271.136
256.073
241.728
228.145
215.356
203.384
192.24
181.925
172.431
163.743
155.836
148.682
142.244
136.484
131.359
126.824
122.834
119.344
116.307
113.679
111.419
109.485
107.839
106.447
105.276
104.295
103.48
102.805
102.249
101.795
101.425
101.125
100.884
100.692
100.538
100.416
100.321
100.246
100.187
100.142
100.107
100.08
100.06
100.045
100.033
100.024
100.018
100.013
100.009
100.007
100.005
100.003
100.002
100.002
100.001
100.001
100.001
100
100
100
100
100
100
100
100
100
100
100
390.955
372.918
355.035
337.408
320.13
303.294
286.98
271.264
256.209
241.869
228.289
215.501
203.528
192.38
182.06
172.56
163.865
155.95
148.787
142.341
136.572
131.438
126.895
122.897
119.399
116.355
113.721
111.455
109.516
107.865
106.469
105.294
104.311
103.492
102.815
102.258
101.802
101.431
101.13
100.888
100.694
100.54
100.418
100.322
100.247
100.188
100.142
100.107
100.081
100.06
100.045
100.033
100.024
100.018
100.013
100.009
100.007
100.005
100.003
100.002
100.002
100.001
100.001
100.001
100
100
100
100
100
100
100
100
100
100
100
390.964
372.943
355.076
337.464
320.2
303.376
287.073
271.365
256.316
241.982
228.404
215.617
203.642
192.492
182.169
172.664
163.963
156.042
148.872
142.419
136.643
131.502
126.952
122.948
119.444
116.394
113.755
111.484
109.541
107.887
106.487
105.309
104.323
103.503
102.824
102.265
101.807
101.435
101.134
100.891
100.697
100.542
100.419
100.323
100.247
100.189
100.143
100.108
100.081
100.06
100.045
100.033
100.024
100.018
100.013
100.009
100.007
100.005
100.003
100.002
100.002
100.001
100.001
100.001
100
100
100
100
100
100
100
100
100
100
100
390.97
372.963
355.109
337.508
320.256
303.441
287.146
271.445
256.402
242.071
228.495
215.709
203.734
192.582
182.255
172.747
164.041
156.116
148.94
142.482
136.7
131.554
126.998
122.989
119.48
116.426
113.783
111.508
109.561
107.904
106.502
105.322
104.334
103.511
102.831
102.271
101.812
101.439
101.137
100.893
100.699
100.544
100.421
100.324
100.248
100.189
100.143
100.108
100.081
100.061
100.045
100.033
100.024
100.018
100.013
100.009
100.007
100.005
100.003
100.002
100.002
100.001
100.001
100.001
100
100
100
100
100
100
100
100
100
100
100
390.976
372.978
355.134
337.543
320.299
303.492
287.204
271.508
256.469
242.141
228.568
215.782
203.806
192.653
182.324
172.813
164.104
156.174
148.995
142.532
136.746
131.595
127.036
123.022
119.509
116.452
113.805
111.527
109.578
107.918
106.514
105.332
104.342
103.518
102.837
102.275
101.816
101.442
101.139
100.895
100.7
100.545
100.422
100.325
100.249
100.19
100.144
100.108
100.081
100.061
100.045
100.033
100.025
100.018
100.013
100.009
100.007
100.005
100.003
100.002
100.002
100.001
100.001
100.001
100
100
100
100
100
100
100
100
100
100
100
390.98
372.991
355.154
337.57
320.333
303.532
287.249
271.558
256.522
242.197
228.625
215.839
203.864
192.709
182.379
172.865
164.153
156.221
149.038
142.572
136.782
131.628
127.065
123.049
119.533
116.472
113.823
111.543
109.591
107.93
106.523
105.34
104.349
103.524
102.841
102.279
101.819
101.444
101.141
100.897
100.701
100.546
100.422
100.325
100.249
100.19
100.144
100.109
100.082
100.061
100.045
100.033
100.025
100.018
100.013
100.009
100.007
100.005
100.003
100.002
100.002
100.001
100.001
100.001
100
100
100
100
100
100
100
100
100
100
100
390.983
373
355.17
337.592
320.36
303.564
287.285
271.597
256.564
242.24
228.669
215.884
203.909
192.753
182.422
172.906
164.193
156.258
149.073
142.603
136.811
131.654
127.089
123.07
119.552
116.489
113.838
111.555
109.602
107.939
106.531
105.346
104.354
103.529
102.845
102.282
101.822
101.446
101.143
100.898
100.703
100.547
100.423
100.326
100.25
100.19
100.144
100.109
100.082
100.061
100.045
100.034
100.025
100.018
100.013
100.009
100.007
100.005
100.003
100.002
100.002
100.001
100.001
100.001
100
100
100
100
100
100
100
100
100
100
100
390.985
373.007
355.182
337.608
320.381
303.588
287.313
271.627
256.596
242.274
228.704
215.92
203.944
192.788
182.455
172.939
164.224
156.287
149.1
142.628
136.834
131.675
127.108
123.087
119.566
116.502
113.849
111.565
109.61
107.946
106.537
105.351
104.359
103.532
102.848
102.285
101.824
101.448
101.144
100.899
100.703
100.547
100.424
100.326
100.25
100.191
100.144
100.109
100.082
100.061
100.045
100.034
100.025
100.018
100.013
100.01
100.007
100.005
100.003
100.002
100.002
100.001
100.001
100.001
100
100
100
100
100
100
100
100
100
100
100
390.987
373.013
355.191
337.621
320.397
303.607
287.334
271.651
256.621
242.3
228.731
215.947
203.971
192.815
182.482
172.964
164.248
156.31
149.121
142.648
136.852
131.692
127.122
123.1
119.578
116.512
113.858
111.573
109.617
107.952
106.542
105.355
104.362
103.535
102.85
102.287
101.825
101.449
101.145
100.9
100.704
100.548
100.424
100.327
100.25
100.191
100.145
100.109
100.082
100.061
100.045
100.034
100.025
100.018
100.013
100.01
100.007
100.005
100.004
100.002
100.002
100.001
100.001
100.001
100
100
100
100
100
100
100
100
100
100
100
390.989
373.018
355.199
337.631
320.409
303.622
287.351
271.669
256.641
242.321
228.752
215.969
203.992
192.836
182.502
172.984
164.266
156.327
149.138
142.663
136.866
131.704
127.134
123.11
119.587
116.52
113.865
111.579
109.622
107.956
106.546
105.359
104.365
103.537
102.852
102.288
101.826
101.45
101.146
100.901
100.705
100.548
100.424
100.327
100.25
100.191
100.145
100.109
100.082
100.061
100.045
100.034
100.025
100.018
100.013
100.01
100.007
100.005
100.004
100.002
100.002
100.001
100.001
100.001
100
100
100
100
100
100
100
100
100
100
100
390.99
373.021
355.204
337.639
320.419
303.633
287.363
271.683
256.656
242.336
228.768
215.985
204.009
192.852
182.518
172.999
164.281
156.341
149.15
142.675
136.877
131.714
127.143
123.118
119.594
116.526
113.87
111.584
109.626
107.96
106.549
105.361
104.367
103.539
102.854
102.289
101.827
101.451
101.147
100.901
100.705
100.549
100.425
100.327
100.251
100.191
100.145
100.109
100.082
100.061
100.046
100.034
100.025
100.018
100.013
100.01
100.007
100.005
100.004
100.002
100.002
100.001
100.001
100.001
100
100
100
100
100
100
100
100
100
100
100
390.991
373.023
355.209
337.645
320.426
303.642
287.373
271.694
256.667
242.348
228.781
215.998
204.022
192.865
182.53
173.011
164.292
156.352
149.16
142.684
136.886
131.722
127.15
123.124
119.6
116.531
113.875
111.588
109.629
107.963
106.551
105.363
104.369
103.54
102.855
102.29
101.828
101.452
101.147
100.902
100.705
100.549
100.425
100.327
100.251
100.191
100.145
100.109
100.082
100.061
100.046
100.034
100.025
100.018
100.013
100.01
100.007
100.005
100.004
100.002
100.002
100.001
100.001
100.001
100
100
100
100
100
100
100
100
100
100
100
390.991
373.025
355.212
337.649
320.432
303.648
287.38
271.702
256.676
242.358
228.79
216.007
204.031
192.874
182.54
173.02
164.301
156.36
149.168
142.692
136.892
131.728
127.155
123.129
119.604
116.535
113.878
111.59
109.632
107.965
106.553
105.365
104.37
103.542
102.856
102.291
101.829
101.452
101.148
100.902
100.706
100.549
100.425
100.327
100.251
100.191
100.145
100.109
100.082
100.061
100.046
100.034
100.025
100.018
100.013
100.01
100.007
100.005
100.004
100.002
100.002
100.001
100.001
100.001
100
100
100
100
100
100
100
100
100
100
100
390.992
373.027
355.214
337.652
320.436
303.653
287.386
271.708
256.683
242.365
228.798
216.015
204.039
192.882
182.547
173.027
164.307
156.366
149.174
142.697
136.897
131.732
127.159
123.133
119.607
116.538
113.881
111.593
109.634
107.966
106.555
105.366
104.371
103.542
102.856
102.292
101.829
101.453
101.148
100.902
100.706
100.549
100.425
100.327
100.251
100.191
100.145
100.109
100.082
100.061
100.046
100.034
100.025
100.018
100.013
100.01
100.007
100.005
100.004
100.002
100.002
100.001
100.001
100.001
100
100
100
100
100
100
100
100
100
100
100
390.992
373.028
355.216
337.655
320.439
303.657
287.39
271.713
256.688
242.37
228.803
216.02
204.044
192.887
182.552
173.032
164.312
156.371
149.178
142.701
136.901
131.736
127.163
123.136
119.61
116.54
113.883
111.594
109.635
107.968
106.556
105.367
104.372
103.543
102.857
102.292
101.83
101.453
101.148
100.903
100.706
100.549
100.425
100.327
100.251
100.191
100.145
100.109
100.082
100.061
100.046
100.034
100.025
100.018
100.013
100.01
100.007
100.005
100.004
100.002
100.002
100.001
100.001
100.001
100
100
100
100
100
100
100
100
100
100
100
390.993
373.029
355.217
337.657
320.441
303.66
287.394
271.716
256.692
242.374
228.807
216.024
204.048
192.891
182.556
173.036
164.316
156.374
149.182
142.704
136.904
131.739
127.165
123.138
119.612
116.542
113.884
111.596
109.637
107.969
106.556
105.368
104.372
103.543
102.857
102.292
101.83
101.453
101.148
100.903
100.706
100.549
100.425
100.328
100.251
100.191
100.145
100.109
100.082
100.061
100.046
100.034
100.025
100.018
100.013
100.01
100.007
100.005
100.004
100.002
100.002
100.001
100.001
100.001
100
100
100
100
100
100
100
100
100
100
100
390.993
373.03
355.219
337.658
320.443
303.662
287.396
271.719
256.694
242.377
228.81
216.028
204.052
192.895
182.559
173.039
164.319
156.377
149.184
142.707
136.906
131.741
127.167
123.14
119.613
116.543
113.885
111.597
109.637
107.969
106.557
105.368
104.373
103.544
102.858
102.293
101.83
101.453
101.148
100.903
100.706
100.549
100.425
100.328
100.251
100.191
100.145
100.109
100.082
100.061
100.046
100.034
100.025
100.018
100.013
100.01
100.007
100.005
100.004
100.002
100.002
100.001
100.001
100.001
100
100
100
100
100
100
100
100
100
100
100
390.993
373.03
355.219
337.659
320.445
303.663
287.398
271.721
256.697
242.379
228.813
216.03
204.054
192.897
182.561
173.041
164.321
156.379
149.186
142.708
136.908
131.742
127.168
123.141
119.614
116.544
113.886
111.597
109.638
107.97
106.558
105.368
104.373
103.544
102.858
102.293
101.83
101.454
101.149
100.903
100.706
100.549
100.425
100.328
100.251
100.191
100.145
100.11
100.082
100.061
100.046
100.034
100.025
100.018
100.013
100.01
100.007
100.005
100.004
100.002
100.002
100.001
100.001
100.001
100
100
100
100
100
100
100
100
100
100
100
390.993
373.03
355.22
337.66
320.446
303.665
287.399
271.722
256.698
242.381
228.814
216.032
204.056
192.899
182.563
173.043
164.323
156.38
149.187
142.71
136.909
131.743
127.169
123.142
119.615
116.545
113.887
111.598
109.639
107.97
106.558
105.369
104.373
103.544
102.858
102.293
101.83
101.454
101.149
100.903
100.706
100.55
100.425
100.328
100.251
100.191
100.145
100.11
100.082
100.061
100.046
100.034
100.025
100.018
100.013
100.01
100.007
100.005
100.004
100.002
100.002
100.001
100.001
100.001
100
100
100
100
100
100
100
100
100
100
100
390.993
373.031
355.22
337.661
320.446
303.666
287.4
271.723
256.699
242.382
228.816
216.033
204.057
192.9
182.564
173.044
164.324
156.382
149.189
142.711
136.91
131.744
127.17
123.142
119.616
116.546
113.887
111.598
109.639
107.971
106.558
105.369
104.373
103.545
102.858
102.293
101.83
101.454
101.149
100.903
100.706
100.55
100.425
100.328
100.251
100.191
100.145
100.11
100.082
100.061
100.046
100.034
100.025
100.018
100.013
100.01
100.007
100.005
100.004
100.002
100.002
100.001
100.001
100.001
100
100
100
100
100
100
100
100
100
100
100
390.993
373.031
355.221
337.661
320.447
303.666
287.401
271.724
256.7
242.383
228.817
216.034
204.058
192.901
182.565
173.045
164.325
156.382
149.189
142.711
136.91
131.745
127.17
123.143
119.616
116.546
113.888
111.599
109.639
107.971
106.558
105.369
104.374
103.545
102.858
102.293
101.831
101.454
101.149
100.903
100.706
100.55
100.425
100.328
100.251
100.191
100.145
100.11
100.082
100.061
100.046
100.034
100.025
100.018
100.013
100.01
100.007
100.005
100.004
100.002
100.002
100.001
100.001
100.001
100
100
100
100
100
100
100
100
100
100
100
390.993
373.031
355.221
337.661
320.447
303.667
287.401
271.725
256.701
242.384
228.817
216.035
204.059
192.902
182.566
173.046
164.325
156.383
149.19
142.712
136.911
131.745
127.171
123.143
119.617
116.546
113.888
111.599
109.639
107.971
106.558
105.369
104.374
103.545
102.858
102.293
101.831
101.454
101.149
100.903
100.706
100.55
100.425
100.328
100.251
100.191
100.145
100.11
100.082
100.061
100.046
100.034
100.025
100.018
100.013
100.01
100.007
100.005
100.004
100.002
100.002
100.001
100.001
100.001
100
100
100
100
100
100
100
100
100
100
100
390.993
373.031
355.221
337.662
320.447
303.667
287.402
271.725
256.701
242.384
228.818
216.035
204.059
192.902
182.567
173.046
164.326
156.383
149.19
142.712
136.911
131.745
127.171
123.144
119.617
116.546
113.888
111.599
109.639
107.971
106.559
105.369
104.374
103.545
102.858
102.293
101.831
101.454
101.149
100.903
100.706
100.55
100.425
100.328
100.251
100.191
100.145
100.11
100.082
100.061
100.046
100.034
100.025
100.018
100.013
100.01
100.007
100.005
100.004
100.002
100.002
100.001
100.001
100.001
100
100
100
100
100
100
100
100
100
100
100
390.993
373.031
355.221
337.662
320.448
303.667
287.402
271.726
256.702
242.385
228.818
216.036
204.06
192.902
182.567
173.047
164.326
156.384
149.191
142.713
136.912
131.746
127.171
123.144
119.617
116.547
113.888
111.599
109.64
107.971
106.559
105.369
104.374
103.545
102.859
102.293
101.831
101.454
101.149
100.903
100.706
100.55
100.425
100.328
100.251
100.191
100.145
100.11
100.082
100.061
100.046
100.034
100.025
100.018
100.013
100.01
100.007
100.005
100.004
100.002
100.002
100.001
100.001
100.001
100
100
100
100
100
100
100
100
100
100
100
390.993
373.031
355.221
337.662
320.448
303.667
287.402
271.726
256.702
242.385
228.818
216.036
204.06
192.903
182.567
173.047
164.326
156.384
149.191
142.713
136.912
131.746
127.172
123.144
119.617
116.547
113.888
111.599
109.64
107.971
106.559
105.37
104.374
103.545
102.859
102.293
101.831
101.454
101.149
100.903
100.706
100.55
100.425
100.328
100.251
100.191
100.145
100.11
100.082
100.061
100.046
100.034
100.025
100.018
100.013
100.01
100.007
100.005
100.004
100.002
100.002
100.001
100.001
100.001
100
100
100
100
100
100
100
100
100
100
100
390.993
373.031
355.221
337.662
320.448
303.668
287.402
271.726
256.702
242.385
228.819
216.036
204.06
192.903
182.567
173.047
164.327
156.384
149.191
142.713
136.912
131.746
127.172
123.144
119.617
116.547
113.888
111.599
109.64
107.971
106.559
105.37
104.374
103.545
102.859
102.293
101.831
101.454
101.149
100.903
100.706
100.55
100.425
100.328
100.251