/*--------------------------------*- C++ -*----------------------------------*\
  =========                 |
  \\      /  F ield         | OpenFOAM: The Open Source CFD Toolbox
   \\    /   O peration     | Website:  https://openfoam.org
    \\  /    A nd           | Version:  10
     \\/     M anipulation  |
\*---------------------------------------------------------------------------*/
FoamFile
{
    format      ascii;
    class       volScalarField;
    location    "473";
    object      T;
}
// * * * * * * * * * * * * * * * * * * * * * * * * * * * * * * * * * * * * * //

dimensions      [0 0 0 1 0 0 0];

internalField   nonuniform List<scalar> 
11250
(
249.888
167.692
139.583
127.252
120.558
116.335
113.397
111.215
109.519
108.158
107.038
106.1
105.302
104.617
104.024
103.508
103.056
102.66
102.312
102.006
101.737
101.501
101.293
101.111
100.952
100.814
100.693
100.588
100.498
100.42
100.353
100.295
100.246
100.205
100.17
100.14
100.115
100.094
100.077
100.062
100.05
100.041
100.033
100.026
100.021
100.016
100.013
100.01
100.008
100.006
100.005
100.004
100.003
100.002
100.002
100.001
100.001
100.001
100.001
100
100
100
100
100
100
100
100
100
100
100
100
100
100
100
100
331.635
248.992
202.977
176.127
159.211
147.732
139.447
133.172
128.239
124.249
120.95
118.176
115.813
113.779
112.015
110.478
109.132
107.95
106.912
105.998
105.195
104.488
103.868
103.325
102.849
102.435
102.074
101.761
101.49
101.257
101.056
100.884
100.738
100.613
100.508
100.419
100.344
100.282
100.23
100.187
100.151
100.122
100.098
100.078
100.062
100.049
100.039
100.031
100.024
100.019
100.014
100.011
100.009
100.007
100.005
100.004
100.003
100.002
100.002
100.001
100.001
100.001
100.001
100
100
100
100
100
100
100
100
100
100
100
100
359.299
293.675
247.219
215.091
192.455
175.967
163.524
153.828
146.061
139.698
134.389
129.896
126.049
122.726
119.837
117.312
115.098
113.151
111.439
109.931
108.603
107.435
106.41
105.51
104.724
104.037
103.439
102.92
102.472
102.085
101.752
101.467
101.224
101.018
100.843
100.695
100.571
100.468
100.381
100.31
100.251
100.202
100.162
100.13
100.103
100.082
100.065
100.051
100.04
100.031
100.024
100.019
100.014
100.011
100.008
100.006
100.005
100.004
100.003
100.002
100.002
100.001
100.001
100.001
100
100
100
100
100
100
100
100
100
100
100
371.19
319.207
277.158
244.599
219.596
200.209
184.918
172.623
162.554
154.173
147.098
141.057
135.851
131.332
127.386
123.927
120.887
118.209
115.848
113.766
111.932
110.317
108.897
107.651
106.561
105.608
104.779
104.059
103.436
102.898
102.436
102.04
101.703
101.415
101.172
100.967
100.795
100.651
100.531
100.431
100.349
100.281
100.226
100.18
100.144
100.114
100.09
100.071
100.055
100.043
100.034
100.026
100.02
100.015
100.012
100.009
100.007
100.005
100.004
100.003
100.002
100.002
100.001
100.001
100.001
100
100
100
100
100
100
100
100
100
100
377.452
334.828
297.641
266.603
241.183
220.432
203.401
189.289
177.466
167.454
158.892
151.508
145.094
139.492
134.578
130.254
126.441
123.074
120.099
117.471
115.153
113.109
111.31
109.73
108.347
107.137
106.084
105.168
104.376
103.692
103.104
102.6
102.17
101.804
101.495
101.233
101.014
100.83
100.677
100.55
100.445
100.359
100.288
100.23
100.183
100.145
100.115
100.09
100.071
100.055
100.043
100.033
100.025
100.02
100.015
100.011
100.009
100.006
100.005
100.004
100.003
100.002
100.001
100.001
100.001
100.001
100
100
100
100
100
100
100
100
100
381.251
345.038
312.021
283.053
258.181
237.031
219.076
203.787
190.701
179.429
169.66
161.145
153.687
147.13
141.347
136.235
131.711
127.705
124.157
121.017
118.241
115.791
113.632
111.734
110.07
108.614
107.345
106.242
105.286
104.461
103.751
103.143
102.624
102.182
101.808
101.492
101.227
101.004
100.819
100.666
100.539
100.434
100.348
100.279
100.222
100.176
100.139
100.109
100.086
100.067
100.052
100.04
100.031
100.024
100.018
100.014
100.01
100.008
100.006
100.004
100.003
100.002
100.002
100.001
100.001
100.001
100.001
100
100
100
100
100
100
100
100
383.777
352.087
322.41
295.482
271.555
250.551
232.217
216.234
202.284
190.076
179.357
169.916
161.577
154.193
147.644
141.828
136.662
132.071
127.996
124.38
121.178
118.346
115.848
113.649
111.719
110.03
108.555
107.273
106.162
105.202
104.375
103.667
103.061
102.547
102.11
101.742
101.432
101.173
100.957
100.778
100.629
100.507
100.407
100.326
100.259
100.206
100.162
100.128
100.1
100.078
100.061
100.047
100.036
100.028
100.021
100.016
100.012
100.009
100.007
100.005
100.004
100.003
100.002
100.002
100.001
100.001
100.001
100
100
100
100
100
100
100
100
385.559
357.164
330.115
305.001
282.121
261.538
243.162
226.823
212.317
199.437
187.992
177.81
168.74
160.655
153.442
147.007
141.267
136.15
131.593
127.542
123.946
120.761
117.947
115.466
113.287
111.377
109.709
108.257
106.998
105.909
104.972
104.168
103.481
102.896
102.4
101.982
101.63
101.335
101.089
100.885
100.717
100.578
100.464
100.371
100.295
100.234
100.185
100.145
100.114
100.089
100.069
100.053
100.041
100.032
100.024
100.018
100.014
100.01
100.008
100.006
100.004
100.003
100.002
100.002
100.001
100.001
100.001
100
100
100
100
100
100
100
100
386.868
360.939
335.959
312.391
290.52
270.472
252.25
235.779
220.94
207.597
195.61
184.846
175.183
166.511
158.732
151.758
145.512
139.926
134.937
130.49
126.534
123.025
119.919
117.177
114.765
112.65
110.8
109.189
107.791
106.581
105.539
104.645
103.88
103.229
102.677
102.211
101.818
101.49
101.216
100.988
100.8
100.645
100.518
100.414
100.33
100.262
100.207
100.163
100.127
100.099
100.077
100.06
100.046
100.035
100.027
100.02
100.016
100.012
100.009
100.007
100.005
100.004
100.003
100.002
100.001
100.001
100.001
100.001
100
100
100
100
100
100
100
387.858
363.817
340.474
318.198
297.243
277.755
259.788
243.326
228.312
214.662
202.281
191.068
180.93
171.774
163.516
156.08
149.393
143.393
138.019
133.217
128.936
125.131
121.758
118.776
116.15
113.844
111.826
110.067
108.538
107.216
106.075
105.096
104.258
103.545
102.939
102.428
101.997
101.637
101.336
101.086
100.879
100.709
100.569
100.455
100.363
100.288
100.227
100.179
100.14
100.109
100.085
100.066
100.051
100.039
100.03
100.023
100.017
100.013
100.01
100.007
100.005
100.004
100.003
100.002
100.002
100.001
100.001
100.001
100
100
100
100
100
100
100
388.623
366.052
344.016
322.811
302.66
283.71
266.039
249.672
234.589
220.747
208.085
196.533
186.018
176.467
167.811
159.981
152.915
146.553
140.84
135.721
131.149
127.077
123.461
120.261
117.438
114.957
112.783
110.887
109.238
107.81
106.578
105.519
104.614
103.842
103.186
102.632
102.166
101.776
101.45
101.179
100.954
100.77
100.618
100.495
100.394
100.313
100.247
100.194
100.152
100.119
100.092
100.071
100.055
100.042
100.032
100.025
100.019
100.014
100.011
100.008
100.006
100.004
100.003
100.002
100.002
100.001
100.001
100.001
100
100
100
100
100
100
100
389.223
367.814
346.829
326.509
307.051
288.594
271.229
255
239.918
225.967
213.11
201.304
190.494
180.625
171.639
163.478
156.088
149.413
143.402
138.004
133.173
128.862
125.027
121.629
118.628
115.987
113.671
111.648
109.889
108.363
107.047
105.915
104.946
104.119
103.418
102.824
102.325
101.906
101.556
101.266
101.025
100.827
100.664
100.531
100.423
100.336
100.265
100.209
100.164
100.128
100.099
100.077
100.059
100.045
100.035
100.026
100.02
100.015
100.011
100.008
100.006
100.005
100.003
100.003
100.002
100.001
100.001
100.001
100.001
100
100
100
100
100
100
389.7
369.219
349.083
329.496
310.628
292.612
275.541
259.472
244.433
230.428
217.443
205.449
194.412
184.287
175.03
166.593
158.927
151.983
145.714
140.072
135.011
130.488
126.459
122.883
119.72
116.934
114.489
112.352
110.49
108.876
107.482
106.282
105.254
104.378
103.633
103.003
102.472
102.027
101.656
101.347
101.091
100.88
100.707
100.566
100.451
100.358
100.283
100.222
100.174
100.136
100.106
100.082
100.063
100.048
100.037
100.028
100.021
100.016
100.012
100.009
100.007
100.005
100.004
100.003
100.002
100.001
100.001
100.001
100.001
100
100
100
100
100
100
390.084
370.349
350.904
331.923
313.556
295.927
279.128
263.223
248.251
234.231
221.163
209.035
197.822
187.495
178.018
169.351
161.453
154.279
147.787
141.933
136.671
131.961
127.758
124.023
120.716
117.8
115.238
112.996
111.043
109.347
107.882
106.621
105.539
104.617
103.832
103.169
102.609
102.14
101.748
101.422
101.152
100.93
100.747
100.598
100.476
100.378
100.299
100.235
100.184
100.144
100.112
100.087
100.067
100.051
100.039
100.03
100.023
100.017
100.013
100.01
100.007
100.005
100.004
100.003
100.002
100.002
100.001
100.001
100.001
100
100
100
100
100
100
390.393
371.265
352.384
333.904
315.961
298.667
282.113
266.367
251.476
237.466
224.349
212.124
200.779
190.292
180.636
171.78
163.686
156.319
149.636
143.597
138.161
133.286
128.93
125.055
121.619
118.587
115.92
113.584
111.548
109.779
108.249
106.931
105.801
104.836
104.016
103.321
102.735
102.244
101.834
101.492
101.209
100.976
100.784
100.628
100.5
100.397
100.314
100.247
100.194
100.151
100.117
100.091
100.07
100.054
100.041
100.031
100.024
100.018
100.013
100.01
100.007
100.006
100.004
100.003
100.002
100.002
100.001
100.001
100.001
100
100
100
100
100
100
390.645
372.01
353.593
335.529
317.941
300.936
284.6
269.003
254.195
240.21
227.069
214.777
203.331
192.719
182.919
173.907
165.651
158.119
151.274
145.077
139.49
134.471
129.982
125.982
122.433
119.297
116.536
114.117
112.006
110.171
108.582
107.214
106.04
105.037
104.183
103.461
102.851
102.339
101.912
101.556
101.261
101.018
100.818
100.655
100.522
100.415
100.328
100.258
100.202
100.158
100.123
100.095
100.073
100.056
100.043
100.033
100.025
100.019
100.014
100.01
100.008
100.006
100.004
100.003
100.002
100.002
100.001
100.001
100.001
100
100
100
100
100
100
390.851
372.62
354.583
336.864
319.576
302.817
286.673
271.211
256.485
242.534
229.384
217.047
205.527
194.816
184.901
175.761
167.371
159.701
152.718
146.386
140.668
135.526
130.92
126.812
123.162
119.934
117.091
114.597
112.419
110.525
108.885
107.471
106.256
105.219
104.336
103.588
102.957
102.427
101.983
101.615
101.309
101.057
100.849
100.68
100.542
100.431
100.34
100.268
100.21
100.164
100.127
100.099
100.076
100.058
100.045
100.034
100.026
100.019
100.015
100.011
100.008
100.006
100.004
100.003
100.002
100.002
100.001
100.001
100.001
100
100
100
100
100
100
391.02
373.12
355.397
337.965
320.927
304.379
288.4
273.059
258.411
244.499
231.35
218.984
207.408
196.621
186.614
177.371
168.87
161.085
153.985
147.538
141.708
136.459
131.752
127.549
123.812
120.504
117.587
115.028
112.79
110.844
109.157
107.702
106.452
105.383
104.474
103.703
103.052
102.505
102.048
101.668
101.352
101.092
100.878
100.703
100.561
100.445
100.352
100.277
100.217
100.17
100.132
100.102
100.079
100.06
100.046
100.035
100.027
100.02
100.015
100.011
100.008
100.006
100.005
100.003
100.002
100.002
100.001
100.001
100.001
100
100
100
100
100
100
391.158
373.53
356.067
338.873
322.045
305.674
289.839
274.605
260.03
246.156
233.016
220.632
209.016
198.17
188.089
178.762
170.169
162.288
155.091
148.546
142.621
137.28
132.485
128.201
124.388
121.009
118.029
115.411
113.122
111.128
109.4
107.909
106.628
105.531
104.598
103.806
103.138
102.577
102.107
101.716
101.391
101.124
100.904
100.724
100.577
100.458
100.362
100.285
100.224
100.175
100.136
100.105
100.081
100.062
100.048
100.036
100.027
100.021
100.016
100.012
100.009
100.006
100.005
100.003
100.003
100.002
100.001
100.001
100.001
100
100
100
100
100
100
391.272
373.869
356.619
339.622
322.971
306.75
291.037
275.897
261.387
247.551
234.423
222.03
210.384
199.493
189.354
179.959
171.291
163.33
156.051
149.424
143.418
137.999
133.13
128.774
124.895
121.456
118.419
115.751
113.416
111.381
109.617
108.094
106.784
105.664
104.709
103.899
103.215
102.641
102.16
101.759
101.427
101.152
100.927
100.742
100.592
100.47
100.372
100.293
100.23
100.179
100.14
100.108
100.083
100.064
100.049
100.037
100.028
100.021
100.016
100.012
100.009
100.007
100.005
100.004
100.003
100.002
100.001
100.001
100.001
100.001
100
100
100
100
100
391.366
374.147
357.074
340.241
323.737
307.643
292.034
276.975
262.523
248.722
235.61
223.212
211.546
200.62
190.435
180.984
172.255
164.229
156.881
150.186
144.111
138.625
133.692
129.276
125.34
121.848
118.763
116.05
113.675
111.605
109.809
108.258
106.923
105.781
104.808
103.982
103.284
102.698
102.207
101.798
101.458
101.178
100.948
100.759
100.606
100.481
100.38
100.3
100.235
100.184
100.143
100.111
100.085
100.065
100.05
100.038
100.029
100.022
100.016
100.012
100.009
100.007
100.005
100.004
100.003
100.002
100.001
100.001
100.001
100.001
100
100
100
100
100
391.443
374.377
357.45
340.753
324.371
308.383
292.863
277.874
263.473
249.705
236.608
224.209
212.529
201.576
191.355
181.86
173.081
165
157.596
150.843
144.711
139.168
134.181
129.713
125.728
122.191
119.064
116.313
113.903
111.802
109.978
108.402
107.046
105.885
104.895
104.055
103.345
102.748
102.249
101.832
101.486
101.201
100.966
100.774
100.618
100.491
100.388
100.306
100.24
100.187
100.146
100.113
100.087
100.067
100.051
100.039
100.029
100.022
100.017
100.013
100.009
100.007
100.005
100.004
100.003
100.002
100.001
100.001
100.001
100.001
100
100
100
100
100
391.507
374.566
357.76
341.175
324.895
308.996
293.551
278.622
264.265
250.526
237.444
225.048
213.358
202.385
192.135
182.605
173.785
165.66
158.209
151.407
145.227
139.637
134.603
130.091
126.065
122.489
119.326
116.542
114.103
111.975
110.127
108.529
107.154
105.977
104.972
104.12
103.399
102.793
102.285
101.862
101.511
101.221
100.983
100.787
100.628
100.499
100.395
100.311
100.244
100.191
100.148
100.115
100.089
100.068
100.052
100.04
100.03
100.023
100.017
100.013
100.01
100.007
100.005
100.004
100.003
100.002
100.001
100.001
100.001
100.001
100
100
100
100
100
391.559
374.722
358.015
341.523
325.328
309.504
294.121
279.243
264.925
251.212
238.145
225.752
214.055
203.067
192.795
183.236
174.383
166.221
158.732
151.89
145.67
140.04
134.967
130.418
126.356
122.747
119.554
116.741
114.276
112.125
110.256
108.64
107.249
106.057
105.04
104.176
103.447
102.832
102.318
101.889
101.533
101.239
100.997
100.799
100.638
100.507
100.401
100.316
100.248
100.194
100.151
100.117
100.09
100.069
100.053
100.04
100.03
100.023
100.017
100.013
100.01
100.007
100.005
100.004
100.003
100.002
100.002
100.001
100.001
100.001
100
100
100
100
100
391.602
374.85
358.225
341.811
325.685
309.923
294.593
279.758
265.473
251.783
238.729
226.34
214.639
203.64
193.351
183.769
174.889
166.698
159.176
152.301
146.047
140.384
135.279
130.698
126.607
122.969
119.75
116.913
114.426
112.255
110.368
108.736
107.331
106.126
105.099
104.226
103.488
102.867
102.346
101.913
101.552
101.255
101.01
100.809
100.646
100.513
100.406
100.32
100.251
100.196
100.153
100.118
100.091
100.07
100.054
100.041
100.031
100.023
100.018
100.013
100.01
100.007
100.005
100.004
100.003
100.002
100.002
100.001
100.001
100.001
100
100
100
100
100
391.638
374.956
358.398
342.047
325.979
310.269
294.983
280.185
265.927
252.257
239.215
226.831
215.127
204.12
193.817
184.217
175.316
167.1
159.552
152.65
146.368
140.677
135.545
130.937
126.821
123.159
119.918
117.061
114.555
112.367
110.465
108.819
107.402
106.187
105.15
104.269
103.524
102.897
102.371
101.933
101.569
101.268
101.021
100.818
100.653
100.519
100.411
100.324
100.254
100.198
100.154
100.12
100.092
100.071
100.054
100.041
100.031
100.024
100.018
100.013
100.01
100.007
100.005
100.004
100.003
100.002
100.002
100.001
100.001
100.001
100
100
100
100
100
391.667
375.042
358.54
342.241
326.221
310.553
295.305
280.536
266.303
252.65
239.618
227.239
215.534
204.521
194.207
184.593
175.674
167.438
159.869
152.945
146.64
140.925
135.77
131.141
127.003
123.322
120.062
117.188
114.666
112.463
110.548
108.891
107.463
106.239
105.194
104.306
103.555
102.923
102.393
101.951
101.584
101.28
101.031
100.826
100.659
100.524
100.415
100.327
100.257
100.2
100.156
100.121
100.093
100.072
100.055
100.042
100.032
100.024
100.018
100.013
100.01
100.007
100.005
100.004
100.003
100.002
100.002
100.001
100.001
100.001
100
100
100
100
100
391.691
375.113
358.656
342.4
326.42
310.787
295.569
280.826
266.612
252.975
239.952
227.577
215.872
204.854
194.532
184.907
175.974
167.722
160.135
153.193
146.869
141.135
135.961
131.313
127.158
123.46
120.184
117.296
114.76
112.545
110.619
108.952
107.516
106.283
105.232
104.338
103.581
102.945
102.411
101.966
101.596
101.29
101.039
100.833
100.665
100.528
100.418
100.33
100.259
100.202
100.157
100.122
100.094
100.072
100.055
100.042
100.032
100.024
100.018
100.014
100.01
100.008
100.006
100.004
100.003
100.002
100.002
100.001
100.001
100.001
100
100
100
100
100
391.71
375.171
358.751
342.53
326.582
310.979
295.786
281.064
266.867
253.242
240.228
227.856
216.152
205.13
194.802
185.167
176.223
167.959
160.358
153.4
147.061
141.311
136.122
131.459
127.289
123.577
120.288
117.387
114.84
112.615
110.68
109.004
107.56
106.322
105.264
104.365
103.604
102.964
102.427
101.979
101.607
101.299
101.046
100.839
100.67
100.532
100.421
100.332
100.261
100.204
100.158
100.123
100.095
100.073
100.056
100.042
100.032
100.024
100.018
100.014
100.01
100.008
100.006
100.004
100.003
100.002
100.002
100.001
100.001
100.001
100
100
100
100
100
391.726
375.218
358.829
342.636
326.715
311.136
295.964
281.259
267.076
253.462
240.454
228.086
216.382
205.359
195.025
185.384
176.431
168.156
160.543
153.573
147.221
141.459
136.256
131.581
127.399
123.675
120.375
117.464
114.908
112.674
110.731
109.048
107.598
106.354
105.291
104.388
103.624
102.98
102.441
101.99
101.616
101.307
101.052
100.844
100.674
100.535
100.424
100.334
100.262
100.205
100.159
100.124
100.095
100.073
100.056
100.043
100.032
100.024
100.018
100.014
100.01
100.008
100.006
100.004
100.003
100.002
100.002
100.001
100.001
100.001
100
100
100
100
100
391.739
375.256
358.892
342.723
326.823
311.263
296.109
281.419
267.247
253.641
240.64
228.276
216.572
205.547
195.209
185.562
176.602
168.319
160.697
153.717
147.354
141.582
136.368
131.683
127.49
123.757
120.448
117.529
114.965
112.724
110.774
109.086
107.63
106.381
105.315
104.408
103.64
102.994
102.452
102
101.624
101.313
101.058
100.848
100.677
100.538
100.426
100.336
100.264
100.206
100.16
100.124
100.096
100.074
100.056
100.043
100.033
100.025
100.018
100.014
100.01
100.008
100.006
100.004
100.003
100.002
100.002
100.001
100.001
100.001
100
100
100
100
100
391.749
375.287
358.943
342.793
326.911
311.367
296.227
281.549
267.387
253.788
240.792
228.43
216.728
205.701
195.361
185.71
176.744
168.454
160.824
153.836
147.465
141.684
136.462
131.767
127.567
123.826
120.509
117.583
115.013
112.766
110.81
109.117
107.657
106.404
105.334
104.424
103.654
103.006
102.462
102.008
101.631
101.319
101.062
100.852
100.68
100.541
100.428
100.337
100.265
100.207
100.161
100.125
100.096
100.074
100.057
100.043
100.033
100.025
100.019
100.014
100.01
100.008
100.006
100.004
100.003
100.002
100.002
100.001
100.001
100.001
100
100
100
100
100
391.758
375.313
358.985
342.85
326.983
311.452
296.322
281.654
267.501
253.908
240.916
228.557
216.855
205.827
195.485
185.83
176.86
168.564
160.929
153.934
147.556
141.768
136.539
131.838
127.63
123.883
120.56
117.628
115.052
112.8
110.841
109.143
107.68
106.424
105.351
104.438
103.666
103.015
102.47
102.015
101.636
101.323
101.066
100.855
100.682
100.543
100.43
100.339
100.266
100.208
100.162
100.125
100.097
100.074
100.057
100.043
100.033
100.025
100.019
100.014
100.01
100.008
100.006
100.004
100.003
100.002
100.002
100.001
100.001
100.001
100
100
100
100
100
391.765
375.333
359.018
342.896
327.04
311.52
296.4
281.74
267.593
254.005
241.017
228.659
216.958
205.93
195.586
185.929
176.955
168.655
161.015
154.015
147.631
141.837
136.603
131.896
127.683
123.93
120.602
117.665
115.085
112.829
110.866
109.165
107.698
106.44
105.364
104.45
103.676
103.024
102.477
102.02
101.641
101.327
101.069
100.857
100.684
100.544
100.431
100.34
100.267
100.208
100.162
100.126
100.097
100.075
100.057
100.043
100.033
100.025
100.019
100.014
100.01
100.008
100.006
100.004
100.003
100.002
100.002
100.001
100.001
100.001
100
100
100
100
100
391.77
375.35
359.045
342.934
327.087
311.575
296.463
281.809
267.667
254.084
241.098
228.743
217.042
206.014
195.668
186.009
177.032
168.729
161.085
154.081
147.693
141.894
136.655
131.943
127.726
123.969
120.637
117.696
115.112
112.853
110.887
109.183
107.714
106.453
105.376
104.459
103.684
103.03
102.482
102.025
101.645
101.33
101.071
100.859
100.686
100.546
100.432
100.341
100.267
100.209
100.163
100.126
100.097
100.075
100.057
100.044
100.033
100.025
100.019
100.014
100.01
100.008
100.006
100.004
100.003
100.002
100.002
100.001
100.001
100.001
100
100
100
100
100
391.775
375.363
359.067
342.963
327.124
311.619
296.513
281.865
267.727
254.147
241.164
228.81
217.11
206.082
195.735
186.074
177.095
168.789
161.142
154.134
147.743
141.94
136.697
131.982
127.761
124
120.665
117.721
115.135
112.873
110.904
109.198
107.727
106.464
105.385
104.467
103.691
103.036
102.487
102.029
101.648
101.333
101.074
100.861
100.688
100.547
100.433
100.341
100.268
100.209
100.163
100.126
100.098
100.075
100.057
100.044
100.033
100.025
100.019
100.014
100.011
100.008
100.006
100.004
100.003
100.002
100.002
100.001
100.001
100.001
100
100
100
100
100
391.778
375.373
359.085
342.987
327.154
311.655
296.553
281.909
267.775
254.198
241.217
228.864
217.165
206.136
195.789
186.126
177.146
168.838
161.188
154.178
147.783
141.978
136.732
132.014
127.79
124.026
120.689
117.742
115.153
112.889
110.918
109.21
107.737
106.473
105.393
104.474
103.696
103.041
102.491
102.032
101.651
101.335
101.075
100.863
100.689
100.548
100.434
100.342
100.268
100.21
100.163
100.127
100.098
100.075
100.057
100.044
100.033
100.025
100.019
100.014
100.011
100.008
100.006
100.004
100.003
100.002
100.002
100.001
100.001
100.001
100
100
100
100
100
391.781
375.382
359.098
343.006
327.178
311.683
296.586
281.945
267.814
254.239
241.259
228.907
217.208
206.18
195.832
186.169
177.186
168.877
161.225
154.213
147.816
142.009
136.76
132.04
127.813
124.048
120.707
117.759
115.168
112.902
110.929
109.22
107.746
106.48
105.399
104.479
103.701
103.045
102.494
102.035
101.653
101.337
101.077
100.864
100.69
100.549
100.434
100.342
100.269
100.21
100.164
100.127
100.098
100.075
100.058
100.044
100.033
100.025
100.019
100.014
100.011
100.008
100.006
100.004
100.003
100.002
100.002
100.001
100.001
100.001
100
100
100
100
100
391.783
375.389
359.11
343.022
327.197
311.706
296.612
281.973
267.844
254.271
241.293
228.942
217.244
206.215
195.867
186.203
177.219
168.908
161.255
154.241
147.843
142.033
136.783
132.06
127.832
124.065
120.723
117.773
115.18
112.913
110.939
109.228
107.753
106.486
105.404
104.484
103.704
103.048
102.497
102.037
101.655
101.339
101.078
100.865
100.691
100.549
100.435
100.343
100.269
100.21
100.164
100.127
100.098
100.075
100.058
100.044
100.033
100.025
100.019
100.014
100.011
100.008
100.006
100.004
100.003
100.002
100.002
100.001
100.001
100.001
100
100
100
100
100
391.785
375.394
359.118
343.034
327.213
311.724
296.632
281.996
267.869
254.297
241.32
228.97
217.272
206.243
195.894
186.23
177.246
168.934
161.279
154.264
147.864
142.053
136.801
132.077
127.848
124.078
120.735
117.784
115.19
112.921
110.946
109.235
107.759
106.491
105.408
104.487
103.707
103.05
102.499
102.039
101.656
101.34
101.079
100.866
100.691
100.55
100.435
100.343
100.269
100.211
100.164
100.127
100.098
100.075
100.058
100.044
100.033
100.025
100.019
100.014
100.011
100.008
100.006
100.004
100.003
100.002
100.002
100.001
100.001
100.001
100
100
100
100
100
391.786
375.398
359.125
343.043
327.224
311.738
296.648
282.014
267.888
254.317
241.341
228.992
217.294
206.265
195.916
186.251
177.267
168.954
161.299
154.282
147.881
142.069
136.816
132.091
127.86
124.089
120.745
117.792
115.198
112.928
110.952
109.24
107.763
106.495
105.412
104.49
103.71
103.052
102.501
102.04
101.657
101.341
101.08
100.866
100.692
100.55
100.436
100.344
100.27
100.211
100.164
100.127
100.098
100.075
100.058
100.044
100.033
100.025
100.019
100.014
100.011
100.008
100.006
100.004
100.003
100.002
100.002
100.001
100.001
100.001
100
100
100
100
100
391.788
375.401
359.131
343.051
327.234
311.749
296.661
282.028
267.903
254.334
241.358
229.009
217.311
206.283
195.934
186.268
177.283
168.97
161.314
154.296
147.895
142.081
136.827
132.101
127.869
124.098
120.753
117.799
115.204
112.934
110.957
109.244
107.767
106.499
105.415
104.493
103.712
103.054
102.502
102.041
101.658
101.342
101.081
100.867
100.692
100.551
100.436
100.344
100.27
100.211
100.164
100.127
100.098
100.075
100.058
100.044
100.033
100.025
100.019
100.014
100.011
100.008
100.006
100.004
100.003
100.002
100.002
100.001
100.001
100.001
100
100
100
100
100
391.788
375.404
359.135
343.057
327.241
311.758
296.671
282.039
267.915
254.346
241.371
229.023
217.325
206.297
195.948
186.282
177.296
168.982
161.326
154.308
147.905
142.091
136.837
132.11
127.877
124.105
120.759
117.805
115.209
112.938
110.961
109.248
107.77
106.501
105.417
104.494
103.713
103.055
102.503
102.042
101.659
101.342
101.081
100.867
100.693
100.551
100.436
100.344
100.27
100.211
100.164
100.127
100.098
100.076
100.058
100.044
100.033
100.025
100.019
100.014
100.011
100.008
100.006
100.004
100.003
100.002
100.002
100.001
100.001
100.001
100
100
100
100
100
391.789
375.406
359.138
343.061
327.247
311.765
296.679
282.048
267.925
254.356
241.382
229.033
217.336
206.308
195.959
186.292
177.307
168.992
161.335
154.317
147.914
142.099
136.844
132.116
127.883
124.111
120.764
117.81
115.213
112.942
110.964
109.25
107.772
106.503
105.418
104.496
103.715
103.056
102.504
102.043
101.66
101.343
101.082
100.868
100.693
100.551
100.436
100.344
100.27
100.211
100.164
100.127
100.098
100.076
100.058
100.044
100.033
100.025
100.019
100.014
100.011
100.008
100.006
100.004
100.003
100.002
100.002
100.001
100.001
100.001
100
100
100
100
100
391.79
375.408
359.141
343.065
327.252
311.77
296.685
282.055
267.932
254.364
241.39
229.042
217.345
206.316
195.967
186.301
177.315
169
161.343
154.324
147.92
142.105
136.85
132.122
127.888
124.115
120.768
117.813
115.216
112.944
110.967
109.253
107.774
106.505
105.42
104.497
103.716
103.057
102.505
102.044
101.66
101.343
101.082
100.868
100.693
100.551
100.436
100.344
100.27
100.211
100.164
100.127
100.098
100.076
100.058
100.044
100.033
100.025
100.019
100.014
100.011
100.008
100.006
100.004
100.003
100.002
100.002
100.001
100.001
100.001
100
100
100
100
100
391.79
375.409
359.143
343.068
327.255
311.774
296.69
282.06
267.938
254.37
241.396
229.048
217.351
206.323
195.974
186.307
177.321
169.006
161.349
154.329
147.926
142.11
136.854
132.126
127.892
124.119
120.771
117.816
115.219
112.947
110.969
109.254
107.776
106.506
105.421
104.498
103.717
103.058
102.505
102.044
101.661
101.343
101.082
100.868
100.693
100.551
100.437
100.344
100.27
100.211
100.164
100.127
100.098
100.076
100.058
100.044
100.033
100.025
100.019
100.014
100.011
100.008
100.006
100.004
100.003
100.002
100.002
100.001
100.001
100.001
100
100
100
100
100
391.79
375.41
359.145
343.07
327.258
311.778
296.693
282.064
267.942
254.375
241.401
229.053
217.356
206.328
195.979
186.312
177.326
169.011
161.353
154.334
147.93
142.114
136.858
132.129
127.895
124.121
120.774
117.818
115.221
112.948
110.97
109.256
107.777
106.507
105.422
104.499
103.717
103.058
102.506
102.044
101.661
101.344
101.082
100.868
100.693
100.551
100.437
100.344
100.27
100.211
100.165
100.128
100.098
100.076
100.058
100.044
100.033
100.025
100.019
100.014
100.011
100.008
100.006
100.004
100.003
100.002
100.002
100.001
100.001
100.001
100
100
100
100
100
391.791
375.411
359.146
343.071
327.26
311.78
296.696
282.067
267.946
254.379
241.405
229.057
217.36
206.332
195.983
186.316
177.33
169.015
161.357
154.337
147.933
142.117
136.861
132.132
127.897
124.123
120.776
117.82
115.222
112.95
110.971
109.257
107.778
106.508
105.422
104.499
103.718
103.059
102.506
102.045
101.661
101.344
101.083
100.868
100.694
100.552
100.437
100.344
100.27
100.211
100.165
100.128
100.098
100.076
100.058
100.044
100.033
100.025
100.019
100.014
100.011
100.008
100.006
100.004
100.003
100.002
100.002
100.001
100.001
100.001
100
100
100
100
100
391.791
375.411
359.147
343.073
327.262
311.782
296.698
282.07
267.948
254.381
241.408
229.06
217.364
206.335
195.986
186.319
177.333
169.017
161.359
154.34
147.935
142.119
136.863
132.134
127.899
124.125
120.777
117.821
115.223
112.951
110.972
109.257
107.778
106.508
105.423
104.5
103.718
103.059
102.506
102.045
101.661
101.344
101.083
100.868
100.694
100.552
100.437
100.344
100.27
100.211
100.165
100.128
100.098
100.076
100.058
100.044
100.033
100.025
100.019
100.014
100.011
100.008
100.006
100.004
100.003
100.002
100.002
100.001
100.001
100.001
100
100
100
100
100
391.791
375.412
359.147
343.074
327.263
311.784
296.7
282.071
267.951
254.384
241.41
229.063
217.366
206.338
195.988
186.322
177.335
169.02
161.362
154.342
147.937
142.121
136.864
132.135
127.9
124.126
120.778
117.822
115.224
112.952
110.973
109.258
107.779
106.509
105.423
104.5
103.718
103.059
102.507
102.045
101.662
101.344
101.083
100.868
100.694
100.552
100.437
100.344
100.27
100.211
100.165
100.128
100.098
100.076
100.058
100.044
100.033
100.025
100.019
100.014
100.011
100.008
100.006
100.004
100.003
100.002
100.002
100.001
100.001
100.001
100
100
100
100
100
391.791
375.412
359.148
343.074
327.264
311.785
296.701
282.073
267.952
254.385
241.412
229.064
217.368
206.339
195.99
186.323
177.337
169.021
161.363
154.343
147.939
142.122
136.866
132.136
127.901
124.127
120.779
117.823
115.225
112.952
110.973
109.259
107.779
106.509
105.424
104.5
103.719
103.06
102.507
102.045
101.662
101.344
101.083
100.869
100.694
100.552
100.437
100.345
100.27
100.211
100.165
100.128
100.098
100.076
100.058
100.044
100.033
100.025
100.019
100.014
100.011
100.008
100.006
100.004
100.003
100.002
100.002
100.001
100.001
100.001
100
100
100
100
100
391.791
375.412
359.148
343.075
327.265
311.786
296.702
282.074
267.953
254.387
241.413
229.066
217.369
206.341
195.991
186.325
177.338
169.023
161.364
154.344
147.94
142.123
136.866
132.137
127.902
124.128
120.78
117.824
115.225
112.953
110.974
109.259
107.78
106.509
105.424
104.501
103.719
103.06
102.507
102.045
101.662