/*--------------------------------*- C++ -*----------------------------------*\
  =========                 |
  \\      /  F ield         | OpenFOAM: The Open Source CFD Toolbox
   \\    /   O peration     | Website:  https://openfoam.org
    \\  /    A nd           | Version:  10
     \\/     M anipulation  |
\*---------------------------------------------------------------------------*/
FoamFile
{
    format      ascii;
    class       volScalarField;
    location    "700";
    object      T;
}
// * * * * * * * * * * * * * * * * * * * * * * * * * * * * * * * * * * * * * //

dimensions      [0 0 0 1 0 0 0];

internalField   nonuniform List<scalar> 
11250
(
249.924
167.801
139.763
127.501
120.873
116.713
113.833
111.704
110.057
108.738
107.654
106.746
105.973
105.305
104.724
104.213
103.761
103.359
103.001
102.68
102.392
102.134
101.901
101.692
101.504
101.335
101.183
101.046
100.923
100.814
100.716
100.628
100.55
100.48
100.419
100.364
100.316
100.274
100.236
100.204
100.175
100.15
100.128
100.109
100.093
100.079
100.067
100.056
100.047
100.04
100.033
100.028
100.023
100.019
100.016
100.013
100.011
100.009
100.007
100.006
100.005
100.004
100.003
100.003
100.002
100.002
100.001
100.001
100.001
100.001
100
100
100
100
100
331.744
249.319
203.516
176.874
160.156
148.864
140.754
134.638
129.85
125.987
122.797
120.113
117.821
115.839
114.11
112.589
111.242
110.044
108.975
108.017
107.158
106.385
105.69
105.065
104.502
103.996
103.541
103.132
102.765
102.437
102.143
101.881
101.647
101.439
101.255
101.091
100.947
100.82
100.708
100.61
100.524
100.449
100.384
100.327
100.278
100.236
100.2
100.168
100.142
100.119
100.1
100.083
100.069
100.057
100.047
100.039
100.032
100.026
100.022
100.018
100.014
100.012
100.009
100.008
100.006
100.005
100.004
100.003
100.002
100.002
100.001
100.001
100.001
100
100
359.481
294.218
248.116
216.332
194.026
177.849
165.696
156.266
148.738
142.586
137.458
133.115
129.386
126.151
123.318
120.821
118.606
116.633
114.869
113.287
111.866
110.589
109.439
108.403
107.471
106.632
105.877
105.2
104.591
104.046
103.559
103.124
102.736
102.39
102.084
101.813
101.573
101.362
101.176
101.013
100.871
100.746
100.638
100.544
100.463
100.392
100.332
100.28
100.236
100.198
100.165
100.138
100.115
100.095
100.079
100.065
100.054
100.044
100.036
100.029
100.024
100.019
100.016
100.013
100.01
100.008
100.006
100.005
100.004
100.003
100.002
100.002
100.001
100.001
100
371.443
319.964
278.408
246.33
221.786
202.834
187.947
176.023
166.288
158.201
151.378
145.546
140.505
136.108
132.242
128.821
125.779
123.064
120.631
118.447
116.483
114.714
113.121
111.685
110.392
109.227
108.179
107.237
106.392
105.634
104.956
104.35
103.811
103.33
102.904
102.526
102.192
101.898
101.639
101.412
101.213
101.04
100.889
100.758
100.645
100.547
100.463
100.39
100.328
100.276
100.231
100.193
100.16
100.133
100.11
100.091
100.075
100.061
100.05
100.041
100.033
100.027
100.022
100.018
100.014
100.011
100.009
100.007
100.006
100.004
100.003
100.002
100.002
100.001
100
377.776
335.795
299.241
268.816
243.984
223.789
207.275
193.637
182.242
172.606
164.366
157.249
151.047
145.601
140.789
136.514
132.699
129.283
126.217
123.459
120.974
118.734
116.713
114.891
113.247
111.766
110.433
109.234
108.157
107.192
106.328
105.555
104.867
104.254
103.709
103.227
102.801
102.425
102.095
101.805
101.551
101.33
101.137
100.969
100.824
100.699
100.592
100.499
100.42
100.353
100.295
100.246
100.205
100.17
100.141
100.116
100.096
100.078
100.064
100.052
100.043
100.035
100.028
100.023
100.018
100.014
100.012
100.009
100.007
100.005
100.004
100.003
100.002
100.001
100
381.644
346.213
313.964
285.74
261.583
241.107
223.78
209.068
196.5
185.685
176.307
168.117
160.916
154.548
148.888
143.836
139.311
135.246
131.587
128.288
125.311
122.622
120.194
118.001
116.021
114.236
112.627
111.18
109.879
108.712
107.667
106.732
105.899
105.157
104.498
103.914
103.397
102.942
102.541
102.19
101.882
101.613
101.38
101.177
101.001
100.849
100.718
100.606
100.51
100.428
100.358
100.299
100.249
100.207
100.171
100.141
100.116
100.095
100.078
100.064
100.052
100.042
100.034
100.027
100.022
100.018
100.014
100.011
100.009
100.007
100.005
100.004
100.002
100.001
100
384.238
353.465
324.688
298.634
275.545
255.332
237.734
222.427
209.085
197.412
187.153
178.092
170.054
162.893
156.488
150.743
145.574
140.915
136.709
132.907
129.469
126.358
123.544
120.999
118.699
116.623
114.751
113.065
111.548
110.187
108.967
107.876
106.903
106.036
105.265
104.583
103.979
103.446
102.977
102.565
102.205
101.891
101.617
101.379
101.173
100.995
100.842
100.711
100.598
100.502
100.42
100.351
100.292
100.242
100.201
100.166
100.136
100.112
100.092
100.075
100.061
100.049
100.04
100.032
100.026
100.021
100.016
100.013
100.01
100.008
100.006
100.004
100.003
100.002
100.001
386.086
358.739
332.72
308.606
286.683
267.005
249.472
233.905
220.094
207.827
196.907
187.16
178.435
170.604
163.557
157.201
151.459
146.264
141.558
137.294
133.428
129.924
126.748
123.872
121.27
118.918
116.795
114.881
113.159
111.612
110.224
108.983
107.875
106.887
106.01
105.231
104.542
103.935
103.4
102.93
102.519
102.16
101.847
101.576
101.341
101.138
100.963
100.812
100.684
100.574
100.48
100.401
100.334
100.277
100.229
100.189
100.156
100.128
100.105
100.085
100.07
100.056
100.046
100.037
100.03
100.024
100.019
100.015
100.012
100.009
100.007
100.005
100.003
100.002
100.001
387.459
362.707
338.882
316.435
295.638
276.605
259.329
243.725
229.666
217.01
205.612
195.337
186.06
177.673
170.08
163.195
156.947
151.273
146.117
141.431
137.173
133.305
129.794
126.609
123.723
121.111
118.751
116.622
114.704
112.98
111.433
110.048
108.811
107.708
106.727
105.857
105.087
104.407
103.809
103.283
102.823
102.421
102.071
101.767
101.503
101.276
101.08
100.911
100.767
100.644
100.539
100.45
100.374
100.311
100.257
100.212
100.175
100.144
100.117
100.096
100.078
100.063
100.051
100.041
100.033
100.026
100.021
100.017
100.013
100.01
100.008
100.006
100.004
100.002
100.001
388.511
365.77
343.704
322.667
302.899
284.533
267.61
252.106
237.955
225.064
213.333
202.661
192.95
184.109
176.057
168.719
162.031
155.934
150.375
145.309
140.694
136.493
132.672
129.2
126.05
123.196
120.614
118.282
116.179
114.288
112.59
111.068
109.708
108.496
107.416
106.459
105.611
104.862
104.203
103.623
103.116
102.673
102.286
101.951
101.66
101.409
101.192
101.007
100.847
100.711
100.595
100.497
100.414
100.344
100.284
100.235
100.193
100.159
100.13
100.106
100.086
100.07
100.057
100.046
100.037
100.029
100.023
100.018
100.014
100.011
100.008
100.006
100.004
100.002
100.001
389.336
368.185
347.542
327.689
308.833
291.108
274.578
259.256
245.115
232.102
220.15
209.188
199.139
189.933
181.501
173.78
166.711
160.244
154.328
148.922
143.985
139.481
135.376
131.641
128.247
125.167
122.378
119.856
117.581
115.532
113.691
112.041
110.565
109.248
108.075
107.034
106.112
105.298
104.58
103.95
103.397
102.914
102.493
102.128
101.811
101.537
101.301
101.098
100.925
100.776
100.65
100.543
100.452
100.375
100.311
100.256
100.211
100.173
100.142
100.116
100.094
100.076
100.062
100.05
100.04
100.032
100.025
100.02
100.016
100.012
100.009
100.007
100.005
100.003
100.001
389.994
370.118
350.638
331.78
313.721
296.588
280.455
265.357
251.292
238.235
226.147
214.978
204.673
195.176
186.432
178.389
170.996
164.207
157.978
152.27
147.044
142.266
137.904
133.928
130.309
127.021
124.04
121.342
118.905
116.71
114.735
112.964
111.378
109.963
108.702
107.582
106.59
105.713
104.94
104.261
103.666
103.145
102.691
102.297
101.955
101.66
101.405
101.186
100.999
100.839
100.702
100.586
100.488
100.405
100.336
100.277
100.228
100.187
100.153
100.125
100.102
100.083
100.067
100.054
100.043
100.035
100.028
100.022
100.017
100.013
100.01
100.007
100.005
100.003
100.001
390.526
371.687
353.164
335.142
317.774
301.175
285.425
270.566
256.616
243.571
231.409
220.098
209.601
199.875
190.879
182.567
174.898
167.832
161.33
155.355
149.873
144.849
140.255
136.059
132.236
128.757
125.599
122.738
120.152
117.819
115.72
113.835
112.147
110.639
109.296
108.102
107.043
106.108
105.283
104.557
103.921
103.365
102.88
102.458
102.093
101.777
101.504
101.27
101.07
100.898
100.752
100.628
100.523
100.434
100.36
100.297
100.245
100.201
100.164
100.134
100.109
100.089
100.072
100.058
100.046
100.037
100.03
100.023
100.018
100.014
100.011
100.008
100.005
100.003
100.001
390.962
372.973
355.243
337.926
321.154
305.032
289.637
275.019
261.206
248.206
236.014
224.611
213.974
204.071
194.87
186.337
178.437
171.134
164.394
158.185
152.475
147.233
142.43
138.037
134.027
130.374
127.054
124.043
121.319
118.859
116.644
114.654
112.871
111.277
109.856
108.592
107.472
106.481
105.607
104.838
104.163
103.573
103.059
102.612
102.224
101.888
101.599
101.35
101.137
100.955
100.8
100.668
100.556
100.462
100.383
100.316
100.26
100.214
100.175
100.143
100.116
100.094
100.076
100.061
100.049
100.04
100.031
100.025
100.019
100.015
100.011
100.008
100.006
100.003
100.001
391.321
374.037
356.968
340.247
323.988
308.286
293.216
278.83
265.162
252.23
240.039
228.581
217.843
207.804
198.441
189.726
181.631
174.126
167.182
160.77
154.86
149.424
144.433
139.862
135.684
131.874
128.406
125.258
122.407
119.831
117.509
115.421
113.55
111.875
110.382
109.054
107.875
106.832
105.912
105.102
104.392
103.77
103.228
102.756
102.347
101.993
101.688
101.426
101.201
101.009
100.845
100.706
100.588
100.488
100.404
100.334
100.275
100.226
100.185
100.151
100.123
100.1
100.081
100.065
100.052
100.042
100.033
100.026
100.021
100.016
100.012
100.009
100.006
100.003
100.001
391.62
374.922
358.408
342.192
326.374
311.041
296.264
282.095
268.573
255.721
243.551
232.065
221.258
211.117
201.624
192.761
184.504
176.828
169.709
163.119
157.034
151.427
146.271
141.541
137.212
133.258
129.657
126.384
123.417
120.734
118.314
116.136
114.183
112.435
110.874
109.485
108.253
107.162
106.198
105.351
104.607
103.956
103.387
102.893
102.464
102.093
101.773
101.497
101.261
101.06
100.888
100.741
100.618
100.513
100.425
100.351
100.289
100.237
100.194
100.159
100.129
100.105
100.085
100.068
100.055
100.044
100.035
100.028
100.022
100.017
100.013
100.009
100.006
100.004
100.001
391.87
375.664
359.617
343.828
328.39
313.38
298.864
284.895
271.514
258.747
246.612
235.118
224.265
214.047
204.454
195.47
187.078
179.259
171.989
165.247
159.009
153.251
147.949
143.077
138.613
134.531
130.809
127.422
124.35
121.569
119.06
116.8
114.771
112.955
111.333
109.888
108.605
107.469
106.466
105.583
104.808
104.129
103.537
103.021
102.573
102.186
101.852
101.565
101.318
101.107
100.928
100.775
100.646
100.536
100.444
100.367
100.302
100.248
100.203
100.166
100.135
100.11
100.089
100.072
100.057
100.046
100.037
100.029
100.023
100.017
100.013
100.01
100.007
100.004
100.001
392.08
376.287
360.635
345.211
330.099
315.369
301.086
287.299
274.05
261.369
249.278
237.789
226.908
216.634
206.962
197.881
189.378
181.437
174.04
167.167
160.797
154.907
149.475
144.478
139.893
135.696
131.865
128.377
125.209
122.34
119.748
117.413
115.316
113.437
111.758
110.262
108.933
107.756
106.716
105.8
104.995
104.291
103.676
103.14
102.676
102.273
101.926
101.627
101.371
101.152
100.965
100.807
100.672
100.558
100.463
100.382
100.315
100.259
100.212
100.173
100.141
100.114
100.092
100.075
100.06
100.048
100.038
100.03
100.024
100.018
100.014
100.01
100.007
100.004
100.001
392.257
376.813
361.495
346.383
331.551
317.065
302.987
289.364
276.238
263.641
251.597
240.123
229.227
218.913
209.18
200.021
191.426
183.384
175.879
168.893
162.408
156.403
150.858
145.75
141.058
136.759
132.831
129.25
125.997
123.047
120.381
117.978
115.818
113.882
112.151
110.608
109.236
108.021
106.947
106.001
105.17
104.442
103.806
103.252
102.771
102.355
101.995
101.686
101.421
101.194
101.001
100.836
100.697
100.579
100.48
100.396
100.326
100.268
100.22
100.179
100.146
100.119
100.096
100.077
100.062
100.05
100.04
100.031
100.024
100.019
100.014
100.01
100.007
100.004
100.001
392.407
377.259
362.225
347.378
332.787
318.514
304.615
291.138
278.125
265.608
253.613
242.158
231.257
220.915
211.135
201.914
193.245
185.118
177.521
170.439
163.855
157.75
152.106
146.901
142.114
137.724
133.709
130.047
126.716
123.694
120.961
118.496
116.279
114.291
112.512
110.926
109.516
108.266
107.161
106.187
105.331
104.581
103.926
103.355
102.859
102.43
102.06
101.741
101.467
101.233
101.033
100.864
100.72
100.598
100.496
100.409
100.337
100.277
100.227
100.185
100.151
100.123
100.099
100.08
100.064
100.051
100.041
100.032
100.025
100.02
100.015
100.011
100.007
100.004
100.001
392.534
377.637
362.844
348.225
333.84
319.751
306.01
292.664
279.752
267.31
255.363
243.932
233.032
222.672
212.857
203.586
194.856
186.659
178.984
171.82
165.151
158.96
153.229
147.938
143.068
138.598
134.506
130.77
127.37
124.284
121.49
118.969
116.701
114.665
112.844
111.219
109.773
108.491
107.358
106.358
105.48
104.71
104.037
103.45
102.941
102.5
102.119
101.791
101.51
101.269
101.064
100.889
100.741
100.616
100.51
100.422
100.347
100.285
100.234
100.191
100.156
100.126
100.102
100.082
100.066
100.053
100.042
100.033
100.026
100.02
100.015
100.011
100.008
100.004
100.001
392.642
377.958
363.372
348.946
334.74
320.81
307.207
293.975
281.156
268.782
256.881
245.475
234.581
224.21
214.368
205.058
196.278
188.023
180.284
173.049
166.307
160.041
154.235
148.87
143.927
139.386
135.225
131.425
127.963
124.819
121.971
119.4
117.085
115.007
113.146
111.486
110.009
108.698
107.538
106.516
105.616
104.828
104.139
103.538
103.016
102.564
102.174
101.838
101.549
101.302
101.092
100.913
100.761
100.632
100.524
100.433
100.357
100.293
100.24
100.196
100.16
100.13
100.105
100.085
100.068
100.054
100.043
100.034
100.027
100.021
100.016
100.011
100.008
100.004
100.001
392.734
378.232
363.821
349.561
335.509
321.716
308.233
295.103
282.365
270.054
258.196
246.816
235.931
225.554
215.693
206.352
197.532
189.228
181.434
174.141
167.336
161.006
155.135
149.705
144.698
140.094
135.873
132.015
128.498
125.303
122.407
119.791
117.434
115.317
113.422
111.73
110.223
108.886
107.703
106.659
105.741
104.936
104.232
103.619
103.085
102.623
102.224
101.881
101.586
101.333
101.118
100.934
100.779
100.647
100.537
100.444
100.365
100.3
100.246
100.201
100.164
100.133
100.108
100.087
100.07
100.056
100.044
100.035
100.028
100.021
100.016
100.012
100.008
100.005
100.002
392.812
378.465
364.204
350.087
336.166
322.492
309.113
296.072
283.407
271.152
259.335
247.98
237.106
226.726
216.852
207.487
198.633
190.29
182.45
175.107
168.249
161.863
155.936
150.449
145.386
140.728
136.454
132.545
128.98
125.738
122.8
120.144
117.75
115.599
113.672
111.951
110.418
109.057
107.853
106.79
105.855
105.035
104.318
103.692
103.148
102.677
102.27
101.92
101.619
101.361
101.141
100.954
100.796
100.661
100.548
100.453
100.373
100.307
100.251
100.205
100.167
100.136
100.11
100.089
100.071
100.057
100.045
100.036
100.028
100.022
100.016
100.012
100.008
100.005
100.002
392.879
378.664
364.531
350.535
336.727
323.156
309.868
296.905
284.304
272.1
260.32
248.989
238.126
227.747
217.863
208.479
199.599
191.223
183.345
175.959
169.056
162.623
156.647
151.112
146
141.294
136.973
133.02
129.412
126.13
123.153
120.461
118.034
115.853
113.897
112.151
110.595
109.213
107.989
106.909
105.959
105.125
104.395
103.759
103.206
102.727
102.313
101.956
101.649
101.387
101.163
100.972
100.811
100.674
100.559
100.462
100.381
100.313
100.256
100.209
100.171
100.139
100.112
100.09
100.073
100.058
100.046
100.037
100.029
100.022
100.017
100.012
100.008
100.005
100.002
392.936
378.833
364.81
350.918
337.207
323.725
310.515
297.62
285.076
272.916
261.17
249.862
239.011
228.635
218.743
209.345
200.444
192.04
184.131
176.71
169.768
163.295
157.277
151.699
146.545
141.797
137.436
133.443
129.798
126.48
123.47
120.746
118.29
116.081
114.101
112.331
110.754
109.353
108.112
107.017
106.052
105.206
104.466
103.82
103.258
102.771
102.351
101.988
101.677
101.41
101.183
100.989
100.825
100.686
100.569
100.47
100.387
100.318
100.261
100.213
100.174
100.141
100.114
100.092
100.074
100.059
100.047
100.037
100.029
100.023
100.017
100.012
100.008
100.005
100.002
392.984
378.978
365.048
351.245
337.618
324.211
311.07
298.234
285.739
273.62
261.904
250.616
239.778
229.404
219.509
210.1
201.182
192.756
184.82
177.368
170.394
163.886
157.832
152.218
147.028
142.244
137.847
133.82
130.142
126.793
123.752
121.001
118.518
116.285
114.283
112.492
110.897
109.479
108.223
107.113
106.137
105.279
104.529
103.875
103.305
102.812
102.385
102.018
101.702
101.432
101.201
101.004
100.837
100.696
100.577
100.477
100.393
100.323
100.265
100.217
100.176
100.143
100.116
100.094
100.075
100.06
100.048
100.038
100.03
100.023
100.017
100.013
100.009
100.005
100.002
393.025
379.101
365.251
351.524
337.968
324.627
311.545
298.76
286.309
274.224
262.535
251.267
240.44
230.071
220.173
210.756
201.824
193.38
185.421
177.945
170.943
164.406
158.321
152.676
147.454
142.638
138.211
134.154
130.447
127.07
124.004
121.228
118.722
116.468
114.446
112.637
111.025
109.592
108.322
107.2
106.213
105.345
104.586
103.924
103.348
102.849
102.417
102.044
101.725
101.451
101.217
101.018
100.849
100.706
100.585
100.484
100.399
100.328
100.269
100.22
100.179
100.145
100.118
100.095
100.076
100.061
100.049
100.038
100.03
100.023
100.018
100.013
100.009
100.005
100.002
393.061
379.206
365.424
351.763
338.267
324.983
311.951
299.21
286.797
274.744
263.079
251.828
241.011
230.647
220.748
211.325
202.382
193.923
185.946
178.449
171.423
164.861
158.75
153.078
147.829
142.986
138.533
134.449
130.717
127.316
124.227
121.43
118.904
116.631
114.591
112.766
111.139
109.693
108.411
107.278
106.281
105.405
104.638
103.968
103.386
102.881
102.445
102.068
101.745
101.468
101.231
101.03
100.859
100.714
100.592
100.49
100.404
100.332
100.272
100.222
100.181
100.147
100.119
100.096
100.077
100.062
100.049
100.039
100.031
100.024
100.018
100.013
100.009
100.005
100.002
393.091
379.295
365.572
351.966
338.523
325.286
312.298
299.596
287.215
275.189
263.546
252.31
241.504
231.144
221.245
211.817
202.866
194.394
186.403
178.887
171.842
165.259
159.126
153.43
148.158
143.292
138.815
134.71
130.956
127.534
124.425
121.608
119.065
116.775
114.72
112.881
111.241
109.783
108.49
107.348
106.341
105.457
104.684
104.008
103.421
102.911
102.47
102.09
101.763
101.484
101.245
101.041
100.868
100.722
100.599
100.495
100.408
100.336
100.275
100.225
100.183
100.149
100.121
100.097
100.078
100.063
100.05
100.039
100.031
100.024
100.018
100.013
100.009
100.005
100.002
393.116
379.372
365.697
352.139
338.74
325.545
312.594
299.925
287.573
275.571
263.946
252.724
241.927
231.573
221.674
212.242
203.284
194.803
186.798
179.268
172.207
165.605
159.453
153.738
148.446
143.56
139.063
134.938
131.165
127.725
124.598
121.765
119.206
116.902
114.834
112.983
111.331
109.862
108.56
107.409
106.395
105.504
104.724
104.044
103.451
102.937
102.492
102.109
101.78
101.497
101.256
101.051
100.877
100.729
100.605
100.5
100.412
100.339
100.278
100.227
100.185
100.15
100.122
100.098
100.079
100.063
100.05
100.04
100.031
100.024
100.018
100.013
100.009
100.005
100.002
393.138
379.436
365.804
352.286
338.926
325.766
312.847
300.206
287.879
275.897
264.289
253.079
242.291
231.94
222.043
212.609
203.645
195.156
187.141
179.599
172.523
165.906
159.738
154.007
148.697
143.794
139.28
135.138
131.349
127.893
124.751
121.904
119.331
117.015
114.934
113.072
111.411
109.933
108.622
107.464
106.443
105.546
104.761
104.075
103.478
102.96
102.512
102.126
101.794
101.51
101.267
101.06
100.884
100.735
100.61
100.504
100.416
100.342
100.28
100.229
100.187
100.152
100.123
100.099
100.08
100.064
100.051
100.04
100.031
100.024
100.018
100.013
100.009
100.005
100.002
393.156
379.491
365.895
352.411
339.083
325.954
313.062
300.446
288.14
276.175
264.582
253.383
242.602
232.256
222.36
212.924
203.956
195.46
187.437
179.884
172.797
166.167
159.986
154.24
148.916
143.998
139.469
135.313
131.509
128.04
124.885
122.025
119.441
117.113
115.023
113.151
111.481
109.995
108.677
107.512
106.485
105.583
104.793
104.103
103.502
102.981
102.53
102.141
101.807
101.521
101.276
101.068
100.891
100.741
100.615
100.508
100.419
100.345
100.283
100.231
100.188
100.153
100.124
100.1
100.08
100.064
100.051
100.041
100.032
100.025
100.019
100.014
100.009
100.005
100.002
393.172
379.538
365.972
352.517
339.217
326.113
313.245
300.65
288.362
276.413
264.832
253.643
242.868
232.526
222.631
213.194
204.223
195.722
187.692
180.13
173.033
166.393
160.2
154.442
149.105
144.175
139.634
135.465
131.649
128.168
125.002
122.131
119.537
117.2
115.1
113.22
111.543
110.05
108.726
107.555
106.523
105.616
104.821
104.127
103.523
102.999
102.546
102.155
101.819
101.531
101.284
101.075
100.897
100.746
100.619
100.512
100.422
100.347
100.285
100.233
100.19
100.154
100.125
100.101
100.081
100.065
100.052
100.041
100.032
100.025
100.019
100.014
100.009
100.005
100.002
393.185
379.578
366.037
352.607
339.33
326.248
313.4
300.823
288.551
276.615
265.044
253.864
243.096
232.757
222.864
213.426
204.452
195.947
187.911
180.342
173.237
166.588
160.385
154.616
149.269
144.328
139.776
135.597
131.771
128.279
125.104
122.224
119.621
117.275
115.168
113.281
111.597
110.098
108.768
107.592
106.555
105.644
104.846
104.149
103.542
103.015
102.56
102.167
101.829
101.539
101.292
101.081
100.902
100.75
100.622
100.515
100.425
100.349
100.286
100.234
100.191
100.155
100.125
100.101
100.081
100.065
100.052
100.041
100.032
100.025
100.019
100.014
100.009
100.005
100.002
393.196
379.611
366.092
352.683
339.426
326.363
313.532
300.97
288.711
276.787
265.225
254.052
243.289
232.954
223.062
213.624
204.648
196.139
188.098
180.524
173.412
166.755
160.544
154.767
149.41
144.46
139.899
135.711
131.876
128.376
125.192
122.304
119.693
117.341
115.227
113.334
111.644
110.139
108.805
107.624
106.584
105.669
104.868
104.168
103.558
103.03
102.572
102.177
101.838
101.547
101.298
101.086
100.906
100.754
100.626
100.517
100.427
100.351
100.288
100.235
100.192
100.156
100.126
100.102
100.082
100.066
100.052
100.041
100.032
100.025
100.019
100.014
100.009
100.005
100.002
393.206
379.639
366.139
352.747
339.508
326.46
313.643
301.094
288.847
276.932
265.379
254.212
243.453
233.121
223.23
213.792
204.815
196.303
188.258
180.679
173.562
166.898
160.68
154.896
149.532
144.574
140.005
135.809
131.967
128.459
125.268
122.374
119.757
117.398
115.278
113.38
111.684
110.176
108.837
107.653
106.609
105.691
104.887
104.184
103.573
103.042
102.582
102.186
101.845
101.553
101.304
101.091
100.91
100.757
100.628
100.52
100.429
100.353
100.289
100.236
100.193
100.157
100.127
100.102
100.082
100.066
100.052
100.041
100.033
100.025
100.019
100.014
100.009
100.005
100.002
393.214
379.663
366.178
352.802
339.576
326.542
313.737
301.199
288.961
277.055
265.509
254.348
243.593
233.263
223.374
213.936
204.957
196.443
188.395
180.812
173.69
167.021
160.797
155.007
149.636
144.672
140.097
135.894
132.045
128.531
125.334
122.434
119.811
117.447
115.322
113.419
111.72
110.207
108.865
107.677
106.63
105.71
104.903
104.199
103.585
103.053
102.592
102.194
101.852
101.559
101.309
101.095
100.914
100.76
100.631
100.522
100.43
100.354
100.29
100.237
100.193
100.157
100.127
100.103
100.083
100.066
100.053
100.042
100.033
100.025
100.019
100.014
100.009
100.005
100.002
393.22
379.683
366.211
352.848
339.634
326.611
313.817
301.288
289.058
277.159
265.619
254.462
243.711
233.384
223.495
214.057
205.078
196.562
188.512
180.925
173.799
167.126
160.897
155.101
149.726
144.756
140.175
135.966
132.112
128.593
125.391
122.485
119.858
117.489
115.36
113.453
111.75
110.234
108.889
107.699
106.649
105.726
104.918
104.211
103.596
103.062
102.6
102.201
101.858
101.564
101.313
101.099
100.917
100.763
100.633
100.524
100.432
100.355
100.291
100.238
100.194
100.158
100.128
100.103
100.083
100.066
100.053
100.042
100.033
100.025
100.019
100.014
100.009
100.005
100.002
393.226
379.7
366.239
352.886
339.682
326.669
313.883
301.362
289.14
277.247
265.712
254.559
243.811
233.486
223.598
214.16
205.18
196.663
188.61
181.021
173.891
167.215
160.982
155.182
149.802
144.827
140.242
136.029
132.17
128.646
125.439
122.53
119.898
117.526
115.393
113.483
111.777
110.258
108.91
107.717
106.665
105.741
104.93
104.222
103.605
103.07
102.607
102.207
101.863
101.568
101.317
101.102
100.92
100.765
100.635
100.525
100.433
100.356
100.292
100.239
100.195
100.158
100.128
100.103
100.083
100.067
100.053
100.042
100.033
100.025
100.019
100.014
100.01
100.006
100.002
393.231
379.714
366.262
352.918
339.723
326.718
313.939
301.425
289.209
277.321
265.79
254.64
243.895
233.571
223.685
214.247
205.267
196.748
188.694
181.102
173.97
167.29
161.054
155.25
149.867
144.888
140.299
136.082
132.219
128.691
125.481
122.568
119.933
117.557
115.422
113.508
111.799
110.278
108.928
107.733
106.679
105.753
104.941
104.231
103.614
103.077
102.613
102.212
101.868
101.572
101.32
101.105
100.922
100.767
100.636
100.527
100.434
100.357
100.293
100.24
100.195
100.159
100.128
100.104
100.083
100.067
100.053
100.042
100.033
100.025
100.019
100.014
100.01
100.006
100.002
393.235
379.726
366.282
352.945
339.757
326.758
313.986
301.478
289.266
277.383
265.855
254.709
243.966
233.644
223.758
214.321
205.34
196.82
188.764
181.171
174.037
167.354
161.115
155.309
149.922
144.94
140.347
136.127
132.26
128.73
125.516
122.6
119.962
117.584
115.446
113.53
111.819
110.295
108.943
107.747
106.691
105.763
104.95
104.239
103.621
103.083
102.618
102.217
101.871
101.575
101.322
101.107
100.924
100.769
100.638
100.528
100.435
100.358
100.294
100.24
100.196
100.159
100.129
100.104
100.084
100.067
100.053
100.042
100.033
100.026
100.019
100.014
100.01
100.006
100.002
393.238
379.736
366.298
352.968
339.786
326.793
314.026
301.522
289.314
277.434
265.91
254.766
244.025
233.704
223.819
214.382
205.401
196.881
188.824
181.229
174.093
167.408
161.167
155.358
149.968
144.984
140.388
136.165
132.296
128.763
125.546
122.627
119.987
117.606
115.466
113.548
111.835
110.31
108.956
107.758
106.702
105.772
104.958
104.246
103.627
103.088
102.622
102.221
101.875
101.578
101.325
101.109
100.926
100.77
100.639
100.529
100.436
100.359
100.294
100.241
100.196
100.159
100.129
100.104
100.084
100.067
100.053
100.042
100.033
100.026
100.019
100.014
100.01
100.006
100.002
393.241
379.744
366.312
352.987
339.81
326.821
314.059
301.559
289.355
277.478
265.956
254.814
244.074
233.755
223.871
214.434
205.452
196.932
188.874
181.278
174.14
167.454
161.21
155.399
150.007
145.021
140.423
136.197
132.326
128.79
125.572
122.651
120.008
117.626
115.484
113.564
111.849
110.323
108.967
107.768
106.71
105.78
104.965
104.252
103.632
103.093
102.626
102.224
101.878
101.581
101.327
101.111
100.927
100.771
100.64
100.53
100.437
100.359
100.295
100.241
100.196
100.16
100.129
100.104
100.084
100.067
100.054
100.042
100.033
100.026
100.019
100.014
100.01
100.006
100.002
393.243
379.751
366.323
353.002
339.83
326.845
314.086
301.589
289.388
277.514
265.994
254.854
244.116
233.797
223.914
214.477
205.496
196.974
188.916
181.319
174.18
167.492
161.247
155.434
150.04
145.052
140.452
136.224
132.351
128.814
125.593
122.671
120.026
117.642
115.498
113.577
111.861
110.333
108.977
107.777
106.718
105.787
104.97
104.257
103.636
103.097
102.63
102.227
101.88
101.583
101.329
101.112
100.928
100.772
100.641
100.53
100.437
100.36
100.295
100.241
100.197
100.16
100.129
100.105
100.084
100.067
100.054
100.042
100.033
100.026
100.019
100.014
100.01
100.006
100.002
393.245
379.757
366.333
353.015
339.846
326.864
314.109
301.615
289.416
277.544
266.026
254.888
244.151
233.833
223.95
214.513
205.532
197.01
188.951
181.353
174.213
167.524
161.278
155.463
150.068
145.078
140.477
136.247
132.372
128.833
125.611
122.687
120.042
117.656
115.511
113.589
111.872
110.342
108.985
107.784
106.724
105.792
104.975
104.261
103.64
103.1
102.632
102.229
101.882
101.584
101.33
101.113
100.929
100.773
100.642
100.531
100.438
100.36
100.295
100.242
100.197
100.16
100.13
100.105
100.084
100.067
100.054
100.042
100.033
100.026
100.019
100.014
100.01
100.006
100.002
393.247
379.761
366.341
353.026
339.86
326.881
314.128
301.636
289.439
277.569
266.053
254.916
244.179
233.862
223.98
214.543
205.562
197.04
188.98
181.381
174.24
167.551
161.303
155.488
150.091
145.1
140.497
136.267
132.39
128.85
125.627
122.701
120.054
117.667
115.521
113.598
111.88
110.35
108.992
107.79
106.729
105.797
104.979
104.265
103.643
103.102
102.635
102.231
101.884
101.586
101.331
101.114
100.93
100.774
100.642
100.531
100.438
100.361
100.296
100.242
100.197
100.16
100.13
100.105
100.084
100.067
100.054
100.043
100.033
100.026
100.019
100.014
100.01
100.006
100.002
393.248
379.765
366.347
353.035
339.871
326.894
314.143
301.653
289.459
277.59
266.075
254.939
244.203
233.887
224.004
214.568
205.586
197.064
189.004
181.405
174.263
167.573
161.325
155.508
150.111
145.118
140.514
136.283
132.405
128.864
125.639
122.713
120.065
117.677
115.53
113.606
111.887
110.356
108.997
107.795
106.734
105.801
104.983
104.268
103.645
103.105
102.637
102.233
101.885
101.587
101.332
101.115
100.931
100.775
100.643
100.532
100.439
100.361
100.296
100.242
100.197
100.16
100.13
100.105
100.084
100.068
100.054
100.043
100.033
100.026
100.02
100.014
100.01
100.006
100.002
393.249
379.769
366.352
353.043
339.88
326.906
314.156
301.668
289.475
277.607
266.093
254.958
244.223
233.907
224.025
214.589
205.607
197.085
189.024
181.425
174.283
167.591
161.342
155.525
150.127
145.133
140.529
136.296
132.418
128.875
125.65
122.723
120.074
117.685
115.538
113.613
111.893
110.362
109.002
107.799
106.738
105.804
104.986
104.271
103.648
103.107
102.638
102.234
101.886
101.588
101.333
101.116
100.932
100.775
100.643
100.532
100.439
100.361
100.296
100.242
100.197
100.16
100.13
100.105
100.084
100.068
100.054
100.043
100.033
100.026
100.02
100.014
100.01
100.006
100.002
393.25
379.771
366.357
353.049
339.888
326.915
314.167
301.68
289.488
277.621
266.108
254.973
244.239
233.923
224.042
214.606
205.624
197.102
189.041
181.441
174.298
167.607
161.357
155.539
150.14
145.146
140.541
136.307
132.428
128.885
125.659
122.731
120.081
117.692
115.544
113.618
111.898
110.366
109.006
107.803
106.741
105.807
104.988
104.273
103.65
103.108
102.64