/*--------------------------------*- C++ -*----------------------------------*\
  =========                 |
  \\      /  F ield         | OpenFOAM: The Open Source CFD Toolbox
   \\    /   O peration     | Website:  https://openfoam.org
    \\  /    A nd           | Version:  10
     \\/     M anipulation  |
\*---------------------------------------------------------------------------*/
FoamFile
{
    format      ascii;
    class       volScalarField;
    location    "433";
    object      gradTz;
}
// * * * * * * * * * * * * * * * * * * * * * * * * * * * * * * * * * * * * * //

dimensions      [0 -1 0 1 0 0 0];

internalField   nonuniform List<scalar> 
11250
(
-14342.3
-4137.95
-1517.98
-714.863
-410.723
-269.768
-193.124
-146.387
-115.464
-93.732
-77.7263
-65.4868
-55.8344
-48.0254
-41.5733
-36.149
-31.5244
-27.5372
-24.0698
-21.0348
-18.3658
-16.0117
-13.9318
-12.0933
-10.4688
-9.03512
-7.77233
-6.66277
-5.69069
-4.84189
-4.10341
-3.46341
-2.91104
-2.43636
-2.03024
-1.68438
-1.39121
-1.14389
-0.936259
-0.762799
-0.618603
-0.499333
-0.401173
-0.320796
-0.255312
-0.202234
-0.15943
-0.125087
-0.0976737
-0.0759036
-0.0587033
-0.0451831
-0.0346099
-0.0263836
-0.020016
-0.0151121
-0.0113549
-0.00849072
-0.0063185
-0.00467941
-0.00344888
-0.00252974
-0.00184669
-0.00134166
-0.000970164
-0.000698321
-0.00050047
-0.000357306
-0.000254401
-0.000181053
-0.000129408
-9.37778e-05
-7.01417e-05
-5.57742e-05
-4.89913e-05
-8231.11
-4829.28
-2736.88
-1645.45
-1068.82
-744.845
-549.333
-423.231
-337.105
-275.389
-229.351
-193.83
-165.635
-142.712
-123.701
-107.671
-93.973
-82.1413
-71.8365
-62.8059
-54.8569
-47.84
-41.6364
-36.1497
-31.2995
-27.0175
-23.2447
-19.9287
-17.023
-14.4853
-12.277
-10.363
-8.71081
-7.29082
-6.07584
-5.04104
-4.16382
-3.42374
-2.80238
-2.28326
-1.8517
-1.49472
-1.20092
-0.96033
-0.764317
-0.60543
-0.477296
-0.374488
-0.292422
-0.227249
-0.175755
-0.135278
-0.103623
-0.0789944
-0.0599298
-0.0452477
-0.0339983
-0.0254228
-0.0189189
-0.0140113
-0.0103268
-0.00757477
-0.00552955
-0.00401736
-0.00290501
-0.00209103
-0.0014986
-0.00106992
-0.000761781
-0.00054215
-0.000387504
-0.000280814
-0.000210038
-0.000167016
-0.000146705
-5521.18
-4210.63
-2954.3
-2060.7
-1473.8
-1091.01
-835.734
-659.75
-534.041
-441.127
-370.274
-314.721
-270.087
-233.465
-202.873
-176.933
-154.667
-135.366
-118.507
-103.698
-90.6381
-79.0916
-68.8704
-59.8205
-51.8135
-44.7393
-38.5024
-33.0178
-28.2096
-24.0087
-20.352
-17.1815
-14.4442
-12.091
-10.0771
-8.36164
-6.90718
-5.67994
-4.64945
-3.78842
-3.07255
-2.48035
-1.99291
-1.59373
-1.26849
-1.00483
-0.792197
-0.621581
-0.485383
-0.377214
-0.291747
-0.224563
-0.17202
-0.131138
-0.0994909
-0.0751183
-0.0564435
-0.0422074
-0.0314101
-0.0232625
-0.0171456
-0.0125766
-0.00918096
-0.00667029
-0.00482343
-0.00347195
-0.00248831
-0.00177654
-0.00126491
-0.000900228
-0.000643448
-0.000466295
-0.000348774
-0.000277337
-0.000243612
-4120.86
-3536.83
-2808.08
-2168.39
-1673.86
-1308.95
-1042.18
-845.415
-697.692
-584.404
-495.592
-424.476
-366.405
-318.151
-277.438
-242.641
-212.582
-186.393
-163.423
-143.178
-125.275
-109.411
-95.3418
-82.8655
-71.8126
-62.0368
-53.4101
-45.8182
-39.1581
-33.3359
-28.2654
-23.8673
-20.0687
-16.8021
-14.0057
-11.6231
-9.60254
-7.89731
-6.46521
-5.26842
-4.27327
-3.44991
-2.77214
-2.21703
-1.7647
-1.39799
-1.10222
-0.864878
-0.675401
-0.52491
-0.405995
-0.312513
-0.2394
-0.182511
-0.138471
-0.104552
-0.0785623
-0.058749
-0.0437212
-0.032381
-0.0238669
-0.0175071
-0.0127805
-0.00928568
-0.0067148
-0.00483346
-0.00346415
-0.00247328
-0.00176102
-0.00125333
-0.000895844
-0.000649211
-0.000485596
-0.00038614
-0.000339188
-3303.27
-3006.46
-2571.57
-2129.73
-1743.21
-1427.7
-1177.71
-981.234
-826.224
-702.65
-602.788
-520.889
-452.735
-395.243
-346.147
-303.777
-266.887
-234.542
-206.026
-180.786
-158.388
-138.484
-120.79
-105.068
-91.1166
-78.7603
-67.8435
-58.2266
-49.7829
-42.396
-35.9587
-30.3721
-25.5446
-21.3915
-17.835
-14.8036
-12.2322
-10.0615
-8.23808
-6.71396
-5.44638
-4.39746
-3.53388
-2.82649
-2.25
-1.78258
-1.40554
-1.10296
-0.861376
-0.669485
-0.517846
-0.39863
-0.305384
-0.232825
-0.176652
-0.133386
-0.100232
-0.0749563
-0.0557846
-0.0413167
-0.030454
-0.0223396
-0.0163088
-0.0118494
-0.00856894
-0.00616825
-0.00442089
-0.00315642
-0.00224748
-0.00159957
-0.00114335
-0.000828596
-0.000619784
-0.000492853
-0.000432931
-2780.81
-2612.53
-2340.4
-2034.24
-1740.12
-1479.65
-1258.54
-1074.56
-922.449
-796.475
-691.475
-603.175
-528.185
-463.872
-408.209
-359.643
-316.98
-279.298
-245.877
-216.15
-189.663
-166.046
-144.992
-126.241
-109.569
-94.7786
-81.6927
-70.1513
-60.0074
-51.1253
-43.3792
-36.6522
-30.8358
-25.8295
-21.5404
-17.8832
-14.7799
-12.1593
-9.95737
-8.11641
-6.58498
-5.31747
-4.27372
-3.41861
-2.72163
-2.15644
-1.70047
-1.3345
-1.04228
-0.810149
-0.626691
-0.482447
-0.369616
-0.281811
-0.21383
-0.161466
-0.121338
-0.0907439
-0.0675369
-0.0500229
-0.0368726
-0.0270488
-0.0197474
-0.0143483
-0.0103763
-0.00746945
-0.00535362
-0.00382248
-0.0027218
-0.00193721
-0.00138472
-0.00100354
-0.00075066
-0.000596938
-0.000524368
-2424.61
-2320.47
-2141.34
-1924.87
-1701.66
-1490.64
-1300.83
-1134.77
-991.481
-868.466
-762.8
-671.69
-592.692
-523.77
-463.268
-409.862
-362.493
-320.321
-282.672
-249.001
-218.865
-191.893
-167.773
-146.234
-127.041
-109.982
-94.8651
-81.5141
-69.7659
-59.4687
-50.4806
-42.669
-35.9104
-30.0898
-25.1004
-20.8442
-17.2311
-14.1789
-11.6135
-9.46805
-7.68284
-6.20494
-4.98769
-3.99024
-3.17708
-2.51759
-1.98546
-1.55831
-1.21719
-0.946178
-0.731973
-0.563537
-0.431771
-0.329221
-0.249818
-0.188652
-0.141776
-0.106034
-0.07892
-0.0584568
-0.0430912
-0.0316119
-0.0230796
-0.01677
-0.012128
-0.00873076
-0.00625785
-0.00446823
-0.0031817
-0.0022646
-0.00161879
-0.00117321
-0.000877598
-0.000697898
-0.000613064
-2170.18
-2101.08
-1977.37
-1820.09
-1648.98
-1478.57
-1317.71
-1170.75
-1039
-922.101
-818.798
-727.553
-646.812
-575.154
-511.345
-454.342
-403.278
-357.439
-316.232
-279.168
-245.834
-215.88
-189.002
-164.933
-143.433
-124.285
-107.287
-92.2515
-79.0044
-67.3805
-57.2245
-48.3905
-40.7417
-34.15
-28.4965
-23.6713
-19.5732
-16.1101
-13.1982
-10.7621
-8.73453
-7.05552
-5.67229
-4.53858
-3.61417
-2.8643
-2.25915
-1.77331
-1.38526
-1.07693
-0.833198
-0.641521
-0.491559
-0.374836
-0.284451
-0.214819
-0.16145
-0.120755
-0.089882
-0.0665798
-0.0490814
-0.036008
-0.0262903
-0.0191037
-0.0138163
-0.00994651
-0.0071295
-0.00509078
-0.00362512
-0.0025803
-0.00184452
-0.00133685
-0.00100004
-0.000795288
-0.000698627
-1982.16
-1933.63
-1844.38
-1726.7
-1593.31
-1454.84
-1318.81
-1189.83
-1070.28
-960.988
-861.857
-772.296
-691.492
-618.583
-552.743
-493.225
-439.375
-390.629
-346.5
-306.573
-270.486
-237.922
-208.599
-182.262
-158.677
-137.625
-118.903
-102.316
-87.6817
-74.8253
-63.5807
-53.791
-45.3078
-37.9919
-31.7135
-26.3519
-21.796
-17.9443
-14.7044
-11.993
-9.73545
-7.8655
-6.32456
-5.0613
-4.03102
-3.19509
-2.52038
-1.97859
-1.5458
-1.20186
-0.92994
-0.716073
-0.548731
-0.418466
-0.317584
-0.239858
-0.180281
-0.134848
-0.100378
-0.0743586
-0.0548187
-0.0402192
-0.0293664
-0.0213399
-0.0154343
-0.0111118
-0.00796505
-0.00568762
-0.00405027
-0.00288302
-0.00206099
-0.00149379
-0.00111748
-0.000888714
-0.000780713
-1839.66
-1803.93
-1736.96
-1646.25
-1540.16
-1426.31
-1310.72
-1197.64
-1089.72
-988.428
-894.362
-807.593
-727.88
-654.823
-587.96
-526.823
-470.968
-419.989
-373.517
-331.222
-292.803
-257.988
-226.526
-198.181
-172.731
-149.964
-129.677
-111.675
-95.769
-81.7776
-69.5271
-58.8513
-49.5925
-41.6018
-34.7397
-28.8762
-23.8913
-19.6748
-16.1266
-13.156
-10.6819
-8.63192
-6.94212
-5.55645
-4.42608
-3.50875
-2.76818
-2.1734
-1.6982
-1.3205
-1.02185
-0.786921
-0.603078
-0.459951
-0.349096
-0.263679
-0.198199
-0.14826
-0.110369
-0.0817651
-0.0602825
-0.0442302
-0.0322968
-0.0234706
-0.0169761
-0.0122223
-0.0087615
-0.0062566
-0.00445564
-0.00317168
-0.00226744
-0.00164349
-0.00122951
-0.000977845
-0.00085903
-1729.58
-1702.17
-1650.12
-1578.17
-1491.94
-1396.91
-1297.79
-1198.23
-1100.81
-1007.23
-918.482
-835.075
-757.174
-684.738
-617.607
-555.559
-498.345
-445.711
-397.405
-353.187
-312.825
-276.096
-242.785
-212.682
-185.583
-161.286
-139.594
-120.312
-103.25
-88.2223
-75.0498
-63.5591
-53.5849
-44.9702
-37.5671
-31.2374
-25.8532
-21.2968
-17.4608
-14.248
-11.5712
-9.35252
-7.52313
-6.02259
-4.7982
-3.80435
-3.00182
-2.35717
-1.84202
-1.4325
-1.10864
-0.853851
-0.654435
-0.499166
-0.378893
-0.286209
-0.215151
-0.160953
-0.119826
-0.0887768
-0.065456
-0.048029
-0.0350726
-0.0254892
-0.0184371
-0.0132748
-0.00951642
-0.00679599
-0.00483998
-0.00344542
-0.00246323
-0.00178548
-0.00133579
-0.00106241
-0.000933341
-1643.29
-1621.51
-1579.73
-1521.08
-1449.43
-1368.78
-1282.77
-1194.44
-1106.16
-1019.65
-936.085
-856.228
-780.526
-709.204
-642.341
-579.919
-521.86
-468.048
-418.344
-372.595
-330.637
-292.301
-257.411
-225.787
-197.244
-171.596
-148.652
-128.223
-110.119
-94.1533
-80.1425
-67.9084
-57.2794
-48.0918
-40.1908
-33.4313
-27.6782
-22.8071
-18.7043
-15.2667
-12.4015
-10.0258
-8.06636
-6.4587
-5.14655
-4.08121
-3.22077
-2.52946
-1.97692
-1.53761
-1.19012
-0.916707
-0.702684
-0.536019
-0.406904
-0.307394
-0.231095
-0.172894
-0.128725
-0.095377
-0.070327
-0.0516063
-0.0376871
-0.0273908
-0.0198137
-0.0142667
-0.010228
-0.00730449
-0.00520236
-0.00370355
-0.0026479
-0.00191942
-0.00143606
-0.0011422
-0.00100346
-1574.88
-1557.02
-1522.49
-1473.44
-1412.62
-1342.97
-1267.33
-1188.22
-1107.71
-1027.47
-948.708
-872.34
-798.985
-729.057
-662.817
-600.409
-541.9
-487.294
-436.554
-389.608
-346.36
-306.692
-270.468
-237.54
-207.746
-180.913
-156.865
-135.416
-116.382
-99.5733
-84.8063
-71.8988
-60.6748
-50.9653
-42.6095
-35.4563
-29.3647
-24.2044
-19.856
-16.211
-13.1718
-10.6509
-8.57113
-6.8642
-5.47067
-4.33897
-3.42473
-2.69003
-2.10271
-1.63565
-1.26617
-0.97539
-0.747747
-0.570452
-0.433084
-0.327201
-0.246007
-0.184065
-0.137053
-0.101554
-0.074887
-0.0549561
-0.0401359
-0.0291723
-0.0211035
-0.0151963
-0.0108949
-0.0077812
-0.00554214
-0.00394562
-0.0028211
-0.00204507
-0.00153014
-0.00121707
-0.00106927
-1520.18
-1505.12
-1475.82
-1433.81
-1381.09
-1319.89
-1252.45
-1180.82
-1106.84
-1032.02
-957.586
-884.492
-813.469
-745.059
-679.654
-617.528
-558.86
-503.76
-452.278
-404.416
-360.139
-319.379
-282.04
-248.005
-217.134
-189.275
-164.259
-141.912
-122.052
-104.492
-89.0482
-75.5355
-63.7748
-53.593
-44.8247
-37.3135
-30.9134
-25.489
-20.9158
-17.0809
-13.882
-11.2278
-9.03728
-7.23895
-5.77041
-4.57749
-3.61357
-2.83879
-2.2193
-1.72657
-1.33672
-1.02986
-0.78959
-0.602436
-0.457411
-0.345612
-0.259872
-0.194455
-0.1448
-0.107303
-0.0791318
-0.058075
-0.0424164
-0.0308318
-0.0223053
-0.0160625
-0.0115166
-0.00822561
-0.00585896
-0.00417138
-0.00298266
-0.00216229
-0.00161792
-0.00128695
-0.00113068
-1476.15
-1463.12
-1437.66
-1400.88
-1354.3
-1299.62
-1238.65
-1173.08
-1104.52
-1034.33
-963.686
-893.569
-824.76
-757.882
-693.421
-631.744
-573.126
-517.757
-465.765
-417.216
-372.131
-330.487
-292.226
-257.259
-225.472
-196.727
-170.872
-147.739
-127.151
-108.927
-92.881
-78.828
-66.5866
-55.9805
-46.8403
-39.0058
-32.3264
-26.6624
-21.8851
-17.8772
-14.5328
-11.7569
-9.46516
-7.5832
-6.04594
-4.79689
-3.78739
-2.97579
-2.32674
-1.8104
-1.40179
-1.08012
-0.828218
-0.631974
-0.479886
-0.362628
-0.27269
-0.204064
-0.151968
-0.112623
-0.0830609
-0.0609627
-0.0445284
-0.0323689
-0.0234187
-0.0168653
-0.0120928
-0.00863762
-0.00615274
-0.00438075
-0.00313252
-0.00227105
-0.00169938
-0.0013518
-0.00118769
-1440.53
-1429
-1406.4
-1373.56
-1331.66
-1282.04
-1226.18
-1165.5
-1101.4
-1035.11
-967.753
-900.283
-833.511
-768.106
-704.619
-643.488
-585.058
-529.587
-477.265
-428.214
-382.503
-340.151
-301.133
-265.389
-232.826
-203.326
-176.746
-152.93
-131.708
-112.899
-96.3216
-81.7898
-69.1207
-58.1358
-48.6629
-40.5382
-33.6077
-27.7277
-22.766
-18.6017
-15.1255
-12.2392
-9.85553
-7.89751
-6.2977
-4.99751
-3.94642
-3.10122
-2.42515
-1.88723
-1.46146
-1.12623
-0.863672
-0.659097
-0.500531
-0.378264
-0.284474
-0.2129
-0.158561
-0.117518
-0.0866773
-0.0636214
-0.0464734
-0.0337849
-0.0244446
-0.0176051
-0.012624
-0.00901747
-0.00642364
-0.00457387
-0.00327077
-0.00237139
-0.00177455
-0.00141166
-0.00124031
-1411.61
-1401.21
-1380.75
-1350.91
-1312.6
-1266.94
-1215.12
-1158.38
-1097.93
-1034.91
-970.353
-905.198
-840.255
-776.222
-713.689
-653.145
-594.989
-539.533
-487.016
-437.609
-391.421
-348.507
-308.874
-272.487
-239.273
-209.131
-181.932
-157.527
-135.753
-116.435
-99.3909
-84.4373
-71.3903
-60.0695
-50.3007
-41.9173
-34.7623
-28.6889
-23.5618
-19.2569
-15.662
-12.6762
-10.2096
-8.1828
-6.52639
-5.17986
-4.09108
-3.21538
-2.51478
-1.95723
-1.51586
-1.16829
-0.896026
-0.683859
-0.519388
-0.392551
-0.295245
-0.220979
-0.164591
-0.121997
-0.0899872
-0.0660554
-0.0482545
-0.0350819
-0.0253845
-0.0182831
-0.0131109
-0.00936575
-0.00667208
-0.004751
-0.00339761
-0.00246348
-0.00184355
-0.0014666
-0.00128863
-1388.07
-1378.52
-1359.7
-1332.15
-1296.63
-1254.05
-1205.44
-1151.86
-1094.4
-1034.09
-971.911
-908.755
-845.427
-782.638
-721.005
-661.053
-603.217
-547.854
-495.242
-445.592
-399.046
-355.692
-315.563
-278.647
-244.891
-214.208
-186.481
-161.572
-139.322
-119.562
-102.112
-86.7893
-73.4103
-61.7937
-51.7634
-43.1508
-35.7965
-29.551
-24.2764
-19.8459
-16.1448
-13.0698
-10.5287
-8.44021
-6.73289
-5.34465
-4.22189
-3.31868
-2.59593
-2.02065
-1.56517
-1.20644
-0.925382
-0.706338
-0.536512
-0.405531
-0.305034
-0.228326
-0.170076
-0.126072
-0.0929996
-0.0682713
-0.0498765
-0.0362633
-0.026241
-0.018901
-0.0135547
-0.00968331
-0.00689866
-0.00491259
-0.00351334
-0.00254751
-0.00190653
-0.00151677
-0.00133274
-1368.86
-1359.96
-1342.4
-1316.63
-1283.27
-1243.12
-1197.06
-1146.03
-1091
-1032.93
-972.744
-911.294
-849.372
-787.693
-726.887
-667.503
-610.006
-554.784
-502.149
-452.34
-405.531
-361.835
-321.31
-283.963
-249.758
-218.622
-190.449
-165.11
-142.453
-122.311
-104.51
-88.8663
-75.1976
-63.3219
-53.0619
-44.2476
-36.7173
-30.3196
-24.9142
-20.3722
-16.5767
-13.4222
-10.8148
-8.67111
-6.91827
-5.4927
-4.3395
-3.41161
-2.66898
-2.07778
-1.60961
-1.24083
-0.951867
-0.726627
-0.551976
-0.417258
-0.313882
-0.234967
-0.175037
-0.129759
-0.095726
-0.0702775
-0.0513454
-0.0373336
-0.027017
-0.019461
-0.0139571
-0.00997128
-0.00710417
-0.00505918
-0.00361835
-0.00262379
-0.0019637
-0.00156232
-0.0013728
-1353.18
-1344.79
-1328.2
-1303.8
-1272.14
-1233.9
-1189.86
-1140.88
-1087.83
-1031.61
-973.084
-913.077
-852.367
-791.662
-731.6
-672.746
-615.587
-560.533
-507.921
-458.017
-411.019
-367.061
-326.221
-288.524
-253.95
-222.437
-193.89
-168.187
-145.182
-124.715
-106.61
-90.6896
-76.7695
-64.6683
-54.2079
-45.2169
-37.5322
-31.0007
-25.4801
-20.8398
-16.9608
-13.736
-11.0696
-8.87703
-7.08373
-5.62494
-4.44463
-3.49474
-2.73437
-2.12895
-1.64944
-1.27168
-0.975627
-0.744837
-0.565862
-0.427792
-0.321833
-0.240938
-0.179499
-0.133076
-0.0981799
-0.0720836
-0.0526683
-0.0382977
-0.0277163
-0.0199658
-0.0143198
-0.010231
-0.00728954
-0.00519144
-0.00371313
-0.00269264
-0.00201533
-0.00160346
-0.00140899
-1340.37
-1332.37
-1316.54
-1293.21
-1262.88
-1226.15
-1183.73
-1136.39
-1084.95
-1030.25
-973.097
-914.306
-854.628
-794.768
-735.365
-676.995
-620.157
-565.282
-512.725
-462.773
-415.641
-371.484
-330.397
-292.419
-257.542
-225.717
-196.857
-170.848
-147.549
-126.803
-108.44
-92.2808
-78.144
-65.8477
-55.2133
-46.0687
-38.2494
-31.6009
-25.9794
-21.2527
-17.3004
-14.0137
-11.2954
-9.05961
-7.23057
-5.74239
-4.53806
-3.56867
-2.79257
-2.17451
-1.68493
-1.29917
-0.996821
-0.761089
-0.57826
-0.437202
-0.328939
-0.246277
-0.183489
-0.136044
-0.100376
-0.0737008
-0.0538531
-0.0391615
-0.0283429
-0.0204183
-0.0146451
-0.0104639
-0.00745584
-0.00531012
-0.00379819
-0.00275445
-0.00206168
-0.00164041
-0.00144149
-1329.91
-1322.21
-1306.97
-1284.49
-1255.2
-1219.67
-1178.53
-1132.52
-1082.38
-1028.91
-972.907
-915.131
-856.327
-797.191
-738.365
-680.427
-623.888
-569.191
-516.708
-466.738
-419.516
-375.211
-333.93
-295.726
-260.603
-228.521
-199.402
-173.136
-149.589
-128.608
-110.024
-93.6617
-79.3391
-66.8748
-56.0904
-46.8128
-38.8768
-32.1266
-26.4174
-21.6154
-17.5989
-14.258
-11.4943
-9.22058
-7.36013
-5.8461
-4.62063
-3.63406
-2.84406
-2.21486
-1.71637
-1.32355
-1.01562
-0.775512
-0.589268
-0.445561
-0.335254
-0.251023
-0.187038
-0.138684
-0.102331
-0.0751407
-0.0549084
-0.0399311
-0.0289015
-0.0208217
-0.0149352
-0.0106716
-0.00760422
-0.00541604
-0.00387412
-0.00280964
-0.00210309
-0.00167342
-0.00147053
-1321.37
-1313.91
-1299.13
-1277.31
-1248.85
-1214.27
-1174.16
-1129.2
-1080.12
-1027.67
-972.597
-915.664
-857.595
-799.077
-740.748
-683.191
-626.924
-572.398
-519.996
-470.032
-422.751
-378.335
-336.904
-298.521
-263.2
-230.907
-201.573
-175.094
-151.339
-130.159
-111.389
-94.8534
-80.3722
-67.7644
-56.8513
-47.4593
-39.4226
-32.5846
-26.7993
-21.932
-17.8599
-14.4718
-11.6685
-9.36169
-7.47381
-5.93717
-4.69319
-3.69156
-2.88938
-2.25038
-1.74408
-1.34504
-1.0322
-0.788241
-0.598989
-0.452946
-0.340835
-0.25522
-0.190178
-0.141021
-0.104061
-0.0764157
-0.0558431
-0.040613
-0.0293965
-0.0211794
-0.0151924
-0.0108559
-0.00773588
-0.00551005
-0.00394154
-0.00285866
-0.00213986
-0.00170274
-0.00149633
-1314.41
-1307.14
-1292.72
-1271.42
-1243.61
-1209.78
-1170.49
-1126.39
-1078.16
-1026.53
-972.226
-915.992
-858.537
-800.54
-742.637
-685.411
-629.386
-575.018
-522.701
-472.756
-425.44
-380.944
-339.397
-300.872
-265.39
-232.926
-203.415
-176.759
-152.831
-131.485
-112.558
-95.8762
-81.2606
-68.5306
-57.5076
-48.0178
-39.8948
-32.9813
-27.1306
-22.2069
-18.0867
-14.6579
-11.8202
-9.4847
-7.57299
-6.01669
-4.7566
-3.74184
-2.92904
-2.28149
-1.76835
-1.36388
-1.04675
-0.799413
-0.607524
-0.459433
-0.34574
-0.25891
-0.19294
-0.143077
-0.105585
-0.0775385
-0.0566666
-0.041214
-0.0298329
-0.0214948
-0.0154194
-0.0110185
-0.00785208
-0.00559304
-0.00400106
-0.00290195
-0.00217236
-0.00172866
-0.00151914
-1308.74
-1301.61
-1287.48
-1266.59
-1239.3
-1206.07
-1167.44
-1124.01
-1076.47
-1025.51
-971.835
-916.177
-859.231
-801.672
-744.13
-687.19
-631.377
-577.153
-524.918
-475
-427.665
-383.111
-341.476
-302.84
-267.23
-234.627
-204.971
-178.169
-154.098
-132.613
-113.554
-96.7493
-82.0203
-69.1869
-58.0706
-48.4976
-40.3011
-33.3231
-27.4163
-22.4443
-18.2828
-14.8189
-11.9516
-9.59134
-7.65904
-6.08574
-4.8117
-3.78556
-2.96355
-2.30859
-1.7895
-1.38031
-1.05944
-0.809164
-0.614978
-0.465101
-0.350028
-0.262137
-0.195356
-0.144877
-0.106919
-0.078522
-0.0573882
-0.0417407
-0.0302155
-0.0217714
-0.0156184
-0.0111612
-0.00795407
-0.00566591
-0.00405335
-0.00293998
-0.00220091
-0.00175143
-0.00153919
-1304.13
-1297.12
-1283.21
-1262.65
-1235.77
-1203.01
-1164.9
-1122.02
-1075.03
-1024.61
-971.45
-916.264
-859.74
-802.544
-745.308
-688.611
-632.982
-578.887
-526.728
-476.842
-429.5
-384.905
-343.203
-304.48
-268.767
-236.052
-206.278
-179.356
-155.167
-133.567
-114.398
-97.4907
-82.6664
-69.746
-58.551
-48.9076
-40.6486
-33.6159
-27.6613
-22.6482
-18.4513
-14.9574
-12.0648
-9.68327
-7.73329
-6.14537
-4.85931
-3.82338
-2.99342
-2.33205
-1.80783
-1.39455
-1.07045
-0.817628
-0.621451
-0.470026
-0.353755
-0.264943
-0.197458
-0.146444
-0.10808
-0.0793787
-0.0580169
-0.0421998
-0.0305491
-0.0220126
-0.0157921
-0.0112858
-0.00804312
-0.00572954
-0.00409901
-0.00297321
-0.00222586
-0.00177135
-0.00155671
-1300.39
-1293.47
-1279.74
-1259.43
-1232.88
-1200.5
-1162.8
-1120.36
-1073.82
-1023.83
-971.087
-916.286
-860.109
-803.216
-746.234
-689.743
-634.272
-580.289
-528.201
-478.349
-431.006
-386.384
-344.632
-305.84
-270.046
-237.24
-207.371
-180.351
-156.064
-134.37
-115.11
-98.1168
-83.2131
-70.2198
-58.9588
-49.2561
-40.9444
-33.8653
-27.8704
-22.8223
-18.5954
-15.0759
-12.1617
-9.76209
-7.797
-6.19658
-4.90024
-3.85591
-3.01913
-2.35225
-1.82363
-1.40683
-1.07995
-0.824934
-0.627042
-0.474282
-0.356978
-0.267371
-0.199277
-0.1478
-0.109086
-0.0801209
-0.0585618
-0.0425979
-0.0308385
-0.022222
-0.0159428
-0.0113939
-0.00812044
-0.00578481
-0.00413869
-0.00300209
-0.00224756
-0.00178866
-0.00157196
-1297.36
-1290.51
-1276.93
-1256.82
-1230.52
-1198.44
-1161.07
-1118.98
-1072.79
-1023.16
-970.754
-916.267
-860.374
-803.731
-746.96
-690.643
-635.306
-581.421
-529.396
-479.576
-432.238
-387.597
-345.807
-306.963
-271.105
-238.227
-208.281
-181.181
-156.814
-135.042
-115.707
-98.643
-83.6733
-70.6192
-59.303
-49.5506
-41.1948
-34.0768
-28.0478
-22.9702
-18.7179
-15.1768
-12.2443
-9.8293
-7.85138
-6.24032
-4.93522
-3.88373
-3.04113
-2.36956
-1.83717
-1.41736
-1.0881
-0.831208
-0.631845
-0.47794
-0.359749
-0.269459
-0.200842
-0.148967
-0.109952
-0.0807604
-0.0590315
-0.0429411
-0.0310881
-0.0224026
-0.0160729
-0.0114872
-0.00818722
-0.00583256
-0.00417298
-0.00302705
-0.00226631
-0.00180364
-0.00158514
-1294.92
-1288.12
-1274.65
-1254.7
-1228.6
-1196.76
-1159.65
-1117.84
-1071.94
-1022.59
-970.457
-916.225
-860.563
-804.124
-747.529
-691.355
-636.132
-582.331
-530.362
-480.571
-433.241
-388.589
-346.771
-307.886
-271.978
-239.042
-209.034
-181.87
-157.438
-135.602
-116.206
-99.083
-84.0586
-70.9541
-59.592
-49.7983
-41.4056
-34.255
-28.1975
-23.0951
-18.8216
-15.2622
-12.3143
-9.88631
-7.89754
-6.27747
-4.96497
-3.9074
-3.05987
-2.38431
-1.84871
-1.42635
-1.09505
-0.836566
-0.635949
-0.481066
-0.362119
-0.271246
-0.202182
-0.149967
-0.110694
-0.0813086
-0.0594342
-0.0432355
-0.0313022
-0.0225576
-0.0161846
-0.0115674
-0.00824458
-0.00587359
-0.00420245
-0.00304851
-0.00228244
-0.00181652
-0.00159649
-1292.94
-1286.19
-1272.8
-1252.99
-1227.05
-1195.39
-1158.5
-1116.91
-1071.23
-1022.11
-970.196
-916.169
-860.696
-804.424
-747.973
-691.919
-636.791
-583.06
-531.139
-481.376
-434.055
-389.396
-347.558
-308.642
-272.694
-239.713
-209.655
-182.439
-157.954
-136.066
-116.619
-99.4489
-84.3796
-71.2336
-59.8335
-50.0056
-41.5822
-34.4045
-28.3232
-23.2001
-18.9087
-15.3342
-12.3733
-9.9344
-7.93651
-6.30887
-4.99012
-3.92743
-3.07573
-2.3968
-1.8585
-1.43397
-1.10096
-0.841116
-0.639436
-0.483725
-0.364135
-0.272766
-0.203323
-0.150819
-0.111327
-0.0817758
-0.0597776
-0.0434866
-0.0314849
-0.0226899
-0.01628
-0.0116359
-0.0082936
-0.00590866
-0.00422765
-0.00306687
-0.00229624
-0.00182754
-0.0016062
-1291.36
-1284.64
-1271.32
-1251.6
-1225.79
-1194.28
-1157.55
-1116.15
-1070.65
-1021.71
-969.97
-916.109
-860.788
-804.652
-748.319
-692.363
-637.313
-583.643
-531.763
-482.025
-434.714
-390.051
-348.198
-309.258
-273.279
-240.262
-210.164
-182.907
-158.38
-136.449
-116.961
-99.7518
-84.6456
-71.4656
-60.0343
-50.178
-41.7294
-34.5292
-28.4281
-23.2879
-18.9817
-15.3944
-12.4228
-9.97475
-7.96924
-6.33526
-5.01127
-3.94429
-3.08909
-2.40733
-1.86675
-1.4404
-1.10595
-0.84496
-0.642384
-0.485973
-0.36584
-0.274053
-0.20429
-0.15154
-0.111863
-0.082172
-0.0600689
-0.0436997
-0.03164
-0.0228022
-0.016361
-0.011694
-0.00833525
-0.00593847
-0.00424907
-0.00308248
-0.00230799
-0.00183692
-0.00161446
-1290.09
-1283.4
-1270.13
-1250.49
-1224.78
-1193.39
-1156.79
-1115.52
-1070.17
-1021.37
-969.777
-916.049
-860.851
-804.825
-748.587
-692.712
-637.728
-584.107
-532.262
-482.546
-435.243
-390.58
-348.716
-309.758
-273.755
-240.709
-210.58
-183.289
-158.728
-136.763
-117.243
-100.001
-84.8651
-71.6571
-60.2003
-50.3208
-41.8513
-34.6326
-28.5153
-23.3609
-19.0424
-15.4446
-12.464
-10.0084
-7.99658
-6.35732
-5.02897
-3.95841
-3.10029
-2.41616
-1.87367
-1.4458
-1.11013
-0.848191
-0.644863
-0.487864
-0.367276
-0.275137
-0.205104
-0.152149
-0.112315
-0.0825061
-0.0603147
-0.0438796
-0.031771
-0.0228971
-0.0164295
-0.0117432
-0.00837047
-0.00596368
-0.0042672
-0.0030957
-0.00231792
-0.00184486
-0.00162146
-1289.07
-1282.41
-1269.18
-1249.6
-1223.97
-1192.67
-1156.18
-1115.02
-1069.78
-1021.1
-969.613
-915.992
-860.892
-804.955
-748.795
-692.986
-638.054
-584.475
-532.66
-482.962
-435.669
-391.005
-349.134
-310.162
-274.14
-241.073
-210.918
-183.601
-159.012
-137.02
-117.473
-100.206
-85.0452
-71.8146
-60.3368
-50.4384
-41.9519
-34.7181
-28.5874
-23.4213
-19.0927
-15.4862
-12.4982
-10.0364
-8.01929
-6.37567
-5.0437
-3.97017
-3.10962
-2.42352
-1.87945
-1.45031
-1.11363
-0.850891
-0.646935
-0.489447
-0.368477
-0.276045
-0.205786
-0.152658
-0.112694
-0.0827864
-0.0605209
-0.0440306
-0.031881
-0.0229768
-0.016487
-0.0117845
-0.00840008
-0.00598489
-0.00428245
-0.00310682
-0.00232629
-0.00185155
-0.00162736
-1288.26
-1281.62
-1268.43
-1248.89
-1223.32
-1192.1
-1155.68
-1114.61
-1069.47
-1020.87
-969.477
-915.94
-860.919
-805.054
-748.956
-693.199
-638.312
-584.766
-532.976
-483.294
-436.008
-391.345
-349.469
-310.487
-274.451
-241.366
-211.192
-183.854
-159.243
-137.229
-117.66
-100.372
-85.1923
-71.9433
-60.4487
-50.5349
-42.0345
-34.7883
-28.6467
-23.471
-19.1342
-15.5206
-12.5265
-10.0595
-8.03807
-6.39084
-5.05589
-3.9799
-3.11735
-2.42963
-1.88425
-1.45406
-1.11654
-0.853136
-0.648659
-0.490764
-0.369478
-0.276801
-0.206354
-0.153083
-0.11301
-0.0830203
-0.0606931
-0.0441567
-0.0319728
-0.0230435
-0.0165351
-0.0118191
-0.00842485
-0.00600263
-0.00429521
-0.00311613
-0.0023333
-0.00185716
-0.00163229
-1287.62
-1280.99
-1267.82
-1248.33
-1222.81
-1191.64
-1155.29
-1114.28
-1069.21
-1020.69
-969.363
-915.894
-860.936
-805.127
-749.079
-693.366
-638.514
-584.995
-533.226
-483.557
-436.279
-391.617
-349.738
-310.748
-274.701
-241.602
-211.413
-184.057
-159.43
-137.398
-117.812
-100.508
-85.3118
-72.048
-60.5397
-50.6135
-42.1019
-34.8456
-28.6952
-23.5118
-19.1681
-15.5487
-12.5497
-10.0785
-8.05352
-6.40334
-5.06593
-3.98793
-3.12373
-2.43467
-1.88821
-1.45715
-1.11894
-0.854992
-0.650086
-0.491854
-0.370307
-0.277427
-0.206825
-0.153436
-0.113272
-0.0832144
-0.0608361
-0.0442614
-0.0320492
-0.0230988
-0.016575
-0.0118478
-0.00844546
-0.0060174
-0.00430584
-0.00312388
-0.00233914
-0.00186182
-0.00163641
-1287.12
-1280.49
-1267.35
-1247.88
-1222.4
-1191.27
-1154.97
-1114.02
-1069
-1020.54
-969.27
-915.854
-860.946
-805.182
-749.174
-693.495
-638.672
-585.176
-533.423
-483.765
-436.493
-391.833
-349.951
-310.955
-274.9
-241.791
-211.589
-184.221
-159.58
-137.535
-117.935
-100.617
-85.4084
-72.1328
-60.6136
-50.6773
-42.1566
-34.8923
-28.7346
-23.5449
-19.1958
-15.5717
-12.5686
-10.094
-8.06615
-6.41356
-5.07416
-3.99451
-3.12896
-2.43881
-1.89146
-1.45969
-1.12092
-0.85652
-0.65126
-0.492752
-0.370989
-0.277944
-0.207214
-0.153727
-0.113489
-0.0833747
-0.0609542
-0.0443479
-0.0321123
-0.0231446
-0.0166081
-0.0118716
-0.00846252
-0.00602963
-0.00431464
-0.0031303
-0.00234398
-0.0018657
-0.00163982
-1286.71
-1280.1
-1266.97
-1247.53
-1222.07
-1190.98
-1154.72
-1113.81
-1068.84
-1020.42
-969.194
-915.82
-860.951
-805.223
-749.247
-693.596
-638.795
-585.317
-533.578
-483.929
-436.662
-392.004
-350.12
-311.121
-275.059
-241.941
-211.731
-184.352
-159.7
-137.644
-118.033
-100.705
-85.4862
-72.2012
-60.6732
-50.7288
-42.2009
-34.93
-28.7666
-23.5718
-19.2183
-15.5903
-12.584
-10.1066
-8.07644
-6.42189
-5.08087
-3.99988
-3.13323
-2.44218
-1.89411
-1.46177
-1.12253
-0.85777
-0.652222
-0.493488
-0.371549
-0.278368
-0.207533
-0.153965
-0.113666
-0.0835064
-0.0610512
-0.0444191
-0.0321642
-0.0231823
-0.0166353
-0.0118912
-0.00847657
-0.0060397
-0.00432189
-0.0031356
-0.00234796
-0.00186889
-0.00164264
-1286.4
-1279.79
-1266.67
-1247.25
-1221.82
-1190.75
-1154.52
-1113.65
-1068.71
-1020.32
-969.132
-915.791
-860.953
-805.253
-749.303
-693.673
-638.89
-585.427
-533.699
-484.058
-436.795
-392.139
-350.254
-311.251
-275.185
-242.061
-211.843
-184.456
-159.796
-137.731
-118.112
-100.775
-85.5486
-72.256
-60.721
-50.7702
-42.2365
-34.9604
-28.7923
-23.5935
-19.2364
-15.6054
-12.5964
-10.1168
-8.08476
-6.42864
-5.0863
-4.00423
-3.1367
-2.44493
-1.89627
-1.46346
-1.12385
-0.858788
-0.653005
-0.494087
-0.372006
-0.278713
-0.207793
-0.15416
-0.113812
-0.083614
-0.0611305
-0.0444773
-0.0322066
-0.0232131
-0.0166576
-0.0119072
-0.00848807
-0.00604795
-0.00432784
-0.00313994
-0.00235123
-0.0018715
-0.00164494
-1286.15
-1279.55
-1266.44
-1247.03
-1221.62
-1190.57
-1154.37
-1113.52
-1068.61
-1020.25
-969.082
-915.767
-860.953
-805.276
-749.345
-693.733
-638.964
-585.513
-533.793
-484.159
-436.9
-392.244
-350.359
-311.354
-275.284
-242.155
-211.932
-184.539
-159.872
-137.8
-118.174
-100.831
-85.5982
-72.2997
-60.7592
-50.8034
-42.265
-34.9847
-28.813
-23.6109
-19.251
-15.6175
-12.6065
-10.1251
-8.09147
-6.43408
-5.09069
-4.00775
-3.1395
-2.44715
-1.89802
-1.46483
-1.12491
-0.859613
-0.65364
-0.494573
-0.372376
-0.278993
-0.208004
-0.154318
-0.11393
-0.0837015
-0.061195
-0.0445246
-0.0322412
-0.0232382
-0.0166757
-0.0119203
-0.00849744
-0.00605467
-0.00433268
-0.00314347
-0.0023539
-0.00187364
-0.00164683
-1285.96
-1279.36
-1266.26
-1246.86
-1221.46
-1190.43
-1154.24
-1113.42
-1068.52
-1020.19
-969.042
-915.747
-860.952
-805.292
-749.377
-693.778
-639.021
-585.579
-533.867
-484.237
-436.981
-392.327
-350.442
-311.435
-275.362
-242.23
-212.002
-184.604
-159.932
-137.855
-118.224
-100.875
-85.6376
-72.3344
-60.7895
-50.8297
-42.2877
-35.0041
-28.8295
-23.6248
-19.2626
-15.6272
-12.6145
-10.1316
-8.09685
-6.43844
-5.09421
-4.01057
-3.14175
-2.44893
-1.89943
-1.46593
-1.12577
-0.860277
-0.654152
-0.494965
-0.372674
-0.27922
-0.208174
-0.154446
-0.114025
-0.0837722
-0.0612472
-0.0445629
-0.0322691
-0.0232585
-0.0166904
-0.0119309
-0.00850504
-0.00606012
-0.00433661
-0.00314635
-0.00235607
-0.00187537
-0.00164836
-1285.81
-1279.21
-1266.12
-1246.73
-1221.34
-1190.32
-1154.15
-1113.34
-1068.46
-1020.14
-969.01
-915.731
-860.95
-805.304
-749.401
-693.813
-639.065
-585.63
-533.924
-484.298
-437.045
-392.391
-350.506
-311.498
-275.423
-242.288
-212.057
-184.655
-159.979
-137.898
-118.263
-100.91
-85.6688
-72.3619
-60.8136
-50.8506
-42.3057
-35.0195
-28.8426
-23.6358
-19.2719
-15.6349
-12.6209
-10.1369
-8.10114
-6.44193
-5.09702
-4.01283
-3.14355
-2.45036
-1.90055
-1.46681
-1.12646
-0.86081
-0.654563
-0.49528
-0.372914
-0.279402
-0.208312
-0.154549
-0.114102
-0.0838291
-0.0612892
-0.0445937
-0.0322916
-0.0232749
-0.0167023
-0.0119394
-0.00851116
-0.00606452
-0.00433978
-0.00314866
-0.00235781
-0.00187677
-0.00164959
-1285.7