/*--------------------------------*- C++ -*----------------------------------*\
  =========                 |
  \\      /  F ield         | OpenFOAM: The Open Source CFD Toolbox
   \\    /   O peration     | Website:  https://openfoam.org
    \\  /    A nd           | Version:  10
     \\/     M anipulation  |
\*---------------------------------------------------------------------------*/
FoamFile
{
    format      ascii;
    class       volScalarField;
    location    "208";
    object      gradTz;
}
// * * * * * * * * * * * * * * * * * * * * * * * * * * * * * * * * * * * * * //

dimensions      [0 -1 0 1 0 0 0];

internalField   nonuniform List<scalar> 
11250
(
-14362.2
-4157.33
-1536.43
-731.986
-426.152
-283.21
-204.36
-155.28
-121.957
-97.8459
-79.5542
-65.1831
-53.6035
-44.1091
-36.2372
-29.6703
-24.1795
-19.5922
-15.7714
-12.6047
-9.9965
-7.86387
-6.13418
-4.74344
-3.63543
-2.76101
-2.07765
-1.54889
-1.14387
-0.836768
-0.606301
-0.435119
-0.309279
-0.217724
-0.151799
-0.104818
-0.0716813
-0.0485485
-0.0325646
-0.0216329
-0.0142324
-0.00927333
-0.00598381
-0.0038238
-0.00241977
-0.00151633
-0.00094087
-0.000578031
-0.000351577
-0.000211686
-0.000126159
-7.44114e-05
-4.34304e-05
-2.50792e-05
-1.4326e-05
-8.09383e-06
-4.52191e-06
-2.49776e-06
-1.36383e-06
-7.35989e-07
-3.92472e-07
-2.06771e-07
-1.07637e-07
-5.53309e-08
-2.80639e-08
-1.40539e-08
-6.97207e-09
-3.42457e-09
-1.64643e-09
-7.86992e-10
-3.7319e-10
-2.06352e-10
-9.11023e-11
-9.87856e-12
0
-8290.5
-4887.26
-2792.11
-1696.68
-1114.99
-785.065
-582.954
-449.841
-356.535
-287.702
-234.824
-192.926
-158.964
-130.998
-107.738
-88.2892
-71.9989
-58.3706
-47.008
-37.5829
-29.8149
-23.4601
-18.3038
-14.1565
-10.8514
-8.24242
-6.20311
-4.62489
-3.41581
-2.49896
-1.81081
-1.29963
-0.923816
-0.650375
-0.453469
-0.313136
-0.21415
-0.145045
-0.0972943
-0.0646352
-0.0425252
-0.0277086
-0.01788
-0.011426
-0.00723076
-0.00453121
-0.00281164
-0.00172739
-0.00105068
-0.000632637
-0.000377044
-0.000222395
-0.000129806
-7.49596e-05
-4.28208e-05
-2.41936e-05
-1.35172e-05
-7.46682e-06
-4.07723e-06
-2.2004e-06
-1.17346e-06
-6.18268e-07
-3.2178e-07
-1.65414e-07
-8.39996e-08
-4.21156e-08
-2.08394e-08
-1.02013e-08
-4.94367e-09
-2.37634e-09
-1.10969e-09
-5.12587e-10
-2.35988e-10
-1.10859e-10
-2.63428e-11
-5619.64
-4306.75
-3045.86
-2145.64
-1550.34
-1157.7
-891.483
-703.876
-566.264
-461.553
-379.361
-313.234
-259.04
-214.056
-176.42
-144.809
-118.244
-95.9615
-77.3467
-61.8816
-49.1197
-38.6689
-30.1822
-23.3516
-17.9051
-13.6038
-10.2403
-7.63645
-5.64105
-4.12754
-2.99134
-2.14717
-1.52644
-1.07473
-0.749418
-0.517542
-0.353968
-0.239761
-0.160838
-0.106855
-0.0703066
-0.0458128
-0.0295638
-0.0188933
-0.0119568
-0.00749317
-0.00464976
-0.00285681
-0.00173772
-0.00104637
-0.000623656
-0.000367877
-0.000214732
-0.00012401
-7.08459e-05
-4.00307e-05
-2.23673e-05
-1.23566e-05
-6.74791e-06
-3.64207e-06
-1.9425e-06
-1.0236e-06
-5.32822e-07
-2.7393e-07
-1.39107e-07
-6.97536e-08
-3.45278e-08
-1.68912e-08
-8.17506e-09
-3.91959e-09
-1.83631e-09
-8.39677e-10
-3.98435e-10
-1.93181e-10
-6.14666e-11
-4257.62
-3670.35
-2935.26
-2286.39
-1780.2
-1401.59
-1119.63
-906.729
-742.475
-612.802
-508.241
-422.438
-351.087
-291.215
-240.715
-198.038
-162.004
-131.67
-106.256
-85.0953
-67.6019
-53.256
-41.5924
-32.1959
-24.6973
-18.7714
-14.1349
-10.5438
-7.79068
-5.70171
-4.133
-2.96718
-2.10974
-1.48564
-1.03608
-0.715593
-0.489476
-0.331581
-0.222454
-0.147803
-0.0972565
-0.0633784
-0.0409021
-0.026141
-0.0165447
-0.010369
-0.0064347
-0.00395373
-0.00240512
-0.00144834
-0.000863302
-0.000509278
-0.000297293
-0.000171706
-9.81041e-05
-5.54386e-05
-3.09802e-05
-1.71168e-05
-9.34874e-06
-5.04656e-06
-2.692e-06
-1.41878e-06
-7.38677e-07
-3.79863e-07
-1.92904e-07
-9.67264e-08
-4.79022e-08
-2.34341e-08
-1.13285e-08
-5.41455e-09
-2.53769e-09
-1.16787e-09
-5.68566e-10
-2.77697e-10
-9.11023e-11
-3477.28
-3176.36
-2733.4
-2279.88
-1878.52
-1545.61
-1276.29
-1059.28
-883.245
-738.826
-618.927
-518.341
-433.288
-361.011
-299.457
-247.055
-202.555
-164.929
-133.296
-106.883
-84.999
-67.0201
-52.3812
-40.5733
-31.1408
-23.6802
-17.8387
-13.3115
-9.83896
-7.20285
-5.22249
-3.75021
-2.66705
-1.87844
-1.31024
-0.905087
-0.61918
-0.419499
-0.281471
-0.187035
-0.123084
-0.0802171
-0.0517739
-0.0330922
-0.0209458
-0.0131283
-0.00814776
-0.00500672
-0.00304593
-0.0018344
-0.00109352
-0.000645152
-0.000376652
-0.000217567
-0.000124322
-7.02641e-05
-3.92709e-05
-2.1701e-05
-1.18545e-05
-6.40039e-06
-3.41486e-06
-1.80013e-06
-9.3742e-07
-4.82175e-07
-2.44936e-07
-1.22872e-07
-6.08662e-08
-2.97707e-08
-1.43821e-08
-6.88755e-09
-3.2248e-09
-1.46861e-09
-6.96987e-10
-3.44652e-10
-1.39397e-10
-2990.78
-2817.53
-2535.68
-2215.42
-1903.41
-1621.94
-1377.53
-1168.78
-991.308
-840.188
-711.015
-600.168
-504.786
-422.629
-351.928
-291.248
-239.393
-195.329
-158.136
-126.983
-101.106
-79.8014
-62.4254
-48.3897
-37.1642
-28.2766
-21.3119
-15.9102
-11.7643
-8.6153
-6.24852
-4.48823
-3.19269
-2.24916
-1.56914
-1.08413
-0.741792
-0.502647
-0.337308
-0.224169
-0.147539
-0.0961657
-0.0620742
-0.0396799
-0.0251181
-0.0157449
-0.00977265
-0.00600579
-0.0036541
-0.0022009
-0.00131215
-0.000774233
-0.00045207
-0.000261167
-0.000149259
-8.43718e-05
-4.71641e-05
-2.60678e-05
-1.42429e-05
-7.69158e-06
-4.1047e-06
-2.16432e-06
-1.12739e-06
-5.80063e-07
-2.94747e-07
-1.47878e-07
-7.32638e-08
-3.58537e-08
-1.73336e-08
-8.2914e-09
-3.88337e-09
-1.79021e-09
-8.37482e-10
-3.84166e-10
-1.87693e-10
-2669
-2559.09
-2368.64
-2135.78
-1891.75
-1656.3
-1439.38
-1244.51
-1071.71
-919.431
-785.634
-668.281
-565.546
-475.849
-397.836
-330.318
-272.236
-222.621
-180.566
-145.221
-115.78
-91.4865
-71.6355
-55.5755
-42.714
-32.5199
-24.5237
-18.317
-13.5498
-9.92673
-7.20217
-5.17484
-3.68215
-2.59463
-1.81058
-1.25121
-0.856272
-0.580322
-0.389496
-0.258891
-0.170415
-0.111091
-0.0717172
-0.0458494
-0.0290268
-0.0181971
-0.0112959
-0.00694271
-0.00422464
-0.00254485
-0.0015174
-0.000895462
-0.000522932
-0.000302153
-0.000172712
-9.76474e-05
-5.45961e-05
-3.0182e-05
-1.64947e-05
-8.90981e-06
-4.75607e-06
-2.50848e-06
-1.30705e-06
-6.72696e-07
-3.41906e-07
-1.71631e-07
-8.5084e-08
-4.16217e-08
-2.0104e-08
-9.60415e-09
-4.52438e-09
-2.11511e-09
-9.8127e-10
-4.57706e-10
-2.25012e-10
-2447.27
-2371.63
-2235.1
-2059.25
-1864.55
-1666.46
-1474.88
-1295.26
-1130.07
-979.996
-844.804
-723.805
-616.147
-520.928
-437.252
-364.236
-301.009
-246.711
-200.49
-161.506
-128.942
-102.009
-79.9567
-62.0864
-47.7553
-36.3828
-27.4532
-20.516
-15.1837
-11.1284
-8.07711
-5.80547
-4.13214
-2.91253
-2.03293
-1.40518
-0.96185
-0.652002
-0.437683
-0.290968
-0.191559
-0.124892
-0.0806378
-0.0515591
-0.0326456
-0.0204683
-0.0127073
-0.00781113
-0.00475367
-0.00286391
-0.00170788
-0.00100802
-0.000588756
-0.000340245
-0.000194522
-0.00011
-6.15161e-05
-3.40156e-05
-1.85944e-05
-1.00467e-05
-5.36449e-06
-2.83025e-06
-1.47516e-06
-7.59453e-07
-3.86155e-07
-1.93906e-07
-9.61557e-08
-4.70713e-08
-2.2736e-08
-1.0839e-08
-5.12039e-09
-2.41256e-09
-1.13603e-09
-5.3893e-10
-2.49159e-10
-2290.09
-2234.29
-2130.8
-1992.49
-1832.91
-1663.7
-1493.55
-1328.31
-1171.6
-1025.46
-890.899
-768.276
-657.556
-558.456
-470.524
-393.194
-325.806
-267.637
-217.912
-175.829
-140.574
-111.346
-87.3672
-67.903
-52.2713
-39.8516
-30.0895
-22.4986
-16.6593
-12.2154
-8.86954
-6.37733
-4.54065
-3.2014
-2.23516
-1.54535
-1.05803
-0.717347
-0.48164
-0.320246
-0.210869
-0.137503
-0.0887928
-0.0567811
-0.0359568
-0.0225472
-0.0139998
-0.00860673
-0.00523855
-0.00315647
-0.00188262
-0.00111133
-0.000649203
-0.000375246
-0.000214574
-0.000121365
-6.78872e-05
-3.75478e-05
-2.05307e-05
-1.10961e-05
-5.9266e-06
-3.12783e-06
-1.63081e-06
-8.39882e-07
-4.27199e-07
-2.14579e-07
-1.06451e-07
-5.21357e-08
-2.51969e-08
-1.20299e-08
-5.66919e-09
-2.64087e-09
-1.25348e-09
-6.23447e-10
-2.91966e-10
-2176.43
-2132.75
-2050.23
-1936.98
-1802.26
-1654.82
-1501.93
-1349.21
-1200.68
-1059.1
-926.292
-803.368
-690.933
-589.22
-498.18
-417.54
-346.856
-285.544
-232.923
-188.241
-150.706
-119.515
-93.8751
-73.0281
-56.2622
-42.925
-32.4306
-24.2629
-17.9747
-13.1859
-9.57817
-6.88939
-4.90688
-3.46067
-2.41685
-1.67139
-1.14459
-0.776199
-0.521258
-0.346651
-0.228295
-0.148889
-0.0961599
-0.061501
-0.038951
-0.0244281
-0.0151696
-0.00932715
-0.00567782
-0.00342163
-0.00204107
-0.00120506
-0.000704077
-0.000407038
-0.0002328
-0.000131702
-7.36866e-05
-4.07656e-05
-2.22962e-05
-1.20537e-05
-6.44007e-06
-3.3999e-06
-1.77331e-06
-9.13628e-07
-4.64882e-07
-2.33577e-07
-1.15905e-07
-5.6805e-08
-2.7481e-08
-1.31023e-08
-6.15654e-09
-2.89222e-09
-1.36653e-09
-6.65156e-10
-3.65507e-10
-2093.12
-2057.15
-1988.32
-1892.06
-1774.95
-1643.68
-1504.33
-1362
-1220.75
-1083.7
-953.146
-830.711
-717.481
-614.098
-520.849
-437.724
-364.472
-300.652
-245.676
-198.849
-159.41
-126.564
-99.5133
-77.4838
-59.7423
-45.6123
-34.4826
-25.8126
-19.1324
-14.0416
-10.2039
-7.34221
-5.23116
-3.69051
-2.57808
-1.78335
-1.22155
-0.82857
-0.556539
-0.370182
-0.243834
-0.159049
-0.102737
-0.0657171
-0.041627
-0.0261098
-0.0162161
-0.00997195
-0.00607116
-0.00365918
-0.0021831
-0.00128911
-0.000753318
-0.000435584
-0.000249176
-0.000140997
-7.89051e-05
-4.36635e-05
-2.38876e-05
-1.29178e-05
-6.90383e-06
-3.64592e-06
-1.90226e-06
-9.80412e-07
-4.99064e-07
-2.50877e-07
-1.24531e-07
-6.10374e-08
-2.95314e-08
-1.4089e-08
-6.65705e-09
-3.13589e-09
-1.44337e-09
-7.02475e-10
-4.02826e-10
-2031.5
-2000.59
-1940.91
-1856.32
-1751.73
-1632.41
-1503.46
-1369.49
-1234.43
-1101.52
-973.318
-851.788
-738.353
-633.971
-539.197
-454.24
-379.022
-313.231
-256.367
-207.796
-166.789
-132.567
-104.334
-81.307
-62.738
-47.932
-36.2584
-27.1567
-20.1386
-14.7866
-10.7497
-7.73772
-5.5148
-3.89179
-2.71945
-1.88162
-1.28916
-0.874619
-0.587586
-0.390905
-0.257528
-0.168008
-0.108541
-0.0694393
-0.0439907
-0.0275961
-0.0171415
-0.0105424
-0.00641929
-0.00386954
-0.00230894
-0.00136363
-0.000796992
-0.000460919
-0.000263719
-0.000149257
-8.35465e-05
-4.62431e-05
-2.53054e-05
-1.36883e-05
-7.31781e-06
-3.86577e-06
-2.01765e-06
-1.04024e-06
-5.29729e-07
-2.66419e-07
-1.32288e-07
-6.48505e-08
-3.13897e-08
-1.49957e-08
-7.09171e-09
-3.32359e-09
-1.55752e-09
-7.51868e-10
-4.01728e-10
-1985.66
-1958.14
-1904.69
-1828.22
-1732.57
-1622.03
-1501
-1373.62
-1243.65
-1114.32
-988.344
-867.882
-754.596
-649.671
-553.874
-467.592
-390.892
-323.572
-265.216
-215.244
-172.964
-137.614
-108.404
-84.5462
-65.2841
-49.9093
-37.776
-28.3081
-21.0023
-15.4273
-11.2198
-8.079
-5.75988
-4.06594
-2.84191
-1.96683
-1.34785
-0.91463
-0.614585
-0.408941
-0.269454
-0.175817
-0.113602
-0.0726873
-0.0460545
-0.0288944
-0.0179502
-0.0110411
-0.00672385
-0.00405366
-0.00241913
-0.00142892
-0.00083528
-0.000483143
-0.000276485
-0.000156512
-8.76263e-05
-4.85124e-05
-2.65538e-05
-1.43674e-05
-7.68304e-06
-4.05992e-06
-2.11963e-06
-1.09322e-06
-5.569e-07
-2.80164e-07
-1.39177e-07
-6.82597e-08
-3.30438e-08
-1.58134e-08
-7.49673e-09
-3.5003e-09
-1.62886e-09
-7.71625e-10
-4.25876e-10
-1951.45
-1926.26
-1877.11
-1806.34
-1717.08
-1613
-1497.93
-1375.67
-1249.78
-1123.45
-999.454
-880.07
-767.117
-661.95
-565.489
-478.265
-400.462
-331.973
-272.452
-221.371
-178.069
-141.805
-111.797
-87.2567
-67.4216
-51.5741
-39.057
-29.2823
-21.7347
-15.9717
-11.62
-8.36993
-5.96912
-4.21483
-2.94673
-2.03986
-1.39821
-0.948988
-0.637791
-0.424454
-0.279721
-0.182543
-0.117964
-0.0754886
-0.0478354
-0.0300155
-0.0186488
-0.0114722
-0.00698719
-0.00421294
-0.00251451
-0.00148545
-0.000868452
-0.000502408
-0.000287558
-0.00016281
-9.117e-05
-5.0485e-05
-2.76398e-05
-1.49587e-05
-8.00131e-06
-4.22929e-06
-2.20871e-06
-1.1395e-06
-5.80654e-07
-2.92222e-07
-1.45249e-07
-7.12672e-08
-3.45135e-08
-1.65367e-08
-7.83699e-09
-3.64958e-09
-1.67057e-09
-7.80406e-10
-4.80756e-10
-1925.9
-1902.31
-1856.17
-1789.42
-1704.77
-1605.41
-1494.81
-1376.48
-1253.8
-1129.93
-1007.61
-889.229
-776.688
-671.462
-574.589
-486.707
-408.095
-338.721
-278.301
-226.35
-182.239
-145.244
-114.592
-89.4975
-69.1944
-52.9589
-40.1254
-30.0967
-22.3483
-16.4287
-11.9565
-8.61502
-6.14566
-4.34062
-3.0354
-2.10171
-1.4409
-0.978147
-0.657503
-0.437644
-0.288457
-0.18827
-0.121682
-0.0778769
-0.0493546
-0.0309722
-0.0192454
-0.0118405
-0.00721227
-0.00434913
-0.00259609
-0.00153383
-0.000896855
-0.000518912
-0.000297048
-0.000168211
-9.42112e-05
-5.2179e-05
-2.85732e-05
-1.54673e-05
-8.27534e-06
-4.37521e-06
-2.28552e-06
-1.17946e-06
-6.01227e-07
-3.02682e-07
-1.50489e-07
-7.38751e-08
-3.58021e-08
-1.71437e-08
-8.08615e-09
-3.74727e-09
-1.74302e-09
-8.41873e-10
-5.06002e-10
-1906.81
-1884.35
-1840.32
-1776.45
-1695.11
-1599.21
-1491.93
-1376.58
-1256.41
-1134.49
-1013.57
-896.065
-783.947
-678.767
-581.651
-493.317
-414.118
-344.083
-282.977
-230.352
-185.607
-148.034
-116.868
-91.3285
-70.6475
-54.0972
-41.006
-30.7696
-22.8564
-16.8079
-12.2362
-8.81906
-6.29286
-4.44566
-3.10955
-2.15349
-1.47667
-1.00261
-0.674055
-0.448729
-0.295804
-0.193091
-0.124812
-0.0798896
-0.0506356
-0.0317793
-0.0197489
-0.0121514
-0.0074024
-0.00446423
-0.00266507
-0.00157476
-0.000920888
-0.000532882
-0.000305086
-0.000172787
-9.67894e-05
-5.3616e-05
-2.93654e-05
-1.58993e-05
-8.50827e-06
-4.4994e-06
-2.35096e-06
-1.21352e-06
-6.18736e-07
-3.11599e-07
-1.54967e-07
-7.60978e-08
-3.68887e-08
-1.76662e-08
-8.35287e-09
-3.88227e-09
-1.77595e-09
-8.51751e-10
-5.49906e-10
-1892.58
-1870.91
-1828.38
-1766.55
-1687.61
-1594.23
-1489.41
-1376.31
-1258.07
-1137.68
-1017.9
-901.134
-789.409
-684.33
-587.082
-498.444
-418.823
-348.298
-286.674
-233.534
-188.296
-150.27
-118.7
-92.8073
-71.8249
-55.0222
-41.7234
-31.3191
-23.2721
-17.1188
-12.466
-8.98698
-6.41419
-4.53235
-3.17082
-2.19634
-1.50631
-1.0229
-0.687795
-0.457938
-0.301913
-0.197102
-0.127419
-0.0815664
-0.0517034
-0.0324525
-0.0201689
-0.012411
-0.00756116
-0.00456036
-0.0027227
-0.00160896
-0.000940982
-0.000544567
-0.000311811
-0.000176618
-9.89484e-05
-5.482e-05
-3.00296e-05
-1.62616e-05
-8.70376e-06
-4.60367e-06
-2.40595e-06
-1.24219e-06
-6.33497e-07
-3.19103e-07
-1.58746e-07
-7.7966e-08
-3.77976e-08
-1.81118e-08
-8.55703e-09
-3.98435e-09
-1.83412e-09
-8.75899e-10
-5.68566e-10
-1882
-1860.89
-1819.43
-1759.06
-1681.84
-1590.3
-1487.31
-1375.89
-1259.1
-1139.91
-1021.02
-904.868
-793.491
-688.533
-591.222
-502.382
-422.462
-351.579
-289.567
-236.035
-190.421
-152.044
-120.158
-93.9884
-72.7681
-55.7652
-42.3011
-31.7626
-23.6085
-17.3708
-12.6526
-9.12358
-6.51304
-4.6031
-3.22089
-2.23139
-1.53059
-1.03953
-0.699071
-0.465503
-0.306935
-0.200401
-0.129565
-0.0829475
-0.0525833
-0.0330074
-0.0205154
-0.0126251
-0.00769218
-0.00463973
-0.00277029
-0.00163721
-0.000957582
-0.000554223
-0.00031737
-0.000179785
-0.000100734
-5.58161e-05
-3.05793e-05
-1.65617e-05
-8.86573e-06
-4.69009e-06
-2.45155e-06
-1.26597e-06
-6.4576e-07
-3.25336e-07
-1.6187e-07
-7.95268e-08
-3.85878e-08
-1.84992e-08
-8.71399e-09
-4.0546e-09
-1.90107e-09
-9.09925e-10
-5.46614e-10
-1874.16
-1853.45
-1812.74
-1753.42
-1677.44
-1587.24
-1485.58
-1375.42
-1259.74
-1141.45
-1023.27
-907.602
-796.519
-691.683
-594.352
-505.382
-425.252
-354.108
-291.809
-237.982
-192.081
-153.436
-121.306
-94.9213
-73.5153
-56.3555
-42.7612
-32.1167
-23.8776
-17.5728
-12.8025
-9.23345
-6.59268
-4.66017
-3.26134
-2.25974
-1.55024
-1.05301
-0.70822
-0.471646
-0.311017
-0.203085
-0.131311
-0.0840721
-0.0533002
-0.0334598
-0.0207979
-0.0127998
-0.00779907
-0.00470449
-0.00280913
-0.00166027
-0.000971134
-0.000562106
-0.000321909
-0.000182372
-0.000102193
-5.66299e-05
-3.10285e-05
-1.68069e-05
-8.99816e-06
-4.76083e-06
-2.48886e-06
-1.28543e-06
-6.55795e-07
-3.30436e-07
-1.64431e-07
-8.08209e-08
-3.92245e-08
-1.87846e-08
-8.86875e-09
-4.13363e-09
-1.94388e-09
-9.45049e-10
-5.43321e-10
-1868.38
-1847.95
-1807.78
-1749.21
-1674.12
-1584.89
-1484.21
-1374.97
-1260.11
-1142.51
-1024.87
-909.591
-798.75
-694.026
-596.698
-507.645
-427.37
-356.038
-293.528
-239.482
-193.365
-154.516
-122.201
-95.6503
-74.1009
-56.8193
-43.1236
-32.3962
-24.0905
-17.7329
-12.9215
-9.32084
-6.65612
-4.7057
-3.29365
-2.28241
-1.56598
-1.06382
-0.71556
-0.476579
-0.314297
-0.205243
-0.132716
-0.0849776
-0.0538777
-0.0338242
-0.0210256
-0.0129406
-0.00788526
-0.00475671
-0.00284046
-0.00167886
-0.000982063
-0.000568464
-0.00032557
-0.000184458
-0.000103369
-5.72863e-05
-3.13909e-05
-1.70048e-05
-9.10503e-06
-4.81789e-06
-2.51898e-06
-1.30115e-06
-6.63906e-07
-3.3457e-07
-1.66517e-07
-8.18241e-08
-3.97074e-08
-1.90338e-08
-9.00485e-09
-4.21266e-09
-1.95486e-09
-9.5822e-10
-5.40028e-10
-1864.13
-1843.9
-1804.12
-1746.08
-1671.64
-1583.11
-1483.13
-1374.57
-1260.32
-1143.24
-1026.01
-911.03
-800.382
-695.756
-598.443
-509.339
-428.963
-357.498
-294.834
-240.626
-194.348
-155.347
-122.89
-96.2139
-74.5548
-57.1797
-43.406
-32.6145
-24.257
-17.8584
-13.0149
-9.38958
-6.7061
-4.74162
-3.31917
-2.30035
-1.57844
-1.07238
-0.721384
-0.480496
-0.316903
-0.206959
-0.133834
-0.0856984
-0.0543375
-0.0341146
-0.0212071
-0.0130528
-0.00795396
-0.00479834
-0.00286542
-0.00169369
-0.000990774
-0.00057353
-0.000328487
-0.000186119
-0.000104306
-5.7809e-05
-3.16794e-05
-1.71623e-05
-9.19009e-06
-4.86333e-06
-2.54296e-06
-1.31366e-06
-6.70358e-07
-3.37858e-07
-1.68156e-07
-8.26528e-08
-4.01223e-08
-1.92401e-08
-9.11023e-09
-4.22363e-09
-1.97352e-09
-9.72489e-10
-5.59785e-10
-1861.03
-1840.95
-1801.44
-1743.78
-1669.79
-1581.76
-1482.3
-1374.23
-1260.43
-1143.73
-1026.81
-912.064
-801.568
-697.023
-599.73
-510.595
-430.151
-358.591
-295.816
-241.49
-195.094
-155.978
-123.416
-96.6451
-74.903
-57.4569
-43.6236
-32.7831
-24.3859
-17.9558
-13.0875
-9.44306
-6.74504
-4.76965
-3.33912
-2.31438
-1.5882
-1.0791
-0.725954
-0.483572
-0.318952
-0.208309
-0.134714
-0.0862659
-0.0546997
-0.0343433
-0.02135
-0.0131412
-0.00800809
-0.00483114
-0.00288509
-0.00170536
-0.000997632
-0.000577518
-0.000330782
-0.000187427
-0.000105043
-5.82198e-05
-3.19061e-05
-1.72861e-05
-9.2569e-06
-4.89899e-06
-2.56183e-06
-1.3235e-06
-6.75406e-07
-3.40413e-07
-1.6943e-07
-8.32905e-08
-4.04505e-08
-1.94125e-08
-9.18157e-09
-4.27742e-09
-2.00535e-09
-9.63708e-10
-5.66371e-10
-1858.78
-1838.8
-1799.48
-1742.09
-1668.43
-1580.76
-1481.67
-1373.96
-1260.48
-1144.07
-1027.38
-912.803
-802.424
-697.944
-600.671
-511.52
-431.03
-359.403
-296.548
-242.137
-195.653
-156.453
-123.813
-96.9715
-75.1673
-57.6678
-43.7895
-32.9119
-24.4846
-18.0304
-13.1433
-9.48422
-6.77505
-4.79128
-3.35453
-2.32523
-1.59576
-1.0843
-0.7295
-0.485961
-0.320544
-0.209359
-0.135398
-0.0867076
-0.0549817
-0.0345215
-0.0214614
-0.0132101
-0.00805026
-0.00485668
-0.00290041
-0.00171445
-0.00100297
-0.00058062
-0.000332566
-0.000188442
-0.000105615
-5.85387e-05
-3.20819e-05
-1.7382e-05
-9.30868e-06
-4.92663e-06
-2.57639e-06
-1.3311e-06
-6.79326e-07
-3.42389e-07
-1.70444e-07
-8.38031e-08
-4.06854e-08
-1.95014e-08
-9.23535e-09
-4.33449e-09
-2.0284e-09
-9.83465e-10
-5.48809e-10
-1857.16
-1837.25
-1798.07
-1740.86
-1667.44
-1580.03
-1481.2
-1373.74
-1260.5
-1144.3
-1027.77
-913.327
-803.037
-698.609
-601.355
-512.194
-431.673
-360
-297.089
-242.615
-196.069
-156.808
-124.11
-97.2162
-75.3659
-57.8266
-43.9148
-33.0093
-24.5594
-18.0871
-13.1857
-9.51555
-6.79794
-4.80779
-3.36631
-2.33354
-1.60155
-1.0883
-0.732223
-0.487797
-0.321768
-0.210166
-0.135925
-0.0870477
-0.0551989
-0.0346587
-0.0215472
-0.0132631
-0.00808273
-0.00487635
-0.00291219
-0.00172144
-0.00100707
-0.000583003
-0.000333935
-0.000189221
-0.000106053
-5.8783e-05
-3.22166e-05
-1.74554e-05
-9.34826e-06
-4.94776e-06
-2.58755e-06
-1.3369e-06
-6.82293e-07
-3.43945e-07
-1.7124e-07
-8.4162e-08
-4.08402e-08
-1.95969e-08
-9.29023e-09
-4.34108e-09
-2.03718e-09
-9.86758e-10
-5.55394e-10
-1856
-1836.14
-1797.05
-1739.98
-1666.72
-1579.49
-1480.85
-1373.57
-1260.5
-1144.45
-1028.05
-913.696
-803.474
-699.085
-601.847
-512.682
-432.141
-360.435
-297.485
-242.967
-196.375
-157.069
-124.33
-97.3977
-75.5136
-57.945
-44.0083
-33.0822
-24.6154
-18.1296
-13.2176
-9.53916
-6.8152
-4.82027
-3.37522
-2.33983
-1.60594
-1.09133
-0.73429
-0.489192
-0.322699
-0.21078
-0.136326
-0.0873067
-0.0553643
-0.0347632
-0.0216125
-0.0133036
-0.00810745
-0.00489131
-0.00292116
-0.00172675
-0.00101019
-0.000584812
-0.000334974
-0.000189812
-0.000106385
-5.89678e-05
-3.23183e-05
-1.75108e-05
-9.37811e-06
-4.96366e-06
-2.59592e-06
-1.34124e-06
-6.84561e-07
-3.45103e-07
-1.71805e-07
-8.44606e-08
-4.09993e-08
-1.96517e-08
-9.3067e-09
-4.34327e-09
-2.01742e-09
-9.94441e-10
-5.98202e-10
-1855.17
-1835.34
-1796.32
-1739.35
-1666.2
-1579.1
-1480.59
-1373.45
-1260.5
-1144.55
-1028.24
-913.955
-803.782
-699.424
-602.198
-513.032
-432.477
-360.75
-297.771
-243.222
-196.598
-157.26
-124.491
-97.5311
-75.6223
-58.0323
-44.0774
-33.1361
-24.657
-18.1612
-13.2413
-9.55675
-6.82808
-4.82959
-3.38188
-2.34454
-1.60924
-1.0936
-0.735842
-0.49024
-0.323399
-0.211243
-0.136628
-0.0875017
-0.0554889
-0.034842
-0.0216617
-0.013334
-0.00812606
-0.00490258
-0.0029279
-0.00173075
-0.00101253
-0.000586169
-0.000335753
-0.000190254
-0.000106634
-5.91058e-05
-3.23942e-05
-1.75521e-05
-9.40034e-06
-4.97548e-06
-2.60213e-06
-1.34451e-06
-6.86225e-07
-3.45926e-07
-1.72219e-07
-8.46647e-08
-4.11036e-08
-1.97011e-08
-9.3056e-09
-4.35205e-09
-2.05254e-09
-1.01639e-09
-5.97104e-10
-1854.59
-1834.78
-1795.81
-1738.9
-1665.83
-1578.82
-1480.4
-1373.35
-1260.49
-1144.61
-1028.37
-914.135
-803.998
-699.663
-602.447
-513.281
-432.718
-360.975
-297.977
-243.407
-196.759
-157.399
-124.608
-97.6281
-75.7015
-58.0961
-44.128
-33.1757
-24.6875
-18.1845
-13.2588
-9.56972
-6.8376
-4.83648
-3.38682
-2.34803
-1.61168
-1.09529
-0.736996
-0.49102
-0.32392
-0.211587
-0.136853
-0.0876471
-0.0555818
-0.0349006
-0.0216984
-0.0133566
-0.00813992
-0.00491095
-0.00293291
-0.00173371
-0.00101426
-0.000587175
-0.00033633
-0.000190581
-0.000106817
-5.92076e-05
-3.24501e-05
-1.75825e-05
-9.41666e-06
-4.98416e-06
-2.60671e-06
-1.34688e-06
-6.87424e-07
-3.46552e-07
-1.72521e-07
-8.47942e-08
-4.11804e-08
-1.97593e-08
-9.33085e-09
-4.35754e-09
-2.05694e-09
-1.00322e-09
-5.98202e-10
-1854.18
-1834.39
-1795.45
-1738.58
-1665.57
-1578.62
-1480.27
-1373.28
-1260.48
-1144.66
-1028.45
-914.26
-804.149
-699.83
-602.622
-513.456
-432.888
-361.135
-298.124
-243.538
-196.874
-157.498
-124.692
-97.6979
-75.7587
-58.1422
-44.1646
-33.2044
-24.7097
-18.2014
-13.2715
-9.57919
-6.84455
-4.84153
-3.39043
-2.35059
-1.61347
-1.09653
-0.737845
-0.491594
-0.324304
-0.211841
-0.137019
-0.0877541
-0.0556502
-0.0349439
-0.0217254
-0.0133733
-0.00815012
-0.00491712
-0.0029366
-0.00173589
-0.00101554
-0.000587912
-0.000336751
-0.00019082
-0.000106951
-5.92817e-05
-3.24907e-05
-1.76045e-05
-9.42847e-06
-4.99044e-06
-2.61001e-06
-1.34857e-06
-6.88294e-07
-3.46996e-07
-1.72749e-07
-8.49007e-08
-4.12353e-08
-1.97813e-08
-9.3506e-09
-4.35974e-09
-2.0273e-09
-9.84563e-10
-6.34423e-10
-1853.9
-1834.12
-1795.2
-1738.36
-1665.39
-1578.48
-1480.17
-1373.23
-1260.47
-1144.69
-1028.51
-914.345
-804.253
-699.946
-602.744
-513.579
-433.007
-361.248
-298.228
-243.631
-196.956
-157.569
-124.751
-97.7477
-75.7996
-58.1752
-44.1909
-33.225
-24.7257
-18.2136
-13.2807
-9.58603
-6.84958
-4.84518
-3.39305
-2.35245
-1.61477
-1.09743
-0.738462
-0.492011
-0.324583
-0.212025
-0.13714
-0.0878322
-0.0557001
-0.0349754
-0.0217451
-0.0133855
-0.00815755
-0.0049216
-0.00293927
-0.00173747
-0.00101646
-0.000588446
-0.000337056
-0.000190992
-0.000107047
-5.93351e-05
-3.25199e-05
-1.76203e-05
-9.43692e-06
-4.9949e-06
-2.61233e-06
-1.34979e-06
-6.88954e-07
-3.4732e-07
-1.72887e-07
-8.49666e-08
-4.12594e-08
-1.98065e-08
-9.39451e-09
-4.36962e-09
-2.02401e-09
-1.00212e-09
-5.97104e-10
-1853.7
-1833.93
-1795.02
-1738.21
-1665.26
-1578.38
-1480.11
-1373.19
-1260.46
-1144.7
-1028.55
-914.403
-804.324
-700.026
-602.829
-513.664
-433.09
-361.326
-298.3
-243.696
-197.013
-157.618
-124.793
-97.7829
-75.8285
-58.1986
-44.2096
-33.2397
-24.737
-18.2223
-13.2873
-9.59092
-6.85318
-4.8478
-3.39493
-2.35378
-1.61571
-1.09808
-0.738907
-0.492312
-0.324785
-0.212159
-0.137227
-0.0878886
-0.0557361
-0.0349981
-0.0217593
-0.0133943
-0.00816289
-0.00492483
-0.0029412
-0.00173861
-0.00101713
-0.000588828
-0.000337274
-0.000191115
-0.000107116
-5.9373e-05
-3.25406e-05
-1.76315e-05
-9.44288e-06
-4.99803e-06
-2.61397e-06
-1.35064e-06
-6.8939e-07
-3.47546e-07
-1.72989e-07
-8.50149e-08
-4.12891e-08
-1.98285e-08
-9.39012e-09
-4.35535e-09
-2.03718e-09
-1.00652e-09
-5.91616e-10
-1853.56
-1833.8
-1794.9
-1738.11
-1665.17
-1578.31
-1480.06
-1373.17
-1260.46
-1144.72
-1028.58
-914.442
-804.372
-700.08
-602.887
-513.723
-433.147
-361.381
-298.35
-243.741
-197.053
-157.653
-124.823
-97.8075
-75.8487
-58.215
-44.2227
-33.25
-24.745
-18.2284
-13.2919
-9.59439
-6.85573
-4.84965
-3.39627
-2.35473
-1.61638
-1.09854
-0.739223
-0.492527
-0.324928
-0.212254
-0.137289
-0.0879287
-0.0557618
-0.0350143
-0.0217694
-0.0134005
-0.0081667
-0.00492713
-0.00294257
-0.00173941
-0.00101759
-0.000589098
-0.000337428
-0.000191202
-0.000107164
-5.93996e-05
-3.25551e-05
-1.76393e-05
-9.44706e-06
-5.00022e-06
-2.6151e-06
-1.35123e-06
-6.89693e-07
-3.47688e-07
-1.73082e-07
-8.50752e-08
-4.12825e-08
-1.98021e-08
-9.38243e-09
-4.37071e-09
-2.05035e-09
-1.00432e-09
-5.94909e-10
-1853.47
-1833.71
-1794.82
-1738.03
-1665.11
-1578.27
-1480.03
-1373.15
-1260.45
-1144.72
-1028.6
-914.469
-804.405
-700.117
-602.926
-513.763
-433.186
-361.418
-298.384
-243.772
-197.081
-157.677
-124.843
-97.8246
-75.8628
-58.2264
-44.2318
-33.2572
-24.7506
-18.2327
-13.2951
-9.59681
-6.85752
-4.85096
-3.39721
-2.3554
-1.61684
-1.09887
-0.739446
-0.492678
-0.32503
-0.212321
-0.137333
-0.0879571
-0.0557799
-0.0350258
-0.0217766
-0.0134049
-0.00816939
-0.00492874
-0.00294353
-0.00173998
-0.00101792
-0.000589288
-0.000337536
-0.000191262
-0.000107198
-5.94181e-05
-3.25652e-05
-1.76447e-05
-9.44993e-06
-5.00175e-06
-2.6159e-06
-1.35162e-06
-6.89893e-07
-3.47797e-07
-1.7312e-07
-8.5095e-08
-4.13033e-08
-1.98109e-08
-9.39122e-09
-4.40035e-09
-2.04486e-09
-9.63708e-10
-5.93811e-10
-1853.41
-1833.65
-1794.77
-1737.98
-1665.07
-1578.23
-1480.01
-1373.14
-1260.45
-1144.73
-1028.61
-914.486
-804.427
-700.142
-602.953
-513.79
-433.213
-361.443
-298.408
-243.793
-197.1
-157.693
-124.857
-97.8363
-75.8725
-58.2343
-44.2381
-33.2621
-24.7545
-18.2356
-13.2974
-9.59849
-6.85876
-4.85186
-3.39786
-2.35586
-1.61717
-1.09909
-0.739602
-0.492784
-0.3251
-0.212368
-0.137364
-0.087977
-0.0557926
-0.0350338
-0.0217815
-0.013408
-0.00817126
-0.00492987
-0.0029442
-0.00174037
-0.00101815
-0.000589419
-0.00033761
-0.000191304
-0.000107221
-5.94308e-05
-3.25721e-05
-1.76484e-05
-9.4519e-06
-5.00278e-06
-2.61646e-06
-1.35192e-06
-6.90027e-07
-3.47853e-07
-1.73137e-07
-8.50884e-08
-4.13198e-08
-1.98296e-08
-9.39012e-09
-4.38937e-09
-2.05145e-09
-9.84563e-10
-5.67468e-10
-1853.37
-1833.61
-1794.73
-1737.95
-1665.04
-1578.21
-1479.99
-1373.13
-1260.44
-1144.73
-1028.62
-914.498
-804.442
-700.159
-602.97
-513.808
-433.231
-361.46
-298.423
-243.808
-197.112
-157.704
-124.867
-97.8442
-75.879
-58.2396
-44.2424
-33.2655
-24.7571
-18.2377
-13.2989
-9.59964
-6.85961
-4.85249
-3.39831
-2.35618
-1.6174
-1.09925
-0.739709
-0.492857
-0.325149
-0.2124
-0.137385
-0.0879907
-0.0558013
-0.0350393
-0.021785
-0.0134101
-0.00817255
-0.00493065
-0.00294466
-0.00174064
-0.00101831
-0.000589509
-0.000337661
-0.000191332
-0.000107237
-5.94394e-05
-3.25767e-05
-1.76509e-05
-9.45322e-06
-5.00348e-06
-2.61683e-06
-1.3521e-06
-6.90104e-07
-3.47903e-07
-1.73174e-07
-8.51137e-08
-4.13209e-08
-1.98274e-08
-9.40109e-09
-4.38937e-09
-2.04157e-09
-9.96637e-10
-5.70761e-10
-1853.34
-1833.58
-1794.7
-1737.93
-1665.03
-1578.2
-1479.98
-1373.12
-1260.44
-1144.73
-1028.62
-914.506
-804.451
-700.17
-602.982
-513.82
-433.243
-361.471
-298.434
-243.817
-197.121
-157.712
-124.873
-97.8496
-75.8835
-58.2432
-44.2453
-33.2678
-24.7589
-18.2391
-13.3
-9.60043
-6.86019
-4.85291
-3.39861
-2.3564
-1.61755
-1.09936
-0.739783
-0.492906
-0.325183
-0.212422
-0.137399
-0.0880001
-0.0558073
-0.0350431
-0.0217873
-0.0134116
-0.00817343
-0.00493118
-0.00294498
-0.00174083
-0.00101842
-0.000589569
-0.000337696
-0.000191352
-0.000107247
-5.94452e-05
-3.25798e-05
-1.76526e-05
-9.4541e-06
-5.00394e-06
-2.61706e-06
-1.35222e-06
-6.90158e-07
-3.47925e-07
-1.73185e-07
-8.51301e-08
-4.13253e-08
-1.97988e-08
-9.37804e-09
-4.41791e-09
-2.0723e-09
-9.97734e-10
-5.63078e-10
-1853.32
-1833.57
-1794.69
-1737.92
-1665.01
-1578.19
-1479.97
-1373.12
-1260.44
-1144.73
-1028.63
-914.511
-804.458
-700.177
-602.99
-513.828
-433.25
-361.479
-298.441
-243.824
-197.127
-157.717
-124.877
-97.8531
-75.8864
-58.2456
-44.2472
-33.2693
-24.7601
-18.24
-13.3007
-9.60095
-6.86058
-4.85319
-3.39882
-2.35655
-1.61765
-1.09943
-0.739832
-0.49294
-0.325205
-0.212437
-0.137409
-0.0880064
-0.0558114
-0.0350457
-0.0217889
-0.0134125
-0.00817403
-0.00493153
-0.00294519
-0.00174095
-0.00101849
-0.00058961
-0.000337719
-0.000191365
-0.000107254
-5.9449e-05
-3.25819e-05
-1.76537e-05
-9.45467e-06
-5.00423e-06
-2.61721e-06
-1.35233e-06
-6.90222e-07
-3.4792e-07
-1.73199e-07
-8.51477e-08
-4.13297e-08
-1.98219e-08
-9.37914e-09
-4.39706e-09
-2.08218e-09
-9.92246e-10
-5.5759e-10
-1853.31
-1833.56
-1794.68
-1737.91
-1665.01
-1578.18
-1479.97
-1373.11
-1260.44
-1144.73
-1028.63
-914.514
-804.462
-700.182
-602.995
-513.833
-433.256
-361.484
-298.446
-243.828
-197.13
-157.72
-124.88
-97.8555
-75.8884
-58.2472
-44.2485
-33.2704
-24.7609
-18.2406
-13.3011
-9.6013
-6.86084
-4.85338
-3.39896
-2.35665
-1.61772
-1.09948
-0.739866
-0.492963
-0.325221
-0.212447
-0.137416
-0.0880107
-0.0558141
-0.0350474
-0.02179
-0.0134132
-0.00817443
-0.00493177
-0.00294533
-0.00174103
-0.00101854
-0.000589637
-0.000337734
-0.000191373
-0.000107259
-5.94516e-05
-3.25833e-05
-1.76544e-05
-9.45505e-06
-5.00443e-06
-2.61731e-06
-1.35237e-06
-6.90249e-07
-3.47948e-07
-1.73184e-07
-8.51246e-08
-4.13341e-08
-1.98427e-08
-9.39341e-09
-4.40145e-09
-2.08438e-09
-9.8127e-10
-5.54297e-10
-1853.3
-1833.55
-1794.67
-1737.9
-1665
-1578.18
-1479.97
-1373.11
-1260.44
-1144.74
-1028.63
-914.516
-804.464
-700.185
-602.998
-513.836
-433.259
-361.487
-298.449
-243.831
-197.133
-157.722