/*--------------------------------*- C++ -*----------------------------------*\
  =========                 |
  \\      /  F ield         | OpenFOAM: The Open Source CFD Toolbox
   \\    /   O peration     | Website:  https://openfoam.org
    \\  /    A nd           | Version:  10
     \\/     M anipulation  |
\*---------------------------------------------------------------------------*/
FoamFile
{
    format      ascii;
    class       volScalarField;
    location    "208";
    object      gradTx;
}
// * * * * * * * * * * * * * * * * * * * * * * * * * * * * * * * * * * * * * //

dimensions      [0 -1 0 1 0 0 0];

internalField   nonuniform List<scalar> 
11250
(
14285.6
8061.71
5241.03
3733.17
2812.37
2192.03
1744.09
1404.71
1138.97
926.223
753.425
611.844
495.316
399.277
320.209
255.302
202.25
159.123
124.287
96.3439
74.0993
56.5325
42.7754
32.0946
23.8755
17.6078
12.872
9.32703
6.69826
4.76735
3.36253
2.35024
1.62779
1.11714
0.759688
0.511876
0.341734
0.226045
0.14814
0.0961859
0.0618722
0.0394283
0.0248903
0.0155645
0.00964044
0.00591398
0.0035929
0.00216147
0.00128748
0.000759209
0.000443153
0.000256007
0.000146347
8.27707e-05
4.6308e-05
2.56238e-05
1.40205e-05
7.58472e-06
4.05596e-06
2.14366e-06
1.11957e-06
5.77729e-07
2.94531e-07
1.48312e-07
7.37851e-08
3.62499e-08
1.76157e-08
8.43848e-09
3.99094e-09
1.844e-09
8.29799e-10
3.62214e-10
1.09762e-10
3.51238e-11
-8.78094e-12
4081.61
4660.92
3932.19
3151.49
2518.53
2027.3
1644.04
1340.18
1095.44
895.872
731.736
596.065
483.686
390.628
313.739
250.445
198.6
156.381
122.231
94.8061
72.9537
55.683
42.1487
31.6349
23.5405
17.3653
12.6977
9.2026
6.61013
4.70541
3.31935
2.32038
1.60731
1.10322
0.750296
0.505597
0.337572
0.223311
0.14636
0.095037
0.0611375
0.0389628
0.024598
0.0153828
0.00952851
0.00584571
0.00355167
0.00213682
0.00127289
0.00075067
0.000438207
0.000253173
0.000144741
8.18716e-05
4.58103e-05
2.53517e-05
1.38735e-05
7.50626e-06
4.01462e-06
2.12217e-06
1.10855e-06
5.72144e-07
2.91717e-07
1.46957e-07
7.312e-08
3.59151e-08
1.7417e-08
8.36165e-09
3.95252e-09
1.83302e-09
8.18823e-10
3.69897e-10
1.85497e-10
6.14666e-11
1.09762e-12
1462.32
2570.56
2679.23
2427.41
2089.52
1762.2
1473
1225.52
1016.11
839.582
691.011
566.165
461.499
374.042
301.281
241.065
191.532
151.06
118.233
91.8123
70.7206
54.0252
40.9247
30.7366
22.8853
16.8906
12.3563
8.95886
6.43742
4.58399
3.23467
2.2618
1.56712
1.07587
0.731854
0.493264
0.329397
0.217939
0.142861
0.0927787
0.0596931
0.0380474
0.0240233
0.0150253
0.00930826
0.00571134
0.0034705
0.00208828
0.00124416
0.000733843
0.000428457
0.000247585
0.000141575
8.00974e-05
4.48278e-05
2.48141e-05
1.35829e-05
7.35111e-06
3.93284e-06
2.07959e-06
1.08668e-06
5.61059e-07
2.86168e-07
1.44161e-07
7.17183e-08
3.52566e-08
1.71075e-08
8.19481e-09
3.87239e-09
1.80997e-09
8.36385e-10
3.83069e-10
1.78912e-10
5.1588e-11
1.20738e-11
660.216
1482.14
1790.61
1794.6
1656.37
1466.42
1268.47
1081.61
913.061
764.63
635.788
525.064
430.681
350.816
283.725
227.779
181.48
143.467
112.513
87.5182
67.5114
51.639
39.1603
29.4399
21.9386
16.2043
11.8622
8.60582
6.18711
4.40792
3.1118
2.17676
1.50876
1.03616
0.705054
0.475337
0.317509
0.210125
0.137771
0.0894922
0.0575904
0.0367145
0.0231861
0.0145045
0.00898733
0.00551549
0.00335216
0.00201749
0.00120225
0.000709286
0.000414222
0.000239424
0.000136947
7.75035e-05
4.33907e-05
2.40272e-05
1.31573e-05
7.1237e-06
3.81285e-06
2.01708e-06
1.05453e-06
5.44728e-07
2.77999e-07
1.40132e-07
6.97547e-08
3.43016e-08
1.66377e-08
7.96102e-09
3.75824e-09
1.75729e-09
7.86992e-10
3.66604e-10
1.60252e-10
6.69547e-11
8.78094e-12
357.393
909.45
1210.21
1309.04
1281.17
1185.82
1060.82
927.926
798.766
679.093
571.38
476.319
393.65
322.621
262.237
211.408
169.027
134.018
105.367
82.1381
63.48
48.6345
36.9345
27.8015
20.7407
15.3346
11.2355
8.15759
5.86903
4.18399
2.95544
2.06848
1.43439
0.985524
0.670873
0.452462
0.302334
0.200147
0.131268
0.0852926
0.0549027
0.0350102
0.0221154
0.0138381
0.00857656
0.00526473
0.00320058
0.00192678
0.00114852
0.000677793
0.000395958
0.000228946
0.000131003
7.41695e-05
4.15422e-05
2.30144e-05
1.26089e-05
6.83045e-06
3.65796e-06
1.93631e-06
1.01294e-06
5.23604e-07
2.67403e-07
1.34895e-07
6.72038e-08
3.30515e-08
1.60538e-08
7.68881e-09
3.63531e-09
1.68155e-09
7.59551e-10
3.35871e-10
1.37202e-10
6.91499e-11
2.96357e-11
218.036
590.245
835.307
955.002
979.408
941.776
868.711
778.681
683.485
590.219
502.88
423.512
352.94
291.254
238.102
192.876
154.839
123.195
97.1467
75.9245
58.8089
45.1438
34.3424
25.8896
19.3403
14.3163
10.5006
7.63139
5.49521
3.92057
2.77134
1.94089
1.34671
0.925781
0.630518
0.425441
0.284399
0.188348
0.123576
0.0803225
0.0517207
0.0329915
0.0208467
0.0130482
0.00808945
0.00496723
0.00302067
0.00181907
0.00108469
0.000640355
0.000374233
0.000216475
0.000123923
7.0195e-05
3.93366e-05
2.18047e-05
1.19534e-05
6.47953e-06
3.47241e-06
1.83939e-06
9.62987e-07
4.98181e-07
2.54634e-07
1.28553e-07
6.41107e-08
3.15839e-08
1.53513e-08
7.36721e-09
3.5003e-09
1.64313e-09
7.83699e-10
3.4575e-10
1.37202e-10
6.14666e-11
2.52452e-11
143.243
400.258
589.153
700.84
745.329
739.697
700.807
642.35
574.334
503.591
434.525
369.802
310.887
258.441
212.588
173.116
139.601
111.501
88.2187
69.147
53.6951
41.3101
31.4877
23.7788
17.791
13.1877
9.68487
7.04639
5.07909
3.627
2.56596
1.79841
1.24872
0.858962
0.585352
0.395178
0.264301
0.175119
0.114946
0.074744
0.0481473
0.0307236
0.0194206
0.0121599
0.00754138
0.00463234
0.00281804
0.00169768
0.00101271
0.000598111
0.000349701
0.000202382
0.000115915
6.56955e-05
3.68372e-05
2.04324e-05
1.12088e-05
6.08038e-06
3.26104e-06
1.72886e-06
9.05903e-07
4.69065e-07
2.39967e-07
1.21293e-07
6.05775e-08
2.98848e-08
1.45478e-08
6.99402e-09
3.32907e-09
1.59484e-09
7.81504e-10
3.55628e-10
1.59155e-10
5.70761e-11
3.29285e-12
98.5758
280.337
423.376
518.175
566.663
577.007
559.263
522.843
475.465
422.952
369.436
317.688
269.441
225.677
186.835
152.988
123.959
99.4181
78.9431
62.0721
48.3351
37.2775
28.4757
21.5457
16.1481
11.9884
8.81638
6.42257
4.6347
3.31308
2.34608
1.64571
1.14359
0.787215
0.536816
0.362633
0.242672
0.160874
0.105648
0.0687295
0.0442925
0.0282756
0.0178805
0.0112
0.00694884
0.00427006
0.0025987
0.0015662
0.000934685
0.000552287
0.000323069
0.000187068
0.000107205
6.07965e-05
3.41128e-05
1.89347e-05
1.03951e-05
5.64355e-06
3.02936e-06
1.60752e-06
8.43118e-07
4.36994e-07
2.23772e-07
1.1323e-07
5.65866e-08
2.79366e-08
1.36412e-08
6.56814e-09
3.12492e-09
1.4763e-09
6.98085e-10
3.32578e-10
1.72326e-10
6.0369e-11
6.5857e-12
69.9066
200.941
308.783
385.807
431.05
448.094
442.694
421.038
388.743
350.428
309.639
268.94
230.077
194.154
161.785
133.226
108.481
87.3796
69.6472
54.9459
42.9124
33.1822
25.4066
19.2638
14.4649
10.7569
7.92274
5.77952
4.17587
2.98849
2.11842
1.48743
1.0345
0.712689
0.486353
0.328768
0.220149
0.146028
0.0959508
0.0624533
0.0402674
0.025718
0.0162704
0.010196
0.00632859
0.0038906
0.00236881
0.00142829
0.000852785
0.000504145
0.000295064
0.000170949
9.80277e-05
5.56284e-05
3.1235e-05
1.73505e-05
9.53312e-06
5.18006e-06
2.78313e-06
1.4783e-06
7.76129e-07
4.02716e-07
2.06482e-07
1.0457e-07
5.2307e-08
2.58434e-08
1.26347e-08
6.09507e-09
2.9021e-09
1.35007e-09
6.39911e-10
3.13919e-10
1.58057e-10
8.34189e-11
3.29285e-11
50.574
146.393
227.71
288.878
328.146
346.844
348.165
336.06
314.474
286.908
256.233
224.661
193.798
164.737
138.155
114.412
93.625
75.7458
60.6096
47.9815
37.5888
29.1456
22.3709
16.9996
12.7902
9.5286
7.0295
5.1355
3.71554
2.66231
1.88933
1.32794
0.924448
0.637426
0.435341
0.294502
0.197339
0.130982
0.0861156
0.056083
0.0361791
0.0231185
0.0146329
0.00917407
0.00569693
0.00350387
0.00213434
0.00128753
0.00076912
0.000454922
0.000266402
0.000154435
8.8614e-05
5.03207e-05
2.82755e-05
1.57189e-05
8.6439e-06
4.70109e-06
2.5282e-06
1.34422e-06
7.0649e-07
3.66988e-07
1.88396e-07
9.55366e-08
4.78638e-08
2.36734e-08
1.15656e-08
5.59126e-09
2.66502e-09
1.25677e-09
6.04787e-10
2.66721e-10
1.14152e-10
7.57356e-11
3.40261e-11
37.0773
107.849
169.238
217.175
249.903
267.712
272.313
266.183
252.03
232.425
209.609
185.399
161.189
137.979
116.437
96.9621
79.7384
64.7956
52.0517
41.3517
32.4972
25.2692
19.445
14.8102
11.1661
8.33441
6.15906
4.50662
3.2652
2.34268
1.66449
1.17119
0.81615
0.563276
0.385029
0.260674
0.1748
0.116101
0.0763807
0.0497728
0.0321264
0.0205397
0.0130073
0.00815887
0.00506894
0.00311911
0.00190088
0.00114725
0.000685672
0.000405779
0.000237757
0.000137912
7.91841e-05
4.49968e-05
2.53027e-05
1.40775e-05
7.74789e-06
4.21762e-06
2.27038e-06
1.20837e-06
6.35787e-07
3.30634e-07
1.69916e-07
8.62947e-08
4.33065e-08
2.14463e-08
1.04658e-08
5.06331e-09
2.42025e-09
1.15579e-09
5.26856e-10
2.20621e-10
9.43951e-11
2.96357e-11
7.68332e-12
27.419
80.0383
126.424
163.665
190.26
206.049
211.912
209.381
200.287
186.482
169.666
151.285
132.495
114.17
96.9219
81.1452
67.0542
54.7256
44.1345
35.1858
27.7397
21.6319
16.6894
12.7415
9.62702
7.19967
5.32998
3.90633
2.83449
2.03644
1.44872
1.02055
0.711929
0.49183
0.336497
0.228007
0.153014
0.101704
0.0669542
0.0436575
0.0281958
0.0180367
0.0114282
0.00717202
0.00445802
0.00274452
0.00167339
0.00101045
0.000604216
0.000357761
0.000209739
0.000121732
6.99383e-05
3.97698e-05
2.23799e-05
1.24611e-05
6.86404e-06
3.73984e-06
2.01511e-06
1.07361e-06
5.6548e-07
2.944e-07
1.51485e-07
7.70275e-08
3.86811e-08
1.91907e-08
9.3967e-09
4.54523e-09
2.17438e-09
1.03066e-09
4.48926e-10
1.95376e-10
8.23213e-11
9.87856e-12
1.31714e-11
20.3843
59.6622
94.713
123.457
144.692
158.099
164.1
163.633
157.924
148.288
135.99
122.152
107.708
93.3884
79.7299
67.096
55.7043
45.6557
36.9619
29.5706
23.3868
18.2901
14.1483
10.8273
8.19864
6.14369
4.55655
3.34509
2.43099
1.74902
1.24587
0.878705
0.613662
0.424377
0.290623
0.197096
0.132377
0.0880537
0.0580085
0.037849
0.0244593
0.0156554
0.00992475
0.0062317
0.00387544
0.00238701
0.00145611
0.000879669
0.00052627
0.000311767
0.000182872
0.000106198
6.10509e-05
3.47386e-05
1.95623e-05
1.09005e-05
6.00923e-06
3.27691e-06
1.7673e-06
9.42481e-07
4.96922e-07
2.5898e-07
1.33411e-07
6.79107e-08
3.41513e-08
1.69856e-08
8.34519e-09
4.02606e-09
1.92851e-09
9.02242e-10
3.89654e-10
1.54764e-10
6.36618e-11
4.17095e-11
3.62214e-11
15.1965
44.5697
71.0319
93.0951
109.828
120.886
126.446
127.077
123.593
116.921
107.989
97.6506
86.6418
75.5576
64.851
54.8422
45.7355
37.6392
30.5863
24.5539
19.4802
15.2786
11.8497
9.0901
6.89837
5.17979
3.84881
2.83035
2.06015
1.48437
1.05877
0.747671
0.522751
0.361891
0.248074
0.168393
0.113194
0.0753519
0.0496765
0.0324343
0.0209732
0.0134319
0.00851974
0.00535223
0.00333013
0.0020521
0.00125238
0.00075694
0.000453055
0.000268522
0.000157584
9.15609e-05
5.26656e-05
2.99853e-05
1.68964e-05
9.42158e-06
5.19784e-06
2.83674e-06
1.53124e-06
8.17342e-07
4.31345e-07
2.25041e-07
1.16047e-07
5.91572e-08
2.98047e-08
1.48332e-08
7.28489e-09
3.52116e-09
1.66948e-09
7.61747e-10
3.40261e-10
1.72326e-10
9.21999e-11
5.92713e-11
2.19523e-11
11.3381
33.3077
53.2494
70.0965
83.1416
92.0706
96.9336
98.0719
96.0255
91.4411
84.9928
77.3219
68.9972
60.4925
52.1796
44.3304
37.1272
30.6752
25.0178
20.1508
16.036
12.6128
9.80765
7.5416
5.73585
4.31564
3.21272
2.36667
1.7254
1.24501
0.889259
0.628762
0.440128
0.305023
0.209302
0.142206
0.0956737
0.0637396
0.0420519
0.0274747
0.0177773
0.0113917
0.00722957
0.00454401
0.00282859
0.00174382
0.0010647
0.000643777
0.000385486
0.000228571
0.000134198
7.80095e-05
4.48931e-05
2.55736e-05
1.44188e-05
8.045e-06
4.44136e-06
2.42565e-06
1.31037e-06
7.00057e-07
3.69785e-07
1.93102e-07
9.96746e-08
5.08537e-08
2.56535e-08
1.27708e-08
6.27727e-09
3.05247e-09
1.44666e-09
6.78328e-10
3.15016e-10
1.63545e-10
8.34189e-11
5.70761e-11
1.09762e-11
8.4532
24.8653
39.8532
52.6506
62.7273
69.8181
73.9123
75.212
74.0739
70.9476
66.3188
60.6633
54.4144
47.9426
41.5461
35.4497
29.8096
24.7218
20.2327
16.3492
13.0496
10.2923
8.02369
6.18442
4.71392
3.55393
2.65063
1.956
1.4283
1.03217
0.738254
0.522663
0.366295
0.254135
0.174561
0.118715
0.0799388
0.0532996
0.0351902
0.0230073
0.014896
0.00955087
0.0060645
0.00381357
0.00237496
0.00146477
0.000894675
0.000541173
0.000324167
0.000192283
0.000112935
6.5675e-05
3.78104e-05
2.15485e-05
1.21553e-05
6.78562e-06
3.74825e-06
2.04839e-06
1.1073e-06
5.91986e-07
3.12954e-07
1.6356e-07
8.44979e-08
4.31287e-08
2.1769e-08
1.08576e-08
5.35089e-09
2.59916e-09
1.26006e-09
6.0369e-10
2.91966e-10
1.30616e-10
5.81737e-11
3.84166e-11
2.52452e-11
6.28996
18.5219
29.7479
39.4173
47.1359
52.6898
56.0426
57.312
56.7332
54.6176
51.3127
47.1682
42.5103
37.6241
32.7445
28.0529
23.6795
19.7081
16.1831
13.1175
10.5004
8.30396
6.48981
5.01376
3.82986
2.8932
2.16186
1.59808
1.16882
0.845922
0.605884
0.429503
0.301368
0.209322
0.143928
0.0979755
0.0660317
0.0440627
0.0291133
0.0190472
0.0123396
0.00791625
0.00502911
0.00316393
0.0019712
0.0012162
0.000743108
0.000449636
0.000269416
0.000159854
9.39159e-05
5.46311e-05
3.14623e-05
1.79368e-05
1.01217e-05
5.65272e-06
3.12388e-06
1.70802e-06
9.23781e-07
4.94154e-07
2.6138e-07
1.36703e-07
7.06833e-08
3.61116e-08
1.82281e-08
9.08827e-09
4.48816e-09
2.18755e-09
1.0581e-09
4.8844e-10
2.27207e-10
1.27324e-10
5.37833e-11
1.09762e-12
-6.5857e-12
4.66641
13.7532
22.1272
29.3923
35.258
39.5564
42.2437
43.3869
43.1408
41.7204
39.373
36.3536
32.9051
29.244
25.5524
21.974
18.6146
15.5448
12.8049
10.4101
8.35632
6.62558
5.19068
4.01921
3.07665
2.32879
1.74333
1.2909
0.945669
0.685439
0.491622
0.348956
0.245145
0.170461
0.11733
0.0799457
0.0539278
0.0360149
0.0238135
0.0155903
0.0101062
0.00648693
0.00412306
0.00259501
0.00161736
0.00099821
0.000610086
0.00036924
0.000221294
0.000131328
7.71718e-05
4.48998e-05
2.58633e-05
1.4748e-05
8.3243e-06
4.65024e-06
2.57066e-06
1.40603e-06
7.60758e-07
4.0713e-07
2.15463e-07
1.12731e-07
5.83076e-08
2.98201e-08
1.50626e-08
7.52307e-09
3.7297e-09
1.83851e-09
8.74801e-10
4.11607e-10
2.01962e-10
1.02078e-10
5.04904e-11
-6.5857e-12
-1.86595e-11
3.44878
10.1721
16.3893
21.8162
26.2396
29.5306
31.6469
32.6254
32.5677
31.6219
29.9632
27.7761
25.2398
22.517
19.7467
17.041
14.4841
12.1339
10.0252
8.17336
6.57835
5.22893
4.10613
3.18644
2.44421
1.85366
1.39016
1.03114
0.756569
0.549187
0.394442
0.280338
0.197177
0.13726
0.0945744
0.0645023
0.0435486
0.0291066
0.0192597
0.0126172
0.00818372
0.00525564
0.00334196
0.0021042
0.00131188
0.00080989
0.000495096
0.000299697
0.000179639
0.00010662
6.26581e-05
3.64583e-05
2.10024e-05
1.19772e-05
6.76108e-06
3.77742e-06
2.08851e-06
1.14256e-06
6.18348e-07
3.31e-07
1.75223e-07
9.16939e-08
4.74302e-08
2.42705e-08
1.22527e-08
6.12361e-09
3.01845e-09
1.4752e-09
7.2333e-10
3.5453e-10
1.8879e-10
6.25642e-11
3.18309e-11
9.87856e-12
-1.4269e-11
2.53744
7.48881
12.0809
16.1099
19.4205
21.9151
23.5568
24.3648
24.4059
23.7816
22.6156
21.0405
19.1874
17.1771
15.1148
13.0863
11.1575
9.37497
7.76772
6.3499
5.12375
4.0825
3.21315
2.49878
1.92059
1.4593
1.09635
0.814557
0.598593
0.435149
0.312964
0.222714
0.156834
0.109297
0.0753847
0.051463
0.0347753
0.0232611
0.0154027
0.0100969
0.00655265
0.0042102
0.00267828
0.0016869
0.00105199
0.000649579
0.000397152
0.00024043
0.00014412
8.55385e-05
5.02675e-05
2.92472e-05
1.68472e-05
9.60701e-06
5.42281e-06
3.02961e-06
1.67506e-06
9.16369e-07
4.95969e-07
2.65507e-07
1.4057e-07
7.35744e-08
3.80632e-08
1.94728e-08
9.83026e-09
4.90745e-09
2.41037e-09
1.18213e-09
5.77347e-10
2.84283e-10
1.21836e-10
4.28071e-11
3.18309e-11
1.31714e-11
4.39047e-12
1.85747
5.48494
8.85757
11.8298
14.2888
16.1619
17.4185
18.0679
18.1537
17.7456
16.9301
15.8024
14.4573
12.9839
11.4606
9.95244
8.51029
7.17069
5.95724
4.88231
3.9491
3.1538
2.48762
1.93854
1.49288
1.1364
0.855237
0.636453
0.468425
0.341013
0.245591
0.17499
0.123372
0.0860715
0.0594257
0.0406062
0.0274623
0.0183837
0.0121815
0.00799015
0.00518817
0.00333499
0.0021223
0.0013371
0.00083402
0.000515057
0.000314924
0.00019065
0.000114273
6.78161e-05
3.98465e-05
2.31796e-05
1.33492e-05
7.61059e-06
4.29491e-06
2.39894e-06
1.32608e-06
7.25318e-07
3.92523e-07
2.10109e-07
1.11231e-07
5.82407e-08
3.01241e-08
1.53886e-08
7.77991e-09
3.88886e-09
1.9351e-09
9.74684e-10
4.6978e-10
2.31597e-10
9.11023e-11
5.48809e-11
2.52452e-11
4.39047e-12
2.08547e-11
1.35216
3.99466
6.4568
8.63484
10.4476
11.8412
12.7915
13.3021
13.4015
13.1373
12.5702
11.7674
10.7975
9.72538
8.60898
7.49703
6.42807
5.43042
4.52283
3.71566
3.01237
2.411
1.90569
1.48801
1.14807
0.875485
0.659983
0.491928
0.362598
0.264343
0.190627
0.135995
0.0959905
0.0670406
0.0463325
0.0316885
0.0214491
0.0143691
0.00952768
0.00625309
0.00406228
0.00261232
0.00166294
0.00104794
0.000653749
0.000403752
0.000246863
0.000149431
8.95523e-05
5.31327e-05
3.121e-05
1.81494e-05
1.04485e-05
5.9545e-06
3.35895e-06
1.87539e-06
1.03625e-06
5.66582e-07
3.0649e-07
1.64013e-07
8.6793e-08
4.54282e-08
2.34967e-08
1.1997e-08
6.05446e-09
3.03052e-09
1.5224e-09
7.44185e-10
3.70995e-10
1.82205e-10
1.08664e-10
5.59785e-11
-1.09762e-12
1.09762e-12
-1.20738e-11
0.978441
2.89174
4.67779
6.26296
7.58905
8.61678
9.32727
9.72145
9.81777
9.64866
9.25629
8.68827
7.99355
7.2191
6.40728
5.59416
4.80864
4.07228
3.3997
2.79934
2.27445
1.8242
1.44475
1.13024
0.873615
0.667337
0.503891
0.376162
0.277671
0.202708
0.146369
0.104548
0.0738777
0.0516514
0.0357317
0.02446
0.0165698
0.0111085
0.00737038
0.00483991
0.00314566
0.00202361
0.00128853
0.000812136
0.000506684
0.00031292
0.000191305
0.000115778
6.93644e-05
4.11401e-05
2.41552e-05
1.40401e-05
8.0785e-06
4.60124e-06
2.59404e-06
1.44748e-06
7.99328e-07
4.36802e-07
2.36153e-07
1.26312e-07
6.6835e-08
3.49503e-08
1.80668e-08
9.22877e-09
4.66378e-09
2.33902e-09
1.13274e-09
5.30149e-10
2.61233e-10
1.40495e-10
7.57356e-11
3.40261e-11
9.87856e-12
2.19523e-12
-1.20738e-11
0.703533
2.07999
3.367
4.51254
5.47517
6.22643
6.752
7.05143
7.13667
7.02972
6.7598
6.36033
5.86607
5.31072
4.72497
4.13524
3.56293
3.02424
2.53036
2.08799
1.69999
1.36617
1.08406
0.84961
0.657846
0.503347
0.380665
0.284597
0.210379
0.153788
0.111186
0.0795116
0.0562485
0.0393665
0.0272591
0.0186764
0.0126618
0.00849452
0.00563948
0.0037052
0.00240918
0.00155033
0.000987388
0.000622401
0.000388314
0.000239793
0.000146569
8.86769e-05
5.31067e-05
3.14824e-05
1.84742e-05
1.07312e-05
6.17029e-06
3.51179e-06
1.97831e-06
1.10303e-06
6.08626e-07
3.32322e-07
1.79521e-07
9.5946e-08
5.07319e-08
2.65217e-08
1.36983e-08
6.99951e-09
3.55957e-09
1.76607e-09
8.48458e-10
4.02826e-10
1.90985e-10
8.8907e-11
4.06118e-11
1.86595e-11
3.07333e-11
3.07333e-11
1.86595e-11
0.502509
1.48612
2.40713
3.22898
3.92232
4.46674
4.85156
5.07575
5.14704
5.08031
4.89568
4.6165
4.26727
3.87196
3.45262
3.0284
2.61497
2.22435
1.86498
1.54204
1.25795
1.01284
0.805144
0.632116
0.490258
0.375716
0.284573
0.213063
0.157716
0.115442
0.0835646
0.0598281
0.0423696
0.029683
0.0205729
0.0141073
0.00957143
0.00642557
0.00426839
0.00280574
0.00182503
0.00117475
0.000748311
0.000471725
0.00029429
0.000181699
0.000111028
6.71471e-05
4.01925e-05
2.38121e-05
1.39634e-05
8.10456e-06
4.656e-06
2.64752e-06
1.49001e-06
8.29913e-07
4.57478e-07
2.49535e-07
1.34659e-07
7.19049e-08
3.79589e-08
1.9823e-08
1.02408e-08
5.23893e-09
2.63757e-09
1.30726e-09
6.5418e-10
3.28188e-10
1.53666e-10
6.36618e-11
4.93928e-11
4.60999e-11
3.95142e-11
3.29285e-11
8.78094e-12
0.356447
1.05445
1.70884
2.29409
2.78955
3.18068
3.45966
3.62532
3.68263
3.64161
3.51607
3.32219
3.07714
2.79784
2.49998
2.19732
1.9012
1.62043
1.36128
1.1277
0.921641
0.743384
0.591965
0.465521
0.361626
0.27756
0.210536
0.157851
0.117002
0.0857481
0.0621444
0.0445422
0.0315775
0.0221439
0.0153615
0.0105423
0.00715796
0.00480844
0.00319591
0.00210171
0.00136756
0.000880484
0.00056093
0.000353601
0.00022057
0.000136149
8.31635e-05
5.02702e-05
3.00718e-05
1.7803e-05
1.04309e-05
6.04857e-06
3.47131e-06
1.97169e-06
1.10838e-06
6.16605e-07
3.3948e-07
1.84947e-07
9.97065e-08
5.3173e-08
2.80463e-08
1.46203e-08
7.54941e-09
3.8219e-09
1.91534e-09
9.59318e-10
4.67585e-10
2.42573e-10
1.31714e-10
6.14666e-11
2.74404e-11
3.62214e-11
1.20738e-11
-4.39047e-12
4.39047e-12
0.251038
0.742802
1.20436
1.61797
1.96921
2.2478
2.44809
2.56901
2.6137
2.58891
2.50406
2.3703
2.19956
2.00371
1.79381
1.57963
1.36933
1.16928
0.984076
0.816681
0.668613
0.540207
0.430876
0.339377
0.264036
0.202953
0.154161
0.115739
0.0858972
0.0630291
0.0457319
0.0328142
0.0232868
0.0163455
0.0113489
0.00779475
0.00529615
0.00355994
0.00236733
0.00155746
0.00101373
0.0006528
0.000415908
0.000262166
0.000163504
0.000100892
6.15993e-05
3.72131e-05
2.22449e-05
1.31581e-05
7.70194e-06
4.46132e-06
2.55734e-06
1.45071e-06
8.14409e-07
4.52446e-07
2.48717e-07
1.35293e-07
7.28335e-08
3.87569e-08
2.0419e-08
1.06315e-08
5.45845e-09
2.75612e-09
1.39178e-09
6.87109e-10
3.20504e-10
1.60252e-10
8.45165e-11
2.74404e-11
2.19523e-12
-1.4269e-11
-3.29285e-12
7.68332e-12
2.85381e-11
0.175504
0.519414
0.842523
1.13258
1.37957
1.57631
1.71875
1.80597
1.83999
1.82531
1.76831
1.67663
1.55852
1.42222
1.27547
1.12516
0.977077
0.835779
0.704601
0.585726
0.480317
0.388692
0.310507
0.244936
0.190837
0.146894
0.111729
0.0839904
0.0624117
0.0458499
0.0333043
0.0239221
0.0169932
0.0119388
0.00829631
0.00570249
0.00387719
0.00260767
0.00173493
0.00114184
0.000743408
0.000478796
0.000305054
0.000192269
0.000119882
7.39458e-05
4.51233e-05
2.72412e-05
1.62707e-05
9.61506e-06
5.62191e-06
3.2525e-06
1.86193e-06
1.05473e-06
5.91202e-07
3.27913e-07
1.7996e-07
9.77187e-08
5.24936e-08
2.78872e-08
1.46444e-08
7.62515e-09
3.90752e-09
2.00535e-09
9.98832e-10
4.76366e-10
2.28304e-10
1.09762e-10
5.48809e-11
3.40261e-11
6.5857e-12
-2.96357e-11
-5.48809e-12
3.29285e-12
-4.39047e-12
0.121776
0.360472
0.584932
0.786747
0.959023
1.09677
1.19712
1.25934
1.28471
1.27621
1.23816
1.17575
1.09464
1.00051
0.898725
0.794106
0.690714
0.591783
0.499698
0.416045
0.341698
0.276933
0.221553
0.175015
0.136548
0.105246
0.0801542
0.0603291
0.0448826
0.0330097
0.0240033
0.0172588
0.0122716
0.00862922
0.00600133
0.00412806
0.00280854
0.00188999
0.00125802
0.000828253
0.000539372
0.000347424
0.00022135
0.00013949
8.69473e-05
5.3607e-05
3.26925e-05
1.97217e-05
1.17687e-05
6.94732e-06
4.0572e-06
2.34408e-06
1.33994e-06
7.57821e-07
4.24067e-07
2.34798e-07
1.28625e-07
6.96976e-08
3.73596e-08
1.97999e-08
1.03659e-08
5.38491e-09
2.77258e-09
1.42361e-09
7.02475e-10
3.28188e-10
1.52569e-10
8.78094e-11
4.06118e-11
3.18309e-11
-7.68332e-12
-8.78094e-12
-3.29285e-12
-1.75619e-11
-2.52452e-11
0.0838487
0.248246
0.402961
0.542266
0.661443
0.757057
0.827097
0.871005
0.889583
0.884806
0.859565
0.817376
0.762082
0.697572
0.627545
0.55533
0.483756
0.415091
0.351023
0.292689
0.240734
0.195381
0.156526
0.123814
0.0967274
0.0746484
0.0569212
0.0428931
0.0319471
0.0235216
0.0171216
0.0123229
0.00877003
0.00617224
0.00429595
0.0029571
0.00201313
0.00135544
0.000902601
0.000594446
0.000387193
0.000249422
0.000158902
0.000100117
6.23835e-05
3.8443e-05
2.34291e-05
1.4122e-05
8.41884e-06
4.96411e-06
2.89523e-06
1.6703e-06
9.5325e-07
5.38194e-07
3.0063e-07
1.66134e-07
9.08246e-08
4.90909e-08
2.6255e-08
1.38805e-08
7.24208e-09
3.73519e-09
1.92083e-09
9.70294e-10
4.74171e-10
2.305e-10
1.07567e-10
3.62214e-11
-3.29285e-12
1.31714e-11
3.29285e-12
2.41476e-11
2.19524e-12
-2.19523e-12
1.09762e-12
0.0572838
0.169623
0.275423
0.370805
0.452569
0.518365
0.566802
0.597464
0.610851
0.608263
0.591627
0.563304
0.52589
0.482025
0.434234
0.384799
0.335673
0.28843
0.24425
0.20394
0.167966
0.136504
0.1095
0.0867265
0.0678373
0.0524159
0.040015
0.0301875
0.0225083
0.0165894
0.0120876
0.00870793
0.00620282
0.00436907
0.00304323
0.00209622
0.00142792
0.000961907
0.000640804
0.000422155
0.00027502
0.000177172
0.000112863
7.10936e-05
4.42819e-05
2.72732e-05
1.66099e-05
1.00029e-05
5.95695e-06
3.50817e-06
2.04323e-06
1.17694e-06
6.70537e-07
3.77897e-07
2.10669e-07
1.16177e-07
6.33753e-08
3.41765e-08
1.82303e-08
9.62501e-09
5.01831e-09
2.5816e-09
1.30616e-09
6.47594e-10
3.24895e-10
1.44886e-10
7.4638e-11
1.31714e-11
-4.39047e-12
1.09762e-12
1.4269e-11
-1.09762e-12
-2.96357e-11
-1.09762e-11
1.09762e-11
0.0388255
0.114982
0.186752
0.25153
0.307157
0.352044
0.385235
0.406427
0.415932
0.414599
0.403706
0.384826
0.359699
0.330106
0.297755
0.264197
0.230766
0.198544
0.16835
0.140746
0.116066
0.0944428
0.0758523
0.0601487
0.0471033
0.0364368
0.0278472
0.0210306
0.015697
0.0115808
0.00844619
0.00609016
0.00434183
0.00306068
0.00213344
0.00147051
0.00100227
0.0006755
0.000450179
0.000296656
0.000193293
0.000124525
7.93175e-05
4.99501e-05
3.10994e-05
1.91431e-05
1.16498e-05
7.0093e-06
4.16961e-06
2.45242e-06
1.42625e-06
8.2025e-07
4.66485e-07
2.6238e-07
1.45946e-07
8.03204e-08
4.37192e-08
2.35461e-08
1.25326e-08
6.60875e-09
3.44762e-09
1.77814e-09
8.8468e-10
4.14899e-10
1.97571e-10
8.01261e-11
3.51238e-11
2.52452e-11
2.08547e-11
-1.4269e-11
-7.68332e-12
-1.97571e-11
-2.74404e-11
-1.86595e-11
-7.68332e-12
0.0261038
0.0773164
0.125607
0.169239
0.206767
0.237124
0.25966
0.27416
0.280815
0.280179
0.273092
0.260597
0.243851
0.224043
0.202322
0.179732
0.157176
0.135392
0.114939
0.0962072
0.0794303
0.0647077
0.0520299
0.0413046
0.0323817
0.0250759
0.0191846
0.0145032
0.0108357
0.00800183
0.00584129
0.00421554
0.00300783
0.00212193
0.00148012
0.00102085
0.000696173
0.000469421
0.000312956
0.000206283
0.000134428
8.6604e-05
5.51562e-05
3.4725e-05
2.16108e-05
1.32944e-05
8.08424e-06
4.85938e-06
2.88739e-06
1.69603e-06
9.84889e-07
5.65456e-07
3.20986e-07
1.80153e-07
1.00006e-07
5.48973e-08
2.97981e-08
1.60219e-08
8.53837e-09
4.50133e-09
2.35219e-09
1.21067e-09
6.15763e-10
2.90869e-10
1.41593e-10
7.90285e-11
3.29285e-11
2.63428e-11
1.31714e-11
8.78094e-12
-4.39047e-12
1.09762e-12
4.39047e-12
5.48809e-12
-2.85381e-11
0.0174081
0.0515666
0.0837933
0.112938
0.138042
0.158393
0.173556
0.183377
0.187977
0.187712
0.183131
0.17492
0.163845
0.150693
0.136228
0.121149
0.106061
0.0914622
0.0777311
0.0651347
0.053835
0.0439039
0.0353397
0.0280843
0.02204
0.0170847
0.0130837
0.00990054
0.00740385
0.00547245
0.00399833
0.00288791
0.00206217
0.00145586
0.0010162
0.000701308
0.000478519
0.000322805
0.000215286
0.00014194
9.25097e-05
5.95989e-05
3.79521e-05
2.38869e-05
1.48592e-05
9.13545e-06
5.55082e-06
3.33332e-06
1.97831e-06
1.16049e-06
6.72874e-07
3.85642e-07
2.18503e-07
1.22378e-07
6.77834e-08
3.70907e-08
2.00842e-08
1.07775e-08
5.72737e-09
3.00308e-09
1.5685e-09
8.00163e-10
4.09411e-10
2.03059e-10
1.09762e-10
7.24428e-11
3.95142e-11
2.19523e-11
0
1.75619e-11
2.96357e-11
2.74404e-11
4.39047e-12
5.48809e-12
-7.68332e-12
0.0115139
0.0341102
0.0554387
0.0747432
0.0913932
0.104918
0.115026
0.121614
0.124753
0.124673
0.121731
0.116375
0.109106
0.100443
0.0908897
0.0809091
0.0709041
0.0612059
0.0520698
0.0436759
0.0361352
0.0294986
0.0237678
0.0189065
0.0148517
0.0115234
0.00883292
0.00668998
0.00500732
0.00370425
0.00270866
0.00195796
0.00139917
0.000988492
0.000690426
0.000476762
0.000325474
0.000219658
0.000146546
9.66425e-05
6.29949e-05
4.05842e-05
2.58402e-05
1.62591e-05
1.01097e-05
6.21167e-06
3.7713e-06
2.26252e-06
1.34124e-06
7.85697e-07
4.54863e-07
2.60259e-07
1.47188e-07
8.22917e-08
4.54644e-08
2.48413e-08
1.34304e-08
7.1883e-09
3.79117e-09
1.9823e-09
1.02627e-09
5.32344e-10
2.82088e-10
1.51471e-10
5.26856e-11
3.40261e-11
3.7319e-11
7.68332e-12
3.29285e-12
-1.09762e-12
8.78094e-12
1.97571e-11
2.19523e-12
-2.08547e-11
4.39047e-12
0.00755236
0.0223761
0.036374
0.049053
0.0600013
0.0689101
0.0755876
0.0799623
0.0820787
0.0820833
0.0802061
0.0767375
0.0720037
0.0663432
0.0600859
0.0535358
0.0469583
0.0405726
0.0345482
0.0290056
0.0240197
0.0196262
0.0158276
0.0126017
0.00990779
0.00769411
0.00590277
0.00447447
0.00335182
0.00248156
0.00181601
0.00131369
0.000939445
0.000664152
0.000464177
0.000320712
0.000219053
0.000147899
9.87046e-05
6.51082e-05
4.24451e-05
2.73452e-05
1.74085e-05
1.09507e-05
6.80608e-06
4.17931e-06
2.5354e-06
1.51959e-06
8.99815e-07
5.264e-07
3.04287e-07
1.7381e-07
9.81029e-08
5.47261e-08
3.01537e-08
1.64533e-08
8.88082e-09
4.73841e-09
2.50257e-09
1.30397e-09
6.7723e-10
3.53433e-10
1.90985e-10
1.03176e-10
4.28071e-11
1.09762e-11
1.64643e-11
1.53666e-11
2.305e-11
6.58571e-12
-1.86595e-11
-6.58571e-12
-6.58571e-12
-1.86595e-11
1.20738e-11
0.00491246
0.0145558
0.0236653
0.031922
0.0390589
0.0448755
0.0492461
0.0521229
0.0535328
0.053569
0.0523787
0.0501487
0.0470898
0.043421
0.0393566
0.0350945
0.0308079
0.0266404
0.0227035
0.019077
0.0158109
0.0129296
0.0104357
0.00831548
0.00654317
0.00508531
0.00390444
0.00296199
0.00222053
0.00164523
0.00120487
0.00087221
0.00062416
0.000441542
0.000308781
0.000213462
0.000145871
9.85291e-05
6.5778e-05
4.33993e-05
2.82964e-05
1.82301e-05
1.16042e-05
7.29763e-06
4.53372e-06
2.78232e-06
1.68663e-06
1.00993e-06
5.97345e-07
3.49004e-07
2.01416e-07
1.14844e-07
6.46782e-08
3.59887e-08
1.97835e-08
1.07402e-08
5.78664e-09
3.0865e-09
1.63435e-09
8.55044e-10
4.31364e-10
2.04157e-10
1.04274e-10
4.28071e-11
3.07333e-11
-4.39047e-12
-9.87856e-12
1.4269e-11
3.29285e-11
3.29285e-11
1.20738e-11
-1.09762e-11
3.29285e-12
6.5857e-12
1.09762e-12
0.00316841
0.00938878
0.0152667
0.0205975
0.0252095
0.0289733
0.0318077
0.0336809
0.0346092
0.0346515
0.0339013
0.0324782
0.0305169
0.0281583
0.0255403
0.0227906
0.0200214
0.0173257
0.0147762
0.0124251
0.0103055
0.00843369
0.00681202
0.00543202
0.00427739
0.00332678
0.0025561
0.00194051
0.00145578
0.00107937
0.000791002
0.000572994
0.000410303
0.000290434
0.000203225
0.000140565
9.61017e-05
6.49389e-05
4.33676e-05
2.862e-05
1.86629e-05
1.20239e-05
7.65293e-06
4.81157e-06
2.98805e-06
1.83273e-06
1.1102e-06
6.64187e-07
3.92395e-07
2.28968e-07
1.31923e-07
7.50803e-08
4.22111e-08
2.3433e-08
1.28663e-08
6.97755e-09
3.74507e-09
2.00754e-09
1.06249e-09
5.58687e-10
2.766e-10
1.32812e-10
6.47594e-11
1.64643e-11
-8.78094e-12
-2.74404e-11
-1.97571e-11
-1.09762e-12
8.78094e-12
1.31714e-11
2.305e-11
-6.5857e-12
1.31714e-11
2.96357e-11
6.5857e-12
0.00202619
0.00600445
0.00976479
0.0131768
0.016131
0.0185447
0.0203658
0.0215736
0.0221778
0.0222153
0.0217453
0.0208436
0.019596
0.018092
0.0164198
0.0146611
0.0128878
0.0111596
0.00952363
0.00801348
0.00665078
0.00544631
0.00440193
0.00351246
0.00276765
0.00215397
0.00165606
0.00125804
0.000944394
0.000700658
0.000513795
0.00037242
0.000266839
0.000188993
0.000132317
9.15668e-05