/*--------------------------------*- C++ -*----------------------------------*\
  =========                 |
  \\      /  F ield         | OpenFOAM: The Open Source CFD Toolbox
   \\    /   O peration     | Website:  https://openfoam.org
    \\  /    A nd           | Version:  10
     \\/     M anipulation  |
\*---------------------------------------------------------------------------*/
FoamFile
{
    format      ascii;
    class       volScalarField;
    location    "208";
    object      T;
}
// * * * * * * * * * * * * * * * * * * * * * * * * * * * * * * * * * * * * * //

dimensions      [0 0 0 1 0 0 0];

internalField   nonuniform List<scalar> 
11250
(
249.744
167.265
138.882
126.293
119.362
114.929
111.81
109.48
107.669
106.227
105.06
104.106
103.322
102.677
102.146
101.71
101.355
101.065
100.832
100.645
100.496
100.378
100.286
100.215
100.16
100.118
100.086
100.062
100.045
100.032
100.022
100.016
100.011
100.007
100.005
100.003
100.002
100.002
100.001
100.001
100
100
100
100
100
100
100
100
100
100
100
100
100
100
100
100
100
100
100
100
100
100
100
100
100
100
100
100
100
100
100
100
100
100
100
331.206
247.714
200.879
173.258
155.634
143.525
134.699
127.979
122.703
118.472
115.031
112.21
109.886
107.971
106.393
105.098
104.039
103.178
102.482
101.924
101.48
101.129
100.854
100.641
100.477
100.352
100.257
100.186
100.134
100.095
100.067
100.047
100.033
100.022
100.015
100.01
100.007
100.005
100.003
100.002
100.001
100.001
100
100
100
100
100
100
100
100
100
100
100
100
100
100
100
100
100
100
100
100
100
100
100
100
100
100
100
100
100
100
100
100
100
358.587
291.556
243.74
210.333
186.523
168.991
155.651
145.218
136.881
130.117
124.573
120.001
116.22
113.093
110.512
108.389
106.651
105.236
104.092
103.173
102.441
101.863
101.41
101.058
100.787
100.581
100.425
100.308
100.221
100.157
100.111
100.078
100.054
100.037
100.025
100.017
100.011
100.007
100.005
100.003
100.002
100.001
100.001
100.001
100
100
100
100
100
100
100
100
100
100
100
100
100
100
100
100
100
100
100
100
100
100
100
100
100
100
100
100
100
100
100
370.201
316.262
272.325
237.989
211.355
190.517
173.979
160.66
149.799
140.861
133.458
127.308
122.193
117.945
114.427
111.526
109.146
107.206
105.635
104.373
103.366
102.57
101.946
101.461
101.087
100.802
100.587
100.425
100.305
100.217
100.153
100.107
100.074
100.051
100.035
100.023
100.016
100.01
100.007
100.004
100.003
100.002
100.001
100.001
100
100
100
100
100
100
100
100
100
100
100
100
100
100
100
100
100
100
100
100
100
100
100
100
100
100
100
100
100
100
100
376.193
331.08
291.49
258.189
230.693
208.095
189.477
174.061
161.23
150.508
141.527
134.003
127.705
122.448
118.078
114.463
111.49
109.061
107.092
105.507
104.242
103.24
102.454
101.843
101.373
101.013
100.741
100.537
100.386
100.275
100.194
100.136
100.094
100.065
100.044
100.03
100.02
100.013
100.009
100.006
100.004
100.002
100.001
100.001
100.001
100
100
100
100
100
100
100
100
100
100
100
100
100
100
100
100
100
100
100
100
100
100
100
100
100
100
100
100
100
100
379.731
340.514
304.597
272.896
245.519
222.139
202.268
185.405
171.1
158.97
148.695
140.009
132.69
126.548
121.42
117.164
113.654
110.78
108.445
106.563
105.059
103.867
102.931
102.202
101.64
101.211
100.886
100.643
100.462
100.329
100.232
100.162
100.113
100.077
100.053
100.035
100.024
100.016
100.01
100.007
100.004
100.003
100.002
100.001
100.001
100
100
100
100
100
100
100
100
100
100
100
100
100
100
100
100
100
100
100
100
100
100
100
100
100
100
100
100
100
100
382.007
346.819
313.765
283.656
256.811
233.209
212.643
194.826
179.456
166.247
154.938
145.296
137.117
130.215
124.427
119.606
115.619
112.347
109.682
107.532
105.81
104.444
103.37
102.534
101.888
101.395
101.021
100.741
100.533
100.379
100.268
100.187
100.13
100.089
100.061
100.041
100.027
100.018
100.012
100.008
100.005
100.003
100.002
100.001
100.001
100
100
100
100
100
100
100
100
100
100
100
100
100
100
100
100
100
100
100
100
100
100
100
100
100
100
100
100
100
100
383.551
351.188
320.308
291.585
265.395
241.864
220.956
202.534
186.415
172.399
160.282
149.871
140.981
133.44
127.089
121.78
117.376
113.753
110.797
108.407
106.491
104.968
103.77
102.836
102.115
101.563
101.145
100.831
100.597
100.426
100.301
100.21
100.146
100.1
100.068
100.046
100.031
100.02
100.013
100.009
100.006
100.004
100.002
100.001
100.001
100.001
100
100
100
100
100
100
100
100
100
100
100
100
100
100
100
100
100
100
100
100
100
100
100
100
100
100
100
100
100
384.636
354.295
325.055
297.474
271.922
248.596
227.556
208.768
192.135
177.525
164.789
153.768
144.302
136.233
129.41
123.686
118.925
114.998
111.788
109.187
107.099
105.438
104.13
103.108
102.319
101.714
101.256
100.912
100.656
100.468
100.33
100.231
100.16
100.11
100.075
100.051
100.034
100.022
100.015
100.01
100.006
100.004
100.002
100.002
100.001
100.001
100
100
100
100
100
100
100
100
100
100
100
100
100
100
100
100
100
100
100
100
100
100
100
100
100
100
100
100
100
385.415
356.546
328.542
301.874
276.889
253.813
232.761
213.762
196.782
181.744
168.539
157.043
147.116
138.618
131.404
125.333
120.269
116.083
112.655
109.872
107.635
105.853
104.448
103.35
102.5
101.85
101.356
100.985
100.709
100.505
100.357
100.25
100.173
100.119
100.081
100.055
100.037
100.024
100.016
100.01
100.007
100.004
100.003
100.002
100.001
100.001
100
100
100
100
100
100
100
100
100
100
100
100
100
100
100
100
100
100
100
100
100
100
100
100
100
100
100
100
100
385.985
358.199
331.127
305.177
280.672
257.845
236.841
217.73
200.521
185.176
171.622
159.759
149.47
140.626
133.094
126.737
121.421
117.018
113.404
110.466
108.101
106.215
104.726
103.562
102.66
101.969
101.444
101.049
100.755
100.539
100.381
100.267
100.185
100.127
100.087
100.058
100.039
100.026
100.017
100.011
100.007
100.005
100.003
100.002
100.001
100.001
100
100
100
100
100
100
100
100
100
100
100
100
100
100
100
100
100
100
100
100
100
100
100
100
100
100
100
100
100
386.404
359.422
333.055
307.665
283.553
260.952
240.023
220.86
203.503
187.942
174.129
161.987
151.415
142.297
134.509
127.919
122.396
117.811
114.043
110.975
108.502
106.527
104.966
103.745
102.798
102.072
101.52
101.105
100.796
100.568
100.402
100.281
100.195
100.134
100.091
100.062
100.041
100.027
100.018
100.012
100.008
100.005
100.003
100.002
100.001
100.001
100
100
100
100
100
100
100
100
100
100
100
100
100
100
100
100
100
100
100
100
100
100
100
100
100
100
100
100
100
386.716
360.333
334.499
309.542
285.746
263.34
242.492
223.313
205.862
190.149
176.147
163.793
153.003
143.671
135.678
128.901
123.209
118.477
114.581
111.405
108.841
106.792
105.171
103.901
102.917
102.161
101.586
101.153
100.831
100.593
100.419
100.294
100.204
100.14
100.096
100.065
100.043
100.029
100.019
100.012
100.008
100.005
100.003
100.002
100.001
100.001
100
100
100
100
100
100
100
100
100
100
100
100
100
100
100
100
100
100
100
100
100
100
100
100
100
100
100
100
100
386.948
361.013
335.581
310.957
287.412
265.168
244.399
225.223
207.714
191.896
177.755
165.244
154.287
144.787
136.635
129.708
123.881
119.029
115.028
111.763
109.125
107.015
105.344
104.034
103.017
102.236
101.642
101.194
100.861
100.615
100.435
100.305
100.212
100.146
100.099
100.067
100.045
100.03
100.019
100.013
100.008
100.005
100.003
100.002
100.001
100.001
100
100
100
100
100
100
100
100
100
100
100
100
100
100
100
100
100
100
100
100
100
100
100
100
100
100
100
100
100
387.121
361.522
336.393
312.024
288.675
266.563
245.864
226.702
209.158
193.267
179.026
166.397
155.313
145.686
137.408
130.363
124.429
119.481
115.396
112.059
109.36
107.2
105.487
104.144
103.101
102.299
101.688
101.229
100.886
100.633
100.448
100.314
100.218
100.15
100.102
100.069
100.046
100.031
100.02
100.013
100.008
100.005
100.003
100.002
100.001
100.001
100
100
100
100
100
100
100
100
100
100
100
100
100
100
100
100
100
100
100
100
100
100
100
100
100
100
100
100
100
387.25
361.902
337.001
312.826
289.629
267.623
246.983
227.839
210.275
194.334
180.022
167.306
156.127
146.401
138.026
130.89
124.871
119.847
115.696
112.301
109.553
107.351
105.605
104.235
103.17
102.351
101.727
101.257
100.907
100.648
100.458
100.321
100.223
100.154
100.105
100.071
100.047
100.031
100.021
100.013
100.009
100.006
100.003
100.002
100.001
100.001
100.001
100
100
100
100
100
100
100
100
100
100
100
100
100
100
100
100
100
100
100
100
100
100
100
100
100
100
100
100
387.346
362.185
337.455
313.428
290.347
268.425
247.835
228.707
211.133
195.159
180.795
168.015
156.765
146.964
138.516
131.309
125.224
120.14
115.936
112.495
109.708
107.474
105.701
104.309
103.226
102.393
101.759
101.281
100.924
100.66
100.467
100.328
100.228
100.157
100.107
100.072
100.048
100.032
100.021
100.014
100.009
100.006
100.004
100.002
100.001
100.001
100.001
100
100
100
100
100
100
100
100
100
100
100
100
100
100
100
100
100
100
100
100
100
100
100
100
100
100
100
100
387.418
362.396
337.794
313.878
290.886
269.029
248.478
229.367
211.788
195.791
181.39
168.564
157.26
147.404
138.899
131.638
125.503
120.372
116.127
112.651
109.833
107.573
105.778
104.368
103.272
102.428
101.785
101.3
100.938
100.67
100.475
100.333
100.231
100.159
100.109
100.073
100.049
100.033
100.021
100.014
100.009
100.006
100.004
100.002
100.001
100.001
100.001
100
100
100
100
100
100
100
100
100
100
100
100
100
100
100
100
100
100
100
100
100
100
100
100
100
100
100
100
387.471
362.552
338.046
314.212
291.288
269.48
248.961
229.864
212.283
196.272
181.845
168.984
157.642
147.744
139.197
131.895
125.72
120.554
116.277
112.773
109.931
107.651
105.84
104.416
103.308
102.456
101.806
101.315
100.949
100.678
100.48
100.337
100.234
100.161
100.11
100.074
100.05
100.033
100.022
100.014
100.009
100.006
100.004
100.002
100.001
100.001
100.001
100
100
100
100
100
100
100
100
100
100
100
100
100
100
100
100
100
100
100
100
100
100
100
100
100
100
100
100
387.51
362.667
338.231
314.459
291.586
269.816
249.322
230.237
212.656
196.634
182.189
169.304
157.933
148.004
139.426
132.092
125.889
120.696
116.394
112.868
110.008
107.712
105.888
104.453
103.337
102.477
101.822
101.327
100.958
100.685
100.485
100.34
100.237
100.163
100.111
100.075
100.05
100.033
100.022
100.014
100.009
100.006
100.004
100.002
100.001
100.001
100.001
100
100
100
100
100
100
100
100
100
100
100
100
100
100
100
100
100
100
100
100
100
100
100
100
100
100
100
100
387.538
362.751
338.368
314.641
291.806
270.064
249.589
230.514
212.934
196.906
182.448
169.546
158.154
148.202
139.6
132.244
126.018
120.804
116.485
112.942
110.068
107.76
105.925
104.483
103.36
102.494
101.835
101.337
100.965
100.69
100.489
100.343
100.238
100.164
100.112
100.076
100.051
100.034
100.022
100.014
100.009
100.006
100.004
100.002
100.001
100.001
100.001
100
100
100
100
100
100
100
100
100
100
100
100
100
100
100
100
100
100
100
100
100
100
100
100
100
100
100
100
387.559
362.813
338.467
314.775
291.967
270.247
249.786
230.719
213.14
197.107
182.641
169.726
158.319
148.351
139.732
132.358
126.116
120.887
116.553
112.999
110.114
107.796
105.954
104.505
103.377
102.508
101.845
101.344
100.971
100.694
100.492
100.345
100.24
100.165
100.113
100.076
100.051
100.034
100.022
100.014
100.009
100.006
100.004
100.002
100.001
100.001
100.001
100
100
100
100
100
100
100
100
100
100
100
100
100
100
100
100
100
100
100
100
100
100
100
100
100
100
100
100
387.575
362.858
338.54
314.872
292.084
270.38
249.93
230.869
213.292
197.256
182.783
169.859
158.442
148.461
139.83
132.443
126.189
120.949
116.605
113.041
110.148
107.824
105.976
104.522
103.39
102.518
101.852
101.35
100.975
100.697
100.494
100.347
100.241
100.166
100.113
100.077
100.051
100.034
100.022
100.015
100.009
100.006
100.004
100.002
100.001
100.001
100.001
100
100
100
100
100
100
100
100
100
100
100
100
100
100
100
100
100
100
100
100
100
100
100
100
100
100
100
100
387.585
362.89
338.592
314.942
292.169
270.477
250.035
230.978
213.402
197.365
182.887
169.957
158.532
148.543
139.902
132.507
126.244
120.996
116.644
113.073
110.174
107.845
105.993
104.535
103.4
102.525
101.858
101.354
100.978
100.699
100.496
100.348
100.242
100.167
100.114
100.077
100.051
100.034
100.022
100.015
100.009
100.006
100.004
100.002
100.001
100.001
100.001
100
100
100
100
100
100
100
100
100
100
100
100
100
100
100
100
100
100
100
100
100
100
100
100
100
100
100
100
387.593
362.913
338.63
314.992
292.23
270.546
250.11
231.057
213.482
197.443
182.963
170.029
158.598
148.603
139.956
132.554
126.284
121.03
116.673
113.097
110.194
107.86
106.005
104.545
103.408
102.531
101.863
101.358
100.98
100.701
100.497
100.349
100.243
100.167
100.114
100.077
100.052
100.034
100.022
100.015
100.009
100.006
100.004
100.002
100.001
100.001
100.001
100
100
100
100
100
100
100
100
100
100
100
100
100
100
100
100
100
100
100
100
100
100
100
100
100
100
100
100
387.599
362.93
338.656
315.028
292.274
270.596
250.164
231.113
213.539
197.5
183.018
170.081
158.646
148.646
139.995
132.588
126.314
121.055
116.694
113.114
110.208
107.872
106.014
104.552
103.413
102.535
101.866
101.36
100.982
100.703
100.498
100.349
100.243
100.167
100.114
100.077
100.052
100.034
100.023
100.015
100.009
100.006
100.004
100.002
100.001
100.001
100.001
100
100
100
100
100
100
100
100
100
100
100
100
100
100
100
100
100
100
100
100
100
100
100
100
100
100
100
100
387.603
362.941
338.675
315.053
292.305
270.631
250.203
231.154
213.58
197.541
183.057
170.118
158.68
148.678
140.022
132.612
126.335
121.073
116.709
113.127
110.218
107.88
106.021
104.557
103.417
102.539
101.868
101.362
100.983
100.704
100.499
100.35
100.243
100.168
100.114
100.077
100.052
100.034
100.023
100.015
100.009
100.006
100.004
100.002
100.001
100.001
100.001
100
100
100
100
100
100
100
100
100
100
100
100
100
100
100
100
100
100
100
100
100
100
100
100
100
100
100
100
387.606
362.95
338.688
315.071
292.326
270.656
250.23
231.182
213.609
197.569
183.085
170.144
158.704
148.7
140.042
132.63
126.35
121.086
116.72
113.136
110.226
107.886
106.026
104.561
103.42
102.541
101.87
101.363
100.984
100.704
100.499
100.35
100.244
100.168
100.115
100.077
100.052
100.034
100.023
100.015
100.009
100.006
100.004
100.002
100.001
100.001
100.001
100
100
100
100
100
100
100
100
100
100
100
100
100
100
100
100
100
100
100
100
100
100
100
100
100
100
100
100
387.607
362.955
338.698
315.083
292.341
270.673
250.249
231.202
213.629
197.589
183.104
170.162
158.722
148.715
140.056
132.642
126.361
121.095
116.728
113.143
110.231
107.891
106.029
104.564
103.422
102.543
101.871
101.364
100.985
100.705
100.499
100.351
100.244
100.168
100.115
100.077
100.052
100.034
100.023
100.015
100.009
100.006
100.004
100.002
100.001
100.001
100.001
100
100
100
100
100
100
100
100
100
100
100
100
100
100
100
100
100
100
100
100
100
100
100
100
100
100
100
100
387.609
362.959
338.704
315.092
292.352
270.685
250.262
231.216
213.643
197.603
183.118
170.175
158.734
148.726
140.066
132.651
126.369
121.102
116.733
113.147
110.235
107.894
106.032
104.566
103.424
102.544
101.872
101.365
100.986
100.705
100.5
100.351
100.244
100.168
100.115
100.078
100.052
100.034
100.023
100.015
100.009
100.006
100.004
100.002
100.001
100.001
100.001
100
100
100
100
100
100
100
100
100
100
100
100
100
100
100
100
100
100
100
100
100
100
100
100
100
100
100
100
387.61
362.962
338.708
315.098
292.359
270.693
250.271
231.225
213.653
197.613
183.127
170.184
158.742
148.734
140.073
132.657
126.374
121.107
116.737
113.151
110.237
107.896
106.033
104.567
103.425
102.545
101.873
101.365
100.986
100.705
100.5
100.351
100.244
100.168
100.115
100.078
100.052
100.034
100.023
100.015
100.009
100.006
100.004
100.002
100.001
100.001
100.001
100
100
100
100
100
100
100
100
100
100
100
100
100
100
100
100
100
100
100
100
100
100
100
100
100
100
100
100
387.61
362.964
338.711
315.102
292.364
270.699
250.277
231.231
213.659
197.619
183.134
170.19
158.748
148.739
140.078
132.661
126.378
121.11
116.74
113.153
110.239
107.897
106.034
104.568
103.426
102.545
101.873
101.366
100.986
100.706
100.5
100.351
100.244
100.168
100.115
100.078
100.052
100.034
100.023
100.015
100.009
100.006
100.004
100.002
100.001
100.001
100.001
100
100
100
100
100
100
100
100
100
100
100
100
100
100
100
100
100
100
100
100
100
100
100
100
100
100
100
100
387.611
362.965
338.713
315.105
292.367
270.703
250.281
231.236
213.664
197.624
183.138
170.194
158.752
148.743
140.081
132.664
126.38
121.112
116.742
113.154
110.24
107.898
106.035
104.569
103.426
102.545
101.873
101.366
100.986
100.706
100.5
100.351
100.244
100.168
100.115
100.078
100.052
100.034
100.023
100.015
100.01
100.006
100.004
100.002
100.001
100.001
100.001
100
100
100
100
100
100
100
100
100
100
100
100
100
100
100
100
100
100
100
100
100
100
100
100
100
100
100
100
387.611
362.966
338.715
315.106
292.369
270.705
250.284
231.239
213.667
197.627
183.141
170.197
158.754
148.745
140.083
132.666
126.382
121.113
116.743
113.155
110.241
107.899
106.036
104.569
103.427
102.546
101.874
101.366
100.987
100.706
100.5
100.351
100.244
100.168
100.115
100.078
100.052
100.034
100.023
100.015
100.01
100.006
100.004
100.002
100.001
100.001
100.001
100
100
100
100
100
100
100
100
100
100
100
100
100
100
100
100
100
100
100
100
100
100
100
100
100
100
100
100
387.611
362.966
338.716
315.108
292.371
270.707
250.286
231.241
213.669
197.629
183.143
170.199
158.756
148.747
140.085
132.667
126.383
121.114
116.744
113.156
110.242
107.899
106.036
104.57
103.427
102.546
101.874
101.366
100.987
100.706
100.5
100.351
100.244
100.168
100.115
100.078
100.052
100.034
100.023
100.015
100.01
100.006
100.004
100.002
100.001
100.001
100.001
100
100
100
100
100
100
100
100
100
100
100
100
100
100
100
100
100
100
100
100
100
100
100
100
100
100
100
100
387.611
362.967
338.716
315.108
292.372
270.708
250.287
231.242
213.67
197.63
183.144
170.2
158.757
148.748
140.086
132.668
126.384
121.115
116.744
113.156
110.242
107.9
106.036
104.57
103.427
102.546
101.874
101.366
100.987
100.706
100.5
100.351
100.244
100.168
100.115
100.078
100.052
100.034
100.023
100.015
100.01
100.006
100.004
100.002
100.001
100.001
100.001
100
100
100
100
100
100
100
100
100
100
100
100
100
100
100
100
100
100
100
100
100
100
100
100
100
100
100
100
387.611
362.967
338.717
315.109
292.372
270.709
250.288
231.243
213.671
197.631
183.145
170.201
158.758
148.749
140.086
132.669
126.384
121.115
116.745
113.157
110.242
107.9
106.037
104.57
103.427
102.546
101.874
101.366
100.987
100.706
100.5
100.351
100.244
100.168
100.115
100.078
100.052
100.034
100.023
100.015
100.01
100.006
100.004
100.002
100.001
100.001
100.001
100
100
100
100
100
100
100
100
100
100
100
100
100
100
100
100
100
100
100
100
100
100
100
100
100
100
100
100
387.611
362.967
338.717
315.109
292.373
270.709
250.288
231.243
213.672
197.632
183.145
170.202
158.758
148.749
140.087
132.669
126.384
121.116
116.745
113.157
110.243
107.9
106.037
104.57
103.427
102.546
101.874
101.366
100.987
100.706
100.5
100.351
100.244
100.168
100.115
100.078
100.052
100.034
100.023
100.015
100.01
100.006
100.004
100.002
100.001
100.001
100.001
100
100
100
100
100
100
100
100
100
100
100
100
100
100
100
100
100
100
100
100
100
100
100
100
100
100
100
100
387.611
362.967
338.717
315.109
292.373
270.71
250.288
231.244
213.672
197.632
183.146
170.202
158.759
148.749
140.087
132.669
126.385
121.116
116.745
113.157
110.243
107.9
106.037
104.57
103.427
102.546
101.874
101.366
100.987
100.706
100.5
100.351
100.244
100.168
100.115
100.078
100.052
100.034
100.023
100.015
100.01
100.006
100.004
100.002
100.001
100.001
100.001
100
100
100
100
100
100
100
100
100
100
100
100
100
100
100
100
100
100
100
100
100
100
100
100
100
100
100
100
387.612
362.967
338.717
315.11
292.373
270.71
250.289
231.244
213.672
197.632
183.146
170.202
158.759
148.75
140.087
132.67
126.385
121.116
116.745
113.157
110.243
107.9
106.037
104.57
103.427
102.546
101.874
101.366
100.987
100.706
100.5
100.351
100.244
100.168
100.115
100.078
100.052
100.034
100.023
100.015
100.01
100.006
100.004
100.002
100.001
100.001
100.001
100
100
100
100
100
100
100
100
100
100
100
100
100
100
100
100
100
100
100
100
100
100
100
100
100
100
100
100
387.612
362.967
338.717
315.11
292.373
270.71
250.289
231.244
213.672
197.632
183.146
170.202
158.759
148.75
140.087
132.67
126.385
121.116
116.745
113.157
110.243
107.9
106.037
104.57
103.427
102.546
101.874
101.366
100.987
100.706
100.5
100.351
100.244
100.168
100.115
100.078
100.052
100.034
100.023
100.015
100.01
100.006
100.004
100.002
100.001
100.001
100.001
100
100
100
100
100
100
100
100
100
100
100
100
100
100
100
100
100
100
100
100
100
100
100
100
100
100
100
100
387.612
362.967
338.717
315.11
292.373
270.71
250.289
231.244
213.673
197.632
183.146
170.202
158.759
148.75
140.087
132.67
126.385
121.116
116.745
113.157
110.243
107.9
106.037
104.57
103.427
102.546
101.874
101.366
100.987
100.706
100.5
100.351
100.244
100.168
100.115
100.078
100.052
100.034
100.023
100.015
100.01
100.006
100.004
100.002
100.001
100.001
100.001
100
100
100
100
100
100
100
100
100
100
100
100
100
100
100
100
100
100
100
100
100
100
100
100
100
100
100
100
387.612
362.967
338.717
315.11
292.373
270.71
250.289
231.244
213.673
197.633
183.146
170.202
158.759
148.75
140.087
132.67
126.385
121.116
116.745
113.157
110.243
107.9
106.037
104.57
103.427
102.546
101.874
101.366
100.987
100.706
100.5
100.351
100.244
100.168
100.115
100.078
100.052
100.034
100.023
100.015
100.01
100.006
100.004
100.002
100.001
100.001
100.001
100
100
100
100
100
100
100
100
100
100
100
100
100
100
100
100
100
100
100
100
100
100
100
100
100
100
100
100
387.612
362.967
338.717
315.11
292.373
270.71
250.289
231.244
213.673
197.633
183.146
170.202
158.759
148.75
140.087
132.67
126.385
121.116
116.745
113.157
110.243
107.9
106.037
104.57
103.427
102.546
101.874
101.366
100.987
100.706
100.5
100.351
100.244
100.168
100.115
100.078
100.052
100.034
100.023
100.015
100.01
100.006
100.004
100.002
100.001
100.001
100.001
100
100
100
100
100
100
100
100
100
100
100
100
100
100
100
100
100
100
100
100
100
100
100
100
100
100
100
100
387.612
362.967
338.717
315.11
292.374
270.71
250.289
231.244
213.673
197.633
183.146
170.202
158.759
148.75
140.087
132.67
126.385
121.116
116.745
113.157
110.243
107.9
106.037
104.57
103.427
102.546
101.874
101.366
100.987
100.706
100.5
100.351
100.244
100.168
100.115
100.078
100.052
100.034
100.023
100.015
100.01
100.006
100.004
100.002
100.001
100.001
100.001
100
100
100
100
100
100
100
100
100
100
100
100
100
100
100
100
100
100
100
100
100
100
100
100
100
100
100
100
387.612
362.967
338.717
315.11
292.374
270.71
250.289
231.244
213.673
197.633
183.146
170.202
158.759
148.75
140.087
132.67
126.385
121.116
116.745
113.157
110.243
107.9
106.037
104.57
103.427
102.546
101.874
101.366
100.987
100.706
100.5
100.351
100.244
100.168
100.115
100.078
100.052
100.034
100.023
100.015
100.01
100.006
100.004
100.002
100.001
100.001
100.001
100
100
100
100
100
100
100
100
100
100
100
100
100
100
100
100
100
100
100
100
100
100
100
100
100
100
100
100
387.612
362.967
338.717
315.11
292.374
270.71
250.289
231.244
213.673
197.633
183.146
170.202
158.759
148.75
140.087
132.67
126.385
121.116
116.745
113.157
110.243
107.9
106.037
104.57
103.427
102.546
101.874
101.366
100.987
100.706
100.5
100.351
100.244
100.168
100.115
100.078
100.052
100.034
100.023
100.015
100.01
100.006
100.004
100.002
100.001
100.001
100.001
100
100
100
100
100
100
100
100
100
100
100
100
100
100
100
100
100
100
100
100
100
100
100
100
100
100
100
100
387.612
362.967
338.717
315.11
292.374
270.71
250.289
231.244
213.673
197.633
183.146
170.202
158.759
148.75
140.087
132.67
126.385
121.116
116.745
113.157
110.243
107.9
106.037
104.57
103.427
102.546
101.874
101.366
100.987
100.706
100.5
100.351
100.244
100.168
100.115
100.078
100.052
100.034
100.023
100.015
100.01
100.006
100.004
100.002
100.001
100.001
100.001
100
100
100
100
100
100
100
100
100
100
100
100
100
100
100
100
100
100
100
100
100
100
100
100
100
100
100
100
387.612
362.967
338.717
315.11
292.374
270.71
250.289
231.244
213.673
197.633
183.146
170.202
158.759
148.75
140.087
132.67
126.385
121.116
116.745
113.157
110.243
107.9
106.037
104.57
103.427
102.546
101.874
101.366
100.987
100.706
100.5
100.351
100.244
100.168
100.115
100.078
100.052
100.034
100.023
100.015
100.01
100.006
100.004
100.002
100.001
100.001
100.001
100
100
100
100
100
100
100
100
100
100
100
100
100
100
100
100
100
100
100
100
100
100
100
100
100
100
100
100
387.612
362.967
338.717
315.11
292.374
270.71
250.289
231.244
213.673
197.633
183.146
170.202
158.759
148.75
140.087
132.67
126.385
121.116
116.745
113.157
110.243
107.9
106.037
104.57
103.427
102.546
101.874
101.366
100.987
100.706
100.5
100.351
100.244
100.168
100.115
100.078
100.052
100.034
100.023
100.015
100.01
100.006
100.004
100.002
100.001
100.001
100.001
100
100
100
100
100
100
100
100
100
100
100
100
100
100
100
100
100
100
100
100
100
100
100
100
100
100
100
100
387.612
362.967
338.717
315.11
292.374
270.71
250.289
231.244
213.673
197.633
183.146
170.202
158.759
148.75
140.087
132.67
126.385
121.116
116.745
113.157
110.243
107.9
106.037
104.57
103.427
102.546
101.874
101.366
100.987
100.706
100.5
100.351
100.244
100.168
100.115
100.078
100.052
100.034
100.023
100.015
100.01
100.006
100.004
100.002
100.001
100.001
100.001
100
100
100
100
100
100
100
100
100
100
100
100
100
100
100
100
100
100
100
100
100
100
100
100
100
100
100
100
387.612
362.967
338.717
315.11
292.374
270.71
250.289
231.244
213.673
197.633
183.146
170.202
158.759
148.75
140.087
132.67
126.385
121.116
116.745
113.157
110.243
107.9
106.037
104.57
103.427
102.546
101.874
101.366
100.987
100.706
100.5
100.351
100.244
100.168
100.115
100.078
100.052
100.034
100.023
100.015
100.01
100.006
100.004
100.002
100.001
100.001
100.001
100
100
100
100
100
100
100
100
100
100
100
100
100
100
100
100
100
100
100
100
100
100
100
100
100
100
100
100
387.612
362.967
338.717
315.11
292.374
270.71
250.289
231.244
213.673
197.633
183.146
170.202
158.759
148.75
140.087
132.67
126.385
121.116
116.745
113.157
110.243
107.9
106.037
104.57
103.427
102.546
101.874
101.366
100.987
100.706
100.5
100.351
100.244
100.168
100.115
100.078
100.052
100.034
100.023
100.015
100.01
100.006
100.004
100.002
100.001
100.001
100.001
100
100
100
100
100
100
100
100
100
100
100
100
100
100
100
100
100
100
100
100
100
100
100
100
100
100
100
100
387.612
362.967
338.717
315.11
292.374
270.71
250.289
231.244
213.673
197.633
183.146
170.202
158.759
148.75
140.087
132.67
126.385
121.116
116.745
113.157
110.243
107.9
106.037
104.57
103.427
102.546
101.874
101.366
100.987
100.706
100.5
100.351
100.244
100.168
100.115
100.078
100.052
100.034
100.023
100.015
100.01
100.006
100.004
100.002
100.001
100.001
100.001
100
100
100
100
100
100
100
100
100
100
100
100
100
100
100
100
100
100
100
100
100
100
100
100
100
100
100
100
387.612
362.967
338.717
315.11
292.374
270.71
250.289
231.244
213.673
197.633
183.146
170.202
158.759
148.75
140.087
132.67
126.385
121.116
116.745
113.157
110.243
107.9
106.037
104.57
103.427
102.546
101.874
101.366
100.987
100.706
100.5
100.351
100.244
100.168
100.115
100.078
100.052
100.034
100.023
100.015
100.01
100.006
100.004
100.002
100.001
100.001
100.001
100
100
100
100
100
100
100
100
100
100
100
100
100
100
100
100
100
100
100
100
100
100
100
100
100
100
100
100
387.612
362.967
338.717
315.11
292.374
270.71
250.289
231.244
213.673
197.633
183.146
170.202
158.759
148.75
140.087
132.67
126.385
121.116
116.745
113.157
110.243
107.9
106.037
104.57
103.427
102.546
101.874
101.366
100.987
100.706
100.5
100.351
100.244
100.168
100.115
100.078
100.052
100.034
100.023
100.015
100.01
100.006
100.004
100.002
100.001
100.001
100.001
100
100
100
100
100
100
100
100
100
100
100
100
100
100
100
100
100
100
100
100
100
100
100
100
100
100
100
100
387.612
362.967
338.717
315.11
292.374
270.71
250.289
231.244
213.673
197.633
183.146
170.202
158.759
148.75
140.087
132.67
126.385
121.116
116.745
113.157
110.243
107.9
106.037
104.57
103.427
102.546
101.874
101.366
100.987
100.706
100.5
100.351
100.244
100.168
100.115
100.078
100.052
100.034
100.023
100.015
100.01
100.006
100.004
100.002
100.001
100.001
100.001
100
100
100
100
100
100
100
100
100
100
100
100
100
100
100
100
100
100
100
100
100
100
100
100
100
100
100
100
387.612
362.967
338.717
315.11
292.374
270.71
250.289
231.244
213.673
197.633
183.146
170.202
158.759
148.75
140.087
132.67
126.385
121.116
116.745
113.157
110.243
107.9
106.037
104.57
103.427
102.546
101.874
101.366
100.987
100.706
100.5
100.351
100.244
100.168
100.115
100.078
100.052
100.034
100.023
100.015
100.01
100.006
100.004
100.002
100.001
100.001
100.001
100
100
100
100
100
100
100
100
100
100
100
100
100
100
100
100
100
100
100
100
100
100
100
100
100
100
100
100
387.612
362.967
338.717
315.11
292.374
270.71
250.289
231.244
213.673
197.633
183.146
170.202
158.759
148.75
140.087
132.67
126.385
121.116
116.745
113.157
110.243
107.9
106.037
104.57
103.427
102.546
101.874
101.366
100.987
100.706
100.5
100.351
100.244
100.168
100.115
100.078
100.052
100.034
100.023
100.015
100.01
100.006
100.004
100.002
100.001
100.001
100.001
100
100
100
100
100
100
100
100
100
100
100
100
100
100
100
100
100
100
100
100
100
100
100
100
100
100
100
100
387.612
362.967
338.717
315.11
292.374
270.71
250.289
231.244
213.673
197.633
183.146
170.202
158.759
148.75
140.087
132.67
126.385
121.116
116.745
113.157
110.243
107.9
106.037
104.57
103.427
102.546
101.874
101.366
100.987
100.706
100.5
100.351
100.244
100.168
100.115
100.078
100.052
100.034
100.023
100.015
100.01
100.006
100.004
100.002
100.001
100.001
100.001
100
100
100
100
100
100
100
100
100
100
100
100
100
100
100
100
100
100
100
100
100
100
100
100
100
100
100
100
387.612
362.967
338.717
315.11
292.374
270.71
250.289
231.244
213.673
197.633
183.146
170.202
158.759
148.75
140.087
132.67
126.385
121.116
116.745
113.157
110.243
107.9
106.037
104.57
103.427
102.546
101.874
101.366
100.987
100.706
100.5
100.351
100.244
100.168
100.115
100.078
100.052
100.034
100.023
100.015
100.01
100.006
100.004
100.002
100.001
100.001
100.001
100
100
100
100
100
100
100
100
100
100
100
100
100
100
100
100
100
100
100
100
100
100
100
100
100
100
100
100
387.612
362.967
338.717
315.11
292.374
270.71
250.289
231.244
213.673
197.633
183.146