/*--------------------------------*- C++ -*----------------------------------*\
  =========                 |
  \\      /  F ield         | OpenFOAM: The Open Source CFD Toolbox
   \\    /   O peration     | Website:  https://openfoam.org
    \\  /    A nd           | Version:  10
     \\/     M anipulation  |
\*---------------------------------------------------------------------------*/
FoamFile
{
    format      ascii;
    class       volScalarField;
    location    "249";
    object      T;
}
// * * * * * * * * * * * * * * * * * * * * * * * * * * * * * * * * * * * * * //

dimensions      [0 0 0 1 0 0 0];

internalField   nonuniform List<scalar> 
11250
(
249.786
167.39
139.087
126.572
119.707
115.33
112.256
109.96
108.173
106.742
105.576
104.613
103.811
103.142
102.581
102.112
101.72
101.394
101.123
100.9
100.716
100.566
100.445
100.347
100.269
100.207
100.158
100.12
100.091
100.068
100.05
100.037
100.027
100.02
100.014
100.01
100.007
100.005
100.004
100.002
100.002
100.001
100.001
100.001
100
100
100
100
100
100
100
100
100
100
100
100
100
100
100
100
100
100
100
100
100
100
100
100
100
100
100
100
100
100
100
331.332
248.089
201.492
174.091
156.663
144.722
136.033
129.416
124.208
120.01
116.572
113.724
111.349
109.361
107.695
106.299
105.131
104.159
103.352
102.686
102.138
101.692
101.33
101.038
100.805
100.619
100.473
100.359
100.271
100.202
100.15
100.111
100.081
100.059
100.042
100.03
100.021
100.015
100.01
100.007
100.005
100.003
100.002
100.002
100.001
100.001
100
100
100
100
100
100
100
100
100
100
100
100
100
100
100
100
100
100
100
100
100
100
100
100
100
100
100
100
100
358.796
292.177
244.755
211.712
188.228
170.974
157.86
147.596
139.372
132.665
127.125
122.509
118.643
115.396
112.667
110.377
108.46
106.86
105.532
104.434
103.532
102.795
102.197
101.716
101.33
101.024
100.783
100.594
100.448
100.335
100.248
100.183
100.134
100.097
100.07
100.05
100.035
100.025
100.017
100.012
100.008
100.006
100.004
100.003
100.002
100.001
100.001
100
100
100
100
100
100
100
100
100
100
100
100
100
100
100
100
100
100
100
100
100
100
100
100
100
100
100
100
370.491
317.123
273.732
239.901
213.718
193.266
177.041
163.957
153.253
144.393
136.996
130.785
125.552
121.137
117.415
114.283
111.655
109.459
107.632
106.121
104.878
103.862
103.037
102.372
101.84
101.417
101.083
100.822
100.619
100.463
100.344
100.253
100.185
100.134
100.097
100.069
100.049
100.034
100.024
100.017
100.011
100.008
100.005
100.004
100.002
100.002
100.001
100.001
100
100
100
100
100
100
100
100
100
100
100
100
100
100
100
100
100
100
100
100
100
100
100
100
100
100
100
376.561
332.172
293.276
260.616
233.693
211.585
193.364
178.246
165.613
154.991
146.018
138.416
131.968
126.5
121.871
117.962
114.674
111.921
109.626
107.726
106.16
104.88
103.84
103
102.328
101.793
101.371
101.041
100.785
100.587
100.436
100.321
100.235
100.17
100.123
100.088
100.062
100.044
100.031
100.021
100.015
100.01
100.007
100.004
100.003
100.002
100.001
100.001
100.001
100
100
100
100
100
100
100
100
100
100
100
100
100
100
100
100
100
100
100
100
100
100
100
100
100
100
380.174
341.829
306.745
275.816
249.127
226.337
206.943
190.44
176.373
164.363
154.097
145.319
137.819
131.423
125.983
121.373
117.484
114.22
111.494
109.232
107.367
105.84
104.597
103.594
102.79
102.15
101.645
101.249
100.942
100.704
100.523
100.385
100.282
100.205
100.147
100.105
100.075
100.053
100.037
100.025
100.017
100.012
100.008
100.005
100.004
100.002
100.002
100.001
100.001
100
100
100
100
100
100
100
100
100
100
100
100
100
100
100
100
100
100
100
100
100
100
100
100
100
100
382.52
348.344
316.256
287.042
260.996
238.078
218.066
200.665
185.572
172.502
161.203
151.454
143.065
135.868
129.719
124.489
120.062
116.336
113.219
110.628
108.488
106.732
105.303
104.148
103.221
102.484
101.901
101.444
101.089
100.815
100.605
100.446
100.326
100.237
100.171
100.122
100.086
100.061
100.042
100.029
100.02
100.014
100.009
100.006
100.004
100.003
100.002
100.001
100.001
100
100
100
100
100
100
100
100
100
100
100
100
100
100
100
100
100
100
100
100
100
100
100
100
100
100
384.131
352.91
323.121
295.409
270.121
247.362
227.08
209.128
193.322
179.463
167.358
156.825
147.698
139.824
133.066
127.294
122.394
118.259
114.792
111.904
109.515
107.553
105.954
104.66
103.621
102.793
102.138
101.625
101.226
100.918
100.682
100.503
100.368
100.267
100.192
100.137
100.098
100.069
100.048
100.033
100.023
100.016
100.011
100.007
100.005
100.003
100.002
100.001
100.001
100.001
100
100
100
100
100
100
100
100
100
100
100
100
100
100
100
100
100
100
100
100
100
100
100
100
100
385.277
356.2
328.167
301.704
277.15
254.678
234.331
216.064
199.776
185.341
172.617
161.462
151.733
143.297
136.022
129.787
124.476
119.983
116.207
113.056
110.445
108.298
106.545
105.126
103.985
103.075
102.356
101.791
101.352
101.012
100.752
100.555
100.406
100.295
100.212
100.152
100.108
100.076
100.053
100.037
100.025
100.017
100.012
100.008
100.005
100.003
100.002
100.001
100.001
100.001
100
100
100
100
100
100
100
100
100
100
100
100
100
100
100
100
100
100
100
100
100
100
100
100
100
386.113
358.62
331.93
306.478
282.58
260.433
240.135
221.702
205.099
190.25
177.059
165.416
155.205
146.306
138.601
131.973
126.312
121.51
117.465
114.083
111.277
108.966
107.078
105.546
104.314
103.331
102.553
101.942
101.466
101.098
100.816
100.602
100.441
100.32
100.231
100.165
100.117
100.082
100.058
100.04
100.027
100.019
100.013
100.009
100.006
100.004
100.002
100.002
100.001
100.001
100
100
100
100
100
100
100
100
100
100
100
100
100
100
100
100
100
100
100
100
100
100
100
100
100
386.734
360.425
334.765
310.122
286.784
264.955
244.76
226.258
209.453
194.312
180.773
168.753
158.157
148.884
140.824
133.869
127.912
122.846
118.571
114.99
112.014
109.559
107.551
105.921
104.608
103.56
102.73
102.077
101.568
101.175
100.874
100.645
100.472
100.343
100.247
100.177
100.126
100.088
100.062
100.043
100.029
100.02
100.014
100.009
100.006
100.004
100.003
100.002
100.001
100.001
100
100
100
100
100
100
100
100
100
100
100
100
100
100
100
100
100
100
100
100
100
100
100
100
100
387.2
361.787
336.919
312.917
290.045
268.504
248.434
229.918
212.99
197.645
183.848
171.539
160.642
151.068
142.719
135.495
129.29
124.002
119.531
115.78
112.658
110.079
107.967
106.251
104.868
103.763
102.886
102.197
101.66
101.244
100.926
100.683
100.5
100.364
100.262
100.188
100.133
100.094
100.066
100.045
100.031
100.021
100.014
100.01
100.006
100.004
100.003
100.002
100.001
100.001
100
100
100
100
100
100
100
100
100
100
100
100
100
100
100
100
100
100
100
100
100
100
100
100
100
387.553
362.822
338.565
315.068
292.576
271.286
251.343
232.845
215.845
200.36
186.374
173.846
162.714
152.901
144.319
136.873
130.465
124.992
120.357
116.462
113.215
110.53
108.329
106.539
105.095
103.94
103.024
102.303
101.74
101.305
100.971
100.717
100.525
100.382
100.275
100.197
100.14
100.099
100.069
100.048
100.033
100.022
100.015
100.01
100.007
100.005
100.003
100.002
100.001
100.001
100.001
100
100
100
100
100
100
100
100
100
100
100
100
100
100
100
100
100
100
100
100
100
100
100
100
387.822
363.611
339.826
316.726
294.542
273.464
253.639
235.174
218.136
202.556
188.433
175.738
164.424
154.423
145.655
138.031
131.456
125.831
121.059
117.043
113.692
110.918
108.641
106.788
105.292
104.094
103.143
102.395
101.81
101.358
101.011
100.747
100.547
100.398
100.287
100.205
100.146
100.103
100.072
100.05
100.034
100.023
100.016
100.011
100.007
100.005
100.003
100.002
100.001
100.001
100.001
100
100
100
100
100
100
100
100
100
100
100
100
100
100
100
100
100
100
100
100
100
100
100
100
388.028
364.215
340.794
318.006
296.068
275.165
255.444
237.019
219.964
204.32
190.098
177.279
165.825
155.677
146.762
138.994
132.284
126.535
121.65
117.535
114.096
111.247
108.907
107
105.46
104.226
103.246
102.474
101.871
101.404
101.045
100.772
100.566
100.412
100.297
100.213
100.151
100.106
100.074
100.052
100.036
100.024
100.016
100.011
100.007
100.005
100.003
100.002
100.001
100.001
100.001
100
100
100
100
100
100
100
100
100
100
100
100
100
100
100
100
100
100
100
100
100
100
100
100
388.185
364.678
341.538
318.993
297.25
276.49
256.86
238.475
221.415
205.729
191.435
178.524
166.963
156.701
147.669
139.788
132.969
127.119
122.143
117.946
114.435
111.524
109.131
107.18
105.602
104.338
103.333
102.541
101.922
101.443
101.075
100.794
100.582
100.423
100.306
100.219
100.155
100.11
100.077
100.053
100.037
100.025
100.017
100.011
100.008
100.005
100.003
100.002
100.001
100.001
100.001
100
100
100
100
100
100
100
100
100
100
100
100
100
100
100
100
100
100
100
100
100
100
100
100
388.305
365.033
342.109
319.753
298.165
277.52
257.965
239.617
222.56
206.847
192.502
179.522
167.88
157.53
148.407
140.436
133.531
127.6
122.55
118.286
114.717
111.755
109.318
107.33
105.722
104.432
103.406
102.598
101.966
101.476
101.1
100.813
100.596
100.434
100.313
100.224
100.159
100.112
100.079
100.054
100.038
100.026
100.017
100.012
100.008
100.005
100.003
100.002
100.001
100.001
100.001
100
100
100
100
100
100
100
100
100
100
100
100
100
100
100
100
100
100
100
100
100
100
100
100
388.397
365.304
342.547
320.337
298.87
278.317
258.825
240.509
223.458
207.728
193.347
180.317
168.614
158.196
149.003
140.961
133.987
127.992
122.883
118.565
114.949
111.946
109.473
107.455
105.821
104.51
103.468
102.645
102.002
101.504
101.12
100.828
100.608
100.442
100.319
100.229
100.162
100.115
100.08
100.056
100.038
100.026
100.018
100.012
100.008
100.005
100.003
100.002
100.001
100.001
100.001
100
100
100
100
100
100
100
100
100
100
100
100
100
100
100
100
100
100
100
100
100
100
100
100
388.467
365.511
342.882
320.785
299.412
278.932
259.49
241.203
224.16
208.419
194.013
180.945
169.196
158.727
149.479
141.382
134.355
128.309
123.153
118.793
115.138
112.102
109.6
107.557
105.903
104.575
103.518
102.685
102.033
101.527
101.138
100.841
100.617
100.449
100.324
100.232
100.165
100.116
100.081
100.057
100.039
100.027
100.018
100.012
100.008
100.005
100.004
100.002
100.001
100.001
100.001
100
100
100
100
100
100
100
100
100
100
100
100
100
100
100
100
100
100
100
100
100
100
100
100
388.521
365.669
343.138
321.128
299.828
279.405
260.003
241.74
224.704
208.958
194.533
181.438
169.655
159.146
149.857
141.718
134.649
128.563
123.37
118.976
115.291
112.228
109.703
107.64
105.97
104.628
103.56
102.717
102.057
101.546
101.152
100.852
100.625
100.455
100.329
100.235
100.167
100.118
100.083
100.057
100.039
100.027
100.018
100.012
100.008
100.005
100.004
100.002
100.001
100.001
100.001
100
100
100
100
100
100
100
100
100
100
100
100
100
100
100
100
100
100
100
100
100
100
100
100
388.561
365.789
343.332
321.389
300.145
279.766
260.396
242.152
225.125
209.375
194.938
181.822
170.013
159.475
150.155
141.983
134.882
128.765
123.542
119.122
115.413
112.329
109.786
107.707
106.023
104.671
103.594
102.743
102.078
101.561
101.164
100.861
100.632
100.46
100.332
100.238
100.169
100.119
100.083
100.058
100.04
100.027
100.018
100.012
100.008
100.005
100.004
100.002
100.002
100.001
100.001
100
100
100
100
100
100
100
100
100
100
100
100
100
100
100
100
100
100
100
100
100
100
100
100
388.592
365.88
343.479
321.586
300.385
280.041
260.696
242.468
225.447
209.695
195.25
182.12
170.292
159.732
150.387
142.191
135.065
128.924
123.679
119.238
115.511
112.41
109.852
107.761
106.067
104.705
103.621
102.764
102.094
101.574
101.173
100.868
100.637
100.464
100.335
100.24
100.171
100.12
100.084
100.058
100.04
100.028
100.019
100.013
100.008
100.006
100.004
100.002
100.002
100.001
100.001
100
100
100
100
100
100
100
100
100
100
100
100
100
100
100
100
100
100
100
100
100
100
100
100
388.615
365.948
343.59
321.735
300.567
280.25
260.924
242.708
225.693
209.941
195.489
182.349
170.507
159.93
150.567
142.352
135.207
129.048
123.786
119.329
115.587
112.473
109.904
107.804
106.101
104.732
103.642
102.781
102.107
101.584
101.181
100.874
100.641
100.467
100.337
100.242
100.172
100.121
100.085
100.059
100.041
100.028
100.019
100.013
100.008
100.006
100.004
100.002
100.002
100.001
100.001
100
100
100
100
100
100
100
100
100
100
100
100
100
100
100
100
100
100
100
100
100
100
100
100
388.632
365.999
343.673
321.847
300.704
280.406
261.096
242.89
225.879
210.127
195.671
182.524
170.672
160.083
150.706
142.477
135.318
129.145
123.869
119.4
115.647
112.523
109.945
107.837
106.128
104.754
103.659
102.794
102.117
101.592
101.187
100.878
100.645
100.469
100.339
100.243
100.173
100.122
100.085
100.059
100.041
100.028
100.019
100.013
100.008
100.006
100.004
100.002
100.002
100.001
100.001
100
100
100
100
100
100
100
100
100
100
100
100
100
100
100
100
100
100
100
100
100
100
100
100
388.645
366.038
343.735
321.931
300.806
280.524
261.225
243.027
226.019
210.268
195.809
182.656
170.797
160.199
150.812
142.572
135.402
129.219
123.933
119.455
115.693
112.561
109.977
107.863
106.149
104.771
103.672
102.805
102.125
101.598
101.192
100.882
100.647
100.471
100.341
100.244
100.174
100.122
100.086
100.06
100.041
100.028
100.019
100.013
100.009
100.006
100.004
100.002
100.002
100.001
100.001
100
100
100
100
100
100
100
100
100
100
100
100
100
100
100
100
100
100
100
100
100
100
100
100
388.655
366.066
343.781
321.993
300.883
280.612
261.321
243.129
226.125
210.373
195.913
182.756
170.891
160.286
150.892
142.644
135.467
129.275
123.982
119.496
115.728
112.591
110.002
107.883
106.165
104.783
103.683
102.813
102.132
101.603
101.195
100.885
100.649
100.473
100.342
100.245
100.174
100.123
100.086
100.06
100.041
100.028
100.019
100.013
100.009
100.006
100.004
100.002
100.002
100.001
100.001
100
100
100
100
100
100
100
100
100
100
100
100
100
100
100
100
100
100
100
100
100
100
100
100
388.662
366.087
343.815
322.039
300.939
280.676
261.393
243.204
226.203
210.452
195.99
182.83
170.962
160.352
150.953
142.699
135.515
129.318
124.019
119.528
115.755
112.614
110.02
107.898
106.177
104.793
103.69
102.819
102.136
101.606
101.198
100.887
100.651
100.474
100.343
100.246
100.175
100.123
100.086
100.06
100.041
100.028
100.019
100.013
100.009
100.006
100.004
100.002
100.002
100.001
100.001
100
100
100
100
100
100
100
100
100
100
100
100
100
100
100
100
100
100
100
100
100
100
100
100
388.667
366.102
343.84
322.073
300.98
280.724
261.445
243.26
226.26
210.51
196.048
182.886
171.014
160.401
150.998
142.74
135.552
129.35
124.047
119.552
115.776
112.631
110.034
107.91
106.187
104.801
103.696
102.824
102.14
101.609
101.2
100.888
100.652
100.475
100.343
100.246
100.175
100.123
100.086
100.06
100.041
100.028
100.019
100.013
100.009
100.006
100.004
100.002
100.002
100.001
100.001
100
100
100
100
100
100
100
100
100
100
100
100
100
100
100
100
100
100
100
100
100
100
100
100
388.671
366.113
343.858
322.097
301.01
280.759
261.484
243.301
226.303
210.553
196.09
182.927
171.053
160.438
151.031
142.77
135.579
129.374
124.068
119.57
115.791
112.643
110.045
107.919
106.194
104.807
103.701
102.827
102.143
101.611
101.202
100.89
100.653
100.476
100.344
100.246
100.175
100.124
100.087
100.06
100.041
100.028
100.019
100.013
100.009
100.006
100.004
100.002
100.002
100.001
100.001
100
100
100
100
100
100
100
100
100
100
100
100
100
100
100
100
100
100
100
100
100
100
100
100
388.673
366.121
343.871
322.115
301.032
280.784
261.512
243.331
226.334
210.584
196.121
182.957
171.082
160.464
151.056
142.792
135.599
129.392
124.083
119.583
115.802
112.653
110.053
107.925
106.199
104.811
103.704
102.83
102.145
101.613
101.203
100.891
100.654
100.476
100.344
100.247
100.176
100.124
100.087
100.06
100.041
100.028
100.019
100.013
100.009
100.006
100.004
100.002
100.002
100.001
100.001
100
100
100
100
100
100
100
100
100
100
100
100
100
100
100
100
100
100
100
100
100
100
100
100
388.675
366.127
343.881
322.128
301.048
280.803
261.532
243.353
226.356
210.607
196.143
182.978
171.102
160.484
151.074
142.809
135.613
129.405
124.095
119.593
115.811
112.66
110.059
107.93
106.203
104.814
103.707
102.832
102.146
101.614
101.204
100.891
100.654
100.477
100.344
100.247
100.176
100.124
100.087
100.06
100.042
100.028
100.019
100.013
100.009
100.006
100.004
100.002
100.002
100.001
100.001
100
100
100
100
100
100
100
100
100
100
100
100
100
100
100
100
100
100
100
100
100
100
100
100
388.677
366.132
343.888
322.137
301.06
280.816
261.546
243.368
226.372
210.623
196.159
182.994
171.117
160.498
151.087
142.821
135.624
129.414
124.103
119.6
115.817
112.665
110.063
107.933
106.206
104.816
103.709
102.833
102.148
101.615
101.205
100.892
100.655
100.477
100.345
100.247
100.176
100.124
100.087
100.06
100.042
100.028
100.019
100.013
100.009
100.006
100.004
100.002
100.002
100.001
100.001
100
100
100
100
100
100
100
100
100
100
100
100
100
100
100
100
100
100
100
100
100
100
100
100
388.678
366.134
343.893
322.144
301.068
280.825
261.557
243.379
226.384
210.635
196.171
183.005
171.128
160.508
151.096
142.829
135.632
129.421
124.109
119.605
115.821
112.669
110.066
107.936
106.208
104.818
103.71
102.835
102.148
101.616
101.205
100.892
100.655
100.477
100.345
100.247
100.176
100.124
100.087
100.06
100.042
100.028
100.019
100.013
100.009
100.006
100.004
100.002
100.002
100.001
100.001
100
100
100
100
100
100
100
100
100
100
100
100
100
100
100
100
100
100
100
100
100
100
100
100
388.678
366.137
343.896
322.149
301.073
280.832
261.564
243.387
226.392
210.643
196.179
183.013
171.136
160.515
151.103
142.835
135.637
129.426
124.113
119.609
115.824
112.671
110.068
107.938
106.209
104.819
103.711
102.835
102.149
101.616
101.206
100.892
100.655
100.477
100.345
100.247
100.176
100.124
100.087
100.06
100.042
100.028
100.019
100.013
100.009
100.006
100.004
100.002
100.002
100.001
100.001
100
100
100
100
100
100
100
100
100
100
100
100
100
100
100
100
100
100
100
100
100
100
100
100
388.679
366.138
343.898
322.152
301.077
280.836
261.569
243.393
226.398
210.649
196.185
183.019
171.141
160.52
151.108
142.839
135.641
129.429
124.116
119.612
115.826
112.673
110.07
107.939
106.211
104.82
103.712
102.836
102.15
101.616
101.206
100.893
100.655
100.477
100.345
100.247
100.176
100.124
100.087
100.06
100.042
100.028
100.019
100.013
100.009
100.006
100.004
100.002
100.002
100.001
100.001
100
100
100
100
100
100
100
100
100
100
100
100
100
100
100
100
100
100
100
100
100
100
100
100
388.679
366.139
343.9
322.154
301.08
280.84
261.573
243.396
226.402
210.653
196.189
183.023
171.145
160.524
151.111
142.843
135.644
129.432
124.118
119.614
115.828
112.675
110.071
107.94
106.211
104.821
103.712
102.836
102.15
101.617
101.206
100.893
100.656
100.478
100.345
100.247
100.176
100.124
100.087
100.06
100.042
100.028
100.019
100.013
100.009
100.006
100.004
100.002
100.002
100.001
100.001
100
100
100
100
100
100
100
100
100
100
100
100
100
100
100
100
100
100
100
100
100
100
100
100
388.68
366.14
343.901
322.156
301.082
280.842
261.575
243.399
226.404
210.656
196.192
183.026
171.147
160.526
151.113
142.845
135.646
129.433
124.12
119.615
115.829
112.676
110.072
107.941
106.212
104.821
103.713
102.837
102.15
101.617
101.206
100.893
100.656
100.478
100.345
100.247
100.176
100.124
100.087
100.06
100.042
100.028
100.019
100.013
100.009
100.006
100.004
100.002
100.002
100.001
100.001
100
100
100
100
100
100
100
100
100
100
100
100
100
100
100
100
100
100
100
100
100
100
100
100
388.68
366.14
343.902
322.157
301.084
280.843
261.577
243.401
226.406
210.658
196.194
183.028
171.149
160.528
151.115
142.846
135.647
129.435
124.121
119.616
115.83
112.676
110.072
107.941
106.212
104.822
103.713
102.837
102.15
101.617
101.206
100.893
100.656
100.478
100.345
100.247
100.176
100.124
100.087
100.06
100.042
100.028
100.019
100.013
100.009
100.006
100.004
100.002
100.002
100.001
100.001
100
100
100
100
100
100
100
100
100
100
100
100
100
100
100
100
100
100
100
100
100
100
100
100
388.68
366.141
343.903
322.158
301.084
280.845
261.578
243.402
226.408
210.659
196.195
183.029
171.151
160.529
151.116
142.847
135.648
129.435
124.122
119.616
115.83
112.677
110.073
107.942
106.212
104.822
103.713
102.837
102.15
101.617
101.206
100.893
100.656
100.478
100.345
100.248
100.176
100.124
100.087
100.06
100.042
100.028
100.019
100.013
100.009
100.006
100.004
100.002
100.002
100.001
100.001
100
100
100
100
100
100
100
100
100
100
100
100
100
100
100
100
100
100
100
100
100
100
100
100
388.68
366.141
343.903
322.158
301.085
280.845
261.579
243.403
226.409
210.66
196.196
183.03
171.151
160.53
151.117
142.848
135.649
129.436
124.122
119.617
115.831
112.677
110.073
107.942
106.213
104.822
103.713
102.837
102.15
101.617
101.206
100.893
100.656
100.478
100.345
100.248
100.176
100.124
100.087
100.06
100.042
100.028
100.019
100.013
100.009
100.006
100.004
100.002
100.002
100.001
100.001
100
100
100
100
100
100
100
100
100
100
100
100
100
100
100
100
100
100
100
100
100
100
100
100
388.68
366.141
343.903
322.158
301.085
280.846
261.58
243.404
226.409
210.661
196.197
183.03
171.152
160.531
151.117
142.848
135.649
129.436
124.122
119.617
115.831
112.677
110.073
107.942
106.213
104.822
103.713
102.837
102.15
101.617
101.207
100.893
100.656
100.478
100.345
100.248
100.176
100.124
100.087
100.06
100.042
100.028
100.019
100.013
100.009
100.006
100.004
100.002
100.002
100.001
100.001
100
100
100
100
100
100
100
100
100
100
100
100
100
100
100
100
100
100
100
100
100
100
100
100
388.68
366.141
343.903
322.159
301.086
280.846
261.58
243.404
226.41
210.661
196.197
183.031
171.152
160.531
151.117
142.849
135.649
129.437
124.123
119.617
115.831
112.677
110.073
107.942
106.213
104.822
103.713
102.837
102.15
101.617
101.207
100.893
100.656
100.478
100.345
100.248
100.176
100.124
100.087
100.06
100.042
100.028
100.019
100.013
100.009
100.006
100.004
100.002
100.002
100.001
100.001
100
100
100
100
100
100
100
100
100
100
100
100
100
100
100
100
100
100
100
100
100
100
100
100
388.68
366.141
343.904
322.159
301.086
280.846
261.58
243.404
226.41
210.661
196.197
183.031
171.153
160.531
151.118
142.849
135.65
129.437
124.123
119.618
115.831
112.678
110.074
107.942
106.213
104.822
103.713
102.837
102.151
101.617
101.207
100.893
100.656
100.478
100.345
100.248
100.176
100.124
100.087
100.06
100.042
100.028
100.019
100.013
100.009
100.006
100.004
100.002
100.002
100.001
100.001
100
100
100
100
100
100
100
100
100
100
100
100
100
100
100
100
100
100
100
100
100
100
100
100
388.68
366.141
343.904
322.159
301.086
280.846
261.58
243.405
226.41
210.662
196.197
183.031
171.153
160.531
151.118
142.849
135.65
129.437
124.123
119.618
115.831
112.678
110.074
107.942
106.213
104.822
103.713
102.837
102.151
101.617
101.207
100.893
100.656
100.478
100.345
100.248
100.176
100.124
100.087
100.06
100.042
100.028
100.019
100.013
100.009
100.006
100.004
100.002
100.002
100.001
100.001
100
100
100
100
100
100
100
100
100
100
100
100
100
100
100
100
100
100
100
100
100
100
100
100
388.68
366.141
343.904
322.159
301.086
280.846
261.58
243.405
226.41
210.662
196.198
183.031
171.153
160.531
151.118
142.849
135.65
129.437
124.123
119.618
115.832
112.678
110.074
107.942
106.213
104.822
103.713
102.837
102.151
101.617
101.207
100.893
100.656
100.478
100.345
100.248
100.176
100.124
100.087
100.06
100.042
100.028
100.019
100.013
100.009
100.006
100.004
100.002
100.002
100.001
100.001
100
100
100
100
100
100
100
100
100
100
100
100
100
100
100
100
100
100
100
100
100
100
100
100
388.68
366.141
343.904
322.159
301.086
280.847
261.58
243.405
226.41
210.662
196.198
183.031
171.153
160.531
151.118
142.849
135.65
129.437
124.123
119.618
115.832
112.678
110.074
107.942
106.213
104.822
103.713
102.837
102.151
101.617
101.207
100.893
100.656
100.478
100.345
100.248
100.176
100.124
100.087
100.06
100.042
100.028
100.019
100.013
100.009
100.006
100.004
100.002
100.002
100.001
100.001
100
100
100
100
100
100
100
100
100
100
100
100
100
100
100
100
100
100
100
100
100
100
100
100
388.68
366.141
343.904
322.159
301.086
280.847
261.581
243.405
226.41
210.662
196.198
183.032
171.153
160.532
151.118
142.849
135.65
129.437
124.123
119.618
115.832
112.678
110.074
107.942
106.213
104.822
103.713
102.837
102.151
101.617
101.207
100.893
100.656
100.478
100.345
100.248
100.176
100.124
100.087
100.06
100.042
100.028
100.019
100.013
100.009
100.006
100.004
100.002
100.002
100.001
100.001
100
100
100
100
100
100
100
100
100
100
100
100
100
100
100
100
100
100
100
100
100
100
100
100
388.68
366.141
343.904
322.159
301.086
280.847
261.581
243.405
226.41
210.662
196.198
183.032
171.153
160.532
151.118
142.849
135.65
129.437
124.123
119.618
115.832
112.678
110.074
107.942
106.213
104.822
103.713
102.837
102.151
101.617
101.207
100.893
100.656
100.478
100.345
100.248
100.176
100.124
100.087
100.06
100.042
100.028
100.019
100.013
100.009
100.006
100.004
100.002
100.002
100.001
100.001
100
100
100
100
100
100
100
100
100
100
100
100
100
100
100
100
100
100
100
100
100
100
100
100
388.68
366.141
343.904
322.159
301.086
280.847
261.581
243.405
226.41
210.662
196.198
183.032
171.153
160.532
151.118
142.849
135.65
129.437
124.123
119.618
115.832
112.678
110.074
107.942
106.213
104.822
103.713
102.837
102.151
101.617
101.207
100.893
100.656
100.478
100.345
100.248
100.176
100.124
100.087
100.06
100.042
100.028
100.019
100.013
100.009
100.006
100.004
100.002
100.002
100.001
100.001
100
100
100
100
100
100
100
100
100
100
100
100
100
100
100
100
100
100
100
100
100
100
100
100
388.68
366.141
343.904
322.159
301.086
280.847
261.581
243.405
226.41
210.662
196.198
183.032
171.153
160.532
151.118
142.849
135.65
129.437
124.123
119.618
115.832
112.678
110.074
107.942
106.213
104.822
103.713
102.837
102.151
101.617
101.207
100.893
100.656
100.478
100.345
100.248
100.176
100.124
100.087
100.06
100.042
100.028
100.019
100.013
100.009
100.006
100.004
100.002
100.002
100.001
100.001
100
100
100
100
100
100
100
100
100
100
100
100
100
100
100
100
100
100
100
100
100
100
100
100
388.68
366.141
343.904
322.159
301.086
280.847
261.581
243.405
226.41
210.662
196.198
183.032
171.153
160.532
151.118
142.849
135.65
129.437
124.123
119.618
115.832
112.678
110.074
107.942
106.213
104.822
103.713
102.837
102.151
101.617
101.207
100.893
100.656
100.478
100.345
100.248
100.176
100.124
100.087
100.06
100.042
100.028
100.019
100.013
100.009
100.006
100.004
100.002
100.002
100.001
100.001
100
100
100
100
100
100
100
100
100
100
100
100
100
100
100
100
100
100
100
100
100
100
100
100
388.68
366.141
343.904
322.159
301.086
280.847
261.581
243.405
226.41
210.662
196.198
183.032
171.153
160.532
151.118
142.849
135.65
129.437
124.123
119.618
115.832
112.678
110.074
107.942
106.213
104.822
103.713
102.837
102.151
101.617
101.207
100.893
100.656
100.478
100.345
100.248
100.176
100.124
100.087
100.06
100.042
100.028
100.019
100.013
100.009
100.006
100.004
100.002
100.002
100.001
100.001
100
100
100
100
100
100
100
100
100
100
100
100
100
100
100
100
100
100
100
100
100
100
100
100
388.68
366.141
343.904
322.159
301.086
280.847
261.581
243.405
226.41
210.662
196.198
183.032
171.153
160.532
151.118
142.849
135.65
129.437
124.123
119.618
115.832
112.678
110.074
107.942
106.213
104.822
103.713
102.837
102.151
101.617
101.207
100.893
100.656
100.478
100.345
100.248
100.176
100.124
100.087
100.06
100.042
100.028
100.019
100.013
100.009
100.006
100.004
100.002
100.002
100.001
100.001
100
100
100
100
100
100
100
100
100
100
100
100
100
100
100
100
100
100
100
100
100
100
100
100
388.68
366.141
343.904
322.159
301.086
280.847
261.581
243.405
226.41
210.662
196.198
183.032
171.153
160.532
151.118
142.849
135.65
129.437
124.123
119.618
115.832
112.678
110.074
107.942
106.213
104.822
103.713
102.837
102.151
101.617
101.207
100.893
100.656
100.478
100.345
100.248
100.176
100.124
100.087
100.06
100.042
100.028
100.019
100.013
100.009
100.006
100.004
100.002
100.002
100.001
100.001
100
100
100
100
100
100
100
100
100
100
100
100
100
100
100
100
100
100
100
100
100
100
100
100
388.68
366.141
343.904
322.159
301.086
280.847
261.581
243.405
226.41
210.662
196.198
183.032
171.153
160.532
151.118
142.849
135.65
129.437
124.123
119.618
115.832
112.678
110.074
107.942
106.213
104.822
103.713
102.837
102.151
101.617
101.207
100.893
100.656
100.478
100.345
100.248
100.176
100.124
100.087
100.06
100.042
100.028
100.019
100.013
100.009
100.006
100.004
100.002
100.002
100.001
100.001
100
100
100
100
100
100
100
100
100
100
100
100
100
100
100
100
100
100
100
100
100
100
100
100
388.68
366.141
343.904
322.159
301.086
280.847
261.581
243.405
226.41
210.662
196.198
183.032
171.153
160.532
151.118
142.849
135.65
129.437
124.123
119.618
115.832
112.678
110.074
107.942
106.213
104.822
103.713
102.837
102.151
101.617
101.207
100.893
100.656
100.478
100.345
100.248
100.176
100.124
100.087
100.06
100.042
100.028
100.019
100.013
100.009
100.006
100.004
100.002
100.002
100.001
100.001
100
100
100
100
100
100
100
100
100
100
100
100
100
100
100
100
100
100
100
100
100
100
100
100
388.68
366.141
343.904
322.159
301.086
280.847
261.581
243.405
226.41
210.662
196.198
183.032
171.153
160.532
151.118
142.849
135.65
129.437
124.123
119.618
115.832
112.678
110.074
107.942
106.213
104.822
103.713
102.837
102.151
101.617
101.207
100.893
100.656
100.478
100.345
100.248
100.176
100.124
100.087
100.06
100.042
100.028
100.019
100.013
100.009
100.006
100.004
100.002
100.002
100.001
100.001
100
100
100
100
100
100
100
100
100
100
100
100
100
100
100
100
100
100
100
100
100
100
100
100
388.68
366.141
343.904
322.159
301.086
280.847
261.581
243.405
226.41
210.662
196.198
183.032
171.153
160.532
151.118
142.849
135.65
129.437
124.123
119.618
115.832
112.678
110.074
107.942
106.213
104.822
103.713
102.837
102.151
101.617
101.207
100.893
100.656
100.478
100.345
100.248
100.176
100.124
100.087
100.06
100.042
100.028
100.019
100.013
100.009
100.006
100.004
100.002
100.002
100.001
100.001
100
100
100
100
100
100
100
100
100
100
100
100
100
100
100
100
100
100
100
100
100
100
100
100
388.68
366.141
343.904
322.159
301.086
280.847
261.581
243.405
226.41
210.662
196.198
183.032
171.153
160.532
151.118
142.849
135.65
129.437
124.123
119.618
115.832
112.678
110.074
107.942
106.213
104.822
103.713
102.837
102.151
101.617
101.207
100.893
100.656
100.478
100.345
100.248
100.176
100.124
100.087
100.06
100.042
100.028
100.019
100.013
100.009
100.006
100.004
100.002
100.002
100.001
100.001
100
100
100
100
100
100
100
100
100
100
100
100
100
100
100
100
100
100
100
100
100
100