/*--------------------------------*- C++ -*----------------------------------*\
  =========                 |
  \\      /  F ield         | OpenFOAM: The Open Source CFD Toolbox
   \\    /   O peration     | Website:  https://openfoam.org
    \\  /    A nd           | Version:  10
     \\/     M anipulation  |
\*---------------------------------------------------------------------------*/
FoamFile
{
    format      ascii;
    class       volScalarField;
    location    "254";
    object      gradTx;
}
// * * * * * * * * * * * * * * * * * * * * * * * * * * * * * * * * * * * * * //

dimensions      [0 -1 0 1 0 0 0];

internalField   nonuniform List<scalar> 
11250
(
14292.6
8082.36
5274.77
3779.04
2869.07
2258.03
1817.64
1483.97
1222.04
1011.25
838.662
695.701
576.404
476.438
392.532
322.124
263.147
213.893
172.921
138.997
111.059
88.1839
69.5702
54.5233
42.4426
32.8115
25.1888
19.2
14.5303
10.9168
8.1421
6.02799
4.42978
3.2311
2.33915
1.68072
1.19853
0.848219
0.595752
0.415253
0.28724
0.197176
0.134319
0.0908
0.0609114
0.0405479
0.026785
0.0175574
0.0114201
0.0073708
0.00472044
0.00299962
0.00189127
0.00118314
0.000734333
0.000452184
0.000276237
0.000167408
0.000100641
6.00148e-05
3.54978e-05
2.08248e-05
1.21162e-05
6.99094e-06
3.99999e-06
2.26936e-06
1.27658e-06
7.11932e-07
3.93562e-07
2.15565e-07
1.16858e-07
6.24577e-08
3.23775e-08
1.53107e-08
4.4706e-09
4088.49
4681.36
3965.6
3196.91
2574.69
2092.66
1716.88
1418.66
1177.7
980.074
816.148
679.11
563.989
467.043
385.363
316.622
258.909
210.623
170.395
137.048
109.558
87.0298
68.6859
53.8482
41.9294
32.4232
24.8964
18.9811
14.3673
10.7961
8.0533
5.96306
4.38262
3.19705
2.31475
1.66334
1.18624
0.839591
0.589736
0.411089
0.284377
0.195223
0.132996
0.0899104
0.0603176
0.0401545
0.0265263
0.0173886
0.0113108
0.0073005
0.0046756
0.00297123
0.00187344
0.00117202
0.000727461
0.000447967
0.000273671
0.000165859
9.97136e-05
5.9464e-05
3.51735e-05
2.06353e-05
1.20065e-05
6.92798e-06
3.96414e-06
2.24912e-06
1.26522e-06
7.05644e-07
3.90112e-07
2.13703e-07
1.15847e-07
6.19243e-08
3.21525e-08
1.51943e-08
4.45303e-09
1469.07
2590.61
2712
2471.95
2144.6
1826.3
1544.43
1302.49
1096.79
922.162
773.796
647.611
540.256
448.986
371.528
305.97
250.683
204.26
165.474
133.245
106.623
84.7718
66.9541
52.5251
40.9229
31.6611
24.3224
18.551
14.0469
10.5589
7.87867
5.83533
4.2898
3.13005
2.2667
1.62913
1.16204
0.822594
0.577883
0.402882
0.278736
0.191373
0.130387
0.0881561
0.0591465
0.0393785
0.0260159
0.0170555
0.011095
0.00716174
0.00458707
0.00291518
0.00183823
0.00115007
0.000713886
0.000439638
0.000268601
0.000162798
9.78804e-05
5.83751e-05
3.4532e-05
2.02607e-05
1.17895e-05
6.80328e-06
3.89311e-06
2.20905e-06
1.24281e-06
6.93198e-07
3.83267e-07
2.09986e-07
1.13877e-07
6.08739e-08
3.15916e-08
1.49188e-08
4.38388e-09
666.771
1501.61
1822.44
1837.86
1709.86
1528.67
1337.85
1156.37
991.416
844.835
716.193
604.17
507.176
423.609
351.956
290.821
238.935
195.143
158.4
127.765
102.387
81.5067
64.4463
50.6067
39.4619
30.5539
23.4876
17.9252
13.5804
10.2132
7.6241
5.64905
4.15437
3.03225
2.19655
1.57915
1.12668
0.797754
0.560556
0.390882
0.270485
0.185741
0.126571
0.0855891
0.0574326
0.0382427
0.0252688
0.0165677
0.0107789
0.00695852
0.00445739
0.00283307
0.00178663
0.00111791
0.00069399
0.000427429
0.000261169
0.000158309
9.51919e-05
5.6778e-05
3.3591e-05
1.97108e-05
1.1471e-05
6.62034e-06
3.78893e-06
2.15022e-06
1.20988e-06
6.74925e-07
3.73213e-07
2.04504e-07
1.1091e-07
5.92988e-08
3.07684e-08
1.45423e-08
4.24339e-09
363.697
928.177
1240.82
1350.65
1332.62
1245.7
1127.55
999.829
874.13
756.237
648.718
552.408
467.23
392.64
327.869
272.051
224.296
183.729
149.512
120.857
97.0324
77.3698
61.2626
48.167
37.6011
29.1419
22.4219
17.1253
12.9836
9.77061
7.29795
5.41024
3.98066
2.90673
2.10647
1.51495
1.08125
0.765823
0.538276
0.375446
0.259869
0.178492
0.121658
0.0822838
0.0552252
0.0367795
0.0243061
0.0159391
0.0103716
0.00669654
0.00429019
0.00272717
0.00172009
0.00107641
0.000668319
0.000411673
0.000251575
0.000152515
9.17203e-05
5.47152e-05
3.23754e-05
1.90005e-05
1.10593e-05
6.38384e-06
3.65422e-06
2.07414e-06
1.1673e-06
6.51302e-07
3.60233e-07
1.97423e-07
1.07087e-07
5.7255e-08
2.97081e-08
1.40561e-08
4.11936e-09
224.041
608.082
864.459
994.634
1028.41
998.807
932.271
847.17
755.272
663.703
576.55
495.993
423.032
357.957
300.626
250.649
207.494
170.556
139.205
112.815
90.7781
72.5242
57.5241
45.2961
35.4074
27.4745
21.1616
16.1783
12.2762
9.24551
6.91063
5.12641
3.77405
2.75735
1.9992
1.43845
1.02708
0.727741
0.511691
0.357023
0.247193
0.169835
0.115788
0.0783334
0.0525863
0.0350298
0.0231547
0.0151871
0.0098841
0.00638297
0.00409002
0.00260037
0.00164039
0.0010267
0.000637561
0.00039279
0.000240075
0.000145567
8.75571e-05
5.22407e-05
3.09169e-05
1.81479e-05
1.05651e-05
6.09979e-06
3.49239e-06
1.98275e-06
1.11612e-06
6.22905e-07
3.44623e-07
1.88944e-07
1.02549e-07
5.48392e-08
2.84568e-08
1.34612e-08
3.95033e-09
148.907
417.084
616.651
738.225
791.55
793.495
760.764
706.957
642.053
572.913
504.024
438.181
377.014
321.371
271.578
227.625
189.282
156.188
127.905
103.958
83.8633
67.1491
53.3653
42.0945
32.9557
25.6075
19.748
15.1144
11.4805
8.65415
6.47398
4.80613
3.5407
2.5885
1.87787
1.35188
0.965738
0.684588
0.481553
0.336126
0.232809
0.160007
0.109122
0.0738459
0.0495876
0.033041
0.0218455
0.0143318
0.00932954
0.00602615
0.00386218
0.00245601
0.00154962
0.000970083
0.000602515
0.00037127
0.000226966
0.000137645
8.28084e-05
4.94175e-05
2.92522e-05
1.71744e-05
1.00007e-05
5.77531e-06
3.30745e-06
1.87825e-06
1.05759e-06
5.90411e-07
3.2675e-07
1.79222e-07
9.73235e-08
5.2071e-08
2.70387e-08
1.27818e-08
3.73739e-09
103.866
296.055
449.065
553.098
609.842
627.264
615.275
583.201
538.731
487.717
434.367
381.574
331.225
284.476
241.955
203.922
170.385
141.179
116.031
94.6053
76.5308
61.4282
48.9249
38.6665
30.3242
23.5992
18.2246
13.966
10.6202
8.01391
6.00067
4.45857
3.28723
2.40492
1.74585
1.2576
0.898895
0.637537
0.448673
0.313316
0.217101
0.149269
0.101836
0.0689387
0.0463072
0.0308645
0.0204124
0.0133952
0.00872209
0.00563517
0.00361245
0.00229774
0.00145008
0.00090797
0.00056406
0.000347649
0.000212572
0.000128944
7.75912e-05
4.63147e-05
2.7422e-05
1.61039e-05
9.37968e-06
5.41813e-06
3.10373e-06
1.76306e-06
9.93057e-07
5.54564e-07
3.0701e-07
1.68436e-07
9.14711e-08
4.8979e-08
2.54647e-08
1.20376e-08
3.51457e-09
74.8013
215.482
332.549
418.117
470.999
494.591
494.517
476.882
447.279
410.353
369.719
328.055
287.249
248.566
212.794
180.363
151.447
126.03
103.975
85.0593
69.0123
55.539
44.338
35.1147
27.5903
21.5078
16.6348
12.7652
9.71929
7.34241
5.50356
4.0931
3.0204
2.21148
1.60659
1.15808
0.828279
0.587794
0.413889
0.289171
0.200464
0.13789
0.0941117
0.0637338
0.0428264
0.0285541
0.0188904
0.0124002
0.00807653
0.00521953
0.00334689
0.00212937
0.00134416
0.000841852
0.000523111
0.000322488
0.000197234
0.00011967
7.20282e-05
4.3005e-05
2.5469e-05
1.4961e-05
8.71648e-06
5.03647e-06
2.88596e-06
1.63987e-06
9.2398e-07
5.16172e-07
2.85857e-07
1.56873e-07
8.52212e-08
4.5662e-08
2.37448e-08
1.12517e-08
3.30712e-09
55.0587
159.716
249.485
318.483
364.749
389.448
395.65
387.231
368.113
341.82
311.29
278.836
246.193
214.605
184.906
157.616
133.008
111.175
92.0784
75.5884
61.5177
49.6441
39.7297
31.5348
24.827
19.3886
15.0202
11.5433
8.80073
6.65667
4.99517
3.71882
2.74681
2.01291
1.46351
1.05572
0.755592
0.536553
0.378032
0.264264
0.183292
0.126138
0.0861296
0.0583527
0.039226
0.0261633
0.0173148
0.0113697
0.00740769
0.00478873
0.00307154
0.00195473
0.00123426
0.000773224
0.000480593
0.000296353
0.000181297
0.000110029
6.62431e-05
3.95617e-05
2.34363e-05
1.37709e-05
8.02555e-06
4.6387e-06
2.65892e-06
1.51136e-06
8.51855e-07
4.76067e-07
2.63743e-07
1.44803e-07
7.87156e-08
4.21595e-08
2.19117e-08
1.04076e-08
3.07004e-09
41.1469
119.939
188.998
244.039
283.12
306.375
315.406
312.623
300.71
282.262
259.579
234.57
208.746
183.244
158.876
136.183
115.493
96.9621
80.6238
66.4191
54.2263
43.8844
35.2102
28.012
22.0996
17.2913
13.4184
10.3285
7.88581
5.97244
4.48709
3.34425
2.47264
1.81369
1.31981
0.952818
0.682447
0.484945
0.341889
0.23914
0.165959
0.114269
0.078063
0.0529117
0.0355836
0.0237435
0.0157193
0.0103257
0.00672982
0.00435193
0.00279225
0.00177752
0.00112269
0.000703532
0.000437398
0.000269793
0.000165094
0.000100223
6.03564e-05
3.60564e-05
2.13661e-05
1.25583e-05
7.32113e-06
4.23297e-06
2.4272e-06
1.38014e-06
7.78157e-07
4.35049e-07
2.41122e-07
1.3245e-07
7.20004e-08
3.85692e-08
2.00644e-08
9.49878e-09
2.78356e-09
31.0765
90.904
144.183
187.81
220.114
240.798
250.644
251.122
244.043
231.28
214.585
195.487
175.249
154.865
135.077
116.41
99.2036
83.6508
69.8293
57.7303
47.2833
38.3761
30.8711
24.6182
19.4639
15.2589
11.8625
9.14571
6.99322
5.30369
3.98969
2.97698
2.20346
1.61784
1.17837
0.851429
0.610308
0.434001
0.306182
0.214301
0.148809
0.102518
0.0700713
0.047518
0.0319709
0.021342
0.0141352
0.00928871
0.00605616
0.00391766
0.00251445
0.00160119
0.00101163
0.000634126
0.000394363
0.000243319
0.000148937
9.04408e-05
5.44813e-05
3.25563e-05
1.92979e-05
1.13463e-05
6.61672e-06
3.82698e-06
2.19515e-06
1.24867e-06
7.04319e-07
3.93915e-07
2.18417e-07
1.20023e-07
6.52534e-08
3.49811e-08
1.81974e-08
8.59764e-09
2.52562e-09
23.64
69.3342
110.521
144.95
171.267
189.032
198.579
200.792
196.878
188.171
175.982
161.508
145.777
129.626
113.707
98.5013
84.337
71.4186
59.8491
49.6532
40.7976
33.2083
26.7845
21.4107
16.9651
13.3266
10.3793
8.01572
6.13867
4.66222
3.51175
2.62353
1.94402
1.42883
1.0417
0.753353
0.540455
0.384624
0.271543
0.190184
0.132145
0.091091
0.0622954
0.0422666
0.0284515
0.0190013
0.0125903
0.00827687
0.00539852
0.00349352
0.00224301
0.00142881
0.000903015
0.000566219
0.00035224
0.000217394
0.000133108
8.08529e-05
4.87202e-05
2.91225e-05
1.72679e-05
1.01559e-05
5.9245e-06
3.42778e-06
1.96688e-06
1.11926e-06
6.31591e-07
3.53357e-07
1.96013e-07
1.07743e-07
5.86084e-08
3.14215e-08
1.63545e-08
7.76455e-09
2.3039e-09
18.0667
53.0968
84.9689
112.044
133.258
148.159
156.847
159.841
157.942
152.09
143.255
132.358
120.215
107.518
94.8202
82.5444
70.9937
60.3675
50.7792
42.2739
34.8439
28.4439
23.0022
18.4317
14.637
11.5212
8.98998
6.9547
5.33455
4.05743
3.06033
2.28915
1.69821
1.24951
0.911873
0.660076
0.473948
0.337565
0.238499
0.167158
0.116222
0.0801645
0.0548546
0.0372383
0.0250794
0.0167573
0.0111084
0.00730576
0.00476704
0.00308604
0.00198211
0.00126306
0.000798522
0.00050086
0.000311678
0.000192419
0.000117852
7.16075e-05
4.31622e-05
2.58081e-05
1.53074e-05
9.00576e-06
5.25527e-06
3.04164e-06
1.74594e-06
9.93889e-07
5.61042e-07
3.14018e-07
1.74248e-07
9.58055e-08
5.21489e-08
2.80079e-08
1.46038e-08
6.94682e-09
2.04376e-09
13.8445
40.7538
65.4199
86.6437
103.602
115.888
123.483
126.686
126.025
122.158
115.797
107.639
98.3254
88.4132
78.3623
68.5343
59.1974
50.5364
42.6648
35.6379
29.4651
24.1214
19.5577
15.7093
12.5028
9.86141
7.70933
5.97436
4.58997
3.49631
2.64075
1.97783
1.469
1.08206
0.790484
0.572755
0.411618
0.293416
0.207468
0.145516
0.101244
0.0698778
0.0478444
0.0324976
0.0218982
0.014639
0.00970871
0.00638802
0.00416994
0.00270056
0.00173517
0.00110609
0.000699525
0.00043891
0.000273214
0.000168725
0.000103371
6.28278e-05
3.78815e-05
2.26575e-05
1.34428e-05
7.91125e-06
4.61807e-06
2.67372e-06
1.53529e-06
8.74276e-07
4.93703e-07
2.7645e-07
1.53461e-07
8.4432e-08
4.59902e-08
2.47096e-08
1.28827e-08
6.13239e-09
1.7957e-09
10.6211
31.3058
50.38
66.9633
80.4255
90.4205
96.8783
99.9651
100.026
97.5218
92.9695
86.8941
79.7913
72.1032
64.2044
56.397
48.9118
41.9135
35.5092
29.7572
24.6769
20.2578
16.4673
13.2585
10.5755
8.35827
6.54656
5.08215
3.91084
2.98349
2.25657
1.69229
1.25845
0.928015
0.678665
0.492219
0.354065
0.252608
0.178757
0.125472
0.0873601
0.0603352
0.0413363
0.0280934
0.0189408
0.0126684
0.00840586
0.0055333
0.00361354
0.00234116
0.00150482
0.000959602
0.000607089
0.000381037
0.000237264
0.000146569
8.98242e-05
5.46103e-05
3.29365e-05
1.97056e-05
1.16949e-05
6.88468e-06
4.02006e-06
2.3282e-06
1.33733e-06
7.61815e-07
4.30365e-07
2.41072e-07
1.33894e-07
7.37094e-08
4.01717e-08
2.15715e-08
1.12418e-08
5.34759e-09
1.58386e-09
8.14727
24.0398
38.7668
51.6799
62.2995
70.3422
75.7208
78.5223
78.9718
77.3903
74.1522
69.6492
64.2608
58.3335
52.1676
46.0108
40.057
34.4488
29.2829
24.6162
20.473
16.8522
13.7334
11.0832
8.85955
7.01624
5.50574
4.28162
3.30017
2.52143
1.90978
1.43411
1.06777
0.788303
0.577111
0.418984
0.301669
0.215414
0.152563
0.107169
0.0746702
0.0516059
0.0353782
0.0240584
0.0162295
0.0108607
0.00720991
0.00474823
0.0031022
0.00201069
0.0012929
0.000824765
0.000521965
0.000327717
0.000204127
0.000126137
7.7325e-05
4.70247e-05
2.83694e-05
1.69779e-05
1.00789e-05
5.93505e-06
3.46658e-06
2.00826e-06
1.15389e-06
6.57519e-07
3.71578e-07
2.08224e-07
1.15692e-07
6.36893e-08
3.47165e-08
1.86749e-08
9.73806e-09
4.60121e-09
1.34678e-09
6.24262
18.436
29.7812
39.7995
48.1274
54.5385
58.9456
61.3899
62.0175
61.0514
58.7618
55.4393
51.3718
46.8281
42.0456
37.2243
32.524
28.0653
23.9328
20.1788
16.8295
13.8894
11.3466
9.1779
7.35217
5.83407
4.58658
3.57301
2.75845
2.11073
1.60097
1.2038
0.897399
0.663292
0.486118
0.353282
0.254605
0.18197
0.128984
0.0906771
0.0632261
0.0437269
0.0299962
0.0204109
0.0137767
0.00922422
0.00612661
0.0040367
0.00263848
0.00171084
0.00110052
0.000702294
0.00044461
0.000279239
0.000173985
0.000107543
6.59448e-05
4.01148e-05
2.42072e-05
1.44908e-05
8.60468e-06
5.06826e-06
2.96107e-06
1.7159e-06
9.86186e-07
5.62132e-07
3.17775e-07
1.7815e-07
9.90029e-08
5.45318e-08
2.97498e-08
1.59978e-08
8.35397e-09
3.93825e-09
1.14262e-09
4.77385
14.1088
22.824
30.5655
37.0592
42.1267
45.6895
47.7625
48.4402
47.8772
46.2681
43.8271
40.7714
37.3074
33.6207
29.8706
26.1867
22.669
19.3895
16.3948
13.7103
11.3436
9.28887
7.53015
6.04477
4.80599
3.78524
2.9538
2.28406
1.75037
1.32951
1.00101
0.747145
0.552878
0.405639
0.295096
0.212876
0.152283
0.108033
0.0760086
0.0530379
0.0367064
0.0251968
0.0171557
0.0115863
0.00776178
0.00515788
0.00340002
0.00222332
0.00144223
0.000928088
0.000592472
0.000375209
0.000235726
0.000146917
9.08367e-05
5.57156e-05
3.39009e-05
2.04625e-05
1.22521e-05
7.27704e-06
4.28725e-06
2.50536e-06
1.45218e-06
8.34811e-07
4.75973e-07
2.69128e-07
1.50905e-07
8.39063e-08
4.62459e-08
2.52485e-08
1.35512e-08
7.07305e-09
3.35322e-09
9.65903e-10
3.64093
10.7672
17.4396
23.3964
28.4314
32.4059
35.2527
36.973
37.6272
37.3226
36.1987
34.413
32.1282
29.5013
26.6764
23.7785
20.9114
18.1567
15.5744
13.2046
11.0708
9.18195
7.53595
6.12228
4.92457
3.92282
3.09518
2.41939
1.87378
1.43809
1.09384
0.824652
0.616276
0.456566
0.335342
0.244207
0.176336
0.126258
0.089647
0.0631234
0.0440799
0.0305284
0.0209698
0.0142866
0.00965419
0.00647097
0.00430229
0.00283736
0.0018562
0.00120458
0.000775452
0.000495206
0.000313714
0.000197151
0.000122909
7.60133e-05
4.6635e-05
2.83823e-05
1.71353e-05
1.0262e-05
6.09633e-06
3.59237e-06
2.09972e-06
1.21729e-06
6.99925e-07
3.99142e-07
2.25729e-07
1.26606e-07
7.04078e-08
3.88172e-08
2.11643e-08
1.13724e-08
5.94909e-09
2.82088e-09
8.27604e-10
2.76785
8.18966
13.2786
17.8414
21.7233
24.8177
27.069
28.4716
29.0639
28.9202
28.1403
26.8395
25.1389
23.1574
21.0054
18.7805
16.5645
14.4229
12.4049
10.5444
8.86209
7.36713
6.05975
4.93323
3.97593
3.17302
2.50796
1.96361
1.52316
1.17071
0.891695
0.673129
0.503658
0.373565
0.274678
0.200235
0.144724
0.103718
0.073706
0.0519406
0.0362983
0.0251569
0.0172917
0.011788
0.00797044
0.0053453
0.00355567
0.00234608
0.00153547
0.000996844
0.000641959
0.000410097
0.000259878
0.000163366
0.000101873
6.30189e-05
3.86714e-05
2.35404e-05
1.42148e-05
8.51458e-06
5.0591e-06
2.98168e-06
1.74304e-06
1.01065e-06
5.81219e-07
3.31511e-07
1.87533e-07
1.05227e-07
5.85239e-08
3.22689e-08
1.75926e-08
9.47683e-09
4.94916e-09
2.34341e-09
7.05768e-10
2.09624
6.2053
10.0703
13.5485
16.5244
18.9165
20.6802
21.8069
22.3209
22.2735
21.736
20.7924
19.5325
18.0456
16.4158
14.7183
13.017
11.364
9.79877
8.34942
7.03358
5.86002
4.83025
3.94016
3.1816
2.54367
2.01394
1.57936
1.22696
0.944407
0.720308
0.54445
0.407871
0.302866
0.222935
0.162681
0.117695
0.0844239
0.0600462
0.0423486
0.0296174
0.0205413
0.0141285
0.00963764
0.00652025
0.00437511
0.00291177
0.00192211
0.00125853
0.000817375
0.000526572
0.000336496
0.000213301
0.000134122
8.36579e-05
5.17621e-05
3.17699e-05
1.93427e-05
1.16819e-05
6.99839e-06
4.15876e-06
2.45135e-06
1.43319e-06
8.31085e-07
4.78e-07
2.7268e-07
1.54286e-07
8.65548e-08
4.81602e-08
2.65547e-08
1.45193e-08
7.81613e-09
4.0535e-09
1.93071e-09
5.52102e-10
1.58095
4.68181
7.60386
10.2419
12.5101
14.3466
15.7161
16.6095
17.042
17.049
16.6812
15.9997
15.0706
13.9608
12.7336
11.4465
10.1492
8.88219
7.67705
6.55654
5.53542
4.62156
3.8171
3.11969
2.52369
2.02119
1.60291
1.259
0.979537
0.755024
0.576634
0.436404
0.32732
0.243329
0.179302
0.130974
0.0948463
0.0680958
0.0484741
0.0342146
0.0239468
0.0166201
0.0114391
0.00780793
0.00528543
0.00354844
0.00236277
0.00156042
0.00102214
0.000664101
0.000427978
0.000273577
0.000173466
0.000109101
6.80662e-05
4.2123e-05
2.58581e-05
1.57456e-05
9.51063e-06
5.69824e-06
3.38649e-06
1.99628e-06
1.16721e-06
6.76901e-07
3.89355e-07
2.22127e-07
1.25649e-07
7.04736e-08
3.92069e-08
2.16373e-08
1.18159e-08
6.3563e-09
3.31151e-09
1.57398e-09
4.47828e-10
1.18691
3.51611
5.71453
7.70485
9.42341
10.8237
11.8783
12.5787
12.934
12.9688
12.719
12.2289
11.5471
10.723
9.80434
8.83461
7.85181
6.88744
5.96627
5.10649
4.3202
3.6142
2.99083
2.44889
1.98453
1.59205
1.2646
0.994784
0.775093
0.598262
0.457507
0.346678
0.260328
0.193743
0.142915
0.104499
0.0757457
0.0544311
0.0387796
0.0273937
0.0191872
0.0133261
0.00917799
0.00626842
0.00424571
0.00285193
0.00189992
0.00125531
0.000822612
0.000534662
0.000344676
0.000220393
0.00013978
8.79345e-05
5.48711e-05
3.39628e-05
2.08515e-05
1.26984e-05
7.67069e-06
4.59613e-06
2.73162e-06
1.61031e-06
9.41554e-07
5.46049e-07
3.1411e-07
1.79175e-07
1.01344e-07
5.68511e-08
3.16224e-08
1.74357e-08
9.51525e-09
5.12368e-09
2.69685e-09
1.2908e-09
3.9624e-10
0.886735
2.62768
4.2732
5.76662
7.06098
8.12152
8.92708
9.47025
9.75659
9.80284
9.63462
9.28379
8.7858
8.17719
7.49345
6.76736
6.02774
5.2988
4.59974
3.94491
3.34407
2.80292
2.32373
1.90602
1.54721
1.24322
0.989045
0.779169
0.607949
0.46988
0.359789
0.272962
0.20521
0.15289
0.112897
0.0826315
0.0599513
0.0431193
0.0307461
0.021736
0.0152357
0.0105891
0.00729767
0.00498721
0.00337983
0.00227148
0.00151396
0.00100073
0.000656047
0.000426553
0.000275069
0.000175933
0.000111609
7.02262e-05
4.38285e-05
2.71314e-05
1.6659e-05
1.01459e-05
6.12907e-06
3.6725e-06
2.18264e-06
1.28665e-06
7.52296e-07
4.36272e-07
2.50915e-07
1.43123e-07
8.09723e-08
4.54348e-08
2.52726e-08
1.39266e-08
7.62405e-09
4.12924e-09
2.17548e-09
1.04603e-09
3.07333e-10
0.659068
1.95356
3.17862
4.29286
5.2618
6.05959
6.67014
7.08727
7.31423
7.3625
7.25018
7.00018
6.63825
6.19119
5.68529
5.14502
4.59208
4.04487
3.51816
3.0231
2.56744
2.15585
1.7904
1.47103
1.19604
0.962541
0.766891
0.605019
0.472711
0.365831
0.280467
0.213035
0.160338
0.119587
0.088396
0.0647614
0.0470293
0.0338548
0.02416
0.0170932
0.0119901
0.00833907
0.00575072
0.00393238
0.00266645
0.00179295
0.00119557
0.000790613
0.000518497
0.000337234
0.000217534
0.000139169
8.83054e-05
5.5573e-05
3.4688e-05
2.14752e-05
1.31869e-05
8.03149e-06
4.85177e-06
2.90706e-06
1.72764e-06
1.01834e-06
5.9536e-07
3.4519e-07
1.98504e-07
1.13224e-07
6.40405e-08
3.59382e-08
2.00052e-08
1.10278e-08
6.02043e-09
3.26431e-09
1.70131e-09
8.04554e-10
2.42573e-10
0.487213
1.4445
2.35145
3.17796
3.89879
4.49489
4.95411
5.27147
5.4488
5.49394
5.41965
5.24233
4.98061
4.65403
4.28193
3.88243
3.47178
3.06381
2.66977
2.29823
1.95527
1.64463
1.36811
1.12587
0.916817
0.73893
0.589576
0.465771
0.364395
0.282361
0.216736
0.164817
0.124184
0.0927193
0.0686044
0.0503094
0.0365674
0.0263462
0.0188168
0.0133231
0.0093523
0.00650886
0.00449142
0.00307306
0.00208489
0.0014026
0.000935704
0.00061902
0.000406111
0.000264221
0.000170484
0.000109094
6.92349e-05
4.35777e-05
2.72035e-05
1.68426e-05
1.03425e-05
6.29902e-06
3.80502e-06
2.27967e-06
1.35465e-06
7.98377e-07
4.66669e-07
2.70526e-07
1.55555e-07
8.86963e-08
5.01501e-08
2.81254e-08
1.56476e-08
8.6152e-09
4.69122e-09
2.50696e-09
1.31714e-09
6.41009e-10
2.12938e-10
0.358151
1.06208
1.72966
2.33907
2.87196
3.31434
3.65715
3.89646
4.03323
4.07281
4.02419
3.89903
3.71073
3.47349
3.20143
2.9079
2.60493
2.30286
2.01015
1.73335
1.47713
1.24447
1.03686
0.85458
0.69693
0.56251
0.449432
0.355526
0.2785
0.216067
0.166044
0.12641
0.0953482
0.0712625
0.0527798
0.0387409
0.0281838
0.020323
0.0145265
0.0102931
0.00723046
0.00503547
0.00347686
0.00238026
0.00161572
0.00108749
0.000725806
0.000480349
0.000315244
0.000205164
0.000132412
8.47488e-05
5.37933e-05
3.38624e-05
2.11401e-05
1.3089e-05
8.03735e-06
4.89481e-06
2.95649e-06
1.77107e-06
1.05224e-06
6.20036e-07
3.62344e-07
2.10038e-07
1.20724e-07
6.88031e-08
3.88952e-08
2.18031e-08
1.21265e-08
6.68669e-09
3.63531e-09
1.92303e-09
1.0131e-09
4.89537e-10
1.40495e-10
0.261752
0.776365
1.26483
1.71142
2.10286
2.42893
2.68295
2.86185
2.9661
2.99935
2.96788
2.87996
2.74521
2.57384
2.37613
2.16183
1.93978
1.71765
1.50176
1.29703
1.10704
0.934104
0.779436
0.643344
0.525403
0.424646
0.33973
0.269088
0.211048
0.16393
0.12612
0.0961206
0.0725773
0.0542979
0.0402535
0.0295734
0.0215331
0.01554
0.0111164
0.00788258
0.005541
0.00386138
0.00266779
0.00182739
0.00124107
0.000835723
0.000558006
0.000369435
0.000242533
0.000157887
0.000101923
6.52465e-05
4.142e-05
2.60757e-05
1.62796e-05
1.00794e-05
6.18901e-06
3.76877e-06
2.27603e-06
1.36319e-06
8.09716e-07
4.7701e-07
2.78695e-07
1.61496e-07
9.27893e-08
5.28602e-08
2.98662e-08
1.67562e-08
9.31109e-09
5.13575e-09
2.78027e-09
1.48837e-09
7.7382e-10
3.52335e-10
8.8907e-11
0.190159
0.564115
0.91935
1.24459
1.53026
1.76897
1.9558
2.08842
2.16703
2.19408
2.17396
2.11252
2.01659
1.89353
1.75072
1.59526
1.4336
1.27138
1.11327
0.96295
0.823111
0.695534
0.581192
0.480377
0.39284
0.31792
0.254668
0.201961
0.158587
0.123321
0.0949822
0.0724655
0.0547716
0.0410166
0.0304357
0.0223802
0.0163094
0.0117796
0.00843283
0.00598398
0.00420924
0.00293517
0.00202907
0.00139064
0.000944922
0.000636587
0.000425216
0.000281621
0.00018494
0.000120425
7.77561e-05
4.97838e-05
3.16073e-05
1.98993e-05
1.24236e-05
7.69166e-06
4.72241e-06
2.87527e-06
1.7361e-06
1.03956e-06
6.1731e-07
3.63532e-07
2.12324e-07
1.22976e-07
7.06317e-08
4.02266e-08
2.27174e-08
1.27137e-08
7.03792e-09
3.88886e-09
2.1184e-09
1.15799e-09
5.91616e-10
2.73307e-10
7.4638e-11
0.137304
0.407382
0.664122
0.899478
1.1066
1.28015
1.41656
1.51407
1.57273
1.59419
1.58151
1.53879
1.47088
1.38302
1.28051
1.16846
1.05155
0.933897
0.818922
0.709346
0.607181
0.513775
0.42989
0.355788
0.291327
0.236061
0.189325
0.150318
0.118169
0.0919924
0.0709276
0.0541686
0.0409825
0.0307193
0.0228153
0.0167912
0.0122465
0.00885208
0.00634177
0.0045033
0.00316979
0.00221171
0.00152982
0.00104903
0.000713147
0.000480651
0.000321182
0.000212791
0.00013978
9.10404e-05
5.87938e-05
3.7648e-05
2.39042e-05
1.505e-05
9.3958e-06
5.81663e-06
3.57073e-06
2.17365e-06
1.31214e-06
7.85487e-07
4.66293e-07
2.74501e-07
1.60243e-07
9.27651e-08
5.32575e-08
3.03052e-08
1.71108e-08
9.55476e-09
5.29161e-09
2.91637e-09
1.60142e-09
8.50654e-10
4.12704e-10
1.95376e-10
6.58571e-11
0.0985216
0.292355
0.476736
0.645951
0.79512
0.920433
1.0193
1.09043
1.13377
1.15045
1.14258
1.11304
1.06523
1.00287
0.929748
0.849512
0.765535
0.68079
0.597773
0.518475
0.444383
0.376508
0.315436
0.261388
0.214292
0.173847
0.139589
0.110954
0.0873194
0.0680485
0.0525201
0.04015
0.0304052
0.0228117
0.0169572
0.0124903
0.00911695
0.00659498
0.00472816
0.00335977
0.00236639
0.00165213
0.0011434
0.000784455
0.000533534
0.000359745
0.000240479
0.000159374
0.000104719
6.82198e-05
4.40634e-05
2.82187e-05
1.79181e-05
1.12811e-05
7.04239e-06
4.35922e-06
2.67558e-06
1.62839e-06
9.82724e-07
5.88103e-07
3.48996e-07
2.05369e-07
1.19818e-07
6.93003e-08
3.97568e-08
2.26076e-08
1.27477e-08
7.1411e-09
3.97118e-09
2.16121e-09
1.17226e-09
6.11373e-10
3.00747e-10
1.33909e-10
3.95142e-11
0.0702441
0.20847
0.340033
0.460899
0.567614
0.657467
0.728604
0.78007
0.811799
0.82454
0.819745
0.799417
0.765951
0.721963
0.670129
0.613051
0.553136
0.492518
0.433001
0.376029
0.322692
0.273738
0.229612
0.190495
0.156354
0.126987
0.102077
0.0812244
0.0639894
0.049918
0.0385648
0.0295096
0.0223678
0.0167964
0.0124963
0.00921197
0.00672924
0.00487137
0.0034949
0.00248508
0.00175141
0.00122348
0.000847204
0.000581528
0.000395695
0.000266912
0.000178486
0.000118325
7.77664e-05
5.06712e-05
3.27333e-05
2.09645e-05
1.33122e-05
8.381e-06
5.2315e-06
3.23778e-06
1.98685e-06
1.20891e-06
7.29367e-07
4.36327e-07
2.58823e-07
1.52232e-07
8.8783e-08
5.13202e-08
2.94271e-08
1.67409e-08
9.43402e-09
5.27844e-09
2.93064e-09
1.60911e-09
8.64923e-10
4.63195e-10
2.44769e-10
1.1964e-10
6.58571e-12
0.0497591
0.147692
0.240954
0.326714
0.402541
0.46652
0.51733
0.55428
0.577295
0.586876
0.584017
0.570108
0.546817
0.515975
0.479467
0.43913
0.396673
0.353615
0.311247
0.270612
0.232498
0.197455
0.165814
0.137721
0.113162
0.0920073
0.0740368
0.0589731
0.0465062
0.0363147
0.0280819
0.0215079
0.016317
0.0122632
0.0091311
0.00673654
0.00492467
0.00356758
0.00256125
0.00182237
0.00128513
0.000898262
0.000622328
0.000427376
0.000290929
0.000196319
0.000131324
8.70841e-05
5.72475e-05
3.7308e-05
2.41036e-05
1.54384e-05
9.80327e-06
6.17148e-06
3.85184e-06
2.38344e-06
1.46224e-06
8.89448e-07
5.36425e-07
3.20756e-07
1.9018e-07
1.1179e-07
6.51666e-08
3.76582e-08
2.15846e-08
1.22779e-08
6.92158e-09
3.86471e-09
2.12828e-09
1.17884e-09
6.60766e-10
3.66604e-10
1.77814e-10
8.8907e-11
1.53666e-11
0.0350171
0.103947
0.169621
0.230063
0.283575
0.328811
0.364839
0.39116
0.407707
0.414812
0.413153
0.403688
0.387573
0.366083
0.340535
0.312218
0.282336
0.251965
0.22202
0.193246
0.16621
0.141312
0.118796
0.0987734
0.0812449
0.0661247
0.053263
0.0424677
0.0335222
0.0262005
0.020279
0.0155453
0.0118036
0.00887835
0.006616
0.00488472
0.00357352
0.00259056
0.00186105
0.00132499
0.00093493
0.00065384
0.000453218
0.000311385
0.000212059
0.00014315
9.57879e-05
6.35364e-05
4.17765e-05
2.72299e-05
1.75942e-05
1.12696e-05
7.15594e-06
4.50454e-06
2.81101e-06
1.73906e-06
1.06663e-06
6.48583e-07
3.90981e-07
2.33677e-07
1.3847e-07
8.13598e-08
4.74039e-08
2.73878e-08
1.56608e-08
8.89948e-09
5.03148e-09
2.79892e-09
1.53996e-09
8.39677e-10
4.63195e-10
2.63428e-10
1.30616e-10
4.50023e-11
2.74404e-11
0.024479
0.0726719
0.118609
0.16092
0.198424
0.230183
0.255543
0.274148
0.285942
0.291144
0.290214
0.283808
0.272724
0.257844
0.240082
0.220337
0.19945
0.178176
0.157163
0.136935
0.117899
0.100341
0.0844388
0.0702776
0.0578634
0.0471405
0.0380078
0.0303328
0.0239653
0.0187477
0.0145233
0.0111425
0.00846744
0.00637403
0.00475345
0.00351214
0.00257118
0.00186519
0.0013408
0.000955172
0.000674361
0.000471861
0.000327236
0.000224929
0.000153242
0.000103482
6.92653e-05
4.59554e-05
3.02226e-05
1.97018e-05
1.27311e-05
8.15477e-06
5.17787e-06
3.25902e-06
2.03339e-06
1.25769e-06
7.71155e-07
4.68739e-07
2.82455e-07
1.68729e-07
9.99249e-08
5.8683e-08
3.41688e-08
1.97286e-08
1.1278e-08
6.39143e-09
3.60458e-09
2.01852e-09
1.12506e-09
6.06982e-10
3.05138e-10
1.69033e-10
9.11023e-11
2.74404e-11
2.305e-11
0.0169973
0.0504652
0.0823798
0.111796
0.137898
0.160038
0.177758
0.190809
0.199143
0.202906
0.202409
0.198099
0.190521
0.180283
0.168014
0.154339
0.13984
0.125044
0.110403
0.0962866
0.0829816
0.0706916
0.0595455
0.0496063
0.0408819
0.0333368
0.0269027
0.0214894
0.0169932
0.0133049
0.0103154
0.00792058
0.00602374
0.00453794
0.00338667
0.00250404
0.00183442
0.00133158
0.000957807
0.000682728
0.000482277
0.000337629
0.000234256
0.000161087
0.000109789
7.4164e-05
4.96556e-05
3.29527e-05
2.16753e-05
1.41316e-05
9.13225e-06
5.84959e-06
3.71394e-06
2.33729e-06
1.45802e-06
9.01543e-07
5.52608e-07
3.35769e-07
2.02245e-07
1.20752e-07
7.14604e-08
4.19125e-08
2.4388e-08
1.4055e-08
8.04334e-09
4.53645e-09
2.54208e-09
1.43349e-09
8.1553e-10
4.60999e-10
2.42573e-10
1.18543e-10
6.69547e-11
4.06118e-11
9.87856e-12
0.0117223
0.0348063
0.0568273
0.0771377
0.095178
0.110502
0.122793
0.131877
0.137718
0.14041
0.140163
0.137278
0.132129
0.12513
0.116712
0.107304
0.0973092
0.0870907
0.0769628
0.0671834
0.0579526
0.0494144
0.0416607
0.0347379
0.0286539
0.0233861
0.0188888
0.0151008
0.0119512
0.00936484
0.00726644
0.00558377
0.00424976
0.00320386
0.00239272
0.00177034
0.00129777
0.000942624
0.000678431
0.00048386
0.000341978
0.000239527
0.000166265
0.00011438
7.79846e-05
5.26966e-05
3.5292e-05
2.34258e-05
1.54113e-05
1.00488e-05
6.49412e-06
4.15968e-06
2.6408e-06
1.66169e-06
1.03637e-06
6.40656e-07
3.92549e-07
2.38424e-07
1.43535e-07
8.56581e-08
5.0655e-08
2.96917e-08
1.72534e-08
9.92246e-09
5.65602e-09
3.1787e-09
1.77924e-09
9.98832e-10
5.56492e-10
3.16114e-10
1.86595e-10
7.90285e-11
5.70761e-11
4.60999e-11
1.53666e-11
0.00802894
0.0238417
0.0389314
0.0528574
0.0652381
0.0757684
0.0842319
0.0905069
0.0945662
0.0964715
0.0963627
0.0944439
0.0909664
0.0862119
0.0804747
0.074047
0.0672046
0.0601975
0.0532419
0.0465161
0.0401591
0.0342716
0.0289186
0.0241336
0.0199235
0.0162741
0.0131553
0.0105256
0.0083368
0.00653768
0.00507661
0.00390392
0.00297337
0.00224316
0.00167639
0.00124114
0.000910403
0.000661662
0.000476488
0.000340018
0.000240436
0.000168486
0.000117004
8.05232e-05
5.49202e-05
3.71227e-05
2.48683e-05
1.65103e-05
1.08634e-05
7.08403e-06
4.57826e-06
2.93241e-06
1.86149e-06
1.17113e-06
7.30242e-07
4.51296e-07
2.76425e-07
1.67816e-07
1.0096e-07
6.01966e-08
3.55837e-08
2.08405e-08
1.20848e-08
6.94353e-09
3.93276e-09
2.2095e-09
1.22714e-09
6.78328e-10
3.60019e-10
1.73424e-10
9.98832e-11
6.36618e-11
4.71976e-11
2.19523e-11
1.4269e-11
0.00546129
0.0162183
0.0264866
0.0359682
0.0444048
0.0515893
0.0573742
0.0616756
0.0644737
0.0658084
0.0657728
0.0645035
0.0621696
0.058961
0.0550769
0.0507153
0.046064
0.0412931
0.0365505
0.0319586
0.0276131
0.0235837
0.0199159
0.0166337
0.0137428
0.0112344
0.00908835
0.00727713
0.00576819
0.00452671
0.00351759
0.00270693
0.00206311
0.00155749
0.00116471
0.000862855
0.000633302