/*--------------------------------*- C++ -*----------------------------------*\
  =========                 |
  \\      /  F ield         | OpenFOAM: The Open Source CFD Toolbox
   \\    /   O peration     | Website:  https://openfoam.org
    \\  /    A nd           | Version:  10
     \\/     M anipulation  |
\*---------------------------------------------------------------------------*/
FoamFile
{
    format      ascii;
    class       volScalarField;
    location    "309";
    object      T;
}
// * * * * * * * * * * * * * * * * * * * * * * * * * * * * * * * * * * * * * //

dimensions      [0 0 0 1 0 0 0];

internalField   nonuniform List<scalar> 
11250
(
249.828
167.514
139.29
126.849
120.052
115.734
112.712
110.457
108.7
107.29
106.134
105.173
104.364
103.679
103.096
102.6
102.177
101.816
101.51
101.249
101.029
100.844
100.689
100.559
100.452
100.363
100.29
100.23
100.182
100.143
100.111
100.086
100.067
100.051
100.039
100.029
100.022
100.017
100.012
100.009
100.007
100.005
100.004
100.003
100.002
100.001
100.001
100.001
100
100
100
100
100
100
100
100
100
100
100
100
100
100
100
100
100
100
100
100
100
100
100
100
100
100
100
331.456
248.459
202.098
174.92
157.695
145.933
137.396
130.902
125.786
121.651
118.245
115.4
113.003
110.969
109.237
107.759
106.499
105.423
104.509
103.732
103.076
102.523
102.059
101.672
101.35
101.084
100.866
100.688
100.543
100.427
100.333
100.258
100.199
100.153
100.116
100.088
100.066
100.05
100.037
100.027
100.02
100.015
100.011
100.008
100.005
100.004
100.003
100.002
100.001
100.001
100.001
100
100
100
100
100
100
100
100
100
100
100
100
100
100
100
100
100
100
100
100
100
100
100
100
359.002
292.79
245.761
213.086
189.938
172.981
160.12
150.06
141.989
135.385
129.897
125.287
121.383
118.061
115.224
112.799
110.726
108.957
107.449
106.169
105.085
104.172
103.406
102.766
102.234
101.795
101.434
101.139
100.9
100.707
100.552
100.428
100.33
100.253
100.193
100.146
100.11
100.082
100.061
100.045
100.033
100.024
100.018
100.013
100.009
100.006
100.005
100.003
100.002
100.002
100.001
100.001
100
100
100
100
100
100
100
100
100
100
100
100
100
100
100
100
100
100
100
100
100
100
100
370.777
317.975
275.129
241.809
216.093
196.054
180.18
167.379
156.888
148.17
140.846
134.643
129.358
124.838
120.966
117.646
114.802
112.37
110.295
108.53
107.036
105.774
104.715
103.831
103.095
102.487
101.988
101.579
101.248
100.98
100.765
100.594
100.458
100.351
100.268
100.203
100.153
100.114
100.085
100.063
100.046
100.034
100.024
100.018
100.013
100.009
100.006
100.004
100.003
100.002
100.001
100.001
100.001
100
100
100
100
100
100
100
100
100
100
100
100
100
100
100
100
100
100
100
100
100
100
376.925
333.256
295.053
263.044
236.715
215.131
197.357
182.599
170.237
159.796
150.916
143.324
136.81
131.209
126.388
122.241
118.678
115.625
113.015
110.792
108.906
107.313
105.975
104.856
103.925
103.155
102.522
102.005
101.584
101.244
100.972
100.754
100.582
100.446
100.34
100.258
100.194
100.145
100.108
100.08
100.059
100.043
100.031
100.022
100.016
100.011
100.008
100.006
100.004
100.003
100.002
100.001
100.001
100.001
100
100
100
100
100
100
100
100
100
100
100
100
100
100
100
100
100
100
100
100
100
380.613
343.136
308.889
278.745
252.773
230.615
211.76
195.691
181.951
170.16
160.006
151.24
143.66
137.103
131.432
126.535
122.315
118.688
115.581
112.931
110.679
108.775
107.173
105.833
104.717
103.793
103.033
102.411
101.906
101.498
101.17
100.908
100.701
100.538
100.41
100.311
100.234
100.175
100.13
100.096
100.071
100.052
100.037
100.027
100.019
100.014
100.01
100.007
100.005
100.003
100.002
100.002
100.001
100.001
100
100
100
100
100
100
100
100
100
100
100
100
100
100
100
100
100
100
100
100
100
383.032
349.865
318.75
290.45
265.237
243.056
223.67
206.775
192.063
179.247
168.078
158.344
149.862
142.478
136.06
130.495
125.683
121.536
117.975
114.932
112.342
110.149
108.301
106.754
105.464
104.396
103.517
102.797
102.211
101.738
101.358
101.055
100.814
100.625
100.476
100.361
100.272
100.203
100.151
100.112
100.082
100.06
100.043
100.031
100.022
100.016
100.011
100.008
100.006
100.004
100.003
100.002
100.001
100.001
100.001
100
100
100
100
100
100
100
100
100
100
100
100
100
100
100
100
100
100
100
100
384.71
354.634
325.948
299.272
274.928
253.004
233.431
216.054
200.679
187.107
175.15
164.634
155.402
147.316
140.253
134.102
128.765
124.153
120.183
116.782
113.883
111.425
109.352
107.613
106.163
104.961
103.97
103.159
102.498
101.964
101.535
101.193
100.921
100.707
100.539
100.408
100.308
100.23
100.171
100.127
100.093
100.068
100.049
100.035
100.025
100.018
100.013
100.009
100.006
100.004
100.003
100.002
100.001
100.001
100.001
100
100
100
100
100
100
100
100
100
100
100
100
100
100
100
100
100
100
100
100
385.921
358.115
331.307
305.994
282.49
260.946
241.387
223.756
207.947
193.832
181.273
170.136
160.291
151.618
144.006
137.349
131.554
126.53
122.196
118.475
115.298
112.6
110.321
108.407
106.809
105.484
104.391
103.495
102.765
102.175
101.7
101.321
101.02
100.783
100.597
100.453
100.341
100.255
100.19
100.14
100.103
100.075
100.055
100.039
100.028
100.02
100.014
100.01
100.007
100.005
100.003
100.002
100.002
100.001
100.001
100
100
100
100
100
100
100
100
100
100
100
100
100
100
100
100
100
100
100
100
386.817
360.713
335.362
311.167
288.417
267.284
247.847
230.111
214.031
199.532
186.522
174.899
164.56
155.403
147.328
140.241
134.049
128.667
124.012
120.008
116.583
113.669
111.205
109.133
107.402
105.964
104.778
103.805
103.012
102.37
101.853
101.44
101.113
100.854
100.652
100.494
100.372
100.279
100.207
100.153
100.113
100.082
100.06
100.043
100.031
100.022
100.016
100.011
100.008
100.005
100.004
100.002
100.002
100.001
100.001
100.001
100
100
100
100
100
100
100
100
100
100
100
100
100
100
100
100
100
100
100
387.493
362.683
338.468
315.181
293.081
272.346
253.081
235.33
219.09
204.327
190.982
178.983
168.251
158.699
150.241
142.79
136.26
130.569
125.635
121.383
117.739
114.634
112.005
109.792
107.94
106.402
105.131
104.087
103.237
102.548
101.993
101.55
101.197
100.92
100.702
100.532
100.401
100.3
100.224
100.165
100.121
100.089
100.064
100.046
100.033
100.024
100.017
100.012
100.008
100.006
100.004
100.003
100.002
100.001
100.001
100.001
100
100
100
100
100
100
100
100
100
100
100
100
100
100
100
100
100
100
100
388.01
364.197
340.871
318.316
296.765
276.392
257.314
239.6
223.275
208.333
194.744
182.458
171.414
161.543
152.77
145.015
138.2
132.245
127.071
122.604
118.768
115.496
112.721
110.383
108.425
106.796
105.449
104.343
103.441
102.709
102.12
101.649
101.275
100.979
100.747
100.567
100.427
100.32
100.238
100.176
100.13
100.095
100.069
100.049
100.035
100.025
100.018
100.013
100.009
100.006
100.004
100.003
100.002
100.001
100.001
100.001
100
100
100
100
100
100
100
100
100
100
100
100
100
100
100
100
100
100
100
388.41
365.37
342.743
320.777
299.682
279.626
260.732
243.082
226.72
211.661
197.895
185.391
174.104
163.977
154.946
146.941
139.887
133.709
128.331
123.678
119.677
116.259
113.357
110.909
108.857
107.148
105.734
104.572
103.624
102.854
102.235
101.738
101.344
101.033
100.789
100.598
100.451
100.338
100.252
100.186
100.137
100.1
100.073
100.052
100.037
100.027
100.019
100.013
100.009
100.006
100.004
100.003
100.002
100.001
100.001
100.001
100
100
100
100
100
100
100
100
100
100
100
100
100
100
100
100
100
100
100
388.72
366.284
344.209
322.715
301.997
282.213
263.489
245.914
229.545
214.412
200.519
187.851
176.374
166.044
156.805
148.594
141.341
134.976
129.425
124.614
120.472
116.928
113.916
111.373
109.239
107.46
105.987
104.776
103.787
102.984
102.337
101.819
101.406
101.081
100.826
100.626
100.472
100.354
100.264
100.195
100.143
100.105
100.076
100.055
100.039
100.028
100.02
100.014
100.01
100.007
100.005
100.003
100.002
100.001
100.001
100.001
100
100
100
100
100
100
100
100
100
100
100
100
100
100
100
100
100
100
100
388.964
367
345.361
324.246
303.835
284.281
265.708
248.21
231.852
216.674
202.692
189.9
178.277
167.787
158.38
150.001
142.585
136.064
130.368
125.424
121.162
117.511
114.404
111.778
109.573
107.734
106.21
104.956
103.931
103.098
102.427
101.889
101.462
101.124
100.858
100.652
100.491
100.368
100.274
100.203
100.149
100.109
100.079
100.057
100.041
100.029
100.021
100.014
100.01
100.007
100.005
100.003
100.002
100.002
100.001
100.001
100
100
100
100
100
100
100
100
100
100
100
100
100
100
100
100
100
100
100
389.154
367.563
346.268
325.457
305.296
285.933
267.491
250.066
233.729
218.526
204.481
191.597
179.862
169.245
159.705
151.19
143.64
136.991
131.174
126.119
121.755
118.014
114.826
112.13
109.864
107.973
106.404
105.113
104.057
103.199
102.507
101.952
101.51
101.161
100.887
100.674
100.508
100.381
100.284
100.21
100.154
100.113
100.082
100.059
100.042
100.03
100.021
100.015
100.01
100.007
100.005
100.003
100.002
100.002
100.001
100.001
100
100
100
100
100
100
100
100
100
100
100
100
100
100
100
100
100
100
100
389.304
368.006
346.984
326.414
306.456
287.252
268.921
251.563
235.25
220.035
205.946
192.995
181.174
170.458
160.811
152.187
144.529
137.775
131.858
126.71
122.262
118.444
115.189
112.433
110.115
108.179
106.572
105.249
104.166
103.286
102.576
102.006
101.553
101.194
100.913
100.693
100.523
100.392
100.292
100.216
100.159
100.116
100.084
100.061
100.044
100.031
100.022
100.015
100.011
100.008
100.005
100.004
100.002
100.002
100.001
100.001
100
100
100
100
100
100
100
100
100
100
100
100
100
100
100
100
100
100
100
389.422
368.354
347.549
327.172
307.377
288.302
270.065
252.765
236.478
221.259
207.141
194.14
182.253
171.46
161.73
153.018
145.272
138.432
132.434
127.21
122.691
118.809
115.497
112.691
110.329
108.355
106.717
105.366
104.261
103.361
102.636
102.053
101.59
101.223
100.935
100.71
100.536
100.402
100.299
100.222
100.163
100.119
100.087
100.062
100.045
100.032
100.023
100.016
100.011
100.008
100.005
100.004
100.002
100.002
100.001
100.001
100
100
100
100
100
100
100
100
100
100
100
100
100
100
100
100
100
100
100
389.515
368.628
347.994
327.77
308.106
289.136
270.978
253.729
237.466
222.248
208.11
195.073
183.135
172.283
162.486
153.705
145.889
138.98
132.915
127.628
123.051
119.117
115.757
112.909
110.511
108.505
106.84
105.466
104.341
103.426
102.687
102.094
101.621
101.247
100.954
100.725
100.547
100.41
100.306
100.226
100.167
100.122
100.088
100.064
100.046
100.033
100.023
100.016
100.011
100.008
100.005
100.004
100.003
100.002
100.001
100.001
100.001
100
100
100
100
100
100
100
100
100
100
100
100
100
100
100
100
100
100
389.587
368.844
348.344
328.242
308.683
289.798
271.704
254.498
238.258
223.043
208.893
195.829
183.853
172.955
163.107
154.27
146.398
139.433
133.314
127.976
123.352
119.374
115.976
113.093
110.664
108.632
106.944
105.551
104.409
103.481
102.73
102.128
101.648
101.268
100.97
100.737
100.556
100.417
100.311
100.23
100.17
100.124
100.09
100.065
100.047
100.033
100.023
100.017
100.012
100.008
100.006
100.004
100.003
100.002
100.001
100.001
100.001
100
100
100
100
100
100
100
100
100
100
100
100
100
100
100
100
100
100
389.645
369.013
348.619
328.613
309.137
290.322
272.28
255.109
238.889
223.679
209.521
196.438
184.434
173.5
163.611
154.732
146.814
139.805
133.643
128.264
123.601
119.588
116.157
113.246
110.792
108.738
107.031
105.622
104.467
103.527
102.767
102.157
101.671
101.286
100.984
100.748
100.564
100.423
100.316
100.234
100.172
100.126
100.091
100.066
100.047
100.034
100.024
100.017
100.012
100.008
100.006
100.004
100.003
100.002
100.001
100.001
100.001
100
100
100
100
100
100
100
100
100
100
100
100
100
100
100
100
100
100
389.689
369.146
348.835
328.905
309.495
290.734
272.735
255.594
239.391
224.187
210.024
196.926
184.901
173.94
164.02
155.106
147.153
140.109
133.912
128.5
123.806
119.764
116.307
113.372
110.898
108.826
107.103
105.681
104.515
103.565
102.798
102.182
101.69
101.301
100.995
100.756
100.571
100.429
100.32
100.237
100.174
100.127
100.093
100.067
100.048
100.034
100.024
100.017
100.012
100.008
100.006
100.004
100.003
100.002
100.001
100.001
100.001
100
100
100
100
100
100
100
100
100
100
100
100
100
100
100
100
100
100
389.724
369.25
349.004
329.133
309.776
291.058
273.093
255.976
239.788
224.589
210.423
197.316
185.274
174.292
164.348
155.408
147.428
140.355
134.13
128.692
123.973
119.908
116.43
113.476
110.985
108.898
107.163
105.73
104.554
103.597
102.823
102.202
101.706
101.314
101.005
100.764
100.577
100.433
100.323
100.239
100.176
100.129
100.094
100.068
100.048
100.035
100.024
100.017
100.012
100.008
100.006
100.004
100.003
100.002
100.001
100.001
100.001
100
100
100
100
100
100
100
100
100
100
100
100
100
100
100
100
100
100
389.752
369.33
349.135
329.311
309.995
291.312
273.373
256.277
240.1
224.907
210.739
197.625
185.572
174.574
164.611
155.65
147.648
140.553
134.307
128.847
124.109
120.025
116.53
113.561
111.056
108.958
107.212
105.77
104.587
103.624
102.844
102.218
101.719
101.324
101.013
100.77
100.582
100.436
100.325
100.241
100.177
100.13
100.094
100.068
100.049
100.035
100.025
100.017
100.012
100.008
100.006
100.004
100.003
100.002
100.001
100.001
100.001
100
100
100
100
100
100
100
100
100
100
100
100
100
100
100
100
100
100
389.773
369.393
349.238
329.45
310.166
291.509
273.593
256.512
240.346
225.156
210.989
197.869
185.807
174.797
164.82
155.843
147.824
140.712
134.449
128.972
124.218
120.119
116.611
113.63
111.114
109.006
107.252
105.803
104.614
103.645
102.862
102.232
101.73
101.332
101.02
100.775
100.586
100.439
100.328
100.243
100.179
100.131
100.095
100.069
100.049
100.035
100.025
100.017
100.012
100.008
100.006
100.004
100.003
100.002
100.001
100.001
100.001
100
100
100
100
100
100
100
100
100
100
100
100
100
100
100
100
100
100
389.789
369.442
349.317
329.557
310.298
291.663
273.763
256.695
240.537
225.352
211.184
198.06
185.991
174.973
164.985
155.996
147.964
140.838
134.561
129.072
124.305
120.195
116.676
113.685
111.161
109.045
107.284
105.829
104.635
103.663
102.876
102.243
101.739
101.339
101.025
100.779
100.589
100.442
100.33
100.244
100.18
100.131
100.096
100.069
100.049
100.035
100.025
100.018
100.012
100.009
100.006
100.004
100.003
100.002
100.001
100.001
100.001
100
100
100
100
100
100
100
100
100
100
100
100
100
100
100
100
100
100
389.802
369.479
349.378
329.64
310.4
291.782
273.895
256.837
240.685
225.503
211.336
198.21
186.136
175.111
165.114
156.116
148.074
140.938
134.651
129.151
124.374
120.255
116.728
113.729
111.198
109.076
107.31
105.85
104.653
103.677
102.887
102.252
101.746
101.345
101.029
100.783
100.591
100.444
100.331
100.245
100.181
100.132
100.096
100.069
100.05
100.035
100.025
100.018
100.012
100.009
100.006
100.004
100.003
100.002
100.001
100.001
100.001
100
100
100
100
100
100
100
100
100
100
100
100
100
100
100
100
100
100
389.811
369.508
349.425
329.704
310.479
291.873
273.997
256.946
240.8
225.621
211.453
198.326
186.249
175.218
165.215
156.21
148.16
141.016
134.721
129.213
124.429
120.303
116.769
113.764
111.228
109.101
107.331
105.867
104.667
103.688
102.896
102.26
101.752
101.349
101.033
100.785
100.593
100.445
100.332
100.246
100.181
100.133
100.096
100.07
100.05
100.036
100.025
100.018
100.012
100.009
100.006
100.004
100.003
100.002
100.001
100.001
100.001
100
100
100
100
100
100
100
100
100
100
100
100
100
100
100
100
100
100
389.819
369.529
349.46
329.752
310.539
291.943
274.075
257.03
240.888
225.711
211.544
198.415
186.336
175.301
165.294
156.283
148.227
141.077
134.776
129.262
124.472
120.34
116.801
113.792
111.251
109.121
107.347
105.881
104.678
103.697
102.903
102.265
101.756
101.353
101.036
100.787
100.595
100.447
100.333
100.247
100.182
100.133
100.097
100.07
100.05
100.036
100.025
100.018
100.012
100.009
100.006
100.004
100.003
100.002
100.001
100.001
100.001
100
100
100
100
100
100
100
100
100
100
100
100
100
100
100
100
100
100
389.824
369.546
349.488
329.789
310.585
291.996
274.135
257.095
240.956
225.781
211.614
198.484
186.403
175.365
165.355
156.34
148.279
141.124
134.818
129.3
124.505
120.369
116.827
113.814
111.269
109.136
107.36
105.892
104.686
103.704
102.909
102.27
101.76
101.356
101.038
100.789
100.596
100.448
100.334
100.247
100.182
100.133
100.097
100.07
100.05
100.036
100.025
100.018
100.012
100.009
100.006
100.004
100.003
100.002
100.001
100.001
100.001
100
100
100
100
100
100
100
100
100
100
100
100
100
100
100
100
100
100
389.828
369.559
349.508
329.817
310.619
292.037
274.18
257.144
241.007
225.833
211.667
198.537
186.454
175.415
165.401
156.383
148.319
141.161
134.851
129.329
124.531
120.392
116.846
113.83
111.284
109.148
107.37
105.9
104.693
103.709
102.913
102.273
101.763
101.358
101.039
100.791
100.597
100.448
100.335
100.248
100.183
100.134
100.097
100.07
100.05
100.036
100.025
100.018
100.012
100.009
100.006
100.004
100.003
100.002
100.001
100.001
100.001
100
100
100
100
100
100
100
100
100
100
100
100
100
100
100
100
100
100
389.832
369.568
349.524
329.839
310.646
292.067
274.214
257.18
241.046
225.873
211.708
198.577
186.493
175.452
165.437
156.416
148.35
141.189
134.876
129.352
124.551
120.409
116.861
113.843
111.295
109.157
107.378
105.906
104.698
103.714
102.917
102.276
101.765
101.36
101.041
100.792
100.598
100.449
100.335
100.248
100.183
100.134
100.097
100.07
100.05
100.036
100.025
100.018
100.013
100.009
100.006
100.004
100.003
100.002
100.001
100.001
100.001
100
100
100
100
100
100
100
100
100
100
100
100
100
100
100
100
100
100
389.834
369.575
349.535
329.854
310.665
292.09
274.24
257.208
241.075
225.904
211.738
198.607
186.522
175.48
165.463
156.441
148.373
141.21
134.896
129.369
124.566
120.423
116.873
113.853
111.303
109.164
107.384
105.911
104.702
103.717
102.919
102.278
101.767
101.361
101.042
100.792
100.599
100.45
100.335
100.249
100.183
100.134
100.097
100.07
100.05
100.036
100.025
100.018
100.013
100.009
100.006
100.004
100.003
100.002
100.001
100.001
100.001
100
100
100
100
100
100
100
100
100
100
100
100
100
100
100
100
100
100
389.836
369.581
349.544
329.866
310.68
292.108
274.259
257.229
241.097
225.926
211.761
198.63
186.545
175.502
165.484
156.46
148.391
141.226
134.91
129.382
124.578
120.433
116.882
113.861
111.309
109.17
107.388
105.915
104.706
103.72
102.921
102.28
101.768
101.362
101.043
100.793
100.599
100.45
100.336
100.249
100.183
100.134
100.097
100.07
100.05
100.036
100.025
100.018
100.013
100.009
100.006
100.004
100.003
100.002
100.001
100.001
100.001
100
100
100
100
100
100
100
100
100
100
100
100
100
100
100
100
100
100
389.837
369.585
349.551
329.875
310.691
292.12
274.273
257.245
241.114
225.943
211.778
198.647
186.561
175.518
165.499
156.474
148.404
141.238
134.921
129.392
124.587
120.44
116.888
113.867
111.314
109.174
107.392
105.918
104.708
103.722
102.923
102.281
101.769
101.363
101.043
100.794
100.6
100.45
100.336
100.249
100.183
100.134
100.097
100.07
100.051
100.036
100.026
100.018
100.013
100.009
100.006
100.004
100.003
100.002
100.001
100.001
100.001
100
100
100
100
100
100
100
100
100
100
100
100
100
100
100
100
100
100
389.838
369.588
349.555
329.882
310.699
292.13
274.284
257.256
241.126
225.956
211.791
198.659
186.573
175.53
165.51
156.485
148.414
141.247
134.929
129.399
124.593
120.446
116.893
113.871
111.318
109.177
107.394
105.92
104.71
103.723
102.924
102.282
101.77
101.364
101.044
100.794
100.6
100.45
100.336
100.249
100.183
100.134
100.098
100.07
100.051
100.036
100.026
100.018
100.013
100.009
100.006
100.004
100.003
100.002
100.001
100.001
100.001
100
100
100
100
100
100
100
100
100
100
100
100
100
100
100
100
100
100
389.839
369.59
349.559
329.886
310.705
292.137
274.292
257.264
241.135
225.965
211.8
198.669
186.583
175.538
165.519
156.493
148.421
141.254
134.935
129.405
124.598
120.451
116.897
113.874
111.321
109.179
107.396
105.922
104.711
103.724
102.925
102.283
101.77
101.364
101.044
100.794
100.6
100.451
100.336
100.249
100.183
100.134
100.098
100.07
100.051
100.036
100.026
100.018
100.013
100.009
100.006
100.004
100.003
100.002
100.001
100.001
100.001
100
100
100
100
100
100
100
100
100
100
100
100
100
100
100
100
100
100
389.839
369.591
349.561
329.89
310.709
292.142
274.297
257.271
241.141
225.972
211.807
198.675
186.589
175.545
165.525
156.499
148.427
141.259
134.94
129.409
124.602
120.454
116.9
113.876
111.323
109.181
107.398
105.923
104.712
103.725
102.926
102.283
101.771
101.364
101.044
100.794
100.6
100.451
100.336
100.249
100.184
100.134
100.098
100.07
100.051
100.036
100.026
100.018
100.013
100.009
100.006
100.004
100.003
100.002
100.001
100.001
100.001
100
100
100
100
100
100
100
100
100
100
100
100
100
100
100
100
100
100
389.84
369.592
349.563
329.892
310.712
292.145
274.301
257.275
241.146
225.976
211.812
198.68
186.594
175.55
165.529
156.503
148.431
141.263
134.943
129.412
124.604
120.456
116.902
113.878
111.324
109.182
107.399
105.924
104.713
103.726
102.926
102.284
101.771
101.365
101.045
100.795
100.6
100.451
100.336
100.249
100.184
100.134
100.098
100.071
100.051
100.036
100.026
100.018
100.013
100.009
100.006
100.004
100.003
100.002
100.001
100.001
100.001
100
100
100
100
100
100
100
100
100
100
100
100
100
100
100
100
100
100
389.84
369.593
349.565
329.894
310.715
292.148
274.304
257.278
241.149
225.98
211.815
198.684
186.598
175.553
165.532
156.506
148.433
141.265
134.946
129.414
124.606
120.458
116.903
113.879
111.325
109.183
107.399
105.924
104.713
103.726
102.927
102.284
101.771
101.365
101.045
100.795
100.601
100.451
100.336
100.249
100.184
100.134
100.098
100.071
100.051
100.036
100.026
100.018
100.013
100.009
100.006
100.004
100.003
100.002
100.001
100.001
100.001
100
100
100
100
100
100
100
100
100
100
100
100
100
100
100
100
100
100
389.84
369.594
349.566
329.895
310.716
292.15
274.306
257.281
241.152
225.983
211.818
198.687
186.6
175.556
165.535
156.508
148.436
141.267
134.947
129.416
124.608
120.459
116.904
113.88
111.326
109.184
107.4
105.925
104.714
103.726
102.927
102.284
101.771
101.365
101.045
100.795
100.601
100.451
100.336
100.249
100.184
100.134
100.098
100.071
100.051
100.036
100.026
100.018
100.013
100.009
100.006
100.004
100.003
100.002
100.001
100.001
100.001
100
100
100
100
100
100
100
100
100
100
100
100
100
100
100
100
100
100
389.84
369.594
349.566
329.896
310.717
292.151
274.308
257.282
241.154
225.984
211.82
198.689
186.602
175.557
165.537
156.51
148.437
141.269
134.949
129.417
124.609
120.46
116.905
113.881
111.327
109.184
107.4
105.925
104.714
103.727
102.927
102.285
101.772
101.365
101.045
100.795
100.601
100.451
100.336
100.249
100.184
100.134
100.098
100.071
100.051
100.036
100.026
100.018
100.013
100.009
100.006
100.004
100.003
100.002
100.001
100.001
100.001
100
100
100
100
100
100
100
100
100
100
100
100
100
100
100
100
100
100
389.84
369.595
349.567
329.897
310.718
292.152
274.309
257.284
241.155
225.986
211.821
198.69
186.603
175.559
165.538
156.511
148.438
141.27
134.95
129.417
124.609
120.46
116.906
113.882
111.327
109.185
107.401
105.925
104.714
103.727
102.927
102.285
101.772
101.365
101.045
100.795
100.601
100.451
100.336
100.249
100.184
100.134
100.098
100.071
100.051
100.036
100.026
100.018
100.013
100.009
100.006
100.004
100.003
100.002
100.001
100.001
100.001
100
100
100
100
100
100
100
100
100
100
100
100
100
100
100
100
100
100
389.841
369.595
349.567
329.898
310.719
292.153
274.31
257.284
241.156
225.987
211.822
198.691
186.604
175.559
165.539
156.512
148.439
141.27
134.95
129.418
124.61
120.461
116.906
113.882
111.328
109.185
107.401
105.926
104.714
103.727
102.927
102.285
101.772
101.365
101.045
100.795
100.601
100.451
100.336
100.249
100.184
100.134
100.098
100.071
100.051
100.036
100.026
100.018
100.013
100.009
100.006
100.004
100.003
100.002
100.001
100.001
100.001
100
100
100
100
100
100
100
100
100
100
100
100
100
100
100
100
100
100
389.841
369.595
349.567
329.898
310.719
292.154
274.31
257.285
241.156
225.987
211.823
198.691
186.605
175.56
165.539
156.512
148.439
141.271
134.951
129.418
124.61
120.461
116.906
113.882
111.328
109.185
107.401
105.926
104.714
103.727
102.927
102.285
101.772
101.365
101.045
100.795
100.601
100.451
100.336
100.249
100.184
100.134
100.098
100.071
100.051
100.036
100.026
100.018
100.013
100.009
100.006
100.004
100.003
100.002
100.001
100.001
100.001
100
100
100
100
100
100
100
100
100
100
100
100
100
100
100
100
100
100
389.841
369.595
349.567
329.898
310.72
292.154
274.311
257.285
241.157
225.988
211.823
198.692
186.605
175.561
165.54
156.513
148.44
141.271
134.951
129.419
124.611
120.461
116.907
113.882
111.328
109.185
107.401
105.926
104.715
103.727
102.927
102.285
101.772
101.365
101.045
100.795
100.601
100.451
100.336
100.249
100.184
100.134
100.098
100.071
100.051
100.036
100.026
100.018
100.013
100.009
100.006
100.004
100.003
100.002
100.001
100.001
100.001
100
100
100
100
100
100
100
100
100
100
100
100
100
100
100
100
100
100
389.841
369.595
349.568
329.898
310.72
292.154
274.311
257.286
241.157
225.988
211.824
198.692
186.606
175.561
165.54
156.513
148.44
141.271
134.951
129.419
124.611
120.462
116.907
113.882
111.328
109.185
107.401
105.926
104.715
103.727
102.928
102.285
101.772
101.365
101.045
100.795
100.601
100.451
100.337
100.249
100.184
100.134
100.098
100.071
100.051
100.036
100.026
100.018
100.013
100.009
100.006
100.004
100.003
100.002
100.001
100.001
100.001
100
100
100
100
100
100
100
100
100
100
100
100
100
100
100
100
100
100
389.841
369.595
349.568
329.898
310.72
292.154
274.311
257.286
241.157
225.988
211.824
198.692
186.606
175.561
165.54
156.513
148.44
141.272
134.951
129.419
124.611
120.462
116.907
113.883
111.328
109.186
107.401
105.926
104.715
103.727
102.928
102.285
101.772
101.365
101.045
100.795
100.601
100.451
100.337
100.249
100.184
100.134
100.098
100.071
100.051
100.036
100.026
100.018
100.013
100.009
100.006
100.004
100.003
100.002
100.001
100.001
100.001
100
100
100
100
100
100
100
100
100
100
100
100
100
100
100
100
100
100
389.841
369.595
349.568
329.898
310.72
292.154
274.311
257.286
241.158
225.988
211.824
198.693
186.606
175.561
165.54
156.513
148.44
141.272
134.951
129.419
124.611
120.462
116.907
113.883
111.328
109.186
107.401
105.926
104.715
103.727
102.928
102.285
101.772
101.365
101.045
100.795
100.601
100.451
100.337
100.249
100.184
100.134
100.098
100.071
100.051
100.036
100.026
100.018
100.013
100.009
100.006
100.004
100.003
100.002
100.001
100.001
100.001
100
100
100
100
100
100
100
100
100
100
100
100
100
100
100
100
100
100
389.841
369.595
349.568
329.899
310.72
292.154
274.311
257.286
241.158
225.989
211.824
198.693
186.606
175.561
165.54
156.514
148.44
141.272
134.952
129.419
124.611
120.462
116.907
113.883
111.328
109.186
107.401
105.926
104.715
103.727
102.928
102.285
101.772
101.365
101.045
100.795
100.601
100.451
100.337
100.249
100.184
100.134
100.098
100.071
100.051
100.036
100.026
100.018
100.013
100.009
100.006
100.004
100.003
100.002
100.001
100.001
100.001
100
100
100
100
100
100
100
100
100
100
100
100
100
100
100
100
100
100
389.841
369.595
349.568
329.899
310.72
292.155
274.312
257.286
241.158
225.989
211.824
198.693
186.606
175.561
165.54
156.514
148.44
141.272
134.952
129.419
124.611
120.462
116.907
113.883
111.328
109.186
107.401
105.926
104.715
103.727
102.928
102.285
101.772
101.365
101.045
100.795
100.601
100.451
100.337
100.249
100.184
100.134
100.098
100.071
100.051
100.036
100.026
100.018
100.013
100.009
100.006
100.004
100.003
100.002
100.001
100.001
100.001
100
100
100
100
100
100
100
100
100
100
100
100
100
100
100
100
100
100
389.841
369.595
349.568
329.899
310.72
292.155
274.312
257.286
241.158
225.989
211.824
198.693
186.606
175.561
165.54
156.514
148.441
141.272
134.952
129.419
124.611
120.462
116.907
113.883
111.328
109.186
107.401
105.926
104.715
103.727
102.928
102.285
101.772
101.365
101.045
100.795
100.601
100.451
100.337
100.249
100.184
100.134
100.098
100.071
100.051
100.036
100.026
100.018
100.013
100.009
100.006
100.004
100.003
100.002
100.001
100.001
100.001
100
100
100
100
100
100
100
100
100
100
100
100
100
100
100
100
100
100
389.841
369.595
349.568
329.899
310.72
292.155
274.312
257.286
241.158
225.989
211.824
198.693
186.606
175.561
165.541
156.514
148.441
141.272
134.952
129.419
124.611
120.462
116.907
113.883
111.328
109.186
107.401
105.926
104.715
103.727
102.928
102.285
101.772
101.365
101.045
100.795
100.601
100.451
100.337
100.249
100.184
100.134
100.098
100.071
100.051
100.036
100.026
100.018
100.013
100.009
100.006
100.004
100.003
100.002
100.001
100.001
100.001
100
100
100
100
100
100
100
100
100
100
100
100
100
100
100
100
100
100
389.841
369.595
349.568
329.899
310.72
292.155
274.312
257.286
241.158
225.989
211.824
198.693
186.606
175.561
165.541
156.514
148.441
141.272
134.952
129.419
124.611
120.462
116.907
113.883
111.328
109.186
107.401
105.926
104.715
103.727
102.928
102.285
101.772
101.365
101.045
100.795
100.601
100.451
100.337
100.249
100.184
100.134
100.098
100.071
100.051
100.036
100.026
100.018
100.013
100.009
100.006
100.004
100.003
100.002
100.001
100.001
100.001
100
100
100
100
100
100
100
100
100
100
100
100
100
100
100
100
100
100
389.841
369.595
349.568
329.899
310.72
292.155
274.312
257.286
241.158
225.989
211.824
198.693
186.606
175.561
165.541
156.514
148.441
141.272
134.952
129.419
124.611
120.462
116.907
113.883
111.328
109.186
107.401
105.926
104.715
103.727
102.928
102.285
101.772
101.365
101.045
100.795
100.601
100.451
100.337
100.249
100.184
100.134
100.098
100.071
100.051
100.036
100.026
100.018
100.013
100.009
100.006
100.004
100.003
100.002
100.001
100.001
100.001
100
100
100
100
100
100
100
100
100
100
100
100
100
100
100
100
100
100
389.841
369.595
349.568
329.899
310.72
292.155
274.312
257.286
241.158
225.989
211.824
198.693
186.606
175.561
165.541
156.514
148.441
141.272
134.952
129.419
124.611
120.462
116.907
113.883
111.328
109.186
107.401
105.926
104.715
103.727
102.928
102.285
101.772
101.365
101.045
100.795
100.601
100.451
100.337
100.249
100.184
100.134
100.098
100.071
100.051
100.036
100.026
100.018
100.013
100.009
100.006
100.004
100.003
100.002
100.001
100.001
100.001
100
100
100
100
100
100
100
100
100
100
100
100
100
100
100
100
100
100
389.841
369.595
349.568
329.899
310.72
292.155
274.312
257.286
241.158
225.989
211.824
198.693
186.606
175.561
165.541
156.514
148.441
141.272
134.952
129.419
124.611
120.462
116.907
113.883
111.328
109.186
107.401
105.926
104.715
103.727