/*--------------------------------*- C++ -*----------------------------------*\
  =========                 |
  \\      /  F ield         | OpenFOAM: The Open Source CFD Toolbox
   \\    /   O peration     | Website:  https://openfoam.org
    \\  /    A nd           | Version:  10
     \\/     M anipulation  |
\*---------------------------------------------------------------------------*/
FoamFile
{
    format      ascii;
    class       volScalarField;
    location    "396";
    object      T;
}
// * * * * * * * * * * * * * * * * * * * * * * * * * * * * * * * * * * * * * //

dimensions      [0 0 0 1 0 0 0];

internalField   nonuniform List<scalar> 
11250
(
249.866
167.627
139.475
127.104
120.371
116.113
113.142
110.931
109.211
107.829
106.693
105.742
104.937
104.249
103.656
103.143
102.699
102.313
101.978
101.686
101.434
101.215
101.026
100.864
100.724
100.605
100.503
100.417
100.344
100.283
100.231
100.188
100.152
100.123
100.099
100.079
100.063
100.05
100.039
100.031
100.024
100.019
100.014
100.011
100.008
100.006
100.005
100.004
100.003
100.002
100.002
100.001
100.001
100.001
100
100
100
100
100
100
100
100
100
100
100
100
100
100
100
100
100
100
100
100
100
331.57
248.797
202.654
175.683
158.651
147.065
138.683
132.322
127.315
123.263
119.916
117.106
114.719
112.674
110.912
109.386
108.061
106.91
105.91
105.041
104.287
103.634
103.07
102.584
102.167
101.81
101.506
101.247
101.029
100.845
100.691
100.563
100.456
100.368
100.296
100.236
100.188
100.149
100.117
100.092
100.072
100.056
100.043
100.033
100.025
100.019
100.015
100.011
100.008
100.006
100.005
100.003
100.002
100.002
100.001
100.001
100.001
100
100
100
100
100
100
100
100
100
100
100
100
100
100
100
100
100
100
359.19
293.351
246.683
214.353
191.525
174.859
162.256
152.416
144.526
138.06
132.67
128.117
124.232
120.891
118.003
115.498
113.32
111.424
109.775
108.34
107.095
106.016
105.083
104.28
103.589
102.999
102.495
102.068
101.706
101.402
101.146
100.933
100.757
100.611
100.49
100.392
100.312
100.247
100.195
100.153
100.119
100.093
100.072
100.055
100.042
100.032
100.024
100.018
100.014
100.01
100.008
100.006
100.004
100.003
100.002
100.002
100.001
100.001
100.001
100
100
100
100
100
100
100
100
100
100
100
100
100
100
100
100
371.039
318.755
276.412
243.571
218.301
198.667
183.151
170.657
160.416
151.892
144.704
138.58
133.321
128.776
124.833
121.401
118.411
115.803
113.53
111.551
109.831
108.339
107.049
105.937
104.981
104.162
103.464
102.871
102.369
101.947
101.593
101.297
101.051
100.849
100.682
100.545
100.434
100.343
100.271
100.212
100.166
100.129
100.1
100.077
100.059
100.045
100.034
100.026
100.019
100.014
100.011
100.008
100.006
100.004
100.003
100.002
100.002
100.001
100.001
100.001
100
100
100
100
100
100
100
100
100
100
100
100
100
100
100
377.258
334.25
296.688
265.29
239.529
218.463
201.145
186.778
174.735
164.541
155.835
148.344
141.862
136.229
131.318
127.028
123.279
120.002
117.139
114.643
112.47
110.584
108.951
107.541
106.329
105.291
104.404
103.651
103.014
102.477
102.027
101.651
101.339
101.08
100.868
100.694
100.552
100.437
100.345
100.27
100.211
100.164
100.127
100.098
100.075
100.057
100.043
100.033
100.024
100.018
100.014
100.01
100.007
100.005
100.004
100.003
100.002
100.001
100.001
100.001
100.001
100
100
100
100
100
100
100
100
100
100
100
100
100
100
381.017
344.339
310.867
281.461
256.177
234.644
216.341
200.744
187.392
175.899
165.955
157.311
149.771
143.175
137.395
132.326
127.879
123.982
120.571
117.589
114.991
112.731
110.773
109.081
107.625
106.376
105.31
104.403
103.636
102.989
102.446
101.993
101.616
101.305
101.048
100.838
100.667
100.529
100.417
100.327
100.255
100.198
100.153
100.118
100.09
100.069
100.052
100.039
100.03
100.022
100.016
100.012
100.009
100.007
100.005
100.003
100.002
100.002
100.001
100.001
100.001
100
100
100
100
100
100
100
100
100
100
100
100
100
100
383.502
351.268
321.059
293.62
269.211
247.759
229.017
212.674
198.413
185.946
175.022
165.431
156.994
149.566
143.02
137.254
132.178
127.716
123.799
120.37
117.374
114.766
112.503
110.545
108.859
107.411
106.174
105.122
104.231
103.479
102.848
102.321
101.882
101.52
101.221
100.977
100.778
100.616
100.486
100.381
100.298
100.231
100.179
100.138
100.105
100.08
100.061
100.046
100.034
100.026
100.019
100.014
100.01
100.008
100.006
100.004
100.003
100.002
100.001
100.001
100.001
100.001
100
100
100
100
100
100
100
100
100
100
100
100
100
385.246
356.23
328.574
302.878
279.447
258.353
239.514
222.763
207.902
194.727
183.048
172.694
163.515
155.378
148.169
141.79
136.153
131.182
126.807
122.968
119.608
116.678
114.131
111.926
110.024
108.39
106.993
105.804
104.795
103.944
103.23
102.633
102.136
101.725
101.387
101.109
100.883
100.7
100.552
100.433
100.338
100.263
100.203
100.156
100.12
100.091
100.069
100.052
100.039
100.029
100.022
100.016
100.012
100.009
100.006
100.005
100.003
100.002
100.002
100.001
100.001
100.001
100
100
100
100
100
100
100
100
100
100
100
100
100
386.518
359.895
334.236
310.016
287.529
266.91
248.169
231.238
216.002
202.329
190.081
179.125
169.338
160.608
152.834
145.923
139.793
134.369
129.583
125.374
121.682
118.458
115.651
113.217
111.116
109.309
107.763
106.445
105.327
104.384
103.591
102.928
102.376
101.919
101.543
101.235
100.983
100.779
100.615
100.482
100.377
100.293
100.226
100.174
100.133
100.102
100.077
100.058
100.044
100.033
100.024
100.018
100.013
100.01
100.007
100.005
100.004
100.003
100.002
100.001
100.001
100.001
100
100
100
100
100
100
100
100
100
100
100
100
100
387.472
362.666
338.577
315.582
293.949
273.832
255.293
238.324
222.873
208.86
196.19
184.767
174.492
165.272
157.02
149.653
143.094
137.273
132.123
127.582
123.592
120.101
117.057
114.414
112.13
110.164
108.48
107.044
105.825
104.795
103.929
103.204
102.601
102.102
101.69
101.353
101.078
100.854
100.674
100.529
100.413
100.321
100.248
100.191
100.146
100.112
100.085
100.064
100.048
100.036
100.027
100.02
100.014
100.011
100.008
100.006
100.004
100.003
100.002
100.001
100.001
100.001
100.001
100
100
100
100
100
100
100
100
100
100
100
100
388.203
364.801
341.953
319.966
299.077
279.443
261.151
244.231
228.673
214.436
201.461
189.679
179.015
169.396
160.745
152.991
146.064
139.897
134.426
129.592
125.336
121.605
118.348
115.516
113.066
110.955
109.144
107.599
106.286
105.177
104.243
103.462
102.811
102.272
101.828
101.463
101.166
100.924
100.729
100.572
100.447
100.348
100.269
100.207
100.159
100.121
100.092
100.069
100.052
100.039
100.029
100.021
100.016
100.011
100.008
100.006
100.004
100.003
100.002
100.002
100.001
100.001
100.001
100
100
100
100
100
100
100
100
100
100
100
100
388.772
366.468
344.607
323.447
303.194
284.001
265.967
249.145
233.551
219.173
205.981
193.927
182.958
173.014
164.034
155.955
148.713
142.248
136.499
131.407
126.916
122.972
119.524
116.522
113.922
111.679
109.754
108.109
106.711
105.529
104.534
103.7
103.006
102.43
101.955
101.566
101.247
100.989
100.781
100.613
100.479
100.372
100.288
100.222
100.17
100.13
100.098
100.074
100.056
100.042
100.031
100.023
100.017
100.012
100.009
100.007
100.005
100.003
100.002
100.002
100.001
100.001
100.001
100
100
100
100
100
100
100
100
100
100
100
100
389.219
367.782
346.713
326.229
306.514
287.712
269.927
253.225
237.64
223.181
209.836
197.579
186.371
176.167
166.917
158.567
151.06
144.339
138.349
133.033
128.336
124.204
120.587
117.434
114.699
112.338
110.31
108.575
107.1
105.852
104.8
103.919
103.184
102.575
102.072
101.66
101.323
101.049
100.828
100.65
100.508
100.395
100.306
100.236
100.18
100.138
100.104
100.079
100.059
100.044
100.033
100.024
100.018
100.013
100.01
100.007
100.005
100.004
100.003
100.002
100.001
100.001
100.001
100
100
100
100
100
100
100
100
100
100
100
100
389.574
368.828
348.395
328.464
309.201
290.739
273.184
256.609
241.059
226.558
213.11
200.702
189.309
178.898
169.428
160.853
153.123
146.186
139.99
134.48
129.604
125.308
121.541
118.254
115.4
112.933
110.813
108.998
107.453
106.145
105.043
104.118
103.347
102.708
102.18
101.746
101.392
101.104
100.872
100.685
100.535
100.416
100.322
100.248
100.19
100.145
100.11
100.083
100.062
100.047
100.035
100.026
100.019
100.014
100.01
100.007
100.005
100.004
100.003
100.002
100.001
100.001
100.001
100
100
100
100
100
100
100
100
100
100
100
100
389.857
369.665
349.745
330.267
311.38
293.211
275.862
259.411
243.911
229.396
215.879
203.36
191.825
181.25
171.601
162.841
154.925
147.806
141.434
135.759
130.727
126.288
122.391
118.987
116.027
113.468
111.265
109.379
107.772
106.41
105.262
104.299
103.495
102.828
102.277
101.825
101.455
101.155
100.912
100.716
100.56
100.436
100.337
100.26
100.199
100.152
100.115
100.087
100.065
100.049
100.036
100.027
100.02
100.014
100.011
100.008
100.006
100.004
100.003
100.002
100.001
100.001
100.001
100
100
100
100
100
100
100
100
100
100
100
100
390.085
370.337
350.833
331.725
313.151
295.231
278.064
261.729
246.285
231.772
218.212
205.613
193.969
183.263
173.472
164.56
156.49
149.218
142.698
136.881
131.716
127.154
123.144
119.637
116.585
113.944
111.669
109.719
108.057
106.648
105.459
104.461
103.629
102.937
102.365
101.896
101.512
101.2
100.948
100.745
100.582
100.453
100.351
100.27
100.207
100.158
100.12
100.09
100.068
100.051
100.038
100.028
100.021
100.015
100.011
100.008
100.006
100.004
100.003
100.002
100.001
100.001
100.001
100.001
100
100
100
100
100
100
100
100
100
100
100
390.268
370.879
351.713
332.908
314.593
296.882
279.873
263.644
248.256
233.756
220.17
207.513
195.786
184.979
175.072
166.038
157.84
150.441
143.796
137.859
132.581
127.913
123.806
120.21
117.078
114.365
112.027
110.022
108.311
106.86
105.635
104.607
103.748
103.034
102.444
101.96
101.563
101.241
100.98
100.77
100.603
100.469
100.363
100.28
100.214
100.164
100.124
100.094
100.07
100.053
100.039
100.029
100.021
100.016
100.011
100.008
100.006
100.004
100.003
100.002
100.002
100.001
100.001
100.001
100
100
100
100
100
100
100
100
100
100
100
390.416
371.317
352.424
333.867
315.767
298.232
281.358
265.223
249.89
235.408
221.808
209.111
197.321
186.435
176.436
167.301
158.999
151.494
144.745
138.707
133.333
128.575
124.384
120.712
117.511
114.736
112.342
110.289
108.536
107.048
105.791
104.736
103.854
103.121
102.515
102.017
101.609
101.278
101.009
100.793
100.621
100.483
100.374
100.288
100.221
100.169
100.128
100.097
100.073
100.054
100.04
100.03
100.022
100.016
100.012
100.009
100.006
100.004
100.003
100.002
100.002
100.001
100.001
100.001
100
100
100
100
100
100
100
100
100
100
100
390.536
371.672
353.001
334.646
316.723
299.335
282.576
266.523
251.24
236.779
223.174
210.448
198.612
187.663
177.591
168.375
159.988
152.396
145.56
139.437
133.982
129.148
124.886
121.148
117.888
115.06
112.618
110.523
108.733
107.213
105.929
104.849
103.947
103.197
102.577
102.067
101.65
101.31
101.035
100.814
100.637
100.496
100.384
100.296
100.227
100.173
100.131
100.099
100.075
100.056
100.041
100.031
100.023
100.017
100.012
100.009
100.006
100.005
100.003
100.002
100.002
100.001
100.001
100.001
100
100
100
100
100
100
100
100
100
100
100
390.632
371.958
353.468
335.279
317.501
300.235
283.573
267.591
252.354
237.914
224.309
211.564
199.692
188.695
178.565
169.284
160.828
153.164
146.256
140.063
134.54
129.641
125.319
121.526
118.215
115.341
112.859
110.727
108.905
107.357
106.049
104.949
104.029
103.265
102.632
102.111
101.685
101.339
101.058
100.832
100.651
100.507
100.393
100.303
100.232
100.177
100.134
100.102
100.076
100.057
100.042
100.031
100.023
100.017
100.012
100.009
100.006
100.005
100.003
100.002
100.002
100.001
100.001
100.001
100
100
100
100
100
100
100
100
100
100
100
390.71
372.191
353.847
335.792
318.134
300.969
284.388
268.467
253.27
238.851
225.249
212.491
200.593
189.559
179.383
170.05
161.537
153.815
146.847
140.596
135.016
130.063
125.69
121.851
118.497
115.584
113.067
110.903
109.054
107.483
106.154
105.036
104.101
103.323
102.68
102.15
101.717
101.364
101.078
100.848
100.663
100.517
100.4
100.308
100.237
100.181
100.137
100.104
100.078
100.058
100.043
100.032
100.024
100.017
100.013
100.009
100.007
100.005
100.003
100.002
100.002
100.001
100.001
100.001
100
100
100
100
100
100
100
100
100
100
100
390.774
372.378
354.153
336.208
318.647
301.567
285.053
269.183
254.022
239.622
226.025
213.259
201.341
190.278
180.066
170.691
162.133
154.363
147.347
141.047
135.42
130.423
126.007
122.128
118.738
115.792
113.245
111.055
109.183
107.591
106.244
105.111
104.163
103.374
102.721
102.184
101.744
101.386
101.095
100.862
100.674
100.525
100.407
100.314
100.241
100.184
100.139
100.105
100.079
100.059
100.044
100.033
100.024
100.018
100.013
100.009
100.007
100.005
100.003
100.002
100.002
100.001
100.001
100.001
100
100
100
100
100
100
100
100
100
100
100
390.825
372.53
354.401
336.546
319.064
302.052
285.595
269.768
254.637
240.255
226.663
213.892
201.96
190.875
180.634
171.226
162.631
154.822
147.767
141.427
135.762
130.727
126.276
122.364
118.944
115.969
113.398
111.186
109.294
107.684
106.322
105.176
104.217
103.418
102.757
102.213
101.767
101.405
101.111
100.874
100.684
100.533
100.413
100.318
100.244
100.186
100.141
100.107
100.08
100.06
100.045
100.033
100.024
100.018
100.013
100.009
100.007
100.005
100.003
100.002
100.002
100.001
100.001
100.001
100
100
100
100
100
100
100
100
100
100
100
390.866
372.653
354.602
336.818
319.402
302.446
286.035
270.244
255.139
240.772
227.186
214.412
202.47
191.368
181.105
171.67
163.046
155.206
148.118
141.746
136.049
130.983
126.503
122.563
119.117
116.12
113.527
111.296
109.388
107.763
106.388
105.231
104.263
103.456
102.788
102.238
101.788
101.421
101.124
100.884
100.692
100.539
100.418
100.322
100.247
100.189
100.143
100.108
100.081
100.061
100.045
100.034
100.025
100.018
100.013
100.01
100.007
100.005
100.004
100.003
100.002
100.001
100.001
100.001
100
100
100
100
100
100
100
100
100
100
100
390.899
372.751
354.763
337.038
319.674
302.764
286.391
270.63
255.547
241.193
227.614
214.838
202.888
191.773
181.493
172.037
163.389
155.524
148.41
142.012
136.288
131.197
126.693
122.73
119.264
116.247
113.637
111.39
109.467
107.83
106.445
105.278
104.302
103.488
102.815
102.26
101.805
101.435
101.135
100.893
100.699
100.545
100.422
100.325
100.25
100.191
100.145
100.109
100.082
100.062
100.046
100.034
100.025
100.018
100.013
100.01
100.007
100.005
100.004
100.003
100.002
100.001
100.001
100.001
100
100
100
100
100
100
100
100
100
100
100
390.926
372.83
354.893
337.214
319.893
303.02
286.679
270.943
255.877
241.536
227.961
215.186
203.23
192.105
181.811
172.339
163.673
155.787
148.652
142.232
136.487
131.375
126.852
122.87
119.386
116.353
113.728
111.469
109.534
107.887
106.492
105.318
104.335
103.515
102.837
102.278
101.82
101.447
101.144
100.9
100.705
100.549
100.426
100.328
100.252
100.192
100.146
100.11
100.083
100.062
100.046
100.034
100.025
100.018
100.013
100.01
100.007
100.005
100.004
100.003
100.002
100.001
100.001
100.001
100
100
100
100
100
100
100
100
100
100
100
390.947
372.894
354.997
337.356
320.07
303.227
286.911
271.195
256.145
241.813
228.243
215.468
203.509
192.376
182.072
172.587
163.905
156.003
148.851
142.414
136.652
131.523
126.983
122.987
119.488
116.442
113.805
111.534
109.59
107.935
106.532
105.352
104.362
103.538
102.856
102.293
101.832
101.457
101.152
100.907
100.71
100.553
100.429
100.331
100.254
100.194
100.147
100.111
100.084
100.063
100.047
100.034
100.025
100.019
100.014
100.01
100.007
100.005
100.004
100.003
100.002
100.001
100.001
100.001
100
100
100
100
100
100
100
100
100
100
100
390.964
372.945
355.08
337.47
320.211
303.393
287.097
271.398
256.36
242.036
228.471
215.697
203.735
192.596
182.283
172.788
164.095
156.18
149.015
142.563
136.787
131.645
127.092
123.083
119.572
116.516
113.869
111.589
109.637
107.974
106.566
105.379
104.386
103.558
102.871
102.306
101.843
101.465
101.159
100.912
100.714
100.557
100.432
100.333
100.255
100.195
100.148
100.112
100.084
100.063
100.047
100.035
100.026
100.019
100.014
100.01
100.007
100.005
100.004
100.003
100.002
100.001
100.001
100.001
100
100
100
100
100
100
100
100
100
100
100
390.978
372.985
355.146
337.561
320.324
303.525
287.246
271.56
256.532
242.216
228.655
215.881
203.917
192.774
182.455
172.952
164.249
156.324
149.148
142.685
136.898
131.745
127.181
123.162
119.642
116.576
113.921
111.634
109.676
108.007
106.594
105.403
104.405
103.574
102.885
102.317
101.851
101.472
101.165
100.917
100.718
100.559
100.434
100.335
100.257
100.196
100.149
100.113
100.085
100.063
100.047
100.035
100.026
100.019
100.014
100.01
100.007
100.005
100.004
100.003
100.002
100.001
100.001
100.001
100
100
100
100
100
100
100
100
100
100
100
390.989
373.017
355.199
337.633
320.414
303.631
287.365
271.69
256.671
242.36
228.802
216.029
204.063
192.918
182.593
173.084
164.374
156.441
149.256
142.784
136.988
131.826
127.254
123.226
119.699
116.626
113.964
111.672
109.708
108.034
106.616
105.422
104.421
103.587
102.895
102.326
101.859
101.478
101.169
100.921
100.721
100.562
100.436
100.336
100.258
100.197
100.15
100.113
100.085
100.064
100.047
100.035
100.026
100.019
100.014
100.01
100.007
100.005
100.004
100.003
100.002
100.001
100.001
100.001
100
100
100
100
100
100
100
100
100
100
100
390.997
373.043
355.241
337.69
320.485
303.714
287.459
271.794
256.781
242.475
228.919
216.147
204.181
193.033
182.705
173.19
164.475
156.535
149.343
142.865
137.061
131.892
127.313
123.279
119.745
116.667
114
111.702
109.734
108.056
106.635
105.438
104.434
103.598
102.904
102.333
101.865
101.483
101.173
100.924
100.723
100.564
100.437
100.337
100.259
100.198
100.15
100.113
100.085
100.064
100.048
100.035
100.026
100.019
100.014
100.01
100.007
100.005
100.004
100.003
100.002
100.001
100.001
100.001
100
100
100
100
100
100
100
100
100
100
100
391.004
373.063
355.274
337.736
320.542
303.781
287.534
271.875
256.868
242.566
229.012
216.241
204.274
193.124
182.794
173.275
164.555
156.611
149.413
142.929
137.12
131.945
127.361
123.321
119.783
116.7
114.028
111.727
109.755
108.074
106.65
105.45
104.445
103.607
102.912
102.339
101.87
101.487
101.176
100.926
100.725
100.565
100.438
100.338
100.26
100.198
100.151
100.114
100.086
100.064
100.048
100.035
100.026
100.019
100.014
100.01
100.007
100.005
100.004
100.003
100.002
100.001
100.001
100.001
100
100
100
100
100
100
100
100
100
100
100
391.009
373.079
355.3
337.771
320.586
303.833
287.593
271.94
256.937
242.638
229.086
216.316
204.349
193.197
182.864
173.343
164.62
156.671
149.47
142.981
137.168
131.988
127.399
123.356
119.813
116.726
114.052
111.747
109.772
108.089
106.663
105.461
104.454
103.614
102.918
102.344
101.874
101.49
101.179
100.928
100.727
100.567
100.439
100.339
100.26
100.199
100.151
100.114
100.086
100.064
100.048
100.035
100.026
100.019
100.014
100.01
100.007
100.005
100.004
100.003
100.002
100.001
100.001
100.001
100
100
100
100
100
100
100
100
100
100
100
391.014
373.091
355.321
337.799
320.621
303.874
287.64
271.991
256.991
242.695
229.145
216.375
204.407
193.255
182.92
173.397
164.671
156.719
149.514
143.022
137.205
132.022
127.43
123.383
119.837
116.748
114.07
111.763
109.786
108.101
106.673
105.469
104.461
103.62
102.923
102.348
101.877
101.493
101.181
100.93
100.729
100.568
100.44
100.34
100.261
100.199
100.151
100.114
100.086
100.064
100.048
100.035
100.026
100.019
100.014
100.01
100.007
100.005
100.004
100.003
100.002
100.001
100.001
100.001
100
100
100
100
100
100
100
100
100
100
100
391.017
373.101
355.337
337.821
320.648
303.906
287.676
272.031
257.034
242.739
229.191
216.421
204.454
193.301
182.965
173.44
164.711
156.757
149.55
143.055
137.235
132.05
127.454
123.405
119.857
116.765
114.085
111.776
109.797
108.11
106.681
105.476
104.466
103.624
102.927
102.351
101.88
101.495
101.183
100.931
100.73
100.569
100.441
100.34
100.261
100.199
100.152
100.115
100.086
100.064
100.048
100.036
100.026
100.019
100.014
100.01
100.007
100.005
100.004
100.003
100.002
100.001
100.001
100.001
100
100
100
100
100
100
100
100
100
100
100
391.019
373.109
355.349
337.838
320.67
303.931
287.705
272.062
257.067
242.774
229.227
216.458
204.49
193.336
182.999
173.473
164.743
156.787
149.578
143.081
137.259
132.071
127.474
123.422
119.872
116.778
114.097
111.786
109.806
108.118
106.687
105.482
104.471
103.628
102.93
102.354
101.882
101.497
101.184
100.932
100.73
100.569
100.441
100.341
100.261
100.2
100.152
100.115
100.086
100.065
100.048
100.036
100.026
100.019
100.014
100.01
100.007
100.005
100.004
100.003
100.002
100.001
100.001
100.001
100
100
100
100
100
100
100
100
100
100
100
391.021
373.115
355.359
337.851
320.686
303.951
287.727
272.086
257.093
242.801
229.255
216.486
204.518
193.364
183.027
173.499
164.768
156.811
149.6
143.101
137.278
132.088
127.489
123.436
119.884
116.789
114.106
111.794
109.813
108.124
106.693
105.486
104.474
103.631
102.932
102.356
101.883
101.498
101.185
100.933
100.731
100.57
100.442
100.341
100.262
100.2
100.152
100.115
100.086
100.065
100.048
100.036
100.026
100.019
100.014
100.01
100.007
100.005
100.004
100.003
100.002
100.001
100.001
100.001
100
100
100
100
100
100
100
100
100
100
100
391.023
373.119
355.366
337.862
320.699
303.966
287.744
272.105
257.113
242.822
229.276
216.508
204.54
193.386
183.048
173.52
164.787
156.829
149.617
143.117
137.292
132.101
127.501
123.447
119.894
116.797
114.114
111.801
109.818
108.129
106.697
105.489
104.477
103.634
102.934
102.358
101.885
101.499
101.186
100.934
100.732
100.57
100.442
100.341
100.262
100.2
100.152
100.115
100.086
100.065
100.048
100.036
100.026
100.019
100.014
100.01
100.007
100.005
100.004
100.003
100.002
100.001
100.001
100.001
100
100
100
100
100
100
100
100
100
100
100
391.024
373.123
355.372
337.869
320.709
303.978
287.757
272.119
257.129
242.839
229.293
216.525
204.557
193.403
183.064
173.535
164.802
156.843
149.63
143.13
137.304
132.112
127.51
123.455
119.901
116.804
114.119
111.806
109.823
108.132
106.7
105.492
104.48
103.636
102.936
102.359
101.886
101.5
101.187
100.935
100.732
100.571
100.443
100.341
100.262
100.2
100.152
100.115
100.086
100.065
100.048
100.036
100.026
100.019
100.014
100.01
100.007
100.005
100.004
100.003
100.002
100.001
100.001
100.001
100
100
100
100
100
100
100
100
100
100
100
391.025
373.125
355.376
337.875
320.716
303.986
287.767
272.13
257.141
242.851
229.306
216.538
204.57
193.416
183.077
173.548
164.814
156.854
149.641
143.139
137.313
132.12
127.518
123.462
119.907
116.809
114.124
111.81
109.826
108.135
106.702
105.494
104.481
103.637
102.937
102.36
101.887
101.501
101.188
100.935
100.733
100.571
100.443
100.342
100.262
100.2
100.152
100.115
100.087
100.065
100.048
100.036
100.026
100.019
100.014
100.01
100.007
100.005
100.004
100.003
100.002
100.001
100.001
100.001
100
100
100
100
100
100
100
100
100
100
100
391.026
373.127
355.38
337.88
320.722
303.993
287.775
272.139
257.15
242.861
229.316
216.548
204.58
193.426
183.086
173.557
164.823
156.863
149.649
143.147
137.319
132.126
127.523
123.467
119.912
116.813
114.127
111.813
109.829
108.138
106.704
105.496
104.483
103.638
102.938
102.361
101.887
101.501
101.188
100.935
100.733
100.571
100.443
100.342
100.262
100.2
100.152
100.115
100.087
100.065
100.048
100.036
100.026
100.019
100.014
100.01
100.007
100.005
100.004
100.003
100.002
100.001
100.001
100.001
100
100
100
100
100
100
100
100
100
100
100
391.026
373.129
355.382
337.884
320.726
303.998
287.781
272.145
257.157
242.868
229.323
216.556
204.588
193.433
183.094
173.564
164.83
156.869
149.655
143.152
137.325
132.131
127.528
123.471
119.915
116.816
114.13
111.815
109.831
108.139
106.706
105.497
104.484
103.639
102.939
102.361
101.888
101.502
101.188
100.936
100.733
100.571
100.443
100.342
100.262
100.2
100.152
100.115
100.087
100.065
100.048
100.036
100.026
100.019
100.014
100.01
100.007
100.005
100.004
100.003
100.002
100.001
100.001
100.001
100
100
100
100
100
100
100
100
100
100
100
391.027
373.13
355.384
337.886
320.73
304.002
287.785
272.15
257.162
242.874
229.329
216.562
204.594
193.439
183.099
173.57
164.835
156.874
149.659
143.157
137.329
132.134
127.531
123.474
119.918
116.818
114.132
111.817
109.832
108.141
106.707
105.498
104.485
103.64
102.939
102.362
101.888
101.502
101.189
100.936
100.733
100.572
100.443
100.342
100.263
100.2
100.152
100.115
100.087
100.065
100.048
100.036
100.026
100.019
100.014
100.01
100.007
100.005
100.004
100.003
100.002
100.001
100.001
100.001
100
100
100
100
100
100
100
100
100
100
100
391.027
373.131
355.386
337.888
320.732
304.005
287.788
272.154
257.166
242.878
229.333
216.566
204.598
193.443
183.104
173.574
164.839
156.878
149.663
143.16
137.332
132.137
127.533
123.476
119.92
116.82
114.134
111.818
109.833
108.142
106.708
105.499
104.485
103.64
102.94
102.362
101.888
101.502
101.189
100.936
100.733
100.572
100.443
100.342
100.263
100.201
100.152
100.115
100.087
100.065
100.048
100.036
100.026
100.019
100.014
100.01
100.007
100.005
100.004
100.003
100.002
100.001
100.001
100.001
100
100
100
100
100
100
100
100
100
100
100
391.027
373.132
355.387
337.89
320.734
304.008
287.791
272.157
257.169
242.881
229.337
216.569
204.602
193.447
183.107
173.577
164.842
156.881
149.666
143.162
137.334
132.139
127.535
123.478
119.921
116.822
114.135
111.819
109.834
108.143
106.708
105.499
104.486
103.641
102.94
102.362
101.889
101.502
101.189
100.936
100.733
100.572
100.443
100.342
100.263
100.201
100.152
100.115
100.087
100.065
100.048
100.036
100.026
100.019
100.014
100.01
100.007
100.005
100.004
100.003
100.002
100.001
100.001
100.001
100
100
100
100
100
100
100
100
100
100
100
391.027
373.132
355.387
337.891
320.735
304.009
287.793
272.159
257.171
242.883
229.339
216.572
204.604
193.449
183.109
173.579
164.844
156.883
149.668
143.164
137.336
132.141
127.537
123.479
119.922
116.823
114.136
111.82
109.835
108.143
106.709
105.5
104.486
103.641
102.94
102.363
101.889
101.502
101.189
100.936
100.734
100.572
100.443
100.342
100.263
100.201
100.152
100.115
100.087
100.065
100.048
100.036
100.026
100.019
100.014
100.01
100.007
100.005
100.004
100.003
100.002
100.001
100.001
100.001
100
100
100
100
100
100
100
100
100
100
100
391.027
373.132
355.388
337.892
320.736
304.01
287.794
272.16
257.173
242.885
229.341
216.573
204.606
193.451
183.111
173.581
164.846
156.885
149.669
143.166
137.337
132.142
127.538
123.48
119.923
116.823
114.137
111.821
109.836
108.144
106.709
105.5
104.486
103.641
102.94
102.363
101.889
101.502
101.189
100.936
100.734
100.572
100.443
100.342
100.263
100.201
100.152
100.115
100.087
100.065
100.048
100.036
100.026
100.019
100.014
100.01
100.007
100.005
100.004
100.003
100.002
100.001
100.001
100.001
100
100
100
100
100
100
100
100
100
100
100
391.027
373.133
355.389
337.892
320.737
304.011
287.795
272.162
257.174
242.886
229.342
216.575
204.607
193.452
183.112
173.582
164.847
156.886
149.67
143.167
137.338
132.143
127.539
123.481
119.924
116.824
114.137
111.821
109.836
108.144
106.709
105.5
104.487
103.641
102.941
102.363
101.889
101.503
101.189
100.936
100.734
100.572
100.443
100.342
100.263
100.201
100.152
100.115
100.087
100.065
100.048
100.036
100.026
100.019
100.014
100.01
100.007
100.005
100.004
100.003
100.002
100.001
100.001
100.001
100
100
100
100
100
100
100
100
100
100
100
391.028
373.133
355.389
337.893
320.738
304.012
287.796
272.162
257.175
242.887
229.343
216.576
204.608
193.453
183.113
173.583
164.848
156.887
149.671
143.167
137.339
132.144
127.539
123.481
119.924
116.824
114.137
111.821
109.836
108.144
106.71
105.5
104.487
103.642
102.941
102.363
101.889
101.503
101.189
100.936
100.734
100.572
100.443
100.342
100.263
100.201
100.152
100.115
100.087
100.065
100.048
100.036
100.026
100.019
100.014
100.01
100.007
100.005
100.004
100.003
100.002
100.001
100.001
100.001
100
100
100
100
100
100
100
100
100
100
100
391.028
373.133
355.389
337.893
320.738
304.012
287.797
272.163
257.175
242.888
229.344
216.577
204.609
193.454
183.114
173.584
164.849
156.887
149.672
143.168
137.339
132.144
127.54
123.482
119.925
116.825
114.138
111.822
109.836
108.144
106.71
105.501
104.487
103.642
102.941
102.363
101.889
101.503
101.189
100.936
100.734
100.572
100.443
100.342
100.263
100.201
100.152
100.115
100.087
100.065
100.048
100.036
100.026
100.019
100.014
100.01
100.007
100.005
100.004
100.003
100.002
100.001
100.001
100.001
100
100
100
100
100
100
100
100
100
100
100
391.028
373.133
355.389
337.893
320.739
304.013
287.797
272.163
257.176
242.888
229.344
216.577
204.61
193.454
183.115
173.584
164.849
156.888
149.672
143.168
137.339
132.144
127.54
123.482
119.925
116.825
114.138
111.822
109.837
108.144
106.71
105.501
104.487
103.642
102.941
102.363
101.889
101.503
101.189
100.936
100.734
100.572
100.444
100.342
100.263
100.201
100.152
100.115
100.087
100.065
100.048
100.036
100.026
100.019
100.014
100.01
100.007
100.005
100.004
100.003
100.002
100.001
100.001
100.001
100
100
100
100
100
100
100
100
100
100
100
391.028
373.133
355.389
337.893
320.739
304.013
287.797
272.164
257.176
242.889
229.345
216.578
204.61
193.455
183.115
173.585
164.85
156.888
149.672
143.169
137.34
132.145
127.54
123.482
119.925
116.825
114.138
111.822
109.837
108.145
106.71
105.501
104.487
103.642
102.941
102.363
101.889
101.503
101.189
100.936
100.734
100.572
100.444
100.342
100.263
100.201
100.152
100.115
100.087
100.065
100.048
100.036
100.026
100.019
100.014
100.01
100.007
100.005
100.004
100.003
100.002
100.001
100.001
100.001
100
100
100
100
100
100
100
100
100
100
100
391.028
373.133
355.39
337.894
320.739
304.013
287.797
272.164
257.177
242.889
229.345
216.578
204.61
193.455
183.115
173.585
164.85
156.888
149.673
143.169
137.34
132.145
127.54
123.482
119.925
116.825
114.138
111.822
109.837
108.145
106.71
105.501
104.487
103.642
102.941
102.363
101.889
101.503
101.189
100.937
100.734
100.572
100.444
100.342
100.263
100.201
100.152
100.115
100.087
100.065
100.048
100.036
100.026
100.019
100.014
100.01
100.007
100.005
100.004
100.003
100.002
100.001
100.001
100.001
100
100
100
100
100
100
100
100
100
100
100
391.028
373.133
355.39
337.894
320.739
304.013
287.798
272.164
257.177
242.889
229.345
216.578
204.611
193.455
183.116
173.585
164.85
156.889
149.673
143.169
137.34
132.145
127.541
123.482
119.925
116.825
114.138
111.822
109.837
108.145
106.71
105.501
104.487
103.642
102.941
102.363
101.889
101.503
101.189
100.937
100.734
100.572
100.444