/*--------------------------------*- C++ -*----------------------------------*\
  =========                 |
  \\      /  F ield         | OpenFOAM: The Open Source CFD Toolbox
   \\    /   O peration     | Website:  https://openfoam.org
    \\  /    A nd           | Version:  10
     \\/     M anipulation  |
\*---------------------------------------------------------------------------*/
FoamFile
{
    format      ascii;
    class       volScalarField;
    location    "373";
    object      T;
}
// * * * * * * * * * * * * * * * * * * * * * * * * * * * * * * * * * * * * * //

dimensions      [0 0 0 1 0 0 0];

internalField   nonuniform List<scalar> 
11250
(
249.858
167.602
139.435
127.048
120.301
116.029
113.046
110.825
109.096
107.708
106.566
105.612
104.805
104.117
103.525
103.015
102.575
102.194
101.864
101.579
101.333
101.122
100.941
100.785
100.653
100.541
100.446
100.366
100.299
100.243
100.197
100.159
100.127
100.101
100.081
100.064
100.05
100.039
100.03
100.024
100.018
100.014
100.011
100.008
100.006
100.005
100.003
100.003
100.002
100.001
100.001
100.001
100.001
100
100
100
100
100
100
100
100
100
100
100
100
100
100
100
100
100
100
100
100
100
100
331.545
248.723
202.532
175.515
158.441
146.815
138.398
132.005
126.972
122.9
119.537
116.717
114.325
112.279
110.521
109.003
107.69
106.553
105.57
104.719
103.986
103.354
102.812
102.348
101.953
101.618
101.334
101.095
100.895
100.728
100.589
100.475
100.38
100.304
100.241
100.19
100.15
100.117
100.091
100.07
100.054
100.042
100.032
100.024
100.018
100.014
100.01
100.008
100.006
100.004
100.003
100.002
100.002
100.001
100.001
100.001
100
100
100
100
100
100
100
100
100
100
100
100
100
100
100
100
100
100
100
359.149
293.228
246.481
214.074
191.175
174.444
161.782
151.891
143.958
137.458
132.042
127.472
123.577
120.235
117.354
114.862
112.703
110.831
109.21
107.807
106.596
105.552
104.656
103.889
103.235
102.68
102.21
101.814
101.483
101.206
100.976
100.787
100.631
100.503
100.4
100.316
100.248
100.194
100.151
100.117
100.09
100.069
100.053
100.04
100.03
100.023
100.017
100.012
100.009
100.007
100.005
100.004
100.003
100.002
100.001
100.001
100.001
100
100
100
100
100
100
100
100
100
100
100
100
100
100
100
100
100
100
370.981
318.584
276.13
243.184
217.814
198.089
182.491
169.926
159.625
151.053
143.829
137.681
132.409
127.863
123.929
120.516
117.552
114.978
112.744
110.809
109.136
107.694
106.455
105.393
104.488
103.718
103.067
102.518
102.058
101.675
101.356
101.093
100.876
100.699
100.555
100.439
100.345
100.27
100.21
100.162
100.125
100.096
100.073
100.055
100.042
100.031
100.023
100.017
100.013
100.009
100.007
100.005
100.004
100.003
100.002
100.001
100.001
100.001
100
100
100
100
100
100
100
100
100
100
100
100
100
100
100
100
100
377.185
334.032
296.329
264.795
238.908
217.725
200.303
185.845
173.726
163.471
154.718
147.197
140.7
135.064
130.165
125.899
122.183
118.948
116.136
113.696
111.584
109.76
108.192
106.848
105.7
104.724
103.898
103.201
102.617
102.13
101.725
101.39
101.115
100.89
100.707
100.558
100.439
100.343
100.267
100.207
100.159
100.122
100.093
100.071
100.053
100.04
100.03
100.022
100.016
100.012
100.009
100.006
100.005
100.003
100.002
100.002
100.001
100.001
100.001
100
100
100
100
100
100
100
100
100
100
100
100
100
100
100
100
380.928
344.074
310.432
280.863
255.425
233.751
215.322
199.615
186.17
174.603
164.603
155.923
148.363
141.765
135.999
130.958
126.552
122.707
119.356
116.443
113.917
111.734
109.854
108.241
106.863
105.69
104.696
103.859
103.156
102.569
102.081
101.677
101.345
101.074
100.853
100.674
100.53
100.415
100.323
100.25
100.192
100.147
100.112
100.085
100.064
100.048
100.036
100.027
100.02
100.015
100.011
100.008
100.006
100.004
100.003
100.002
100.001
100.001
100.001
100
100
100
100
100
100
100
100
100
100
100
100
100
100
100
100
383.399
350.96
320.551
292.921
268.332
246.715
227.826
211.354
196.985
184.431
173.443
163.808
155.349
147.918
141.389
135.656
130.628
126.225
122.38
119.03
116.12
113.601
111.429
109.564
107.968
106.609
105.458
104.486
103.67
102.988
102.421
101.952
101.566
101.25
100.993
100.785
100.617
100.483
100.376
100.291
100.224
100.172
100.131
100.099
100.075
100.056
100.042
100.031
100.023
100.017
100.012
100.009
100.006
100.005
100.003
100.002
100.002
100.001
100.001
100.001
100
100
100
100
100
100
100
100
100
100
100
100
100
100
100
385.128
355.878
327.995
302.081
278.446
257.165
238.157
221.26
206.276
193.002
181.25
170.846
161.641
153.501
146.311
139.97
134.387
129.485
125.191
121.442
118.179
115.351
112.909
110.808
109.01
107.477
106.177
105.079
104.156
103.385
102.744
102.213
101.776
101.418
101.127
100.891
100.701
100.548
100.427
100.331
100.255
100.195
100.149
100.113
100.085
100.064
100.048
100.035
100.026
100.019
100.014
100.01
100.007
100.005
100.004
100.003
100.002
100.001
100.001
100.001
100
100
100
100
100
100
100
100
100
100
100
100
100
100
100
386.386
359.502
333.589
309.126
286.411
265.583
246.654
229.559
214.186
200.403
188.072
177.061
167.246
158.513
150.759
143.89
137.82
132.474
127.778
123.669
120.087
116.976
114.285
111.969
109.983
108.289
106.851
105.636
104.614
103.759
103.048
102.459
101.974
101.577
101.253
100.991
100.779
100.61
100.475
100.368
100.283
100.217
100.166
100.126
100.095
100.071
100.053
100.039
100.029
100.021
100.016
100.011
100.008
100.006
100.004
100.003
100.002
100.002
100.001
100.001
100.001
100
100
100
100
100
100
100
100
100
100
100
100
100
100
387.327
362.235
337.866
314.604
292.72
272.372
253.627
236.479
220.877
206.742
193.982
182.498
172.191
162.968
154.739
147.417
140.926
135.189
130.138
125.708
121.838
118.471
115.556
113.042
110.885
109.043
107.478
106.154
105.04
104.108
103.332
102.689
102.159
101.725
101.371
101.085
100.853
100.668
100.52
100.403
100.311
100.238
100.182
100.138
100.104
100.078
100.058
100.043
100.032
100.023
100.017
100.012
100.009
100.006
100.005
100.003
100.002
100.002
100.001
100.001
100.001
100
100
100
100
100
100
100
100
100
100
100
100
100
100
388.046
364.332
341.18
318.904
297.742
277.858
259.342
242.228
226.506
212.137
199.063
187.215
176.518
166.894
158.268
150.564
143.709
137.634
132.271
127.557
123.431
119.836
116.718
114.026
111.714
109.737
108.056
106.632
105.434
104.431
103.595
102.902
102.331
101.863
101.481
101.172
100.922
100.722
100.562
100.436
100.336
100.258
100.196
100.149
100.112
100.084
100.063
100.047
100.035
100.025
100.019
100.014
100.01
100.007
100.005
100.004
100.003
100.002
100.001
100.001
100.001
100
100
100
100
100
100
100
100
100
100
100
100
100
100
388.603
365.964
343.778
322.306
301.761
282.299
264.024
246.993
231.223
216.704
203.405
191.28
180.275
170.327
161.373
153.347
146.184
139.817
134.184
129.221
124.87
121.072
117.773
114.922
112.469
110.371
108.584
107.071
105.796
104.728
103.837
103.099
102.49
101.99
101.583
101.253
100.986
100.772
100.602
100.466
100.359
100.276
100.21
100.16
100.12
100.09
100.068
100.05
100.037
100.027
100.02
100.014
100.01
100.008
100.005
100.004
100.003
100.002
100.001
100.001
100.001
100
100
100
100
100
100
100
100
100
100
100
100
100
100
389.039
367.246
345.83
325.014
304.988
285.9
267.859
250.934
235.161
220.552
207.094
194.761
183.514
173.306
164.084
155.791
148.367
141.751
135.885
130.706
126.158
122.181
118.723
115.73
113.153
110.945
109.065
107.47
106.126
104.999
104.059
103.279
102.635
102.107
101.676
101.327
101.045
100.818
100.638
100.494
100.381
100.292
100.223
100.169
100.128
100.096
100.072
100.053
100.039
100.029
100.021
100.015
100.011
100.008
100.006
100.004
100.003
100.002
100.001
100.001
100.001
100
100
100
100
100
100
100
100
100
100
100
100
100
100
389.384
368.262
347.462
327.18
307.588
288.825
270.999
254.188
238.44
223.781
210.213
197.725
186.291
175.876
166.435
157.92
150.278
143.452
137.386
132.022
127.302
123.17
119.572
116.454
113.766
111.462
109.497
107.83
106.424
105.244
104.259
103.442
102.767
102.213
101.761
101.394
101.098
100.86
100.67
100.52
100.401
100.307
100.235
100.178
100.134
100.101
100.075
100.056
100.041
100.03
100.022
100.016
100.012
100.008
100.006
100.004
100.003
100.002
100.002
100.001
100.001
100
100
100
100
100
100
100
100
100
100
100
100
100
100
389.658
369.07
348.766
328.92
309.688
291.202
273.569
256.871
241.163
226.48
212.839
200.236
188.658
178.078
168.46
159.763
151.939
144.937
138.702
133.179
128.312
124.045
120.325
117.097
114.313
111.924
109.885
108.153
106.692
105.465
104.44
103.589
102.886
102.309
101.838
101.455
101.146
100.898
100.7
100.543
100.419
100.321
100.245
100.186
100.141
100.106
100.079
100.059
100.043
100.032
100.023
100.017
100.012
100.009
100.006
100.004
100.003
100.002
100.002
100.001
100.001
100.001
100
100
100
100
100
100
100
100
100
100
100
100
100
389.877
369.717
349.812
330.32
311.386
293.135
275.671
259.078
243.418
228.73
215.04
202.353
190.664
179.954
170.195
161.349
153.375
146.224
139.847
134.189
129.196
124.813
120.988
117.666
114.797
112.333
110.229
108.441
106.93
105.662
104.601
103.721
102.993
102.395
101.907
101.51
101.19
100.933
100.727
100.564
100.435
100.334
100.255
100.193
100.146
100.11
100.082
100.061
100.045
100.033
100.024
100.018
100.013
100.009
100.007
100.005
100.003
100.002
100.002
100.001
100.001
100.001
100
100
100
100
100
100
100
100
100
100
100
100
100
390.052
370.236
350.652
331.449
312.76
294.707
277.39
260.893
245.28
230.599
216.878
204.13
192.357
181.545
171.671
162.705
154.607
147.334
140.837
135.065
129.965
125.484
121.568
118.164
115.222
112.693
110.532
108.695
107.142
105.836
104.745
103.838
103.088
102.472
101.969
101.56
101.229
100.963
100.751
100.583
100.45
100.345
100.263
100.2
100.151
100.114
100.085
100.063
100.047
100.034
100.025
100.018
100.013
100.009
100.007
100.005
100.003
100.002
100.002
100.001
100.001
100.001
100
100
100
100
100
100
100
100
100
100
100
100
100
390.193
370.652
351.329
332.36
313.873
295.984
278.792
262.38
246.815
232.146
218.406
205.615
193.778
182.886
172.921
163.857
155.658
148.284
141.687
135.82
130.63
126.065
122.071
118.598
115.593
113.008
110.798
108.917
107.327
105.99
104.871
103.941
103.172
102.54
102.023
101.603
101.264
100.991
100.773
100.599
100.463
100.355
100.271
100.206
100.156
100.117
100.087
100.065
100.048
100.035
100.026
100.019
100.014
100.01
100.007
100.005
100.004
100.002
100.002
100.001
100.001
100.001
100
100
100
100
100
100
100
100
100
100
100
100
100
390.306
370.987
351.873
333.095
314.774
297.022
279.935
263.597
248.076
233.422
219.673
206.851
194.965
184.011
173.974
164.831
156.55
149.092
142.413
136.466
131.201
126.565
122.506
118.973
115.914
113.282
111.029
109.112
107.489
106.124
104.982
104.032
103.246
102.6
102.071
101.642
101.294
101.015
100.792
100.614
100.474
100.364
100.278
100.211
100.159
100.12
100.09
100.067
100.049
100.036
100.026
100.019
100.014
100.01
100.007
100.005
100.004
100.003
100.002
100.001
100.001
100.001
100
100
100
100
100
100
100
100
100
100
100
100
100
390.397
371.257
352.312
333.688
315.503
297.863
280.865
264.591
249.109
234.472
220.719
207.876
195.953
184.95
174.857
165.65
157.303
149.776
143.03
137.017
131.688
126.993
122.879
119.295
116.191
113.518
111.229
109.28
107.63
106.241
105.078
104.111
103.31
102.652
102.113
101.675
101.321
101.036
100.808
100.627
100.484
100.372
100.284
100.216
100.163
100.122
100.092
100.068
100.05
100.037
100.027
100.02
100.014
100.01
100.007
100.005
100.004
100.003
100.002
100.001
100.001
100.001
100
100
100
100
100
100
100
100
100
100
100
100
100
390.47
371.473
352.665
334.167
316.091
298.545
281.621
265.401
249.954
235.333
221.58
208.721
196.771
185.731
175.592
166.336
157.934
150.352
143.55
137.482
132.101
127.356
123.196
119.571
116.428
113.72
111.401
109.424
107.751
106.341
105.161
104.179
103.366
102.697
102.15
101.704
101.344
101.054
100.823
100.639
100.493
100.379
100.289
100.22
100.166
100.125
100.093
100.069
100.051
100.038
100.028
100.02
100.015
100.01
100.007
100.005
100.004
100.003
100.002
100.001
100.001
100.001
100
100
100
100
100
100
100
100
100
100
100
100
100
390.529
371.647
352.949
334.552
316.566
299.096
282.233
266.059
250.642
236.037
222.285
209.417
197.446
186.377
176.203
166.906
158.46
150.834
143.986
137.874
132.449
127.664
123.466
119.804
116.63
113.893
111.547
109.548
107.854
106.428
105.233
104.238
103.414
102.736
102.181
101.729
101.364
101.07
100.835
100.648
100.501
100.384
100.294
100.223
100.169
100.127
100.095
100.07
100.052
100.038
100.028
100.02
100.015
100.011
100.008
100.005
100.004
100.003
100.002
100.001
100.001
100.001
100
100
100
100
100
100
100
100
100
100
100
100
100
390.576
371.787
353.177
334.861
316.948
299.54
282.728
266.592
251.2
236.609
222.861
209.986
198
186.909
176.707
167.378
158.898
151.234
144.35
138.201
132.741
127.922
123.692
120.001
116.8
114.039
111.671
109.653
107.943
106.501
105.294
104.288
103.455
102.769
102.208
101.751
101.381
101.084
100.846
100.657
100.507
100.39
100.298
100.226
100.171
100.129
100.096
100.071
100.053
100.039
100.028
100.021
100.015
100.011
100.008
100.006
100.004
100.003
100.002
100.001
100.001
100.001
100
100
100
100
100
100
100
100
100
100
100
100
100
390.613
371.899
353.36
335.109
317.255
299.897
283.126
267.022
251.653
237.074
223.33
210.45
198.453
187.345
177.121
167.767
159.259
151.566
144.652
138.473
132.985
128.137
123.881
120.167
116.943
114.162
111.776
109.742
108.017
106.564
105.345
104.331
103.49
102.798
102.231
101.77
101.396
101.096
100.855
100.664
100.513
100.394
100.301
100.229
100.173
100.13
100.097
100.072
100.053
100.039
100.029
100.021
100.015
100.011
100.008
100.006
100.004
100.003
100.002
100.001
100.001
100.001
100
100
100
100
100
100
100
100
100
100
100
100
100
390.643
371.988
353.506
335.308
317.501
300.184
283.447
267.368
252.017
237.45
223.71
210.827
198.822
187.7
177.46
168.085
159.555
151.84
144.901
138.699
133.186
128.316
124.039
120.304
117.062
114.264
111.864
109.816
108.08
106.616
105.389
104.367
103.519
102.822
102.25
101.785
101.409
101.106
100.863
100.67
100.518
100.398
100.304
100.231
100.175
100.131
100.098
100.073
100.054
100.04
100.029
100.021
100.015
100.011
100.008
100.006
100.004
100.003
100.002
100.001
100.001
100.001
100
100
100
100
100
100
100
100
100
100
100
100
100
390.667
372.059
353.622
335.466
317.697
300.413
283.703
267.646
252.311
237.753
224.016
211.132
199.121
187.989
177.735
168.345
159.798
152.063
145.106
138.884
133.353
128.464
124.17
120.418
117.161
114.35
111.937
109.878
108.132
106.66
105.425
104.397
103.544
102.842
102.267
101.798
101.419
101.114
100.87
100.675
100.522
100.401
100.306
100.233
100.176
100.132
100.099
100.074
100.054
100.04
100.029
100.021
100.015
100.011
100.008
100.006
100.004
100.003
100.002
100.001
100.001
100.001
100
100
100
100
100
100
100
100
100
100
100
100
100
390.686
372.116
353.714
335.592
317.854
300.596
283.908
267.869
252.546
237.996
224.262
211.378
199.362
188.223
177.959
168.557
159.995
152.246
145.273
139.035
133.489
128.586
124.277
120.512
117.243
114.42
111.997
109.93
108.176
106.696
105.456
104.422
103.565
102.859
102.28
101.809
101.428
101.121
100.875
100.68
100.525
100.403
100.308
100.234
100.177
100.133
100.1
100.074
100.055
100.04
100.03
100.022
100.016
100.011
100.008
100.006
100.004
100.003
100.002
100.001
100.001
100.001
100
100
100
100
100
100
100
100
100
100
100
100
100
390.701
372.16
353.788
335.693
317.978
300.742
284.071
268.046
252.733
238.19
224.459
211.575
199.556
188.411
178.139
168.727
160.155
152.394
145.408
139.159
133.6
128.685
124.364
120.589
117.31
114.478
112.047
109.972
108.211
106.726
105.481
104.442
103.582
102.873
102.292
101.818
101.435
101.127
100.88
100.683
100.528
100.406
100.31
100.236
100.178
100.134
100.1
100.075
100.055
100.041
100.03
100.022
100.016
100.011
100.008
100.006
100.004
100.003
100.002
100.001
100.001
100.001
100
100
100
100
100
100
100
100
100
100
100
100
100
390.713
372.196
353.846
335.772
318.076
300.857
284.201
268.187
252.882
238.344
224.617
211.732
199.711
188.562
178.283
168.864
160.284
152.513
145.518
139.258
133.69
128.765
124.436
120.652
117.365
114.526
112.088
110.007
108.241
106.751
105.501
104.46
103.596
102.884
102.301
101.826
101.441
101.132
100.884
100.686
100.53
100.408
100.311
100.237
100.179
100.135
100.101
100.075
100.055
100.041
100.03
100.022
100.016
100.011
100.008
100.006
100.004
100.003
100.002
100.001
100.001
100.001
100
100
100
100
100
100
100
100
100
100
100
100
100
390.723
372.224
353.892
335.834
318.154
300.948
284.303
268.298
253
238.467
224.741
211.857
199.834
188.682
178.399
168.974
160.387
152.609
145.606
139.339
133.762
128.83
124.494
120.703
117.409
114.564
112.121
110.035
108.265
106.771
105.518
104.474
103.607
102.894
102.309
101.832
101.446
101.136
100.887
100.689
100.532
100.409
100.313
100.238
100.18
100.135
100.101
100.075
100.056
100.041
100.03
100.022
100.016
100.011
100.008
100.006
100.004
100.003
100.002
100.001
100.001
100.001
100
100
100
100
100
100
100
100
100
100
100
100
100
390.73
372.246
353.927
335.883
318.215
301.019
284.383
268.385
253.093
238.564
224.84
211.956
199.932
188.777
178.491
169.061
160.469
152.685
145.677
139.403
133.821
128.882
124.54
120.744
117.445
114.595
112.148
110.058
108.284
106.787
105.532
104.485
103.617
102.901
102.315
101.837
101.45
101.139
100.889
100.691
100.534
100.41
100.314
100.238
100.18
100.136
100.101
100.075
100.056
100.041
100.03
100.022
100.016
100.011
100.008
100.006
100.004
100.003
100.002
100.001
100.001
100.001
100
100
100
100
100
100
100
100
100
100
100
100
100
390.736
372.263
353.955
335.921
318.263
301.075
284.446
268.454
253.167
238.64
224.918
212.034
200.009
188.853
178.563
169.131
160.534
152.746
145.733
139.454
133.867
128.924
124.577
120.777
117.474
114.62
112.169
110.076
108.3
106.801
105.543
104.494
103.624
102.908
102.32
101.841
101.454
101.142
100.892
100.693
100.535
100.411
100.314
100.239
100.181
100.136
100.102
100.076
100.056
100.041
100.03
100.022
100.016
100.011
100.008
100.006
100.004
100.003
100.002
100.001
100.001
100.001
100
100
100
100
100
100
100
100
100
100
100
100
100
390.74
372.276
353.977
335.951
318.3
301.119
284.495
268.508
253.224
238.699
224.979
212.095
200.07
188.912
178.621
169.185
160.586
152.794
145.777
139.495
133.904
128.957
124.607
120.803
117.497
114.64
112.186
110.091
108.312
106.811
105.552
104.501
103.631
102.913
102.324
101.845
101.456
101.144
100.893
100.694
100.536
100.412
100.315
100.24
100.181
100.136
100.102
100.076
100.056
100.041
100.03
100.022
100.016
100.011
100.008
100.006
100.004
100.003
100.002
100.001
100.001
100.001
100
100
100
100
100
100
100
100
100
100
100
100
100
390.744
372.286
353.994
335.974
318.329
301.153
284.534
268.55
253.268
238.746
225.026
212.143
200.117
188.958
178.666
169.228
160.626
152.832
145.812
139.527
133.933
128.983
124.63
120.823
117.515
114.656
112.2
110.103
108.322
106.82
105.559
104.507
103.635
102.917
102.327
101.847
101.459
101.145
100.895
100.695
100.537
100.413
100.316
100.24
100.181
100.136
100.102
100.076
100.056
100.041
100.03
100.022
100.016
100.012
100.008
100.006
100.004
100.003
100.002
100.001
100.001
100.001
100
100
100
100
100
100
100
100
100
100
100
100
100
390.746
372.294
354.007
335.992
318.351
301.179
284.563
268.582
253.303
238.782
225.063
212.18
200.154
188.995
178.701
169.261
160.658
152.862
145.84
139.552
133.956
129.004
124.648
120.84
117.529
114.668
112.211
110.112
108.33
106.826
105.565
104.512
103.639
102.92
102.33
101.85
101.46
101.147
100.896
100.696
100.538
100.413
100.316
100.24
100.182
100.137
100.102
100.076
100.056
100.041
100.03
100.022
100.016
100.012
100.008
100.006
100.004
100.003
100.002
100.001
100.001
100.001
100
100
100
100
100
100
100
100
100
100
100
100
100
390.748
372.3
354.017
336.006
318.368
301.199
284.586
268.607
253.33
238.81
225.092
212.209
200.183
189.023
178.728
169.287
160.682
152.885
145.861
139.572
133.974
129.02
124.663
120.853
117.54
114.678
112.219
110.119
108.336
106.832
105.569
104.516
103.642
102.922
102.332
101.851
101.462
101.148
100.897
100.697
100.538
100.414
100.316
100.24
100.182
100.137
100.102
100.076
100.056
100.041
100.03
100.022
100.016
100.012
100.008
100.006
100.004
100.003
100.002
100.001
100.001
100.001
100
100
100
100
100
100
100
100
100
100
100
100
100
390.75
372.305
354.025
336.017
318.381
301.215
284.604
268.626
253.35
238.831
225.114
212.231
200.205
189.044
178.749
169.308
160.701
152.903
145.878
139.587
133.988
129.033
124.674
120.863
117.549
114.686
112.226
110.125
108.341
106.836
105.572
104.519
103.645
102.924
102.334
101.853
101.463
101.149
100.897
100.697
100.539
100.414
100.317
100.241
100.182
100.137
100.102
100.076
100.056
100.042
100.03
100.022
100.016
100.012
100.008
100.006
100.004
100.003
100.002
100.001
100.001
100.001
100
100
100
100
100
100
100
100
100
100
100
100
100
390.751
372.309
354.031
336.025
318.391
301.227
284.617
268.641
253.366
238.847
225.131
212.248
200.222
189.061
178.765
169.323
160.716
152.916
145.89
139.599
133.998
129.042
124.683
120.87
117.556
114.692
112.231
110.129
108.345
106.839
105.575
104.521
103.647
102.926
102.335
101.854
101.464
101.149
100.898
100.698
100.539
100.414
100.317
100.241
100.182
100.137
100.103
100.076
100.056
100.042
100.03
100.022
100.016
100.012
100.008
100.006
100.004
100.003
100.002
100.001
100.001
100.001
100
100
100
100
100
100
100
100
100
100
100
100
100
390.752
372.311
354.036
336.031
318.399
301.236
284.627
268.652
253.378
238.86
225.143
212.261
200.235
189.074
178.777
169.335
160.727
152.927
145.9
139.608
134.007
129.05
124.689
120.876
117.561
114.696
112.235
110.133
108.348
106.841
105.577
104.523
103.648
102.927
102.336
101.854
101.464
101.15
100.898
100.698
100.539
100.415
100.317
100.241
100.182
100.137
100.103
100.076
100.056
100.042
100.03
100.022
100.016
100.012
100.008
100.006
100.004
100.003
100.002
100.001
100.001
100.001
100
100
100
100
100
100
100
100
100
100
100
100
100
390.753
372.313
354.039
336.035
318.405
301.242
284.635
268.661
253.387
238.869
225.153
212.271
200.245
189.083
178.787
169.344
160.736
152.935
145.908
139.615
134.013
129.056
124.695
120.881
117.565
114.7
112.238
110.136
108.35
106.843
105.579
104.524
103.649
102.928
102.337
101.855
101.465
101.15
100.899
100.698
100.54
100.415
100.317
100.241
100.182
100.137
100.103
100.076
100.057
100.042
100.03
100.022
100.016
100.012
100.008
100.006
100.004
100.003
100.002
100.001
100.001
100.001
100
100
100
100
100
100
100
100
100
100
100
100
100
390.753
372.315
354.041
336.039
318.409
301.248
284.641
268.667
253.394
238.876
225.161
212.279
200.252
189.091
178.794
169.351
160.742
152.941
145.913
139.62
134.018
129.06
124.698
120.884
117.568
114.703
112.24
110.138
108.352
106.845
105.58
104.525
103.65
102.929
102.337
101.855
101.465
101.151
100.899
100.698
100.54
100.415
100.317
100.241
100.182
100.137
100.103
100.076
100.057
100.042
100.03
100.022
100.016
100.012
100.008
100.006
100.004
100.003
100.002
100.001
100.001
100.001
100
100
100
100
100
100
100
100
100
100
100
100
100
390.754
372.316
354.043
336.042
318.413
301.251
284.645
268.672
253.399
238.882
225.166
212.284
200.258
189.096
178.799
169.356
160.747
152.946
145.918
139.624
134.021
129.063
124.701
120.887
117.571
114.705
112.242
110.139
108.353
106.846
105.581
104.526
103.651
102.929
102.338
101.856
101.465
101.151
100.899
100.699
100.54
100.415
100.317
100.241
100.182
100.137
100.103
100.076
100.057
100.042
100.03
100.022
100.016
100.012
100.008
100.006
100.004
100.003
100.002
100.001
100.001
100.001
100
100
100
100
100
100
100
100
100
100
100
100
100
390.754
372.317
354.045
336.044
318.415
301.254
284.649
268.675
253.403
238.886
225.17
212.288
200.262
189.1
178.803
169.36
160.751
152.949
145.921
139.627
134.024
129.066
124.704
120.889
117.572
114.706
112.244
110.14
108.354
106.847
105.582
104.527
103.651
102.93
102.338
101.856
101.466
101.151
100.899
100.699
100.54
100.415
100.317
100.241
100.182
100.137
100.103
100.076
100.057
100.042
100.03
100.022
100.016
100.012
100.008
100.006
100.004
100.003
100.002
100.001
100.001
100.001
100
100
100
100
100
100
100
100
100
100
100
100
100
390.754
372.318
354.046
336.045
318.417
301.256
284.651
268.678
253.405
238.889
225.173
212.292
200.265
189.103
178.806
169.363
160.754
152.952
145.923
139.629
134.026
129.068
124.705
120.89
117.574
114.707
112.245
110.141
108.355
106.848
105.582
104.527
103.652
102.93
102.338
101.856
101.466
101.151
100.899
100.699
100.54
100.415
100.317
100.241
100.182
100.137
100.103
100.076
100.057
100.042
100.03
100.022
100.016
100.012
100.008
100.006
100.004
100.003
100.002
100.001
100.001
100.001
100
100
100
100
100
100
100
100
100
100
100
100
100
390.754
372.318
354.047
336.046
318.418
301.258
284.653
268.68
253.407
238.891
225.176
212.294
200.267
189.106
178.808
169.365
160.756
152.954
145.925
139.631
134.028
129.069
124.707
120.892
117.575
114.708
112.245
110.142
108.356
106.848
105.583
104.527
103.652
102.93
102.339
101.857
101.466
101.151
100.899
100.699
100.54
100.415
100.317
100.241
100.183
100.137
100.103
100.076
100.057
100.042
100.03
100.022
100.016
100.012
100.008
100.006
100.004
100.003
100.002
100.001
100.001
100.001
100
100
100
100
100
100
100
100
100
100
100
100
100
390.754
372.319
354.047
336.047
318.419
301.259
284.654
268.682
253.409
238.893
225.177
212.296
200.269
189.107
178.81
169.366
160.757
152.955
145.927
139.632
134.029
129.07
124.708
120.892
117.575
114.709
112.246
110.142
108.356
106.848
105.583
104.528
103.652
102.93
102.339
101.857
101.466
101.151
100.899
100.699
100.54
100.415
100.317
100.241
100.183
100.137
100.103
100.076
100.057
100.042
100.03
100.022
100.016
100.012
100.008
100.006
100.004
100.003
100.002
100.001
100.001
100.001
100
100
100
100
100
100
100
100
100
100
100
100
100
390.755
372.319
354.048
336.047
318.42
301.26
284.655
268.683
253.41
238.894
225.179
212.297
200.27
189.109
178.811
169.368
160.758
152.956
145.928
139.633
134.03
129.071
124.708
120.893
117.576
114.709
112.246
110.143
108.356
106.849
105.583
104.528
103.652
102.931
102.339
101.857
101.466
101.151
100.899
100.699
100.54
100.415
100.317
100.241
100.183
100.137
100.103
100.076
100.057
100.042
100.03
100.022
100.016
100.012
100.008
100.006
100.004
100.003
100.002
100.001
100.001
100.001
100
100
100
100
100
100
100
100
100
100
100
100
100
390.755
372.319
354.048
336.048
318.42
301.261
284.656
268.683
253.411
238.895
225.179
212.298
200.271
189.109
178.812
169.368
160.759
152.957
145.928
139.634
134.03
129.071
124.709
120.893
117.576
114.71
112.247
110.143
108.357
106.849
105.584
104.528
103.652
102.931
102.339
101.857
101.466
101.151
100.9
100.699
100.54
100.415
100.317
100.241
100.183
100.137
100.103
100.076
100.057
100.042
100.03
100.022
100.016
100.012
100.008
100.006
100.004
100.003
100.002
100.001
100.001
100.001
100
100
100
100
100
100
100
100
100
100
100
100
100
390.755
372.319
354.048
336.048
318.421
301.261
284.656
268.684
253.412
238.895
225.18
212.298
200.272
189.11
178.813
169.369
160.76
152.958
145.929
139.634
134.031
129.072
124.709
120.894
117.577
114.71
112.247
110.143
108.357
106.849
105.584
104.528
103.653
102.931
102.339
101.857
101.466
101.152
100.9
100.699
100.54
100.415
100.317
100.241
100.183
100.137
100.103
100.076
100.057
100.042
100.03
100.022
100.016
100.012
100.008
100.006
100.004
100.003
100.002
100.001
100.001
100.001
100
100
100
100
100
100
100
100
100
100
100
100
100
390.755
372.319
354.048
336.048
318.421
301.261
284.657
268.684
253.412
238.896
225.181
212.299
200.272
189.111
178.813
169.369
160.76
152.958
145.929
139.635
134.031
129.072
124.709
120.894
117.577
114.71
112.247
110.143
108.357
106.849
105.584
104.528
103.653
102.931
102.339
101.857
101.466
101.152
100.9
100.699
100.54
100.415
100.317
100.241
100.183
100.137
100.103
100.076
100.057
100.042
100.03
100.022
100.016
100.012
100.008
100.006
100.004
100.003
100.002
100.001
100.001
100.001
100
100
100
100
100
100
100
100
100
100
100
100
100
390.755
372.319
354.048
336.049
318.421
301.262
284.657
268.685
253.412
238.896
225.181
212.299
200.273
189.111
178.813
169.37
160.76
152.958
145.929
139.635
134.031
129.072
124.71
120.894
117.577
114.71
112.247
110.143
108.357
106.849
105.584
104.528
103.653
102.931
102.339
101.857
101.466
101.152
100.9
100.699
100.54
100.415
100.317
100.241
100.183
100.137
100.103
100.076
100.057
100.042
100.03
100.022
100.016
100.012
100.008
100.006
100.004
100.003
100.002
100.001
100.001
100.001
100
100
100
100
100
100
100
100
100
100
100
100
100
390.755
372.319
354.049
336.049
318.421
301.262
284.657
268.685
253.413
238.896
225.181
212.3
200.273
189.111
178.814
169.37
160.761
152.958
145.93
139.635
134.032
129.072
124.71
120.894
117.577
114.71
112.247
110.143
108.357
106.849
105.584
104.528
103.653
102.931
102.339
101.857
101.466
101.152
100.9
100.699
100.54
100.415
100.317
100.241
100.183
100.137
100.103
100.076
100.057
100.042
100.03
100.022
100.016
100.012
100.008
100.006
100.004
100.003
100.002
100.001
100.001
100.001
100
100
100
100
100
100
100
100
100
100
100
100
100
390.755
372.319
354.049
336.049
318.421
301.262
284.657
268.685
253.413
238.897
225.181
212.3
200.273
189.111
178.814
169.37
160.761
152.959
145.93
139.635
134.032
129.073
124.71
120.894
117.577
114.71
112.247
110.143
108.357
106.849
105.584
104.528
103.653
102.931
102.339
101.857
101.466
101.152
100.9
100.699
100.54
100.415
100.317
100.241
100.183
100.137
100.103
100.076
100.057
100.042
100.03
100.022
100.016
100.012
100.008
100.006
100.004
100.003
100.002
100.001
100.001
100.001
100
100
100
100
100
100
100
100
100
100
100
100
100
390.755
372.319
354.049
336.049
318.422
301.262
284.657
268.685
253.413
238.897
225.181
212.3
200.273
189.111
178.814
169.37
160.761
152.959
145.93
139.635
134.032
129.073
124.71
120.894
117.577
114.71
112.247
110.144
108.357
106.849
105.584
104.528
103.653
102.931
102.339
101.857
101.466
101.152
100.9
100.699
100.54
100.415
100.317
100.241
100.183
100.137
100.103
100.076
100.057
100.042
100.03
100.022
100.016
100.012
100.008
100.006
100.004
100.003
100.002
100.001
100.001
100.001
100
100
100
100
100
100
100
100
100
100
100
100
100
390.755
372.319
354.049
336.049
318.422
301.262
284.657
268.685
253.413
238.897
225.182
212.3
200.273
189.112
178.814
169.37
160.761
152.959
145.93
139.635
134.032
129.073
124.71
120.894
117.577
114.711
112.247
110.144
108.357
106.849
105.584
104.528
103.653