/*--------------------------------*- C++ -*----------------------------------*\
  =========                 |
  \\      /  F ield         | OpenFOAM: The Open Source CFD Toolbox
   \\    /   O peration     | Website:  https://openfoam.org
    \\  /    A nd           | Version:  10
     \\/     M anipulation  |
\*---------------------------------------------------------------------------*/
FoamFile
{
    format      ascii;
    class       volScalarField;
    location    "189";
    object      gradTz;
}
// * * * * * * * * * * * * * * * * * * * * * * * * * * * * * * * * * * * * * //

dimensions      [0 -1 0 1 0 0 0];

internalField   nonuniform List<scalar> 
11250
(
-14366
-4161.04
-1539.89
-735.086
-428.805
-285.351
-205.951
-156.308
-122.436
-97.8097
-79.0572
-64.2927
-52.3958
-42.6637
-34.6328
-27.9805
-22.4699
-17.9183
-14.1776
-11.1239
-8.6507
-6.66534
-5.08673
-3.84412
-2.87618
-2.13024
-1.56166
-1.13305
-0.813555
-0.578064
-0.406445
-0.282782
-0.194679
-0.132617
-0.0893903
-0.0596199
-0.0393459
-0.0256928
-0.0166005
-0.0106124
-0.00671238
-0.00420031
-0.00260012
-0.00159208
-0.000964148
-0.000577373
-0.000341839
-0.000200054
-0.000115698
-6.6107e-05
-3.73067e-05
-2.07883e-05
-1.14345e-05
-6.20648e-06
-3.32338e-06
-1.75507e-06
-9.1385e-07
-4.69043e-07
-2.37248e-07
-1.18234e-07
-5.80453e-08
-2.80617e-08
-1.33767e-08
-6.27508e-09
-2.87137e-09
-1.2897e-09
-5.99299e-10
-2.84283e-10
-1.30616e-10
-5.70761e-11
-7.68332e-12
-5.48809e-12
-1.09762e-12
6.5857e-12
0
-8301.97
-4898.35
-2802.44
-1705.94
-1122.92
-791.465
-587.709
-452.914
-357.965
-287.594
-233.339
-190.265
-155.354
-126.678
-102.943
-83.2389
-66.8894
-53.3678
-42.2444
-33.157
-25.7926
-19.878
-15.1732
-11.4686
-8.58214
-6.35719
-4.66093
-3.38204
-2.42859
-1.72574
-1.21348
-0.844323
-0.5813
-0.396007
-0.26694
-0.178046
-0.117505
-0.0767335
-0.0495802
-0.0316969
-0.020049
-0.0125461
-0.00776667
-0.00475578
-0.00288014
-0.00172481
-0.00102123
-0.000597679
-0.000345675
-0.00019752
-0.000111475
-6.21206e-05
-3.41713e-05
-1.85491e-05
-9.93332e-06
-5.24624e-06
-2.73193e-06
-1.40234e-06
-7.09376e-07
-3.53576e-07
-1.73613e-07
-8.3937e-08
-3.995e-08
-1.87286e-08
-8.66898e-09
-3.94264e-09
-1.76058e-09
-7.99066e-10
-3.79776e-10
-1.80009e-10
-4.71976e-11
3.29285e-12
0
-8.78094e-12
8.78094e-12
-5638.61
-4325.09
-3062.95
-2160.96
-1563.46
-1168.29
-899.35
-708.961
-568.63
-461.374
-376.904
-308.832
-253.069
-206.91
-168.488
-136.455
-109.791
-87.6857
-69.4666
-54.5602
-42.4659
-32.7432
-25.0035
-18.9053
-14.1512
-10.4851
-7.68913
-5.58043
-4.0079
-2.84843
-2.00318
-1.39396
-0.959816
-0.653933
-0.440842
-0.294061
-0.194086
-0.126751
-0.0819037
-0.0523647
-0.0331238
-0.0207292
-0.0128331
-0.00785862
-0.00475955
-0.00285052
-0.00168787
-0.000987908
-0.00057142
-0.000326544
-0.000184312
-0.000102723
-5.65132e-05
-3.06814e-05
-1.64329e-05
-8.68047e-06
-4.52109e-06
-2.32116e-06
-1.17441e-06
-5.85468e-07
-2.87534e-07
-1.39081e-07
-6.62412e-08
-3.10527e-08
-1.43557e-08
-6.5418e-09
-2.92186e-09
-1.29629e-09
-5.99299e-10
-2.96357e-10
-1.04274e-10
-3.29285e-12
1.09762e-12
-1.09762e-12
-1.09762e-12
-4283.88
-3695.73
-2958.93
-2307.6
-1798.35
-1416.25
-1130.53
-913.768
-745.75
-612.555
-504.839
-416.343
-342.82
-281.322
-229.733
-186.472
-150.301
-120.212
-95.3461
-74.9587
-58.3898
-45.0518
-34.4224
-26.0398
-19.4999
-14.4535
-10.6027
-7.69714
-5.52952
-3.93072
-2.76485
-1.92432
-1.32521
-0.90301
-0.608834
-0.406167
-0.268108
-0.17511
-0.113163
-0.0723563
-0.0457736
-0.028648
-0.0177371
-0.0108626
-0.00657949
-0.00394087
-0.00233375
-0.0013661
-0.000790275
-0.000451676
-0.000254981
-0.000142134
-7.82104e-05
-4.24699e-05
-2.2752e-05
-1.20214e-05
-6.26281e-06
-3.21626e-06
-1.6278e-06
-8.11762e-07
-3.98801e-07
-1.92968e-07
-9.19584e-08
-4.31605e-08
-1.99327e-08
-9.05534e-09
-4.0546e-09
-1.80558e-09
-8.1553e-10
-3.7758e-10
-1.40495e-10
-2.63428e-11
-9.87856e-12
0
0
-3510.56
-3208.52
-2763.39
-2306.76
-1901.53
-1564.18
-1290.09
-1068.2
-887.395
-738.513
-614.617
-510.619
-422.815
-348.477
-285.544
-232.401
-187.729
-150.412
-119.473
-94.0401
-73.3274
-56.6256
-43.2969
-32.7736
-24.5558
-18.2095
-13.3635
-9.70483
-6.97404
-4.95898
-3.489
-2.42888
-1.67302
-1.14022
-0.768895
-0.513026
-0.338691
-0.221239
-0.14299
-0.0914386
-0.0578517
-0.0362112
-0.0224221
-0.0137334
-0.00831931
-0.00498358
-0.00295163
-0.00172805
-0.000999824
-0.000571546
-0.000322717
-0.000179932
-9.90335e-05
-5.37917e-05
-2.88257e-05
-1.52353e-05
-7.93987e-06
-4.07898e-06
-2.0652e-06
-1.0303e-06
-5.06381e-07
-2.45121e-07
-1.16856e-07
-5.48622e-08
-2.53615e-08
-1.15579e-08
-5.18734e-09
-2.28963e-09
-1.01639e-09
-4.79659e-10
-1.78912e-10
-2.41476e-11
-4.39047e-12
-5.48809e-12
5.48809e-12
-3030.72
-2856.14
-2571.67
-2247.69
-1931.02
-1644.23
-1394.09
-1179.49
-996.29
-839.813
-705.842
-590.9
-492.215
-407.585
-335.228
-273.659
-221.598
-177.905
-141.545
-111.568
-87.0962
-67.3249
-51.5215
-39.0277
-29.2602
-21.71
-15.9401
-11.581
-8.32539
-5.92186
-4.16771
-2.90214
-1.99949
-1.36302
-0.91932
-0.613504
-0.405093
-0.264654
-0.171075
-0.109413
-0.0692329
-0.0433406
-0.0268402
-0.0164415
-0.00996123
-0.00596805
-0.00353526
-0.00207011
-0.00119797
-0.000684964
-0.000386849
-0.000215746
-0.00011878
-6.4538e-05
-3.45963e-05
-1.82921e-05
-9.53669e-06
-4.9014e-06
-2.4827e-06
-1.23916e-06
-6.09319e-07
-2.95107e-07
-1.40779e-07
-6.61512e-08
-3.05961e-08
-1.39156e-08
-6.24983e-09
-2.77039e-09
-1.22384e-09
-5.5759e-10
-2.22816e-10
-5.1588e-11
0
4.39047e-12
3.29285e-12
-2715.2
-2603.74
-2410.28
-2173.1
-1923.69
-1682.09
-1458.54
-1256.89
-1077.47
-918.998
-779.651
-657.561
-551.004
-458.447
-378.517
-309.971
-251.65
-202.464
-161.373
-127.388
-99.5731
-77.0531
-59.0213
-44.7449
-33.5701
-24.9231
-18.3091
-13.3085
-9.57133
-6.81067
-4.79486
-3.33986
-2.3017
-1.56942
-1.05877
-0.70671
-0.466725
-0.304973
-0.197169
-0.126122
-0.0798173
-0.0499738
-0.0309525
-0.0189635
-0.0114909
-0.00688568
-0.00407958
-0.00238931
-0.00138299
-0.000790946
-0.000446825
-0.000249269
-0.000137281
-7.4617e-05
-4.00148e-05
-2.11658e-05
-1.10398e-05
-5.67664e-06
-2.87685e-06
-1.43664e-06
-7.06799e-07
-3.42518e-07
-1.63499e-07
-7.68541e-08
-3.5554e-08
-1.62184e-08
-7.29916e-09
-3.21273e-09
-1.39727e-09
-6.20154e-10
-2.72209e-10
-9.54927e-11
-7.68332e-12
0
5.48809e-12
-2499.3
-2421.9
-2281.98
-2101.27
-1900.52
-1695.5
-1496.45
-1309.2
-1136.56
-979.509
-838.068
-711.735
-599.774
-501.334
-415.501
-341.326
-277.829
-224.015
-178.879
-141.427
-110.694
-85.7567
-65.7528
-49.8909
-37.4589
-27.8285
-20.4554
-14.8762
-10.7037
-7.61953
-5.36627
-3.73911
-2.57761
-1.75802
-1.1863
-0.792012
-0.523168
-0.34192
-0.221095
-0.14145
-0.0895323
-0.0560653
-0.0347309
-0.0212817
-0.0128979
-0.00773012
-0.00458077
-0.00268342
-0.00155359
-0.000888746
-0.00050222
-0.000280261
-0.000154404
-8.39561e-05
-4.50418e-05
-2.38356e-05
-1.24383e-05
-6.39903e-06
-3.2447e-06
-1.62124e-06
-7.98092e-07
-3.87018e-07
-1.84833e-07
-8.69203e-08
-4.02507e-08
-1.83708e-08
-8.26286e-09
-3.64519e-09
-1.58167e-09
-6.87109e-10
-3.08431e-10
-1.37202e-10
-3.84166e-11
4.39047e-12
1.09762e-11
-2347.46
-2289.73
-2182.51
-2038.84
-1872.58
-1695.72
-1517.34
-1343.69
-1178.76
-1024.92
-883.471
-754.966
-639.501
-536.847
-446.537
-367.928
-300.244
-242.608
-194.079
-153.685
-120.449
-93.4223
-71.7025
-54.4531
-40.9158
-30.4173
-22.3717
-16.2785
-11.7183
-8.34533
-5.8797
-4.09828
-2.82609
-1.92804
-1.30136
-0.869039
-0.574173
-0.37533
-0.242745
-0.155328
-0.0983335
-0.0615867
-0.0381575
-0.0233854
-0.0141752
-0.00849728
-0.00503639
-0.00295097
-0.00170891
-0.000977861
-0.000552743
-0.000308558
-0.000170055
-9.25033e-05
-4.96488e-05
-2.62858e-05
-1.37238e-05
-7.06414e-06
-3.58396e-06
-1.79181e-06
-8.82619e-07
-4.28295e-07
-2.04685e-07
-9.63214e-08
-4.46269e-08
-2.03553e-08
-9.1684e-09
-4.05789e-09
-1.76058e-09
-7.74918e-10
-3.29285e-10
-1.32812e-10
-4.39047e-11
-3.29285e-12
0
-2238.66
-2192.89
-2106.31
-1987.25
-1845.29
-1689.55
-1527.74
-1365.89
-1208.44
-1058.52
-918.236
-788.931
-671.349
-565.782
-472.161
-390.135
-319.128
-258.394
-207.071
-164.221
-128.875
-100.072
-76.8827
-58.4381
-43.944
-32.6908
-24.0584
-17.5153
-12.6147
-8.98762
-6.3347
-4.41698
-3.04685
-2.07925
-1.4038
-0.937673
-0.619658
-0.405147
-0.26208
-0.16773
-0.106203
-0.0665268
-0.0412252
-0.0252697
-0.0153202
-0.0091853
-0.00544528
-0.00319126
-0.00184851
-0.00105803
-0.00059824
-0.000334067
-0.000184182
-0.000100228
-5.38183e-05
-2.85067e-05
-1.48909e-05
-7.66896e-06
-3.89302e-06
-1.94749e-06
-9.59882e-07
-4.66059e-07
-2.22909e-07
-1.04998e-07
-4.8676e-08
-2.21938e-08
-9.98393e-09
-4.44316e-09
-1.94608e-09
-8.33092e-10
-3.38066e-10
-1.6135e-10
-6.47594e-11
0
0
-2159.72
-2121.52
-2048.34
-1945.86
-1821
-1680.86
-1531.95
-1379.85
-1229.06
-1083.08
-944.526
-815.262
-696.523
-589.016
-493.005
-408.396
-334.799
-271.597
-218.01
-173.143
-136.047
-105.756
-81.3277
-61.8692
-46.559
-34.6592
-25.5222
-18.5909
-13.3958
-9.54824
-6.73247
-4.69599
-3.24034
-2.21195
-1.49379
-0.998023
-0.659688
-0.431409
-0.279122
-0.17867
-0.11315
-0.0708899
-0.0439361
-0.0269359
-0.0163331
-0.00979444
-0.00580754
-0.0034043
-0.00197239
-0.00112923
-0.000638686
-0.000356768
-0.000196768
-0.000107119
-5.75433e-05
-3.04939e-05
-1.59368e-05
-8.21195e-06
-4.17099e-06
-2.08775e-06
-1.02963e-06
-5.00247e-07
-2.39402e-07
-1.12825e-07
-5.23454e-08
-2.39149e-08
-1.07654e-08
-4.77903e-09
-2.08438e-09
-8.87973e-10
-3.86361e-10
-1.86595e-10
-5.37833e-11
4.39047e-12
0
-2101.98
-2068.7
-2004.42
-1913.25
-1800.46
-1671.75
-1532.7
-1388.39
-1243.23
-1100.86
-964.197
-835.44
-716.176
-607.428
-509.731
-423.203
-347.62
-282.483
-227.088
-180.591
-142.064
-110.546
-85.0881
-64.7818
-48.7857
-36.34
-26.7752
-19.5136
-14.0672
-10.031
-7.07554
-4.93699
-3.40771
-2.32686
-1.5718
-1.0504
-0.694461
-0.454241
-0.29395
-0.188195
-0.119202
-0.0746937
-0.046301
-0.0283903
-0.0172179
-0.0103268
-0.00612435
-0.00359074
-0.00208088
-0.00119164
-0.000674173
-0.000376708
-0.000207837
-0.000113187
-6.08277e-05
-3.22486e-05
-1.68619e-05
-8.69298e-06
-4.41765e-06
-2.21243e-06
-1.09175e-06
-5.30742e-07
-2.54157e-07
-1.19844e-07
-5.56668e-08
-2.54812e-08
-1.14602e-08
-5.0677e-09
-2.2128e-09
-9.54927e-10
-4.18192e-10
-1.85497e-10
-6.25642e-11
-6.5857e-12
5.48809e-12
-2059.55
-2029.55
-1971.28
-1887.91
-1783.65
-1663.27
-1531.65
-1393.43
-1252.87
-1113.64
-978.783
-850.745
-731.347
-621.845
-522.983
-435.054
-357.971
-291.337
-234.52
-186.723
-147.042
-114.527
-88.2259
-67.2207
-50.6561
-37.7558
-27.8333
-20.2946
-14.6366
-10.4412
-7.36753
-5.14242
-3.55057
-2.42507
-1.63855
-1.09526
-0.724275
-0.473835
-0.306685
-0.196382
-0.124407
-0.0779675
-0.0483377
-0.0296436
-0.0179807
-0.0107861
-0.00639783
-0.00375179
-0.00217466
-0.00124564
-0.000704901
-0.00039399
-0.00021744
-0.000118458
-6.36845e-05
-3.37771e-05
-1.76688e-05
-9.11325e-06
-4.63351e-06
-2.32175e-06
-1.14633e-06
-5.57573e-07
-2.67146e-07
-1.26087e-07
-5.8593e-08
-2.68082e-08
-1.20804e-08
-5.35198e-09
-2.32695e-09
-1.02188e-09
-4.58804e-10
-1.87693e-10
-5.48809e-11
1.09762e-12
-1.09762e-12
-2028.31
-2000.53
-1946.37
-1868.42
-1770.22
-1655.9
-1529.81
-1396.28
-1259.37
-1122.74
-989.51
-862.246
-742.937
-633.008
-533.361
-444.423
-366.221
-298.445
-240.525
-191.705
-151.107
-117.792
-90.8092
-69.2357
-52.2062
-38.9325
-28.7149
-20.9468
-15.1131
-10.7851
-7.61279
-5.31524
-3.67093
-2.50793
-1.69494
-1.1332
-0.749511
-0.490435
-0.317484
-0.203328
-0.128827
-0.0807492
-0.0500691
-0.0307097
-0.01863
-0.0111772
-0.00663084
-0.00388909
-0.00225466
-0.00129173
-0.000731153
-0.000408768
-0.00022566
-0.000122974
-6.61352e-05
-3.50898e-05
-1.83628e-05
-9.47525e-06
-4.81974e-06
-2.41621e-06
-1.19353e-06
-5.80839e-07
-2.7844e-07
-1.31464e-07
-6.11175e-08
-2.79903e-08
-1.26446e-08
-5.60883e-09
-2.44549e-09
-1.08115e-09
-4.84049e-10
-1.97571e-10
-3.95142e-11
1.31714e-11
-3.29285e-12
-2005.3
-1979.04
-1927.72
-1853.56
-1759.67
-1649.73
-1527.74
-1397.77
-1263.72
-1129.19
-997.343
-870.817
-751.709
-641.563
-541.397
-451.745
-372.72
-304.082
-245.317
-195.702
-154.384
-120.435
-92.9085
-70.8788
-53.4742
-39.8977
-29.44
-21.4845
-15.5068
-11.0698
-7.81615
-5.45878
-3.77104
-2.57694
-1.74196
-1.16486
-0.770599
-0.50432
-0.326523
-0.209148
-0.132533
-0.0830825
-0.0515224
-0.0316049
-0.0191754
-0.0115059
-0.00682678
-0.0040046
-0.00232201
-0.00133055
-0.000753278
-0.000421231
-0.000232598
-0.00012679
-6.82077e-05
-3.62013e-05
-1.89511e-05
-9.78246e-06
-4.97799e-06
-2.49662e-06
-1.2338e-06
-6.00683e-07
-2.8807e-07
-1.36085e-07
-6.33281e-08
-2.90342e-08
-1.31154e-08
-5.83164e-09
-2.55416e-09
-1.11628e-09
-4.64292e-10
-1.74521e-10
-6.0369e-11
-2.19523e-12
-1.09762e-12
-1988.37
-1963.17
-1913.82
-1842.33
-1751.5
-1644.73
-1525.76
-1398.45
-1266.6
-1133.73
-1003.02
-877.152
-758.287
-648.055
-547.555
-457.403
-377.779
-308.5
-249.093
-198.868
-156.992
-122.548
-94.5927
-72.2016
-54.4981
-40.6794
-30.0287
-21.922
-15.8278
-11.3024
-7.98262
-5.57646
-3.85324
-2.63368
-1.78067
-1.19097
-0.788
-0.515787
-0.333995
-0.213962
-0.1356
-0.0850151
-0.0527266
-0.032347
-0.0196278
-0.0117786
-0.0069894
-0.0041005
-0.00237794
-0.0013628
-0.000771669
-0.000431597
-0.000238372
-0.000129968
-6.99351e-05
-3.71285e-05
-1.94424e-05
-1.00393e-05
-5.11041e-06
-2.56396e-06
-1.26757e-06
-6.1739e-07
-2.96217e-07
-1.39967e-07
-6.51513e-08
-2.98947e-08
-1.3515e-08
-6.01494e-09
-2.62989e-09
-1.14811e-09
-4.99416e-10
-1.97571e-10
-4.39047e-11
0
-8.78094e-12
-1975.96
-1951.49
-1903.52
-1833.9
-1745.26
-1640.77
-1524
-1398.67
-1268.48
-1136.91
-1007.11
-881.8
-763.179
-652.934
-552.227
-461.729
-381.674
-311.922
-252.035
-201.347
-159.043
-124.215
-95.9274
-73.2532
-55.3147
-41.3045
-30.5007
-22.2736
-16.0864
-11.4901
-8.11718
-5.67175
-3.9199
-2.67975
-1.81214
-1.21221
-0.802177
-0.525139
-0.340094
-0.217895
-0.138107
-0.0865954
-0.0537118
-0.0329544
-0.0199981
-0.0120019
-0.00712259
-0.00417907
-0.00242377
-0.00138924
-0.000786747
-0.000440098
-0.000243109
-0.000132576
-7.13537e-05
-3.78904e-05
-1.98463e-05
-1.02506e-05
-5.21953e-06
-2.61952e-06
-1.29545e-06
-6.31171e-07
-3.0294e-07
-1.43209e-07
-6.66781e-08
-3.06016e-08
-1.38464e-08
-6.16093e-09
-2.68477e-09
-1.17335e-09
-5.08197e-10
-2.0745e-10
-5.59785e-11
1.09762e-12
-1.31714e-11
-1966.89
-1942.93
-1895.93
-1827.63
-1740.53
-1637.69
-1522.52
-1398.65
-1269.71
-1139.13
-1010.04
-885.185
-766.786
-656.568
-555.736
-465.003
-384.641
-314.544
-254.3
-203.265
-160.636
-125.516
-96.9721
-74.0792
-55.9579
-41.7982
-30.8743
-22.5527
-16.292
-11.6397
-8.22459
-5.74793
-3.97328
-2.7167
-1.83741
-1.22929
-0.813585
-0.532671
-0.34501
-0.221066
-0.14013
-0.0878714
-0.0545076
-0.0334452
-0.0202974
-0.0121824
-0.00723026
-0.00424258
-0.00246081
-0.00141061
-0.000798936
-0.000446971
-0.000246939
-0.000134685
-7.25013e-05
-3.8507e-05
-2.01734e-05
-1.04219e-05
-5.30799e-06
-2.66456e-06
-1.31808e-06
-6.42358e-07
-3.084e-07
-1.4584e-07
-6.7925e-08
-3.11756e-08
-1.40978e-08
-6.28386e-09
-2.766e-09
-1.21396e-09
-4.95025e-10
-1.98669e-10
-7.57356e-11
-2.19523e-12
-1.09762e-12
-1960.29
-1936.69
-1890.36
-1823
-1737
-1635.32
-1521.31
-1398.52
-1270.49
-1140.66
-1012.13
-887.632
-769.424
-659.252
-558.347
-467.455
-386.877
-316.53
-256.025
-204.732
-161.86
-126.519
-97.7802
-74.72
-56.4584
-42.1834
-31.1666
-22.7714
-16.4535
-11.7574
-8.30927
-5.8081
-4.01549
-2.74596
-1.85745
-1.24285
-0.822652
-0.538663
-0.348923
-0.223593
-0.141743
-0.0888889
-0.0551423
-0.0338367
-0.0205362
-0.0123264
-0.00731614
-0.00429323
-0.00249036
-0.00142765
-0.000808651
-0.000452448
-0.000249991
-0.000136366
-7.34156e-05
-3.89983e-05
-2.04341e-05
-1.05584e-05
-5.37852e-06
-2.70051e-06
-1.33614e-06
-6.51323e-07
-3.12755e-07
-1.47932e-07
-6.89205e-08
-3.16213e-08
-1.42954e-08
-6.39033e-09
-2.82088e-09
-1.21177e-09
-5.06002e-10
-2.16231e-10
-9.00046e-11
-1.4269e-11
3.29285e-12
-1955.52
-1932.17
-1886.31
-1819.6
-1734.38
-1633.54
-1520.36
-1398.34
-1270.99
-1141.71
-1013.6
-889.388
-771.339
-661.215
-560.272
-469.274
-388.545
-318.02
-257.324
-205.842
-162.789
-127.283
-98.3981
-75.2115
-56.8433
-42.4803
-31.3925
-22.9408
-16.5788
-11.8489
-8.37524
-5.85504
-4.04848
-2.76886
-1.87315
-1.25349
-0.82977
-0.543371
-0.352001
-0.225581
-0.143012
-0.0896901
-0.0556422
-0.034145
-0.0207243
-0.0124398
-0.00738376
-0.00433309
-0.0025136
-0.00144105
-0.000816287
-0.00045675
-0.000252387
-0.000137685
-7.41329e-05
-3.93836e-05
-2.06385e-05
-1.06654e-05
-5.43384e-06
-2.7287e-06
-1.35033e-06
-6.58342e-07
-3.1617e-07
-1.49586e-07
-6.97009e-08
-3.19802e-08
-1.44677e-08
-6.44192e-09
-2.82966e-09
-1.23153e-09
-5.3454e-10
-2.40378e-10
-7.13451e-11
-4.39047e-12
1.09762e-12
-1952.09
-1928.91
-1883.38
-1817.13
-1732.45
-1632.2
-1519.62
-1398.16
-1271.31
-1142.43
-1014.64
-890.64
-772.716
-662.639
-561.677
-470.611
-389.776
-319.125
-258.292
-206.672
-163.487
-127.859
-98.865
-75.5839
-57.1358
-42.7066
-31.565
-23.0704
-16.6749
-11.9192
-8.426
-5.89122
-4.07394
-2.78656
-1.8853
-1.26173
-0.835289
-0.547025
-0.354391
-0.227126
-0.143999
-0.0903132
-0.056031
-0.0343849
-0.0208705
-0.012528
-0.0074363
-0.00436405
-0.00253163
-0.00145144
-0.000822204
-0.000460082
-0.000254241
-0.000138705
-7.46871e-05
-3.96811e-05
-2.07962e-05
-1.0748e-05
-5.47647e-06
-2.75044e-06
-1.36125e-06
-6.63771e-07
-3.18813e-07
-1.50842e-07
-7.03057e-08
-3.22634e-08
-1.45731e-08
-6.50338e-09
-2.86368e-09
-1.25348e-09
-5.58687e-10
-2.1184e-10
-6.80523e-11
-1.97571e-11
8.78094e-12
-1949.63
-1926.57
-1881.28
-1815.35
-1731.05
-1631.22
-1519.06
-1398
-1271.5
-1142.92
-1015.36
-891.525
-773.7
-663.664
-562.694
-471.583
-390.677
-319.937
-259.006
-207.286
-164.005
-128.288
-99.2138
-75.863
-57.3555
-42.8769
-31.6951
-23.1685
-16.7478
-11.9726
-8.4646
-5.91877
-4.09336
-2.80007
-1.89458
-1.26803
-0.839519
-0.549827
-0.356225
-0.228312
-0.144757
-0.0907918
-0.0563297
-0.0345691
-0.0209828
-0.0125957
-0.00747659
-0.00438777
-0.00254544
-0.00145938
-0.000826725
-0.000462624
-0.000255655
-0.000139481
-7.51087e-05
-3.99072e-05
-2.09159e-05
-1.08106e-05
-5.50879e-06
-2.7669e-06
-1.36949e-06
-6.67855e-07
-3.2084e-07
-1.51811e-07
-7.07371e-08
-3.24511e-08
-1.4651e-08
-6.53521e-09
-2.89222e-09
-1.27872e-09
-5.55394e-10
-2.27207e-10
-8.56142e-11
-7.68332e-12
2.19524e-12
-1947.89
-1924.92
-1879.78
-1814.07
-1730.05
-1630.51
-1518.64
-1397.86
-1271.62
-1143.26
-1015.86
-892.146
-774.396
-664.394
-563.424
-472.284
-391.329
-320.526
-259.527
-207.736
-164.386
-128.604
-99.4716
-76.0697
-57.5187
-43.0037
-31.7922
-23.2418
-16.8023
-12.0126
-8.4936
-5.93951
-4.108
-2.81027
-1.9016
-1.2728
-0.84272
-0.551949
-0.357615
-0.229212
-0.145332
-0.091155
-0.0565563
-0.0347088
-0.0210679
-0.0126469
-0.00750709
-0.00440571
-0.00255587
-0.00146538
-0.000830131
-0.000464537
-0.000256717
-0.000140064
-7.54244e-05
-4.00763e-05
-2.10054e-05
-1.08573e-05
-5.53287e-06
-2.77915e-06
-1.37565e-06
-6.70901e-07
-3.22311e-07
-1.52522e-07
-7.10696e-08
-3.2585e-08
-1.47311e-08
-6.58241e-09
-2.89991e-09
-1.25787e-09
-5.44418e-10
-2.50257e-10
-9.32975e-11
-2.19523e-11
1.20738e-11
-1946.67
-1923.75
-1878.72
-1813.17
-1729.33
-1629.99
-1518.33
-1397.75
-1271.69
-1143.48
-1016.2
-892.579
-774.886
-664.911
-563.942
-472.784
-391.796
-320.951
-259.903
-208.062
-164.662
-128.834
-99.66
-76.2212
-57.6385
-43.0971
-31.8638
-23.2959
-16.8427
-12.0423
-8.51515
-5.95494
-4.1189
-2.81788
-1.90684
-1.27637
-0.845116
-0.553539
-0.358657
-0.229886
-0.145763
-0.0914272
-0.0567261
-0.0348134
-0.0211316
-0.0126852
-0.00752988
-0.00441911
-0.00256365
-0.00146984
-0.000832661
-0.000465956
-0.000257503
-0.000140494
-7.56574e-05
-4.02008e-05
-2.10711e-05
-1.08916e-05
-5.55052e-06
-2.7881e-06
-1.38015e-06
-6.73147e-07
-3.23412e-07
-1.53027e-07
-7.12903e-08
-3.27299e-08
-1.48167e-08
-6.589e-09
-2.87905e-09
-1.26775e-09
-5.67468e-10
-2.41476e-10
-8.01261e-11
-6.5857e-12
2.19524e-12
-1945.81
-1922.93
-1877.98
-1812.53
-1728.82
-1629.62
-1518.11
-1397.66
-1271.73
-1143.63
-1016.44
-892.879
-775.227
-665.272
-564.307
-473.138
-392.128
-321.253
-260.172
-208.295
-164.861
-129
-99.7961
-76.3309
-57.7255
-43.165
-31.916
-23.3355
-16.8722
-12.0641
-8.53096
-5.96628
-4.12693
-2.82348
-1.91071
-1.279
-0.846886
-0.554714
-0.359427
-0.230385
-0.146082
-0.0916288
-0.0568519
-0.0348909
-0.0211788
-0.0127136
-0.0075467
-0.00442897
-0.00256937
-0.00147312
-0.000834516
-0.000466993
-0.000258076
-0.000140808
-7.58266e-05
-4.02911e-05
-2.11187e-05
-1.09164e-05
-5.56324e-06
-2.79454e-06
-1.38336e-06
-6.74726e-07
-3.24173e-07
-1.53381e-07
-7.14867e-08
-3.28286e-08
-1.48409e-08
-6.61644e-09
-2.90978e-09
-1.26665e-09
-5.53199e-10
-2.33793e-10
-6.58571e-11
-9.87856e-12
-8.78094e-12
-1945.21
-1922.36
-1877.46
-1812.09
-1728.46
-1629.36
-1517.95
-1397.6
-1271.75
-1143.73
-1016.6
-893.084
-775.462
-665.524
-564.562
-473.386
-392.361
-321.467
-260.362
-208.461
-165.003
-129.119
-99.8935
-76.4095
-57.788
-43.2138
-31.9537
-23.364
-16.8936
-12.0798
-8.54244
-5.97452
-4.13277
-2.82757
-1.91353
-1.28092
-0.84818
-0.555574
-0.359991
-0.23075
-0.146316
-0.0917762
-0.0569438
-0.0349475
-0.0212132
-0.0127342
-0.00755896
-0.00443615
-0.00257352
-0.00147549
-0.000835857
-0.000467742
-0.000258489
-0.000141033
-7.59479e-05
-4.03556e-05
-2.11526e-05
-1.09339e-05
-5.57225e-06
-2.79911e-06
-1.38566e-06
-6.7584e-07
-3.2471e-07
-1.53665e-07
-7.16173e-08
-3.28627e-08
-1.48563e-08
-6.62193e-09
-2.91637e-09
-1.26336e-09
-5.29052e-10
-2.32695e-10
-1.05371e-10
-2.85381e-11
4.39047e-12
-1944.81
-1921.97
-1877.11
-1811.78
-1728.21
-1629.18
-1517.83
-1397.55
-1271.76
-1143.79
-1016.71
-893.224
-775.624
-665.697
-564.738
-473.558
-392.523
-321.616
-260.495
-208.577
-165.102
-129.202
-99.9623
-76.4653
-57.8323
-43.2486
-31.9805
-23.3844
-16.9089
-12.0911
-8.55068
-5.98044
-4.13697
-2.83051
-1.91557
-1.28231
-0.849115
-0.556195
-0.360399
-0.231014
-0.146484
-0.0918829
-0.0570103
-0.0349884
-0.021238
-0.0127491
-0.00756778
-0.00444131
-0.0025765
-0.00147719
-0.000836814
-0.000468275
-0.000258782
-0.000141192
-7.60334e-05
-4.0401e-05
-2.11763e-05
-1.09462e-05
-5.57855e-06
-2.80228e-06
-1.38724e-06
-6.76625e-07
-3.25112e-07
-1.53846e-07
-7.16766e-08
-3.29099e-08
-1.48661e-08
-6.60546e-09
-2.92296e-09
-1.2897e-09
-5.46614e-10
-2.41476e-10
-1.05371e-10
-1.09762e-12
1.20738e-11
-1944.53
-1921.7
-1876.86
-1811.57
-1728.04
-1629.05
-1517.75
-1397.52
-1271.77
-1143.83
-1016.78
-893.318
-775.733
-665.815
-564.859
-473.676
-392.635
-321.719
-260.588
-208.658
-165.172
-129.261
-100.01
-76.5043
-57.8635
-43.2731
-31.9994
-23.3989
-16.9197
-12.0991
-8.55652
-5.98465
-4.13996
-2.83261
-1.91702
-1.2833
-0.849782
-0.556639
-0.36069
-0.231203
-0.146605
-0.0919591
-0.0570577
-0.0350176
-0.0212557
-0.0127597
-0.00757404
-0.00444497
-0.00257861
-0.00147839
-0.000837489
-0.000468649
-0.000258988
-0.000141303
-7.60929e-05
-4.04324e-05
-2.11928e-05
-1.09547e-05
-5.58286e-06
-2.80446e-06
-1.38831e-06
-6.77158e-07
-3.25366e-07
-1.53957e-07
-7.17326e-08
-3.29373e-08
-1.48815e-08
-6.61424e-09
-2.92405e-09
-1.28751e-09
-5.53199e-10
-2.31597e-10
-7.68332e-11
0
-8.78094e-12
-1944.34
-1921.52
-1876.7
-1811.42
-1727.93
-1628.97
-1517.7
-1397.49
-1271.77
-1143.86
-1016.83
-893.382
-775.807
-665.895
-564.94
-473.756
-392.712
-321.789
-260.651
-208.714
-165.219
-129.301
-100.044
-76.5314
-57.8852
-43.2901
-32.0126
-23.4089
-16.9273
-12.1047
-8.56062
-5.9876
-4.14206
-2.83408
-1.91804
-1.284
-0.850252
-0.556952
-0.360896
-0.231336
-0.14669
-0.0920129
-0.0570912
-0.0350381
-0.0212682
-0.0127672
-0.00757845
-0.00444753
-0.00258008
-0.00147923
-0.000837958
-0.000468908
-0.000259129
-0.00014138
-7.61337e-05
-4.0454e-05
-2.1204e-05
-1.09605e-05
-5.58578e-06
-2.80593e-06
-1.38902e-06
-6.77489e-07
-3.25508e-07
-1.54033e-07
-7.18072e-08
-3.29593e-08
-1.48705e-08
-6.60436e-09
-2.91417e-09
-1.29958e-09
-5.8503e-10
-2.305e-10
-6.25642e-11
-9.87856e-12
2.19523e-12
-1944.21
-1921.4
-1876.59
-1811.33
-1727.85
-1628.91
-1517.66
-1397.47
-1271.77
-1143.88
-1016.86
-893.424
-775.857
-665.949
-564.996
-473.811
-392.764
-321.837
-260.694
-208.752
-165.252
-129.329
-100.067
-76.55
-57.9
-43.3018
-32.0217
-23.4159
-16.9325
-12.1086
-8.56346
-5.98965
-4.14352
-2.83511
-1.91875
-1.28448
-0.850581
-0.557171
-0.36104
-0.23143
-0.14675
-0.0920505
-0.0571146
-0.0350525
-0.0212769
-0.0127724
-0.0075815
-0.00444931
-0.0025811
-0.0014798
-0.00083828
-0.000469086
-0.000259226
-0.000141432
-7.61614e-05
-4.04685e-05
-2.12115e-05
-1.09643e-05
-5.58774e-06
-2.80691e-06
-1.38949e-06
-6.77705e-07
-3.25612e-07
-1.54086e-07
-7.1827e-08
-3.29768e-08
-1.48683e-08
-6.60107e-09
-2.92296e-09
-1.30287e-09
-5.75152e-10
-2.15133e-10
-6.80523e-11
-1.53666e-11
0
-1944.13
-1921.32
-1876.51
-1811.26
-1727.79
-1628.87
-1517.63
-1397.46
-1271.77
-1143.89
-1016.88
-893.452
-775.889
-665.984
-565.032
-473.847
-392.798
-321.869
-260.723
-208.778
-165.274
-129.347
-100.082
-76.5627
-57.9102
-43.3098
-32.0279
-23.4206
-16.9361
-12.1113
-8.5654
-5.99106
-4.14452
-2.83581
-1.91924
-1.28482
-0.850807
-0.557322
-0.361139
-0.231494
-0.146791
-0.0920764
-0.0571307
-0.0350624
-0.0212829
-0.0127759
-0.0075836
-0.00445052
-0.00258179
-0.00148019
-0.000838498
-0.000469206
-0.000259291
-0.000141467
-7.61798e-05
-4.04781e-05
-2.12165e-05
-1.09669e-05
-5.58901e-06
-2.80755e-06
-1.38981e-06
-6.77847e-07
-3.25664e-07
-1.54118e-07
-7.18489e-08
-3.2979e-08
-1.48837e-08
-6.62412e-09
-2.89551e-09
-1.26336e-09
-5.56492e-10
-2.1184e-10
-9.11023e-11
-3.40261e-11
-2.19524e-12
-1944.07
-1921.27
-1876.46
-1811.22
-1727.76
-1628.84
-1517.62
-1397.45
-1271.77
-1143.9
-1016.89
-893.47
-775.911
-666.008
-565.057
-473.871
-392.821
-321.89
-260.743
-208.795
-165.289
-129.36
-100.093
-76.5711
-57.917
-43.3152
-32.0321
-23.4238
-16.9385
-12.1131
-8.56672
-5.99201
-4.1452
-2.83629
-1.91957
-1.28505
-0.850961
-0.557425
-0.361206
-0.231538
-0.146819
-0.092094
-0.0571417
-0.0350691
-0.0212869
-0.0127784
-0.00758502
-0.00445134
-0.00258226
-0.00148046
-0.000838645
-0.000469287
-0.000259335
-0.00014149
-7.61921e-05
-4.04845e-05
-2.12198e-05
-1.09686e-05
-5.58984e-06
-2.80794e-06
-1.39e-06
-6.77958e-07
-3.25734e-07
-1.54134e-07
-7.18544e-08
-3.29834e-08
-1.48749e-08
-6.61315e-09
-2.89991e-09
-1.26994e-09
-5.66371e-10
-2.51354e-10
-7.24428e-11
1.4269e-11
-6.5857e-12
-1944.03
-1921.23
-1876.43
-1811.19
-1727.74
-1628.82
-1517.6
-1397.45
-1271.77
-1143.9
-1016.9
-893.481
-775.925
-666.023
-565.073
-473.887
-392.836
-321.905
-260.755
-208.806
-165.299
-129.368
-100.099
-76.5768
-57.9215
-43.3188
-32.0349
-23.4259
-16.9401
-12.1143
-8.56761
-5.99265
-4.14566
-2.83662
-1.91979
-1.2852
-0.851065
-0.557494
-0.361252
-0.231567
-0.146838
-0.092106
-0.0571491
-0.0350736
-0.0212897
-0.01278
-0.00758597
-0.00445189
-0.00258258
-0.00148063
-0.000838742
-0.00046934
-0.000259363
-0.000141505
-7.62e-05
-4.04886e-05
-2.12219e-05
-1.09696e-05
-5.59037e-06
-2.80821e-06
-1.39015e-06
-6.78026e-07
-3.25787e-07
-1.5417e-07
-7.185e-08
-3.29735e-08
-1.48617e-08
-6.59339e-09
-2.90869e-09
-1.28311e-09
-5.58687e-10
-2.39281e-10
-7.90285e-11
2.19523e-12
4.39047e-12
-1944.01
-1921.21
-1876.41
-1811.18
-1727.72
-1628.81
-1517.6
-1397.44
-1271.77
-1143.9
-1016.9
-893.489
-775.934
-666.033
-565.083
-473.897
-392.846
-321.914
-260.764
-208.813
-165.305
-129.374
-100.104
-76.5805
-57.9245
-43.3211
-32.0367
-23.4274
-16.9412
-12.1151
-8.56819
-5.99308
-4.14597
-2.83683
-1.91994
-1.2853
-0.851134
-0.55754
-0.361282
-0.231587
-0.146851
-0.0921139
-0.057154
-0.0350766
-0.0212915
-0.0127811
-0.0075866
-0.00445226
-0.00258278
-0.00148075
-0.000838806
-0.000469374
-0.000259382
-0.000141515
-7.62052e-05
-4.04913e-05
-2.12233e-05
-1.09703e-05
-5.59069e-06
-2.80837e-06
-1.39022e-06
-6.78082e-07
-3.25816e-07
-1.54171e-07
-7.18446e-08
-3.29845e-08
-1.48771e-08
-6.60327e-09
-2.9032e-09
-1.27982e-09
-5.68566e-10
-2.33793e-10
-7.4638e-11
-6.5857e-12
0
-1943.99
-1921.19
-1876.4
-1811.16
-1727.71
-1628.81
-1517.59
-1397.44
-1271.77
-1143.91
-1016.91
-893.494
-775.94
-666.039
-565.089
-473.904
-392.853
-321.92
-260.769
-208.818
-165.309
-129.377
-100.107
-76.5829
-57.9264
-43.3227
-32.0379
-23.4283
-16.9419
-12.1156
-8.56858
-5.99336
-4.14616
-2.83697
-1.92004
-1.28537
-0.85118
-0.55757
-0.361302
-0.2316
-0.146859
-0.0921191
-0.0571573
-0.0350786
-0.0212927
-0.0127818
-0.00758701
-0.00445249
-0.00258292
-0.00148082
-0.000838847
-0.000469397
-0.000259394
-0.000141521
-7.62085e-05
-4.0493e-05
-2.12241e-05
-1.09707e-05
-5.59092e-06
-2.80848e-06
-1.39028e-06
-6.78103e-07
-3.25821e-07
-1.54178e-07
-7.18369e-08
-3.29812e-08
-1.48782e-08
-6.60985e-09
-2.9043e-09
-1.25348e-09
-5.46614e-10
-2.61233e-10
-9.7688e-11
-2.19523e-12
1.09762e-12
-1943.98
-1921.19
-1876.39
-1811.16
-1727.71
-1628.8
-1517.59
-1397.44
-1271.77
-1143.91
-1016.91
-893.497
-775.943
-666.043
-565.094
-473.908
-392.857
-321.923
-260.772
-208.821
-165.312
-129.379
-100.109
-76.5844
-57.9277
-43.3237
-32.0387
-23.4289
-16.9423
-12.1159
-8.56882
-5.99354
-4.14629
-2.83706
-1.9201
-1.28541
-0.85121
-0.55759
-0.361316
-0.231608
-0.146864
-0.0921225
-0.0571594
-0.0350799
-0.0212934
-0.0127822
-0.00758728
-0.00445265
-0.002583
-0.00148087
-0.000838874
-0.000469411
-0.000259402
-0.000141525
-7.62105e-05
-4.0494e-05
-2.12246e-05
-1.0971e-05
-5.59105e-06
-2.80854e-06
-1.3903e-06
-6.78099e-07
-3.25824e-07
-1.54213e-07
-7.18654e-08
-3.29549e-08
-1.48782e-08
-6.62851e-09
-2.90539e-09
-1.26775e-09
-5.46614e-10
-2.42573e-10
-9.98832e-11
-4.39047e-12
2.19524e-12
-1943.98
-1921.18
-1876.38
-1811.15
-1727.7
-1628.8
-1517.59
-1397.44
-1271.77
-1143.91
-1016.91
-893.499
-775.946
-666.046
-565.096
-473.911
-392.859
-321.926
-260.775
-208.823
-165.313
-129.381
-100.11
-76.5854
-57.9285
-43.3243
-32.0392
-23.4292
-16.9426
-12.1162
-8.56898
-5.99365
-4.14638
-2.83712
-1.92015
-1.28544
-0.851229
-0.557603
-0.361324
-0.231614
-0.146868
-0.0921247
-0.0571607
-0.0350807
-0.0212939
-0.0127825
-0.00758745
-0.00445275
-0.00258306
-0.0014809
-0.00083889
-0.00046942
-0.000259407
-0.000141528
-7.62118e-05
-4.04946e-05
-2.12249e-05
-1.09711e-05
-5.59114e-06
-2.8086e-06
-1.39033e-06
-6.7811e-07
-3.25827e-07
-1.54204e-07
-7.18665e-08
-3.29658e-08
-1.48606e-08
-6.60546e-09
-2.91198e-09
-1.2886e-09
-5.54297e-10
-2.3489e-10
-1.06469e-10
-8.78094e-12
7.68332e-12
-1943.98
-1921.18
-1876.38
-1811.15
-1727.7
-1628.8
-1517.59
-1397.44
-1271.77
-1143.91