/*--------------------------------*- C++ -*----------------------------------*\
  =========                 |
  \\      /  F ield         | OpenFOAM: The Open Source CFD Toolbox
   \\    /   O peration     | Website:  https://openfoam.org
    \\  /    A nd           | Version:  10
     \\/     M anipulation  |
\*---------------------------------------------------------------------------*/
FoamFile
{
    format      ascii;
    class       volScalarField;
    location    "480";
    object      gradTx;
}
// * * * * * * * * * * * * * * * * * * * * * * * * * * * * * * * * * * * * * //

dimensions      [0 -1 0 1 0 0 0];

internalField   nonuniform List<scalar> 
11250
(
14307.4
8126.4
5347.2
3878.41
2993.45
2405.03
1984.53
1667.72
1419.46
1219.05
1053.57
914.51
796.089
694.201
605.856
528.81
461.342
402.094
349.977
304.096
263.704
228.166
196.934
169.529
145.529
124.561
106.287
90.4065
76.6472
64.7639
54.5349
45.7605
38.2607
31.874
26.4558
21.8767
18.022
14.79
12.0909
9.84605
7.98668
6.45296
5.19312
4.16262
3.32325
2.64246
2.09266
1.65053
1.29651
1.01427
0.790222
0.613138
0.473779
0.364584
0.279397
0.213227
0.162053
0.122649
0.0924403
0.0693814
0.0518569
0.0385963
0.0286056
0.0211108
0.0155122
0.0113471
0.00826045
0.00598059
0.00430058
0.00306308
0.00214845
0.00146534
0.000943245
0.000526446
0.00016908
4103.17
4725.11
4037.54
3295.62
2698.24
2238.69
1882.66
1601.2
1373.82
1186.5
1029.63
896.477
782.231
683.379
597.293
521.963
455.818
397.607
346.312
301.089
261.228
226.122
195.243
168.129
144.37
123.601
105.492
89.7485
76.1034
64.315
54.165
45.4562
38.011
31.6696
26.2888
21.7406
17.9115
14.7004
12.0186
9.78783
7.93995
6.41558
5.16333
4.13894
3.3045
2.62767
2.08103
1.64142
1.28941
1.00875
0.785945
0.609838
0.471242
0.362642
0.277916
0.212102
0.161202
0.122008
0.0919587
0.0690213
0.0515887
0.0383974
0.0284587
0.0210027
0.015433
0.0112894
0.00821853
0.00595032
0.00427887
0.00304765
0.00213765
0.00145799
0.000938521
0.000523813
0.000168236
1483.55
2633.78
2782.98
2569.35
2266.51
1970.39
1708.02
1482.61
1290.31
1125.87
984.472
862.125
755.641
662.498
580.699
508.646
445.046
388.836
339.132
295.188
256.364
222.102
191.916
165.372
142.085
121.706
103.922
88.4489
75.0287
63.4276
53.4334
44.8543
37.5169
31.2649
25.9581
21.4712
17.6925
14.523
11.8753
9.67244
7.84733
6.34148
5.10424
4.09199
3.26733
2.59834
2.05797
1.62336
1.27531
0.997789
0.777457
0.603288
0.466208
0.358788
0.274976
0.209869
0.159512
0.120734
0.0910023
0.0683062
0.0510561
0.0380023
0.0281668
0.020788
0.0152757
0.0111746
0.00813523
0.00589017
0.00423572
0.00301699
0.00211618
0.00144338
0.000929129
0.000518577
0.000166555
680.969
1543.92
1892.01
1933.32
1829.35
1669.9
1498.19
1332.93
1181.12
1044.53
922.727
814.477
718.347
632.956
557.06
489.569
429.543
376.165
328.729
286.616
249.28
216.237
187.053
161.337
138.736
118.927
101.617
86.5394
73.4485
62.1219
52.3565
43.9678
36.7887
30.6682
25.4704
21.0737
17.3694
14.2612
11.6637
9.50202
7.71051
6.232
5.01693
4.0226
3.21238
2.55498
2.02388
1.59665
1.25446
0.981578
0.764899
0.593598
0.458759
0.353084
0.270625
0.206563
0.15701
0.118848
0.0895864
0.0672474
0.0502675
0.0374174
0.0277347
0.0204701
0.0150428
0.0110047
0.00801186
0.00580107
0.00417181
0.00297157
0.00208439
0.00142173
0.000915214
0.000510818
0.000164065
377.52
969.369
1308.55
1443.59
1448.96
1383.21
1283.68
1171.75
1058.86
950.709
849.862
757.239
672.916
596.565
527.676
465.682
410.014
360.124
315.503
275.679
240.216
208.713
180.801
156.14
134.415
115.336
98.6355
84.0658
71.3994
60.4273
50.9577
42.8155
35.8417
29.8917
24.8355
20.5559
16.9483
13.9197
11.3877
9.27968
7.53195
6.08907
4.90292
3.93198
3.14059
2.49832
1.97932
1.56173
1.22721
0.960382
0.748478
0.580924
0.449015
0.345621
0.264932
0.202237
0.153736
0.11638
0.0877332
0.0658614
0.0492352
0.0366515
0.0271688
0.0200537
0.0147377
0.0107822
0.00785028
0.00568438
0.00408809
0.00291207
0.00204274
0.00139337
0.000896983
0.000500653
0.000160802
237.409
647.92
929.972
1084.53
1140.93
1131.81
1083.29
1013.48
933.978
851.843
771.159
694.184
622.069
555.307
494.01
438.076
387.281
341.338
299.936
262.75
229.46
199.756
173.338
149.921
129.234
111.023
95.0482
81.0859
68.9279
58.381
49.2668
41.4214
34.695
28.9509
24.0656
19.9276
16.4372
13.5051
11.0524
9.00941
7.31482
5.91521
4.76419
3.82166
3.05318
2.42931
1.92503
1.51919
1.19399
0.934544
0.728456
0.565469
0.437131
0.336519
0.257987
0.196959
0.149741
0.113368
0.0854711
0.0641695
0.0479748
0.0357164
0.0264779
0.0195453
0.0143652
0.0105104
0.00765292
0.00554183
0.00398581
0.00283937
0.00199185
0.00135872
0.000874707
0.000488232
0.000156814
161.751
455.358
679.594
824.593
899.666
921.297
905.879
866.771
813.796
753.735
691.079
628.698
568.363
511.12
457.536
407.878
362.211
320.48
282.549
248.238
217.337
189.624
164.869
142.844
123.324
106.092
90.939
77.6667
66.0878
56.0264
47.3189
39.8137
33.3712
27.8638
23.1753
19.2007
15.8453
13.0247
10.6637
8.69595
7.06287
5.71339
4.60308
3.6935
2.9516
2.34909
1.86191
1.46971
1.15535
0.904477
0.705152
0.547476
0.423293
0.325917
0.249897
0.19081
0.145086
0.109857
0.0828346
0.0621972
0.0465054
0.0346261
0.0256722
0.0189524
0.0139306
0.0101933
0.00742268
0.00537552
0.00386648
0.00275455
0.00193246
0.00131828
0.000848709
0.000473735
0.00015216
116.125
332.584
509.139
635.534
713.039
749.258
753.803
735.772
702.703
660.373
612.994
563.526
513.994
465.739
419.622
376.163
335.653
298.218
263.875
232.566
204.183
178.585
155.609
135.081
116.824
100.655
86.3989
73.8818
62.9385
53.4115
45.1527
38.0235
31.8957
26.6509
22.1811
18.3881
15.1832
12.487
10.2284
8.34465
6.78034
5.48697
4.42225
3.5496
2.83749
2.25894
1.79095
1.41407
1.11188
0.870647
0.678925
0.527221
0.407711
0.313978
0.240785
0.183882
0.13984
0.105901
0.0798626
0.0599738
0.0448486
0.0333966
0.0247635
0.0182835
0.0134404
0.00983562
0.00716288
0.00518784
0.0037318
0.00265881
0.00186543
0.00127262
0.000819359
0.000457368
0.000146906
86.4241
250.119
389.511
496.284
568.856
610.28
625.894
621.59
602.814
574.142
539.192
500.704
460.696
420.61
381.451
343.898
308.389
275.187
244.425
216.148
190.333
166.909
145.777
126.811
109.878
94.8305
81.523
69.8084
59.5427
50.5872
42.8094
36.0844
30.2953
25.3339
21.1005
17.5041
14.4623
11.901
9.75364
7.9613
6.47186
5.2396
4.22459
3.39223
2.71265
2.16027
1.71326
1.35312
1.06425
0.833567
0.65017
0.505008
0.390619
0.300877
0.230783
0.176277
0.13408
0.101556
0.0765982
0.057531
0.0430282
0.0320454
0.0237647
0.0175483
0.0129015
0.0094423
0.00687718
0.00498142
0.00358367
0.0025535
0.00179168
0.0012224
0.000787065
0.00043936
0.000141125
66.0071
192.343
303.145
392.12
456.941
498.446
519.438
523.592
514.692
496.196
471.042
441.605
409.741
376.856
343.992
311.899
281.102
251.951
224.667
199.369
176.102
154.857
135.586
118.209
102.628
88.7341
76.4068
65.5244
55.9641
47.6053
40.3313
34.0306
28.5981
23.9354
19.9517
16.5633
13.6945
11.2763
9.24709
7.55198
6.14227
4.97513
4.01315
3.22379
2.57897
2.05456
1.62999
1.28777
1.01316
0.79378
0.619305
0.481158
0.372261
0.286803
0.220036
0.168103
0.127888
0.0968837
0.0730872
0.0549033
0.0410694
0.0305913
0.0226897
0.0167568
0.0123212
0.00901876
0.00656949
0.0047591
0.00342409
0.00244003
0.00171222
0.00116828
0.000752265
0.000419952
0.000134894
51.3933
150.474
239.219
312.961
369.413
408.406
431.291
440.29
437.96
426.833
409.205
387.047
361.977
335.288
307.983
280.819
254.357
228.996
205.01
182.571
161.778
142.668
125.235
109.438
95.2126
82.4786
71.143
61.1061
52.2652
44.5172
37.7603
31.8964
26.8317
22.478
18.753
15.5807
12.8916
10.6225
8.71651
7.1229
5.7965
4.6975
3.79104
3.04675
2.43838
1.94334
1.54233
1.21895
0.959332
0.751845
0.586762
0.456003
0.352893
0.27195
0.20869
0.159471
0.121347
0.0919476
0.069377
0.0521258
0.0389987
0.0290538
0.0215527
0.0159196
0.0117073
0.00857062
0.00624388
0.00452378
0.00325517
0.00231991
0.00162809
0.00111097
0.000715412
0.000399398
0.000128295
40.6042
119.298
190.883
251.903
300.366
335.695
358.437
369.888
371.739
365.805
353.836
337.415
317.906
296.446
273.953
251.152
228.601
206.715
185.796
166.052
147.614
130.556
114.904
100.649
87.7562
76.1692
65.8187
56.6258
48.5059
41.372
35.1369
29.715
25.0235
20.984
17.5227
14.5709
12.0656
9.94912
8.16957
6.68021
5.43948
4.41063
3.56138
2.86358
2.29284
1.82813
1.45148
1.14759
0.903497
0.708328
0.552978
0.429878
0.332772
0.256514
0.196896
0.150496
0.114544
0.086812
0.0655159
0.0492347
0.0368428
0.0274527
0.0203685
0.0150474
0.0110677
0.00810358
0.00590449
0.00427847
0.00307905
0.00219465
0.00154035
0.00105119
0.000676971
0.000377957
0.000121411
32.4429
95.5688
153.671
204.174
245.427
276.732
298.208
310.575
314.932
312.558
304.761
292.787
277.757
260.639
242.247
223.246
204.165
185.414
167.302
150.053
133.821
118.702
104.749
91.9768
80.372
69.9009
60.5139
52.1501
44.7415
38.2159
32.4992
27.5177
23.1992
19.4745
16.2778
13.5479
11.2278
9.26548
7.61371
6.2299
5.07602
4.11835
3.32722
2.67669
2.14424
1.71044
1.35863
1.07461
0.846372
0.663785
0.518382
0.403115
0.312151
0.240689
0.1848
0.141288
0.107563
0.0815406
0.0615516
0.0462657
0.0346281
0.0258076
0.0191516
0.0141509
0.0104101
0.00762334
0.00555543
0.00402614
0.00289785
0.00206577
0.00145006
0.000989674
0.000637404
0.000355887
0.000114325
26.1485
77.1828
124.586
166.423
201.356
228.698
248.35
260.683
266.398
266.382
261.605
253.03
241.558
228
213.057
197.322
181.279
165.316
149.736
134.765
120.569
107.259
94.9033
83.5345
73.1579
63.7571
55.299
47.7385
41.022
35.0905
29.8819
25.3335
21.3827
17.969
15.0346
12.5248
10.389
8.58023
7.05598
5.77763
4.71064
3.82429
3.09146
2.48839
1.99443
1.59171
1.2649
1.00091
0.788647
0.618752
0.483391
0.376035
0.291277
0.224664
0.172547
0.131957
0.100486
0.0761954
0.0575308
0.0432534
0.0323807
0.0241377
0.017916
0.0132405
0.00974212
0.00713544
0.00520075
0.00376968
0.00271367
0.00193474
0.00135825
0.000927114
0.000597163
0.00033344
0.000107117
21.2177
62.7286
101.566
136.261
165.742
189.387
206.999
218.739
225.043
226.523
223.888
217.874
209.2
198.529
186.456
173.495
160.081
146.569
133.245
120.331
107.992
96.3458
85.4721
75.4158
66.1955
57.8083
50.2348
43.4428
37.3913
32.0328
27.3161
23.1881
19.5953
16.4854
13.8075
11.5137
9.55893
7.90138
6.50286
5.32866
4.3476
3.53185
2.85681
2.30084
1.84511
1.4733
1.17136
0.927318
0.730974
0.573737
0.448396
0.34894
0.270383
0.208617
0.160273
0.122607
0.0933924
0.0708355
0.0534976
0.040231
0.0301251
0.0224613
0.0166753
0.0123261
0.00907109
0.00664519
0.00484428
0.00351189
0.00252849
0.00180298
0.00126592
0.000864188
0.000556684
0.000310857
9.9866e-05
17.3061
51.2299
83.1546
111.955
136.778
157.081
172.633
183.475
189.871
192.236
191.086
186.98
180.482
172.132
162.425
151.8
140.639
129.26
117.926
106.846
96.1813
86.0504
76.5372
67.6946
59.5505
52.1123
45.3713
39.3063
33.8864
29.0743
24.8283
21.1039
17.8559
15.0392
12.6097
10.5253
8.74648
7.23611
5.9602
4.88773
3.99071
3.24412
2.62574
2.11601
1.69785
1.35643
1.07899
0.854597
0.673954
0.529208
0.413763
0.322112
0.249686
0.192714
0.148105
0.113333
0.0863543
0.065516
0.0494935
0.0372295
0.0278845
0.0207956
0.0154421
0.011417
0.00840381
0.00615757
0.00448965
0.00325538
0.0023442
0.00167182
0.00117399
0.000801533
0.000516374
0.000288368
9.26443e-05
14.1712
41.9938
68.3019
92.2274
113.09
130.43
144.015
153.821
159.996
162.823
162.674
159.97
155.151
148.652
140.881
132.207
122.961
113.422
103.828
94.3697
85.2
76.4345
68.1573
60.4254
53.2727
46.7138
40.7484
35.3637
30.5376
26.2412
22.4408
19.1
16.1805
13.6438
11.4522
9.56889
7.95924
6.59069
5.43313
4.45901
3.64337
2.96383
2.40045
1.93565
1.55404
1.24223
0.988664
0.783442
0.618129
0.485588
0.379819
0.295805
0.229381
0.177107
0.136157
0.104225
0.0794387
0.0602871
0.0455563
0.0342772
0.0256799
0.0191562
0.0142281
0.0105218
0.00774657
0.00567717
0.00414019
0.00300255
0.00216252
0.0015425
0.00108334
0.000739736
0.000476611
0.000266181
8.55197e-05
11.6378
34.5165
56.2355
76.12
93.6273
108.374
120.142
128.874
134.647
137.649
138.147
136.459
132.926
127.893
121.695
114.641
107.01
99.0477
90.9617
82.9259
75.0803
67.5345
60.3704
53.6456
47.3975
41.6457
36.3958
31.6417
27.3683
23.5538
20.1715
17.1915
14.582
12.3104
10.3443
8.65208
7.20363
5.97043
4.92602
4.04608
3.30849
2.69333
2.18284
1.7613
1.41491
1.13166
0.901153
0.714461
0.563977
0.443251
0.346855
0.270244
0.209643
0.161927
0.124532
0.0953585
0.0727047
0.0551937
0.0417198
0.0313994
0.0235302
0.0175572
0.0130437
0.00964823
0.00710499
0.00520811
0.0037989
0.00275558
0.00198501
0.00141613
0.000994736
0.000679324
0.000437734
0.000244488
7.8553e-05
9.5769
28.4248
46.3767
62.9048
77.5758
90.0719
100.199
107.883
113.157
116.145
117.038
116.074
113.516
109.639
104.713
98.995
92.7199
86.0978
79.3107
72.5129
65.831
59.3661
53.1958
47.3767
41.9471
36.9296
32.334
28.1593
24.3958
21.0276
18.0338
15.3902
13.0705
11.0474
9.29328
7.78113
6.48484
5.37966
4.44246
3.65189
2.98846
2.43459
1.9745
1.59424
1.2815
1.02555
0.81711
0.64817
0.511904
0.402516
0.31512
0.245624
0.190622
0.147293
0.113318
0.0868028
0.0662038
0.0502747
0.0380133
0.0286182
0.0214521
0.0160109
0.0118979
0.00880289
0.00648401
0.00475398
0.0034684
0.00251636
0.00181303
0.00129366
0.00090886
0.000620764
0.000400045
0.000223455
7.17982e-05
7.89154
23.437
38.285
52.0206
64.2973
74.8532
83.5191
90.2173
94.9546
97.8099
98.9192
98.4601
96.6363
93.6645
89.7627
85.1417
79.998
74.5099
68.8347
63.1075
57.4411
51.9274
46.638
41.6269
36.9319
32.5772
28.5751
24.9282
21.6313
18.6729
16.0371
13.7044
11.6535
9.86132
8.30478
6.96077
5.80688
4.82173
3.98523
3.27875
2.68522
2.18917
1.77671
1.43549
1.15462
0.924572
0.73707
0.584994
0.462246
0.363646
0.284822
0.222106
0.172442
0.133298
0.102591
0.0786143
0.0599793
0.045563
0.0344617
0.0259522
0.0194593
0.0145276
0.0107986
0.00799156
0.00588783
0.00431788
0.00315093
0.00228651
0.00164775
0.00117595
0.000826299
0.000564455
0.0003638
0.000203226
6.53013e-05
6.50757
19.3369
31.6201
43.0294
53.2871
62.1786
69.5587
75.3525
79.5509
82.203
83.4053
83.29
82.0141
79.748
76.6669
72.9428
68.7389
64.2055
59.4768
54.67
49.8845
45.2021
40.6882
36.393
32.3527
28.5916
25.1237
21.954
19.0805
16.4956
14.187
12.1395
10.3357
8.75648
7.38254
6.19429
5.17259
4.29908
3.5564
2.9284
2.40019
1.95827
1.59045
1.28587
1.03494
0.829236
0.661451
0.525266
0.415267
0.326851
0.256123
0.199817
0.155203
0.120022
0.0924098
0.0708389
0.0540663
0.0410852
0.0310851
0.0234167
0.0175634
0.013116
0.00975197
0.0072189
0.00531991
0.00390233
0.00284834
0.00206739
0.00149015
0.00106368
0.000747537
0.000510728
0.000329212
0.00018392
5.91005e-05
5.36751
15.9565
26.1157
35.5852
44.1424
51.6116
57.8699
62.8483
66.5292
68.9418
70.1539
70.2643
69.3932
67.6746
65.2487
62.2553
58.8291
55.0957
51.1689
47.1492
43.1233
39.1633
35.3278
31.6626
28.2017
24.9688
21.9782
19.2368
16.7449
14.4976
12.4859
10.6979
9.11955
7.73524
6.52877
5.48368
4.58373
3.81325
3.15731
2.60197
2.13435
1.74269
1.41638
1.14592
0.922899
0.739923
0.590556
0.469229
0.371163
0.292285
0.229148
0.178854
0.138982
0.107523
0.0828194
0.0635115
0.0484916
0.0368619
0.027899
0.0210234
0.0157732
0.0117825
0.00876302
0.00648859
0.00478295
0.00350933
0.00256209
0.00186004
0.00134098
0.000957388
0.000672959
0.000459846
0.00029645
0.000165632
5.32262e-05
4.42622
13.1634
21.5609
29.4123
36.5386
42.7966
48.0829
52.3358
55.5342
57.6938
58.8621
59.1125
58.5373
57.2415
55.3369
52.9369
50.1518
47.0861
43.8356
40.4859
37.1116
33.7757
30.5301
27.4161
24.4648
21.6985
19.1317
16.7721
14.6216
12.6774
10.9332
9.37967
8.00557
6.79824
5.74423
4.82975
4.04112
3.365
2.78865
2.3001
1.88824
1.54293
1.25493
1.016
0.818798
0.656871
0.524581
0.417045
0.330063
0.260053
0.203979
0.159284
0.12383
0.0958418
0.073852
0.0566568
0.0432742
0.0329076
0.0249148
0.0187808
0.0140951
0.0105322
0.00783534
0.0058033
0.00427895
0.00314033
0.00229325
0.00166525
0.00120081
0.000857488
0.000602849
0.000412004
0.000265642
0.000148432
4.77012e-05
3.6478
10.8521
17.7872
24.2885
30.2123
35.4418
39.8907
43.5052
46.2629
48.1711
49.2628
49.5924
49.2306
48.2598
46.7687
44.8489
42.5907
40.0803
37.3979
34.6159
31.7979
28.9985
26.2632
23.6285
21.1226
18.7663
16.5733
14.5517
12.7046
11.0308
9.52584
8.18267
6.99236
5.94464
5.02844
4.23229
3.5447
2.95439
2.45054
2.02293
1.66204
1.35913
1.10625
0.896244
0.722764
0.580195
0.463625
0.368795
0.292036
0.230212
0.180662
0.141143
0.109777
0.085002
0.0655265
0.0502898
0.0384258
0.0292313
0.0221392
0.0166941
0.0125331
0.00936789
0.00697126
0.00516478
0.00380919
0.0027963
0.00204253
0.00148354
0.00107002
0.000764251
0.0005374
0.000367334
0.000236872
0.000132369
4.25411e-05
3.00347
8.93795
14.6585
20.0338
24.9482
29.3067
33.0379
36.0952
38.457
40.125
41.122
41.4883
41.2781
40.5557
39.3917
37.8596
36.033
33.9829
31.7759
29.4728
27.1277
24.7873
22.491
20.271
18.1523
16.1538
14.2886
12.5646
10.9854
9.5512
8.25886
7.10316
6.07708
5.17233
4.37986
3.69018
3.09367
2.58087
2.14261
1.77023
1.45559
1.19121
0.970276
0.786632
0.634789
0.509895
0.407696
0.324492
0.257096
0.202775
0.159211
0.124444
0.0968337
0.0750129
0.0578505
0.0444166
0.0339513
0.0258371
0.0195754
0.014766
0.0110891
0.00829123
0.00617192
0.0045739
0.00337433
0.00247774
0.00181031
0.00131519
0.000948811
0.000677821
0.000476717
0.000325909
0.000210188
0.000117468
3.77542e-05
2.46991
7.3521
12.064
16.5007
20.5691
24.1922
27.3108
29.8854
31.8958
33.3406
34.2352
34.6093
34.5046
33.9712
33.065
31.8452
30.3712
28.7014
26.8909
24.9903
23.0454
21.0958
19.1754
17.3122
15.5283
13.8405
12.261
10.7973
9.45346
8.23018
7.12565
6.13598
5.25571
4.47821
3.7961
3.20157
2.68663
2.24336
1.86405
1.54137
1.26842
1.03883
0.84677
0.686979
0.554741
0.445879
0.356726
0.284089
0.225209
0.17772
0.139609
0.109176
0.0849926
0.0658694
0.0508207
0.0390352
0.0298496
0.0227242
0.0172232
0.0129962
0.00976329
0.00730224
0.00543739
0.00403075
0.00297448
0.00218473
0.00159663
0.00116025
0.000837225
0.000598235
0.000420826
0.000287748
0.000185602
0.000103738
3.3343e-05
2.02812
6.03846
9.9131
13.5681
16.9287
19.9323
22.5303
24.6893
26.3911
27.6326
28.4238
28.787
28.7538
28.3633
27.6599
26.6908
25.5042
24.1477
22.6667
21.1032
19.4955
17.8772
16.2772
14.7196
13.2236
11.8043
10.4724
9.23525
8.09672
7.05812
6.11846
5.27494
4.52333
3.85836
3.27407
2.76404
2.32168
1.94038
1.6137
1.33546
1.09984
0.901451
0.735325
0.596978
0.482383
0.387967
0.310582
0.247485
0.1963
0.15499
0.121815
0.0953074
0.0742309
0.0575549
0.0444249
0.0341368
0.0261142
0.0198881
0.0150791
0.0113823
0.0085538
0.00639971
0.00476684
0.00353473
0.00260919
0.00191696
0.00140132
0.00101857
0.000735165
0.000525425
0.000369682
0.000252821
0.000163097
9.11682e-05
2.93044e-05
1.6625
4.95091
8.13109
11.1359
13.9053
16.3885
18.5457
20.3489
21.7822
22.8413
23.5329
23.8734
23.8868
23.6038
23.0594
22.2913
21.3383
20.2391
19.031
17.7488
16.4243
15.0857
13.7576
12.4604
11.2109
10.0222
8.90392
7.86267
6.90234
6.0245
5.22875
4.5131
3.87433
3.30829
2.81016
2.37472
1.99653
1.67013
1.39014
1.15139
0.948994
0.778397
0.635406
0.516214
0.417398
0.335914
0.269075
0.214535
0.17026
0.134501
0.105766
0.0827914
0.0645131
0.0500429
0.0386433
0.0297065
0.0227342
0.0173206
0.0131374
0.00992012
0.00745751
0.00558133
0.00415858
0.00308463
0.00227761
0.00167382
0.00122391
0.000889843
0.000642412
0.000459237
0.000323179
0.000221057
0.000142626
7.97334e-05
2.56302e-05
1.36017
4.05135
6.6562
9.12099
11.3975
13.4447
15.2301
16.7303
17.9315
18.8293
19.4277
19.7388
19.7812
19.5785
19.1583
18.5508
17.7873
16.8989
15.9163
14.8679
13.7803
12.6769
11.5784
10.5023
9.46273
8.47118
7.53613
6.66352
5.85702
5.11833
4.44746
3.84307
3.30271
2.82311
2.40043
2.03042
1.70863
1.43055
1.19173
0.98786
0.814844
0.668861
0.546382
0.444193
0.359401
0.289421
0.231973
0.18506
0.14695
0.116149
0.0913818
0.0715669
0.0557931
0.0432984
0.0334498
0.0257249
0.019695
0.015011
0.0113898
0.00860361
0.00647004
0.00484391
0.00361029
0.00267876
0.00197852
0.00145443
0.00106378
0.000773619
0.000558642
0.000399444
0.000281158
0.000192349
0.000124121
6.93958e-05
2.23084e-05
1.11049
3.30821
5.43708
7.45414
9.32069
11.0036
12.4764
13.7198
14.7219
15.4783
15.9916
16.2704
16.329
16.1858
15.8626
15.3832
14.7728
14.0568
13.2597
12.4052
11.515
10.6086
9.70331
8.81383
7.95234
7.12856
6.34993
5.62172
4.94732
4.32844
3.76537
3.25722
2.80218
2.39769
2.04069
1.72775
1.45524
1.21946
1.01673
0.843466
0.696273
0.571954
0.467551
0.380364
0.307957
0.248149
0.199013
0.158858
0.126214
0.0998123
0.078569
0.0615627
0.0480166
0.0372804
0.0288133
0.0221685
0.0169791
0.012946
0.00982668
0.00742556
0.00558608
0.00418352
0.00311909
0.00231502
0.00171037
0.00125767
0.000920121
0.000669324
0.000483449
0.000345758
0.000243421
0.000166562
0.000107497
6.01074e-05
1.93235e-05
0.904586
2.69523
4.43098
6.07752
7.60385
8.98327
10.1943
11.2209
12.0532
12.687
13.1237
13.3697
13.4358
13.3363
13.0884
12.7111
12.2243
11.6486
11.0039
10.3095
9.58321
8.84121
8.09782
7.36538
6.65417
5.9725
5.32675
4.72157
4.16002
3.64375
3.17323
2.7479
2.36643
2.02684
1.7267
1.46325
1.23355
1.03456
0.863272
0.716726
0.592099
0.486733
0.398165
0.324135
0.262601
0.211734
0.16991
0.135705
0.107878
0.0853575
0.0672251
0.0527001
0.0411236
0.0319432
0.0246991
0.0190111
0.0145668
0.0111111
0.00843703
0.00637779
0.00479955
0.00359568
0.0026817
0.001991
0.00147143
0.00108228
0.000792027
0.000576297
0.00041636
0.000297846
0.000209734
0.000143538
9.26513e-05
5.18118e-05
1.66575e-05
0.735085
2.1905
3.60219
4.94277
6.18742
7.31469
8.30711
9.15168
9.83999
10.3683
10.7372
10.9514
11.0191
10.9515
10.762
10.4656
10.0784
9.6167
9.09677
8.53419
7.94355
7.33816
6.72988
6.12898
5.54408
4.9822
4.44881
3.94795
3.48233
3.0535
2.66201
2.30757
1.98921
1.70539
1.45419
1.23342
1.0407
0.873547
0.729501
0.606132
0.501108
0.41223
0.337451
0.274893
0.22285
0.179793
0.144364
0.115368
0.0917616
0.0726439
0.0572414
0.0448956
0.0350501
0.0272379
0.0210702
0.0162247
0.0124369
0.00949016
0.00720894
0.00545143
0.00410387
0.00307555
0.00229452
0.00170409
0.00125977
0.000926873
0.000678485
0.000493813
0.000356858
0.000255341
0.000179842
0.000123103
7.94726e-05
4.44468e-05
1.42904e-05
0.595827
1.77574
2.92087
4.00938
5.02143
5.93981
6.75043
7.44266
8.00951
8.44764
8.75723
8.94168
9.00725
8.96256
8.81816
8.58594
8.27865
7.90941
7.49128
7.03689
6.55812
6.06588
5.56991
5.07873
4.59953
4.1382
3.69938
3.28655
2.90208
2.54738
2.22306
1.92898
1.66445
1.42829
1.21901
1.03485
0.873887
0.734128
0.613554
0.510179
0.42209
0.347472
0.284634
0.232019
0.188212
0.15194
0.122072
0.0976082
0.0776783
0.0615271
0.0485062
0.038063
0.0297299
0.0231141
0.0178879
0.0137801
0.0105673
0.00806673
0.00613
0.00463722
0.00349216
0.00261801
0.00195382
0.00145151
0.00107338
0.000789968
0.000578432
0.000421106
0.000304393
0.000217852
0.000153471
0.000105071
6.7842e-05
3.79462e-05
1.2201e-05
0.481664
1.43567
2.36203
3.24337
4.06387
4.80975
5.46965
6.03495
6.49985
6.86147
7.11969
7.27698
7.33807
7.30968
7.20003
7.01852
6.77527
6.48076
6.14547
5.77959
5.39277
4.99388
4.59092
4.1909
3.79977
3.42247
3.06289
2.72399
2.40783
2.11569
1.84815
1.60521
1.38637
1.19075
1.01716
0.864229
0.730406
0.614081
0.513619
0.427399
0.353857
0.291504
0.238947
0.194904
0.158203
0.127791
0.10273
0.0821885
0.0654424
0.0518625
0.0409075
0.0321159
0.0250965
0.0195206
0.0151136
0.0116478
0.00893575
0.00682394
0.00518756
0.00392572
0.0029574
0.00221786
0.00165573
0.00123046
0.000910186
0.000670063
0.000490774
0.000357386
0.000258399
0.000184979
0.000130341
8.92526e-05
5.76369e-05
3.22416e-05
1.03674e-05
0.388296
1.15749
1.90476
2.61629
3.27949
3.88334
4.41874
4.87869
5.25844
5.55553
5.76966
5.90261
5.958
5.94099
5.85803
5.7165
5.52443
5.29017
5.02209
4.7284
4.41688
4.09475
3.76851
3.44392
3.12588
2.81848
2.52499
2.2479
1.98899
1.74938
1.52962
1.32978
1.14953
0.98819
0.844856
0.718422
0.607663
0.511283
0.42796
0.356379
0.295265
0.243402
0.19965
0.162953
0.13235
0.106972
0.0860426
0.0688763
0.054872
0.043508
0.034335
0.0269689
0.0210843
0.0164072
0.0127086
0.00979844
0.00752004
0.00574506
0.00436905
0.00330752
0.00249256
0.0018699
0.00139643
0.00103808
0.000768122
0.000565645
0.000414413
0.000301861
0.00021831
0.000156318
0.000110169
7.54539e-05
4.87335e-05
2.72641e-05
8.76737e-06
0.312129
0.930532
1.53156
2.10428
2.63868
3.12597
3.55888
3.93175
4.24071
4.48367
4.66027
4.77177
4.82093
4.81172
4.74918
4.63911
4.48785
4.30202
4.08832
3.85331
3.60326
3.34399
3.0808
2.81837
2.56073
2.31125
2.07265
1.84701
1.63584
1.44013
1.26037
1.09669
0.948862
0.816384
0.698547
0.594486
0.503227
0.423732
0.354938
0.295781
0.245228
0.202289
0.166034
0.135601
0.110202
0.0891226
0.0717262
0.0574476
0.0457913
0.0363265
0.0286818
0.0225393
0.0176294
0.0137249
0.0106355
0.00820351
0.00629852
0.00481374
0.00366217
0.00277341
0.00209079
0.00156903
0.00117213
0.00087162
0.000645146
0.000475227
0.000348268
0.00025375
0.000183562
0.000131469
9.26761e-05
6.34852e-05
4.10096e-05
2.29454e-05
7.37902e-06
0.250159
0.745851
1.22781
1.68738
2.11663
2.50858
2.85741
3.15858
3.40896
3.60677
3.75165
3.8445
3.88738
3.88338
3.83641
3.75103
3.63221
3.48522
3.31538
3.12792
2.92787
2.71991
2.50834
2.29695
2.08902
1.88732
1.6941
1.51109
1.33956
1.18036
1.03394
0.900447
0.779728
0.671416
0.574965
0.489695
0.414837
0.349564
0.293021
0.244354
0.202727
0.167339
0.137435
0.112313
0.0913303
0.0739036
0.0595111
0.0476899
0.0380334
0.0301874
0.0238463
0.0187483
0.014671
0.0114267
0.00885847
0.00683566
0.00525042
0.00401427
0.00305511
0.00231451
0.00174546
0.00131033
0.000979186
0.000728376
0.000539288
0.000397367
0.000291292
0.000212294
0.000153613
0.000110045
7.75911e-05
5.31617e-05
3.43462e-05
1.92192e-05
6.18105e-06
0.199883
0.595999
0.981285
1.34891
1.69258
2.00679
2.2869
2.52927
2.73137
2.89173
3.00999
3.08678
3.12366
3.12302
3.08789
3.02182
2.92875
2.81281
2.67823
2.52917
2.36966
2.20344
2.03396
1.8643
1.69712
1.53468
1.37881
1.23097
1.09221
0.963237
0.844472
0.736053
0.637894
0.549722
0.471119
0.401554
0.340421
0.287063
0.240798
0.200941
0.16682
0.137788
0.113235
0.0925929
0.0753382
0.0609975
0.0491454
0.0394043
0.0314417
0.0249681
0.0197329
0.0155216
0.0121515
0.00946854
0.00734354
0.005669
0.00435605
0.00333177
0.00253663
0.00192242
0.00145027
0.0010891
0.000814134
0.000605794
0.000448665
0.000330691
0.000242484
0.000176771
0.000127942
9.16771e-05
6.46541e-05
4.43063e-05
2.86293e-05
1.6022e-05
5.15309e-06
0.159212
0.474766
0.781797
1.07492
1.34919
1.60023
1.82436
2.0187
2.18119
2.31063
2.40669
2.46979
2.50114
2.50255
2.47637
2.42539
2.35268
2.26151
2.15519
2.03706
1.91028
1.77788
1.64261
1.50694
1.37302
1.2427
1.11746
0.998503
0.886696
0.782647
0.686712
0.599029
0.519552
0.448083
0.384302
0.327798
0.278093
0.234668
0.196981
0.164486
0.136643
0.112934
0.0928665
0.0759821
0.0618583
0.0501115
0.0403965
0.0324065
0.0258711
0.0205546
0.0162526
0.0127899
0.0100175
0.00780909
0.00605908
0.00467934
0.00359703
0.00275228
0.00209622
0.00158922
0.00119933
0.000900953
0.000673711
0.000501464
0.00037151
0.000273904
0.000200901
0.000146497
0.000106058
7.60142e-05
5.36197e-05
3.67516e-05
2.37514e-05
1.32935e-05
4.27581e-06
0.126413
0.376985
0.620866
0.853826
1.07197
1.27185
1.45057
1.60581
1.73595
1.84
1.91764
1.9692
1.99556
1.99812
1.9787
1.93947
1.88282
1.81133
1.72761
1.63428
1.53387
1.42877
1.32119
1.21309
1.10623
1.00207
0.901838
0.806496
0.716772
0.633171
0.555997
0.48538
0.421302
0.363619
0.312088
0.266391
0.226155
0.19097
0.160407
0.134032
0.111414
0.092139
0.0758119
0.0620642
0.050556
0.0409779
0.0330511
0.0265277
0.0211885
0.0168424
0.0133237
0.0104898
0.00821961
0.00641034
0.00497587
0.00384436
0.00295634
0.00226291
0.00172414
0.0013076
0.000987144
0.000741807
0.000554886
0.000413149
0.000306176
0.000225802
0.000165666
0.000120836
8.7503e-05
6.27306e-05
4.42592e-05
3.03416e-05
1.96118e-05
1.09778e-05
3.53114e-06
0.100044
0.298367
0.491451
0.675981
0.848901
1.0075
1.14949
1.27305
1.37687
1.46015
1.52263
1.56451
1.58647
1.58957
1.57523
1.54512
1.50111
1.44522
1.3795
1.30601
1.22675
1.14362
1.05836
0.972557
0.887599
0.804672
0.724762
0.648653
0.576939
0.51004
0.448214
0.391579
0.340134
0.293775
0.252321
0.215524
0.183095
0.154711
0.130035
0.108722
0.0904308
0.0748306
0.0616064
0.0504633
0.0411289
0.0333547
0.0269166
0.0216149
0.0172731
0.0137367
0.0108718
0.00856337
0.00671302
0.00523761
0.00406725
0.00314362
0.0024184
0.00185185
0.00141147
0.00107085
0.000808692
0.000607909
0.000454875
0.000338791
0.000251147
0.000185273
0.000135969
9.92025e-05
7.18553e-05
5.15252e-05
3.63612e-05
2.49318e-05
1.61176e-05
9.02289e-06
2.90247e-06
0.0789129
0.235361
0.387718
0.533392
0.669993
0.795398
0.907805
1.00578
1.08828
1.15467
1.2047
1.23854
1.25667
1.25993
1.24938
1.22634
1.19225
1.14869
1.09726
1.03959
0.97724
0.911712
0.844392
0.776534
0.709244
0.643474
0.580014
0.519498
0.46241
0.409094
0.359767
0.314534
0.273404
0.236305
0.203099
0.173596
0.147572
0.124776
0.10494
0.0877939
0.0730673
0.0604977
0.0498348
0.0408436
0.0333066
0.0270252
0.02182
0.0175309
0.0140162
0.0111519
0.00883015
0.0069583
0.00545713
0.00425954
0.00330908
0.00255864
0.00196914
0.0015084
0.00115011
0.000872868
0.000659405
0.000495852
0.000371147
0.000276517
0.000205044
0.000151307
0.000111073
8.10604e-05
5.87294e-05
4.2123e-05
2.97326e-05
2.03906e-05
1.31838e-05
7.38134e-06
2.37456e-06
0.0620357
0.185035
0.304847
0.419453
0.52699
0.625796
0.714461
0.791859
0.857163
0.909863
0.949759
0.97695
0.991812
0.994968
0.987252
0.969666
0.943342
0.909494
0.869382
0.82427
0.775391
0.723924
0.670959
0.617491
0.564397
0.512434
0.462234
0.414307
0.369043
0.326724
0.287531
0.251555
0.21881
0.189246
0.16276
0.139207
0.118414
0.100184
0.0843089
0.0705758
0.0587716
0.048689
0.0401297
0.0329074
0.026849
0.0217967
0.0176074
0.0141533
0.0113212
0.00901176
0.00713881
0.00562796
0.00441569
0.00344807
0.00267977
0.00207285
0.00159588
0.00122293
0.000932784
0.000708179
0.000535173
0.000402566
0.000301418
0.000224636
0.000166624
0.000122991
9.03121e-05
6.59266e-05
4.77769e-05
3.42756e-05
2.41987e-05
1.65986e-05
1.07337e-05
6.01017e-06
1.93357e-06
0.0486015
0.144972
0.238867
0.328719
0.413077
0.490648
0.560332
0.621244
0.672736
0.714399
0.746068
0.767808
0.7799
0.782817
0.777199
0.763817
0.743547
0.71733
0.686145
0.650978
0.612793
0.572512
0.530995
0.489022
0.447287
0.40639
0.366834
0.329026
0.293282
0.259828
0.228814
0.200318
0.174357
0.150897
0.129861
0.111139
0.0945965
0.0800816
0.067432
0.0564807
0.0470607
0.0390088
0.0321687