/*--------------------------------*- C++ -*----------------------------------*\
  =========                 |
  \\      /  F ield         | OpenFOAM: The Open Source CFD Toolbox
   \\    /   O peration     | Website:  https://openfoam.org
    \\  /    A nd           | Version:  10
     \\/     M anipulation  |
\*---------------------------------------------------------------------------*/
FoamFile
{
    format      ascii;
    class       volScalarField;
    location    "216";
    object      gradTz;
}
// * * * * * * * * * * * * * * * * * * * * * * * * * * * * * * * * * * * * * //

dimensions      [0 -1 0 1 0 0 0];

internalField   nonuniform List<scalar> 
11250
(
-14360.7
-4155.96
-1535.15
-730.827
-425.148
-282.385
-203.729
-154.849
-121.724
-97.8012
-79.6807
-65.4591
-54.0037
-44.6063
-36.8041
-30.2804
-24.8087
-20.2193
-16.379
-13.1789
-10.5273
-8.34477
-6.56186
-5.11724
-3.9568
-3.03302
-2.30445
-1.73527
-1.2949
-0.957509
-0.701552
-0.509293
-0.366313
-0.261036
-0.184292
-0.128904
-0.089325
-0.0613236
-0.0417088
-0.0281044
-0.0187614
-0.0124079
-0.00812971
-0.005277
-0.00339334
-0.00216166
-0.00136411
-0.000852706
-0.000527972
-0.000323786
-0.000196655
-0.000118281
-7.04444e-05
-4.15381e-05
-2.42474e-05
-1.40102e-05
-8.01168e-06
-4.53358e-06
-2.53823e-06
-1.40582e-06
-7.70143e-07
-4.17236e-07
-2.23542e-07
-1.18399e-07
-6.19671e-08
-3.20603e-08
-1.64171e-08
-8.31445e-09
-4.1457e-09
-2.04376e-09
-1.00212e-09
-5.08197e-10
-2.46964e-10
-1.07567e-10
-4.39047e-11
-8286.27
-4883.17
-2788.27
-1693.21
-1111.99
-782.6
-581.068
-448.553
-355.839
-287.568
-235.203
-193.751
-160.16
-132.484
-109.433
-90.1131
-73.8799
-60.2455
-48.8243
-39.2994
-31.4016
-24.8977
-19.5823
-15.2739
-11.8121
-9.05559
-6.88111
-5.18207
-3.86734
-2.85991
-2.09556
-1.52137
-1.09432
-0.779858
-0.550608
-0.38514
-0.266896
-0.183237
-0.124631
-0.0839819
-0.0560646
-0.0370796
-0.0242952
-0.0157704
-0.0101413
-0.00646043
-0.00407693
-0.00254854
-0.00157802
-0.000967761
-0.000587795
-0.000353546
-0.000210565
-0.000124165
-7.24816e-05
-4.18812e-05
-2.39504e-05
-1.35533e-05
-7.58839e-06
-4.20307e-06
-2.30265e-06
-1.24755e-06
-6.68345e-07
-3.54005e-07
-1.85386e-07
-9.59515e-08
-4.90756e-08
-2.48226e-08
-1.24173e-08
-6.15544e-09
-2.98991e-09
-1.4302e-09
-7.0467e-10
-3.60019e-10
-1.78912e-10
-5612.64
-4299.98
-3039.51
-2139.91
-1545.38
-1153.62
-888.362
-701.746
-565.113
-461.331
-379.987
-314.599
-261.02
-216.516
-179.224
-147.828
-121.357
-99.0646
-80.3528
-64.7225
-51.7458
-41.0483
-32.2983
-25.2011
-19.4952
-14.9496
-11.3625
-8.55862
-6.38835
-4.72495
-3.46262
-2.51417
-1.80864
-1.28904
-0.91019
-0.636714
-0.441266
-0.30297
-0.206083
-0.138876
-0.0927154
-0.0613225
-0.0401815
-0.0260836
-0.016774
-0.0106862
-0.0067439
-0.00421586
-0.0026105
-0.00160102
-0.000972461
-0.00058494
-0.000348394
-0.000205449
-0.000119938
-6.93061e-05
-3.9636e-05
-2.2431e-05
-1.25598e-05
-6.95715e-06
-3.81176e-06
-2.06538e-06
-1.10659e-06
-5.86178e-07
-3.06985e-07
-1.5891e-07
-8.12863e-08
-4.11014e-08
-2.05628e-08
-1.01804e-08
-4.95355e-09
-2.36756e-09
-1.14811e-09
-5.86128e-10
-3.4575e-10
-4247.93
-3660.96
-2926.47
-2278.44
-1773.31
-1395.94
-1115.31
-903.777
-740.88
-612.495
-509.109
-424.33
-353.83
-294.624
-244.601
-202.22
-166.317
-135.969
-110.421
-89.0313
-71.2405
-56.5526
-44.5242
-34.7583
-26.9003
-20.6361
-15.6896
-11.8214
-8.82607
-6.52941
-4.78597
-3.47566
-2.50072
-1.78256
-1.25883
-0.880708
-0.61043
-0.419159
-0.285141
-0.192168
-0.128304
-0.0848674
-0.0556131
-0.0361032
-0.0232189
-0.0147929
-0.00933614
-0.0058367
-0.00361435
-0.00221681
-0.00134657
-0.000810019
-0.000482484
-0.000284542
-0.000166123
-9.6002e-05
-5.49081e-05
-3.10767e-05
-1.74026e-05
-9.64067e-06
-5.28264e-06
-2.86272e-06
-1.53401e-06
-8.12729e-07
-4.25652e-07
-2.20342e-07
-1.12746e-07
-5.70278e-08
-2.85161e-08
-1.40857e-08
-6.8656e-09
-3.30383e-09
-1.6113e-09
-8.13335e-10
-4.74171e-10
-3464.99
-3164.45
-2722.25
-2269.8
-1869.8
-1538.44
-1270.81
-1055.54
-881.223
-738.437
-620.027
-520.74
-436.767
-365.334
-304.385
-252.358
-208.025
-170.381
-138.577
-111.874
-89.6132
-71.2006
-56.0992
-43.8229
-33.9346
-26.0449
-19.8104
-14.9318
-11.152
-8.25253
-6.05056
-4.39506
-3.16289
-2.25499
-1.59273
-1.11448
-0.772572
-0.530564
-0.36097
-0.243298
-0.162459
-0.107469
-0.0704301
-0.045726
-0.0294098
-0.0187386
-0.0118273
-0.00739462
-0.00457942
-0.00280893
-0.00170638
-0.00102654
-0.000611506
-0.000360663
-0.000210585
-0.000121709
-6.96187e-05
-3.94072e-05
-2.20703e-05
-1.22282e-05
-6.70145e-06
-3.63213e-06
-1.94663e-06
-1.03151e-06
-5.40349e-07
-2.79796e-07
-1.43198e-07
-7.24263e-08
-3.62104e-08
-1.79109e-08
-8.72277e-09
-4.18083e-09
-2.02401e-09
-1.03725e-09
-6.10275e-10
-2976.01
-2803.23
-2522.27
-2203.32
-1892.92
-1613.32
-1370.94
-1164.29
-988.878
-839.72
-712.336
-603.051
-508.966
-427.823
-357.849
-297.622
-245.966
-201.88
-164.483
-132.981
-106.65
-84.8251
-66.8932
-52.2946
-40.5215
-31.1182
-23.6812
-17.8573
-13.3421
-9.87667
-7.24359
-5.26313
-3.78853
-2.70166
-1.90861
-1.33576
-0.926122
-0.636113
-0.432842
-0.29178
-0.194855
-0.128914
-0.0844932
-0.0548618
-0.0352891
-0.0224867
-0.0141942
-0.00887525
-0.00549684
-0.00337196
-0.0020486
-0.00123253
-0.000734289
-0.000433126
-0.000252924
-0.000146196
-8.36367e-05
-4.73487e-05
-2.6522e-05
-1.4697e-05
-8.05583e-06
-4.36701e-06
-2.34096e-06
-1.24073e-06
-6.50087e-07
-3.36666e-07
-1.72335e-07
-8.71947e-08
-4.36105e-08
-2.15671e-08
-1.05152e-08
-5.06002e-09
-2.43671e-09
-1.22275e-09
-7.43087e-10
-2651.89
-2542.51
-2353.12
-2121.75
-1879.6
-1646.32
-1431.75
-1239.3
-1068.89
-918.89
-787.165
-671.621
-570.388
-481.866
-404.694
-337.7
-279.85
-230.21
-187.918
-152.168
-122.202
-97.3058
-76.8108
-60.0988
-46.603
-35.8115
-27.2682
-20.5724
-15.3775
-11.3879
-8.35486
-6.07248
-4.37237
-3.1188
-2.20382
-1.5427
-1.0698
-0.734931
-0.500164
-0.337212
-0.225227
-0.149027
-0.0976874
-0.0634361
-0.0408089
-0.0260066
-0.0164178
-0.0102666
-0.00635921
-0.00390136
-0.00237047
-0.00142634
-0.000849849
-0.000501351
-0.000292801
-0.00016927
-9.68509e-05
-5.48383e-05
-3.07226e-05
-1.70278e-05
-9.33523e-06
-5.06163e-06
-2.7139e-06
-1.43872e-06
-7.53987e-07
-3.90615e-07
-2.00024e-07
-1.01201e-07
-5.06002e-08
-2.50169e-08
-1.22242e-08
-5.92055e-09
-2.84942e-09
-1.42032e-09
-8.69313e-10
-2427.98
-2352.94
-2217.59
-2043.43
-1850.86
-1655.21
-1466.27
-1289.38
-1126.89
-979.386
-846.53
-727.571
-621.607
-527.713
-444.987
-372.561
-309.594
-255.269
-208.78
-169.341
-136.185
-108.571
-85.7927
-67.1872
-52.1408
-40.0947
-30.5482
-23.0595
-17.2448
-12.7762
-9.37699
-6.81773
-4.9105
-3.50363
-2.47638
-1.7339
-1.20265
-0.826356
-0.562484
-0.379291
-0.253371
-0.167673
-0.109925
-0.0713917
-0.0459323
-0.029275
-0.0184831
-0.0115594
-0.00716076
-0.0043936
-0.00266986
-0.00160668
-0.000957416
-0.000564881
-0.000329951
-0.000190775
-0.000109173
-6.1826e-05
-3.46438e-05
-1.9205e-05
-1.0531e-05
-5.71131e-06
-3.06297e-06
-1.62416e-06
-8.51414e-07
-4.41205e-07
-2.25986e-07
-1.14384e-07
-5.72012e-08
-2.8268e-08
-1.38256e-08
-6.72181e-09
-3.25883e-09
-1.63106e-09
-9.68099e-10
-2268.77
-2213.64
-2111.47
-1975.02
-1817.79
-1651.27
-1484.04
-1321.82
-1168.09
-1024.79
-892.805
-772.435
-663.588
-565.95
-479.068
-402.389
-335.29
-277.09
-227.07
-184.483
-148.575
-118.595
-93.8138
-73.5375
-57.1157
-43.9519
-33.5083
-25.3082
-18.9361
-14.0355
-10.3054
-7.49552
-5.40046
-3.85437
-2.72503
-1.90847
-1.32403
-0.909949
-0.619504
-0.417814
-0.27915
-0.184762
-0.121145
-0.0786893
-0.0506339
-0.0322756
-0.02038
-0.0127472
-0.00789748
-0.00484619
-0.00294524
-0.00177262
-0.00105644
-0.000623391
-0.00036418
-0.000210599
-0.000120538
-6.82748e-05
-3.82648e-05
-2.12167e-05
-1.16368e-05
-6.31254e-06
-3.38627e-06
-1.79607e-06
-9.41793e-07
-4.88161e-07
-2.50117e-07
-1.26643e-07
-6.33545e-08
-3.13271e-08
-1.53107e-08
-7.41989e-09
-3.61006e-09
-1.83412e-09
-1.08774e-09
-2153.27
-2110.32
-2029.22
-1918
-1785.82
-1641.31
-1491.6
-1342.16
-1196.87
-1058.37
-928.364
-807.887
-697.486
-597.363
-507.463
-427.532
-357.16
-295.816
-242.874
-197.645
-159.399
-127.391
-100.88
-79.1506
-61.5261
-47.3804
-36.1455
-27.3158
-20.4487
-15.1637
-11.1385
-8.10445
-5.84118
-4.17021
-2.94916
-2.06597
-1.43364
-0.985491
-0.671067
-0.452674
-0.302493
-0.200243
-0.131315
-0.0853074
-0.0548997
-0.0349992
-0.0221025
-0.0138263
-0.00856704
-0.00525769
-0.00319573
-0.00192362
-0.00114659
-0.000676683
-0.000395373
-0.000228675
-0.000130907
-7.41614e-05
-4.15723e-05
-2.30556e-05
-1.26483e-05
-6.86289e-06
-3.68248e-06
-1.95375e-06
-1.02476e-06
-5.31304e-07
-2.72291e-07
-1.37934e-07
-6.90434e-08
-3.41315e-08
-1.66706e-08
-8.09712e-09
-3.93606e-09
-1.98779e-09
-1.22823e-09
-2068.29
-2033.1
-1965.79
-1871.7
-1757.32
-1629.2
-1493.26
-1354.44
-1216.66
-1082.91
-955.367
-835.556
-724.507
-622.829
-530.802
-448.436
-375.52
-311.665
-256.345
-208.932
-168.73
-135.008
-107.023
-84.0478
-65.3859
-50.389
-38.4655
-29.0858
-21.785
-16.1621
-11.8768
-8.64494
-6.23288
-4.45125
-3.1488
-2.2064
-1.53146
-1.05297
-0.71716
-0.483857
-0.323387
-0.214109
-0.14043
-0.0912415
-0.0587265
-0.0374437
-0.0236492
-0.0147956
-0.00916878
-0.00562767
-0.00342103
-0.00205951
-0.00122775
-0.000724685
-0.000423483
-0.000244973
-0.000140261
-7.94758e-05
-4.45603e-05
-2.47181e-05
-1.35635e-05
-7.36125e-06
-3.95091e-06
-2.09673e-06
-1.10008e-06
-5.70559e-07
-2.92489e-07
-1.48197e-07
-7.42033e-08
-3.66988e-08
-1.79592e-08
-8.73045e-09
-4.20936e-09
-2.12499e-09
-1.33251e-09
-2005.18
-1975.09
-1917.02
-1834.74
-1733.04
-1617.05
-1491.72
-1361.48
-1230.1
-1100.69
-975.672
-856.925
-745.802
-643.227
-549.749
-465.597
-390.735
-324.906
-267.678
-218.485
-176.67
-141.52
-112.297
-88.2664
-68.7215
-52.9965
-40.4812
-30.6271
-22.951
-17.0349
-12.5233
-9.11896
-6.57688
-4.69838
-3.32457
-2.33017
-1.61775
-1.11254
-0.75789
-0.511433
-0.341877
-0.226388
-0.148505
-0.0965024
-0.062121
-0.0396131
-0.0250225
-0.0156567
-0.00970354
-0.00595662
-0.00362144
-0.00218043
-0.00130001
-0.000767443
-0.000448536
-0.000259506
-0.000148608
-8.42205e-05
-4.72298e-05
-2.62044e-05
-1.43822e-05
-7.8075e-06
-4.19149e-06
-2.225e-06
-1.16774e-06
-6.05856e-07
-3.10667e-07
-1.57439e-07
-7.88528e-08
-3.90236e-08
-1.91117e-08
-9.27816e-09
-4.49694e-09
-2.27536e-09
-1.38958e-09
-1958.02
-1931.37
-1879.6
-1805.56
-1712.94
-1605.9
-1488.66
-1365.2
-1239.1
-1113.45
-990.816
-873.278
-762.419
-659.393
-564.957
-479.52
-403.194
-335.835
-277.096
-226.472
-183.343
-147.018
-116.767
-91.8559
-71.5689
-55.2288
-42.2114
-31.9532
-23.9563
-17.7888
-13.0828
-9.5298
-6.87546
-4.91316
-3.47751
-2.43799
-1.693
-1.16454
-0.793472
-0.535543
-0.358055
-0.237138
-0.155581
-0.101114
-0.0650983
-0.0415169
-0.0262282
-0.016413
-0.0101735
-0.00624584
-0.00379772
-0.00228685
-0.00136362
-0.000805106
-0.000470615
-0.000272321
-0.000155972
-8.84092e-05
-4.95881e-05
-2.75183e-05
-1.51067e-05
-8.20263e-06
-4.40467e-06
-2.3388e-06
-1.22779e-06
-6.37165e-07
-3.26842e-07
-1.65693e-07
-8.30051e-08
-4.11157e-08
-2.01479e-08
-9.77099e-09
-4.73073e-09
-2.37854e-09
-1.46642e-09
-1922.65
-1898.35
-1850.97
-1782.72
-1696.63
-1596.19
-1485.08
-1366.9
-1245.04
-1122.54
-1002.03
-885.692
-775.269
-672.079
-577.038
-490.695
-413.282
-344.752
-284.831
-233.07
-188.884
-151.604
-120.512
-94.8737
-73.9705
-57.1172
-43.6789
-33.0807
-24.8129
-18.4325
-13.5613
-9.88175
-7.13163
-5.09769
-3.60907
-2.53084
-1.75788
-1.20942
-0.824205
-0.556385
-0.37205
-0.246446
-0.16171
-0.105112
-0.0676806
-0.043169
-0.027275
-0.0170701
-0.0105819
-0.00649729
-0.00395106
-0.00237945
-0.00141901
-0.00083791
-0.000489855
-0.000283495
-0.000162396
-9.20655e-05
-5.16479e-05
-2.86668e-05
-1.57403e-05
-8.54849e-06
-4.59145e-06
-2.43855e-06
-1.28047e-06
-6.6469e-07
-3.41082e-07
-1.72968e-07
-8.66745e-08
-4.29553e-08
-2.10567e-08
-1.02089e-08
-4.91623e-09
-2.46086e-09
-1.5663e-09
-1896.08
-1873.43
-1829.11
-1764.98
-1683.61
-1588.02
-1481.51
-1367.39
-1248.9
-1128.98
-1010.28
-895.048
-785.126
-681.946
-586.542
-499.572
-421.363
-351.947
-291.114
-238.459
-193.433
-155.386
-123.612
-97.3812
-75.9726
-58.6961
-44.9091
-34.0281
-25.5343
-18.9757
-13.9658
-10.1798
-7.34889
-5.25441
-3.72096
-2.6099
-1.81317
-1.2477
-0.850453
-0.574199
-0.384023
-0.254413
-0.166961
-0.108539
-0.0698955
-0.0445867
-0.0281739
-0.0176344
-0.0109329
-0.00671348
-0.00408294
-0.00245913
-0.00146669
-0.000866163
-0.000506433
-0.000293127
-0.000167936
-9.52207e-05
-5.34264e-05
-2.9659e-05
-1.62881e-05
-8.84773e-06
-4.75314e-06
-2.52499e-06
-1.32621e-06
-6.88623e-07
-3.53444e-07
-1.7929e-07
-8.98817e-08
-4.45446e-08
-2.17943e-08
-1.05492e-08
-5.1127e-09
-2.58928e-09
-1.63435e-09
-1876.13
-1854.63
-1812.48
-1751.29
-1673.33
-1581.31
-1478.24
-1367.23
-1251.36
-1133.51
-1016.32
-902.053
-792.629
-689.556
-593.95
-506.556
-427.771
-357.692
-296.161
-242.813
-197.126
-158.47
-126.15
-99.4411
-77.6226
-60.0011
-45.9287
-34.8152
-26.1349
-19.4289
-14.304
-10.4293
-7.53107
-5.38602
-3.81504
-2.67645
-1.85978
-1.28001
-0.872619
-0.589258
-0.394151
-0.261158
-0.171409
-0.111444
-0.0717741
-0.0457899
-0.0289371
-0.0181139
-0.0112312
-0.00689728
-0.00419512
-0.00252693
-0.00150727
-0.000890222
-0.000520556
-0.000301336
-0.00017266
-9.79123e-05
-5.49444e-05
-3.05064e-05
-1.67562e-05
-9.10364e-06
-4.89155e-06
-2.59901e-06
-1.36536e-06
-7.09118e-07
-3.64053e-07
-1.84724e-07
-9.26257e-08
-4.59089e-08
-2.2488e-08
-1.08993e-08
-5.25429e-09
-2.65404e-09
-1.71448e-09
-1861.16
-1840.48
-1799.87
-1740.8
-1665.3
-1575.9
-1475.4
-1366.74
-1252.9
-1136.69
-1020.71
-907.264
-798.299
-695.377
-599.676
-511.999
-432.803
-362.234
-300.174
-246.293
-200.091
-160.957
-128.205
-101.115
-78.9673
-61.0677
-46.7642
-35.4618
-26.6294
-19.8027
-14.5834
-10.6359
-7.68214
-5.4953
-3.89326
-2.73186
-1.89862
-1.30696
-0.891132
-0.601846
-0.402625
-0.266806
-0.175136
-0.113879
-0.0733501
-0.0467998
-0.0295779
-0.0185167
-0.0114819
-0.00705183
-0.00428947
-0.00258398
-0.00154143
-0.000910478
-0.000532451
-0.000308252
-0.000176642
-0.000100182
-5.62251e-05
-3.12216e-05
-1.71515e-05
-9.31983e-06
-5.00855e-06
-2.66165e-06
-1.39852e-06
-7.26476e-07
-3.73047e-07
-1.89323e-07
-9.49428e-08
-4.70746e-08
-2.30642e-08
-1.11836e-08
-5.40357e-09
-2.72429e-09
-1.75838e-09
-1849.96
-1829.86
-1790.35
-1732.8
-1659.1
-1571.61
-1473.01
-1366.13
-1253.83
-1138.89
-1023.89
-911.119
-802.556
-699.797
-604.064
-516.205
-436.718
-365.789
-303.334
-249.046
-202.448
-162.942
-129.85
-102.459
-80.0513
-61.9299
-47.4413
-35.987
-27.032
-20.1076
-14.8118
-10.805
-7.80601
-5.58505
-3.95759
-2.77749
-1.93064
-1.3292
-0.906424
-0.612253
-0.409636
-0.271483
-0.178225
-0.115899
-0.0746577
-0.0476381
-0.0301102
-0.0188513
-0.0116903
-0.00718033
-0.00436794
-0.00263144
-0.00156986
-0.000927341
-0.000542356
-0.000314013
-0.00017996
-0.000102074
-5.72927e-05
-3.18181e-05
-1.74813e-05
-9.50029e-06
-5.10625e-06
-2.71399e-06
-1.42625e-06
-7.40992e-07
-3.80555e-07
-1.9318e-07
-9.69218e-08
-4.80713e-08
-2.35285e-08
-1.14086e-08
-5.54516e-09
-2.80002e-09
-1.76168e-09
-1841.61
-1821.92
-1783.2
-1726.74
-1654.33
-1568.25
-1471.06
-1365.5
-1254.38
-1140.42
-1026.18
-913.953
-805.73
-703.129
-607.401
-519.426
-439.737
-368.546
-305.796
-251.202
-204.302
-164.509
-131.154
-103.529
-80.9157
-62.6194
-47.9842
-36.4091
-27.3562
-20.3537
-14.9964
-10.942
-7.90648
-5.65794
-4.00991
-2.81464
-1.95675
-1.34736
-0.918918
-0.620763
-0.415375
-0.275313
-0.180756
-0.117555
-0.0757307
-0.0483264
-0.0305474
-0.0191263
-0.0118616
-0.00728599
-0.00443249
-0.00267049
-0.00159325
-0.000941219
-0.000550509
-0.000318756
-0.000182692
-0.000103632
-5.81723e-05
-3.23096e-05
-1.77532e-05
-9.64912e-06
-5.18683e-06
-2.75716e-06
-1.44914e-06
-7.52978e-07
-3.86762e-07
-1.96376e-07
-9.85452e-08
-4.88582e-08
-2.39325e-08
-1.16172e-08
-5.66041e-09
-2.87137e-09
-1.77704e-09
-1835.4
-1816.01
-1777.86
-1722.18
-1650.71
-1565.66
-1469.5
-1364.92
-1254.68
-1141.47
-1027.82
-916.025
-808.08
-705.621
-609.917
-521.873
-442.043
-370.665
-307.698
-252.874
-205.745
-165.734
-132.177
-104.37
-81.5978
-63.1649
-48.4148
-36.7447
-27.6144
-20.5502
-15.1441
-11.0517
-7.98709
-5.71651
-4.05201
-2.84457
-1.97781
-1.36202
-0.929015
-0.627648
-0.420021
-0.278417
-0.182809
-0.118899
-0.0766017
-0.0488854
-0.0309026
-0.0193498
-0.0120008
-0.00737191
-0.00448499
-0.00270225
-0.00161229
-0.000952512
-0.000557144
-0.000322616
-0.000184916
-0.0001049
-5.88884e-05
-3.27099e-05
-1.79746e-05
-9.77032e-06
-5.25248e-06
-2.79235e-06
-1.4678e-06
-7.62761e-07
-3.91842e-07
-1.98944e-07
-9.98404e-08
-4.95245e-08
-2.42793e-08
-1.18016e-08
-5.72078e-09
-2.90869e-09
-1.7957e-09
-1830.81
-1811.63
-1773.88
-1718.76
-1647.98
-1563.67
-1468.27
-1364.42
-1254.83
-1142.18
-1028.99
-917.531
-809.811
-707.472
-611.8
-523.716
-443.791
-372.278
-309.153
-254.159
-206.858
-166.681
-132.971
-105.025
-82.1305
-63.5921
-48.7527
-37.0086
-27.818
-20.7053
-15.2609
-11.1387
-8.05107
-5.76307
-4.08551
-2.86843
-1.99461
-1.37372
-0.937088
-0.633157
-0.423742
-0.280905
-0.184455
-0.119977
-0.0773011
-0.0493345
-0.0311881
-0.0195295
-0.0121128
-0.00744102
-0.00452722
-0.00272781
-0.0016276
-0.000961597
-0.000562482
-0.000325722
-0.000186704
-0.00010592
-5.94644e-05
-3.30318e-05
-1.81527e-05
-9.86784e-06
-5.3053e-06
-2.82066e-06
-1.48281e-06
-7.70634e-07
-3.95904e-07
-2.01049e-07
-1.00911e-07
-5.00579e-08
-2.45537e-08
-1.18938e-08
-5.78225e-09
-2.95479e-09
-1.82534e-09
-1827.43
-1808.4
-1770.95
-1716.23
-1645.94
-1562.16
-1467.31
-1364
-1254.9
-1142.67
-1029.81
-918.62
-811.076
-708.837
-613.199
-525.093
-445.103
-373.495
-310.255
-255.136
-207.709
-167.408
-133.581
-105.53
-82.5423
-63.9231
-49.0152
-37.2141
-27.9768
-20.8265
-15.3523
-11.2068
-8.10131
-5.79968
-4.1119
-2.88723
-2.00787
-1.38297
-0.943474
-0.637519
-0.426691
-0.282877
-0.185761
-0.120833
-0.0778566
-0.0496913
-0.031415
-0.0196724
-0.0122019
-0.00749598
-0.00456081
-0.00274813
-0.00163978
-0.000968822
-0.000566727
-0.000328191
-0.000188127
-0.000106731
-5.99222e-05
-3.32876e-05
-1.82942e-05
-9.94528e-06
-5.34729e-06
-2.84315e-06
-1.49471e-06
-7.76863e-07
-3.99124e-07
-2.02701e-07
-1.01766e-07
-5.04992e-08
-2.47623e-08
-1.202e-08
-5.84811e-09
-2.95808e-09
-1.844e-09
-1824.96
-1806.04
-1768.79
-1714.36
-1644.42
-1561.03
-1466.58
-1363.65
-1254.92
-1143
-1030.4
-919.402
-811.995
-709.837
-614.23
-526.113
-446.081
-374.406
-311.083
-255.873
-208.352
-167.959
-134.046
-105.916
-82.8574
-64.177
-49.217
-37.3723
-28.0994
-20.9203
-15.4232
-11.2597
-8.14036
-5.82818
-4.13246
-2.90191
-2.01823
-1.39021
-0.948471
-0.640935
-0.429002
-0.284425
-0.186786
-0.121506
-0.0782931
-0.0499718
-0.0315934
-0.0197847
-0.0122719
-0.00753922
-0.00458723
-0.00276412
-0.00164935
-0.000974504
-0.000570064
-0.000330131
-0.000189244
-0.000107368
-6.02816e-05
-3.34884e-05
-1.84052e-05
-1.00061e-05
-5.38019e-06
-2.86078e-06
-1.50405e-06
-7.81739e-07
-4.01674e-07
-2.0402e-07
-1.02418e-07
-5.08065e-08
-2.49181e-08
-1.21265e-08
-5.8964e-09
-2.9932e-09
-1.83741e-09
-1823.16
-1804.32
-1767.21
-1712.99
-1643.3
-1560.19
-1466.03
-1363.38
-1254.91
-1143.22
-1030.81
-919.96
-812.658
-710.564
-614.984
-526.864
-446.803
-375.081
-311.7
-256.424
-208.834
-168.373
-134.396
-106.207
-83.0961
-64.3698
-49.3706
-37.4931
-28.1931
-20.992
-15.4775
-11.3003
-8.17038
-5.85012
-4.14831
-2.91323
-2.02623
-1.3958
-0.952342
-0.643584
-0.430795
-0.285626
-0.187583
-0.122028
-0.0786326
-0.05019
-0.0317323
-0.0198722
-0.0123264
-0.00757287
-0.00460779
-0.00277656
-0.00165681
-0.000978922
-0.000572658
-0.000331639
-0.000190112
-0.000107862
-6.05605e-05
-3.36441e-05
-1.84913e-05
-1.00532e-05
-5.40568e-06
-2.87441e-06
-1.51125e-06
-7.85569e-07
-4.03673e-07
-2.05006e-07
-1.02892e-07
-5.10645e-08
-2.50619e-08
-1.21726e-08
-5.92494e-09
-3.00528e-09
-1.85278e-09
-1821.86
-1803.07
-1766.07
-1712
-1642.48
-1559.57
-1465.62
-1363.17
-1254.89
-1143.36
-1031.1
-920.357
-813.133
-711.088
-615.531
-527.411
-447.332
-375.578
-312.155
-256.831
-209.192
-168.682
-134.658
-106.425
-83.2752
-64.5147
-49.4863
-37.5842
-28.2639
-21.0464
-15.5187
-11.3312
-8.19324
-5.86684
-4.16041
-2.92189
-2.03235
-1.40009
-0.955308
-0.645615
-0.432171
-0.286549
-0.188195
-0.12243
-0.0788937
-0.0503579
-0.0318391
-0.0199395
-0.0123684
-0.00759877
-0.00462362
-0.00278613
-0.00166253
-0.000982319
-0.000574651
-0.000332797
-0.000190778
-0.000108241
-6.07742e-05
-3.37634e-05
-1.85572e-05
-1.00891e-05
-5.42514e-06
-2.88482e-06
-1.5168e-06
-7.88475e-07
-4.05159e-07
-2.05781e-07
-1.03301e-07
-5.12489e-08
-2.5142e-08
-1.22055e-08
-5.92055e-09
-3.02613e-09
-1.90327e-09
-1820.93
-1802.17
-1765.25
-1711.28
-1641.89
-1559.12
-1465.31
-1363.01
-1254.86
-1143.46
-1031.3
-920.636
-813.471
-711.464
-615.925
-527.807
-447.716
-375.94
-312.487
-257.13
-209.455
-168.91
-134.851
-106.587
-83.4083
-64.6227
-49.5726
-37.6523
-28.3169
-21.0872
-15.5497
-11.3544
-8.21046
-5.87946
-4.16955
-2.92843
-2.03699
-1.40333
-0.957557
-0.647157
-0.433217
-0.28725
-0.18866
-0.122736
-0.0790924
-0.0504857
-0.0319205
-0.0199907
-0.0124004
-0.00761849
-0.00463566
-0.00279341
-0.00166689
-0.000984901
-0.000576165
-0.000333676
-0.000191283
-0.000108529
-6.09362e-05
-3.38537e-05
-1.8607e-05
-1.01163e-05
-5.43985e-06
-2.89271e-06
-1.52096e-06
-7.90627e-07
-4.06271e-07
-2.06346e-07
-1.03596e-07
-5.13948e-08
-2.51881e-08
-1.22384e-08
-5.97104e-09
-3.05577e-09
-1.90437e-09
-1820.26
-1801.54
-1764.66
-1710.76
-1641.46
-1558.79
-1465.09
-1362.89
-1254.84
-1143.52
-1031.43
-920.832
-813.711
-711.732
-616.207
-528.091
-447.993
-376.202
-312.729
-257.348
-209.647
-169.076
-134.993
-106.705
-83.5062
-64.7023
-49.6364
-37.7027
-28.3562
-21.1175
-15.5727
-11.3717
-8.2233
-5.88888
-4.17638
-2.93333
-2.04046
-1.40577
-0.959246
-0.648315
-0.434003
-0.287778
-0.189011
-0.122966
-0.0792421
-0.050582
-0.0319818
-0.0200293
-0.0124244
-0.00763334
-0.00464473
-0.00279889
-0.00167017
-0.000986841
-0.000577303
-0.000334336
-0.000191662
-0.000108744
-6.10573e-05
-3.39211e-05
-1.86442e-05
-1.01367e-05
-5.45083e-06
-2.89857e-06
-1.52404e-06
-7.92248e-07
-4.07103e-07
-2.06755e-07
-1.03812e-07
-5.15266e-08
-2.52507e-08
-1.22615e-08
-5.98092e-09
-3.04699e-09
-1.91205e-09
-1819.79
-1801.08
-1764.24
-1710.39
-1641.16
-1558.55
-1464.92
-1362.8
-1254.82
-1143.57
-1031.53
-920.969
-813.879
-711.921
-616.407
-528.294
-448.19
-376.389
-312.902
-257.504
-209.786
-169.197
-135.096
-106.792
-83.5776
-64.7604
-49.683
-37.7396
-28.3851
-21.1397
-15.5896
-11.3845
-8.23277
-5.89584
-4.18143
-2.93696
-2.04304
-1.40758
-0.9605
-0.649176
-0.434587
-0.28817
-0.189272
-0.123138
-0.0793537
-0.0506538
-0.0320275
-0.0200581
-0.0124424
-0.00764441
-0.00465148
-0.00280297
-0.00167261
-0.000988285
-0.000578148
-0.000334826
-0.000191943
-0.000108904
-6.1147e-05
-3.3971e-05
-1.86716e-05
-1.01516e-05
-5.4589e-06
-2.90286e-06
-1.52631e-06
-7.93437e-07
-4.07722e-07
-2.07071e-07
-1.03967e-07
-5.1599e-08
-2.52968e-08
-1.2279e-08
-5.96336e-09
-3.02942e-09
-1.94608e-09
-1819.46
-1800.76
-1763.95
-1710.13
-1640.94
-1558.39
-1464.81
-1362.74
-1254.8
-1143.59
-1031.59
-921.063
-813.996
-712.053
-616.548
-528.437
-448.33
-376.523
-313.025
-257.616
-209.885
-169.283
-135.17
-106.854
-83.6291
-64.8024
-49.7168
-37.7664
-28.4061
-21.1559
-15.602
-11.3938
-8.2397
-5.90093
-4.18514
-2.93962
-2.04493
-1.40891
-0.961423
-0.64981
-0.435018
-0.28846
-0.189464
-0.123264
-0.079436
-0.0507068
-0.0320612
-0.0200794
-0.0124556
-0.00765257
-0.00465646
-0.00280598
-0.00167441
-0.000989346
-0.000578769
-0.000335185
-0.000192149
-0.000109021
-6.12125e-05
-3.40074e-05
-1.86916e-05
-1.01625e-05
-5.46474e-06
-2.90599e-06
-1.52799e-06
-7.94305e-07
-4.08149e-07
-2.07284e-07
-1.04071e-07
-5.16681e-08
-2.53626e-08
-1.22966e-08
-5.95897e-09
-3.04369e-09
-1.91644e-09
-1819.23
-1800.54
-1763.74
-1709.95
-1640.79
-1558.27
-1464.73
-1362.69
-1254.79
-1143.61
-1031.64
-921.128
-814.077
-712.145
-616.646
-528.537
-448.429
-376.616
-313.113
-257.696
-209.955
-169.345
-135.223
-106.898
-83.666
-64.8325
-49.7411
-37.7857
-28.4212
-21.1676
-15.6109
-11.4005
-8.24471
-5.90463
-4.18782
-2.94155
-2.0463
-1.40987
-0.962094
-0.650272
-0.435332
-0.288671
-0.189605
-0.123357
-0.079496
-0.0507455
-0.0320858
-0.0200949
-0.0124653
-0.00765853
-0.00466009
-0.00280817
-0.00167571
-0.000990117
-0.00057922
-0.000335446
-0.000192298
-0.000109105
-6.12599e-05
-3.40337e-05
-1.87061e-05
-1.01703e-05
-5.46895e-06
-2.90823e-06
-1.52917e-06
-7.94924e-07
-4.08453e-07
-2.07441e-07
-1.04162e-07
-5.17121e-08
-2.53736e-08
-1.22911e-08
-5.97323e-09
-3.05247e-09
-1.90876e-09
-1819.07
-1800.39
-1763.6
-1709.83
-1640.68
-1558.19
-1464.67
-1362.66
-1254.78
-1143.62
-1031.66
-921.173
-814.133
-712.209
-616.714
-528.606
-448.498
-376.682
-313.174
-257.751
-210.005
-169.388
-135.26
-106.93
-83.6921
-64.8539
-49.7583
-37.7994
-28.4319
-21.1759
-15.6173
-11.4053
-8.24831
-5.90727
-4.18975
-2.94294
-2.04729
-1.41057
-0.962578
-0.650604
-0.435558
-0.288823
-0.189706
-0.123423
-0.0795395
-0.0507734
-0.0321036
-0.0201061
-0.0124722
-0.00766282
-0.00466271
-0.00280975
-0.00167665
-0.000990673
-0.000579544
-0.000335633
-0.000192405
-0.000109166
-6.12937e-05
-3.40525e-05
-1.87163e-05
-1.01759e-05
-5.47192e-06
-2.90981e-06
-1.53001e-06
-7.95354e-07
-4.08691e-07
-2.07576e-07
-1.04189e-07
-5.17011e-08
-2.53714e-08
-1.23142e-08
-5.99519e-09
-3.05577e-09
-1.91095e-09
-1818.96
-1800.28
-1763.5
-1709.74
-1640.61
-1558.13
-1464.63
-1362.63
-1254.77
-1143.63
-1031.68
-921.203
-814.171
-712.252
-616.761
-528.654
-448.545
-376.728
-313.216
-257.79
-210.04
-169.418
-135.286
-106.952
-83.7104
-64.8689
-49.7704
-37.8091
-28.4395
-21.1818
-15.6218
-11.4088
-8.25085
-5.90915
-4.19112
-2.94393
-2.04799
-1.41106
-0.962923
-0.650842
-0.43572
-0.288932
-0.189779
-0.123471
-0.0795705
-0.0507934
-0.0321163
-0.0201141
-0.0124772
-0.0076659
-0.00466458
-0.00281087
-0.00167732
-0.000991068
-0.000579774
-0.000335766
-0.000192481
-0.000109208
-6.13177e-05
-3.40657e-05
-1.87236e-05
-1.01798e-05
-5.47403e-06
-2.91091e-06
-1.53059e-06
-7.95659e-07
-4.08834e-07
-2.07648e-07
-1.04237e-07
-5.17252e-08
-2.53868e-08
-1.2346e-08
-5.99299e-09
-3.01625e-09
-1.90766e-09
-1818.88
-1800.21
-1763.43
-1709.68
-1640.56
-1558.09
-1464.6
-1362.62
-1254.76
-1143.63
-1031.7
-921.223
-814.197
-712.282
-616.793
-528.687
-448.578
-376.759
-313.246
-257.817
-210.063
-169.439
-135.304
-106.967
-83.7231
-64.8794
-49.7789
-37.8158
-28.4448
-21.1859
-15.625
-11.4112
-8.25264
-5.91047
-4.19209
-2.94463
-2.04849
-1.41141
-0.963167
-0.65101
-0.435835
-0.289009
-0.18983
-0.123505
-0.0795925
-0.0508076
-0.0321253
-0.0201198
-0.0124808
-0.00766807
-0.0046659
-0.00281167
-0.0016778
-0.000991347
-0.000579936
-0.00033586
-0.000192534
-0.000109238
-6.13344e-05
-3.40749e-05
-1.87286e-05
-1.01825e-05
-5.47551e-06
-2.91171e-06
-1.53098e-06
-7.95852e-07
-4.08926e-07
-2.07681e-07
-1.04273e-07
-5.17582e-08
-2.53923e-08
-1.23416e-08
-5.99738e-09
-3.03381e-09
-1.87693e-09
-1818.83
-1800.16
-1763.39
-1709.64
-1640.53
-1558.06
-1464.58
-1362.61
-1254.76
-1143.63
-1031.71
-921.236
-814.214
-712.302
-616.815
-528.71
-448.6
-376.78
-313.265
-257.835
-210.08
-169.453
-135.316
-106.978
-83.7319
-64.8866
-49.7847
-37.8205
-28.4485
-21.1888
-15.6271
-11.4128
-8.25389
-5.91139
-4.19276
-2.94511
-2.04884
-1.41166
-0.963337
-0.651127
-0.435915
-0.289063
-0.189866
-0.123528
-0.0796079
-0.0508175
-0.0321317
-0.0201237
-0.0124832
-0.00766959
-0.00466683
-0.00281222
-0.00167813
-0.000991541
-0.000580049
-0.000335924
-0.000192571
-0.000109259
-6.13459e-05
-3.40812e-05
-1.87321e-05
-1.01844e-05
-5.47652e-06
-2.91223e-06
-1.53125e-06
-7.96002e-07
-4.09007e-07
-2.07724e-07
-1.04286e-07
-5.17636e-08
-2.54098e-08
-1.23416e-08
-5.98641e-09
-3.04589e-09
-1.88132e-09
-1818.8
-1800.12
-1763.36
-1709.61
-1640.5
-1558.04
-1464.57
-1362.6
-1254.76
-1143.64
-1031.71
-921.245
-814.225
-712.315
-616.829
-528.725
-448.615
-376.794
-313.279
-257.847
-210.091
-169.463
-135.325
-106.985
-83.7379
-64.8915
-49.7887
-37.8237
-28.451
-21.1908
-15.6287
-11.414
-8.25474
-5.91203
-4.19322
-2.94545
-2.04908
-1.41183
-0.963455
-0.651209
-0.43597
-0.289101
-0.189891
-0.123545
-0.0796186
-0.0508244
-0.032136
-0.0201265
-0.0124849
-0.00767064
-0.00466747
-0.00281261
-0.00167836
-0.000991675
-0.000580127
-0.000335969
-0.000192596
-0.000109273
-6.13538e-05
-3.40856e-05
-1.87344e-05
-1.01857e-05
-5.47719e-06
-2.91259e-06
-1.53142e-06
-7.96089e-07
-4.09061e-07
-2.07759e-07
-1.04297e-07
-5.17395e-08
-2.53857e-08
-1.23669e-08
-6.01824e-09
-3.04808e-09
-1.87583e-09
-1818.77
-1800.1
-1763.34
-1709.59
-1640.49
-1558.03
-1464.56
-1362.59
-1254.75
-1143.64
-1031.72
-921.251
-814.233
-712.324
-616.839
-528.735
-448.625
-376.804
-313.288
-257.855
-210.098
-169.47
-135.33
-106.99
-83.7419
-64.8948
-49.7915
-37.8259
-28.4528
-21.1921
-15.6297
-11.4147
-8.25533
-5.91246
-4.19354
-2.94567
-2.04924
-1.41194
-0.963536
-0.651265
-0.436008
-0.289126
-0.189908
-0.123556
-0.0796259
-0.0508291
-0.032139
-0.0201284
-0.0124861
-0.00767136
-0.00466791
-0.00281287
-0.00167851
-0.000991766
-0.00058018
-0.000335999
-0.000192613
-0.000109283
-6.13592e-05
-3.40885e-05
-1.8736e-05
-1.01865e-05
-5.47764e-06
-2.91286e-06
-1.53157e-06
-7.96127e-07
-4.09094e-07
-2.07788e-07
-1.04307e-07
-5.17603e-08
-2.53901e-08
-1.23482e-08
-6.02482e-09
-3.0426e-09
-1.87583e-09
-1818.76
-1800.09
-1763.32
-1709.58
-1640.48
-1558.02
-1464.55
-1362.59
-1254.75
-1143.64
-1031.72
-921.255
-814.238
-712.33
-616.845
-528.741
-448.631
-376.81
-313.294
-257.861
-210.103
-169.474
-135.334
-106.993
-83.7446
-64.8971
-49.7933
-37.8273
-28.4539
-21.193
-15.6304
-11.4153
-8.25572
-5.91275
-4.19376
-2.94583
-2.04935
-1.41202
-0.963591
-0.651302
-0.436034
-0.289144
-0.189919
-0.123564
-0.0796309
-0.0508323
-0.0321411
-0.0201297
-0.0124869
-0.00767185
-0.0046682
-0.00281305
-0.00167862
-0.000991828
-0.000580216
-0.00033602
-0.000192625
-0.000109289
-6.13628e-05
-3.40905e-05
-1.87371e-05
-1.01871e-05
-5.47793e-06
-2.913e-06
-1.53165e-06
-7.96183e-07
-4.09086e-07
-2.07772e-07
-1.04321e-07
-5.17867e-08
-2.54022e-08
-1.23482e-08
-6.0358e-09
-3.03491e-09
-1.86814e-09
-1818.75
-1800.08
-1763.31
-1709.57
-1640.47
-1558.02
-1464.55
-1362.59
-1254.75
-1143.64
-1031.72
-921.258
-814.241
-712.334
-616.85
-528.746
-448.635
-376.815
-313.298
-257.865
-210.107
-169.477
-135.337
-106.995
-83.7464
-64.8986