/*--------------------------------*- C++ -*----------------------------------*\
  =========                 |
  \\      /  F ield         | OpenFOAM: The Open Source CFD Toolbox
   \\    /   O peration     | Website:  https://openfoam.org
    \\  /    A nd           | Version:  10
     \\/     M anipulation  |
\*---------------------------------------------------------------------------*/
FoamFile
{
    format      ascii;
    class       volScalarField;
    location    "100";
    object      gradTx;
}
// * * * * * * * * * * * * * * * * * * * * * * * * * * * * * * * * * * * * * //

dimensions      [0 -1 0 1 0 0 0];

internalField   nonuniform List<scalar> 
11250
(
14244.1
7939.2
5043.54
3470.14
2495.89
1835.88
1362.74
1012.31
748.493
548.841
398.084
285.082
201.301
140.01
95.8475
64.5448
42.7378
27.8159
17.7909
11.1804
6.90268
4.18652
2.4943
1.45985
0.839341
0.474095
0.263098
0.14346
0.0768687
0.040478
0.0209504
0.0106591
0.00533172
0.00262234
0.00126838
0.00060341
0.000282385
0.000130019
5.89073e-05
2.62664e-05
1.15284e-05
4.98129e-06
2.11924e-06
8.87873e-07
3.66357e-07
1.4893e-07
5.96412e-08
2.35285e-08
9.16072e-09
3.52445e-09
1.34458e-09
5.04904e-10
1.90985e-10
5.92713e-11
7.68332e-12
0
1.09762e-12
-2.19524e-12
0
2.19524e-12
0
1.09762e-12
0
-2.19524e-11
9.87856e-12
-1.09762e-12
-1.09762e-12
0
1.09762e-12
0
-5.48809e-12
0
-7.68332e-12
0
-9.87856e-12
4040.77
4540.41
3737.93
2892.76
2207.2
1676.94
1268.86
954.085
711.209
524.488
382.004
274.421
194.238
135.352
92.799
62.5687
41.4713
27.0143
17.2906
10.8725
6.71613
4.07522
2.42895
1.42209
0.817884
0.462102
0.256505
0.139896
0.0749739
0.0394873
0.020441
0.0104016
0.00520361
0.00255966
0.00123821
0.000589123
0.000275728
0.000126966
5.75295e-05
2.56543e-05
1.12607e-05
4.86597e-06
2.07035e-06
8.67464e-07
3.57986e-07
1.45525e-07
5.82725e-08
2.30028e-08
8.939e-09
3.41579e-09
1.25348e-09
4.55511e-10
1.56959e-10
5.37833e-11
-6.5857e-12
-6.5857e-12
-1.4269e-11
0
-4.39047e-12
0
0
-1.09762e-12
0
2.41476e-11
5.48809e-12
0
-1.09762e-12
1.09762e-12
-1.09762e-12
0
-8.78094e-12
0
8.78094e-12
2.19523e-12
0
1422.8
2453.97
2491.27
2177.04
1788.24
1423.1
1109.83
851.733
644.055
479.896
352.218
254.507
180.963
126.557
87.0207
58.812
39.0579
25.4841
16.3338
10.2831
6.35853
3.86165
2.30344
1.34952
0.776618
0.439021
0.24381
0.13303
0.0713217
0.0375771
0.0194584
0.00990445
0.00495626
0.0024386
0.00117992
0.000561507
0.000262855
0.000121061
5.48634e-05
2.44694e-05
1.07422e-05
4.64262e-06
1.97561e-06
8.27898e-07
3.41715e-07
1.38923e-07
5.56459e-08
2.19754e-08
8.53288e-09
3.24346e-09
1.21177e-09
4.33559e-10
1.6574e-10
5.59785e-11
7.68332e-12
-1.09762e-12
0
4.39047e-12
0
-2.19524e-12
0
0
0
-1.4269e-11
-1.09762e-11
2.19524e-12
3.29285e-12
2.19523e-12
0
0
3.29285e-12
8.78094e-12
0
-1.09762e-12
8.78094e-12
622.607
1371.17
1611.7
1556.26
1369.53
1143.51
922.571
725.513
558.518
421.77
312.735
227.777
162.976
114.552
79.0894
53.6321
35.718
23.36
15.0025
9.46121
5.85899
3.56287
2.12762
1.24776
0.718686
0.406592
0.225959
0.123368
0.0661793
0.0348858
0.0180733
0.00920341
0.00460728
0.00226772
0.00109761
0.000522502
0.000244667
0.000112715
5.10941e-05
2.27937e-05
1.00089e-05
4.32657e-06
1.84148e-06
7.7184e-07
3.18622e-07
1.29551e-07
5.19085e-08
2.04739e-08
7.94785e-09
3.01955e-09
1.14811e-09
4.14899e-10
1.44886e-10
4.60999e-11
2.96357e-11
5.48809e-12
1.4269e-11
-4.39047e-12
5.48809e-12
6.58571e-12
0
-2.19523e-12
0
-1.09762e-12
-4.39047e-12
3.29285e-12
0
1.09762e-12
0
2.19524e-12
5.48809e-12
0
-1.09762e-12
-1.09762e-12
-5.48809e-12
322.178
805.539
1042.66
1085.81
1012.46
883.258
736.623
594.06
466.237
357.391
268.129
197.119
142.102
100.492
69.7318
47.4847
31.7351
20.817
13.4033
8.47122
5.25588
3.20141
1.91455
1.12424
0.648283
0.367134
0.204217
0.111589
0.0599052
0.0315998
0.016381
0.00834634
0.00418039
0.00205858
0.000996824
0.000474718
0.000222377
0.000102482
4.64711e-05
2.07379e-05
9.10878e-06
3.93858e-06
1.67679e-06
7.02966e-07
2.90255e-07
1.18033e-07
4.72788e-08
1.86496e-08
7.25854e-09
2.78685e-09
1.04932e-09
3.79776e-10
1.17445e-10
2.08547e-11
7.68332e-12
4.39047e-12
1.09762e-12
-8.78094e-12
-5.48809e-12
0
0
0
0
1.86595e-11
0
-1.09762e-12
-1.09762e-12
-3.29285e-12
0
-1.09762e-12
-9.87856e-12
-1.20738e-11
-7.68332e-12
-1.09762e-12
-1.09762e-12
185.59
494.499
680.908
749.256
731.682
662.763
569.645
470.575
376.474
293.055
222.604
165.309
120.159
85.5572
59.7075
40.8538
27.4146
18.0454
11.6535
7.3843
4.59183
2.80245
1.67887
0.987371
0.570138
0.323276
0.18002
0.0984645
0.0529073
0.0279313
0.0144901
0.00738798
0.00370272
0.00182442
0.000883913
0.000421157
0.000197378
9.10013e-05
4.12819e-05
1.84292e-05
8.09762e-06
3.50257e-06
1.49162e-06
6.25515e-07
2.58339e-07
1.05105e-07
4.21057e-08
1.66102e-08
6.44521e-09
2.47732e-09
9.27487e-10
3.51238e-10
1.29519e-10
3.84166e-11
-8.78094e-12
0
-1.09762e-12
2.19524e-12
1.09762e-12
-6.58571e-12
1.09762e-12
2.19523e-12
1.09762e-12
0
-1.09762e-12
-4.39047e-12
0
0
0
-2.19524e-12
4.39047e-12
1.09762e-12
-4.39047e-12
0
0
113.821
313.432
449.117
514.195
520.539
486.432
429.228
362.428
295.256
233.302
179.428
134.627
98.7035
70.7908
49.7057
34.1877
23.0438
15.2267
9.86592
6.26975
3.90867
2.39085
1.43513
0.845509
0.488991
0.277656
0.154812
0.0847745
0.045599
0.024096
0.0125113
0.00638417
0.00320198
0.00157877
0.000765379
0.000364893
0.000171103
7.89273e-05
3.58217e-05
1.59988e-05
7.03272e-06
3.04319e-06
1.29647e-06
5.43862e-07
2.24676e-07
9.14425e-08
3.66582e-08
1.44589e-08
5.60334e-09
2.13816e-09
8.02358e-10
3.06235e-10
1.05371e-10
3.40261e-11
1.09762e-11
-9.87856e-12
-1.09762e-12
-7.68332e-12
4.39047e-12
-4.39047e-12
0
-2.19523e-12
1.09762e-12
-5.48809e-12
2.19523e-12
2.19524e-12
0
0
-1.20738e-11
1.09762e-12
1.31714e-11
2.19524e-12
0
-7.68332e-12
0
72.3126
202.826
298.345
351.488
365.846
350.661
316.434
272.417
225.639
180.824
140.743
106.679
78.8922
57.001
40.277
27.8538
18.8631
12.5153
8.13813
5.18798
3.24323
1.98867
1.19632
0.706184
0.409126
0.232672
0.129915
0.0712324
0.0383598
0.0202922
0.0105467
0.00538652
0.00270386
0.00133419
0.00064727
0.000308789
0.000144885
6.68721e-05
3.03669e-05
1.35695e-05
5.96774e-06
2.58351e-06
1.10113e-06
4.62115e-07
1.90974e-07
7.77322e-08
3.11658e-08
1.23273e-08
4.7933e-09
1.82095e-09
7.01378e-10
2.52452e-10
9.00046e-11
2.305e-11
2.85381e-11
7.68332e-12
2.305e-11
3.29285e-12
-3.29285e-12
0
0
0
-3.29285e-12
0
0
0
7.68332e-12
-1.09762e-12
0
1.09762e-12
-1.09762e-12
0
6.5857e-12
0
4.39047e-12
46.8226
132.807
198.857
239.217
254.382
248.876
228.854
200.369
168.446
136.753
107.645
82.3908
61.4467
44.7221
31.8021
22.115
15.0492
10.0273
6.54466
4.18594
2.62447
1.61346
0.972869
0.575483
0.334032
0.19029
0.106414
0.0584288
0.0315051
0.0166857
0.00868155
0.00443834
0.00222995
0.00110128
0.000534698
0.000255273
0.000119858
5.53562e-05
2.51527e-05
1.12459e-05
4.9485e-06
2.14334e-06
9.13956e-07
3.83771e-07
1.58696e-07
6.46332e-08
2.59257e-08
1.02638e-08
4.00301e-09
1.52898e-09
5.82835e-10
2.12938e-10
8.67118e-11
4.60999e-11
3.07333e-11
1.4269e-11
1.4269e-11
1.4269e-11
-4.39047e-12
4.39047e-12
-1.09762e-12
2.19523e-12
8.78094e-12
0
-1.09762e-12
0
1.4269e-11
2.19523e-12
1.31714e-11
-1.09762e-12
2.19523e-12
5.48809e-12
6.58571e-12
8.78094e-12
2.19524e-12
30.5896
87.4012
132.515
161.895
175.044
174.114
162.645
144.483
123.069
101.092
80.4066
62.1099
46.6967
34.2289
24.4929
17.1261
11.7111
7.83668
5.13444
3.29514
2.07224
1.27742
0.77213
0.457745
0.266222
0.151934
0.0851043
0.0467983
0.0252685
0.0133995
0.00697987
0.0035722
0.00179656
0.000888062
0.000431546
0.000206192
9.6885e-05
4.47778e-05
2.03595e-05
9.10854e-06
4.01036e-06
1.73799e-06
7.41534e-07
3.11533e-07
1.28917e-07
5.25386e-08
2.10951e-08
8.32762e-09
3.26322e-09
1.26555e-09
4.70878e-10
1.83302e-10
7.4638e-11
5.59785e-11
2.19524e-11
7.68332e-12
-1.97571e-11
-1.09762e-12
2.19523e-12
-1.09762e-12
-1.09762e-12
0
1.09762e-12
-1.09762e-12
-1.09762e-12
-1.09762e-12
-6.58571e-12
0
-1.09762e-12
0
1.09762e-12
0
-6.58571e-12
0
1.09762e-12
20.0311
57.5249
88.0122
108.788
119.165
120.131
113.699
102.265
88.1168
73.1458
58.7332
45.7563
34.6642
25.582
18.4164
12.9468
8.89577
5.97832
3.93193
2.53209
1.59729
0.987391
0.598324
0.355515
0.207194
0.118469
0.0664735
0.036611
0.0197966
0.0105118
0.00548239
0.00280901
0.00141422
0.000699755
0.000340351
0.000162758
7.65382e-05
3.54007e-05
1.61074e-05
7.21109e-06
3.17697e-06
1.37765e-06
5.88137e-07
2.47227e-07
1.02358e-07
4.17171e-08
1.67507e-08
6.61424e-09
2.5816e-09
1.01859e-09
3.78678e-10
1.55862e-10
8.23213e-11
3.18309e-11
2.08547e-11
1.64643e-11
-1.4269e-11
0
4.39047e-12
-1.09762e-12
3.29285e-12
1.4269e-11
-8.78094e-12
0
0
-9.87856e-12
-3.7319e-11
-1.09762e-12
0
0
-3.29285e-12
-5.48809e-12
0
-2.19523e-12
-3.29285e-12
13.088
37.7247
58.1105
72.4755
80.2119
81.7484
78.2231
71.1073
61.8879
51.8552
41.9967
32.9747
25.1589
18.6865
13.5302
9.56134
6.60043
4.45449
2.94085
1.90036
1.20251
0.745444
0.452867
0.269713
0.157522
0.0902425
0.0507257
0.0279834
0.0151542
0.00805794
0.00420798
0.00215862
0.00108798
0.000538891
0.000262363
0.000125578
5.9104e-05
2.73589e-05
1.24578e-05
5.58118e-06
2.46056e-06
1.06768e-06
4.56061e-07
1.91811e-07
7.94302e-08
3.24039e-08
1.30199e-08
5.16868e-09
2.0262e-09
8.02358e-10
3.29285e-10
1.52569e-10
6.36618e-11
2.63428e-11
2.74404e-11
-3.29285e-12
-3.29285e-12
0
-1.09762e-12
2.19524e-12
0
-1.09762e-12
5.48809e-12
0
-1.09762e-11
-5.48809e-12
-2.19524e-12
-1.09762e-12
0
1.09762e-12
0
0
4.39047e-12
0
1.09762e-12
8.50461
24.5818
38.0622
47.8062
53.348
54.858
52.9757
48.5951
42.6658
36.0461
29.4195
23.265
17.8675
13.3506
9.71967
6.90276
4.7867
3.2437
2.14948
1.39369
0.884622
0.549923
0.334944
0.19995
0.117029
0.0671771
0.0378292
0.0209039
0.0113379
0.00603735
0.003157
0.00162149
0.000818202
0.000405703
0.000197719
9.47264e-05
4.46234e-05
2.06734e-05
9.42105e-06
4.22386e-06
1.86348e-06
8.09146e-07
3.45821e-07
1.45503e-07
6.02757e-08
2.45987e-08
9.89941e-09
3.94264e-09
1.55862e-09
6.22349e-10
2.74404e-10
1.20738e-10
4.28071e-11
3.07333e-11
7.68332e-12
-1.20738e-11
1.09762e-12
-8.78094e-12
-7.68332e-12
-3.29285e-12
-1.09762e-12
-1.4269e-11
1.09762e-12
-1.20738e-11
-1.09762e-12
1.09762e-11
2.305e-11
-2.19523e-12
0
0
-1.09762e-12
-4.39047e-12
-8.78094e-12
1.09762e-12
6.58571e-12
5.48273
15.8813
24.6905
31.1853
35.0342
36.2926
35.3186
32.6505
28.8855
24.5829
20.203
16.0806
12.4245
9.33555
6.83153
4.87455
3.39486
2.30963
1.53605
0.999253
0.636186
0.396584
0.242166
0.144904
0.0849944
0.0488857
0.0275795
0.015266
0.00829304
0.00442247
0.00231572
0.00119091
0.000601647
0.000298658
0.000145703
6.98743e-05
3.29467e-05
1.52771e-05
6.96767e-06
3.12637e-06
1.38033e-06
5.99781e-07
2.5652e-07
1.08002e-07
4.47641e-08
1.82556e-08
7.34635e-09
2.90978e-09
1.13384e-09
4.4673e-10
1.81107e-10
6.5857e-11
2.63428e-11
1.75619e-11
-1.75619e-11
-1.31714e-11
4.39047e-12
0
1.09762e-12
0
-1.09762e-12
-1.09762e-12
-6.5857e-12
0
1.20738e-11
8.78094e-12
2.19523e-12
0
-1.09762e-12
-2.19523e-12
-6.5857e-12
4.39047e-12
0
0
0
3.50025
10.1561
15.8407
20.0982
22.7029
23.6634
23.1789
21.5712
19.2106
16.455
13.6073
10.8945
8.46415
6.39268
4.70048
3.36889
2.35589
1.60887
1.07373
0.700747
0.447461
0.279699
0.171223
0.102693
0.0603646
0.0347887
0.0196627
0.0109025
0.00593209
0.00316814
0.00166122
0.000855428
0.000432688
0.000215032
0.000105018
5.04141e-05
2.37937e-05
1.10429e-05
5.04081e-06
2.26364e-06
1.00021e-06
4.34959e-07
1.86183e-07
7.84731e-08
3.25553e-08
1.32965e-08
5.37064e-09
2.11621e-09
8.1553e-10
3.05138e-10
9.54927e-11
5.48809e-12
-2.19523e-11
-2.305e-11
-3.62214e-11
-8.78094e-12
0
7.68332e-12
8.78094e-12
6.58571e-12
1.09762e-12
-4.39047e-12
0
1.31714e-11
9.87856e-12
0
-1.09762e-12
2.19523e-12
-4.39047e-12
0
-7.68332e-12
3.29285e-12
8.78094e-12
9.87856e-12
-3.29285e-12
2.20976
6.42044
10.0405
12.7862
14.5091
15.2011
14.9727
14.0144
12.5532
10.814
8.99219
7.2378
5.65162
4.28882
3.16762
2.27975
1.60044
1.0969
0.734506
0.480846
0.307926
0.192992
0.118435
0.0711955
0.0419391
0.0242177
0.0137131
0.00761666
0.00415089
0.00222018
0.00116579
0.000601098
0.00030442
0.000151463
7.40528e-05
3.5586e-05
1.68118e-05
7.80973e-06
3.56812e-06
1.60367e-06
7.09173e-07
3.08636e-07
1.32224e-07
5.57754e-08
2.31949e-08
9.50756e-09
3.84166e-09
1.53776e-09
6.01494e-10
2.21719e-10
6.25642e-11
-2.19524e-12
-2.41476e-11
-3.40261e-11
-1.31714e-11
-4.39047e-12
-4.39047e-12
0
8.78094e-12
-1.09762e-12
0
1.09762e-12
0
-2.19524e-12
5.48809e-12
-4.39047e-12
-1.09762e-12
-1.09762e-12
0
1.09762e-12
-4.39047e-12
-7.68332e-12
-2.19524e-12
2.19523e-12
5.48809e-12
1.37801
4.00828
6.28179
8.02421
9.14016
9.61795
9.51849
8.95367
8.0608
6.97917
5.83218
4.71688
3.70013
2.82021
2.09157
1.51118
1.06477
0.732261
0.491902
0.322984
0.207408
0.130328
0.0801725
0.0483026
0.0285132
0.0164971
0.00935844
0.0052068
0.00284211
0.00152243
0.000800535
0.000413315
0.00020958
0.000104398
5.10987e-05
2.45813e-05
1.16244e-05
5.40511e-06
2.47173e-06
1.11186e-06
4.9209e-07
2.14312e-07
9.18958e-08
3.87997e-08
1.61328e-08
6.64168e-09
2.6727e-09
1.08445e-09
4.25876e-10
1.53666e-10
4.82952e-11
4.28071e-11
3.7319e-11
1.97571e-11
1.20738e-11
1.97571e-11
1.09762e-12
3.29285e-12
0
-2.19523e-12
-2.19523e-12
5.48809e-12
1.09762e-12
0
-9.87856e-12
-1.09762e-12
0
-3.29285e-12
4.39047e-12
-1.09762e-12
-3.29285e-12
5.48809e-12
-3.29285e-12
-9.87856e-12
-1.09762e-12
0.848094
2.46917
3.87664
4.96466
5.6733
5.9921
5.9544
5.62532
5.08691
4.42408
3.71343
3.01633
2.37607
1.81831
1.3537
0.981615
0.694013
0.478829
0.322634
0.212445
0.136788
0.0861678
0.0531307
0.0320804
0.018976
0.0110001
0.00625137
0.00348398
0.00190474
0.00102183
0.00053806
0.000278167
0.000141227
7.04325e-05
3.45126e-05
1.66201e-05
7.86752e-06
3.66176e-06
1.67602e-06
7.54592e-07
3.34246e-07
1.45722e-07
6.25192e-08
2.6412e-08
1.09718e-08
4.50462e-09
1.81217e-09
7.12354e-10
2.87576e-10
9.87856e-11
3.18309e-11
3.18309e-11
4.17095e-11
2.19524e-11
4.39047e-12
2.96357e-11
-1.09762e-12
-2.19524e-12
-9.87856e-12
0
0
-4.39047e-12
0
2.19524e-12
-4.39047e-12
1.09762e-12
8.78094e-12
4.39047e-12
0
0
9.87856e-12
1.20738e-11
5.48809e-12
-5.48809e-12
-4.39047e-12
0.514774
1.49989
2.35842
3.0269
3.46843
3.67505
3.66486
3.47539
3.15509
2.75491
2.32158
1.89315
1.49701
1.14983
0.859059
0.625042
0.443333
0.306806
0.20732
0.136884
0.0883616
0.055796
0.0344813
0.0208641
0.012366
0.0071819
0.00408868
0.00228247
0.00124981
0.000671478
0.00035407
0.00018329
9.31734e-05
4.65224e-05
2.28221e-05
1.10021e-05
5.21341e-06
2.42882e-06
1.11274e-06
5.01449e-07
2.22311e-07
9.70228e-08
4.16535e-08
1.76036e-08
7.35513e-09
3.00967e-09
1.22165e-09
4.71976e-10
1.8879e-10
4.82952e-11
3.18309e-11
8.78094e-12
2.19523e-11
2.52452e-11
3.7319e-11
1.53666e-11
-1.09762e-12
-1.09762e-12
-1.09762e-12
2.19524e-12
-1.09762e-12
-8.78094e-12
-1.09762e-12
0
-8.78094e-12
-9.87856e-12
0
2.19523e-12
4.39047e-12
1.09762e-12
1.31714e-11
-4.39047e-12
3.29285e-12
-1.09762e-12
-1.09762e-12
0.307987
0.897971
1.41378
1.81787
2.08795
2.21843
2.2191
2.11135
1.92341
1.68541
1.42538
1.16646
0.925586
0.713337
0.534693
0.39026
0.277638
0.192688
0.130561
0.0864259
0.0559257
0.0353958
0.0219218
0.0132918
0.00789328
0.00459263
0.00261912
0.00146449
0.00080315
0.000432132
0.000228179
0.000118275
6.01987e-05
3.00933e-05
1.47792e-05
7.13242e-06
3.38321e-06
1.5777e-06
7.23508e-07
3.26336e-07
1.44811e-07
6.32403e-08
2.71825e-08
1.15063e-08
4.80427e-09
1.96693e-09
8.02358e-10
3.30383e-10
1.1525e-10
3.95142e-11
3.51238e-11
1.09762e-11
9.87856e-12
1.09762e-11
2.96357e-11
8.78094e-12
1.86595e-11
0
2.19523e-12
0
0
-6.5857e-12
-1.09762e-12
3.29285e-12
0
-1.09762e-12
-7.68332e-12
0
0
1.09762e-12
-4.39047e-12
-8.78094e-12
0
0
-5.48809e-12
0.181553
0.529638
0.834787
1.07511
1.23734
1.31783
1.32178
1.26127
1.15253
1.01312
0.859568
0.705688
0.561741
0.434272
0.326499
0.239
0.170507
0.118654
0.0806038
0.0534871
0.0346917
0.0220051
0.0136571
0.0082971
0.00493644
0.00287734
0.00164368
0.000920538
0.000505603
0.000272429
0.000144047
7.47628e-05
3.80992e-05
1.90682e-05
9.37516e-06
4.52926e-06
2.15062e-06
1.00389e-06
4.60793e-07
2.08024e-07
9.2415e-08
4.03857e-08
1.73928e-08
7.3716e-09
3.05028e-09
1.25567e-09
4.95025e-10
1.89888e-10
8.23213e-11
5.1588e-11
2.63428e-11
2.19524e-11
-1.31714e-11
-1.20738e-11
-3.29285e-12
-8.78094e-12
1.31714e-11
0
0
-2.19524e-12
3.29285e-12
8.78094e-12
0
-1.86595e-11
8.78094e-12
1.09762e-11
0
1.09762e-12
-4.39047e-12
0
-1.20738e-11
0
0
-3.29285e-12
2.19524e-12
0.10541
0.307659
0.485378
0.625976
0.721712
0.770273
0.774415
0.740875
0.678855
0.598437
0.509205
0.419265
0.334709
0.259497
0.195642
0.143601
0.102715
0.0716595
0.0487973
0.032456
0.0210975
0.0134105
0.0083397
0.00507631
0.00302569
0.00176665
0.00101085
0.000567011
0.000311891
0.000168291
8.91034e-05
4.63054e-05
2.36261e-05
1.18384e-05
5.82702e-06
2.81812e-06
1.33951e-06
6.25898e-07
2.8756e-07
1.29926e-07
5.77665e-08
2.52452e-08
1.08774e-08
4.6089e-09
1.92083e-09
7.9248e-10
3.15016e-10
1.14152e-10
5.81737e-11
3.7319e-11
7.68332e-12
8.78094e-12
-1.09762e-11
-6.58571e-12
-1.86595e-11
-2.41476e-11
-1.86595e-11
-7.68332e-12
-1.09762e-12
0
-1.09762e-12
1.09762e-11
1.09762e-12
-2.19524e-12
-1.09762e-12
-4.39047e-12
9.87856e-12
-1.09762e-12
2.19524e-12
-2.19524e-12
3.29285e-12
0
-2.19524e-12
3.29285e-12
-8.78094e-12
0.0602636
0.175964
0.27784
0.358755
0.414264
0.442956
0.446273
0.427925
0.393063
0.347384
0.29636
0.244661
0.195836
0.152228
0.115066
0.0846704
0.0607118
0.0424559
0.0289768
0.0193153
0.012582
0.00801377
0.00499318
0.0030449
0.00181806
0.00106331
0.000609384
0.000342336
0.000188579
0.000101895
5.40205e-05
2.81088e-05
1.43591e-05
7.20324e-06
3.54946e-06
1.71847e-06
8.17668e-07
3.82446e-07
1.75875e-07
7.95432e-08
3.53663e-08
1.54665e-08
6.66034e-09
2.81978e-09
1.18433e-09
4.93928e-10
2.16231e-10
9.32975e-11
3.51238e-11
2.41476e-11
-5.48809e-12
-1.64643e-11
-2.19523e-12
-1.97571e-11
-3.62214e-11
-1.09762e-12
-1.09762e-11
1.20738e-11
1.09762e-12
0
1.09762e-12
-2.19523e-12
-1.09762e-12
1.31714e-11
0
1.31714e-11
0
-2.19523e-12
0
1.09762e-12
4.39047e-12
-2.19523e-12
0
2.19523e-12
-1.09762e-12
0.033918
0.0990743
0.156548
0.202354
0.233983
0.250598
0.252945
0.243043
0.223733
0.198188
0.169479
0.140252
0.112535
0.0876875
0.0664389
0.0490032
0.0352174
0.0246823
0.0168823
0.0112767
0.00736034
0.00469696
0.00293195
0.00179109
0.00107124
0.000627536
0.000360196
0.000202648
0.000111788
6.04841e-05
3.21078e-05
1.67275e-05
8.5552e-06
4.2966e-06
2.1195e-06
1.02723e-06
4.89267e-07
2.29075e-07
1.05446e-07
4.77442e-08
2.12389e-08
9.31219e-09
4.00082e-09
1.69033e-09
7.24428e-10
3.07333e-10
1.40495e-10
5.37833e-11
2.74404e-11
1.4269e-11
-1.4269e-11
-2.41476e-11
-2.305e-11
-1.75619e-11
-2.19524e-11
1.53666e-11
1.09762e-12
1.09762e-11
0
-1.09762e-12
1.09762e-12
0
-1.09762e-12
4.39047e-12
3.29285e-12
4.39047e-12
-9.87856e-12
0
-1.09762e-12
1.09762e-12
1.09762e-12
1.09762e-12
0
1.09762e-12
1.31714e-11
0.0187907
0.0549056
0.0868125
0.112319
0.130033
0.139469
0.141009
0.135738
0.125201
0.111137
0.0952427
0.0789912
0.063522
0.0496065
0.0376688
0.0278438
0.0200534
0.0140838
0.00965258
0.00646019
0.00422458
0.00270082
0.00168888
0.00103346
0.00061911
0.000363243
0.000208808
0.000117645
6.49866e-05
3.5208e-05
1.87137e-05
9.76135e-06
4.99821e-06
2.51302e-06
1.24102e-06
6.02109e-07
2.87076e-07
1.34537e-07
6.2011e-08
2.81199e-08
1.25535e-08
5.51224e-09
2.36646e-09
1.00322e-09
4.29168e-10
1.93181e-10
7.35404e-11
3.7319e-11
2.52452e-11
1.09762e-11
4.39047e-12
-1.20738e-11
-1.97571e-11
2.19524e-12
1.31714e-11
-2.305e-11
0
-3.29285e-12
-2.19523e-12
2.19524e-12
-1.09762e-12
2.19523e-12
0
6.58571e-12
-2.19523e-12
-1.31714e-11
2.19524e-12
1.09762e-12
0
-1.09762e-12
7.68332e-12
3.29285e-12
0
3.29285e-12
-4.39047e-12
0.0102459
0.0299466
0.0473763
0.0613473
0.071099
0.0763576
0.0773161
0.074549
0.0688843
0.0612619
0.0526038
0.0437158
0.0352266
0.0275662
0.0209753
0.0155358
0.0112114
0.0078893
0.00541739
0.00363242
0.00237966
0.00152399
0.000954587
0.000585078
0.000351048
0.000206276
0.000118748
6.69971e-05
3.70584e-05
2.01031e-05
1.06984e-05
5.58709e-06
2.86412e-06
1.44164e-06
7.12698e-07
3.46123e-07
1.65178e-07
7.74687e-08
3.57384e-08
1.62151e-08
7.26623e-09
3.20285e-09
1.39836e-09
6.0808e-10
2.59038e-10
1.27324e-10
5.70761e-11
5.59785e-11
2.52452e-11
7.68332e-12
9.87856e-12
8.78094e-12
1.31714e-11
3.29285e-12
1.31714e-11
-2.52452e-11
-1.09762e-12
-3.29285e-12
1.09762e-12
2.19523e-12
-1.09762e-12
-2.19523e-12
2.19523e-12
-1.20738e-11
-3.29285e-12
-1.09762e-12
0
1.09762e-12
1.09762e-12
0
-7.68332e-12
0
-4.39047e-12
-1.4269e-11
-1.09762e-12
0.00549813
0.0160741
0.0254426
0.03297
0.0382479
0.0411246
0.0416968
0.0402646
0.0372652
0.0331985
0.0285578
0.0237765
0.0191954
0.0150497
0.0114731
0.00851388
0.00615548
0.00433948
0.00298517
0.0020051
0.00131582
0.000844079
0.000529557
0.000325076
0.000195339
0.000114947
6.62649e-05
3.74368e-05
2.07345e-05
1.12619e-05
6.00057e-06
3.13737e-06
1.61012e-06
8.11338e-07
4.01495e-07
1.95168e-07
9.32119e-08
4.37423e-08
2.01676e-08
9.14206e-09
4.07545e-09
1.799e-09
7.94675e-10
3.47945e-10
1.49276e-10
6.36618e-11
5.59785e-11
4.82952e-11
2.85381e-11
3.29285e-12
-1.75619e-11
7.68332e-12
1.09762e-12
-9.87856e-12
-7.68332e-12
6.5857e-12
0
-7.68332e-12
4.39047e-12
-3.29285e-12
0
-1.09762e-12
-5.48809e-12
-2.08547e-11
2.19523e-12
0
-2.19524e-12
-3.29285e-12
1.09762e-12
-1.09762e-12
1.09762e-12
-2.19524e-12
0
0
1.31714e-11
0.00290353
0.00849061
0.0134453
0.0174349
0.0202435
0.021789
0.0221189
0.0213881
0.019824
0.0176884
0.0152408
0.0127106
0.0102794
0.00807351
0.00616573
0.00458346
0.0033196
0.00234429
0.00161539
0.00108684
0.000714377
0.000458985
0.000288399
0.000177301
0.000106694
6.2872e-05
3.62933e-05
2.05309e-05
1.13854e-05
6.19155e-06
3.30286e-06
1.72884e-06
8.88216e-07
4.4802e-07
2.21917e-07
1.0799e-07
5.15946e-08
2.42431e-08
1.11672e-08
5.06221e-09
2.23036e-09
9.63708e-10
4.05021e-10
1.72326e-10
8.56142e-11
4.93928e-11
4.28071e-11
1.75619e-11
2.74404e-11
-1.09762e-12
-8.78094e-12
-3.29285e-12
-6.5857e-12
7.68332e-12
-5.48809e-12
-1.09762e-12
3.29285e-12
0
-1.09762e-12
0
0
3.29285e-12
-1.09762e-12
7.68332e-12
0
-1.09762e-12
0
0
6.58571e-12
4.39047e-12
6.5857e-12
-1.97571e-11
2.19524e-12
1.09762e-11
0
0.00150895
0.00441346
0.00699181
0.00907196
0.0105416
0.0113572
0.0115419
0.0111743
0.0103711
0.00926706
0.00799679
0.00667968
0.00541072
0.00425653
0.00325605
0.00242446
0.0017588
0.00124407
0.000858629
0.000578595
0.000380895
0.000245091
0.000154226
9.495e-05
5.7217e-05
3.37617e-05
1.95146e-05
1.10532e-05
6.13706e-06
3.34136e-06
1.78448e-06
9.35097e-07
4.80927e-07
2.42817e-07
1.20381e-07
5.86161e-08
2.80178e-08
1.31769e-08
6.06982e-09
2.74295e-09
1.20518e-09
5.1149e-10
1.99766e-10
8.56142e-11
3.18309e-11
1.53666e-11
7.68332e-12
-1.31714e-11
-2.19523e-12
3.29285e-12
7.68332e-12
-1.64643e-11
4.39047e-12
-3.29285e-12
-5.48809e-12
0
9.87856e-12
0
-1.09762e-12
-2.19523e-12
-1.09762e-12
1.09762e-12
4.39047e-12
1.86595e-11
1.09762e-12
0
-1.09762e-12
1.31714e-11
0
1.09762e-12
-7.68332e-12
0
0
0
-7.68332e-12
0.000771734
0.00225764
0.00357789
0.00464489
0.00540122
0.00582414
0.00592478
0.00574253
0.00533629
0.00477453
0.00412579
0.00345124
0.00279975
0.00220586
0.00168997
0.00126029
0.000915673
0.000648681
0.00044838
0.000302594
0.000199492
0.000128549
8.1004e-05
4.99385e-05
3.0133e-05
1.78034e-05
1.03035e-05
5.84308e-06
3.2481e-06
1.77045e-06
9.46564e-07
4.96543e-07
2.55638e-07
1.29195e-07
6.41064e-08
3.1236e-08
1.49386e-08
7.00939e-09
3.23578e-09
1.45105e-09
6.28935e-10
2.71112e-10
9.98832e-11
2.52452e-11
-1.64643e-11
-3.18309e-11
-2.74404e-11
-2.74404e-11
-2.85381e-11
-1.20738e-11
-6.58571e-12
-2.96357e-11
-2.305e-11
-1.97571e-11
1.09762e-11
1.4269e-11
3.29285e-12
-1.20738e-11
-1.09762e-12
2.19524e-12
-1.09762e-12
-5.48809e-12
-3.29285e-12
0
0
2.19524e-12
1.09762e-12
0
-8.78094e-12
4.39047e-12
1.09762e-12
2.41476e-11
2.19524e-12
4.39047e-12
0
0.000388433
0.00113652
0.00180176
0.00234025
0.00272308
0.00293862
0.00299214
0.00290308
0.00270076
0.00241937
0.00209333
0.00175342
0.00142439
0.00112383
0.000862232
0.000643934
0.000468531
0.000332394
0.000230084
0.000155494
0.000102655
6.62394e-05
4.17959e-05
2.58006e-05
1.55881e-05
9.22134e-06
5.34321e-06
3.03371e-06
1.68833e-06
9.21294e-07
4.93106e-07
2.58919e-07
1.33443e-07
6.7498e-08
3.35004e-08
1.63479e-08
7.83589e-09
3.66824e-09
1.69911e-09
7.61747e-10
3.07333e-10
1.25128e-10
5.04904e-11
6.5857e-12
-1.31714e-11
-3.07333e-11
-4.60999e-11
-2.08547e-11
-3.51238e-11
-3.18309e-11
-2.52452e-11
-2.52452e-11
-2.96357e-11
0
4.39047e-12
-6.5857e-12
-8.78094e-12
-1.64643e-11
-8.78094e-12
-1.20738e-11
-3.29285e-12
-1.09762e-12
1.09762e-12
-2.19524e-12
-1.09762e-12
-1.09762e-11
1.09762e-12
-6.5857e-12
-1.09762e-12
-1.09762e-12
-2.19523e-12
0
-9.87856e-12
0
5.48809e-12
0.000192416
0.000563083
0.000892946
0.00116035
0.00135096
0.00145895
0.00148677
0.00144388
0.00134465
0.0012059
0.00104463
0.000876092
0.000712611
0.000562984
0.000432514
0.000323448
0.000235663
0.000167415
0.000116042
7.85276e-05
5.19114e-05
3.35401e-05
2.11903e-05
1.30972e-05
7.92267e-06
4.69239e-06
2.72217e-06
1.54734e-06
8.62109e-07
4.70948e-07
2.52321e-07
1.32611e-07
6.83904e-08
3.46397e-08
1.7203e-08
8.38799e-09
4.02496e-09
1.86814e-09
8.47361e-10
3.79776e-10
1.67935e-10
6.5857e-11
4.60999e-11
2.74404e-11
2.19523e-12
1.09762e-12
-8.78094e-12
-1.4269e-11
-6.5857e-12
-2.08547e-11
-2.08547e-11
1.4269e-11
8.78094e-12
1.09762e-11
-1.97571e-11
7.68332e-12
-7.68332e-12
7.68332e-12
-8.78094e-12
-2.19523e-12
-1.31714e-11
5.48809e-12
4.39047e-12
-7.68332e-12
1.09762e-12
-1.09762e-12
-1.09762e-12
1.09762e-12
2.19523e-12
-8.78094e-12
-1.31714e-11
-4.39047e-12
-6.5857e-12
-7.68332e-12
-1.09762e-12
9.38143e-05
0.000274577
0.000435551
0.000566217
0.000659591
0.000712787
0.00072694
0.000706587
0.000658658
0.000591308
0.000512792
0.000430557
0.000350633
0.000277352
0.000213344
0.000159749
0.000116541
8.28974e-05
5.75329e-05
3.89829e-05
2.58025e-05
1.66917e-05
1.05586e-05
6.53385e-06
3.95709e-06
2.34641e-06
1.36274e-06
7.75472e-07
4.32537e-07
2.3653e-07
1.26859e-07
6.67417e-08
3.4441e-08
1.74653e-08
8.68215e-09
4.21705e-09
2.00974e-09
9.27487e-10
4.08314e-10
1.74521e-10
8.78094e-11
3.95142e-11
2.52452e-11
4.39047e-12
1.75619e-11
4.39047e-12
2.41476e-11
-3.29285e-12
-6.58571e-12
0
1.09762e-11
2.52452e-11
1.75619e-11
-5.48809e-12
3.29285e-12
8.78094e-12
0
4.39047e-12
1.86595e-11
1.31714e-11
4.39047e-12
2.19523e-12
0
2.19524e-12
0
1.09762e-11
-2.19524e-12
0
0
5.48809e-12
8.78094e-12
0
9.87856e-12
2.19523e-12
-6.58571e-12
4.50228e-05
0.000131791
0.000209109
0.000271947
0.000316952
0.000342723
0.000349778
0.000340259
0.000317461
0.000285274
0.000247647
0.000208157
0.000169707
0.000134394
0.0001035
7.75922e-05
5.66742e-05
4.0362e-05
2.80462e-05
1.90264e-05
1.26085e-05
8.1662e-06
5.17167e-06
3.20402e-06
1.94266e-06
1.15324e-06
6.70511e-07
3.81974e-07
2.13281e-07
1.16761e-07
6.27069e-08
3.30449e-08
1.70943e-08
8.65252e-09
4.31912e-09
2.10194e-09
1.02517e-09
4.87342e-10
2.43671e-10
1.02078e-10
6.69547e-11
3.95142e-11
2.74404e-11
5.48809e-12
2.74404e-11
1.75619e-11
1.20738e-11
9.87856e-12
-1.31714e-11
9.87856e-12
2.52452e-11
1.4269e-11
1.97571e-11
3.29285e-12
1.75619e-11
-3.40261e-11
-1.09762e-12
0
7.68332e-12
1.09762e-12
1.4269e-11
-2.19523e-12
-1.09762e-12
-1.09762e-12
-4.39047e-12
1.09762e-12
-1.09762e-12
1.20738e-11
0
0
2.08547e-11
9.87856e-12
6.58571e-12
4.39047e-12
0
2.12699e-05
6.2269e-05
9.88247e-05
0.000128567
0.000149913
0.000162194
0.000165642
0.000161255
0.000150575
0.00013543
0.000117679
9.90136e-05
8.0809e-05
6.40634e-05
4.93916e-05
3.70698e-05
2.71072e-05
1.93273e-05
1.34454e-05
9.13176e-06
6.05841e-06
3.92833e-06
2.49061e-06
1.54473e-06
9.37633e-07
5.57218e-07
3.24339e-07
1.84992e-07
1.0341e-07
5.66908e-08
3.04808e-08
1.60966e-08
8.34299e-09
4.22802e-09
2.13926e-09
1.04164e-09
5.13685e-10
2.64526e-10
1.24031e-10
5.37833e-11
6.14666e-11
2.63428e-11
4.39047e-11
5.92713e-11
4.50023e-11
5.04904e-11
2.85381e-11
4.28071e-11
1.86595e-11
1.09762e-11
2.19523e-11
3.62214e-11
4.50023e-11
4.50023e-11
2.305e-11
1.64643e-11
4.39047e-12
1.4269e-11
-1.09762e-11
0
0
-2.19523e-12
-1.09762e-12
0
-3.29285e-12
0
4.39047e-12
-4.39047e-12
-2.19523e-12
-1.31714e-11
-5.48809e-12
6.5857e-12
-1.09762e-12
-5.48809e-12
2.19523e-12
9.89259e-06
2.89646e-05
4.59787e-05
5.98361e-05
6.98008e-05
7.55587e-05
7.72124e-05
7.52197e-05
7.02919e-05
6.32744e-05
5.50304e-05
4.63454e-05
3.78617e-05
3.00464e-05
2.31894e-05
1.74229e-05
1.27542e-05
9.10365e-06
6.34004e-06
4.31073e-06
2.86305e-06
1.85842e-06
1.17955e-06
7.32375e-07
4.45029e-07
2.64743e-07
1.5427e-07
8.80871e-08
4.9294e-08
2.70618e-08
1.45599e-08
7.6954e-09
3.99643e-09
2.05035e-09
1.01091e-09
4.90635e-10
2.29402e-10
1.29519e-10
4.71976e-11
3.29285e-11
1.75619e-11
1.20738e-11
2.19524e-11
5.59785e-11
4.82952e-11
4.60999e-11
2.41476e-11
1.20738e-11
3.40261e-11
2.41476e-11
4.06118e-11
4.71976e-11
4.28071e-11
3.18309e-11
-2.19524e-12
1.86595e-11
1.31714e-11
2.19524e-12
2.19523e-12
0
0
-2.19523e-12
2.19524e-12
8.78094e-12
3.29285e-12
-1.09762e-12
0
-1.20738e-11
1.09762e-12
0
-1.64643e-11
-9.87856e-12
1.09762e-12
-7.68332e-12
0
4.53011e-06
1.32653e-05
2.10619e-05
2.7418e-05
3.19968e-05
3.46531e-05
3.54318e-05
3.45397e-05
3.23002e-05
2.90983e-05
2.53283e-05
2.13498e-05
1.74578e-05
1.38676e-05
1.07134e-05
8.05744e-06
5.9044e-06
4.21877e-06
2.94114e-06
2.0018e-06
1.33092e-06
8.64815e-07
5.49464e-07
3.41508e-07
2.07723e-07
1.23712e-07
7.21574e-08
4.12243e-08
2.30994e-08
1.27082e-08
6.85243e-09
3.61775e-09
1.86156e-09
9.50537e-10
4.58804e-10
2.32695e-10
1.00981e-10
6.47594e-11
4.28071e-11
4.82952e-11
1.20738e-11
1.31714e-11
-1.64643e-11
1.09762e-11
3.18309e-11
2.52452e-11
2.19523e-12
2.19524e-12
1.86595e-11
2.96357e-11
1.97571e-11
2.41476e-11
6.5857e-12
-5.48809e-12
-1.75619e-11
-3.51238e-11
-4.39047e-12
-4.39047e-12
1.09762e-12
0
0
-2.19523e-12
4.39047e-12
0
5.48809e-12
0
-1.09762e-12
0
6.58571e-12
1.53666e-11
5.48809e-12
-5.48809e-12
-8.78094e-12
1.09762e-12
-4.39047e-12
2.04277e-06
5.98231e-06
9.50014e-06
1.23706e-05
1.44419e-05
1.5648e-05
1.60081e-05
1.56145e-05
1.46119e-05
1.31731e-05
1.14754e-05
9.68094e-06
7.92305e-06
6.29937e-06
4.87113e-06
3.66704e-06
2.68978e-06
1.92377e-06
1.34251e-06
9.14642e-07
6.08697e-07
3.95923e-07
2.5181e-07
1.5664e-07
9.53676e-08
5.68555e-08
3.31843e-08
1.89734e-08
1.06458e-08
5.86896e-09