/*--------------------------------*- C++ -*----------------------------------*\
  =========                 |
  \\      /  F ield         | OpenFOAM: The Open Source CFD Toolbox
   \\    /   O peration     | Website:  https://openfoam.org
    \\  /    A nd           | Version:  10
     \\/     M anipulation  |
\*---------------------------------------------------------------------------*/
FoamFile
{
    format      ascii;
    class       volScalarField;
    location    "70";
    object      gradTz;
}
// * * * * * * * * * * * * * * * * * * * * * * * * * * * * * * * * * * * * * //

dimensions      [0 -1 0 1 0 0 0];

internalField   nonuniform List<scalar> 
11250
(
-14437.3
-4227.67
-1597.8
-781.17
-461.212
-303.576
-210.73
-149.359
-106.119
-74.7696
-51.8994
-35.3428
-23.5499
-15.3278
-9.73417
-6.02775
-3.63817
-2.13995
-1.2266
-0.685191
-0.373076
-0.198038
-0.102512
-0.0517608
-0.0255009
-0.0122625
-0.00575722
-0.00264002
-0.00118279
-0.000517923
-0.000221732
-9.28416e-05
-3.80325e-05
-1.52479e-05
-5.98479e-06
-2.30042e-06
-8.66213e-07
-3.19622e-07
-1.15604e-07
-4.0996e-08
-1.42482e-08
-4.86903e-09
-1.64094e-09
-5.42223e-10
-1.78912e-10
-4.93928e-11
-1.09762e-11
2.19524e-12
0
-1.09762e-12
0
1.31714e-11
0
-1.4269e-11
0
0
0
0
0
0
0
0
-2.08547e-11
-1.09762e-12
2.19523e-11
1.09762e-12
-1.09762e-12
0
1.09762e-12
-1.09762e-12
0
-5.48809e-12
-1.09762e-12
6.5857e-12
0
-8514.17
-5096.78
-2974.93
-1843.22
-1219.48
-845.804
-602.009
-432.286
-309.432
-219.025
-152.49
-104.061
-69.4422
-45.2476
-28.7596
-17.8208
-10.7617
-6.33266
-3.63109
-2.02896
-1.10501
-0.586691
-0.303749
-0.153394
-0.0755829
-0.0363497
-0.017068
-0.00782747
-0.00350722
-0.00153588
-0.000657586
-0.000275359
-0.000112808
-4.52298e-05
-1.77537e-05
-6.82453e-06
-2.5699e-06
-9.4831e-07
-3.42999e-07
-1.21649e-07
-4.22934e-08
-1.4437e-08
-4.86684e-09
-1.6146e-09
-4.98318e-10
-1.47081e-10
-5.48809e-11
2.19523e-12
3.29285e-12
0
0
0
0
0
0
0
-2.19523e-12
0
5.48809e-12
-1.09762e-12
-3.29285e-12
1.09762e-12
1.09762e-12
8.78094e-12
-1.09762e-12
-1.20738e-11
1.09762e-12
2.19523e-12
-1.09762e-12
-4.39047e-12
1.09762e-12
4.39047e-12
0
-8.78094e-12
8.78094e-12
-5987.19
-4651.07
-3346.35
-2386.58
-1722.24
-1257.75
-923.06
-675.293
-489.101
-348.888
-244.191
-167.263
-111.924
-73.0779
-46.5218
-28.8626
-17.4469
-10.2747
-5.89532
-3.29596
-1.79588
-0.953876
-0.494022
-0.249557
-0.122998
-0.0591662
-0.0277873
-0.0127457
-0.00571186
-0.00250171
-0.00107126
-0.000448638
-0.000183819
-7.3709e-05
-2.89355e-05
-1.11239e-05
-4.18931e-06
-1.54601e-06
-5.59225e-07
-1.98334e-07
-6.89765e-08
-2.35439e-08
-7.91712e-09
-2.60245e-09
-8.37482e-10
-2.68916e-10
-7.4638e-11
-5.48809e-12
0
-1.64643e-11
1.09762e-12
1.53666e-11
8.78094e-12
-1.31714e-11
-1.53666e-11
-2.19523e-12
6.58571e-12
9.87856e-12
0
5.48809e-12
0
0
1.09762e-12
5.48809e-12
-1.09762e-12
-5.48809e-12
0
0
0
-1.09762e-11
0
1.20738e-11
1.09762e-12
-1.09762e-12
-1.09762e-12
-4761.57
-4142.5
-3347.43
-2617.01
-2016.27
-1539.25
-1163.46
-868.067
-637.149
-458.704
-323.161
-222.412
-149.357
-97.7829
-62.3803
-38.7659
-23.4647
-13.8338
-7.94462
-4.44506
-2.42354
-1.28797
-0.667369
-0.337263
-0.166285
-0.0800148
-0.0375896
-0.0172463
-0.00773056
-0.00338659
-0.00145045
-0.00060755
-0.00024897
-9.98491e-05
-3.92027e-05
-1.50731e-05
-5.67728e-06
-2.09538e-06
-7.58055e-07
-2.68883e-07
-9.35291e-08
-3.19132e-08
-1.07007e-08
-3.52445e-09
-1.13494e-09
-3.64409e-10
-1.08664e-10
-2.19524e-11
-7.68332e-12
0
0
3.29285e-12
1.09762e-11
-4.39047e-12
-1.09762e-11
0
3.29285e-12
1.09762e-12
-2.19523e-12
0
-1.09762e-12
0
-1.20738e-11
-1.09762e-12
1.4269e-11
1.09762e-12
0
0
-2.19524e-12
0
8.78094e-12
1.09762e-12
-9.87856e-12
0
0
-4107.87
-3767.24
-3249.38
-2694.03
-2174.55
-1718.63
-1331.98
-1011.75
-752.214
-546.612
-387.746
-268.238
-180.838
-118.755
-75.9415
-47.2844
-28.6657
-16.9219
-9.72847
-5.44805
-2.97268
-1.58084
-0.819592
-0.414397
-0.204406
-0.0983962
-0.0462409
-0.0212222
-0.00951542
-0.00416957
-0.00178621
-0.000748352
-0.000306731
-0.000123037
-4.83151e-05
-1.85798e-05
-6.99916e-06
-2.58363e-06
-9.34793e-07
-3.31632e-07
-1.1541e-07
-3.94001e-08
-1.3189e-08
-4.3323e-09
-1.41593e-09
-4.53316e-10
-1.27324e-10
-2.85381e-11
-2.19523e-12
0
1.09762e-12
0
0
0
0
0
-5.48809e-12
0
1.20738e-11
0
-8.78094e-12
0
2.19523e-12
1.09762e-12
5.48809e-12
-2.19523e-12
-4.39047e-12
1.09762e-12
2.19523e-12
-5.48809e-12
-2.19523e-12
4.39047e-12
0
-5.48809e-12
5.48809e-12
-3736.57
-3516.49
-3146.26
-2705.83
-2254.38
-1827.65
-1444.58
-1113.76
-837.408
-613.714
-438.176
-304.644
-206.185
-135.819
-87.0688
-54.3217
-32.9864
-19.4992
-11.2231
-6.29118
-3.43559
-1.82833
-0.948497
-0.479837
-0.236799
-0.114039
-0.0536128
-0.0246141
-0.0110397
-0.00483887
-0.00207348
-0.000868914
-0.000356226
-0.00014292
-5.61339e-05
-2.15905e-05
-8.1347e-06
-3.00329e-06
-1.0868e-06
-3.85616e-07
-1.34209e-07
-4.58047e-08
-1.5337e-08
-5.05343e-09
-1.64094e-09
-5.41125e-10
-1.52569e-10
-1.4269e-11
3.29285e-12
8.78094e-12
-3.29285e-12
-9.87856e-12
0
0
2.19524e-12
0
-5.48809e-12
-6.58571e-12
6.5857e-12
4.39047e-12
-1.09762e-12
0
4.39047e-12
0
-5.48809e-12
1.09762e-12
0
0
0
-1.09762e-11
-2.19523e-12
4.39047e-12
1.09762e-12
4.39047e-12
3.29285e-12
-3517.52
-3354.47
-3063.76
-2694.51
-2292.17
-1891.72
-1517.19
-1183.42
-897.976
-662.857
-475.955
-332.4
-225.781
-149.158
-95.8462
-59.9142
-36.4412
-21.5706
-12.4296
-6.97433
-3.81187
-2.03006
-1.05382
-0.533421
-0.263374
-0.126893
-0.0596798
-0.0274094
-0.0122974
-0.00539176
-0.00231103
-0.000968706
-0.00039723
-0.000159406
-6.26217e-05
-2.40904e-05
-9.07827e-06
-3.35222e-06
-1.21328e-06
-4.30574e-07
-1.49869e-07
-5.11687e-08
-1.71437e-08
-5.63078e-09
-1.81107e-09
-5.77347e-10
-1.76716e-10
-3.62214e-11
-3.29285e-12
-5.48809e-12
1.09762e-12
7.68332e-12
-3.29285e-12
-1.09762e-12
4.39047e-12
0
-2.19524e-12
0
2.19523e-12
2.19524e-12
0
1.09762e-12
-1.09762e-12
-1.09762e-12
1.09762e-12
-1.09762e-12
0
0
0
0
0
-4.39047e-12
-1.09762e-12
0
5.48809e-12
-3385.66
-3251.43
-3004.34
-2678.07
-2308.7
-1928.45
-1562.74
-1229.51
-939.568
-697.56
-503.216
-352.776
-240.366
-159.199
-102.515
-64.1961
-39.1035
-23.1757
-13.3688
-7.5083
-4.10701
-2.18878
-1.13691
-0.575792
-0.284433
-0.137099
-0.0645047
-0.0296358
-0.0133006
-0.00583331
-0.00250096
-0.00104858
-0.000430084
-0.000172627
-6.78293e-05
-2.60988e-05
-9.83688e-06
-3.63297e-06
-1.3151e-06
-4.66759e-07
-1.62465e-07
-5.54725e-08
-1.86244e-08
-6.14666e-09
-1.95266e-09
-6.00397e-10
-1.87693e-10
-4.06118e-11
-1.09762e-12
0
1.09762e-12
-1.09762e-12
-1.09762e-12
1.09762e-12
-7.68332e-12
0
-5.48809e-12
0
8.78094e-12
0
2.19523e-12
0
3.29285e-12
0
0
-1.09762e-12
0
-1.20738e-11
0
1.31714e-11
1.09762e-12
-8.78094e-12
-8.78094e-12
4.39047e-12
1.09762e-11
-3305.65
-3186.65
-2963.89
-2663.24
-2315.08
-1949.08
-1590.67
-1259.18
-967.273
-721.276
-522.227
-367.22
-250.843
-166.492
-107.404
-67.3595
-41.0835
-24.3761
-14.0747
-7.9113
-4.33058
-2.3094
-1.20024
-0.608168
-0.30056
-0.14493
-0.0682142
-0.0313504
-0.0140743
-0.00617435
-0.00264785
-0.00111043
-0.000455551
-0.000182887
-7.18743e-05
-2.76602e-05
-1.04272e-05
-3.8516e-06
-1.39448e-06
-4.95002e-07
-1.72323e-07
-5.88499e-08
-1.97396e-08
-6.50887e-09
-2.09425e-09
-6.50887e-10
-1.67935e-10
-2.74404e-11
-2.08547e-11
-1.09762e-12
5.48809e-12
2.19524e-12
0
0
5.48809e-12
2.305e-11
-5.48809e-12
-2.41476e-11
0
1.09762e-12
1.09762e-12
-1.09762e-12
0
0
1.09762e-12
6.58571e-12
-1.09762e-12
-6.5857e-12
1.09762e-12
-1.09762e-12
0
1.09762e-12
0
-1.09762e-12
0
-3257.12
-3146.41
-2937.36
-2651.85
-2316.94
-1960.46
-1607.46
-1277.84
-985.228
-737.007
-535.073
-377.128
-258.122
-171.613
-110.867
-69.6178
-42.5062
-25.2437
-14.5874
-8.20527
-4.49429
-2.39801
-1.24691
-0.632089
-0.312505
-0.150743
-0.070973
-0.0326278
-0.0146517
-0.00642924
-0.00275779
-0.00115678
-0.000474659
-0.000190593
-7.49159e-05
-2.88354e-05
-1.08719e-05
-4.0165e-06
-1.45441e-06
-5.16345e-07
-1.79771e-07
-6.13974e-08
-2.05683e-08
-6.76901e-09
-2.17438e-09
-6.91499e-10
-2.06352e-10
-3.18309e-11
-1.97571e-11
-2.19523e-12
1.31714e-11
1.09762e-12
-4.39047e-12
1.09762e-12
3.29285e-12
1.4269e-11
0
-1.75619e-11
0
3.29285e-12
0
9.87856e-12
0
-9.87856e-12
0
1.64643e-11
1.09762e-12
-1.64643e-11
-1.09762e-12
2.19524e-12
5.48809e-12
-2.19524e-12
-5.48809e-12
0
0
-3227.87
-3121.74
-2920.45
-2643.81
-2316.99
-1966.64
-1617.39
-1289.31
-996.572
-747.153
-543.499
-383.718
-263.02
-175.094
-113.241
-71.1777
-43.4953
-25.8502
-14.9476
-8.41269
-4.61024
-2.461
-1.28017
-0.64919
-0.321065
-0.154919
-0.0729586
-0.033549
-0.0150688
-0.00661366
-0.00283745
-0.00119041
-0.000488541
-0.000196199
-7.71309e-05
-2.96922e-05
-1.11965e-05
-4.13695e-06
-1.49819e-06
-5.31956e-07
-1.85237e-07
-6.32414e-08
-2.11763e-08
-6.96768e-09
-2.25231e-09
-7.25525e-10
-2.3489e-10
-5.37833e-11
1.09762e-12
-3.29285e-12
0
3.29285e-12
2.19523e-12
1.09762e-12
0
2.19523e-12
-1.09762e-12
-2.19523e-12
-2.19523e-12
1.09762e-12
1.09762e-12
0
-1.09762e-12
-1.09762e-12
1.09762e-12
1.09762e-12
1.09762e-12
-1.09762e-12
0
0
1.09762e-12
-6.5857e-12
0
5.48809e-12
0
-3210.42
-3106.84
-2909.95
-2638.45
-2316.48
-1969.95
-1623.15
-1296.22
-1003.57
-753.528
-548.873
-387.975
-266.219
-177.388
-114.819
-72.2213
-44.1612
-26.2607
-15.1926
-8.55439
-4.68976
-2.50434
-1.30314
-0.661028
-0.327006
-0.157823
-0.0743427
-0.0341923
-0.0153607
-0.00674291
-0.00289336
-0.00121405
-0.000498313
-0.000200149
-7.86938e-05
-3.02975e-05
-1.1426e-05
-4.22221e-06
-1.52922e-06
-5.43025e-07
-1.89123e-07
-6.45882e-08
-2.16242e-08
-7.11366e-09
-2.31597e-09
-7.56258e-10
-2.35988e-10
-5.04904e-11
4.39047e-12
1.09762e-12
0
0
0
1.09762e-12
1.09762e-12
-2.19523e-12
0
-1.09762e-12
-1.09762e-12
3.29285e-12
1.4269e-11
-2.19523e-12
-1.31714e-11
0
-9.87856e-12
-2.08547e-11
8.78094e-12
2.19523e-11
0
0
0
0
-2.19524e-12
-3.29285e-12
5.48809e-12
-3200.15
-3097.99
-2903.57
-2635.03
-2315.91
-1971.68
-1626.44
-1300.29
-1007.78
-757.432
-552.208
-390.647
-268.247
-178.855
-115.836
-72.8984
-44.5958
-26.5301
-15.3541
-8.64818
-4.7426
-2.53323
-1.3185
-0.668967
-0.331
-0.15978
-0.0752775
-0.0346277
-0.0155585
-0.00683068
-0.0029314
-0.00123015
-0.000504979
-0.000202848
-7.97629e-05
-3.0712e-05
-1.15833e-05
-4.28072e-06
-1.55059e-06
-5.50676e-07
-1.91793e-07
-6.5508e-08
-2.19425e-08
-7.23549e-09
-2.34012e-09
-7.40892e-10
-2.28304e-10
-6.14666e-11
-1.31714e-11
0
2.19524e-12
1.09762e-12
-2.19523e-12
-1.09762e-12
0
0
0
0
0
2.19524e-12
-2.19524e-12
6.5857e-12
0
-1.86595e-11
-4.39047e-12
9.87856e-12
3.29285e-12
3.29285e-12
1.09762e-12
0
-1.09762e-12
0
0
1.09762e-12
-1.09762e-12
-3194.2
-3092.83
-2899.79
-2632.92
-2315.44
-1972.58
-1628.29
-1302.65
-1010.27
-759.764
-554.225
-392.28
-269.497
-179.767
-116.472
-73.3248
-44.871
-26.7015
-15.4573
-8.70839
-4.77664
-2.55191
-1.32846
-0.674129
-0.333604
-0.161059
-0.0758897
-0.0349134
-0.0156886
-0.00688849
-0.00295648
-0.00124079
-0.00050939
-0.000204636
-8.04721e-05
-3.09873e-05
-1.1688e-05
-4.3197e-06
-1.56482e-06
-5.55779e-07
-1.93589e-07
-6.61479e-08
-2.21807e-08
-7.29806e-09
-2.35658e-09
-7.51868e-10
-2.15133e-10
-3.62214e-11
-3.29285e-12
0
1.09762e-12
0
-2.19523e-12
1.09762e-12
0
-1.09762e-12
-8.78094e-12
-8.78094e-12
4.39047e-12
8.78094e-12
4.39047e-12
0
-1.20738e-11
-1.09762e-12
1.31714e-11
2.19523e-12
-2.19523e-12
-1.09762e-12
1.09762e-12
-1.09762e-12
-4.39047e-12
-7.68332e-12
3.29285e-12
1.31714e-11
-3.29285e-12
-3190.82
-3089.87
-2897.59
-2631.66
-2315.11
-1973.04
-1629.31
-1303.98
-1011.7
-761.125
-555.414
-393.252
-270.247
-180.317
-116.859
-73.5856
-45.0402
-26.8074
-15.5214
-8.74589
-4.79792
-2.56363
-1.33472
-0.677385
-0.33525
-0.16187
-0.0762786
-0.0350953
-0.0157716
-0.00692542
-0.00297254
-0.00124761
-0.000512221
-0.000205786
-8.09286e-05
-3.11647e-05
-1.17555e-05
-4.34487e-06
-1.57402e-06
-5.59063e-07
-1.94746e-07
-6.65442e-08
-2.23069e-08
-7.36062e-09
-2.395e-09
-7.49673e-10
-1.96474e-10
-3.29285e-11
-5.48809e-12
0
0
0
2.19523e-12
0
-2.19524e-12
5.48809e-12
0
-5.48809e-12
1.09762e-12
0
-2.19524e-12
0
1.09762e-12
0
4.39047e-12
0
-4.39047e-12
-1.09762e-12
0
-4.39047e-12
4.39047e-12
5.48809e-12
-4.39047e-12
1.09762e-12
-1.09762e-12
-3188.93
-3088.21
-2896.35
-2630.92
-2314.9
-1973.27
-1629.86
-1304.72
-1012.5
-761.9
-556.098
-393.815
-270.684
-180.641
-117.087
-73.7406
-45.1413
-26.871
-15.56
-8.76858
-4.81084
-2.57077
-1.33855
-0.67938
-0.336261
-0.162369
-0.0765185
-0.0352077
-0.0158229
-0.00694833
-0.00298251
-0.00125185
-0.000513985
-0.000206503
-8.12139e-05
-3.12758e-05
-1.17978e-05
-4.36065e-06
-1.57979e-06
-5.61114e-07
-1.95442e-07
-6.67988e-08
-2.2409e-08
-7.38367e-09
-2.40708e-09
-7.39794e-10
-2.1184e-10
-6.0369e-11
0
6.5857e-12
-3.29285e-12
-9.87856e-12
3.29285e-12
-5.48809e-12
-2.19524e-12
1.53666e-11
-1.09762e-12
0
5.48809e-12
1.09762e-12
-8.78094e-12
-1.09762e-12
5.48809e-12
8.78094e-12
0
-8.78094e-12
0
-4.39047e-12
0
-6.58571e-12
-1.09762e-12
9.87856e-12
9.87856e-12
1.09762e-12
-8.78094e-12
-3187.89
-3087.3
-2895.65
-2630.51
-2314.76
-1973.38
-1630.15
-1305.13
-1012.95
-762.331
-556.481
-394.133
-270.934
-180.827
-117.219
-73.8303
-45.2
-26.9081
-15.5826
-8.78192
-4.81846
-2.57499
-1.34082
-0.680566
-0.336864
-0.162667
-0.0766621
-0.0352751
-0.0158538
-0.00696213
-0.00298853
-0.00125442
-0.000515053
-0.000206938
-8.1387e-05
-3.13433e-05
-1.18236e-05
-4.37027e-06
-1.58328e-06
-5.62375e-07
-1.95906e-07
-6.69459e-08
-2.2454e-08
-7.39684e-09
-2.39829e-09
-7.6943e-10
-2.19523e-10
-5.1588e-11
-1.86595e-11
0
1.09762e-12
0
-1.09762e-12
1.09762e-12
-4.39047e-12
-1.09762e-12
6.5857e-12
8.78094e-12
-1.09762e-12
-8.78094e-12
0
0
-2.19523e-12
4.39047e-12
2.19523e-12
-5.48809e-12
-2.19523e-12
0
2.19523e-12
-6.5857e-12
-4.39047e-12
6.5857e-12
4.39047e-12
8.78094e-12
-7.68332e-12
-3187.33
-3086.81
-2895.28
-2630.28
-2314.69
-1973.43
-1630.31
-1305.34
-1013.18
-762.565
-556.691
-394.308
-271.072
-180.93
-117.293
-73.8808
-45.2332
-26.9291
-15.5955
-8.78955
-4.82283
-2.57741
-1.34213
-0.681252
-0.337214
-0.162841
-0.0767458
-0.0353145
-0.0158718
-0.0069702
-0.00299206
-0.00125592
-0.000515681
-0.000207194
-8.14892e-05
-3.13832e-05
-1.18388e-05
-4.37596e-06
-1.58537e-06
-5.63121e-07
-1.96167e-07
-6.7037e-08
-2.24671e-08
-7.41989e-09
-2.395e-09
-7.5077e-10
-2.39281e-10
-6.0369e-11
-1.31714e-11
-1.09762e-12
1.09762e-12
0
-1.09762e-12
0
2.19524e-12
0
-1.09762e-12
0
-1.09762e-12
0
0
1.09762e-12
-1.09762e-12
0
0
0
-1.09762e-12
0
1.09762e-12
-1.4269e-11
4.39047e-12
9.87856e-12
-3.29285e-12
4.39047e-12
-1.09762e-12
-3187.04
-3086.55
-2895.08
-2630.16
-2314.64
-1973.46
-1630.39
-1305.45
-1013.31
-762.689
-556.804
-394.403
-271.146
-180.986
-117.333
-73.9085
-45.2515
-26.9408
-15.6027
-8.79379
-4.82527
-2.57877
-1.34286
-0.681638
-0.337411
-0.162938
-0.0767931
-0.0353368
-0.0158821
-0.0069748
-0.00299407
-0.00125678
-0.00051604
-0.00020734
-8.15477e-05
-3.1406e-05
-1.18476e-05
-4.37925e-06
-1.58657e-06
-5.63541e-07
-1.96306e-07
-6.7082e-08
-2.25198e-08
-7.43746e-09
-2.40598e-09
-7.58454e-10
-2.41476e-10
-5.1588e-11
0
-1.09762e-12
1.09762e-12
0
-1.09762e-12
-1.09762e-12
0
1.09762e-12
-1.09762e-12
0
1.09762e-12
0
-3.29285e-12
0
3.29285e-12
0
1.09762e-12
8.78094e-12
0
-9.87856e-12
0
0
9.87856e-12
3.29285e-12
-1.4269e-11
-2.19523e-12
3.29285e-12
-3186.89
-3086.41
-2894.98
-2630.09
-2314.62
-1973.47
-1630.43
-1305.51
-1013.37
-762.754
-556.862
-394.452
-271.186
-181.016
-117.355
-73.9232
-45.2613
-26.947
-15.6065
-8.79609
-4.82659
-2.57951
-1.34326
-0.681849
-0.337519
-0.162992
-0.0768192
-0.0353491
-0.0158878
-0.00697734
-0.00299519
-0.00125726
-0.00051624
-0.000207422
-8.15804e-05
-3.14188e-05
-1.18525e-05
-4.38108e-06
-1.58724e-06
-5.63787e-07
-1.96388e-07
-6.71281e-08
-2.25407e-08
-7.4166e-09
-2.39829e-09
-7.62844e-10
-2.5355e-10
-6.0369e-11
0
-8.78094e-12
0
0
0
1.09762e-12
1.09762e-12
-2.19523e-12
1.09762e-12
-1.09762e-12
2.19523e-12
-2.19523e-12
-1.09762e-11
3.29285e-12
7.68332e-12
-8.78094e-12
-1.09762e-11
9.87856e-12
9.87856e-12
5.48809e-12
-1.09762e-12
-4.39047e-12
0
-1.09762e-12
0
0
1.09762e-12
-3186.81
-3086.35
-2894.93
-2630.06
-2314.6
-1973.47
-1630.44
-1305.54
-1013.41
-762.787
-556.892
-394.477
-271.206
-181.031
-117.366
-73.9309
-45.2665
-26.9503
-15.6085
-8.7973
-4.82729
-2.57991
-1.34347
-0.681961
-0.337576
-0.163021
-0.0768331
-0.0353557
-0.0158908
-0.00697872
-0.00299579
-0.00125752
-0.000516348
-0.000207466
-8.15982e-05
-3.14258e-05
-1.18551e-05
-4.38207e-06
-1.58758e-06
-5.63921e-07
-1.9644e-07
-6.71369e-08
-2.25495e-08
-7.44843e-09
-2.42134e-09
-7.62844e-10
-2.27207e-10
-5.81737e-11
-1.64643e-11
1.09762e-12
7.68332e-12
0
0
1.09762e-12
2.19524e-12
1.86595e-11
-4.39047e-12
-1.75619e-11
1.09762e-12
0
-1.09762e-11
-1.09762e-12
1.31714e-11
0
-2.19523e-12
0
1.09762e-12
-1.09762e-12
0
-2.19524e-12
-2.19523e-12
6.58571e-12
-3.29285e-12
-7.68332e-12
8.78094e-12
-3186.78
-3086.31
-2894.9
-2630.04
-2314.6
-1973.48
-1630.45
-1305.55
-1013.42
-762.803
-556.907
-394.49
-271.216
-181.039
-117.371
-73.9349
-45.2691
-26.952
-15.6096
-8.79792
-4.82765
-2.58011
-1.34359
-0.68202
-0.337606
-0.163036
-0.0768404
-0.0353592
-0.0158924
-0.00697944
-0.00299611
-0.00125766
-0.000516405
-0.00020749
-8.16076e-05
-3.14295e-05
-1.18566e-05
-4.38259e-06
-1.58778e-06
-5.63971e-07
-1.96452e-07
-6.71566e-08
-2.25506e-08
-7.4649e-09
-2.42573e-09
-7.68332e-10
-2.45866e-10
-4.50023e-11
2.19524e-12
-2.19523e-12
2.19524e-12
0
1.09762e-12
0
-3.29285e-12
9.87856e-12
0
-9.87856e-12
0
0
0
0
-1.64643e-11
0
1.64643e-11
0
1.09762e-12
0
0
-1.31714e-11
0
1.20738e-11
-3.29285e-12
1.09762e-12
2.19524e-12
-3186.76
-3086.3
-2894.89
-2630.04
-2314.59
-1973.48
-1630.46
-1305.56
-1013.43
-762.811
-556.914
-394.496
-271.221
-181.043
-117.374
-73.9368
-45.2704
-26.9528
-15.6101
-8.79823
-4.82783
-2.58021
-1.34364
-0.682049
-0.337622
-0.163044
-0.0768441
-0.0353609
-0.0158932
-0.0069798
-0.00299627
-0.00125773
-0.000516434
-0.000207502
-8.16124e-05
-3.14314e-05
-1.18573e-05
-4.38289e-06
-1.58791e-06
-5.64032e-07
-1.96487e-07
-6.71544e-08
-2.25451e-08
-7.46599e-09
-2.42244e-09
-7.66137e-10
-2.32695e-10
-4.82952e-11
-1.09762e-12
0
1.09762e-12
0
-1.09762e-12
1.09762e-12
0
-1.09762e-12
-7.68332e-12
-1.09762e-12
7.68332e-12
1.09762e-12
0
0
0
-1.09762e-12
-4.39047e-12
1.20738e-11
4.39047e-12
-1.09762e-11
-2.19523e-12
-1.09762e-12
2.19523e-12
0
0
-1.09762e-11
1.20738e-11
-3186.75
-3086.29
-2894.88
-2630.03
-2314.59
-1973.48
-1630.46
-1305.56
-1013.44
-762.815
-556.918
-394.499
-271.224
-181.044
-117.375
-73.9377
-45.271
-26.9532
-15.6103
-8.79839
-4.82792
-2.58026
-1.34367
-0.682064
-0.337629
-0.163047
-0.076846
-0.0353618
-0.0158936
-0.00697999
-0.00299635
-0.00125776
-0.000516449
-0.000207508
-8.16148e-05
-3.14323e-05
-1.18577e-05
-4.38303e-06
-1.58796e-06
-5.64058e-07
-1.96504e-07
-6.71632e-08
-2.25506e-08
-7.45721e-09
-2.40378e-09
-7.54063e-10
-2.45866e-10
-5.59785e-11
2.19524e-12
0
0
5.48809e-12
0
-7.68332e-12
3.29285e-12
2.19523e-12
7.68332e-12
1.09762e-12
-1.20738e-11
0
-1.09762e-12
-1.09762e-12
-2.19524e-12
0
1.75619e-11
0
-1.4269e-11
0
1.09762e-12
-5.48809e-12
-2.19523e-12
6.58571e-12
-1.09762e-12
-1.09762e-12
2.19524e-12
-3186.74
-3086.29
-2894.88
-2630.03
-2314.59
-1973.48
-1630.46
-1305.56
-1013.44
-762.816
-556.919
-394.501
-271.225
-181.045
-117.376
-73.9382
-45.2713
-26.9534
-15.6105
-8.79846
-4.82796
-2.58028
-1.34368
-0.682071
-0.337633
-0.163049
-0.0768469
-0.0353622
-0.0158938
-0.00698008
-0.00299639
-0.00125778
-0.000516456
-0.000207511
-8.1616e-05
-3.14328e-05
-1.18578e-05
-4.38311e-06
-1.58799e-06
-5.64082e-07
-1.96522e-07
-6.7172e-08
-2.25604e-08
-7.43746e-09
-2.39829e-09
-7.66137e-10
-2.45866e-10
-5.70761e-11
5.48809e-12
-5.48809e-12
-8.78094e-12
5.48809e-12
8.78094e-12
-1.31714e-11
6.58571e-12
1.53666e-11
-2.19524e-12
-3.29285e-12
-5.48809e-12
2.19524e-12
1.09762e-12
-3.29285e-12
4.39047e-12
4.39047e-12
-4.39047e-12
-2.19524e-12
0
0
0
0
0
0
1.09762e-12
1.09762e-12
-2.19524e-12
-3186.74
-3086.28
-2894.88
-2630.03
-2314.59
-1973.48
-1630.46
-1305.56
-1013.44
-762.817
-556.92
-394.501
-271.225
-181.046
-117.376
-73.9384
-45.2714
-26.9535
-15.6105
-8.79849
-4.82798
-2.5803
-1.34369
-0.682074
-0.337635
-0.16305
-0.0768473
-0.0353624
-0.0158939
-0.00698012
-0.00299641
-0.00125779
-0.00051646
-0.000207512
-8.16165e-05
-3.1433e-05
-1.18579e-05
-4.38313e-06
-1.58799e-06
-5.64076e-07
-1.96526e-07
-6.72049e-08
-2.25758e-08
-7.44624e-09
-2.38951e-09
-7.67235e-10
-2.56842e-10
-5.1588e-11
0
0
-2.19523e-12
-1.09762e-12
3.29285e-12
0
0
0
8.78094e-12
-2.19523e-12
-5.48809e-12
1.09762e-12
-2.19523e-12
0
2.19523e-12
-2.19523e-12
-2.19523e-12
4.39047e-12
1.09762e-12
-3.29285e-12
0
0
2.19523e-12
0
-2.19523e-12
-5.48809e-12
5.48809e-12
-3186.74
-3086.28
-2894.88
-2630.03
-2314.59
-1973.48
-1630.46
-1305.56
-1013.44
-762.817
-556.92
-394.502
-271.225
-181.046
-117.376
-73.9385
-45.2715
-26.9535
-15.6106
-8.79851
-4.82799
-2.5803
-1.34369
-0.682075
-0.337635
-0.16305
-0.0768475
-0.0353625
-0.015894
-0.00698014
-0.00299642
-0.00125779
-0.000516461
-0.000207513
-8.16168e-05
-3.14331e-05
-1.1858e-05
-4.38316e-06
-1.58799e-06
-5.64069e-07
-1.96505e-07
-6.71764e-08
-2.25681e-08
-7.45721e-09
-2.40488e-09
-7.62844e-10
-2.35988e-10
-6.91499e-11
-2.19524e-11
0
0
0
0
0
0
2.19523e-12
0
-1.09762e-12
0
0
-2.19524e-12
0
-4.39047e-12
-1.09762e-12
5.48809e-12
1.09762e-12
0
2.19523e-12
-1.09762e-12
-6.58571e-12
0
2.19524e-12
-1.4269e-11
4.39047e-12
1.31714e-11
-3186.74
-3086.28
-2894.88
-2630.03
-2314.59
-1973.48
-1630.46
-1305.56
-1013.44
-762.818
-556.92
-394.502
-271.226
-181.046
-117.377
-73.9385
-45.2715
-26.9536
-15.6106
-8.79852
-4.828
-2.5803
-1.34369
-0.682076
-0.337636
-0.163051
-0.0768476
-0.0353626
-0.015894
-0.00698015
-0.00299642
-0.00125779
-0.000516462
-0.000207513
-8.16169e-05
-3.14332e-05
-1.1858e-05
-4.38317e-06
-1.58799e-06
-5.64062e-07
-1.96501e-07
-6.71665e-08
-2.25615e-08
-7.45941e-09
-2.40488e-09
-7.38697e-10
-2.37085e-10
-7.57356e-11
-1.75619e-11
-1.20738e-11
0
-5.48809e-12
-1.09762e-12
5.48809e-12
0
2.19523e-12
0
1.09762e-12
0
-2.19524e-12
0
-5.48809e-12
-1.75619e-11
4.39047e-12
1.86595e-11
0
-1.09762e-12
1.09762e-12
0
0
0
0
0
8.78094e-12
-8.78094e-12
-3186.74
-3086.28
-2894.88
-2630.03
-2314.59
-1973.48
-1630.46
-1305.56
-1013.44
-762.818
-556.921
-394.502
-271.226
-181.046
-117.377
-73.9385
-45.2715
-26.9536
-15.6106
-8.79852
-4.828
-2.5803
-1.34369
-0.682076
-0.337636
-0.163051
-0.0768476
-0.0353626
-0.015894
-0.00698015
-0.00299642
-0.00125779
-0.000516462
-0.000207513
-8.1617e-05
-3.14332e-05
-1.1858e-05
-4.38316e-06
-1.588e-06
-5.6407e-07
-1.96514e-07
-6.71676e-08
-2.25451e-08
-7.4188e-09
-2.37744e-09
-7.51868e-10
-2.56842e-10
-8.12237e-11
-1.86595e-11
-8.78094e-12
2.19523e-12
1.09762e-12
2.19523e-12
-1.09762e-12
-2.19523e-12
0
0
0
-1.09762e-12
0
1.09762e-12
-1.09762e-12
0
1.09762e-12
-3.29285e-12
0
3.29285e-12
9.87856e-12
3.29285e-12
-8.78094e-12
-2.41476e-11
-1.09762e-12
1.64643e-11
2.19523e-12
2.19523e-12
-3186.74
-3086.28
-2894.88
-2630.03
-2314.59
-1973.48
-1630.46
-1305.56
-1013.44
-762.818
-556.921
-394.502
-271.226
-181.046
-117.377
-73.9385
-45.2715
-26.9536
-15.6106
-8.79852
-4.828
-2.5803
-1.34369
-0.682077
-0.337636
-0.163051
-0.0768476
-0.0353626
-0.015894
-0.00698015
-0.00299642
-0.00125779
-0.000516462
-0.000207513
-8.1617e-05
-3.14332e-05
-1.1858e-05
-4.38315e-06
-1.588e-06
-5.6406e-07
-1.96503e-07
-6.71764e-08
-2.25462e-08
-7.43416e-09
-2.39171e-09
-7.31013e-10
-2.56842e-10
-8.67118e-11
-2.19524e-12
-1.09762e-12
0
1.4269e-11
0
-1.53666e-11
0
1.20738e-11
-1.09762e-12
-9.87856e-12
0
-1.09762e-12
1.09762e-12
0
0
0
0
0
9.87856e-12
2.19523e-12
-9.87856e-12
-6.58571e-12
-1.09762e-12
5.48809e-12
0
0
0
-3186.74
-3086.28
-2894.88
-2630.03
-2314.59
-1973.48
-1630.46
-1305.56
-1013.44
-762.818
-556.921
-394.502
-271.226
-181.046
-117.377
-73.9385
-45.2715
-26.9536
-15.6106
-8.79852
-4.828
-2.5803
-1.34369
-0.682077
-0.337636
-0.163051
-0.0768476
-0.0353626
-0.015894
-0.00698015
-0.00299642
-0.00125779
-0.000516462
-0.000207513
-8.1617e-05
-3.14332e-05
-1.1858e-05
-4.38315e-06
-1.58799e-06
-5.64076e-07
-1.96505e-07
-6.7161e-08
-2.25571e-08
-7.43746e-09
-2.39061e-09
-7.36501e-10
-2.33793e-10
-7.02475e-11
-5.48809e-12
-2.19523e-12
-9.87856e-12
1.09762e-12
1.09762e-11
1.09762e-12
2.19524e-12
8.78094e-12
-1.31714e-11
-9.87856e-12
1.20738e-11
-1.09762e-12
-4.39047e-12
-3.29285e-12
4.39047e-12
3.29285e-12
0
0
1.09762e-12
-1.09762e-12
7.68332e-12
1.09762e-12
-4.39047e-12
0
-2.19524e-12
0
-2.19524e-12
-3186.74
-3086.28
-2894.88
-2630.03
-2314.59
-1973.48
-1630.46
-1305.56
-1013.44
-762.818
-556.921
-394.502
-271.226
-181.046
-117.377
-73.9385
-45.2715
-26.9536
-15.6106
-8.79852
-4.828
-2.5803
-1.34369
-0.682077
-0.337636
-0.163051
-0.0768476
-0.0353626
-0.015894
-0.00698015
-0.00299643
-0.00125779
-0.000516462
-0.000207513
-8.1617e-05
-3.14332e-05
-1.1858e-05
-4.38315e-06
-1.58798e-06
-5.64086e-07
-1.96515e-07
-6.71533e-08
-2.25407e-08
-7.44294e-09
-2.40598e-09
-7.55161e-10
-2.305e-10
-4.28071e-11
-1.09762e-12
-5.48809e-12
-3.29285e-12
3.29285e-12
7.68332e-12
0
-2.19523e-12
0
-1.75619e-11
-9.87856e-12
5.48809e-12
5.48809e-12
1.20738e-11
4.39047e-12
-2.19523e-12
0
-7.68332e-12
0
1.4269e-11
0
-4.39047e-12
-7.68332e-12
-1.09762e-12
-1.09762e-12
0
1.64643e-11
-6.5857e-12
-3186.74
-3086.28
-2894.88
-2630.03
-2314.59
-1973.48
-1630.46
-1305.56
-1013.44
-762.818
-556.921
-394.502
-271.226
-181.046
-117.377
-73.9385
-45.2715
-26.9536
-15.6106
-8.79852
-4.828
-2.5803
-1.34369
-0.682077
-0.337636
-0.163051
-0.0768476
-0.0353626
-0.015894
-0.00698015
-0.00299643
-0.00125779
-0.000516462
-0.000207513
-8.1617e-05
-3.14332e-05
-1.1858e-05
-4.38317e-06
-1.58798e-06
-5.64054e-07
-1.96489e-07
-6.7138e-08
-2.25308e-08
-7.45063e-09
-2.41586e-09
-7.52966e-10
-2.32695e-10
-5.1588e-11
-4.39047e-12
-2.19523e-12
4.39047e-12
1.09762e-12
-1.09762e-12
-1.09762e-12
8.78094e-12
3.29285e-12
-1.09762e-11
-9.87856e-12
1.09762e-12
-5.48809e-12
1.09762e-12
1.31714e-11
-5.48809e-12
-1.09762e-12
6.5857e-12
0
1.09762e-12
0
-1.09762e-12
-1.31714e-11
0
6.58571e-12
-4.39047e-12
6.5857e-12
4.39047e-12
-3186.74
-3086.28
-2894.88
-2630.03
-2314.59
-1973.48
-1630.46
-1305.56
-1013.44
-762.818
-556.921
-394.502
-271.226
-181.046
-117.377
-73.9385
-45.2715
-26.9536
-15.6106
-8.79852
-4.828
-2.5803
-1.34369
-0.682077
-0.337636
-0.163051
-0.0768476
-0.0353626
-0.015894
-0.00698015
-0.00299643
-0.00125779
-0.000516462
-0.000207513
-8.16171e-05
-3.14332e-05
-1.1858e-05
-4.38316e-06
-1.58798e-06
-5.64056e-07
-1.96486e-07
-6.71424e-08
-2.25473e-08
-7.43636e-09
-2.40598e-09
-7.54063e-10
-2.38183e-10
-6.0369e-11
1.20738e-11
-2.19523e-12
-4.39047e-12
3.29285e-12
-7.68332e-12
1.09762e-12
1.53666e-11
1.09762e-12
-1.75619e-11
8.78094e-12
1.31714e-11
-8.78094e-12
2.19524e-12
0
-2.19524e-12
-1.09762e-12
1.09762e-12
-3.29285e-12
4.39047e-12
4.39047e-12
1.09762e-12
-2.19524e-12
-5.48809e-12
1.09762e-12
1.09762e-12
-1.09762e-12
0
-3186.74
-3086.28
-2894.88
-2630.03
-2314.59
-1973.48
-1630.46
-1305.56
-1013.44
-762.818
-556.921
-394.502
-271.226
-181.046
-117.377
-73.9385
-45.2715
-26.9536
-15.6106
-8.79852
-4.828
-2.5803
-1.34369
-0.682077
-0.337636
-0.163051
-0.0768476
-0.0353626
-0.015894
-0.00698015
-0.00299643
-0.00125779
-0.000516462
-0.000207513
-8.1617e-05
-3.14332e-05
-1.1858e-05
-4.38316e-06
-1.588e-06
-5.64057e-07
-1.96475e-07
-6.71446e-08
-2.25495e-08
-7.44624e-09
-2.3972e-09
-7.61747e-10
-2.43671e-10
-6.0369e-11
-1.20738e-11
0
1.4269e-11
0
-7.68332e-12
1.09762e-12
-1.09762e-11
-1.09762e-12
9.87856e-12
0
3.29285e-12
-1.09762e-12
-2.19523e-12
-1.09762e-12
-5.48809e-12
-2.19523e-12
7.68332e-12
4.39047e-12
1.31714e-11
0
-1.31714e-11
8.78094e-12
1.31714e-11
-1.09762e-11
-1.09762e-11
-1.09762e-12
1.09762e-12
-3186.74
-3086.28
-2894.88
-2630.03
-2314.59
-1973.48
-1630.46
-1305.56
-1013.44
-762.818
-556.921
-394.502
-271.226
-181.046
-117.377
-73.9385
-45.2715
-26.9536
-15.6106
-8.79852
-4.828
-2.5803
-1.34369
-0.682077
-0.337636
-0.163051
-0.0768476
-0.0353626
-0.015894
-0.00698015
-0.00299643
-0.00125779
-0.000516462
-0.000207513
-8.16171e-05
-3.14332e-05
-1.1858e-05
-4.38317e-06
-1.58801e-06
-5.64034e-07
-1.96475e-07
-6.71424e-08
-2.25132e-08
-7.43855e-09
-2.41037e-09
-7.61747e-10
-2.43671e-10
-8.34189e-11
-2.74404e-11
0
7.68332e-12
1.4269e-11
7.68332e-12
-1.4269e-11
0
4.39047e-12
-8.78094e-12
-5.48809e-12
0
0
0
0
0
-3.29285e-12
0
4.39047e-12
0
-1.09762e-12
-8.78094e-12
-6.58571e-12
1.53666e-11
5.48809e-12
-8.78094e-12
0
3.29285e-12
-3186.74
-3086.28
-2894.88
-2630.03
-2314.59
-1973.48
-1630.46
-1305.56
-1013.44
-762.818
-556.921
-394.502
-271.226
-181.046
-117.377
-73.9385
-45.2715
-26.9536
-15.6106
-8.79852
-4.828
-2.5803
-1.34369
-0.682077
-0.337636
-0.163051
-0.0768476
-0.0353626
-0.015894
-0.00698015
-0.00299643
-0.00125779
-0.000516462
-0.000207513
-8.16171e-05
-3.14332e-05
-1.1858e-05
-4.38316e-06
-1.588e-06
-5.64041e-07
-1.9648e-07
-6.71358e-08
-2.25121e-08
-7.42758e-09
-2.40268e-09
-7.7382e-10
-2.71112e-10
-8.45165e-11
-1.20738e-11
-1.09762e-12
8.78094e-12
1.4269e-11
-8.78094e-12
-1.53666e-11
0
1.53666e-11
0
-1.31714e-11
0
-1.09762e-12
-3.29285e-12
-1.09762e-12
4.39047e-12
0
0
0
0
1.09762e-12
-1.09762e-12
-7.68332e-12
1.09762e-12
7.68332e-12
-8.78094e-12
0
7.68332e-12
-3186.74
-3086.28
-2894.88
-2630.03
-2314.59
-1973.48
-1630.46
-1305.56
-1013.44
-762.818
-556.921
-394.502
-271.226
-181.046
-117.377
-73.9385
-45.2715
-26.9536
-15.6106
-8.79852
-4.828
-2.5803
-1.34369
-0.682077
-0.337636
-0.163051
-0.0768476
-0.0353626
-0.015894
-0.00698015
-0.00299643
-0.00125779
-0.000516462
-0.000207513
-8.16171e-05
-3.14332e-05
-1.1858e-05
-4.38314e-06
-1.58798e-06
-5.64045e-07
-1.96502e-07
-6.71709e-08
-2.25165e-08
-7.39465e-09
-2.39829e-09
-7.9248e-10
-2.64526e-10
-7.68332e-11
-1.75619e-11
0
1.09762e-12
0
0
-1.09762e-12
-9.87856e-12
0
4.39047e-12
0
5.48809e-12
0
-2.19523e-12
5.48809e-12
2.19523e-12
-4.39047e-12
0
-1.09762e-12
0
7.68332e-12
7.68332e-12
-6.5857e-12
-9.87856e-12
-7.68332e-12
-2.19523e-12
3.29285e-12
7.68332e-12
-3186.74
-3086.28
-2894.88
-2630.03
-2314.59
-1973.48
-1630.46
-1305.56
-1013.44
-762.818
-556.921
-394.502
-271.226
-181.046
-117.377
-73.9385
-45.2715
-26.9536
-15.6106
-8.79852
-4.828
-2.5803
-1.34369
-0.682077
-0.337636
-0.163051
-0.0768476
-0.0353626
-0.015894
-0.00698015
-0.00299643
-0.00125779
-0.000516463
-0.000207513
-8.1617e-05
-3.14332e-05