/*--------------------------------*- C++ -*----------------------------------*\
  =========                 |
  \\      /  F ield         | OpenFOAM: The Open Source CFD Toolbox
   \\    /   O peration     | Website:  https://openfoam.org
    \\  /    A nd           | Version:  10
     \\/     M anipulation  |
\*---------------------------------------------------------------------------*/
FoamFile
{
    format      ascii;
    class       volScalarField;
    location    "380";
    object      T;
}
// * * * * * * * * * * * * * * * * * * * * * * * * * * * * * * * * * * * * * //

dimensions      [0 0 0 1 0 0 0];

internalField   nonuniform List<scalar> 
11250
(
249.86
167.61
139.448
127.066
120.323
116.055
113.077
110.859
109.133
107.746
106.606
105.653
104.847
104.158
103.566
103.055
102.614
102.231
101.899
101.612
101.364
101.151
100.967
100.809
100.675
100.56
100.463
100.381
100.313
100.255
100.207
100.167
100.135
100.108
100.086
100.068
100.054
100.042
100.033
100.026
100.02
100.015
100.012
100.009
100.007
100.005
100.004
100.003
100.002
100.002
100.001
100.001
100.001
100
100
100
100
100
100
100
100
100
100
100
100
100
100
100
100
100
100
100
100
100
100
331.553
248.746
202.571
175.568
158.508
146.894
138.488
132.105
127.081
123.015
119.656
116.839
114.449
112.403
110.643
109.122
107.806
106.664
105.675
104.819
104.079
103.44
102.891
102.421
102.018
101.676
101.386
101.141
100.935
100.763
100.62
100.501
100.403
100.323
100.257
100.204
100.161
100.126
100.099
100.077
100.059
100.046
100.035
100.027
100.02
100.015
100.011
100.008
100.006
100.005
100.003
100.002
100.002
100.001
100.001
100.001
100
100
100
100
100
100
100
100
100
100
100
100
100
100
100
100
100
100
100
359.162
293.267
246.545
214.163
191.286
174.575
161.932
152.057
144.137
137.648
132.24
127.675
123.783
120.441
117.557
115.061
112.895
111.016
109.385
107.972
106.75
105.695
104.788
104.009
103.344
102.777
102.297
101.891
101.55
101.265
101.027
100.831
100.668
100.535
100.426
100.338
100.267
100.209
100.164
100.127
100.098
100.076
100.058
100.044
100.033
100.025
100.019
100.014
100.01
100.008
100.006
100.004
100.003
100.002
100.002
100.001
100.001
100.001
100
100
100
100
100
100
100
100
100
100
100
100
100
100
100
100
100
370.999
318.638
276.219
243.306
217.968
198.272
182.7
170.157
159.875
151.318
144.105
137.964
132.696
128.15
124.212
120.793
117.82
115.235
112.988
111.039
109.351
107.893
106.638
105.56
104.638
103.853
103.188
102.625
102.152
101.757
101.427
101.154
100.928
100.743
100.592
100.47
100.371
100.291
100.227
100.177
100.137
100.105
100.081
100.061
100.046
100.035
100.026
100.02
100.015
100.011
100.008
100.006
100.004
100.003
100.002
100.002
100.001
100.001
100.001
100
100
100
100
100
100
100
100
100
100
100
100
100
100
100
100
377.208
334.101
296.443
264.952
239.105
217.958
200.569
186.14
174.045
163.808
155.07
147.558
141.065
135.43
130.526
126.252
122.525
119.276
116.448
113.989
111.858
110.014
108.425
107.06
105.892
104.897
104.052
103.338
102.737
102.234
101.815
101.468
101.182
100.946
100.754
100.598
100.472
100.371
100.29
100.225
100.174
100.134
100.103
100.078
100.059
100.045
100.033
100.025
100.019
100.014
100.01
100.007
100.005
100.004
100.003
100.002
100.001
100.001
100.001
100
100
100
100
100
100
100
100
100
100
100
100
100
100
100
100
380.956
344.158
310.57
281.052
255.663
234.034
215.644
199.972
186.556
175.012
165.029
156.359
148.805
142.207
136.436
131.385
126.966
123.104
119.733
116.798
114.249
112.042
110.137
108.499
107.096
105.899
104.883
104.024
103.301
102.695
102.19
101.771
101.426
101.142
100.911
100.722
100.57
100.448
100.35
100.272
100.21
100.162
100.124
100.094
100.072
100.054
100.04
100.03
100.022
100.017
100.012
100.009
100.006
100.005
100.003
100.002
100.002
100.001
100.001
100.001
100
100
100
100
100
100
100
100
100
100
100
100
100
100
100
383.432
351.058
320.712
293.142
268.61
247.045
228.203
211.771
197.436
184.909
173.94
164.318
155.866
148.435
141.899
136.155
131.111
126.689
122.821
119.445
116.508
113.96
111.759
109.865
108.24
106.854
105.675
104.678
103.839
103.135
102.549
102.062
101.66
101.33
101.061
100.841
100.664
100.522
100.408
100.317
100.245
100.189
100.145
100.11
100.083
100.063
100.047
100.035
100.026
100.019
100.014
100.01
100.008
100.005
100.004
100.003
100.002
100.001
100.001
100.001
100
100
100
100
100
100
100
100
100
100
100
100
100
100
100
385.165
355.989
328.179
302.333
278.763
257.54
238.586
221.735
206.789
193.546
181.816
171.427
162.229
154.089
146.893
140.538
134.938
130.013
125.692
121.914
118.621
115.76
113.284
111.151
109.32
107.755
106.425
105.298
104.349
103.553
102.889
102.338
101.883
101.509
101.203
100.955
100.754
100.592
100.463
100.36
100.279
100.214
100.164
100.125
100.095
100.072
100.054
100.04
100.03
100.022
100.016
100.012
100.009
100.006
100.004
100.003
100.002
100.002
100.001
100.001
100.001
100
100
100
100
100
100
100
100
100
100
100
100
100
100
386.428
359.626
333.794
309.408
286.765
266.003
247.133
230.089
214.759
201.01
188.704
177.71
167.903
159.17
151.408
144.525
138.435
133.063
128.338
124.197
120.58
117.432
114.705
112.351
110.329
108.6
107.128
105.881
104.829
103.947
103.21
102.599
102.093
101.678
101.339
101.062
100.839
100.659
100.515
100.401
100.31
100.239
100.183
100.139
100.106
100.08
100.06
100.045
100.033
100.024
100.018
100.013
100.01
100.007
100.005
100.004
100.003
100.002
100.001
100.001
100.001
100
100
100
100
100
100
100
100
100
100
100
100
100
100
387.373
362.371
338.091
314.913
293.109
272.834
254.153
237.061
221.506
207.409
194.677
183.21
172.913
163.69
155.452
148.115
141.601
135.837
130.754
126.288
122.38
118.973
116.017
113.463
111.266
109.385
107.782
106.423
105.277
104.314
103.51
102.843
102.29
101.837
101.465
101.163
100.919
100.722
100.565
100.439
100.34
100.262
100.201
100.153
100.116
100.087
100.066
100.049
100.036
100.027
100.02
100.014
100.01
100.008
100.005
100.004
100.003
100.002
100.001
100.001
100.001
100
100
100
100
100
100
100
100
100
100
100
100
100
100
388.096
364.481
341.425
319.24
298.164
278.359
259.913
242.86
227.189
212.861
199.817
187.989
177.301
167.678
159.042
151.321
144.443
138.337
132.94
128.187
124.019
120.381
117.219
114.483
112.127
110.108
108.386
106.925
105.691
104.655
103.789
103.069
102.474
101.984
101.583
101.257
100.993
100.781
100.611
100.475
100.368
100.283
100.217
100.165
100.125
100.095
100.071
100.053
100.039
100.029
100.021
100.016
100.011
100.008
100.006
100.004
100.003
100.002
100.002
100.001
100.001
100.001
100
100
100
100
100
100
100
100
100
100
100
100
100
388.656
366.123
344.04
322.667
302.214
282.837
264.637
247.671
231.956
217.481
204.215
192.111
181.116
171.168
162.205
154.161
146.971
140.573
134.901
129.897
125.501
121.657
118.31
115.412
112.913
110.769
108.939
107.385
106.072
104.968
104.046
103.278
102.643
102.12
101.693
101.344
101.062
100.835
100.653
100.508
100.394
100.303
100.232
100.177
100.134
100.101
100.076
100.057
100.042
100.031
100.023
100.017
100.012
100.009
100.006
100.005
100.003
100.002
100.002
100.001
100.001
100.001
100
100
100
100
100
100
100
100
100
100
100
100
100
389.096
367.416
346.109
325.398
305.47
286.473
268.512
251.656
235.942
221.379
207.956
195.645
184.41
174.202
164.969
156.656
149.205
142.555
136.649
131.426
126.83
122.804
119.295
116.251
113.625
111.369
109.442
107.804
106.419
105.255
104.28
103.469
102.798
102.245
101.793
101.424
101.126
100.885
100.693
100.539
100.417
100.322
100.246
100.188
100.143
100.108
100.081
100.06
100.045
100.033
100.024
100.018
100.013
100.009
100.007
100.005
100.003
100.002
100.002
100.001
100.001
100.001
100
100
100
100
100
100
100
100
100
100
100
100
100
389.444
368.441
347.757
327.586
308.097
289.429
271.688
254.951
239.265
224.654
211.123
198.659
187.237
176.821
167.37
158.834
151.163
144.301
138.193
132.782
128.012
123.828
120.176
117.004
114.265
111.91
109.896
108.183
106.734
105.514
104.493
103.643
102.939
102.359
101.884
101.497
101.184
100.931
100.729
100.567
100.439
100.339
100.259
100.198
100.15
100.113
100.085
100.063
100.047
100.035
100.026
100.019
100.014
100.01
100.007
100.005
100.004
100.003
100.002
100.001
100.001
100.001
100
100
100
100
100
100
100
100
100
100
100
100
100
389.721
369.258
349.075
329.345
310.222
291.836
274.292
257.671
242.028
227.397
213.793
201.216
189.65
179.069
169.441
160.722
152.868
145.827
139.548
133.976
129.056
124.735
120.958
117.675
114.836
112.393
110.303
108.523
107.017
105.748
104.686
103.8
103.067
102.463
101.967
101.564
101.237
100.973
100.761
100.593
100.459
100.354
100.271
100.207
100.157
100.118
100.089
100.066
100.049
100.036
100.027
100.02
100.014
100.01
100.007
100.005
100.004
100.003
100.002
100.001
100.001
100.001
100
100
100
100
100
100
100
100
100
100
100
100
100
389.943
369.913
350.134
330.764
311.943
293.796
276.425
259.913
244.32
229.686
216.035
203.375
191.699
180.988
171.217
162.349
154.343
147.153
140.729
135.02
129.972
125.533
121.648
118.268
115.342
112.822
110.665
108.827
107.269
105.957
104.858
103.941
103.182
102.555
102.042
101.623
101.284
101.01
100.791
100.616
100.477
100.368
100.282
100.215
100.163
100.123
100.092
100.069
100.051
100.038
100.028
100.02
100.015
100.011
100.008
100.006
100.004
100.003
100.002
100.001
100.001
100.001
100
100
100
100
100
100
100
100
100
100
100
100
100
390.121
370.439
350.987
331.909
313.338
295.392
278.172
261.758
246.216
231.59
217.911
205.19
193.43
182.618
172.732
163.742
155.612
148.297
141.752
135.927
130.771
126.23
122.253
118.789
115.788
113.201
110.984
109.095
107.493
106.143
105.011
104.067
103.284
102.638
102.109
101.677
101.326
101.044
100.817
100.637
100.493
100.38
100.292
100.222
100.169
100.127
100.096
100.071
100.053
100.039
100.029
100.021
100.015
100.011
100.008
100.006
100.004
100.003
100.002
100.001
100.001
100.001
100
100
100
100
100
100
100
100
100
100
100
100
100
390.263
370.862
351.674
332.835
314.47
296.693
279.6
263.274
247.781
233.17
219.473
206.71
194.886
183.994
174.017
164.929
156.696
149.279
142.633
136.711
131.462
126.835
122.779
119.243
116.177
113.533
111.265
109.331
107.69
106.307
105.146
104.177
103.374
102.711
102.168
101.724
101.364
101.074
100.841
100.655
100.508
100.391
100.3
100.229
100.174
100.131
100.099
100.074
100.055
100.04
100.03
100.022
100.016
100.011
100.008
100.006
100.004
100.003
100.002
100.001
100.001
100.001
100
100
100
100
100
100
100
100
100
100
100
100
100
390.379
371.203
352.229
333.584
315.388
297.75
280.766
264.517
249.07
234.476
220.771
207.977
196.105
185.151
175.101
165.934
157.617
150.116
143.386
137.383
132.057
127.357
123.234
119.637
116.515
113.821
111.51
109.537
107.863
106.45
105.264
104.275
103.454
102.776
102.22
101.766
101.398
101.1
100.862
100.672
100.521
100.401
100.308
100.235
100.178
100.135
100.101
100.076
100.056
100.042
100.031
100.022
100.016
100.012
100.008
100.006
100.004
100.003
100.002
100.002
100.001
100.001
100.001
100
100
100
100
100
100
100
100
100
100
100
100
390.471
371.478
352.677
334.19
316.132
298.61
281.717
265.534
250.128
235.552
221.844
209.03
197.121
186.119
176.012
166.78
158.396
150.825
144.027
137.956
132.565
127.805
123.625
119.976
116.807
114.071
111.722
109.716
108.013
106.575
105.368
104.36
103.523
102.832
102.265
101.803
101.427
101.124
100.88
100.686
100.532
100.41
100.315
100.24
100.182
100.138
100.103
100.077
100.057
100.042
100.031
100.023
100.017
100.012
100.009
100.006
100.004
100.003
100.002
100.002
100.001
100.001
100.001
100
100
100
100
100
100
100
100
100
100
100
100
390.546
371.699
353.038
334.679
316.735
299.308
282.491
266.364
250.995
236.436
222.729
209.901
197.965
186.925
176.772
167.49
159.051
151.424
144.568
138.442
132.997
128.186
123.959
120.266
117.057
114.285
111.904
109.87
108.142
106.683
105.457
104.434
103.584
102.882
102.305
101.835
101.452
101.144
100.896
100.699
100.542
100.418
100.321
100.245
100.186
100.14
100.105
100.079
100.059
100.043
100.032
100.023
100.017
100.012
100.009
100.006
100.005
100.003
100.002
100.002
100.001
100.001
100.001
100
100
100
100
100
100
100
100
100
100
100
100
390.606
371.878
353.329
335.073
317.221
299.873
283.12
267.04
251.702
237.161
223.456
210.618
198.662
187.593
177.405
168.082
159.599
151.926
145.024
138.851
133.362
128.509
124.243
120.513
117.271
114.468
112.06
110.002
108.253
106.776
105.534
104.497
103.636
102.924
102.34
101.862
101.475
101.162
100.91
100.71
100.55
100.424
100.326
100.249
100.189
100.143
100.107
100.08
100.06
100.044
100.032
100.024
100.017
100.012
100.009
100.006
100.005
100.003
100.002
100.002
100.001
100.001
100.001
100
100
100
100
100
100
100
100
100
100
100
100
390.654
372.021
353.563
335.391
317.614
300.33
283.629
267.589
252.278
237.752
224.051
211.207
199.236
188.145
177.929
168.573
160.055
152.344
145.405
139.195
133.669
128.781
124.482
120.721
117.451
114.624
112.193
110.114
108.348
106.855
105.6
104.551
103.68
102.96
102.369
101.886
101.494
101.177
100.922
100.719
100.558
100.43
100.33
100.252
100.191
100.145
100.109
100.081
100.06
100.045
100.033
100.024
100.017
100.013
100.009
100.007
100.005
100.003
100.002
100.002
100.001
100.001
100.001
100
100
100
100
100
100
100
100
100
100
100
100
390.693
372.136
353.751
335.647
317.93
300.698
284.04
268.033
252.746
238.233
224.536
211.688
199.706
188.598
178.36
168.978
160.432
152.692
145.721
139.481
133.926
129.009
124.682
120.897
117.603
114.755
112.305
110.21
108.428
106.922
105.656
104.598
103.718
102.991
102.394
101.906
101.51
101.19
100.932
100.727
100.564
100.435
100.334
100.255
100.194
100.146
100.11
100.082
100.061
100.045
100.033
100.024
100.018
100.013
100.009
100.007
100.005
100.003
100.002
100.002
100.001
100.001
100.001
100
100
100
100
100
100
100
100
100
100
100
100
390.724
372.228
353.901
335.852
318.184
300.995
284.371
268.392
253.124
238.622
224.931
212.08
200.09
188.969
178.713
169.312
160.743
152.978
145.983
139.718
134.139
129.198
124.85
121.043
117.731
114.865
112.399
110.29
108.496
106.979
105.703
104.637
103.75
103.018
102.416
101.924
101.524
101.201
100.941
100.734
100.569
100.439
100.337
100.257
100.196
100.148
100.111
100.083
100.062
100.046
100.034
100.025
100.018
100.013
100.009
100.007
100.005
100.003
100.002
100.002
100.001
100.001
100.001
100
100
100
100
100
100
100
100
100
100
100
100
390.749
372.302
354.022
336.016
318.388
301.232
284.637
268.68
253.429
238.937
225.25
212.398
200.402
189.271
179.002
169.585
160.998
153.214
146.199
139.914
134.315
129.355
124.988
121.165
117.837
114.956
112.477
110.356
108.552
107.026
105.743
104.67
103.778
103.04
102.434
101.938
101.535
101.21
100.949
100.74
100.574
100.443
100.34
100.26
100.197
100.149
100.112
100.084
100.062
100.046
100.034
100.025
100.018
100.013
100.009
100.007
100.005
100.003
100.002
100.002
100.001
100.001
100.001
100
100
100
100
100
100
100
100
100
100
100
100
390.768
372.36
354.118
336.147
318.55
301.422
284.851
268.912
253.673
239.19
225.507
212.655
200.655
189.516
179.237
169.807
161.206
153.407
146.376
140.074
134.459
129.485
125.103
121.265
117.924
115.032
112.543
110.412
108.599
107.066
105.776
104.697
103.8
103.058
102.449
101.95
101.545
101.218
100.955
100.745
100.578
100.446
100.342
100.261
100.199
100.15
100.113
100.084
100.063
100.046
100.034
100.025
100.018
100.013
100.009
100.007
100.005
100.003
100.002
100.002
100.001
100.001
100.001
100
100
100
100
100
100
100
100
100
100
100
100
390.784
372.407
354.194
336.251
318.68
301.574
285.021
269.097
253.869
239.393
225.713
212.861
200.858
189.713
179.426
169.986
161.374
153.563
146.52
140.205
134.577
129.59
125.197
121.348
117.996
115.095
112.596
110.458
108.638
107.099
105.803
104.72
103.819
103.074
102.461
101.961
101.554
101.225
100.96
100.749
100.581
100.448
100.344
100.263
100.2
100.151
100.113
100.085
100.063
100.047
100.034
100.025
100.018
100.013
100.01
100.007
100.005
100.003
100.002
100.002
100.001
100.001
100.001
100
100
100
100
100
100
100
100
100
100
100
100
390.796
372.444
354.255
336.334
318.782
301.694
285.156
269.244
254.025
239.555
225.878
213.026
201.021
189.872
179.579
170.131
161.511
153.69
146.636
140.312
134.674
129.676
125.273
121.416
118.056
115.146
112.64
110.496
108.67
107.126
105.826
104.739
103.835
103.087
102.472
101.969
101.56
101.23
100.964
100.752
100.584
100.451
100.346
100.264
100.201
100.152
100.114
100.085
100.063
100.047
100.035
100.025
100.018
100.013
100.01
100.007
100.005
100.003
100.002
100.002
100.001
100.001
100.001
100
100
100
100
100
100
100
100
100
100
100
100
390.806
372.473
354.303
336.399
318.864
301.79
285.263
269.361
254.149
239.684
226.01
213.158
201.151
189.999
179.701
170.248
161.62
153.792
146.73
140.398
134.751
129.746
125.335
121.47
118.104
115.187
112.676
110.527
108.697
107.148
105.845
104.754
103.847
103.097
102.48
101.976
101.566
101.234
100.968
100.755
100.586
100.452
100.347
100.265
100.201
100.152
100.114
100.086
100.064
100.047
100.035
100.025
100.018
100.013
100.01
100.007
100.005
100.003
100.002
100.002
100.001
100.001
100.001
100
100
100
100
100
100
100
100
100
100
100
100
390.814
372.496
354.34
336.451
318.928
301.865
285.348
269.453
254.248
239.786
226.114
213.263
201.255
190.1
179.799
170.341
161.708
153.874
146.806
140.467
134.814
129.803
125.385
121.515
118.142
115.221
112.706
110.552
108.718
107.166
105.86
104.767
103.858
103.106
102.487
101.982
101.571
101.238
100.971
100.757
100.588
100.454
100.348
100.266
100.202
100.153
100.115
100.086
100.064
100.047
100.035
100.025
100.019
100.013
100.01
100.007
100.005
100.004
100.002
100.002
100.001
100.001
100.001
100
100
100
100
100
100
100
100
100
100
100
100
390.82
372.514
354.37
336.491
318.978
301.924
285.414
269.526
254.325
239.867
226.196
213.346
201.337
190.181
179.876
170.415
161.777
153.939
146.866
140.522
134.864
129.848
125.426
121.55
118.174
115.249
112.729
110.572
108.735
107.18
105.872
104.777
103.866
103.113
102.493
101.986
101.574
101.241
100.973
100.759
100.589
100.455
100.349
100.267
100.203
100.153
100.115
100.086
100.064
100.047
100.035
100.026
100.019
100.013
100.01
100.007
100.005
100.004
100.002
100.002
100.001
100.001
100.001
100
100
100
100
100
100
100
100
100
100
100
100
390.825
372.528
354.393
336.523
319.017
301.97
285.467
269.583
254.386
239.93
226.261
213.411
201.402
190.244
179.938
170.473
161.833
153.99
146.914
140.566
134.904
129.884
125.458
121.579
118.199
115.27
112.748
110.588
108.749
107.192
105.882
104.785
103.873
103.118
102.498
101.99
101.577
101.244
100.975
100.761
100.591
100.456
100.35
100.267
100.203
100.154
100.115
100.086
100.064
100.047
100.035
100.026
100.019
100.013
100.01
100.007
100.005
100.004
100.002
100.002
100.001
100.001
100.001
100
100
100
100
100
100
100
100
100
100
100
100
390.828
372.539
354.411
336.547
319.048
302.006
285.507
269.627
254.433
239.98
226.312
213.462
201.453
190.294
179.986
170.519
161.876
154.031
146.952
140.601
134.936
129.912
125.483
121.601
118.219
115.288
112.763
110.601
108.76
107.202
105.89
104.792
103.879
103.123
102.501
101.993
101.58
101.246
100.977
100.762
100.592
100.457
100.351
100.268
100.204
100.154
100.116
100.086
100.064
100.048
100.035
100.026
100.019
100.014
100.01
100.007
100.005
100.004
100.002
100.002
100.001
100.001
100.001
100
100
100
100
100
100
100
100
100
100
100
100
390.831
372.548
354.425
336.566
319.072
302.034
285.539
269.662
254.47
240.018
226.351
213.502
201.492
190.333
180.023
170.555
161.91
154.063
146.982
140.628
134.961
129.935
125.503
121.619
118.234
115.302
112.775
110.611
108.769
107.209
105.896
104.797
103.883
103.127
102.504
101.996
101.582
101.247
100.978
100.763
100.592
100.457
100.351
100.268
100.204
100.154
100.116
100.087
100.064
100.048
100.035
100.026
100.019
100.014
100.01
100.007
100.005
100.004
100.002
100.002
100.001
100.001
100.001
100
100
100
100
100
100
100
100
100
100
100
100
390.833
372.554
354.436
336.581
319.09
302.056
285.563
269.689
254.499
240.048
226.382
213.533
201.523
190.363
180.053
170.583
161.937
154.088
147.005
140.649
134.98
129.952
125.519
121.633
118.247
115.312
112.785
110.62
108.776
107.215
105.901
104.801
103.886
103.129
102.507
101.997
101.583
101.248
100.979
100.764
100.593
100.458
100.352
100.269
100.204
100.154
100.116
100.087
100.064
100.048
100.035
100.026
100.019
100.014
100.01
100.007
100.005
100.004
100.002
100.002
100.001
100.001
100.001
100
100
100
100
100
100
100
100
100
100
100
100
390.835
372.559
354.444
336.592
319.104
302.073
285.582
269.709
254.521
240.071
226.406
213.557
201.547
190.386
180.076
170.605
161.958
154.108
147.023
140.666
134.995
129.966
125.532
121.644
118.257
115.321
112.792
110.626
108.781
107.22
105.905
104.805
103.889
103.132
102.509
101.999
101.585
101.249
100.98
100.765
100.593
100.458
100.352
100.269
100.204
100.154
100.116
100.087
100.065
100.048
100.035
100.026
100.019
100.014
100.01
100.007
100.005
100.004
100.002
100.002
100.001
100.001
100.001
100
100
100
100
100
100
100
100
100
100
100
100
390.836
372.563
354.45
336.601
319.115
302.085
285.597
269.725
254.538
240.089
226.424
213.576
201.566
190.404
180.093
170.622
161.974
154.123
147.037
140.679
135.007
129.977
125.541
121.653
118.264
115.328
112.798
110.631
108.786
107.223
105.908
104.807
103.891
103.134
102.51
102
101.586
101.25
100.981
100.765
100.594
100.458
100.352
100.269
100.204
100.154
100.116
100.087
100.065
100.048
100.035
100.026
100.019
100.014
100.01
100.007
100.005
100.004
100.003
100.002
100.001
100.001
100.001
100
100
100
100
100
100
100
100
100
100
100
100
390.837
372.566
354.455
336.608
319.124
302.095
285.608
269.737
254.551
240.103
226.438
213.59
201.58
190.418
180.107
170.635
161.986
154.135
147.048
140.689
135.016
129.985
125.549
121.66
118.27
115.333
112.802
110.635
108.789
107.226
105.911
104.809
103.893
103.135
102.511
102.001
101.586
101.251
100.981
100.766
100.594
100.459
100.352
100.269
100.204
100.155
100.116
100.087
100.065
100.048
100.035
100.026
100.019
100.014
100.01
100.007
100.005
100.004
100.003
100.002
100.001
100.001
100.001
100
100
100
100
100
100
100
100
100
100
100
100
390.838
372.568
354.459
336.613
319.13
302.103
285.616
269.747
254.56
240.113
226.449
213.601
201.59
190.429
180.117
170.645
161.996
154.143
147.056
140.697
135.023
129.991
125.554
121.665
118.275
115.337
112.806
110.638
108.792
107.228
105.912
104.811
103.894
103.136
102.512
102.002
101.587
101.251
100.981
100.766
100.594
100.459
100.352
100.269
100.205
100.155
100.116
100.087
100.065
100.048
100.035
100.026
100.019
100.014
100.01
100.007
100.005
100.004
100.003
100.002
100.001
100.001
100.001
100
100
100
100
100
100
100
100
100
100
100
100
390.839
372.57
354.462
336.617
319.135
302.108
285.622
269.754
254.568
240.121
226.457
213.609
201.599
190.437
180.125
170.653
162.003
154.15
147.062
140.702
135.029
129.996
125.559
121.669
118.278
115.34
112.808
110.64
108.794
107.23
105.914
104.812
103.895
103.137
102.513
102.002
101.587
101.252
100.982
100.766
100.595
100.459
100.353
100.269
100.205
100.155
100.116
100.087
100.065
100.048
100.035
100.026
100.019
100.014
100.01
100.007
100.005
100.004
100.003
100.002
100.001
100.001
100.001
100
100
100
100
100
100
100
100
100
100
100
100
390.839
372.571
354.464
336.62
319.138
302.112
285.627
269.759
254.574
240.127
226.463
213.615
201.605
190.443
180.131
170.658
162.008
154.155
147.067
140.707
135.033
130
125.562
121.672
118.281
115.342
112.81
110.642
108.795
107.231
105.915
104.813
103.896
103.137
102.513
102.003
101.588
101.252
100.982
100.766
100.595
100.459
100.353
100.269
100.205
100.155
100.116
100.087
100.065
100.048
100.035
100.026
100.019
100.014
100.01
100.007
100.005
100.004
100.003
100.002
100.001
100.001
100.001
100
100
100
100
100
100
100
100
100
100
100
100
390.84
372.572
354.465
336.622
319.141
302.116
285.631
269.763
254.578
240.131
226.467
213.62
201.609
190.448
180.135
170.663
162.013
154.159
147.071
140.71
135.036
130.003
125.565
121.674
118.283
115.344
112.812
110.643
108.796
107.232
105.916
104.814
103.897
103.138
102.514
102.003
101.588
101.252
100.982
100.766
100.595
100.459
100.353
100.269
100.205
100.155
100.116
100.087
100.065
100.048
100.035
100.026
100.019
100.014
100.01
100.007
100.005
100.004
100.003
100.002
100.001
100.001
100.001
100
100
100
100
100
100
100
100
100
100
100
100
390.84
372.573
354.466
336.623
319.143
302.118
285.634
269.766
254.581
240.135
226.471
213.623
201.613
190.451
180.139
170.666
162.016
154.162
147.074
140.713
135.038
130.005
125.567
121.676
118.284
115.345
112.813
110.644
108.797
107.233
105.916
104.814
103.897
103.138
102.514
102.003
101.588
101.252
100.982
100.766
100.595
100.459
100.353
100.269
100.205
100.155
100.116
100.087
100.065
100.048
100.035
100.026
100.019
100.014
100.01
100.007
100.005
100.004
100.003
100.002
100.001
100.001
100.001
100
100
100
100
100
100
100
100
100
100
100
100
390.84
372.574
354.467
336.625
319.144
302.12
285.636
269.768
254.583
240.137
226.473
213.626
201.615
190.454
180.141
170.668
162.018
154.164
147.076
140.715
135.04
130.007
125.568
121.677
118.285
115.346
112.814
110.645
108.798
107.234
105.917
104.815
103.898
103.139
102.514
102.004
101.588
101.252
100.982
100.767
100.595
100.459
100.353
100.269
100.205
100.155
100.116
100.087
100.065
100.048
100.035
100.026
100.019
100.014
100.01
100.007
100.005
100.004
100.003
100.002
100.001
100.001
100.001
100
100
100
100
100
100
100
100
100
100
100
100
390.84
372.574
354.468
336.625
319.146
302.121
285.637
269.77
254.585
240.139
226.475
213.628
201.617
190.456
180.143
170.67
162.02
154.166
147.077
140.716
135.041
130.008
125.569
121.678
118.286
115.347
112.815
110.646
108.798
107.234
105.917
104.815
103.898
103.139
102.514
102.004
101.588
101.253
100.983
100.767
100.595
100.459
100.353
100.27
100.205
100.155
100.116
100.087
100.065
100.048
100.035
100.026
100.019
100.014
100.01
100.007
100.005
100.004
100.003
100.002
100.001
100.001
100.001
100
100
100
100
100
100
100
100
100
100
100
100
390.84
372.574
354.468
336.626
319.146
302.122
285.638
269.771
254.586
240.14
226.477
213.629
201.619
190.457
180.144
170.671
162.021
154.167
147.078
140.717
135.042
130.009
125.57
121.679
118.287
115.348
112.815
110.646
108.799
107.234
105.917
104.815
103.898
103.139
102.515
102.004
101.589
101.253
100.983
100.767
100.595
100.459
100.353
100.27
100.205
100.155
100.116
100.087
100.065
100.048
100.035
100.026
100.019
100.014
100.01
100.007
100.005
100.004
100.003
100.002
100.001
100.001
100.001
100
100
100
100
100
100
100
100
100
100
100
100
390.84
372.574
354.469
336.627
319.147
302.123
285.639
269.772
254.587
240.141
226.478
213.63
201.62
190.458
180.145
170.672
162.022
154.168
147.079
140.718
135.043
130.009
125.571
121.679
118.287
115.348
112.816
110.646
108.799
107.235
105.918
104.815
103.898
103.139
102.515
102.004
101.589
101.253
100.983
100.767
100.595
100.459
100.353
100.27
100.205
100.155
100.116
100.087
100.065
100.048
100.035
100.026
100.019
100.014
100.01
100.007
100.005
100.004
100.003
100.002
100.001
100.001
100.001
100
100
100
100
100
100
100
100
100
100
100
100
390.84
372.575
354.469
336.627
319.147
302.123
285.64
269.772
254.588
240.142
226.479
213.631
201.621
190.459
180.146
170.673
162.023
154.169
147.08
140.719
135.043
130.01
125.571
121.679
118.288
115.348
112.816
110.647
108.799
107.235
105.918
104.816
103.898
103.139
102.515
102.004
101.589
101.253
100.983
100.767
100.595
100.459
100.353
100.27
100.205
100.155
100.116
100.087
100.065
100.048
100.035
100.026
100.019
100.014
100.01
100.007
100.005
100.004
100.003
100.002
100.001
100.001
100.001
100
100
100
100
100
100
100
100
100
100
100
100
390.84
372.575
354.469
336.627
319.148
302.124
285.64
269.773
254.589
240.142
226.479
213.631
201.621
190.459
180.147
170.674
162.023
154.169
147.08
140.719
135.044
130.01
125.571
121.68
118.288
115.348
112.816
110.647
108.799
107.235
105.918
104.816
103.898
103.139
102.515
102.004
101.589
101.253
100.983
100.767
100.595
100.459
100.353
100.27
100.205
100.155
100.116
100.087
100.065
100.048
100.035
100.026
100.019
100.014
100.01
100.007
100.005
100.004
100.003
100.002
100.001
100.001
100.001
100
100
100
100
100
100
100
100
100
100
100
100
390.84
372.575
354.469
336.627
319.148
302.124
285.64
269.773
254.589
240.143
226.479
213.632
201.622
190.46
180.147
170.674
162.023
154.17
147.081
140.719
135.044
130.01
125.571
121.68
118.288
115.349
112.816
110.647
108.799
107.235
105.918
104.816
103.898
103.139
102.515
102.004
101.589
101.253
100.983
100.767
100.595
100.459
100.353
100.27
100.205
100.155
100.116
100.087
100.065
100.048
100.035
100.026
100.019
100.014
100.01
100.007
100.005
100.004
100.003
100.002
100.001
100.001
100.001
100
100
100
100
100
100
100
100
100
100
100
100
390.84
372.575
354.469
336.627
319.148
302.124
285.64
269.773
254.589
240.143
226.48
213.632
201.622
190.46
180.147
170.674
162.024
154.17
147.081
140.719
135.044
130.01
125.572
121.68
118.288
115.349
112.816
110.647
108.799
107.235
105.918
104.816
103.898
103.139
102.515
102.004
101.589
101.253
100.983
100.767
100.595
100.459
100.353
100.27
100.205
100.155
100.116
100.087
100.065
100.048
100.035
100.026
100.019
100.014
100.01
100.007
100.005
100.004
100.003
100.002
100.001
100.001
100.001
100
100
100
100
100
100
100
100
100
100
100
100
390.84
372.575
354.469
336.628
319.148
302.124
285.641
269.774
254.589
240.143
226.48
213.632
201.622
190.46
180.147
170.675
162.024
154.17
147.081
140.72
135.044
130.011
125.572
121.68
118.288
115.349
112.816
110.647
108.799
107.235
105.918
104.816
103.898
103.139
102.515
102.004
101.589
101.253
100.983
100.767
100.595
100.459
100.353
100.27
100.205
100.155
100.116
100.087
100.065
100.048
100.035
100.026
100.019
100.014
100.01
100.007
100.005
100.004
100.003
100.002
100.001
100.001
100.001
100
100
100
100
100
100
100
100
100
100
100
100
390.84
372.575
354.469
336.628
319.148
302.124
285.641
269.774
254.589
240.143
226.48
213.632
201.622
190.46
180.148
170.675
162.024
154.17
147.081
140.72
135.044
130.011
125.572
121.68
118.288
115.349
112.816
110.647
108.799
107.235
105.918
104.816
103.898
103.139
102.515
102.004
101.589
101.253
100.983
100.767
100.595
100.459
100.353
100.27
100.205
100.155
100.116
100.087
100.065
100.048
100.035
100.026
100.019
100.014
100.01
100.007
100.005
100.004
100.003
100.002
100.001
100.001
100.001
100
100
100
100
100
100
100
100
100
100
100
100
390.84
372.575
354.47
336.628
319.148
302.124