/*--------------------------------*- C++ -*----------------------------------*\
  =========                 |
  \\      /  F ield         | OpenFOAM: The Open Source CFD Toolbox
   \\    /   O peration     | Website:  https://openfoam.org
    \\  /    A nd           | Version:  10
     \\/     M anipulation  |
\*---------------------------------------------------------------------------*/
FoamFile
{
    format      ascii;
    class       volScalarField;
    location    "1050";
    object      T;
}
// * * * * * * * * * * * * * * * * * * * * * * * * * * * * * * * * * * * * * //

dimensions      [0 0 0 1 0 0 0];

internalField   nonuniform List<scalar> 
11250
(
249.949
167.877
139.889
127.676
121.095
116.981
114.144
112.057
110.448
109.165
108.114
107.235
106.487
105.842
105.279
104.784
104.343
103.95
103.596
103.277
102.988
102.725
102.485
102.266
102.066
101.883
101.715
101.56
101.419
101.289
101.17
101.061
100.961
100.87
100.786
100.709
100.639
100.575
100.517
100.464
100.416
100.372
100.332
100.297
100.264
100.235
100.209
100.185
100.164
100.144
100.127
100.112
100.099
100.086
100.076
100.066
100.058
100.05
100.044
100.038
100.033
100.028
100.024
100.021
100.018
100.015
100.013
100.011
100.009
100.007
100.006
100.004
100.003
100.002
100.001
331.82
249.546
203.892
177.396
160.821
149.666
141.686
135.695
131.021
127.266
124.173
121.577
119.363
117.449
115.776
114.3
112.989
111.816
110.761
109.808
108.943
108.157
107.441
106.786
106.187
105.638
105.135
104.674
104.251
103.862
103.506
103.179
102.88
102.605
102.354
102.125
101.915
101.724
101.549
101.39
101.246
101.115
100.996
100.889
100.792
100.704
100.625
100.554
100.49
100.433
100.382
100.336
100.295
100.259
100.227
100.198
100.173
100.151
100.131
100.113
100.098
100.085
100.073
100.062
100.053
100.045
100.038
100.032
100.026
100.021
100.017
100.013
100.009
100.005
100.002
359.607
294.595
248.741
217.201
195.131
179.182
167.248
158.023
150.688
144.714
139.749
135.551
131.952
128.828
126.09
123.668
121.512
119.579
117.839
116.266
114.837
113.537
112.351
111.267
110.274
109.365
108.531
107.765
107.063
106.418
105.827
105.284
104.787
104.331
103.914
103.533
103.184
102.866
102.576
102.312
102.072
101.855
101.657
101.478
101.317
101.171
101.04
100.921
100.815
100.72
100.635
100.559
100.491
100.431
100.377
100.33
100.288
100.251
100.218
100.189
100.163
100.141
100.121
100.104
100.088
100.075
100.063
100.053
100.044
100.035
100.028
100.021
100.015
100.009
100.003
371.619
320.491
279.282
247.544
223.33
204.696
190.113
178.477
169.011
161.172
154.576
148.948
144.088
139.846
136.111
132.797
129.837
127.178
124.779
122.606
120.631
118.831
117.188
115.684
114.306
113.043
111.884
110.82
109.843
108.946
108.123
107.367
106.675
106.04
105.459
104.927
104.442
103.998
103.594
103.226
102.892
102.588
102.312
102.063
101.838
101.634
101.451
101.286
101.138
101.006
100.887
100.781
100.686
100.602
100.527
100.461
100.402
100.35
100.304
100.263
100.228
100.196
100.169
100.145
100.123
100.105
100.088
100.074
100.061
100.049
100.039
100.029
100.02
100.012
100.004
378.001
336.47
300.36
270.371
245.962
226.175
210.051
196.781
185.729
176.412
168.463
161.608
155.637
150.391
145.747
141.607
137.897
134.555
131.532
128.787
126.289
124.009
121.923
120.014
118.263
116.655
115.18
113.824
112.579
111.435
110.385
109.421
108.536
107.726
106.983
106.304
105.683
105.117
104.6
104.129
103.701
103.313
102.96
102.641
102.353
102.093
101.858
101.647
101.458
101.288
101.136
101
100.879
100.771
100.675
100.59
100.515
100.448
100.389
100.337
100.292
100.252
100.216
100.185
100.158
100.134
100.113
100.095
100.078
100.063
100.05
100.038
100.026
100.015
100.005
381.919
347.035
315.327
287.633
263.99
244.011
227.158
212.894
200.745
190.317
181.293
173.421
166.502
160.377
154.921
150.035
145.637
141.661
138.055
134.773
131.779
129.041
126.534
124.235
122.125
120.186
118.404
116.765
115.26
113.876
112.604
111.436
110.365
109.382
108.482
107.658
106.905
106.217
105.59
105.019
104.499
104.027
103.599
103.212
102.861
102.545
102.26
102.003
101.773
101.566
101.381
101.216
101.069
100.938
100.821
100.718
100.626
100.545
100.474
100.411
100.355
100.306
100.263
100.226
100.192
100.163
100.138
100.115
100.095
100.077
100.061
100.046
100.032
100.019
100.006
384.561
354.431
326.29
300.859
278.375
258.745
241.705
226.924
214.075
202.858
193.014
184.328
176.621
169.745
163.581
158.03
153.011
148.458
144.313
140.531
137.073
133.905
130.998
128.329
125.875
123.619
121.542
119.632
117.875
116.258
114.772
113.407
112.154
111.004
109.95
108.985
108.103
107.297
106.562
105.892
105.282
104.729
104.227
103.772
103.361
102.989
102.655
102.353
102.083
101.84
101.623
101.429
101.256
101.102
100.965
100.844
100.736
100.641
100.557
100.483
100.417
100.36
100.31
100.265
100.226
100.192
100.162
100.135
100.112
100.09
100.071
100.054
100.038
100.022
100.007
386.456
359.847
334.557
311.157
289.929
270.919
254.025
239.063
225.817
214.072
203.63
194.312
185.967
178.463
171.692
165.56
159.989
154.914
150.279
146.038
142.149
138.579
135.298
132.279
129.5
126.941
124.584
122.414
120.415
118.575
116.883
115.327
113.898
112.586
111.383
110.281
109.273
108.352
107.512
106.746
106.049
105.416
104.841
104.321
103.85
103.425
103.042
102.697
102.387
102.109
101.861
101.638
101.44
101.264
101.107
100.967
100.844
100.735
100.638
100.554
100.479
100.413
100.355
100.304
100.26
100.22
100.186
100.155
100.128
100.104
100.082
100.062
100.043
100.025
100.008
387.876
363.954
340.949
319.306
299.291
281.012
264.454
249.53
236.107
224.039
213.178
203.386
194.537
186.519
179.236
172.603
166.548
161.01
155.933
151.274
146.99
143.048
139.418
136.072
132.987
130.142
127.519
125.101
122.872
120.819
118.928
117.189
115.591
114.123
112.776
111.542
110.412
109.38
108.438
107.579
106.797
106.086
105.441
104.857
104.328
103.851
103.42
103.033
102.685
102.373
102.093
101.843
101.62
101.422
101.245
101.088
100.95
100.827
100.719
100.623
100.539
100.465
100.4
100.342
100.292
100.248
100.209
100.175
100.144
100.117
100.092
100.069
100.048
100.029
100.009
388.974
367.153
345.997
325.851
306.95
289.419
273.294
258.545
245.098
232.86
221.725
211.589
202.351
193.92
186.212
179.154
172.68
166.733
161.263
156.225
151.582
147.299
143.346
139.696
136.325
133.213
130.339
127.686
125.239
122.982
120.903
118.989
117.228
115.611
114.126
112.764
111.518
110.378
109.337
108.388
107.524
106.738
106.025
105.379
104.794
104.266
103.789
103.36
102.975
102.629
102.32
102.043
101.796
101.576
101.38
101.207
101.053
100.917
100.797
100.691
100.597
100.515
100.443
100.38
100.324
100.275
100.232
100.194
100.16
100.129
100.102
100.077
100.054
100.032
100.011
389.843
369.7
350.055
331.179
313.273
296.463
280.808
266.312
252.944
240.646
229.347
218.972
209.442
200.685
192.63
185.215
178.381
172.079
166.261
160.886
155.918
151.324
147.075
143.144
139.508
136.146
133.037
130.164
127.51
125.061
122.803
120.722
118.807
117.046
115.429
113.946
112.587
111.344
110.208
109.172
108.229
107.371
106.592
105.885
105.246
104.669
104.148
103.679
103.257
102.879
102.54
102.237
101.967
101.726
101.512
101.322
101.154
101.005
100.873
100.757
100.655
100.565
100.486
100.416
100.355
100.302
100.254
100.212
100.175
100.142
100.112
100.084
100.059
100.035
100.012
390.544
371.763
353.365
335.567
318.539
302.399
287.215
273.013
259.787
247.507
236.127
225.595
215.853
206.843
198.509
190.798
183.66
177.05
170.927
165.252
159.993
155.118
150.599
146.411
142.53
138.935
135.608
132.528
129.681
127.051
124.624
122.385
120.324
118.427
116.683
115.084
113.617
112.275
111.049
109.93
108.91
107.982
107.14
106.376
105.684
105.059
104.495
103.987
103.531
103.121
102.754
102.426
102.133
101.872
101.64
101.434
101.251
101.09
100.947
100.821
100.71
100.613
100.527
100.452
100.386
100.327
100.276
100.231
100.19
100.154
100.121
100.092
100.064
100.038
100.012
391.118
373.457
356.098
339.217
322.958
307.429
292.698
278.805
265.758
253.548
242.148
231.523
221.632
212.431
203.875
195.92
188.526
181.653
175.265
169.327
163.808
158.68
153.917
149.494
145.388
141.579
138.048
134.777
131.749
128.949
126.362
123.975
121.775
119.749
117.886
116.176
114.607
113.171
111.858
110.659
109.566
108.572
107.668
106.849
106.107
105.436
104.831
104.285
103.795
103.355
102.961
102.609
102.294
102.013
101.764
101.543
101.346
101.173
101.019
100.884
100.764
100.66
100.567
100.486
100.415
100.352
100.297
100.248
100.205
100.166
100.131
100.099
100.069
100.041
100.013
391.594
374.864
358.378
342.28
326.693
311.713
297.408
283.821
270.973
258.866
247.488
236.818
226.828
217.486
208.756
200.605
192.997
185.9
179.283
173.114
167.365
162.012
157.028
152.391
148.08
144.075
140.356
136.907
133.711
130.753
128.017
125.49
123.159
121.012
119.036
117.22
115.555
114.029
112.633
111.358
110.196
109.138
108.176
107.304
106.513
105.799
105.154
104.573
104.05
103.581
103.161
102.785
102.449
102.15
101.884
101.647
101.438
101.252
101.089
100.944
100.817
100.705
100.606
100.52
100.443
100.376
100.317
100.265
100.219
100.177
100.14
100.105
100.074
100.043
100.014
391.992
376.045
360.297
344.87
329.869
315.38
301.468
288.176
275.533
263.549
252.222
241.543
231.492
222.048
213.185
204.876
197.092
189.806
182.991
176.621
170.671
165.116
159.935
155.105
150.608
146.423
142.532
138.919
135.567
132.461
129.586
126.929
124.476
122.214
120.131
118.217
116.46
114.849
113.375
112.028
110.799
109.681
108.663
107.74
106.904
106.147
105.465
104.849
104.296
103.799
103.353
102.954
102.599
102.281
101.999
101.748
101.526
101.329
101.156
101.002
100.867
100.748
100.644
100.552
100.471
100.4
100.337
100.282
100.232
100.188
100.148
100.112
100.078
100.046
100.015
392.329
377.042
361.923
347.074
332.585
318.532
304.978
291.965
279.524
267.673
256.417
245.753
235.672
226.159
217.195
208.76
200.832
193.387
186.404
179.86
173.732
168
162.642
157.639
152.973
148.624
144.576
140.812
137.316
134.074
131.07
128.291
125.723
123.354
121.172
119.164
117.321
115.63
114.082
112.667
111.375
110.199
109.129
108.158
107.278
106.481
105.762
105.114
104.531
104.007
103.537
103.117
102.742
102.408
102.11
101.846
101.611
101.404
101.22
101.058
100.916
100.79
100.68
100.583
100.497
100.422
100.356
100.298
100.245
100.199
100.157
100.118
100.083
100.049
100.016
392.615
377.892
363.31
348.959
334.917
321.252
308.021
295.268
283.023
271.308
260.134
249.503
239.414
229.856
220.818
212.284
204.239
196.662
189.536
182.842
176.559
170.67
165.155
159.997
155.178
150.681
146.49
142.588
138.96
135.591
132.468
129.576
126.902
124.433
122.157
120.062
118.137
116.371
114.753
113.274
111.923
110.693
109.573
108.556
107.634
106.8
106.046
105.367
104.756
104.206
103.714
103.273
102.88
102.529
102.216
101.939
101.692
101.475
101.282
101.112
100.962
100.83
100.714
100.612
100.523
100.444
100.374
100.313
100.258
100.209
100.165
100.124
100.087
100.051
100.017
392.859
378.618
364.5
350.58
336.928
323.607
310.668
298.153
286.093
274.513
263.427
252.842
242.76
233.177
224.086
215.476
207.335
199.649
192.403
185.579
179.162
173.135
167.481
162.185
157.229
152.598
148.276
144.248
140.499
137.015
133.781
130.785
128.012
125.45
123.087
120.911
118.91
117.073
115.39
113.85
112.444
111.161
109.995
108.935
107.973
107.103
106.317
105.608
104.97
104.397
103.882
103.422
103.011
102.644
102.318
102.028
101.77
101.543
101.341
101.164
101.007
100.869
100.748
100.641
100.547
100.465
100.392
100.327
100.27
100.219
100.173
100.13
100.091
100.054
100.018
393.069
379.243
365.524
351.979
338.669
325.652
312.975
300.677
288.791
277.342
266.345
255.813
245.75
236.156
227.029
218.361
210.145
202.368
195.02
188.086
181.552
175.405
169.628
164.209
159.13
154.378
149.939
145.796
141.937
138.346
135.012
131.919
129.055
126.407
123.963
121.711
119.639
117.736
115.992
114.395
112.936
111.606
110.394
109.294
108.295
107.391
106.574
105.837
105.174
104.578
104.043
103.564
103.136
102.754
102.414
102.113
101.845
101.607
101.398
101.213
101.049
100.906
100.779
100.668
100.57
100.484
100.409
100.341
100.282
100.228
100.18
100.136
100.095
100.056
100.019
393.25
379.783
366.409
353.19
340.181
327.432
314.989
302.889
291.164
279.839
268.932
258.456
248.42
238.826
229.676
220.965
212.689
204.838
197.404
190.376
183.742
177.489
171.605
166.076
160.888
156.028
151.482
147.235
143.275
139.588
136.161
132.979
130.031
127.304
124.785
122.462
120.324
118.36
116.558
114.908
113.401
112.025
110.772
109.633
108.6
107.664
106.818
106.055
105.367
104.749
104.195
103.698
103.255
102.859
102.507
102.193
101.915
101.669
101.452
101.259
101.09
100.941
100.81
100.694
100.593
100.503
100.425
100.355
100.293
100.237
100.187
100.141
100.099
100.058
100.019
393.407
380.25
367.177
354.242
341.496
328.986
316.752
304.831
293.253
282.044
271.224
260.807
250.802
241.217
232.054
223.312
214.989
207.078
199.572
192.464
185.743
179.399
173.42
167.794
162.509
157.552
152.91
148.57
144.519
140.743
137.231
133.968
130.943
128.142
125.554
123.166
120.967
118.946
117.091
115.392
113.838
112.42
111.128
109.953
108.887
107.921
107.048
106.26
105.55
104.912
104.339
103.826
103.367
102.958
102.594
102.27
101.982
101.728
101.503
101.304
101.129
100.974
100.838
100.719
100.614
100.521
100.44
100.367
100.303
100.246
100.194
100.146
100.102
100.06
100.02
393.544
380.656
367.845
355.159
342.644
330.343
318.296
306.536
295.094
283.994
273.256
262.897
252.928
243.357
234.188
225.425
217.064
209.104
201.54
194.364
187.569
181.145
175.083
169.372
164
158.957
154.229
149.804
145.67
141.815
138.225
134.888
131.792
128.924
126.272
123.824
121.569
119.494
117.59
115.845
114.248
112.791
111.463
110.255
109.158
108.164
107.265
106.454
105.723
105.065
104.475
103.946
103.474
103.052
102.676
102.342
102.046
101.783
101.551
101.346
101.165
101.006
100.866
100.742
100.634
100.538
100.454
100.38
100.313
100.254
100.2
100.151
100.105
100.062
100.021
393.662
381.01
368.427
355.958
343.647
331.532
319.651
308.037
296.717
285.717
275.057
264.755
254.822
245.269
236.102
227.323
218.935
210.936
203.322
196.089
189.23
182.737
176.603
170.817
165.369
160.248
155.443
150.942
146.734
142.806
139.146
135.741
132.58
129.651
126.94
124.437
122.129
120.006
118.056
116.268
114.633
113.139
111.777
110.537
109.412
108.392
107.469
106.636
105.885
105.21
104.603
104.06
103.574
103.141
102.754
102.411
102.106
101.836
101.597
101.386
101.2
101.036
100.892
100.765
100.653
100.555
100.468
100.391
100.323
100.262
100.206
100.156
100.109
100.064
100.021
393.766
381.318
368.935
356.657
344.525
332.575
320.842
309.357
298.149
287.241
276.654
266.406
256.51
246.977
237.815
229.028
220.619
212.588
204.934
197.652
190.739
184.187
177.989
172.137
166.621
161.432
156.558
151.99
147.714
143.721
139.997
136.531
133.311
130.325
127.561
125.007
122.651
120.483
118.491
116.664
114.991
113.463
112.07
110.802
109.65
108.605
107.66
106.807
106.037
105.345
104.724
104.167
103.669
103.224
102.828
102.475
102.162
101.885
101.64
101.423
101.232
101.064
100.916
100.786
100.671
100.57
100.481
100.402
100.332
100.269
100.212
100.16
100.112
100.066
100.022
393.856
381.588
369.379
357.269
345.294
333.489
321.888
310.52
299.412
288.588
278.069
267.873
258.013
248.502
239.348
230.557
222.133
214.077
206.389
199.067
192.107
185.504
179.251
173.341
167.766
162.515
157.581
152.951
148.615
144.563
140.781
137.26
133.986
130.949
128.135
125.535
123.136
120.926
118.895
117.032
115.325
113.766
112.344
111.049
109.872
108.805
107.839
106.967
106.18
105.472
104.836
104.267
103.757
103.302
102.896
102.536
102.215
101.932
101.681
101.459
101.263
101.091
100.939
100.805
100.688
100.584
100.493
100.412
100.34
100.276
100.217
100.164
100.115
100.068
100.022
393.935
381.824
369.768
357.805
345.969
334.293
322.809
311.545
300.527
289.78
279.324
269.176
259.351
249.862
240.718
231.926
223.491
215.416
207.701
200.345
193.345
186.698
180.397
174.437
168.809
163.505
158.516
153.831
149.442
145.336
141.503
137.931
134.608
131.524
128.666
126.024
123.584
121.336
119.27
117.373
115.636
114.047
112.598
111.278
110.079
108.991
108.006
107.116
106.313
105.591
104.942
104.36
103.84
103.375
102.961
102.592
102.265
101.975
101.719
101.492
101.292
101.116
100.96
100.824
100.704
100.598
100.504
100.422
100.348
100.282
100.222
100.168
100.117
100.069
100.023
394.004
382.031
370.11
358.275
346.561
334.999
323.619
312.448
301.512
290.834
280.435
270.332
260.541
251.074
241.942
233.152
224.71
216.619
208.882
201.497
194.464
187.779
181.437
175.432
169.758
164.406
159.369
154.636
150.198
146.044
142.164
138.547
135.181
132.054
129.156
126.474
123.998
121.716
119.616
117.689
115.923
114.308
112.834
111.492
110.271
109.164
108.161
107.255
106.437
105.701
105.04
104.448
103.917
103.443
103.021
102.645
102.312
102.016
101.754
101.523
101.319
101.139
100.981
100.841
100.718
100.61
100.515
100.431
100.355
100.288
100.227
100.172
100.12
100.071
100.023
394.065
382.212
370.409
358.688
347.082
335.62
324.332
313.244
302.382
291.767
281.42
271.359
261.599
252.154
243.033
234.247
225.8
217.698
209.943
202.535
195.473
188.755
182.377
176.334
170.619
165.226
160.145
155.369
150.888
146.692
142.77
139.112
135.706
132.541
129.606
126.889
124.379
122.065
119.936
117.981
116.189
114.55
113.053
111.689
110.449
109.324
108.305
107.384
106.552
105.804
105.132
104.529
103.989
103.507
103.077
102.695
102.355
102.054
101.787
101.552
101.344
101.161
100.999
100.857
100.732
100.622
100.525
100.439
100.362
100.294
100.232
100.175
100.122
100.072
100.024
394.118
382.371
370.671
359.051
347.539
336.167
324.96
313.946
303.149
292.591
282.291
272.269
262.539
253.114
244.007
235.225
226.776
218.665
210.895
203.467
196.382
189.636
183.227
177.15
171.399
165.969
160.851
156.037
151.517
147.283
143.323
139.628
136.186
132.986
130.018
127.27
124.73
122.387
120.231
118.25
116.434
114.772
113.255
111.872
110.614
109.473
108.438
107.503
106.659
105.899
105.217
104.604
104.056
103.566
103.129
102.741
102.395
102.089
101.818
101.579
101.367
101.181
101.017
100.872
100.745
100.633
100.534
100.447
100.369
100.299
100.236
100.178
100.124
100.073
100.024
394.165
382.511
370.902
359.369
347.942
336.647
325.514
314.566
303.827
293.319
283.063
273.076
263.373
253.968
244.873
236.097
227.648
219.531
211.749
204.305
197.198
190.429
183.993
177.887
172.105
166.642
161.491
156.643
152.089
147.82
143.827
140.099
136.625
133.394
130.396
127.618
125.051
122.682
120.501
118.497
116.659
114.977
113.441
112.04
110.766
109.61
108.561
107.613
106.758
105.988
105.295
104.674
104.118
103.621
103.178
102.783
102.433
102.122
101.847
101.604
101.389
101.2
101.033
100.887
100.757
100.644
100.543
100.454
100.375
100.304
100.24
100.181
100.126
100.075
100.025
394.206
382.633
371.104
359.649
348.295
337.07
326.001
315.111
304.425
293.963
283.746
273.79
264.113
254.727
245.644
236.874
228.426
220.304
212.513
205.055
197.931
191.141
184.682
178.551
172.742
167.251
162.07
157.192
152.608
148.309
144.285
140.528
137.025
133.766
130.74
127.937
125.345
122.952
120.749
118.724
116.866
115.166
113.612
112.195
110.906
109.736
108.675
107.715
106.849
106.069
105.368
104.738
104.175
103.672
103.222
102.823
102.468
102.153
101.874
101.627
101.409
101.217
101.048
100.9
100.769
100.653
100.551
100.461
100.38
100.308
100.243
100.184
100.128
100.076
100.025
394.242
382.741
371.282
359.895
348.606
337.443
326.43
315.592
304.952
294.531
284.349
274.423
264.769
255.4
246.329
237.566
229.119
220.994
213.195
205.727
198.588
191.781
185.302
179.148
173.316
167.8
162.593
157.688
153.077
148.751
144.701
140.917
137.388
134.104
131.054
128.228
125.613
123.199
120.976
118.931
117.056
115.338
113.769
112.337
111.035
109.851
108.779
107.809
106.933
106.144
105.435
104.798
104.228
103.718
103.264
102.859
102.5
102.181
101.898
101.648
101.428
101.234
101.062
100.912
100.779
100.662
100.559
100.467
100.386
100.313
100.247
100.186
100.13
100.077
100.025
394.274
382.835
371.439
360.111
348.88
337.77
326.808
316.016
305.417
295.033
284.882
274.983
265.349
255.997
246.938
238.181
229.736
221.609
213.805
206.327
199.176
192.354
185.858
179.685
173.832
168.294
163.064
158.136
153.501
149.152
145.078
141.27
137.718
134.411
131.34
128.492
125.857
123.424
121.182
119.121
117.229
115.496
113.912
112.467
111.152
109.958
108.875
107.895
107.01
106.213
105.496
104.853
104.276
103.761
103.302
102.893
102.529
102.207
101.921
101.668
101.445
101.249
101.075
100.923
100.789
100.67
100.566
100.473
100.39
100.317
100.25
100.189
100.132
100.078
100.026
394.302
382.918
371.576
360.301
349.12
338.058
327.14
316.389
305.827
295.476
285.353
275.477
265.863
256.526
247.477
238.727
230.284
222.156
214.348
206.862
199.702
192.866
186.355
180.166
174.296
168.738
163.488
158.539
153.884
149.513
145.418
141.589
138.016
134.69
131.598
128.732
126.079
123.629
121.37
119.293
117.386
115.64
114.043
112.586
111.26
110.055
108.962
107.973
107.081
106.276
105.552
104.903
104.321
103.801
103.337
102.923
102.556
102.23
101.942
101.687
101.461
101.262
101.087
100.933
100.797
100.678
100.572
100.478
100.395
100.32
100.253
100.191
100.133
100.079
100.026
394.326
382.991
371.696
360.468
349.331
338.311
327.432
316.717
306.188
295.866
285.769
275.914
266.318
256.994
247.955
239.211
230.771
222.643
214.831
207.339
200.17
193.324
186.8
180.597
174.711
169.137
163.869
158.902
154.228
149.838
145.724
141.877
138.286
134.941
131.833
128.949
126.28
123.814
121.541
119.45
117.53
115.77
114.162
112.694
111.358
110.143
109.042
108.045
107.145
106.334
105.604
104.949
104.362
103.837
103.369
102.952
102.581
102.252
101.961
101.703
101.476
101.275
101.098
100.943
100.805
100.685
100.578
100.483
100.399
100.324
100.255
100.193
100.135
100.08
100.026
394.347
383.055
371.802
360.614
349.516
338.533
327.689
317.006
306.506
296.21
286.135
276.3
266.719
257.408
248.378
239.64
231.203
223.075
215.26
207.764
200.587
193.732
187.198
180.982
175.082
169.493
164.211
159.228
154.537
150.131
146
142.136
138.529
135.169
132.044
129.145
126.462
123.982
121.695
119.592
117.66
115.889
114.27
112.793
111.447
110.224
109.115
108.111
107.204
106.386
105.651
104.991
104.399
103.87
103.398
102.978
102.604
102.272
101.978
101.719
101.489
101.287
101.108
100.951
100.813
100.691
100.583
100.488
100.403
100.327
100.258
100.195
100.136
100.08
100.027
394.366
383.111
371.895
360.742
349.679
338.728
327.915
317.26
306.786
296.512
286.458
276.639
267.073
257.773
248.752
240.02
231.586
223.458
215.642
208.141
200.959
194.096
187.552
181.326
175.414
169.812
164.516
159.519
154.814
150.393
146.248
142.37
138.748
135.373
132.235
129.323
126.626
124.134
121.835
119.72
117.777
115.997
114.368
112.882
111.528
110.297
109.181
108.17
107.257
106.434
105.694
105.029
104.433
103.9
103.425
103.001
102.625
102.29
101.994
101.733
101.501
101.297
101.118
100.959
100.82
100.697
100.588
100.492
100.406
100.329
100.26
100.196
100.137
100.081
100.027
394.382
383.16
371.976
360.855
349.821
338.9
328.113
317.483
307.031
296.778
286.741
276.939
267.385
258.096
249.082
240.355
231.924
223.797
215.979
208.475
201.288
194.419
187.867
181.631
175.709
170.097
164.789
159.78
155.062
150.629
146.47
142.579
138.944
135.557
132.406
129.482
126.774
124.27
121.961
119.836
117.884
116.094
114.457
112.962
111.601
110.363
109.241
108.224
107.306
106.478
105.732
105.063
104.464
103.928
103.449
103.023
102.644
102.307
102.009
101.745
101.513
101.307
101.126
100.967
100.826
100.702
100.593
100.496
100.409
100.332
100.262
100.198
100.138
100.082
100.027
394.397
383.203
372.047
360.953
349.946
339.05
328.286
317.679
307.247
297.012
286.991
277.202
267.66
258.38
249.373
240.651
232.223
224.097
216.278
208.772
201.58
194.705
188.147
181.903
175.972
170.35
165.032
160.012
155.284
150.839
146.669
142.766
139.12
135.722
132.56
129.625
126.907
124.393
122.075
119.94
117.979
116.182
114.537
113.035
111.667
110.423
109.295
108.273
107.349
106.517
105.768
105.095
104.492
103.952
103.471
103.042
102.661
102.322
102.022
101.757
101.523
101.316
101.134
100.973
100.832
100.707
100.597
100.499
100.412
100.334
100.264
100.199
100.139
100.082
100.027
394.409
383.241
372.109
361.04
350.056
339.181
328.439
317.85
307.436
297.217
287.21
277.433
267.902
258.63
249.63
240.912
232.487
224.362
216.543
209.034
201.839
194.959
188.395
182.145
176.206
170.576
165.249
160.219
155.481
151.026
146.847
142.934
139.278
135.869
132.698
129.754
127.026
124.504
122.177
120.034
118.066
116.261
114.609
113.101
111.727
110.477
109.344
108.317
107.389
106.552
105.8
105.123
104.517
103.975
103.491
103.06
102.676
102.336
102.034
101.768
101.532
101.324
101.141
100.979
100.837
100.711
100.601
100.502
100.415
100.336
100.265
100.2
100.14
100.083
100.027
394.42
383.274
372.164
361.115
350.151
339.296
328.572
318
307.602
297.397
287.403
277.637
268.114
258.85
249.855
241.142
232.72
224.595
216.776
209.266
202.068
195.184
188.615
182.359
176.413
170.776
165.441
160.404
155.657
151.193
147.005
143.083
139.418
136.001
132.821
129.868
127.132
124.603
122.268
120.118
118.143
116.331
114.674
113.16
111.781
110.526
109.388
108.357
107.425
106.585
105.828
105.149
104.54
103.995
103.509
103.076
102.69
102.348
102.045
101.777
101.54
101.331
101.147
100.985
100.842
100.715
100.604
100.505
100.417
100.338
100.267
100.202
100.141
100.083
100.028
394.43
383.302
372.211
361.181
350.235
339.397
328.689
318.132
307.747
297.554
287.571
277.815
268.301
259.043
250.054
241.344
232.924
224.801
216.981
209.47
202.269
195.382
188.809
182.548
176.597
170.953
165.612
160.567
155.813
151.342
147.145
143.216
139.543
136.118
132.931
129.971
127.228
124.691
122.35
120.194
118.212
116.395
114.732
113.213
111.829
110.57
109.427
108.392
107.457
106.613
105.854
105.172
104.561
104.014
103.525
103.09
102.703
102.36
102.055
101.786
101.548
101.338
101.153
100.99
100.846
100.719
100.607
100.508
100.419
100.34
100.268
100.203
100.141
100.084
100.028
394.438
383.328
372.253
361.239
350.308
339.485
328.791
318.247
307.874
297.692
287.719
277.971
268.464
259.212
250.228
241.522
233.104
224.982
217.162
209.65
202.447
195.557
188.98
182.715
176.759
171.11
165.763
160.712
155.951
151.473
147.27
143.334
139.654
136.223
133.029
130.062
127.313
124.77
122.423
120.261
118.274
116.452
114.784
113.26
111.872
110.609
109.463
108.424
107.486
106.639
105.877
105.193
104.579
104.03
103.54
103.103
102.715
102.37
102.064
101.794
101.555
101.344
101.158
100.994
100.85
100.722
100.61
100.51
100.421
100.342
100.27
100.204
100.142
100.084
100.028
394.446
383.349
372.289
361.289
350.372
339.562
328.88
318.347
307.985
297.813
287.848
278.108
268.607
259.36
250.38
241.677
233.261
225.141
217.321
209.808
202.604
195.712
189.131
182.862
176.902
171.248
165.896
160.84
156.073
151.59
147.381
143.438
139.753
136.316
133.116
130.143
127.388
124.84
122.488
120.321
118.329
116.502
114.83
113.303
111.91
110.644
109.494
108.453
107.512
106.663
105.898
105.212
104.596
104.045
103.553
103.115
102.725
102.379
102.072
101.801
101.561
101.349
101.162
100.998
100.853
100.725
100.612
100.512
100.423
100.343
100.271
100.204
100.143
100.084
100.028
394.452
383.368
372.321
361.333
350.428
339.629
328.957
318.435
308.082
297.918
287.961
278.227
268.732
259.49
250.513
241.813
233.4
225.28
217.46
209.946
202.741
195.847
189.264
182.992
177.028
171.37
166.014
160.953
156.182
151.693
147.479
143.531
139.841
136.398
133.193
130.215
127.455
124.902
122.545
120.374
118.378
116.547
114.871
113.34
111.945
110.675
109.523
108.479
107.535
106.683
105.917
105.228
104.611
104.058
103.565
103.125
102.734
102.387
102.079
101.807
101.566
101.354
101.167
101.002
100.856
100.728
100.615
100.514
100.425
100.344
100.272
100.205
100.143
100.085
100.028
394.458
383.385
372.348
361.371
350.476
339.687
329.025
318.511
308.167
298.01
288.059
278.331
268.841
259.603
250.63
241.933
233.521
225.402
217.583
210.068
202.862
195.966
189.381
183.106
177.139
171.478
166.117
161.052
156.277
151.784
147.565
143.613
139.918
136.471
133.261
130.279
127.515
124.958
122.597
120.421
118.422
116.588
114.908
113.374
111.975
110.703
109.548
108.502
107.555
106.702
105.934
105.243
104.624
104.07
103.576
103.135
102.742
102.394
102.086
101.812
101.571
101.358
101.17
101.005
100.859
100.73
100.617
100.516
100.426
100.346
100.273
100.206
100.144
100.085
100.028
394.463
383.4
372.372
361.404
350.518
339.738
329.084
318.578
308.24
298.09
288.145
278.422
268.936
259.702
250.732
242.037
233.626
225.508
217.689
210.175
202.967
196.07
189.483
183.206
177.237
171.572
166.208
161.14
156.361
151.864
147.641
143.685
139.986
136.535
133.321
130.336
127.567
125.006
122.642
120.463
118.461
116.623
114.941
113.404
112.003
110.728
109.57
108.522
107.574
106.718
105.948
105.256
104.636
104.081
103.585
103.143
102.75
102.401
102.091
101.817
101.576
101.362
101.174
101.008
100.861
100.732
100.618
100.517
100.427
100.347
100.273
100.206
100.144
100.085
100.028
394.467
383.412
372.393
361.433
350.555
339.782
329.135
318.635
308.304
298.159
288.219
278.501
269.019
259.788
250.821
242.127
233.718
225.601
217.783
210.268
203.06
196.161
189.573
183.294
177.322
171.655
166.288
161.217
156.434
151.934
147.708
143.749
140.046
136.591
133.374
130.385
127.614
125.05
122.682
120.501
118.495
116.655
114.97
113.43
112.027
110.75
109.59
108.54
107.59
106.733
105.962
105.268
104.647
104.09
103.593
103.15
102.756
102.407
102.096
101.822
101.579
101.365
101.177
101.01
100.864
100.734
100.62
100.519
100.428
100.347
100.274
100.207
100.145
100.085
100.028
394.47
383.423
372.411
361.458
350.587
339.82
329.179
318.686
308.359
298.22
288.284
278.569
269.091
259.863
250.898
242.206
233.799
225.682
217.864
210.349
203.14
196.241
189.651
183.37
177.397
171.727
166.358
161.284
156.499
151.996
147.767
143.805
140.099
136.641
133.421
130.429
127.655
125.088
122.717
120.533
118.525
116.682
114.995
113.454
112.048
110.769
109.608
108.556
107.604
106.746
105.973
105.279
104.656
104.099
103.601
103.157
102.762
102.412
102.101
101.826
101.583
101.368
101.179
101.013
100.866
100.736
100.621
100.52
100.429
100.348
100.275
100.208
100.145
100.086
100.028
394.473
383.432
372.427
361.479
350.614
339.853
329.217
318.729
308.407
298.272
288.34
278.629
269.154
259.928
250.965
242.275
233.868
225.753
217.935
210.42
203.211
196.31
189.719
183.437
177.462
171.791
166.42
161.343
156.556
152.05
147.819
143.853
140.145
136.685
133.462
130.468
127.691
125.121
122.748