/*--------------------------------*- C++ -*----------------------------------*\
  =========                 |
  \\      /  F ield         | OpenFOAM: The Open Source CFD Toolbox
   \\    /   O peration     | Website:  https://openfoam.org
    \\  /    A nd           | Version:  10
     \\/     M anipulation  |
\*---------------------------------------------------------------------------*/
FoamFile
{
    format      ascii;
    class       volScalarField;
    location    "485";
    object      gradTz;
}
// * * * * * * * * * * * * * * * * * * * * * * * * * * * * * * * * * * * * * //

dimensions      [0 -1 0 1 0 0 0];

internalField   nonuniform List<scalar> 
11250
(
-14340.3
-4136.01
-1516.09
-713.063
-409.031
-268.206
-191.711
-145.138
-114.392
-92.8439
-77.027
-64.9768
-55.5105
-47.8813
-41.5994
-36.3333
-31.8528
-27.9941
-24.6381
-21.697
-19.1043
-16.809
-14.771
-12.9585
-11.3453
-9.90972
-8.63329
-7.50002
-6.49585
-5.6082
-4.82573
-4.13809
-3.53578
-3.01008
-2.55296
-2.15699
-1.81537
-1.52185
-1.2707
-1.05673
-0.87521
-0.721902
-0.592991
-0.485075
-0.395141
-0.32053
-0.258911
-0.208252
-0.166795
-0.133022
-0.105634
-0.0835267
-0.0657631
-0.0515551
-0.040243
-0.031278
-0.0242055
-0.0186515
-0.01431
-0.0109318
-0.00831523
-0.00629781
-0.00474953
-0.00356679
-0.00266756
-0.00198721
-0.00147513
-0.00109193
-0.000807153
-0.000597472
-0.000445191
-0.000337109
-0.000263634
-0.000218113
-0.000196359
-8225.22
-4823.47
-2731.24
-1640.05
-1063.76
-740.166
-545.099
-419.49
-333.892
-272.729
-227.257
-192.303
-164.665
-142.28
-123.779
-108.223
-94.9567
-83.5095
-73.5387
-64.7894
-57.0687
-50.2279
-44.1499
-38.7411
-33.9248
-29.6371
-25.8234
-22.4364
-19.4346
-16.7805
-14.4405
-12.3837
-10.582
-9.00921
-7.64145
-6.45658
-5.43425
-4.55578
-3.80408
-3.16362
-2.62028
-2.16135
-1.77544
-1.45237
-1.18313
-0.959746
-0.775257
-0.623582
-0.499451
-0.398327
-0.316321
-0.250124
-0.196932
-0.154387
-0.120513
-0.0936673
-0.0724881
-0.0558562
-0.042855
-0.0327384
-0.0249025
-0.0188609
-0.0142241
-0.0106821
-0.00798904
-0.0059515
-0.0044179
-0.00327025
-0.00241739
-0.00178941
-0.00133334
-0.00100964
-0.00078959
-0.000653256
-0.000588107
-5511.38
-4200.98
-2944.93
-2051.74
-1465.38
-1083.24
-828.701
-653.535
-528.704
-436.708
-366.795
-312.183
-268.476
-232.748
-203.003
-177.851
-156.301
-137.639
-121.335
-106.993
-94.3126
-83.0586
-73.0459
-64.1256
-56.1749
-49.0911
-42.7863
-37.1838
-32.2159
-27.8217
-23.9461
-20.5386
-17.5527
-14.9457
-12.6781
-10.7133
-9.01773
-7.56058
-6.31356
-5.25094
-4.34938
-3.58782
-2.94736
-2.41116
-1.96425
-1.59346
-1.2872
-1.0354
-0.829321
-0.661428
-0.525271
-0.415357
-0.327035
-0.256389
-0.200139
-0.155559
-0.120387
-0.0927671
-0.0711757
-0.0543744
-0.0413606
-0.0313265
-0.0236255
-0.0177426
-0.0132697
-0.00988551
-0.00733826
-0.00543205
-0.00401544
-0.00297236
-0.00221481
-0.00167714
-0.00131162
-0.00108516
-0.00097694
-4107.21
-3523.38
-2795.03
-2155.91
-1662.13
-1298.12
-1032.38
-836.756
-690.256
-578.248
-490.745
-420.941
-364.16
-317.151
-277.618
-243.919
-214.859
-189.56
-167.363
-147.769
-130.395
-114.938
-101.159
-88.8634
-77.8891
-68.0999
-59.3786
-51.6224
-44.7398
-38.6484
-33.2729
-28.5445
-24.3996
-20.7794
-17.6295
-14.8995
-12.5431
-10.5175
-8.78375
-7.3061
-6.05222
-4.99291
-4.10195
-3.35593
-2.73409
-2.2181
-1.79189
-1.44144
-1.1546
-0.920897
-0.731358
-0.578343
-0.45538
-0.357021
-0.278703
-0.216629
-0.167655
-0.129193
-0.0991263
-0.0757291
-0.0576055
-0.0436313
-0.0329061
-0.0247128
-0.0184831
-0.0137695
-0.0102216
-0.00756655
-0.00559339
-0.00414048
-0.00308526
-0.00233631
-0.00182715
-0.0015117
-0.00136096
-3285.83
-2989.28
-2554.89
-2113.79
-1728.22
-1413.87
-1165.19
-970.172
-816.725
-694.785
-596.595
-516.372
-449.867
-393.966
-346.378
-305.409
-269.796
-238.587
-211.058
-186.65
-164.928
-145.544
-128.221
-112.73
-98.8792
-86.5058
-75.4682
-65.6414
-56.9134
-49.1826
-42.3558
-36.3472
-31.0773
-26.4725
-22.4643
-18.9892
-15.9887
-13.4088
-11.2
-9.31709
-7.719
-6.36865
-5.23271
-4.28144
-3.48841
-2.83029
-2.28661
-1.83953
-1.47356
-1.17537
-0.933505
-0.738235
-0.581306
-0.455768
-0.355803
-0.276568
-0.214051
-0.164952
-0.126567
-0.096696
-0.0735568
-0.0557147
-0.0420204
-0.0315584
-0.0236036
-0.0175847
-0.013054
-0.00966344
-0.00714361
-0.00528813
-0.00394051
-0.00298401
-0.00233374
-0.00193086
-0.00173834
-2759.67
-2591.7
-2320.18
-2014.91
-1721.95
-1462.87
-1243.36
-1061.15
-910.932
-786.939
-683.966
-597.698
-524.707
-462.323
-408.489
-361.622
-320.506
-284.203
-251.979
-223.261
-197.593
-174.607
-154.003
-135.531
-118.981
-104.17
-90.9377
-79.1418
-68.6532
-59.3541
-51.1356
-43.897
-37.5443
-31.9903
-27.1535
-22.9583
-19.3347
-16.218
-13.5488
-11.2728
-9.3406
-7.70759
-6.33362
-5.18279
-4.22325
-3.42682
-2.76881
-2.22763
-1.78459
-1.42356
-1.1307
-0.894238
-0.704188
-0.552143
-0.431063
-0.335084
-0.259352
-0.199871
-0.153366
-0.117175
-0.0891385
-0.0675192
-0.0509251
-0.0382473
-0.0286073
-0.021313
-0.0158222
-0.0117129
-0.00865891
-0.00641001
-0.00477662
-0.00361724
-0.00282905
-0.00234071
-0.00210735
-2399.87
-2296.09
-2117.67
-1902.24
-1680.39
-1471
-1283.06
-1119.07
-977.998
-857.303
-754.01
-665.279
-588.621
-521.957
-463.596
-412.178
-366.621
-326.062
-289.815
-257.325
-228.148
-201.914
-178.321
-157.11
-138.059
-120.976
-105.688
-92.0386
-79.887
-69.1016
-59.5605
-51.1501
-43.7638
-37.3019
-31.6714
-26.7854
-22.5632
-18.9302
-15.8178
-13.1631
-10.9087
-9.00298
-7.39914
-6.05551
-4.93499
-4.0048
-3.23614
-2.60388
-2.0862
-1.66429
-1.32201
-1.04562
-0.823453
-0.645699
-0.504134
-0.391908
-0.30335
-0.23379
-0.179402
-0.137073
-0.10428
-0.0789916
-0.0595803
-0.0447495
-0.0334718
-0.024938
-0.0185139
-0.013706
-0.0101326
-0.00750118
-0.00558989
-0.00423325
-0.00331092
-0.00273947
-0.00246639
-2141.94
-2073.25
-1950.35
-1794.27
-1624.71
-1456.16
-1297.44
-1152.83
-1023.62
-909.361
-808.767
-720.236
-642.165
-573.085
-511.719
-456.986
-407.989
-363.991
-324.384
-288.667
-256.427
-227.316
-201.04
-177.344
-156.007
-136.831
-119.637
-104.262
-90.5548
-78.3738
-67.5869
-58.0694
-49.7042
-42.3808
-35.9956
-30.4516
-25.6585
-21.5325
-17.9964
-14.9791
-12.4161
-10.2488
-8.42439
-6.89561
-5.62041
-4.56161
-3.68652
-2.96659
-2.37705
-1.8965
-1.5066
-1.19172
-0.938584
-0.736032
-0.574702
-0.446796
-0.345857
-0.266565
-0.204564
-0.156306
-0.118918
-0.0900839
-0.0679498
-0.0510377
-0.0381769
-0.0284446
-0.021118
-0.0156344
-0.0115586
-0.00855714
-0.00637701
-0.0048295
-0.00377738
-0.0031255
-0.00281399
-1950.56
-1902.48
-1814.15
-1697.79
-1566.14
-1429.75
-1296.11
-1169.78
-1053.06
-946.728
-850.629
-764.106
-686.291
-616.267
-553.161
-496.184
-444.648
-397.962
-355.624
-317.205
-282.343
-250.723
-222.073
-196.154
-172.751
-151.668
-132.727
-115.76
-100.61
-87.1303
-75.1795
-64.6248
-55.3397
-47.2049
-40.1074
-33.9413
-28.6075
-24.0138
-20.0752
-16.7132
-13.8564
-11.4399
-9.40514
-7.69966
-6.27673
-5.095
-4.11813
-3.31432
-2.65598
-2.11927
-1.68374
-1.33196
-1.04913
-0.822787
-0.642491
-0.499535
-0.386707
-0.298069
-0.228754
-0.1748
-0.132995
-0.100753
-0.0760014
-0.0570881
-0.0427046
-0.0318194
-0.0236245
-0.0174907
-0.0129315
-0.00957389
-0.007135
-0.00540374
-0.00422668
-0.00349737
-0.00314885
-1804.82
-1769.59
-1703.63
-1614.4
-1510.21
-1398.66
-1285.7
-1175.53
-1070.74
-972.709
-881.984
-798.565
-722.147
-652.27
-588.42
-530.083
-476.78
-428.072
-383.574
-342.941
-305.872
-272.098
-241.378
-213.494
-188.244
-165.444
-144.916
-126.494
-110.02
-95.3412
-82.3123
-70.7932
-60.6506
-51.7572
-43.9923
-37.242
-31.3996
-26.3653
-22.0469
-18.3592
-15.2245
-12.5721
-10.3379
-8.46479
-6.9016
-5.60309
-4.52945
-3.64584
-2.922
-2.33181
-1.8528
-1.46584
-1.15469
-0.905661
-0.707265
-0.549939
-0.425759
-0.328193
-0.25189
-0.192491
-0.146464
-0.110963
-0.0837076
-0.0628798
-0.0470393
-0.0350509
-0.0260249
-0.0192687
-0.0142466
-0.010548
-0.00786128
-0.00595404
-0.00465728
-0.0038538
-0.00346983
-1691.65
-1664.8
-1613.84
-1543.49
-1459.34
-1366.81
-1270.56
-1174.16
-1080.14
-990.114
-905.008
-825.248
-750.933
-681.958
-618.107
-559.108
-504.671
-454.51
-408.352
-365.945
-327.052
-291.455
-258.952
-229.351
-202.471
-178.137
-156.182
-136.444
-118.763
-102.988
-88.9678
-76.5592
-65.6229
-56.0255
-47.6396
-40.3446
-34.0269
-28.5803
-23.9058
-19.9124
-16.5165
-13.6419
-11.2199
-9.18875
-7.49318
-6.08436
-4.91924
-3.96016
-3.17434
-2.53348
-2.01328
-1.59298
-1.25497
-0.984408
-0.76883
-0.597861
-0.462897
-0.356847
-0.273902
-0.209327
-0.159284
-0.120683
-0.0910454
-0.0683956
-0.0511683
-0.0381295
-0.0283121
-0.0209631
-0.0155001
-0.0114766
-0.0085537
-0.00647875
-0.00506793
-0.00419375
-0.00377599
-1602.43
-1581.25
-1540.64
-1483.72
-1414.31
-1336.35
-1253.43
-1168.52
-1083.9
-1001.21
-921.568
-845.64
-773.802
-706.209
-642.88
-583.742
-528.675
-477.527
-430.137
-386.339
-345.964
-308.848
-274.829
-243.745
-215.438
-189.749
-166.523
-145.602
-126.832
-110.061
-95.137
-81.914
-70.2485
-60.0022
-51.0425
-43.243
-36.4843
-30.6541
-25.648
-21.3694
-17.7294
-14.6471
-12.0493
-9.86988
-8.05011
-6.5377
-5.28661
-4.25653
-3.41238
-2.72382
-2.1648
-1.71307
-1.34972
-1.05884
-0.827038
-0.643183
-0.49803
-0.383962
-0.294737
-0.225265
-0.171424
-0.12989
-0.0979969
-0.073622
-0.0550814
-0.0410476
-0.0304804
-0.0225697
-0.0166888
-0.0123573
-0.00921055
-0.00697659
-0.0054576
-0.00451637
-0.00406656
-1531.25
-1514.02
-1480.75
-1433.54
-1375.11
-1308.34
-1236
-1160.53
-1083.94
-1007.78
-933.206
-861.033
-791.804
-725.859
-663.392
-604.492
-549.177
-497.417
-449.148
-404.285
-362.727
-324.362
-289.068
-256.717
-227.174
-200.299
-175.949
-153.975
-134.229
-116.561
-100.819
-86.8553
-74.5245
-63.6844
-54.1981
-45.9344
-38.7689
-32.5843
-27.2713
-22.7282
-18.8616
-15.5862
-12.8246
-10.5071
-8.5715
-6.96237
-5.63094
-4.53447
-3.63572
-2.90249
-2.30709
-1.82588
-1.43877
-1.12881
-0.881783
-0.685821
-0.531093
-0.409486
-0.314355
-0.240277
-0.182861
-0.138565
-0.104549
-0.078549
-0.058771
-0.0437996
-0.0325257
-0.0240854
-0.0178105
-0.0131885
-0.00983056
-0.00744658
-0.00582553
-0.00482103
-0.00434099
-1473.94
-1459.55
-1431.58
-1391.52
-1341.34
-1283.19
-1219.24
-1151.48
-1081.65
-1011.16
-941.156
-872.508
-805.858
-741.669
-680.263
-621.854
-566.572
-514.487
-465.624
-419.969
-377.484
-338.105
-301.752
-268.328
-237.725
-209.82
-184.485
-161.581
-140.967
-122.496
-106.019
-91.3868
-78.4532
-67.0732
-57.1067
-48.4186
-40.8803
-34.3704
-28.775
-23.9881
-19.9124
-16.4585
-13.5454
-11.1
-9.05692
-7.35799
-5.95192
-4.79371
-3.84414
-3.06931
-2.44001
-1.93131
-1.52202
-1.19426
-0.933001
-0.725727
-0.562046
-0.43339
-0.332732
-0.254344
-0.193581
-0.146698
-0.110692
-0.0831702
-0.0622323
-0.0463818
-0.0344452
-0.0255082
-0.0188636
-0.013969
-0.0104129
-0.00788808
-0.00617122
-0.00510732
-0.00459888
-1427.47
-1415.14
-1391.08
-1356.36
-1312.44
-1260.98
-1203.69
-1142.19
-1077.99
-1012.36
-946.387
-880.951
-816.746
-754.312
-694.061
-636.298
-581.244
-529.051
-479.816
-433.592
-390.392
-350.202
-312.979
-278.656
-247.15
-218.358
-192.166
-168.447
-147.067
-127.882
-110.748
-95.5173
-82.041
-70.1735
-59.7718
-50.6982
-42.8205
-36.0136
-30.1599
-25.1499
-20.8823
-17.2644
-14.2118
-11.6486
-9.50638
-7.72456
-6.24951
-5.03419
-4.0376
-3.22422
-2.5635
-2.02931
-1.59944
-1.25514
-0.980669
-0.762881
-0.590876
-0.45566
-0.349859
-0.267457
-0.203577
-0.154284
-0.116424
-0.0874826
-0.0654632
-0.0487927
-0.0362376
-0.026837
-0.0198474
-0.0146983
-0.0109571
-0.00830076
-0.0064944
-0.00537501
-0.00484004
-1389.57
-1378.78
-1357.64
-1326.96
-1287.85
-1241.59
-1189.58
-1133.16
-1073.62
-1012.11
-949.645
-887.075
-825.121
-764.369
-705.289
-648.255
-593.555
-541.408
-491.973
-445.355
-401.618
-360.788
-322.856
-287.787
-255.518
-225.968
-199.037
-174.608
-152.555
-132.741
-115.025
-99.2602
-85.2985
-72.9931
-62.1997
-52.778
-44.5931
-37.5168
-31.4283
-26.215
-21.7723
-18.0046
-14.8246
-12.1534
-9.92028
-8.06236
-6.52393
-5.25609
-4.21621
-3.36733
-2.67764
-2.11993
-1.67106
-1.31149
-1.0248
-0.797294
-0.617588
-0.476302
-0.365739
-0.279619
-0.21285
-0.161324
-0.121745
-0.0914867
-0.0684637
-0.0510322
-0.0379031
-0.028072
-0.0207618
-0.0153763
-0.0114631
-0.00868459
-0.00679504
-0.00562408
-0.00506444
-1358.54
-1348.91
-1329.98
-1302.38
-1266.98
-1224.81
-1177
-1124.7
-1069
-1010.96
-951.494
-891.442
-831.517
-772.329
-714.386
-658.108
-603.838
-551.843
-502.333
-455.46
-411.328
-369.999
-331.498
-295.813
-262.906
-232.712
-205.146
-180.103
-157.464
-137.099
-118.87
-102.632
-88.2389
-75.543
-64.399
-54.6648
-46.2034
-38.8842
-32.5836
-27.1861
-22.5848
-18.6809
-15.3849
-12.6153
-10.2994
-8.372
-6.77564
-5.45976
-4.38024
-3.49883
-2.78258
-2.20329
-1.73697
-1.36337
-1.06546
-0.829005
-0.642212
-0.495337
-0.380388
-0.290842
-0.22141
-0.167824
-0.126659
-0.0951858
-0.0712364
-0.0531021
-0.0394428
-0.029214
-0.0216076
-0.0160036
-0.0119314
-0.00903984
-0.00707336
-0.00585468
-0.00527223
-1333.04
-1324.29
-1307.06
-1281.84
-1249.33
-1210.38
-1165.92
-1116.95
-1064.41
-1009.26
-952.359
-894.492
-836.367
-778.601
-721.727
-666.197
-612.39
-560.615
-511.121
-464.097
-419.683
-377.973
-339.017
-302.829
-269.391
-238.655
-210.548
-184.977
-161.831
-140.986
-122.307
-105.653
-90.8782
-77.836
-66.38
-56.367
-47.6583
-40.1212
-33.63
-28.0668
-23.3222
-19.2955
-15.8945
-13.0359
-10.6448
-8.65429
-7.00529
-5.6457
-4.53009
-3.61903
-2.87855
-2.27956
-1.79732
-1.4109
-1.10271
-0.858075
-0.664794
-0.512801
-0.393832
-0.301146
-0.229271
-0.173795
-0.131175
-0.0985859
-0.0737857
-0.0550058
-0.0408591
-0.0302647
-0.022386
-0.016581
-0.0123626
-0.009367
-0.00732972
-0.00606714
-0.0054637
-1312.05
-1303.98
-1288.05
-1264.68
-1234.43
-1198.03
-1156.26
-1109.97
-1060.04
-1007.3
-952.555
-896.567
-840.017
-783.524
-727.632
-672.814
-619.477
-567.961
-518.543
-471.447
-426.839
-384.841
-345.527
-308.932
-275.055
-243.864
-215.299
-189.277
-165.694
-144.433
-125.362
-108.344
-93.2343
-79.8866
-68.1546
-57.8942
-48.9655
-41.2341
-34.5726
-28.8611
-23.9881
-19.8509
-16.3555
-13.4167
-10.9577
-8.91031
-7.21371
-5.81457
-4.66627
-3.72833
-2.96587
-2.349
-1.85228
-1.4542
-1.13667
-0.884589
-0.685399
-0.528741
-0.406108
-0.310557
-0.236455
-0.179253
-0.135304
-0.101696
-0.0761179
-0.0567478
-0.0421556
-0.0312268
-0.0230988
-0.0171099
-0.0127576
-0.00966682
-0.00756472
-0.00626192
-0.00563925
-1294.73
-1287.19
-1272.28
-1250.35
-1221.89
-1187.5
-1147.89
-1103.79
-1055.98
-1005.23
-952.312
-897.926
-842.742
-787.372
-732.365
-678.21
-625.33
-574.088
-524.787
-477.674
-432.941
-390.729
-351.135
-314.212
-279.976
-248.407
-219.456
-193.05
-169.094
-147.473
-128.064
-110.729
-95.3262
-81.7107
-69.7358
-59.2572
-50.1338
-42.2302
-35.4172
-29.5736
-24.5861
-20.3502
-16.7703
-13.7596
-11.2399
-9.14128
-7.40188
-5.96714
-4.78939
-3.82721
-3.04491
-2.41189
-1.90208
-1.49346
-1.16748
-0.908648
-0.704105
-0.543218
-0.417261
-0.319111
-0.242985
-0.184217
-0.13906
-0.104526
-0.0782409
-0.058334
-0.0433363
-0.0321032
-0.0237484
-0.017592
-0.0131177
-0.00994023
-0.00777906
-0.00643962
-0.00579943
-1280.44
-1273.3
-1259.2
-1238.4
-1211.35
-1178.58
-1140.68
-1098.35
-1052.28
-1003.2
-951.797
-898.768
-844.757
-790.368
-736.149
-682.597
-630.148
-579.182
-530.02
-482.929
-438.121
-395.755
-355.945
-318.761
-284.231
-252.348
-223.074
-196.344
-172.069
-150.142
-130.44
-112.831
-97.1738
-83.3246
-71.1373
-60.4671
-51.1724
-43.1168
-36.1701
-30.2095
-25.1203
-20.7968
-17.1417
-14.0669
-11.4929
-9.34857
-7.57088
-6.10427
-4.90012
-3.9162
-3.11609
-2.46855
-1.94698
-1.52887
-1.19527
-0.930369
-0.721
-0.556299
-0.427343
-0.326846
-0.248893
-0.188709
-0.14246
-0.107088
-0.0801638
-0.0597711
-0.0444065
-0.0328977
-0.0243374
-0.0180292
-0.0134445
-0.0101883
-0.00797362
-0.00660095
-0.00594487
-1268.63
-1261.82
-1248.34
-1228.45
-1202.52
-1171.02
-1134.52
-1093.62
-1048.98
-1001.26
-951.126
-899.242
-846.233
-792.692
-739.166
-686.154
-634.102
-583.403
-534.391
-487.348
-442.501
-400.026
-360.052
-322.66
-287.892
-255.751
-226.209
-199.206
-174.661
-152.472
-132.52
-114.674
-98.7972
-84.7452
-72.3729
-61.5355
-52.0909
-43.902
-36.8377
-30.7739
-25.5951
-21.1941
-17.4724
-14.3408
-11.7186
-9.53365
-7.7219
-6.22689
-4.9992
-3.99588
-3.17986
-2.51935
-1.98725
-1.56065
-1.22023
-0.949881
-0.736183
-0.56806
-0.436411
-0.333806
-0.254211
-0.192754
-0.145523
-0.109397
-0.081897
-0.0610668
-0.0453715
-0.0336144
-0.0248689
-0.0184239
-0.0137394
-0.0104124
-0.00814936
-0.0067467
-0.00607628
-1258.88
-1252.32
-1239.34
-1220.16
-1195.12
-1164.66
-1129.28
-1089.54
-1046.06
-999.46
-950.384
-899.461
-847.301
-794.488
-741.564
-689.031
-637.339
-586.89
-538.029
-491.049
-446.19
-403.642
-363.543
-325.989
-291.029
-258.676
-228.911
-201.68
-176.908
-154.496
-134.33
-116.283
-100.216
-85.9893
-73.4568
-62.4741
-52.8991
-44.5938
-37.4265
-31.2725
-26.0149
-21.5457
-17.7654
-14.5837
-11.9189
-9.69805
-7.85615
-6.33598
-5.08741
-4.06686
-3.23671
-2.56466
-2.02319
-1.58902
-1.24253
-0.967321
-0.74976
-0.578581
-0.444527
-0.340038
-0.258974
-0.196378
-0.148268
-0.111467
-0.0834513
-0.0622292
-0.0462375
-0.0342577
-0.0253461
-0.0187783
-0.0140044
-0.0106137
-0.00830732
-0.00687774
-0.00619444
-1250.83
-1244.48
-1231.89
-1213.27
-1188.95
-1159.31
-1124.83
-1086.03
-1043.5
-997.829
-949.627
-899.506
-848.063
-795.87
-743.466
-691.352
-639.982
-589.762
-541.047
-494.138
-449.287
-406.691
-366.5
-328.817
-293.704
-261.179
-231.229
-203.809
-178.846
-156.246
-135.899
-117.679
-101.451
-87.0734
-74.4028
-63.2946
-53.6065
-45.2002
-37.9434
-31.7106
-26.3842
-21.8554
-18.0237
-14.798
-12.0958
-9.84335
-7.9749
-6.43254
-5.16554
-4.12978
-3.28713
-2.60486
-2.05511
-1.61423
-1.26235
-0.98283
-0.76184
-0.587946
-0.451754
-0.345589
-0.263219
-0.199608
-0.150716
-0.113314
-0.0848385
-0.0632668
-0.0470109
-0.0348323
-0.0257725
-0.0190951
-0.0142413
-0.0107938
-0.00844861
-0.00699498
-0.00630017
-1244.18
-1238
-1225.72
-1207.56
-1183.8
-1154.83
-1121.07
-1083.04
-1041.28
-996.37
-948.89
-899.438
-848.596
-796.929
-744.971
-693.221
-642.134
-592.122
-543.543
-496.709
-451.876
-409.251
-368.993
-331.212
-295.976
-263.311
-233.21
-205.632
-180.51
-157.753
-137.252
-118.885
-102.519
-88.0134
-75.2244
-64.0083
-54.2226
-45.7291
-38.3947
-32.0936
-26.7075
-22.1267
-18.2502
-14.9861
-12.2513
-9.97113
-8.0794
-6.51758
-5.23441
-4.18527
-3.33162
-2.64037
-2.0833
-1.63651
-1.27988
-0.996555
-0.772535
-0.596241
-0.458158
-0.35051
-0.266983
-0.202475
-0.152889
-0.114953
-0.0860704
-0.0641886
-0.0476981
-0.0353431
-0.0261516
-0.0193768
-0.0144521
-0.010954
-0.00857438
-0.00709937
-0.00639432
-1238.71
-1232.65
-1220.63
-1202.83
-1179.53
-1151.08
-1117.91
-1080.5
-1039.38
-995.082
-948.198
-899.3
-848.962
-797.738
-746.159
-694.721
-643.882
-594.054
-545.602
-498.84
-454.033
-411.394
-371.087
-333.23
-297.897
-265.119
-234.894
-207.186
-181.931
-159.042
-138.413
-119.923
-103.44
-88.8244
-75.9345
-64.626
-54.7567
-46.188
-38.7869
-32.4268
-26.989
-22.3632
-18.4479
-15.1505
-12.3872
-10.0829
-8.17091
-6.5921
-5.2948
-4.23396
-3.37069
-2.67156
-2.10809
-1.65612
-1.29531
-1.00864
-0.781957
-0.603552
-0.463804
-0.354851
-0.270305
-0.205005
-0.154807
-0.116402
-0.0871591
-0.0650035
-0.0483058
-0.035795
-0.026487
-0.0196262
-0.0146387
-0.0110959
-0.0086858
-0.00719186
-0.00647776
-1234.21
-1228.25
-1216.43
-1198.91
-1175.98
-1147.96
-1115.27
-1078.36
-1037.74
-993.958
-947.563
-899.125
-849.205
-798.353
-747.094
-695.924
-645.299
-595.633
-547.294
-500.602
-455.825
-413.181
-372.84
-334.925
-299.515
-266.646
-236.321
-208.506
-183.141
-160.142
-139.405
-120.811
-104.229
-89.5209
-76.5452
-65.158
-55.2173
-46.5844
-39.126
-32.7152
-27.2329
-22.5684
-18.6195
-15.2933
-12.5054
-10.1803
-8.25064
-6.65709
-5.34749
-4.27648
-3.40483
-2.69884
-2.12978
-1.67328
-1.30882
-1.01923
-0.790216
-0.609964
-0.468759
-0.358662
-0.273222
-0.207228
-0.156494
-0.117675
-0.0881165
-0.0657204
-0.0488405
-0.0361927
-0.0267824
-0.0198458
-0.0148031
-0.011221
-0.00878402
-0.00727342
-0.00655134
-1230.51
-1224.63
-1212.97
-1195.69
-1173.05
-1145.37
-1113.06
-1076.55
-1036.36
-992.985
-946.992
-898.932
-849.359
-798.818
-747.829
-696.885
-646.444
-596.919
-548.682
-502.054
-457.307
-414.665
-374.301
-336.343
-300.872
-267.931
-237.524
-209.621
-184.166
-161.076
-140.249
-121.567
-104.902
-90.1162
-77.0679
-65.6141
-55.6127
-46.9251
-39.4178
-32.9637
-27.4433
-22.7455
-18.7679
-15.4168
-12.6077
-10.2646
-8.31978
-6.71348
-5.39325
-4.31343
-3.43451
-2.72257
-2.14865
-1.68822
-1.32059
-1.02846
-0.797421
-0.61556
-0.473085
-0.36199
-0.275771
-0.209171
-0.157968
-0.118789
-0.0889544
-0.066348
-0.0493089
-0.0365411
-0.0270412
-0.0200384
-0.0149473
-0.0113306
-0.00887019
-0.00734499
-0.00661592
-1227.48
-1221.66
-1210.13
-1193.03
-1170.62
-1143.23
-1111.22
-1075.04
-1035.18
-992.15
-946.485
-898.736
-849.451
-799.168
-748.405
-697.653
-647.367
-597.965
-549.816
-503.246
-458.53
-415.894
-375.515
-337.524
-302.006
-269.007
-238.533
-210.56
-185.03
-161.864
-140.963
-122.209
-105.474
-90.6227
-77.5133
-66.0032
-55.9505
-47.2165
-39.6677
-33.1767
-27.6239
-22.8977
-18.8954
-15.5232
-12.6959
-10.3373
-8.37943
-6.76217
-5.43279
-4.34537
-3.46019
-2.74311
-2.16501
-1.70117
-1.33081
-1.03647
-0.803676
-0.62042
-0.476844
-0.364884
-0.277988
-0.210862
-0.159252
-0.119759
-0.0896842
-0.0668948
-0.049717
-0.0368449
-0.0272669
-0.0202063
-0.0150731
-0.0114264
-0.00894543
-0.00740749
-0.00667233
-1224.99
-1219.23
-1207.8
-1190.85
-1168.63
-1141.45
-1109.7
-1073.78
-1034.2
-991.439
-946.042
-898.548
-849.499
-799.43
-748.855
-698.263
-648.11
-598.812
-550.741
-504.223
-459.536
-416.908
-376.52
-338.504
-302.95
-269.904
-239.378
-211.346
-185.755
-162.528
-141.564
-122.75
-105.958
-91.0516
-77.891
-66.3336
-56.2377
-47.4646
-39.8807
-33.3585
-27.7781
-23.0278
-19.0046
-15.6142
-12.7715
-10.3997
-8.43066
-6.80401
-5.46679
-4.37286
-3.4823
-2.76081
-2.1791
-1.71235
-1.33962
-1.04339
-0.809079
-0.624621
-0.480094
-0.367386
-0.279906
-0.212325
-0.160363
-0.120599
-0.0903167
-0.0673689
-0.050071
-0.0371084
-0.0274628
-0.0203521
-0.0151823
-0.0115095
-0.00901081
-0.00746182
-0.00672137
-1222.97
-1217.25
-1205.89
-1189.06
-1166.99
-1140
-1108.44
-1072.74
-1033.37
-990.837
-945.658
-898.372
-849.518
-799.625
-749.206
-698.748
-648.706
-599.496
-551.492
-505.02
-460.36
-417.742
-377.348
-339.314
-303.732
-270.65
-240.081
-212.002
-186.362
-163.084
-142.069
-123.205
-106.365
-91.4131
-78.2099
-66.6129
-56.4807
-47.6748
-40.0613
-33.5128
-27.9092
-23.1385
-19.0976
-15.6919
-12.836
-10.453
-8.47443
-6.83979
-5.49588
-4.3964
-3.50125
-2.77599
-2.1912
-1.72194
-1.34719
-1.04933
-0.813724
-0.628234
-0.482891
-0.369541
-0.281559
-0.213587
-0.161321
-0.121324
-0.0908622
-0.0677779
-0.0503765
-0.0373359
-0.027632
-0.0204781
-0.0152767
-0.0115814
-0.00906735
-0.00750881
-0.00676379
-1221.31
-1215.63
-1204.34
-1187.6
-1165.66
-1138.8
-1107.4
-1071.87
-1032.69
-990.33
-945.329
-898.213
-849.517
-799.769
-749.478
-699.132
-649.183
-600.048
-552.101
-505.669
-461.033
-418.425
-378.029
-339.982
-304.378
-271.268
-240.664
-212.548
-186.867
-163.547
-142.491
-123.586
-106.706
-91.7165
-78.4778
-66.8479
-56.6855
-47.8521
-40.2139
-33.6433
-28.0201
-23.2323
-19.1764
-15.7577
-12.8907
-10.4982
-8.51165
-6.87024
-5.52067
-4.41646
-3.51741
-2.78894
-2.20153
-1.73013
-1.35366
-1.05442
-0.817699
-0.631327
-0.485286
-0.371387
-0.282975
-0.214668
-0.162143
-0.121946
-0.0913305
-0.0681292
-0.050639
-0.0375315
-0.0277774
-0.0205864
-0.0153579
-0.0116433
-0.00911601
-0.00754926
-0.00680032
-1219.97
-1214.31
-1203.07
-1186.41
-1164.56
-1137.82
-1106.55
-1071.16
-1032.12
-989.907
-945.048
-898.07
-849.504
-799.874
-749.69
-699.436
-649.565
-600.492
-552.593
-506.195
-461.58
-418.982
-378.586
-340.53
-304.91
-271.777
-241.146
-212.999
-187.286
-163.932
-142.842
-123.903
-106.991
-91.97
-78.7019
-67.0447
-56.8572
-48.001
-40.3421
-33.7531
-28.1136
-23.3114
-19.2429
-15.8134
-12.937
-10.5365
-8.54316
-6.89603
-5.54167
-4.43348
-3.53113
-2.79994
-2.2103
-1.7371
-1.35916
-1.05874
-0.821083
-0.633962
-0.487327
-0.372962
-0.284183
-0.215591
-0.162845
-0.122477
-0.0917306
-0.0684294
-0.0508634
-0.0376987
-0.0279018
-0.0206791
-0.0154274
-0.0116963
-0.00915769
-0.00758393
-0.00683162
-1218.88
-1213.24
-1202.05
-1185.45
-1163.67
-1137.02
-1105.85
-1070.58
-1031.65
-989.554
-944.812
-897.945
-849.484
-799.951
-749.854
-699.675
-649.868
-600.848
-552.989
-506.621
-462.025
-419.436
-379.041
-340.979
-305.345
-272.195
-241.543
-213.371
-187.632
-164.25
-143.133
-124.166
-107.227
-92.1808
-78.8886
-67.2089
-57.0006
-48.1253
-40.4494
-33.845
-28.1919
-23.3777
-19.2987
-15.8601
-12.9759
-10.5687
-8.56971
-6.91778
-5.55939
-4.44784
-3.54271
-2.80923
-2.21772
-1.74299
-1.36382
-1.06241
-0.823952
-0.636196
-0.489059
-0.374297
-0.285208
-0.216374
-0.163441
-0.122928
-0.0920708
-0.0686847
-0.0510543
-0.037841
-0.0280078
-0.020758
-0.0154866
-0.0117414
-0.00919322
-0.00761348
-0.00685831
-1218
-1212.38
-1201.22
-1184.66
-1162.95
-1136.37
-1105.29
-1070.1
-1031.26
-989.262
-944.613
-897.837
-849.461
-800.007
-749.98
-699.864
-650.109
-601.133
-553.307
-506.964
-462.384
-419.804
-379.41
-341.344
-305.701
-272.537
-241.868
-213.676
-187.916
-164.513
-143.372
-124.384
-107.423
-92.3554
-79.0433
-67.3451
-57.1197
-48.2288
-40.5387
-33.9216
-28.2572
-23.4331
-19.3454
-15.8992
-13.0085
-10.5958
-8.59196
-6.93602
-5.57427
-4.45991
-3.55245
-2.81705
-2.22397
-1.74796
-1.36774
-1.0655
-0.826371
-0.638081
-0.490521
-0.375426
-0.286075
-0.217037
-0.163945
-0.12331
-0.0923587
-0.0689009
-0.0512159
-0.0379615
-0.0280975
-0.0208249
-0.0155369
-0.0117797
-0.00922337
-0.00763857
-0.00688097
-1217.29
-1211.68
-1200.55
-1184.03
-1162.37
-1135.85
-1104.82
-1069.71
-1030.94
-989.022
-944.448
-897.744
-849.437
-800.047
-750.078
-700.012
-650.301
-601.359
-553.562
-507.24
-462.674
-420.102
-379.71
-341.64
-305.99
-272.815
-242.133
-213.926
-188.149
-164.728
-143.569
-124.563
-107.584
-92.4994
-79.1711
-67.4577
-57.2183
-48.3145
-40.6127
-33.9852
-28.3115
-23.4791
-19.3842
-15.9318
-13.0356
-10.6183
-8.61054
-6.95126
-5.5867
-4.47
-3.5606
-2.8236
-2.2292
-1.75212
-1.37104
-1.06809
-0.828401
-0.639664
-0.491749
-0.376374
-0.286804
-0.217594
-0.164369
-0.123631
-0.0926012
-0.069083
-0.0513522
-0.0380632
-0.0281732
-0.0208814
-0.0155792
-0.011812
-0.00924883
-0.00765976
-0.00690012
-1216.72
-1211.12
-1200.01
-1183.52
-1161.9
-1135.42
-1104.45
-1069.39
-1030.69
-988.825
-944.311
-897.666
-849.414
-800.075
-750.152
-700.127
-650.452
-601.54
-553.766
-507.461
-462.907
-420.341
-379.952
-341.88
-306.225
-273.041
-242.348
-214.13
-188.339
-164.903
-143.73
-124.709
-107.716
-92.6175
-79.2761
-67.5503
-57.2994
-48.3852
-40.6739
-34.0377
-28.3563
-23.5172
-19.4164
-15.9588
-13.0582
-10.637
-8.62597
-6.96392
-5.59704
-4.4784
-3.56739
-2.82905
-2.23356
-1.75559
-1.37378
-1.07025
-0.830098
-0.640987
-0.492776
-0.377167
-0.287414
-0.218061
-0.164725
-0.123901
-0.0928044
-0.0692357
-0.0514665
-0.0381485
-0.0282368
-0.0209288
-0.0156148
-0.0118392
-0.00927022
-0.00767757
-0.00691621
-1216.26
-1210.68
-1199.57
-1183.11
-1161.52
-1135.08
-1104.15
-1069.13
-1030.48
-988.664
-944.198
-897.599
-849.392
-800.094
-750.209
-700.218
-650.571
-601.683
-553.928
-507.637
-463.094
-420.534
-380.146
-342.073
-306.414
-273.224
-242.523
-214.295
-188.493
-165.046
-143.861
-124.828
-107.823
-92.7141
-79.362
-67.6262
-57.366
-48.4432
-40.7241
-34.0809
-28.3933
-23.5486
-19.4429
-15.9811
-13.0768
-10.6524
-8.63873
-6.9744
-5.6056
-4.48536
-3.57301
-2.83358
-2.23718
-1.75847
-1.37607
-1.07205
-0.831509
-0.642088
-0.493631
-0.377828
-0.287922
-0.21845
-0.165021
-0.124125
-0.092974
-0.0693631
-0.0515619
-0.0382197
-0.0282899
-0.0209684
-0.0156446
-0.0118619
-0.00928813
-0.00769248
-0.00692968
-1215.9
-1210.32
-1199.23
-1182.79
-1161.22
-1134.81
-1103.91
-1068.93
-1030.31
-988.534
-944.106
-897.544
-849.372
-800.108
-750.253
-700.288
-650.664
-601.796
-554.057
-507.778
-463.242
-420.687
-380.302
-342.229
-306.566
-273.372
-242.664
-214.428
-188.618
-165.162
-143.968
-124.925
-107.911
-92.7928
-79.432
-67.6881
-57.4203
-48.4906
-40.7651
-34.1163
-28.4235
-23.5743
-19.4646
-15.9993
-13.0921
-10.6651
-8.64923
-6.98304
-5.61266
-4.4911
-3.57765
-2.83731
-2.24017
-1.76085
-1.37796
-1.07354
-0.832677
-0.643
-0.49434
-0.378376
-0.288343
-0.218772
-0.165267
-0.124312
-0.0931148
-0.069469
-0.0516412
-0.0382789
-0.028334
-0.0210014
-0.0156693
-0.0118808
-0.00930303
-0.00770489
-0.0069409
-1215.61
-1210.03
-1198.95
-1182.53
-1160.97
-1134.59
-1103.72
-1068.76
-1030.17
-988.428
-944.03
-897.498
-849.355
-800.117
-750.286
-700.343
-650.738
-601.885
-554.159
-507.889
-463.361
-420.81
-380.426
-342.353
-306.688
-273.49
-242.777
-214.535
-188.718
-165.255
-144.054
-125.004
-107.982
-92.8565
-79.4888
-67.7384
-57.4645
-48.5292
-40.7986
-34.1451
-28.4482
-23.5953
-19.4824
-16.0143
-13.1046
-10.6755
-8.65783
-6.99011
-5.61845
-4.49581
-3.58147
-2.84038
-2.24263
-1.76281
-1.37951
-1.07477
-0.833639
-0.643752
-0.494924
-0.378827
-0.288691
-0.219039
-0.16547
-0.124466
-0.0932312
-0.0695566
-0.0517068
-0.0383279
-0.0283705
-0.0210286
-0.0156899
-0.0118965
-0.00931538
-0.00771518
-0.00695021
-1215.38
-1209.8
-1198.73
-1182.32
-1160.78
-1134.41
-1103.56
-1068.63
-1030.06
-988.343
-943.969
-897.461
-849.34
-800.123
-750.311
-700.385
-650.795
-601.955
-554.239
-507.977
-463.455
-420.908
-380.525
-342.452
-306.786
-273.584
-242.868
-214.621
-188.799
-165.33
-144.123
-125.067
-108.039
-92.9079
-79.5347
-67.779
-57.5003
-48.5604
-40.8257
-34.1685
-28.4683
-23.6124
-19.4969
-16.0265
-13.1148
-10.684
-8.66485
-6.99589
-5.62318
-4.49966
-3.58458
-2.84289
-2.24464
-1.76442
-1.38078
-1.07577
-0.834428
-0.644368
-0.495403
-0.379198
-0.288976
-0.219258
-0.165637
-0.124593
-0.093327
-0.0696286
-0.0517608
-0.0383683
-0.0284006
-0.0210511
-0.0157068
-0.0119094
-0.00932557
-0.00772367
-0.00695789
-1215.19
-1209.62
-1198.56
-1182.15
-1160.63
-1134.27
-1103.44
-1068.53
-1029.98
-988.275
-943.92
-897.43
-849.327
-800.126
-750.33
-700.418
-650.84
-602.01
-554.302
-508.047
-463.529
-420.985
-380.604
-342.53
-306.863
-273.66
-242.94
-214.69
-188.863
-165.39
-144.178
-125.118
-108.085
-92.9492
-79.5716
-67.8118
-57.5291
-48.5856
-40.8476
-34.1874
-28.4845
-23.6262
-19.5086
-16.0363
-13.123
-10.6909