/*--------------------------------*- C++ -*----------------------------------*\
  =========                 |
  \\      /  F ield         | OpenFOAM: The Open Source CFD Toolbox
   \\    /   O peration     | Website:  https://openfoam.org
    \\  /    A nd           | Version:  10
     \\/     M anipulation  |
\*---------------------------------------------------------------------------*/
FoamFile
{
    format      ascii;
    class       volScalarField;
    location    "117";
    object      gradTx;
}
// * * * * * * * * * * * * * * * * * * * * * * * * * * * * * * * * * * * * * //

dimensions      [0 -1 0 1 0 0 0];

internalField   nonuniform List<scalar> 
11250
(
14255.7
7973.38
5098.17
3541.96
2580.81
1929.38
1460.23
1109.51
841.748
635.282
475.722
352.795
258.741
187.465
134.072
94.59
65.8005
45.1155
30.4795
20.285
13.2972
8.58424
5.45716
3.41606
2.10555
1.27786
0.763602
0.449219
0.260034
0.147913
0.082457
0.0448489
0.0236491
0.0119967
0.00580784
0.00266412
0.0011515
0.000467244
0.000177656
6.32675e-05
2.11171e-05
6.61526e-06
1.9486e-06
5.40862e-07
1.41762e-07
3.51852e-08
8.27604e-09
1.844e-09
3.97338e-10
7.4638e-11
6.58571e-12
0
1.4269e-11
0
1.09762e-12
0
1.09762e-12
-2.19524e-12
0
2.19524e-12
0
1.09762e-12
0
-2.19524e-11
9.87856e-12
-1.09762e-12
-1.09762e-12
0
1.09762e-12
0
-5.48809e-12
0
-7.68332e-12
0
-9.87856e-12
4052.16
4573.89
3791.43
2963.1
2290.39
1768.52
1364.34
1049.29
802.554
609.159
458.053
340.748
250.503
181.838
130.243
92.0007
64.0637
43.9615
29.7208
19.792
12.9806
8.38355
5.33159
3.33854
2.05833
1.24947
0.746767
0.439385
0.254407
0.144799
0.080827
0.0440685
0.0233257
0.0118942
0.00579499
0.00267732
0.00116597
0.000476726
0.00018261
6.54948e-05
2.20072e-05
6.93743e-06
2.05551e-06
5.73666e-07
1.51156e-07
3.76834e-08
8.90278e-09
2.00315e-09
4.29168e-10
8.45165e-11
-7.68332e-12
0
-1.4269e-11
8.78094e-12
-1.31714e-11
-6.5857e-12
-1.4269e-11
0
-4.39047e-12
0
0
-1.09762e-12
0
2.41476e-11
5.48809e-12
0
-1.09762e-12
1.09762e-12
-1.09762e-12
0
-8.78094e-12
0
8.78094e-12
2.19523e-12
0
1433.74
2486.09
2542.61
2244.54
1868.05
1510.97
1201.44
943.079
731.696
561.136
425.187
318.148
234.951
171.163
122.952
87.0556
60.7387
41.7479
28.2632
18.8435
12.371
7.99676
5.08943
3.18897
1.9672
1.19471
0.714319
0.420461
0.243598
0.138816
0.0776745
0.0425297
0.0226574
0.0116544
0.00573819
0.00268225
0.00118247
0.000489416
0.00018971
6.88164e-05
2.33718e-05
7.44189e-06
2.22582e-06
6.26721e-07
1.66522e-07
4.18412e-08
9.97185e-09
2.26768e-09
4.8844e-10
9.32975e-11
1.86595e-11
-1.09762e-12
4.39047e-12
8.78094e-12
0
-2.19523e-12
0
4.39047e-12
0
-2.19524e-12
0
0
0
-1.4269e-11
-1.09762e-11
2.19524e-12
3.29285e-12
2.19523e-12
0
0
3.29285e-12
8.78094e-12
0
-1.09762e-12
8.78094e-12
632.881
1401.35
1659.94
1619.69
1444.53
1226.08
1008.66
811.361
640.886
498.124
381.318
287.595
213.723
156.482
112.866
80.1834
56.1006
38.6508
26.2188
17.5103
11.5126
7.45145
4.74765
2.9777
1.83844
1.11734
0.668518
0.39379
0.228382
0.130376
0.0731806
0.0402746
0.0216177
0.01123
0.00559493
0.00264976
0.00118429
0.000496996
0.000195285
7.17758e-05
2.46862e-05
7.95555e-06
2.40689e-06
6.85152e-07
1.8395e-07
4.6685e-08
1.12363e-08
2.56294e-09
5.49906e-10
9.54927e-11
2.74404e-11
0
1.09762e-12
-8.78094e-12
1.31714e-11
5.48809e-12
1.4269e-11
-4.39047e-12
5.48809e-12
6.58571e-12
0
-2.19523e-12
0
-1.09762e-12
-4.39047e-12
3.29285e-12
0
1.09762e-12
0
2.19524e-12
5.48809e-12
0
-1.09762e-12
-1.09762e-12
-5.48809e-12
331.635
833.323
1087.07
1144.19
1081.5
959.27
815.88
673.094
542.069
427.689
331.274
252.198
188.831
139.104
100.837
71.9378
50.5084
34.9015
23.7355
15.8864
10.4648
6.78441
4.32892
2.71855
1.68034
1.02231
0.612268
0.361046
0.209686
0.119954
0.0675523
0.0373635
0.0201988
0.0105921
0.00533809
0.00256154
0.0011613
0.000494664
0.000197336
7.36346e-05
2.57057e-05
8.40554e-06
2.57924e-06
7.44313e-07
2.0248e-07
5.20337e-08
1.26588e-08
2.91856e-09
6.43204e-10
1.45983e-10
3.95142e-11
2.19523e-12
-5.48809e-12
-9.87856e-12
0
5.48809e-12
1.09762e-12
-8.78094e-12
-5.48809e-12
0
0
0
0
1.86595e-11
0
-1.09762e-12
-1.09762e-12
-3.29285e-12
0
-1.09762e-12
-9.87856e-12
-1.20738e-11
-7.68332e-12
-1.09762e-12
-1.09762e-12
194.118
519.553
720.951
801.904
793.941
731.31
641.121
541.852
444.868
356.46
279.561
214.992
162.313
120.391
87.7718
62.9179
44.3553
30.7561
20.9788
14.0777
9.29419
6.03742
3.85899
2.42718
1.50233
0.915182
0.548792
0.324044
0.18849
0.108049
0.0610239
0.0338973
0.0184413
0.00975756
0.00497609
0.00242281
0.00111691
0.000484496
0.000196993
7.49396e-05
2.66674e-05
8.88493e-06
2.77614e-06
8.15154e-07
2.25445e-07
5.88762e-08
1.4539e-08
3.39383e-09
7.40892e-10
1.63545e-10
3.18309e-11
-1.09762e-12
0
-3.29285e-12
-1.09762e-12
0
-1.09762e-12
2.19524e-12
1.09762e-12
-6.58571e-12
1.09762e-12
2.19523e-12
1.09762e-12
0
-1.09762e-12
-4.39047e-12
0
0
0
-2.19524e-12
4.39047e-12
1.09762e-12
-4.39047e-12
0
0
121.355
335.564
484.491
560.706
575.542
546.992
492.378
425.405
355.688
289.33
229.761
178.535
135.961
101.58
74.5138
53.6937
38.0219
26.4661
18.1128
12.1898
8.06826
5.25279
3.3641
2.11964
1.31406
0.801668
0.481399
0.284648
0.165813
0.0952038
0.0538867
0.0300403
0.0164455
0.00879073
0.00454996
0.00225819
0.00106469
0.000473275
0.000197337
7.69663e-05
2.8055e-05
9.56238e-06
3.05206e-06
9.14027e-07
2.57431e-07
6.83684e-08
1.71569e-08
4.06228e-09
8.94558e-10
1.77814e-10
2.74404e-11
1.75619e-11
0
-1.09762e-12
0
-9.87856e-12
-1.09762e-12
-7.68332e-12
4.39047e-12
-4.39047e-12
0
-2.19523e-12
1.09762e-12
-5.48809e-12
2.19523e-12
2.19524e-12
0
0
-1.20738e-11
1.09762e-12
1.31714e-11
2.19524e-12
0
-7.68332e-12
0
78.8326
221.981
328.962
391.744
413.454
403.081
371.098
326.935
277.956
229.332
184.323
144.7
111.156
83.6665
61.7645
44.7507
31.8392
22.2537
15.2846
10.3187
6.8487
4.46964
2.86871
1.81097
1.12465
0.687217
0.413283
0.244695
0.1427
0.0820161
0.0464913
0.0260055
0.0143432
0.00777145
0.00410497
0.0020911
0.00101549
0.000465488
0.000200005
8.02346e-05
3.00091e-05
1.04682e-05
3.41098e-06
1.04046e-06
2.97854e-07
8.02314e-08
2.03882e-08
4.91842e-09
1.11628e-09
2.23914e-10
4.93928e-11
5.48809e-12
5.48809e-12
4.39047e-12
1.09762e-12
4.39047e-12
2.305e-11
3.29285e-12
-3.29285e-12
0
0
0
-3.29285e-12
0
0
0
7.68332e-12
-1.09762e-12
0
1.09762e-12
-1.09762e-12
0
6.5857e-12
0
4.39047e-12
52.3516
149.05
224.821
273.357
294.758
293.334
275.218
246.612
212.826
177.903
144.619
114.651
88.8245
67.3518
50.0394
36.4577
26.0653
18.2958
12.6133
8.54348
5.68696
3.72102
2.39368
1.51418
0.942085
0.576635
0.347302
0.205875
0.120148
0.0690803
0.039193
0.0219999
0.0122455
0.00675052
0.00365773
0.00192231
0.000965149
0.000456971
0.000202244
8.32774e-05
3.18565e-05
1.13285e-05
3.75232e-06
1.16073e-06
3.36307e-07
9.15468e-08
2.34813e-08
5.70981e-09
1.31604e-09
2.77697e-10
5.59785e-11
2.19524e-12
-1.09762e-12
-3.29285e-12
0
8.78094e-12
1.4269e-11
1.4269e-11
-4.39047e-12
4.39047e-12
-1.09762e-12
2.19523e-12
8.78094e-12
0
-1.09762e-12
0
1.4269e-11
2.19523e-12
1.31714e-11
-1.09762e-12
2.19523e-12
5.48809e-12
6.58571e-12
8.78094e-12
2.19524e-12
35.1842
100.899
154.091
190.266
208.599
211.063
201.18
182.92
159.96
135.302
111.146
88.9333
69.4633
53.0493
39.6621
29.0576
20.8765
14.7172
10.1851
6.92217
4.62162
3.03205
1.95512
1.23941
0.772629
0.473741
0.285751
0.169557
0.0989804
0.0568883
0.0322761
0.0181705
0.0102096
0.0057321
0.0031888
0.00172805
0.000894721
0.000435672
0.000197529
8.29908e-05
3.22779e-05
1.16358e-05
3.89754e-06
1.21689e-06
3.55349e-07
9.73773e-08
2.51267e-08
6.10385e-09
1.41483e-09
3.21602e-10
5.59785e-11
1.31714e-11
-5.48809e-12
0
0
-5.48809e-12
-1.97571e-11
-1.09762e-12
2.19523e-12
-1.09762e-12
-1.09762e-12
0
1.09762e-12
-1.09762e-12
-1.09762e-12
-1.09762e-12
-6.58571e-12
0
-1.09762e-12
0
1.09762e-12
0
-6.58571e-12
0
1.09762e-12
23.7728
68.5176
105.583
131.894
146.494
150.226
145.088
133.576
118.171
101.018
83.7808
67.615
53.2192
40.9227
30.7828
22.6752
16.37
11.5901
8.05192
5.49124
3.67753
2.4193
1.56385
0.993566
0.620601
0.381179
0.23022
0.13669
0.0797587
0.0457696
0.0259221
0.0146008
0.00825538
0.00470145
0.00267109
0.00148268
0.000785715
0.000390444
0.000180027
7.66728e-05
3.01475e-05
1.09634e-05
3.69842e-06
1.16142e-06
3.40775e-07
9.37398e-08
2.42562e-08
5.90079e-09
1.36214e-09
3.20504e-10
5.81737e-11
5.48809e-12
8.78094e-12
4.39047e-12
2.19523e-12
1.09762e-12
-1.4269e-11
0
4.39047e-12
-1.09762e-12
3.29285e-12
1.4269e-11
-8.78094e-12
0
0
-9.87856e-12
-3.7319e-11
-1.09762e-12
0
0
-3.29285e-12
-5.48809e-12
0
-2.19523e-12
-3.29285e-12
16.0745
46.499
72.136
90.9194
102.027
105.773
103.283
96.1069
85.886
74.1134
62.0015
50.4348
39.9821
30.9437
23.4125
17.3368
12.5752
8.94126
6.23546
4.2671
2.86657
1.89107
1.22548
0.780346
0.488377
0.300433
0.181619
0.10782
0.0628076
0.0359154
0.0202418
0.0113514
0.00641305
0.00367124
0.00210848
0.00118656
0.00063751
0.000320688
0.000149374
6.41444e-05
2.53893e-05
9.28273e-06
3.14524e-06
9.91288e-07
2.91713e-07
8.04554e-08
2.08624e-08
5.11819e-09
1.19201e-09
2.78795e-10
8.01261e-11
3.18309e-11
2.19523e-12
1.09762e-12
-1.09762e-12
-1.09762e-12
-3.29285e-12
0
-1.09762e-12
2.19524e-12
0
-1.09762e-12
5.48809e-12
0
-1.09762e-11
-5.48809e-12
-2.19524e-12
-1.09762e-12
0
1.09762e-12
0
0
4.39047e-12
0
1.09762e-12
10.8413
31.447
49.0363
62.2379
70.4187
73.659
72.5879
68.1619
61.4506
53.4709
45.0822
36.9372
29.4766
22.9517
17.4619
12.9954
9.46926
6.76069
4.73246
3.24957
2.18978
1.44867
0.941201
0.600696
0.376663
0.23202
0.140313
0.0832003
0.0483011
0.0274475
0.0153268
0.00849896
0.00475012
0.00269973
0.00154723
0.000872531
0.000470833
0.000238031
0.000111406
4.80445e-05
1.9087e-05
7.00068e-06
2.37849e-06
7.51393e-07
2.21563e-07
6.12097e-08
1.59034e-08
3.92069e-09
9.20901e-10
2.20621e-10
7.90285e-11
3.62214e-11
0
0
-1.09762e-12
0
1.09762e-12
-8.78094e-12
-7.68332e-12
-3.29285e-12
-1.09762e-12
-1.4269e-11
1.09762e-12
-1.20738e-11
-1.09762e-12
1.09762e-11
2.305e-11
-2.19523e-12
0
0
-1.09762e-12
-4.39047e-12
-8.78094e-12
1.09762e-12
6.58571e-12
7.27506
21.1473
33.1085
42.256
48.13
50.7168
50.3665
47.665
43.3016
37.957
32.2263
26.5775
21.3391
16.7095
12.7789
9.55569
6.99324
5.0128
3.52171
2.42627
1.64
1.08805
0.708754
0.453411
0.284864
0.175688
0.106241
0.0628627
0.0363064
0.0204428
0.0112568
0.00612578
0.0033495
0.00186377
0.00105072
0.000586551
0.000314966
0.000158987
7.44316e-05
3.21366e-05
1.27868e-05
4.69775e-06
1.59875e-06
5.05891e-07
1.49401e-07
4.13099e-08
1.07424e-08
2.63099e-09
6.01494e-10
1.36105e-10
3.62214e-11
6.5857e-12
1.09762e-12
1.09762e-12
0
0
4.39047e-12
0
1.09762e-12
0
-1.09762e-12
-1.09762e-12
-6.5857e-12
0
1.20738e-11
8.78094e-12
2.19523e-12
0
-1.09762e-12
-2.19523e-12
-6.5857e-12
4.39047e-12
0
0
0
4.84823
14.1166
22.172
28.425
32.5535
34.514
34.4998
32.8682
30.0587
26.5205
22.6576
18.7974
15.177
11.9465
9.18075
6.89599
5.06769
3.64642
2.57077
1.77688
1.2047
0.801528
0.523526
0.335754
0.211398
0.130561
0.078948
0.0465965
0.0267451
0.0148905
0.00805537
0.004274
0.00226261
0.00121534
0.000663756
0.000361906
0.000191454
9.58327e-05
4.46768e-05
1.9256e-05
7.65906e-06
2.81507e-06
9.58867e-07
3.03773e-07
8.98301e-08
2.48841e-08
6.49899e-09
1.58167e-09
3.56726e-10
6.80523e-11
-2.19524e-12
-2.74404e-11
-1.4269e-11
0
-1.4269e-11
-1.09762e-12
0
7.68332e-12
8.78094e-12
6.58571e-12
1.09762e-12
-4.39047e-12
0
1.31714e-11
9.87856e-12
0
-1.09762e-12
2.19523e-12
-4.39047e-12
0
-7.68332e-12
3.29285e-12
8.78094e-12
9.87856e-12
-3.29285e-12
3.20391
9.34139
14.7101
18.9279
21.7752
23.2055
23.3248
22.3499
20.5586
18.2432
15.6733
13.073
10.6092
8.39137
6.47787
4.88633
3.60496
2.60339
1.84164
1.27695
0.868342
0.579392
0.379482
0.244018
0.154005
0.0952774
0.0576292
0.0339362
0.019357
0.0106504
0.00565135
0.00291288
0.00148206
0.000759187
0.000395495
0.000207431
0.000106798
5.25623e-05
2.42669e-05
1.04044e-05
4.12782e-06
1.51571e-06
5.16286e-07
1.63656e-07
4.84763e-08
1.347e-08
3.52774e-09
8.81387e-10
2.10743e-10
4.17095e-11
-5.48809e-12
-1.64643e-11
-4.39047e-12
-2.19524e-12
0
-4.39047e-12
-4.39047e-12
0
8.78094e-12
-1.09762e-12
0
1.09762e-12
0
-2.19524e-12
5.48809e-12
-4.39047e-12
-1.09762e-12
-1.09762e-12
0
1.09762e-12
-4.39047e-12
-7.68332e-12
-2.19524e-12
2.19523e-12
5.48809e-12
2.09711
6.12112
9.65959
12.4671
14.3967
15.4092
15.562
14.986
13.8551
12.3574
10.6699
8.94296
7.29141
5.79279
4.49066
3.40079
2.51833
1.82503
1.29527
0.900893
0.614416
0.411114
0.269995
0.174063
0.110108
0.0682329
0.0412828
0.0242579
0.0137551
0.00748366
0.00389782
0.001952
0.00095248
0.000462037
0.000226632
0.000112512
5.55415e-05
2.65732e-05
1.20557e-05
5.11635e-06
2.01835e-06
7.38948e-07
2.51398e-07
7.96804e-08
2.3601e-08
6.5879e-09
1.71997e-09
4.47828e-10
1.09762e-10
1.97571e-11
-6.5857e-12
1.86595e-11
1.97571e-11
4.39047e-12
1.4269e-11
2.19523e-12
1.09762e-12
3.29285e-12
0
-2.19523e-12
-2.19523e-12
5.48809e-12
1.09762e-12
0
-9.87856e-12
-1.09762e-12
0
-3.29285e-12
4.39047e-12
-1.09762e-12
-3.29285e-12
5.48809e-12
-3.29285e-12
-9.87856e-12
-1.09762e-12
1.35832
3.96832
6.27342
8.11732
9.40366
10.1023
10.2441
9.9077
9.20107
8.24348
7.14968
6.0188
4.92811
3.93117
3.05937
2.32546
1.72813
1.25658
0.894683
0.624154
0.426888
0.286394
0.188543
0.121809
0.0771769
0.0478582
0.0289311
0.0169467
0.00954837
0.0051394
0.00263206
0.0012845
0.000603015
0.000277128
0.000127218
5.90039e-05
2.74811e-05
1.25973e-05
5.55533e-06
2.31651e-06
9.04325e-07
3.29141e-07
1.11615e-07
3.53235e-08
1.04394e-08
2.90978e-09
7.56258e-10
1.76716e-10
5.26856e-11
3.29285e-12
-1.20738e-11
0
3.29285e-12
-1.09762e-12
-2.19524e-12
5.48809e-12
-1.09762e-12
-2.19524e-12
-9.87856e-12
0
0
-4.39047e-12
0
2.19524e-12
-4.39047e-12
1.09762e-12
8.78094e-12
4.39047e-12
0
0
9.87856e-12
1.20738e-11
5.48809e-12
-5.48809e-12
-4.39047e-12
0.869955
2.54351
4.02698
5.22181
6.06575
6.5371
6.65232
6.4582
6.02122
5.41619
4.71635
3.98602
3.27622
2.62315
2.04871
1.56261
1.16509
0.849906
0.607002
0.424701
0.291261
0.195875
0.129208
0.0835863
0.0529735
0.0328071
0.0197664
0.0115118
0.00643124
0.00342135
0.00172444
0.000822881
0.000373863
0.000163874
7.06213e-05
3.04481e-05
1.32116e-05
5.71341e-06
2.41556e-06
9.79458e-07
3.75683e-07
1.35306e-07
4.55895e-08
1.437e-08
4.27412e-09
1.18543e-09
3.16114e-10
6.69547e-11
2.305e-11
-1.75619e-11
1.09762e-12
-9.87856e-12
-8.78094e-12
-4.39047e-12
1.09762e-12
-2.19523e-12
-1.09762e-12
-1.09762e-12
-1.09762e-12
2.19524e-12
-1.09762e-12
-8.78094e-12
-1.09762e-12
0
-8.78094e-12
-9.87856e-12
0
2.19523e-12
4.39047e-12
1.09762e-12
1.31714e-11
-4.39047e-12
3.29285e-12
-1.09762e-12
-1.09762e-12
0.550611
1.61089
2.55366
3.31744
3.86259
4.17419
4.26082
4.15022
3.88286
3.50513
3.06312
2.59793
2.14267
1.72128
1.34869
1.03191
0.771762
0.564679
0.404481
0.283805
0.195148
0.131542
0.08692
0.0562664
0.0356192
0.0219788
0.0131541
0.00758697
0.00418665
0.00219496
0.00108757
0.000508246
0.000224624
9.47174e-05
3.86809e-05
1.55761e-05
6.27e-06
2.52803e-06
1.01007e-06
3.93136e-07
1.46701e-07
5.19074e-08
1.73072e-08
5.42772e-09
1.60801e-09
4.41242e-10
1.22933e-10
4.06118e-11
-6.5857e-12
-1.4269e-11
1.53666e-11
9.87856e-12
3.29285e-12
1.09762e-12
3.29285e-12
3.29285e-12
1.86595e-11
0
2.19523e-12
0
0
-6.5857e-12
-1.09762e-12
3.29285e-12
0
-1.09762e-12
-7.68332e-12
0
0
1.09762e-12
-4.39047e-12
-8.78094e-12
0
0
-5.48809e-12
0.344217
1.00762
1.59909
2.08066
2.42747
2.62956
2.69136
2.62914
2.46734
2.23435
1.95882
1.66657
1.37875
1.11089
0.872923
0.669752
0.502273
0.3685
0.264682
0.186232
0.128416
0.0867936
0.0574766
0.0372383
0.0235341
0.0144434
0.00856015
0.00486897
0.00264121
0.00135846
0.000659463
0.000301443
0.000129868
5.30163e-05
2.07261e-05
7.87663e-06
2.95621e-06
1.107e-06
4.13469e-07
1.52446e-07
5.47053e-08
1.88351e-08
6.19495e-09
1.93071e-09
5.37833e-10
1.4269e-10
2.52452e-11
-1.20738e-11
-5.48809e-12
8.78094e-12
7.68332e-12
1.31714e-11
-4.39047e-12
2.19524e-12
-1.09762e-12
-1.09762e-12
9.87856e-12
0
0
-2.19524e-12
3.29285e-12
8.78094e-12
0
-1.86595e-11
8.78094e-12
1.09762e-11
0
1.09762e-12
-4.39047e-12
0
-1.20738e-11
0
0
-3.29285e-12
2.19524e-12
0.212458
0.622236
0.98844
1.2879
1.50522
1.63393
1.67627
1.64172
1.54488
1.40294
1.23344
1.05239
0.873045
0.705305
0.555618
0.427318
0.321198
0.236193
0.170066
0.119999
0.0830251
0.0563357
0.0374538
0.0243309
0.01537
0.00938219
0.00549759
0.00307382
0.00163172
0.000819074
0.000387611
0.00017264
7.23944e-05
2.8674e-05
1.08024e-05
3.91394e-06
1.38304e-06
4.83005e-07
1.67964e-07
5.80673e-08
1.97889e-08
6.5418e-09
2.09535e-09
6.36618e-10
1.77814e-10
4.60999e-11
4.39047e-12
-1.53666e-11
6.58571e-12
1.53666e-11
-2.19524e-12
9.87856e-12
-1.09762e-12
1.09762e-12
-1.09762e-12
-2.19523e-12
-1.86595e-11
-7.68332e-12
-1.09762e-12
0
-1.09762e-12
1.09762e-11
1.09762e-12
-2.19524e-12
-1.09762e-12
-4.39047e-12
9.87856e-12
-1.09762e-12
2.19524e-12
-2.19524e-12
3.29285e-12
0
-2.19524e-12
3.29285e-12
-8.78094e-12
0.129427
0.37923
0.602943
0.786592
0.920755
1.00132
1.02937
1.01042
0.953089
0.867682
0.764804
0.654228
0.544122
0.440651
0.34791
0.268103
0.201871
0.148692
0.107274
0.0759088
0.0527492
0.0360116
0.0241154
0.0157683
0.00999185
0.0060816
0.00352668
0.00193676
0.0010035
0.000489579
0.000224692
9.69989e-05
3.9422e-05
1.51199e-05
5.49851e-06
1.91064e-06
6.41268e-07
2.10498e-07
6.8319e-08
2.20478e-08
7.03683e-09
2.2095e-09
6.67351e-10
1.844e-10
5.92713e-11
1.75619e-11
1.53666e-11
1.20738e-11
1.09762e-12
1.31714e-11
-2.19523e-12
-5.48809e-12
1.31714e-11
-3.29285e-12
-2.19523e-12
5.48809e-12
-7.68332e-12
1.20738e-11
1.09762e-12
0
1.09762e-12
-2.19523e-12
-1.09762e-12
1.31714e-11
0
1.31714e-11
0
-2.19523e-12
0
1.09762e-12
4.39047e-12
-2.19523e-12
0
2.19523e-12
-1.09762e-12
0.0778059
0.228077
0.362926
0.474019
0.555658
0.605257
0.623326
0.613025
0.579421
0.528633
0.467004
0.400416
0.333813
0.270949
0.214349
0.165427
0.124677
0.0918911
0.0663634
0.0470809
0.0328929
0.0226561
0.0153495
0.0101563
0.00649045
0.00395778
0.00227991
0.00123289
0.000624108
0.000295671
0.000131246
5.46881e-05
2.14387e-05
7.92887e-06
2.77718e-06
9.26425e-07
2.96665e-07
9.21318e-08
2.80463e-08
8.45934e-09
2.51464e-09
7.5077e-10
1.97571e-10
4.82952e-11
3.18309e-11
1.75619e-11
1.86595e-11
3.29285e-12
3.29285e-12
7.68332e-12
-1.31714e-11
-2.85381e-11
-4.39047e-12
0
-1.31714e-11
6.5857e-12
1.09762e-12
1.09762e-11
0
-1.09762e-12
1.09762e-12
0
-1.09762e-12
4.39047e-12
3.29285e-12
4.39047e-12
-9.87856e-12
0
-1.09762e-12
1.09762e-12
1.09762e-12
1.09762e-12
0
1.09762e-12
1.31714e-11
0.0461703
0.135404
0.215647
0.281985
0.330998
0.361068
0.372406
0.366812
0.347247
0.317325
0.280815
0.241224
0.201497
0.163866
0.129835
0.100278
0.0755564
0.0556324
0.0401517
0.0285292
0.0200485
0.0139669
0.0096148
0.00647199
0.00419425
0.00257622
0.00148212
0.000793328
0.000394232
0.000182049
7.83311e-05
3.15141e-05
1.18992e-05
4.23266e-06
1.4242e-06
4.55483e-07
1.39311e-07
4.10707e-08
1.17983e-08
3.35322e-09
9.59318e-10
2.74404e-10
6.14666e-11
1.31714e-11
7.68332e-12
1.4269e-11
-5.48809e-12
1.09762e-12
1.31714e-11
6.5857e-12
2.19524e-12
-5.48809e-12
-1.4269e-11
1.09762e-12
1.09762e-12
-4.39047e-12
0
-3.29285e-12
-2.19523e-12
2.19524e-12
-1.09762e-12
2.19523e-12
0
6.58571e-12
-2.19523e-12
-1.31714e-11
2.19524e-12
1.09762e-12
0
-1.09762e-12
7.68332e-12
3.29285e-12
0
3.29285e-12
-4.39047e-12
0.0270729
0.0794381
0.126633
0.165789
0.19486
0.212831
0.21976
0.216666
0.205273
0.187713
0.166226
0.142899
0.119478
0.0972599
0.077106
0.0595233
0.0447583
0.032847
0.023631
0.0167817
0.0118538
0.00836222
0.00586508
0.00403014
0.00265823
0.00165123
0.000953256
0.000507989
0.000249472
0.000113095
4.74964e-05
1.85606e-05
6.78065e-06
2.3266e-06
7.53267e-07
2.31205e-07
6.76374e-08
1.89613e-08
5.15441e-09
1.37092e-09
3.90752e-10
1.22933e-10
5.59785e-11
2.74404e-11
6.5857e-12
1.64643e-11
5.48809e-12
3.07333e-11
1.53666e-11
4.39047e-12
7.68332e-12
7.68332e-12
4.39047e-12
-2.19523e-12
1.4269e-11
-6.5857e-12
-1.09762e-12
-3.29285e-12
1.09762e-12
2.19523e-12
-1.09762e-12
-2.19523e-12
2.19523e-12
-1.20738e-11
-3.29285e-12
-1.09762e-12
0
1.09762e-12
1.09762e-12
0
-7.68332e-12
0
-4.39047e-12
-1.4269e-11
-1.09762e-12
0.0157183
0.0461458
0.0736305
0.0965067
0.113554
0.124133
0.128238
0.126438
0.119739
0.109397
0.0967517
0.0830592
0.0693615
0.0564066
0.0446618
0.0343947
0.025752
0.0187833
0.0134268
0.00950091
0.00673118
0.00480484
0.00343449
0.00241065
0.00161973
0.00101913
0.000592053
0.000315493
0.000154041
6.90663e-05
2.85505e-05
1.09338e-05
3.89891e-06
1.30111e-06
4.08303e-07
1.21066e-07
3.40722e-08
9.13328e-09
2.33573e-09
5.67468e-10
1.28421e-10
4.17095e-11
3.51238e-11
2.305e-11
7.68332e-12
6.58571e-12
3.40261e-11
3.95142e-11
2.08547e-11
3.29285e-12
-1.97571e-11
0
-6.5857e-12
0
-2.19524e-12
0
0
-7.68332e-12
4.39047e-12
-3.29285e-12
0
-1.09762e-12
-5.48809e-12
-2.08547e-11
2.19523e-12
0
-2.19524e-12
-3.29285e-12
1.09762e-12
-1.09762e-12
1.09762e-12
-2.19524e-12
0
0
1.31714e-11
0.00906123
0.0266094
0.0424777
0.0557017
0.0655611
0.0716655
0.0739927
0.0728622
0.0688542
0.0627094
0.055232
0.0471926
0.0392263
0.0317654
0.0250486
0.0191952
0.0142735
0.0103174
0.00730322
0.0051306
0.00363386
0.00261797
0.00190329
0.00136215
0.000931057
0.000593123
0.000347058
0.000185392
9.03621e-05
4.02953e-05
1.65106e-05
6.24716e-06
2.19409e-06
7.1892e-07
2.20825e-07
6.38934e-08
1.74609e-08
4.54304e-09
1.09981e-09
2.52452e-10
2.74404e-11
-1.53666e-11
-1.97571e-11
-6.5857e-12
1.31714e-11
1.86595e-11
2.96357e-11
1.31714e-11
1.97571e-11
-1.09762e-12
-3.29285e-12
7.68332e-12
1.09762e-12
3.29285e-12
0
-1.09762e-12
0
0
-1.09762e-12
0
0
3.29285e-12
-1.09762e-12
7.68332e-12
0
-1.09762e-12
0
0
6.58571e-12
4.39047e-12
6.5857e-12
-1.97571e-11
2.19524e-12
1.09762e-11
0
0.00520466
0.0152733
0.0243504
0.0318793
0.037454
0.0408598
0.0420886
0.0413217
0.038888
0.0352155
0.0307855
0.0260747
0.0214773
0.0172458
0.0134946
0.0102595
0.00755733
0.0053996
0.00377334
0.00262218
0.0018494
0.00133966
0.000987113
0.000718047
0.000498007
0.000320718
0.000188969
0.000101294
4.93988e-05
2.19855e-05
8.97054e-06
3.37277e-06
1.17461e-06
3.80815e-07
1.15475e-07
3.28912e-08
8.81167e-09
2.24573e-09
5.31247e-10
1.06469e-10
7.68332e-12
-1.53666e-11
-2.74404e-11
-1.09762e-11
-5.48809e-12
4.39047e-12
-1.09762e-12
-1.75619e-11
-1.09762e-12
4.39047e-12
1.75619e-11
2.19523e-12
2.85381e-11
0
0
0
8.78094e-12
0
-1.09762e-12
-2.19523e-12
-1.09762e-12
1.09762e-12
4.39047e-12
1.86595e-11
1.09762e-12
0
-1.09762e-12
1.31714e-11
0
1.09762e-12
-7.68332e-12
0
0
0
-7.68332e-12
0.0029957
0.00876344
0.0138957
0.0180738
0.0210975
0.0228824
0.0234476
0.0229003
0.0214194
0.019241
0.0166444
0.0139196
0.0113102
0.00896403
0.00693214
0.00521225
0.00379431
0.00267412
0.00184052
0.0012612
0.000882245
0.000639798
0.000475813
0.000350501
0.000245957
0.000159833
9.47544e-05
5.09784e-05
2.49022e-05
1.10828e-05
4.51534e-06
1.6929e-06
5.87138e-07
1.89313e-07
5.70059e-08
1.60944e-08
4.26315e-09
1.0581e-09
2.51354e-10
4.50023e-11
-4.39047e-12
-7.68332e-12
-1.4269e-11
-1.86595e-11
-2.96357e-11
-3.7319e-11
-2.96357e-11
-2.74404e-11
-1.97571e-11
-9.87856e-12
-1.09762e-12
-2.305e-11
-6.5857e-12
-2.19524e-12
1.09762e-12
3.29285e-12
7.68332e-12
-1.20738e-11
-1.09762e-12
2.19524e-12
-1.09762e-12
-5.48809e-12
-3.29285e-12
0
0
2.19524e-12
1.09762e-12
0
-8.78094e-12
4.39047e-12
1.09762e-12
2.41476e-11
2.19524e-12
4.39047e-12
0
0.00174649
0.00507051
0.00793476
0.0101602
0.0116813
0.0125077
0.0126865
0.012286
0.0113964
0.0101367
0.00865822
0.00712859
0.00569235
0.00443437
0.00337584
0.00250259
0.00179657
0.00124707
0.000844007
0.000568891
0.000393277
0.000284295
0.000212493
0.000157941
0.000111833
7.32021e-05
4.36248e-05
2.35527e-05
1.15295e-05
5.13634e-06
2.09276e-06
7.83989e-07
2.71477e-07
8.73155e-08
2.61837e-08
7.36611e-09
1.95266e-09
4.74171e-10
1.18543e-10
2.41476e-11
-2.63428e-11
-1.75619e-11
-1.09762e-11
-1.09762e-11
-2.08547e-11
-3.40261e-11
-4.28071e-11
-1.97571e-11
-2.96357e-11
-2.305e-11
-2.19524e-11
-2.08547e-11
-1.97571e-11
2.19524e-12
2.19524e-12
0
-8.78094e-12
-1.64643e-11
-8.78094e-12
-1.20738e-11
-3.29285e-12
-1.09762e-12
1.09762e-12
-2.19524e-12
-1.09762e-12
-1.09762e-11
1.09762e-12
-6.5857e-12
-1.09762e-12
-1.09762e-12
-2.19523e-12
0
-9.87856e-12
0
5.48809e-12
0.00104629
0.00299731
0.00458028
0.00569692
0.00636401
0.00664994
0.00662093
0.00632467
0.0058012
0.00510114
0.00429715
0.00347771
0.0027226
0.00207804
0.00155218
0.00113135
0.000799463
0.00054598
0.000363015
0.000240277
0.000163658
0.000117463
8.78881e-05
6.56969e-05
4.68256e-05
3.08256e-05
1.84513e-05
9.9937e-06
4.90317e-06
2.18764e-06
8.92118e-07
3.34302e-07
1.15725e-07
3.72048e-08
1.11375e-08
3.10955e-09
8.24311e-10
1.80009e-10
2.19523e-11
-7.68332e-12
-3.29285e-12
-7.68332e-12
1.20738e-11
1.53666e-11
-5.48809e-12
-2.19523e-12
-4.39047e-12
-4.39047e-12
0
-1.4269e-11
-1.53666e-11
2.305e-11
3.29285e-12
0
-3.29285e-12
6.5857e-12
-7.68332e-12
7.68332e-12
-8.78094e-12
-2.19523e-12
-1.31714e-11
5.48809e-12
4.39047e-12
-7.68332e-12
1.09762e-12
-1.09762e-12
-1.09762e-12
1.09762e-12
2.19523e-12
-8.78094e-12
-1.31714e-11
-4.39047e-12
-6.5857e-12
-7.68332e-12
-1.09762e-12
0.000648396
0.00182455
0.00269747
0.0032145
0.00343255
0.00344534
0.00332494
0.00310676
0.00280475
0.00243314
0.00202002
0.00160631
0.00123171
0.000919392
0.000672154
0.0004806
0.000333782
0.000224105
0.00014632
9.50084e-05
6.36117e-05
4.51742e-05
3.37149e-05
2.52719e-05
1.80945e-05
1.19641e-05
7.18746e-06
3.90414e-06
1.9198e-06
8.58048e-07
3.50395e-07
1.31427e-07
4.55116e-08
1.46433e-08
4.38388e-09
1.20848e-09
3.0404e-10
5.04904e-11
-1.20738e-11
-1.75619e-11
1.09762e-12
2.19524e-12
8.78094e-12
-3.29285e-12
1.86595e-11
3.29285e-12
2.41476e-11
-1.09762e-12
-3.29285e-12
1.09762e-12
9.87856e-12
8.78094e-12
-1.09762e-12
-1.31714e-11
-1.09762e-12
4.39047e-12
0
4.39047e-12
1.86595e-11
1.31714e-11
4.39047e-12
2.19523e-12
0
2.19524e-12
0
1.09762e-11
-2.19524e-12
0
0
5.48809e-12
8.78094e-12
0
9.87856e-12
2.19523e-12
-6.58571e-12
0.000409718
0.00113189
0.00161457
0.00183009
0.0018444
0.00174956
0.00161093
0.0014548
0.00128334
0.00109461
0.000894761
0.000699218
0.000525225
0.000383177
0.000273798
0.000191725
0.000130708
8.62332e-05
5.5283e-05
3.51992e-05
2.31282e-05
1.62044e-05
1.20255e-05
9.01609e-06
6.47348e-06
4.29439e-06
2.58765e-06
1.40922e-06
6.9448e-07
3.10985e-07
1.27215e-07
4.78078e-08
1.65993e-08
5.33003e-09
1.61789e-09
4.55511e-10
1.31714e-10
4.50023e-11
2.85381e-11
2.19524e-12
2.19523e-11
1.53666e-11
1.4269e-11
-4.39047e-12
2.19524e-11
1.53666e-11
1.31714e-11
2.19524e-12
-2.08547e-11
2.19523e-12
1.4269e-11
1.09762e-12
0
-2.19524e-12
2.19524e-12
-2.305e-11
-1.09762e-12
0
7.68332e-12
1.09762e-12
1.4269e-11
-2.19523e-12
-1.09762e-12
-1.09762e-12
-4.39047e-12
1.09762e-12
-1.09762e-12
1.20738e-11
0
0
2.08547e-11
9.87856e-12
6.58571e-12
4.39047e-12
0
0.000255555
0.000695284
0.000961274
0.00103922
0.000985602
0.000874573
0.000757012
0.000651399
0.000555866
0.000463652
0.00037245
0.000286047
0.00021064
0.000150247
0.000104879
7.18506e-05
4.804e-05
3.11319e-05
1.95994e-05
1.22364e-05
7.88206e-06
5.43585e-06
4.00036e-06
2.99332e-06
2.15197e-06
1.43096e-06
8.64405e-07
4.71866e-07
2.33038e-07
1.04578e-07
4.28587e-08
1.61591e-08
5.62968e-09
1.81107e-09
5.8064e-10
1.66838e-10
6.14666e-11
4.50023e-11
1.86595e-11
-1.09762e-12
3.95142e-11
1.31714e-11
3.62214e-11
4.71976e-11
3.18309e-11
3.84166e-11
1.64643e-11
3.29285e-11
5.48809e-12
-2.19523e-12
1.20738e-11
1.86595e-11
2.305e-11
2.08547e-11
1.09762e-12
5.48809e-12
4.39047e-12
1.4269e-11
-1.09762e-11
0
0
-2.19523e-12
-1.09762e-12
0
-3.29285e-12
0
4.39047e-12
-4.39047e-12
-2.19523e-12
-1.31714e-11
-5.48809e-12
6.5857e-12
-1.09762e-12
-5.48809e-12
2.19523e-12
0.000152059
0.000409193
0.000552699
0.000575318
0.000517112
0.000429269
0.000346345
0.000280272
0.000228638
0.000185106
0.000145641
0.00010987
7.9377e-05
5.54066e-05
3.77926e-05
2.53196e-05
1.65932e-05
1.05601e-05
6.53023e-06
3.99878e-06
2.52375e-06
1.71012e-06
1.24516e-06
9.28088e-07
6.67235e-07
4.44376e-07
2.69001e-07
1.47154e-07
7.28159e-08
3.27485e-08
1.34458e-08
5.07758e-09
1.77485e-09
5.90518e-10
1.70131e-10
3.7319e-11
2.19524e-12
1.31714e-11
-5.48809e-12
1.20738e-11
2.19523e-12
6.58571e-12
1.4269e-11
4.60999e-11
3.62214e-11
3.51238e-11
6.5857e-12
0
2.41476e-11
8.78094e-12
2.08547e-11
2.19524e-11
2.305e-11
1.09762e-12
-2.19524e-12
1.4269e-11
1.31714e-11
2.19524e-12
2.19523e-12
0
0
-2.19523e-12
2.19524e-12
8.78094e-12
3.29285e-12
-1.09762e-12
0
-1.20738e-11
1.09762e-12
0
-1.64643e-11
-9.87856e-12
1.09762e-12
-7.68332e-12
0
8.42526e-05
0.000225094
0.000299263
0.000303179
0.000261376
0.000204778
0.000154107
0.000116347
8.97148e-05
6.98685e-05
5.35823e-05
3.96449e-05
2.81126e-05
1.92236e-05
1.28223e-05
8.40157e-06
5.39541e-06
3.37177e-06
2.04867e-06
1.23094e-06
7.61059e-07
5.06047e-07
3.63837e-07
2.69678e-07
1.93658e-07
1.29106e-07
7.8281e-08
4.28905e-08
2.12674e-08
9.59757e-09
3.95801e-09
1.49496e-09
5.02709e-10
1.64643e-10
3.07333e-11
1.09762e-11
-8.78094e-12
1.20738e-11
1.75619e-11
3.51238e-11
5.48809e-12
7.68332e-12
-2.41476e-11
0
2.52452e-11
1.75619e-11
-7.68332e-12
-2.19524e-12
1.31714e-11
1.86595e-11
5.48809e-12
1.09762e-11
-1.20738e-11
-8.78094e-12
0
-2.08547e-11
-4.39047e-12
-4.39047e-12
1.09762e-12
0
0
-2.19523e-12
4.39047e-12
0
5.48809e-12
0
-1.09762e-12
0
6.58571e-12
1.53666e-11
5.48809e-12
-5.48809e-12
-8.78094e-12
1.09762e-12
-4.39047e-12
4.29235e-05
0.000114155
0.000150225
0.000149445
0.000125054
9.36358e-05
6.62687e-05
4.66459e-05
3.3728e-05
2.50364e-05
1.86004e-05
1.34625e-05
9.36818e-06
6.28147e-06
4.10113e-06
2.62934e-06
1.65465e-06
1.01541e-06
6.06405e-07
3.57697e-07
2.16655e-07
1.41241e-07
1.0012e-07
7.36655e-08
5.27921e-08
3.52138e-08
2.13728e-08
1.17215e-08
5.83274e-09
2.64745e-09
1.10969e-09
4.37949e-10
1.39397e-10
2.96357e-11
4.39047e-12
1.4269e-11
7.68332e-12
4.39047e-12
2.08547e-11
1.20738e-11
6.5857e-12
-2.19523e-12
-1.20738e-11
-6.5857e-12
4.39047e-12
-5.48809e-12
3.29285e-12
2.41476e-11
7.68332e-12
2.305e-11
-4.39047e-12
-7.68332e-12
-2.19523e-12
-3.29285e-12
2.19523e-12
0
-1.4269e-11
-1.09762e-12
-1.09762e-12
0
-1.09762e-12
4.39047e-12
0
-1.09762e-12
0
-4.39047e-12
-1.09762e-12
-1.09762e-12
0
6.5857e-12
8.78094e-12
-2.19523e-12
-4.39047e-12
8.78094e-12
0
2.00181e-05
5.30877e-05
6.94132e-05
6.82388e-05
5.59514e-05
4.05277e-05
2.7293e-05
1.80171e-05
1.21816e-05
8.55337e-06
6.1146e-06
4.31353e-06
2.94284e-06
1.93597e-06
1.23849e-06
7.77468e-07
4.79556e-07