/*--------------------------------*- C++ -*----------------------------------*\
  =========                 |
  \\      /  F ield         | OpenFOAM: The Open Source CFD Toolbox
   \\    /   O peration     | Website:  https://openfoam.org
    \\  /    A nd           | Version:  10
     \\/     M anipulation  |
\*---------------------------------------------------------------------------*/
FoamFile
{
    format      ascii;
    class       volScalarField;
    location    "330";
    object      gradTx;
}
// * * * * * * * * * * * * * * * * * * * * * * * * * * * * * * * * * * * * * //

dimensions      [0 -1 0 1 0 0 0];

internalField   nonuniform List<scalar> 
11250
(
14299.8
8103.88
5310.1
3827.35
2929.29
2328.81
1897.48
1571.21
1314.95
1108.07
937.683
795.28
675.026
572.745
485.35
410.476
346.265
291.21
244.068
203.786
169.462
140.314
115.657
94.8859
77.4687
62.934
50.8659
40.8983
32.7099
26.0204
20.5863
16.1973
12.6731
9.85995
7.62784
5.86738
4.48732
3.41206
2.57941
1.93859
1.44845
1.07589
0.794448
0.583169
0.425546
0.308687
0.222589
0.159551
0.113684
0.0805206
0.0566911
0.0396754
0.027601
0.0190864
0.0131195
0.00896404
0.0060881
0.00411007
0.00275808
0.00183972
0.00121979
0.000803897
0.000526623
0.000342909
0.000221939
0.000142775
9.12874e-05
5.80026e-05
3.66097e-05
2.29302e-05
1.42121e-05
8.64817e-06
5.04913e-06
2.62083e-06
8.09519e-07
4095.67
4702.72
4000.65
3244.85
2634.43
2162.9
1796.1
1505.23
1269.89
1076.15
914.405
777.921
661.851
562.609
477.467
404.295
341.389
287.347
240.997
201.34
167.513
138.761
114.42
93.9026
76.6884
62.3162
50.3782
40.5145
32.4089
25.7852
20.4033
16.0555
12.5637
9.77594
7.56363
5.81854
4.45036
3.38422
2.55855
1.92304
1.43693
1.06739
0.788219
0.578626
0.422252
0.306311
0.220885
0.158336
0.112823
0.0799131
0.0562652
0.0393786
0.0273953
0.0189447
0.0130225
0.00889795
0.00604336
0.00407997
0.00273794
0.00182632
0.00121093
0.000798074
0.000522818
0.000340438
0.000220343
0.000141751
9.06341e-05
5.75884e-05
3.63489e-05
2.27672e-05
1.41113e-05
8.58695e-06
5.0135e-06
2.60236e-06
8.03847e-07
1476.13
2611.64
2746.51
2519.15
2203.42
1895.45
1622.43
1387.73
1187.56
1016.76
870.545
744.906
636.617
543.086
462.22
392.3
331.9
279.811
234.996
196.555
163.695
135.715
111.992
91.9704
75.1538
61.1005
49.4179
39.7584
31.8157
25.3216
20.0424
15.7757
12.3478
9.61011
7.43685
5.72209
4.37734
3.32923
2.51734
1.89233
1.41416
1.0506
0.775903
0.569643
0.415736
0.301611
0.217514
0.155931
0.111118
0.078711
0.0554224
0.0387911
0.0269882
0.0186642
0.0128303
0.00876711
0.00595477
0.00402034
0.00269804
0.00179978
0.00119338
0.000786538
0.00051528
0.000335541
0.000217181
0.000139721
8.93392e-05
5.67674e-05
3.58317e-05
2.2444e-05
1.39114e-05
8.46553e-06
4.9427e-06
2.56565e-06
7.92525e-07
673.674
1522.16
1856.15
1883.97
1767.33
1596.23
1414.05
1239.64
1080.1
937.264
810.721
699.233
601.327
515.553
440.571
375.177
318.295
268.967
226.336
189.631
158.158
131.29
108.46
89.1557
72.9158
59.3258
48.0148
38.6528
30.9477
24.6428
19.5137
15.3657
12.0313
9.36687
7.25082
5.58051
4.27013
3.24846
2.45681
1.8472
1.38069
1.02592
0.757797
0.556434
0.406154
0.294698
0.212555
0.152394
0.108609
0.0769419
0.054182
0.0379264
0.0263889
0.0182512
0.0125474
0.00857443
0.00582431
0.00393252
0.00263927
0.00176069
0.00116752
0.000769541
0.000504172
0.000328325
0.000212521
0.00013673
8.74307e-05
5.55573e-05
3.50695e-05
2.19675e-05
1.36166e-05
8.28646e-06
4.83831e-06
2.51153e-06
7.75793e-07
370.389
948.098
1273.5
1395.35
1388.33
1311.2
1201.43
1080.56
960.113
845.848
740.366
644.576
558.516
481.787
413.79
353.843
301.246
255.314
215.388
180.849
151.116
125.648
103.947
85.5527
70.0467
57.0475
46.2114
37.2303
29.8298
23.7678
18.8317
14.8365
11.6224
9.05255
7.01031
5.39739
4.13141
3.14391
2.37842
1.78874
1.33733
0.993924
0.734324
0.539307
0.393726
0.285731
0.206121
0.147804
0.105353
0.0746454
0.0525716
0.0368037
0.0256106
0.0177149
0.0121799
0.00832412
0.00565481
0.00381842
0.00256291
0.00170989
0.00113392
0.000747449
0.000489733
0.000318944
0.000206463
0.000132841
8.49491e-05
5.39837e-05
3.40782e-05
2.13478e-05
1.32332e-05
8.05352e-06
4.70251e-06
2.44114e-06
7.54076e-07
230.478
627.245
895.905
1037.64
1082.01
1061.82
1003.35
924.837
837.991
749.913
664.721
584.666
510.859
443.727
383.295
329.348
281.535
239.437
202.595
170.545
142.824
118.985
98.6032
81.2775
66.6355
54.3342
44.0605
35.5314
28.4932
22.7205
18.0147
14.2019
11.1319
8.67511
6.72133
5.17724
3.96455
3.01809
2.28405
1.71834
1.28508
0.955367
0.706025
0.518652
0.378734
0.274911
0.198356
0.142263
0.101422
0.0718723
0.0506266
0.0354473
0.0246703
0.0170668
0.0117358
0.00802158
0.00544991
0.00368046
0.00247057
0.00164845
0.00109328
0.000720727
0.000472267
0.000307595
0.000199132
0.000128135
8.19459e-05
5.20791e-05
3.28783e-05
2.05976e-05
1.27691e-05
7.77155e-06
4.5381e-06
2.35588e-06
7.27762e-07
155.052
435.376
646.668
779.278
842.717
853.646
828.613
781.1
721.019
655.214
588.198
522.836
460.863
403.259
350.508
302.766
259.98
221.96
188.436
159.087
133.566
111.52
92.5986
76.4607
62.7835
51.264
41.6223
33.6026
26.9736
21.5284
17.0836
13.4781
10.5718
8.24382
6.39088
4.92532
3.77349
2.87395
2.17588
1.6376
1.22515
0.911115
0.673534
0.494929
0.361511
0.262476
0.18943
0.135892
0.0969005
0.0686819
0.0483885
0.0338864
0.0235879
0.0163206
0.0112244
0.00767313
0.00521389
0.00352153
0.00236418
0.00157765
0.00104645
0.000689926
0.000452131
0.00029451
0.00019068
0.000122707
7.84822e-05
4.98823e-05
3.14942e-05
1.97322e-05
1.22335e-05
7.44618e-06
4.34839e-06
2.25749e-06
6.97373e-07
109.687
313.382
477.497
591.985
658.308
684.243
679.545
653.435
613.535
565.682
514.109
461.774
410.663
362.059
316.738
275.118
237.373
203.502
173.391
146.848
123.634
103.481
86.11
71.2405
58.598
47.9205
38.9618
31.4942
25.3099
20.2214
16.0614
12.6825
9.95554
7.76886
6.02665
4.64744
3.5626
2.71474
2.05633
1.54831
1.15883
0.862131
0.637554
0.468648
0.342422
0.248691
0.179531
0.128824
0.0918833
0.0651408
0.0459037
0.0321529
0.0223856
0.0154916
0.0106561
0.00728586
0.00495152
0.00334483
0.00224587
0.0014989
0.000994348
0.000655659
0.000429727
0.000279949
0.000181273
0.000116666
7.46264e-05
4.74365e-05
2.99529e-05
1.87683e-05
1.1637e-05
7.08372e-06
4.13705e-06
2.14789e-06
6.63534e-07
80.2724
231.768
359.274
454.669
516.555
548.149
554.93
542.902
517.597
483.643
444.683
403.451
361.931
321.507
283.105
247.305
214.435
184.635
157.915
134.19
113.312
95.0912
79.3141
65.7555
54.1879
44.3888
36.1453
29.2577
23.542
18.8303
14.972
11.8335
9.29716
7.26088
5.63672
4.3497
3.33644
2.54388
1.92795
1.45238
1.08753
0.80944
0.598831
0.440351
0.321861
0.233836
0.16886
0.121203
0.0864711
0.0613199
0.0432218
0.0302814
0.0210873
0.0145961
0.0100422
0.00686737
0.00466794
0.0031538
0.00211795
0.00141375
0.000937996
0.00061859
0.000405486
0.000264192
0.000171092
0.000110127
7.0452e-05
4.47881e-05
2.82839e-05
1.77244e-05
1.09909e-05
6.69106e-06
3.90805e-06
2.02915e-06
6.26889e-07
60.1617
174.906
274.412
352.576
407.242
439.405
452.002
448.814
433.707
410.19
381.222
349.173
315.868
282.658
250.508
220.077
191.784
165.863
142.416
121.441
102.864
86.5617
72.3784
60.1386
49.6582
40.7516
33.2378
26.9441
21.7096
17.386
13.8392
10.9494
8.6107
6.73063
5.22927
4.03828
3.09969
2.36488
1.79335
1.35172
1.01268
0.754087
0.55813
0.410593
0.300228
0.218199
0.157623
0.113174
0.0807679
0.0572921
0.0403938
0.0283074
0.0197175
0.0136511
0.00939406
0.00642549
0.00436845
0.00295201
0.0019828
0.00132376
0.000878433
0.0005794
0.000379855
0.000247528
0.000160323
0.000103209
6.60352e-05
4.19856e-05
2.65173e-05
1.66194e-05
1.03069e-05
6.27526e-06
3.66551e-06
1.90337e-06
5.88061e-07
45.8701
133.999
212.07
275.596
322.451
352.616
367.568
369.627
361.429
345.553
324.318
299.688
273.253
246.253
219.618
194.02
169.919
147.607
127.243
108.887
92.5232
78.0818
65.4554
54.5122
45.1065
37.0865
30.3005
24.6016
19.8505
15.918
12.6859
10.048
7.90981
6.18855
4.81227
3.71922
2.8569
2.18114
1.65508
1.24824
0.935676
0.69711
0.516209
0.379927
0.277923
0.20207
0.146026
0.104885
0.0748772
0.0531303
0.0374707
0.0262663
0.0183006
0.0126734
0.00872334
0.00596808
0.00405836
0.00274303
0.00184279
0.00123052
0.000816707
0.000538779
0.000353282
0.000230249
0.000149154
9.60337e-05
6.14528e-05
3.90776e-05
2.4684e-05
1.54724e-05
9.59669e-06
5.84354e-06
3.41368e-06
1.7727e-06
5.47699e-07
35.4147
103.818
165.374
216.795
256.24
283.273
298.558
303.486
299.821
289.422
274.06
255.312
234.516
212.758
190.891
169.557
149.22
130.195
112.677
96.7652
82.4869
69.8138
58.678
48.9841
40.6198
33.4631
27.3892
22.2742
17.9995
14.4535
11.5333
9.14571
7.20728
5.64449
4.39323
3.39824
2.61241
1.99594
1.51558
1.14376
0.857872
0.639499
0.473796
0.348881
0.25533
0.185723
0.134268
0.0964762
0.0688992
0.0489052
0.034502
0.0241927
0.0168607
0.0116794
0.00804126
0.00550279
0.00374283
0.00253033
0.00170026
0.00113557
0.000753838
0.000497398
0.000326206
0.000212639
0.000137769
8.87176e-05
5.678e-05
3.61116e-05
2.28138e-05
1.43021e-05
8.87198e-06
5.40293e-06
3.15662e-06
1.63932e-06
5.06518e-07
27.5942
81.105
129.837
171.37
204.197
227.749
242.256
248.526
247.726
241.176
230.205
216.053
199.815
182.414
164.603
146.968
129.952
113.87
98.9319
85.2612
72.9134
61.8909
52.1566
43.6453
36.2723
29.9418
24.5522
20.0008
16.1875
13.017
10.4007
8.25758
6.51469
5.10738
3.97902
3.0806
2.37019
1.81229
1.37712
1.03997
0.780518
0.58218
0.431568
0.317952
0.232808
0.169419
0.122534
0.0880809
0.0629279
0.044683
0.0315341
0.0221188
0.0154202
0.0106847
0.00735841
0.00503683
0.00342676
0.00231721
0.00155741
0.00104039
0.000690796
0.000455892
0.000299043
0.000194968
0.000126342
8.13734e-05
5.20882e-05
3.31329e-05
2.09352e-05
1.31264e-05
8.1438e-06
4.96011e-06
2.89823e-06
1.5053e-06
4.65152e-07
21.6435
63.7441
102.441
135.943
163.046
183.183
196.358
203.025
203.944
200.046
192.315
181.711
169.113
155.288
140.88
126.409
112.28
98.7934
86.1587
74.5105
63.9216
54.4156
45.9786
38.5688
32.1248
26.5723
21.83
17.814
14.4405
11.6293
9.30451
7.39653
5.84217
4.58508
3.57569
2.77092
2.13378
1.63285
1.24171
0.938379
0.704737
0.525983
0.390137
0.287586
0.210683
0.153393
0.110993
0.0798198
0.0570492
0.0405243
0.0286097
0.0200745
0.0139995
0.00970335
0.00668455
0.00457686
0.00311465
0.00210669
0.00141626
0.00094632
0.000628474
0.00041485
0.000272177
0.000177487
0.000115036
7.41044e-05
4.74435e-05
3.01836e-05
1.90748e-05
1.19617e-05
7.42236e-06
4.52137e-06
2.6422e-06
1.37245e-06
4.24101e-07
17.0553
50.3117
81.1046
108.098
130.344
147.331
158.955
165.457
167.327
165.216
159.848
151.956
142.236
131.314
119.73
107.934
96.284
85.0562
74.4506
64.6028
55.5941
47.4617
40.2083
33.81
28.2238
23.3935
19.255
15.7401
12.78
10.3074
8.25837
6.57336
5.19819
4.0842
3.18838
2.47317
1.90621
1.45993
1.11109
0.840286
0.631505
0.471632
0.350037
0.258175
0.189239
0.13785
0.099795
0.0717992
0.0513387
0.0364827
0.0257663
0.018086
0.0126171
0.00874803
0.00602832
0.00412876
0.0028105
0.00190148
0.00127863
0.000854567
0.00056767
0.000374798
0.000245951
0.000160418
0.000103993
6.70038e-05
4.29054e-05
2.73012e-05
1.72562e-05
1.08231e-05
6.71689e-06
4.09221e-06
2.3917e-06
1.24245e-06
3.83938e-07
13.4815
39.8208
64.3534
86.0767
104.25
118.434
128.483
134.51
136.829
135.891
132.225
126.389
118.927
110.341
101.078
91.519
81.9749
72.691
63.8517
55.5869
47.9801
41.0761
34.8887
29.4071
24.6027
20.4339
16.8508
13.7991
11.2223
9.06481
7.27299
5.79661
4.58953
3.61009
2.82124
2.19056
1.68995
1.29543
0.986695
0.746781
0.561634
0.419733
0.311716
0.230048
0.168717
0.122967
0.0890648
0.0641096
0.0458609
0.0326039
0.0230361
0.0161757
0.0112886
0.00782958
0.00539716
0.00369763
0.00251777
0.00170391
0.00114608
0.000766173
0.000509076
0.00033619
0.000220665
0.000143956
9.33411e-05
6.01523e-05
3.85255e-05
2.45187e-05
1.55003e-05
9.72344e-06
6.0354e-06
3.67754e-06
2.14961e-06
1.11679e-06
3.45144e-07
10.6763
31.5684
51.1217
68.5797
83.3655
95.1126
103.668
109.07
111.517
111.323
108.871
104.582
98.8775
92.1586
84.7888
77.0848
69.3119
61.684
54.3658
47.4776
41.1004
35.2822
30.0434
25.3826
21.2821
17.7119
14.6337
12.0046
9.77887
7.9109
6.35618
5.07262
4.02127
3.16675
2.47746
1.92557
1.48693
1.14082
0.869658
0.658718
0.49577
0.370767
0.275532
0.20347
0.149312
0.108883
0.078905
0.0568244
0.0406683
0.0289251
0.0204454
0.0143622
0.0100268
0.00695689
0.00479722
0.00328767
0.00223931
0.0015159
0.00101991
0.000682005
0.000453267
0.000299406
0.000196567
0.000128264
8.31838e-05
5.36176e-05
3.4347e-05
2.18636e-05
1.38243e-05
8.67357e-06
5.38463e-06
3.28153e-06
1.91838e-06
9.96724e-07
3.08036e-07
8.46185
25.0424
40.6228
54.6295
66.6139
76.2764
83.4719
88.2
90.5824
90.835
89.2375
86.1046
81.7619
76.5254
70.6884
64.5109
58.2157
51.9856
45.965
40.262
34.9523
30.0835
25.6797
21.7458
18.2719
15.2371
12.6126
10.3646
8.45675
6.85175
5.51302
4.40559
3.49685
2.75698
2.15924
1.67997
1.29853
0.997171
0.760802
0.576727
0.43439
0.325095
0.241753
0.178639
0.131168
0.0957064
0.0693935
0.0499999
0.0358014
0.0254751
0.0180146
0.0126599
0.00884172
0.00613694
0.0042333
0.00290217
0.00197736
0.00133898
0.000901135
0.000602749
0.000400697
0.000264748
0.000173855
0.00011347
7.36054e-05
4.74537e-05
3.04046e-05
1.93579e-05
1.22422e-05
7.68233e-06
4.77008e-06
2.90745e-06
1.69993e-06
8.833e-07
2.72984e-07
6.70661
19.8624
32.2662
43.4817
53.1604
61.0603
67.0526
71.1158
73.3233
73.8235
72.8189
70.5451
67.2515
63.186
58.5825
53.6527
48.5809
43.5214
38.5981
33.9061
29.5142
25.4674
21.7912
18.4943
15.5724
13.0115
10.7902
8.88232
7.25901
5.89024
4.74611
3.79779
3.01818
2.38239
1.86792
1.45482
1.1256
0.865167
0.660659
0.501223
0.37781
0.282956
0.210562
0.155691
0.114389
0.083512
0.060585
0.0436759
0.0312887
0.0222744
0.0157582
0.0110789
0.00774066
0.00537476
0.00370888
0.00254353
0.00173357
0.00117426
0.000790516
0.000528908
0.000351704
0.000232437
0.000152675
9.96694e-05
6.46681e-05
4.17008e-05
2.67241e-05
1.7018e-05
1.07645e-05
6.75628e-06
4.19581e-06
2.55779e-06
1.49569e-06
7.77269e-07
2.40229e-07
5.31162
15.7407
25.6017
34.5617
42.3502
48.7738
53.7216
57.1634
59.1414
59.7573
59.1577
57.5182
55.0294
51.8843
48.2683
44.352
40.2864
36.1996
32.1969
28.3602
24.7504
21.409
18.3607
15.6166
13.1763
11.0305
9.16393
7.55641
6.18527
5.0265
4.05586
3.24976
2.58588
2.04355
1.60403
1.25059
0.968534
0.745134
0.569497
0.432418
0.326201
0.244485
0.18206
0.134706
0.0990326
0.0723435
0.0525122
0.0378764
0.0271477
0.0193357
0.0136855
0.00962578
0.00672816
0.00467355
0.00322621
0.00221329
0.00150901
0.00102248
0.000688543
0.000460815
0.00030651
0.000202622
0.000133124
8.69276e-05
5.64138e-05
3.63861e-05
2.33231e-05
1.48552e-05
9.39826e-06
5.89986e-06
3.66456e-06
2.2343e-06
1.30671e-06
6.79139e-07
2.09926e-07
4.20124
12.4568
20.2816
27.4212
33.666
38.8623
42.917
45.7977
47.527
48.1744
47.8458
46.672
44.798
42.3733
39.544
36.4464
33.203
29.9193
26.6832
23.5643
20.6156
17.874
15.363
13.0943
11.0699
9.28457
7.72702
6.38216
5.2323
4.25835
3.44084
2.7606
2.19938
1.74014
1.36739
1.0672
0.827324
0.637088
0.487348
0.37035
0.2796
0.209714
0.156278
0.115707
0.0851191
0.0622171
0.0451875
0.0326109
0.0233857
0.0166645
0.0118003
0.00830348
0.00580635
0.00403485
0.00278636
0.00191224
0.0013042
0.000883991
0.00059547
0.000398643
0.000265231
0.000175382
0.000115257
7.52788e-05
4.88655e-05
3.15246e-05
2.02112e-05
1.28758e-05
8.14756e-06
5.11566e-06
3.17802e-06
1.93798e-06
1.13355e-06
5.89199e-07
1.82152e-07
3.31691
9.83919
16.0341
21.707
26.6955
30.8782
34.1784
36.5648
38.0481
38.6757
38.5238
37.6898
36.2836
34.4206
32.2152
29.7756
27.2003
24.5752
21.973
19.4522
17.0578
14.8224
12.7671
10.9037
9.23567
7.76018
6.46945
5.35215
4.39461
3.5818
2.89815
2.32823
1.85718
1.47111
1.15726
0.904142
0.701605
0.540781
0.414042
0.314906
0.23793
0.178594
0.133182
0.0986741
0.0726356
0.0531248
0.0386062
0.0278766
0.0200012
0.0142598
0.0101023
0.00711184
0.0049752
0.00345868
0.00238941
0.00164041
0.0011192
0.000758851
0.000511336
0.000342422
0.000227891
0.000150732
9.90832e-05
6.47312e-05
4.20287e-05
2.71201e-05
1.73912e-05
1.10815e-05
7.01353e-06
4.40445e-06
2.7367e-06
1.66911e-06
9.76383e-07
5.07567e-07
1.56895e-07
2.61279
7.75358
12.6452
17.1386
21.1084
24.459
27.128
29.0871
30.34
30.9186
30.8779
30.2902
29.2387
27.8121
26.0994
24.1861
22.1506
20.0625
17.9812
15.9551
14.0222
12.2105
10.5388
9.01801
7.65255
6.44126
5.37886
4.45696
3.66508
2.99146
2.42376
1.94962
1.55706
1.2348
0.972421
0.76052
0.590735
0.455749
0.349247
0.265848
0.201023
0.151005
0.112689
0.0835478
0.0615408
0.0450379
0.0327486
0.0236601
0.0169849
0.0121154
0.0085872
0.00604802
0.00423283
0.00294381
0.00203451
0.00139728
0.000953659
0.000646828
0.000435992
0.000292056
0.000194428
0.000128634
8.45796e-05
5.52698e-05
3.58941e-05
2.31668e-05
1.48592e-05
9.47009e-06
5.99483e-06
3.76542e-06
2.34003e-06
1.4274e-06
8.35122e-07
4.34168e-07
1.34216e-07
2.0527
6.0936
9.94476
13.4921
16.6387
19.3099
21.4555
23.0507
24.0953
24.6106
24.6364
24.2261
23.4426
22.3537
21.0286
19.5342
17.9327
16.2799
14.6238
13.0043
11.4529
9.99331
8.64187
7.40858
6.29797
5.31008
4.44141
3.68585
3.03541
2.48097
2.01281
1.6211
1.29624
1.02913
0.811326
0.63518
0.493858
0.381361
0.2925
0.222838
0.168635
0.126771
0.0946727
0.0702384
0.0517708
0.0379113
0.0275829
0.0199392
0.0143214
0.0102207
0.00724779
0.00510702
0.00357581
0.00248792
0.00172011
0.00118181
0.000806884
0.000547464
0.000369136
0.000247348
0.000164713
0.000109005
7.16918e-05
4.68599e-05
3.04397e-05
1.96508e-05
1.26068e-05
8.0362e-06
5.08811e-06
3.19646e-06
1.98677e-06
1.21211e-06
7.09284e-07
3.68794e-07
1.14034e-07
1.60789
4.77458
7.79679
10.5872
13.0714
15.1908
16.9056
18.1948
19.0559
19.5034
19.5655
19.2821
18.7003
17.872
16.8505
15.6881
14.4337
13.1318
11.8209
10.5334
9.29521
8.12616
7.04021
6.04622
5.1486
4.34808
3.64247
3.02733
2.49665
2.04339
1.65994
1.33855
1.07157
0.851707
0.67217
0.526769
0.409963
0.316868
0.243247
0.185469
0.140467
0.105676
0.0789755
0.0586326
0.0432447
0.0316874
0.0230682
0.0166851
0.0119905
0.00856164
0.00607425
0.00428209
0.00299955
0.00208785
0.00144409
0.000992544
0.000677909
0.000460114
0.00031034
0.000208015
0.000138561
9.17237e-05
6.03421e-05
3.94512e-05
2.56332e-05
1.65516e-05
1.06208e-05
6.77162e-06
4.28826e-06
2.69445e-06
1.67504e-06
1.0221e-06
5.98162e-07
3.11049e-07
9.61656e-08
1.25536
3.72875
6.0922
8.27903
10.2319
11.9056
13.2684
14.3029
15.0058
15.3865
15.4655
15.272
14.8416
14.2136
13.4291
12.5287
11.5506
10.53
9.49757
8.47947
7.49681
6.56588
5.69846
4.90221
4.18125
3.53668
2.9672
2.46966
2.03955
1.67148
1.35954
1.09763
0.879715
0.699984
0.553008
0.433818
0.337944
0.261441
0.200872
0.153286
0.116185
0.0874734
0.0654189
0.0486012
0.0358694
0.0262995
0.0191572
0.0138641
0.00996865
0.00712161
0.00505507
0.00356527
0.00249853
0.00173985
0.00120388
0.00082776
0.000565566
0.000383997
0.000259085
0.000173714
0.000115747
7.66428e-05
5.04342e-05
3.29817e-05
2.14347e-05
1.38437e-05
8.88507e-06
5.66607e-06
3.58883e-06
2.25537e-06
1.40229e-06
8.55786e-07
5.00876e-07
2.60462e-07
8.05399e-08
0.976682
2.90169
4.74314
6.4502
7.97893
9.29428
10.3713
11.196
11.7645
12.0831
12.1665
12.0362
11.7189
11.2445
10.6443
9.94969
9.19047
8.39421
7.58528
6.78449
6.0089
5.27182
4.58301
3.94902
3.37351
2.85776
2.40108
2.00125
1.65493
1.358
1.10592
0.893924
0.717256
0.571331
0.451833
0.354797
0.276647
0.214212
0.164726
0.125806
0.0954305
0.0719016
0.0538116
0.0400051
0.0295444
0.0216754
0.0157983
0.0114397
0.00822989
0.00588246
0.00417754
0.00294774
0.00206669
0.00143975
0.000996628
0.000685521
0.000468553
0.000318239
0.000214788
0.000144058
9.60153e-05
6.3595e-05
4.18592e-05
2.73808e-05
1.77989e-05
1.14981e-05
7.38109e-06
4.70788e-06
2.98246e-06
1.87461e-06
1.16572e-06
7.11475e-07
4.16471e-07
2.16607e-07
6.70008e-08
0.75703
2.24959
3.67875
5.00584
6.19726
7.22601
8.07263
8.72569
9.18171
9.44468
9.52509
9.43884
9.20583
8.84866
8.39123
7.8576
7.27093
6.65269
6.02205
5.39551
4.78671
4.20641
3.66263
3.16083
2.70423
2.29411
1.93019
1.61093
1.33388
1.09592
0.893552
0.723091
0.580822
0.463141
0.366641
0.288179
0.224911
0.174306
0.134152
0.102539
0.0778413
0.0586926
0.0439569
0.032701
0.0241658
0.0177404
0.0129378
0.0093737
0.00674721
0.00482517
0.00342836
0.00242024
0.00169761
0.00118313
0.000819323
0.00056378
0.000385484
0.000261909
0.000176828
0.000118635
7.90937e-05
5.24017e-05
3.45006e-05
2.2573e-05
1.46769e-05
9.4833e-06
6.08898e-06
3.88447e-06
2.46125e-06
1.54727e-06
9.62298e-07
5.8738e-07
3.43874e-07
1.78863e-07
5.53078e-08
0.58447
1.73714
2.84181
3.86913
4.79349
5.59417
6.25605
6.77003
7.13296
7.34736
7.42075
7.36479
7.19433
6.92639
6.57911
6.17091
5.71963
5.24192
4.75276
4.26513
3.78986
3.33557
2.90875
2.51393
2.15384
1.82972
1.54153
1.28823
1.068
0.87853
0.717135
0.580974
0.467166
0.372896
0.295491
0.232475
0.181601
0.140863
0.108503
0.0830007
0.0630573
0.0475802
0.0356595
0.0265461
0.01963
0.0144194
0.0105221
0.00762773
0.0054934
0.00393053
0.00279408
0.00197339
0.0013848
0.000965529
0.000668901
0.00046045
0.000314946
0.000214057
0.000144568
9.70215e-05
6.47029e-05
4.28791e-05
2.82383e-05
1.84802e-05
1.20185e-05
7.76725e-06
4.98812e-06
3.18277e-06
2.01698e-06
1.26818e-06
7.88819e-07
4.81576e-07
2.8195e-07
1.46642e-07
4.53371e-08
0.449391
1.33589
2.18614
2.97792
3.69179
4.31189
4.82657
5.22862
5.51533
5.68825
5.75274
5.71736
5.59315
5.39287
5.13027
4.81935
4.4738
4.10646
3.72896
3.35144
2.98242
2.62876
2.29567
1.98684
1.70458
1.44998
1.22317
1.02345
0.849513
0.699614
0.571728
0.463676
0.373234
0.298217
0.236541
0.186269
0.145636
0.113062
0.0871606
0.0667268
0.0507319
0.0383077
0.02873
0.0214018
0.015836
0.0116396
0.00849856
0.00616426
0.00444179
0.00317973
0.00226146
0.00159796
0.00112184
0.000782514
0.000542328
0.000373464
0.00025554
0.000173741
0.000117377
7.87976e-05
5.25647e-05
3.48444e-05
2.29528e-05
1.50248e-05
9.77345e-06
6.31762e-06
4.05794e-06
2.58968e-06
1.64138e-06
1.03218e-06
6.42133e-07
3.92089e-07
2.29569e-07
1.1941e-07
3.69239e-08
0.344056
1.02292
1.67449
2.28199
2.83071
3.30858
3.70665
4.01926
4.24415
4.38225
4.43736
4.41575
4.3256
4.17646
3.97869
3.7429
3.47953
3.19842
2.90856
2.61782
2.33286
2.05908
1.80062
1.56046
1.34051
1.14174
0.964331
0.807838
0.671321
0.553485
0.452801
0.36761
0.296205
0.236901
0.188083
0.148243
0.116006
0.0901351
0.0695417
0.0532796
0.0405382
0.0306323
0.0229893
0.0171366
0.012688
0.00933142
0.0068172
0.00494745
0.00356688
0.0025547
0.00181781
0.00128507
0.000902569
0.000629833
0.000436685
0.000300828
0.000205914
0.000140048
9.46448e-05
6.3556e-05
4.24093e-05
2.81201e-05
1.8528e-05
1.21311e-05
7.89284e-06
5.10299e-06
3.27837e-06
2.09252e-06
1.32648e-06
8.34263e-07
5.19083e-07
3.16956e-07
1.85573e-07
9.65442e-08
2.98706e-08
0.262251
0.779816
1.27689
1.74085
2.16061
2.52702
2.83324
3.07489
3.25008
3.35936
3.40543
3.39286
3.3277
3.21707
3.06873
2.89071
2.69091
2.47685
2.25542
2.03268
1.81382
1.60305
1.40364
1.21797
1.04759
0.893334
0.755415
0.633552
0.527074
0.435028
0.356266
0.28953
0.233521
0.186944
0.148556
0.117192
0.0917853
0.0713744
0.0551107
0.0422552
0.0321737
0.0243288
0.0182709
0.0136282
0.0100967
0.00743004
0.00543122
0.00394376
0.00284476
0.00203852
0.00145121
0.00102638
0.000721192
0.000503472
0.000349213
0.00024066
0.000164787
0.000112114
7.57913e-05
5.09106e-05
3.39809e-05
2.25374e-05
1.48532e-05
9.72722e-06
6.33015e-06
4.09345e-06
2.63026e-06
1.67914e-06
1.0646e-06
6.69617e-07
4.16672e-07
2.54441e-07
1.48987e-07
7.7505e-08
2.39654e-08
0.198991
0.591783
0.969241
1.32191
1.64146
1.92099
2.15529
2.34098
2.47656
2.5623
2.60013
2.59336
2.54646
2.46472
2.35392
2.22011
2.06925
1.90705
1.73875
1.56901
1.40183
1.24047
1.08749
0.944777
0.813574
0.694577
0.588007
0.493693
0.411161
0.339711
0.278488
0.226544
0.182893
0.146548
0.116559
0.0920298
0.0721377
0.0561409
0.0433819
0.0332871
0.0253634
0.0191922
0.0144229
0.0107649
0.00798018
0.005876
0.00429767
0.00312235
0.00225341
0.00161557
0.00115066
0.000814178
0.000572336
0.000399719
0.000277357
0.000191211
0.000130974
8.91386e-05
6.02782e-05
4.0502e-05
2.7041e-05
1.79392e-05
1.18256e-05
7.74619e-06
5.04198e-06
3.26107e-06
2.09575e-06
1.33812e-06
8.48496e-07
5.3377e-07
3.32166e-07
2.02874e-07
1.18817e-07
6.18189e-08
1.90887e-08
0.150289
0.446998
0.732276
0.999066
1.24113
1.45328
1.63158
1.77346
1.8777
1.94443
1.97502
1.97186
1.93825
1.87809
1.79569
1.69556
1.5822
1.4599
1.33264
1.20398
1.07696
0.954112
0.83742
0.728354
0.627912
0.536663
0.454812
0.382266
0.31869
0.263573
0.216282
0.176108
0.142306
0.114129
0.090852
0.0717927
0.0563203
0.0438653
0.0339217
0.0260472
0.0198608
0.0150386
0.0113089
0.00844592
0.00626488
0.00461566
0.00337774
0.00245531
0.00177291
0.0012717
0.00090617
0.000641469
0.000451121
0.00031519
0.000218788
0.000150889
0.00010339
7.03884e-05
4.76134e-05
3.20015e-05
2.13714e-05
1.41815e-05
9.35067e-06
6.12634e-06
3.98841e-06
2.5801e-06
1.6584e-06
1.05901e-06
6.71585e-07
4.22544e-07
2.62999e-07
1.60648e-07
9.40768e-08
4.89526e-08
1.51307e-08
0.112967
0.33603
0.550602
0.751437
0.933883
1.09407
1.22903
1.3368
1.41643
1.46797
1.49238
1.49139
1.4674
1.4233
1.36229
1.28771
1.20293
1.11118
1.01545
0.918435
0.822459
0.72945
0.640939
0.558069
0.481625
0.412068
0.349582
0.294118
0.245444
0.203191
0.166891
0.136016
0.110007
0.0883011
0.0703511
0.0556377
0.0436813
0.0340473
0.0263486
0.0202465
0.0154484
0.0117053
0.00880788
0.00658214
0.00488528
0.00360129
0.00263687
0.00191777
0.00138547
0.000994268
0.000708809
0.00050198
0.000353172
0.000246853
0.000171418
0.000118262
8.10617e-05
5.52048e-05
3.73538e-05
2.5113e-05
1.67755e-05
1.11345e-05
7.34327e-06
4.81214e-06
3.13339e-06
2.02732e-06
1.30331e-06
8.3236e-07
5.27917e-07
3.32174e-07
2.06764e-07
1.26307e-07
7.39739e-08
3.84715e-08
1.19157e-08
0.0845029
0.251385
0.411986
0.56242
0.699236
0.819551
0.921148
1.00254
1.063
1.10252
1.12176
1.12198
1.10494
1.07275
1.02777
0.972483
0.909388
0.840897
0.76926
0.6965
0.624373
0.554347
0.48759
0.424986
0.367146
0.314438
0.26702
0.224873
0.187837
0.155645
0.127955
0.104375
0.0844891
0.0678752
0.0541213
0.0428361
0.0336565
0.0262529
0.0203313
0.0156336
0.0119367
0.00905035
0.00681435
0.00509544
0.00378405
0.00279105
0.00204471
0.00148787
0.00107542
0.000772134
0.000550701
0.000390177
0.000274626
0.000192028
0.000133396
9.20635e-05
6.31253e-05
4.30032e-05
2.91063e-05
1.95736e-05
1.30785e-05
8.68272e-06
5.72756e-06
3.75408e-06
2.44488e-06
1.58209e-06
1.01723e-06
6.49751e-07
4.1216e-07
2.59348e-07
1.61413e-07
9.86045e-08
5.77621e-08
3.00396e-08
9.3067e-09
0.0628994
0.187134
0.306741
0.418856
0.520928
0.610822
0.686888
0.748012
0.793627
0.823704
0.83871
0.839552
0.827501
0.804103
0.771091
0.730298
0.683572
0.632706
0.579376
0.525097
0.471188
0.418758
0.368694
0.321671
0.278162
0.238457
0.202688
0.170854
0.142845
0.11847
0.0974781
0.0795823
0.0644734
0.0518373
0.0413658
0.0327654
0.025763
0.0201103
0.0155851
0.0119922
0.00916237
0.00695127
0.00523708
0.00391835
0.00291156
0.0021487
0.00157496
0.00114662
0.000829179
0.000595613
0.000424993
0.00030124
0.000212114
0.000148375
0.00010311
7.11857e-05
4.8826e-05
3.32723e-05
2.25266e-05
1.51529e-05
1.01272e-05
6.72489e-06
4.437e-06
2.90874e-06
1.89469e-06
1.22623e-06
7.88505e-07
5.0373e-07
3.19578e-07
2.01126e-07
1.25193e-07
7.64666e-08
4.47993e-08
2.332e-08
7.21025e-09
0.0465848
0.138607
0.227235
0.310365
0.386122
0.452931
0.509571
0.55521
0.589416
0.612149
0.623738
0.62483
0.616347
0.599412
0.575295
0.545339
0.510907
0.473323
0.43383
0.393554
0.353483
0.314445
0.277112
0.241995
0.209456
0.179722
0.152902
0.129001
0.107948
0.089604
0.0737891
0.0602918
0.0488844
0.0393343
0.0314125
0.0248999
0.0195926
0.0153045
0.0118688
0.0091386
0.00698663
0.00530387
0.00399832
0.00299325
0.0022254
0.0016432
0.00120506
0.000877763
0.000635056
0.000456381
0.000325788
0.000231019
0.000162734
0.000113877
7.91643e-05
5.46728e-05
3.75119e-05
2.557e-05
1.73167e-05
1.16514e-05
7.78894e-06
5.17333e-06
3.41399e-06
2.23848e-06
1.45831e-06
9.4394e-07
6.07062e-07
3.87849e-07
2.4607e-07
1.54876e-07
9.64257e-08
5.88883e-08
3.45113e-08
1.79768e-08
5.56163e-09
0.0343268
0.102143
0.16748
0.228801
0.284733
0.33412
0.376063
0.409945
0.43544
0.452507
0.461373
0.462503
0.456558
0.444355
0.426817
0.404926
0.37968
0.352053
0.322961
0.293237
0.263613
0.23471
0.207027
0.180952
0.156759
0.134623
0.114632
0.0967956
0.0810658
0.0673456
0.055504
0.0453872
0.0368283
0.0296559
0.0237007
0.0188005
0.0148036
0.0115715
0.00897974
0.00691858
0.00529268
0.00402034
0.0030325
0.00227149
0.00168971
0.00124832
0.000915931
0.000667488
0.00048315
0.00034737
0.000248077
0.000175986
0.000124016
8.68154e-05
6.03732e-05
4.17091e-05
2.86263e-05
1.95189e-05
1.32223e-05
8.89877e-06
5.95021e-06
3.95291e-06
2.60909e-06
1.71103e-06
1.11484e-06
7.21718e-07
4.6419e-07
2.96586e-07
1.88162e-07
1.18405e-07
7.37215e-08
4.50528e-08
2.64087e-08
1.37411e-08
4.25985e-09
0.0251645
0.0748847
0.122803
0.1678
0.208877
0.245189
0.276078
0.301089
0.319977
0.332704
0.339428
0.340479
0.336333
0.327579
0.314886
0.298967
0.280549
0.260346
0.239029
0.217211
0.195432
0.174151
0.15374
0.13449
0.116606
0.100224
0.0854108
0.07218
0.0604988
0.0502992
0.0414871
0.033951
0.0275692
0.0222162
0.0177677
0.0141039
0.0111131
0.00869245
0.00674987
0.00520379
0.00398329
0.0030275
0.00228491
0.00171246
0.00127454
0.000942079
0.000691578
0.000504231
0.000365146
0.000262644
0.000187649
0.000133172
9.3881e-05
6.57438e-05
4.57354e-05
3.16068e-05
2.16994e-05
1.48e-05
1.00283e-05
6.75086e-06
4.51501e-06
3.00007e-06
1.98053e-06
1.29905e-06
8.46547e-07
5.48125e-07
3.52577e-07
2.25261e-07
1.42911e-07
8.99476e-08
5.59906e-08
3.42237e-08
2.00612e-08
1.04361e-08
3.21602e-09
0.018352
0.0546155
0.0895751
0.122421
0.152427
0.178981
0.201604
0.21996
0.233869
0.243298
0.248356
0.249275
0.246398
0.240146
0.231002
0.219483
0.206116
0.191419
0.175882
0.159953
0.14403
0.128449
0.113485
0.0993548
0.086212
0.0741585
0.0632476
0.0534916
0.0448693
0.037333
0.0308154
0.0252363
0.0205073
0.0165371
0.0132349
0.0105129
0.00828896
0.00648764
0.00504092
0.00388864
0.00297835
0.00226499
0.00171038
0.00128256
0.000955071
0.000706299
0.000518743
0.000378393
0.000274142
0.000197271
0.000141
0.000100105
7.0597e-05
4.94559e-05
3.44162e-05
2.37918e-05
1.63389e-05
1.1147e-05
7.55507e-06
5.08713e-06
3.40303e-06
2.26167e-06
1.49334e-06
9.79639e-07
6.38493e-07
4.13467e-07
2.65993e-07
1.69941e-07
1.07818e-07
6.78942e-08
4.22802e-08
2.58072e-08