/*--------------------------------*- C++ -*----------------------------------*\
  =========                 |
  \\      /  F ield         | OpenFOAM: The Open Source CFD Toolbox
   \\    /   O peration     | Website:  https://openfoam.org
    \\  /    A nd           | Version:  10
     \\/     M anipulation  |
\*---------------------------------------------------------------------------*/
FoamFile
{
    format      ascii;
    class       volScalarField;
    location    "300";
    object      gradTx;
}
// * * * * * * * * * * * * * * * * * * * * * * * * * * * * * * * * * * * * * //

dimensions      [0 -1 0 1 0 0 0];

internalField   nonuniform List<scalar> 
11250
(
14297.4
8096.69
5298.27
3811.14
2909.03
2304.92
1870.42
1541.5
1283.14
1074.73
903.354
760.507
640.316
538.563
452.107
378.527
315.902
262.663
217.502
179.309
147.126
120.123
97.5709
78.8303
63.3401
50.608
40.2035
31.7517
24.9281
19.4534
15.089
11.6319
8.91135
6.78455
5.1329
3.85881
2.88255
2.13955
1.57789
1.1562
0.841744
0.608851
0.437542
0.312392
0.221589
0.156156
0.109327
0.0760422
0.0525452
0.0360714
0.0246003
0.0166672
0.0112184
0.00750136
0.00498296
0.00328831
0.00215571
0.00140391
0.000908273
0.000583736
0.000372679
0.000236357
0.000148905
9.3186e-05
5.79277e-05
3.57688e-05
2.19374e-05
1.33625e-05
8.08162e-06
4.84959e-06
2.88123e-06
1.68383e-06
9.48301e-07
4.78713e-07
1.45581e-07
4093.27
4695.57
3988.9
3228.76
2614.32
2139.17
1769.23
1475.73
1238.31
1043.04
880.319
743.394
627.386
528.667
444.458
372.572
311.24
259
214.618
177.036
145.335
118.713
96.4618
77.9602
62.6594
50.0771
39.7908
31.4322
24.6819
19.2645
14.9446
11.5222
8.82842
6.72217
5.08624
3.82409
2.85687
2.12066
1.56407
1.14615
0.834483
0.603635
0.433817
0.309749
0.219725
0.154849
0.108417
0.075412
0.0521117
0.0357751
0.024399
0.0165314
0.0111273
0.00744066
0.00494278
0.00326187
0.00213844
0.0013927
0.000901038
0.000579099
0.000369727
0.000234489
0.000147731
9.24537e-05
5.74737e-05
3.54892e-05
2.17663e-05
1.32586e-05
8.01895e-06
4.81209e-06
2.859e-06
1.67088e-06
9.41076e-07
4.75058e-07
1.44495e-07
1473.77
2604.6
2734.93
2503.29
2183.59
1872.06
1595.95
1358.65
1156.42
984.118
836.938
710.864
602.637
509.622
429.675
361.023
302.175
251.863
208.988
172.592
141.828
115.948
94.2861
76.2519
61.3218
49.0333
38.9792
30.8036
24.1971
18.8924
14.6603
11.306
8.66493
6.59916
4.99419
3.75559
2.80618
2.08336
1.53679
1.12632
0.820144
0.593332
0.42646
0.304527
0.216041
0.152267
0.106618
0.0741664
0.0512548
0.0351892
0.0240011
0.0162628
0.0109471
0.0073206
0.00486329
0.00320958
0.00210426
0.0013705
0.000886718
0.000569921
0.000363883
0.000230793
0.000145408
9.10036e-05
5.65745e-05
3.49353e-05
2.14275e-05
1.30527e-05
7.89474e-06
4.73776e-06
2.81498e-06
1.64522e-06
9.26635e-07
4.67771e-07
1.42287e-07
671.358
1515.26
1844.82
1868.44
1747.92
1573.34
1388.12
1211.17
1049.62
905.306
777.821
665.907
568.061
482.793
408.711
344.556
289.194
241.606
200.874
166.172
136.751
111.938
91.1257
73.7672
59.3742
47.5118
37.7952
29.8859
23.4889
18.3484
14.2445
10.9897
8.42559
6.41902
4.85934
3.65521
2.73187
2.02868
1.49679
1.09722
0.799104
0.578213
0.41566
0.29686
0.210632
0.148474
0.103975
0.0723367
0.0499958
0.0343284
0.0234163
0.015868
0.0106823
0.00714412
0.00474643
0.0031327
0.002054
0.00133786
0.00086566
0.000556423
0.000355287
0.000225355
0.000141991
8.88701e-05
5.52514e-05
3.41204e-05
2.09289e-05
1.27497e-05
7.71192e-06
4.62832e-06
2.75011e-06
1.60739e-06
9.05373e-07
4.57065e-07
1.39012e-07
368.138
941.392
1262.49
1380.25
1369.46
1288.94
1176.23
1052.89
930.483
814.783
708.385
612.181
526.179
449.941
382.82
324.078
272.958
228.717
190.637
158.044
130.306
106.836
87.096
70.5935
56.8827
45.5629
36.2767
28.7078
22.5789
17.6488
13.7093
10.5824
8.11718
6.18677
4.6854
3.52566
2.63595
1.95806
1.4451
1.05961
0.771908
0.558663
0.401693
0.286943
0.203633
0.143566
0.100555
0.0699679
0.0483657
0.0332137
0.0226588
0.0153566
0.0103393
0.00691545
0.00459499
0.00303305
0.00198886
0.00129555
0.000838358
0.00053892
0.00034414
0.000218302
0.000137559
8.61027e-05
5.35351e-05
3.3063e-05
2.02819e-05
1.23565e-05
7.47469e-06
4.48628e-06
2.66591e-06
1.55828e-06
8.77763e-07
4.43165e-07
1.34802e-07
228.306
620.773
885.27
1023.07
1063.8
1040.34
979.016
898.126
809.391
719.929
633.853
553.398
479.647
412.989
353.402
300.617
254.231
213.764
178.705
148.533
122.737
100.827
82.3381
66.838
53.9288
43.2484
34.4707
27.3048
21.494
16.8139
13.07
10.0954
7.74819
5.9087
4.47702
3.37039
2.52091
1.87332
1.38306
1.01445
0.739238
0.535171
0.384905
0.275019
0.195217
0.137662
0.0964392
0.067117
0.0464034
0.0318716
0.0217467
0.0147407
0.00992603
0.00663996
0.00441251
0.00291296
0.00191034
0.00124455
0.000805442
0.000517816
0.000330698
0.000209797
0.000132212
8.27641e-05
5.14643e-05
3.17871e-05
1.95011e-05
1.18819e-05
7.18832e-06
4.31483e-06
2.56431e-06
1.49903e-06
8.44442e-07
4.26368e-07
1.29701e-07
152.969
429.173
636.476
765.31
825.261
833.056
805.295
755.5
693.609
626.476
558.613
492.868
430.949
373.799
321.858
275.23
233.811
197.355
165.539
137.989
114.314
94.1166
77.0091
62.6209
50.6044
40.6385
32.4306
25.7175
20.2649
15.8669
12.3441
9.54189
7.32842
5.59212
4.23959
3.19335
2.38967
1.7766
1.3122
0.962858
0.701896
0.508309
0.3657
0.261373
0.185582
0.130902
0.0917255
0.063851
0.0441548
0.0303333
0.020701
0.0140344
0.00945207
0.00632393
0.00420315
0.00277516
0.00182023
0.001186
0.000767653
0.000493584
0.000315261
0.000200027
0.00012607
7.89284e-05
4.90848e-05
3.03208e-05
1.86036e-05
1.13364e-05
6.85905e-06
4.11768e-06
2.44742e-06
1.43086e-06
8.0613e-07
4.0704e-07
1.23813e-07
107.706
307.478
467.798
578.692
641.697
664.648
657.355
629.073
587.451
538.334
485.955
433.255
382.196
334.023
289.472
248.913
212.468
180.086
151.6
126.77
105.312
86.9177
71.2733
58.0689
47.0069
37.8079
30.2137
23.9895
18.9248
14.8329
11.5505
8.9361
6.86853
5.24495
3.97902
2.99891
2.24542
1.67023
1.23423
0.90605
0.660759
0.478703
0.344525
0.246322
0.174951
0.123439
0.0865206
0.0602436
0.0416705
0.0286333
0.0195452
0.0132535
0.00892791
0.00597436
0.00397152
0.00262267
0.00172049
0.00112119
0.000725812
0.000466749
0.000298163
0.000189205
0.000119265
7.46778e-05
4.64474e-05
2.86953e-05
1.76086e-05
1.07314e-05
6.49385e-06
3.89892e-06
2.31767e-06
1.35518e-06
7.63606e-07
3.85592e-07
1.17294e-07
78.3998
226.19
350.108
442.108
500.858
529.634
533.961
519.881
492.948
457.801
418.078
376.502
335.031
295.015
257.34
222.542
190.9
162.507
137.323
115.217
95.9977
79.4388
65.2932
53.308
43.2339
34.832
27.8779
22.1654
17.5076
13.7377
10.7088
8.29277
6.37959
4.87548
3.70145
2.7916
2.09151
1.55665
1.15092
0.845312
0.616752
0.447016
0.32185
0.230198
0.163556
0.115439
0.0809379
0.0563731
0.039004
0.0268081
0.0183038
0.0124147
0.00836469
0.00559865
0.00372251
0.0024587
0.00161322
0.00105147
0.000680794
0.000437871
0.00027976
0.000177554
0.000111938
7.01001e-05
4.36065e-05
2.69441e-05
1.65363e-05
1.00794e-05
6.10015e-06
3.66305e-06
2.17777e-06
1.27357e-06
7.17701e-07
3.62475e-07
1.10282e-07
58.4047
169.673
265.813
340.79
392.514
422.033
432.328
427.215
410.58
385.942
356.259
323.887
290.627
257.8
226.333
196.842
169.701
145.1
123.094
103.637
86.617
71.8741
59.2215
48.4582
39.3791
31.7835
25.4796
20.2885
16.0468
12.6069
9.83834
7.62656
5.87263
4.49196
3.41302
2.57598
1.93129
1.43832
1.06405
0.781945
0.570811
0.413916
0.298151
0.213337
0.151636
0.107065
0.0750929
0.052319
0.0362102
0.024895
0.0170023
0.0115349
0.00777383
0.00520439
0.00346113
0.00228655
0.00150057
0.000978238
0.000633496
0.000407523
0.000260416
0.000165305
0.000104233
6.52855e-05
4.0618e-05
2.51015e-05
1.54079e-05
9.39305e-06
5.68565e-06
3.41469e-06
2.03044e-06
1.18755e-06
6.69296e-07
3.38082e-07
1.02874e-07
44.2332
129.123
204.058
264.615
308.729
336.431
349.238
349.504
339.882
322.962
301.06
276.129
249.736
223.092
197.093
172.371
149.344
128.261
109.239
92.2983
77.385
64.3964
53.1962
43.6285
35.5285
28.73
23.0713
18.3997
14.5737
11.4646
8.95761
6.95148
5.35823
4.10232
3.11966
2.35645
1.76801
1.31762
0.975389
0.717215
0.52385
0.38006
0.273897
0.196072
0.139424
0.0984816
0.0690988
0.0481599
0.0333428
0.0229309
0.0156655
0.010631
0.00716659
0.00479908
0.00319236
0.00210947
0.00138467
0.000902871
0.000584808
0.000376276
0.000240494
0.000152687
9.62937e-05
6.03236e-05
3.75374e-05
2.32017e-05
1.42441e-05
8.68504e-06
5.25799e-06
3.15838e-06
1.87832e-06
1.09874e-06
6.19343e-07
3.1285e-07
9.51876e-08
33.9003
99.307
157.962
206.637
243.546
268.299
281.6
284.869
279.887
268.522
252.543
233.516
212.759
191.331
170.052
149.528
130.184
112.296
96.0199
81.4173
68.4809
57.1518
47.3353
38.914
31.7577
25.7311
20.7001
16.5357
13.1169
10.3328
8.08346
6.2804
4.84615
3.71394
2.8269
2.13713
1.60472
1.19681
0.886562
0.652315
0.476731
0.346067
0.24953
0.178716
0.12714
0.0898439
0.0630638
0.0439705
0.0304533
0.0209509
0.0143175
0.00971914
0.00655376
0.0043899
0.00292094
0.0019306
0.00126756
0.000826697
0.000535585
0.000344678
0.000220343
0.000139921
8.82596e-05
5.5301e-05
3.44183e-05
2.12777e-05
1.30653e-05
7.96769e-06
4.82456e-06
2.89854e-06
1.72407e-06
1.00869e-06
5.68666e-07
2.87268e-07
8.74176e-08
26.203
76.9612
123.028
162.038
192.536
213.994
226.678
231.424
229.414
221.977
210.439
196.031
179.828
162.73
145.459
128.568
112.465
97.4269
83.6292
71.1609
60.0458
50.2579
41.7357
34.3934
28.1301
22.8378
18.4064
14.7282
11.7012
9.23072
7.23081
5.62475
4.3451
3.33341
2.5397
1.92172
1.44418
1.07791
0.799063
0.588332
0.430241
0.312504
0.225454
0.161557
0.114989
0.0812947
0.0570876
0.0398199
0.0275893
0.0189874
0.0129801
0.00881418
0.00594536
0.00398354
0.00265129
0.00175285
0.00115114
0.000750952
0.000486626
0.00031324
0.000200289
0.000127213
8.02599e-05
5.02986e-05
3.1311e-05
1.93604e-05
1.18903e-05
7.25247e-06
4.39231e-06
2.63933e-06
1.57017e-06
9.18798e-07
5.18066e-07
2.61777e-07
7.9687e-08
20.3745
59.9643
96.2304
127.431
152.409
170.636
182.148
187.424
187.24
182.532
174.285
163.447
150.881
137.331
123.416
109.624
96.3273
83.7932
72.1988
61.6474
52.1828
43.803
36.4716
30.1282
24.6965
20.091
16.2229
13.0035
10.3473
8.17467
6.41225
4.99426
3.86253
2.9664
2.26234
1.71345
1.28878
0.962702
0.714198
0.52622
0.385075
0.279872
0.20203
0.14485
0.103152
0.072961
0.0512588
0.0357696
0.0247931
0.0170696
0.0116733
0.00792952
0.00535038
0.003586
0.00238741
0.00157883
0.00103714
0.000676753
0.000438652
0.000282425
0.000180627
0.00011475
7.24121e-05
4.53898e-05
2.82611e-05
1.7478e-05
1.07363e-05
6.54988e-06
3.96755e-06
2.38453e-06
1.41887e-06
8.30453e-07
4.68346e-07
2.36687e-07
7.20366e-08
15.9059
46.8881
75.4791
100.388
120.709
135.966
146.084
151.326
152.197
149.353
143.516
135.412
125.721
115.049
103.911
92.7291
81.8332
71.4682
61.8049
52.9504
44.9601
37.8478
31.5959
26.1635
21.4942
17.5218
14.1751
11.3819
9.07162
7.17753
5.63789
4.39678
3.40451
2.61754
1.99835
1.51497
1.14052
0.852668
0.633066
0.466786
0.341818
0.248594
0.179561
0.128814
0.0917814
0.0649517
0.0456537
0.0318726
0.0221014
0.0152225
0.0104141
0.00707675
0.00477662
0.00320249
0.00213274
0.00141083
0.000927035
0.000605072
0.000392291
0.000252638
0.000161614
0.000102695
6.48193e-05
4.06391e-05
2.53084e-05
1.56552e-05
9.61852e-06
5.86916e-06
3.55591e-06
2.13756e-06
1.27217e-06
7.44724e-07
4.20064e-07
2.12315e-07
6.46134e-08
12.4477
36.7415
59.2937
79.1425
95.5848
108.212
116.907
121.801
123.22
121.622
117.536
111.509
104.072
95.7108
86.8493
77.8428
68.9764
60.4685
52.4766
45.1052
38.4144
32.4279
27.1411
22.5284
18.5488
15.1516
12.2808
9.8782
7.88598
6.24889
4.91535
3.83831
2.97569
2.29045
1.75049
1.32837
1.00097
0.748989
0.55654
0.410673
0.300943
0.219014
0.158295
0.113626
0.0810051
0.0573558
0.0403348
0.0281725
0.0195443
0.013467
0.0092168
0.00626547
0.00423054
0.00283733
0.00189017
0.00125074
0.000822087
0.000536723
0.00034807
0.000224216
0.000143468
9.11854e-05
5.75679e-05
3.61008e-05
2.24869e-05
1.39128e-05
8.54979e-06
5.21808e-06
3.1621e-06
1.90122e-06
1.13173e-06
6.62614e-07
3.738e-07
1.88953e-07
5.75239e-08
9.75305
28.8182
46.6028
62.3867
75.6261
85.9834
93.3285
97.7189
99.3632
98.5792
95.7511
91.2913
85.6099
79.0914
72.0797
64.8692
57.7017
50.7666
44.2052
38.1149
32.5559
27.557
23.1227
19.2379
15.8741
12.9931
10.5512
8.50181
6.79826
5.39516
4.24982
3.32301
2.57938
1.98769
1.52074
1.15519
0.871297
0.652538
0.485276
0.358367
0.262807
0.191392
0.138421
0.0994214
0.0709195
0.0502422
0.0353504
0.0247032
0.0171454
0.0118192
0.00809237
0.00550325
0.00371725
0.00249396
0.00166197
0.00110009
0.000723285
0.000472353
0.000306409
0.000197432
0.000126361
8.03319e-05
5.07276e-05
3.18184e-05
1.98238e-05
1.22677e-05
7.5404e-06
4.60299e-06
2.78992e-06
1.67776e-06
9.98909e-07
5.84984e-07
3.30052e-07
1.6683e-07
5.07769e-08
7.64305
22.6034
36.6151
49.1371
59.75
68.1798
74.3025
78.1328
79.8029
79.5328
77.6013
74.317
69.9946
64.9358
59.4162
53.6763
47.9179
42.3023
36.9528
31.9574
27.3732
23.2311
19.5407
16.2951
13.4746
11.0512
8.99094
7.25724
5.81251
4.61988
3.6443
2.85332
2.21756
1.71086
1.31037
0.996412
0.752261
0.563898
0.419713
0.310198
0.227653
0.165909
0.120071
0.0862958
0.0615934
0.0436597
0.0307353
0.0214889
0.0149216
0.0102908
0.00704892
0.00479558
0.00324048
0.00217487
0.00144983
0.000959985
0.000631363
0.000412443
0.000267621
0.000172485
0.000110423
7.02169e-05
4.43506e-05
2.78248e-05
1.73395e-05
1.07327e-05
6.59826e-06
4.02871e-06
2.44232e-06
1.46903e-06
8.7481e-07
5.12388e-07
2.89146e-07
1.46154e-07
4.44788e-08
5.98551
17.7144
28.7368
38.6446
47.1155
53.9299
58.9772
62.2498
63.8298
63.8696
62.5708
60.1635
56.8877
52.9785
48.6545
44.1101
39.5109
34.9924
30.6601
26.5913
22.8383
19.4315
16.3837
13.6929
11.3466
9.32409
7.59977
6.14489
4.92954
3.924
3.09975
2.43019
1.89106
1.46068
1.11999
0.852523
0.644255
0.483379
0.360092
0.26635
0.195623
0.142669
0.103323
0.0743065
0.0530683
0.0376384
0.0265109
0.0185449
0.0128836
0.00888938
0.00609164
0.00414602
0.00280266
0.00188172
0.00125485
0.000831158
0.000546809
0.000357314
0.000231917
0.000149514
9.57416e-05
6.08963e-05
3.84727e-05
2.41426e-05
1.50482e-05
9.31638e-06
5.72872e-06
3.49849e-06
2.12133e-06
1.27621e-06
7.6014e-07
4.45269e-07
2.51311e-07
1.27067e-07
3.8668e-08
4.681
13.8623
22.5151
30.3315
37.0638
42.538
46.6593
49.4097
50.8388
51.0521
50.1951
48.4387
45.9654
42.9569
39.5852
36.0059
32.3534
28.7399
25.2539
21.9622
18.9111
16.1293
13.6307
11.4167
9.47964
7.80487
6.37296
5.16167
4.14737
3.30632
2.6155
2.05325
1.59974
1.2371
0.949603
0.723581
0.547349
0.41105
0.306478
0.22688
0.166763
0.121711
0.0882053
0.0634761
0.0453616
0.0321913
0.0226868
0.0158782
0.0110364
0.00761847
0.00522304
0.00355635
0.00240501
0.00161534
0.0010776
0.000713997
0.000469881
0.000307139
0.000199408
0.000128591
8.23651e-05
5.24013e-05
3.31136e-05
2.07844e-05
1.29578e-05
8.0239e-06
4.93497e-06
3.01434e-06
1.82811e-06
1.10002e-06
6.5528e-07
3.83921e-07
2.16731e-07
1.09604e-07
3.33676e-08
3.65359
10.8255
17.6011
23.7475
29.075
33.4468
36.7838
39.0639
40.3165
40.6142
40.062
38.7866
36.9259
34.6198
32.0026
29.1975
26.3129
23.4401
20.6527
18.0071
15.5435
13.288
11.2543
9.44601
7.85882
6.48246
5.30248
4.30178
3.46187
2.76391
2.18946
1.72105
1.34257
1.03944
0.79876
0.609275
0.461335
0.346777
0.258783
0.191731
0.141038
0.103012
0.0747062
0.0537973
0.038469
0.0273162
0.0192619
0.0134883
0.00938006
0.00647816
0.00444329
0.00302671
0.00204767
0.00137586
0.000918172
0.000608573
0.000400631
0.000261955
0.000170122
0.000109736
7.03063e-05
4.47405e-05
2.82792e-05
1.7754e-05
1.10709e-05
6.85689e-06
4.21808e-06
2.57697e-06
1.56314e-06
9.40742e-07
5.60486e-07
3.2846e-07
1.8544e-07
9.37793e-08
2.85721e-08
2.84462
8.43236
13.7225
18.5388
22.7362
26.2078
28.889
30.7574
31.8297
32.1555
31.8108
30.8891
29.4943
27.7335
25.7109
23.5235
21.2576
18.9868
16.7716
14.6588
12.6829
10.8666
9.22298
7.75664
6.46563
5.34292
4.37786
3.55741
2.86723
2.29247
1.8185
1.43131
1.11792
0.866514
0.666603
0.508996
0.385783
0.290255
0.216794
0.160755
0.118345
0.0865019
0.0627773
0.0452374
0.0323686
0.0229982
0.0162263
0.0113688
0.00791011
0.00546561
0.00375051
0.00255591
0.00172986
0.00116277
0.000776254
0.000514686
0.000338936
0.000221683
0.00014401
9.29181e-05
5.95469e-05
3.79029e-05
2.3963e-05
1.50475e-05
9.3852e-06
5.814e-06
3.57723e-06
2.18583e-06
1.32612e-06
7.9823e-07
4.75694e-07
2.78803e-07
1.57396e-07
7.9619e-08
2.42277e-08
2.20833
6.54877
10.6655
14.4255
17.7177
20.4592
22.5981
24.1136
25.0143
25.3345
25.1286
24.4657
23.424
22.0848
20.5286
18.8312
17.0606
15.2759
13.5259
11.8493
10.2747
8.82201
7.5028
6.32214
5.27959
4.37046
3.58701
2.91938
2.35651
1.88681
1.49872
1.18113
0.923627
0.716739
0.551982
0.421909
0.32009
0.241052
0.180202
0.133733
0.0985299
0.0720721
0.0523423
0.0377433
0.0270236
0.0192122
0.0135629
0.00950782
0.00661873
0.00457555
0.0031412
0.00214161
0.00145006
0.000975076
0.000651189
0.000431914
0.000284521
0.00018615
0.000120962
7.80685e-05
5.00434e-05
3.18614e-05
2.0148e-05
1.26546e-05
7.89436e-06
4.89139e-06
3.01007e-06
1.83957e-06
1.11623e-06
6.72015e-07
4.0053e-07
2.34778e-07
1.32578e-07
6.70666e-08
2.04124e-08
1.70873
5.06897
8.26111
11.1846
13.755
15.9083
17.6029
18.8208
19.5659
19.8614
19.7466
19.2723
18.497
17.4825
16.2904
14.9795
13.6033
12.2084
10.8341
9.51181
8.26518
7.11088
6.05925
5.11521
4.27925
3.54836
2.91697
2.37769
1.92206
1.54109
1.22573
0.967196
0.757238
0.588286
0.453543
0.347021
0.26353
0.198641
0.148627
0.110392
0.081397
0.0595844
0.0433039
0.0312469
0.0223866
0.0159252
0.0112489
0.00789002
0.00549537
0.00380083
0.00261055
0.0017806
0.00120613
0.000811365
0.000542057
0.000359655
0.000236998
0.000155106
0.000100818
6.50853e-05
4.17315e-05
2.65757e-05
1.68092e-05
1.05598e-05
6.58885e-06
4.08319e-06
2.51314e-06
1.53614e-06
9.32252e-07
5.61316e-07
3.3459e-07
1.96154e-07
1.10809e-07
5.6074e-08
1.70899e-08
1.31738
3.90922
6.37484
8.63844
10.6359
12.3179
13.6518
14.6223
15.2304
15.4921
15.4355
15.098
14.5231
13.7575
12.8484
11.8409
10.7767
9.6926
8.61966
7.58313
6.60234
5.69115
4.85843
4.10875
3.44311
2.85968
2.35449
1.92206
1.55594
1.24923
0.994875
0.785998
0.616094
0.479167
0.369809
0.283238
0.2153
0.162434
0.121642
0.0904234
0.0667259
0.0488813
0.0355504
0.0256696
0.0184026
0.013099
0.00925798
0.00649712
0.00452757
0.003133
0.00215286
0.00146907
0.000995514
0.000669948
0.000447744
0.000297181
0.000195894
0.000128243
8.33815e-05
5.3843e-05
3.45316e-05
2.19957e-05
1.39154e-05
8.74359e-06
5.45658e-06
3.38209e-06
2.08199e-06
1.2728e-06
7.72538e-07
4.652e-07
2.77353e-07
1.62635e-07
9.18772e-08
4.64951e-08
1.4156e-08
1.0117
3.00295
4.89958
6.64453
8.18925
9.49602
10.5393
11.3065
11.7972
12.0221
12.0013
11.7624
11.3377
10.7623
10.072
9.3015
8.48291
7.64495
6.81213
6.00451
5.23771
4.52306
3.86803
3.27671
2.75034
2.28787
1.88652
1.54225
1.2502
1.00508
0.801442
0.633937
0.497473
0.387332
0.299245
0.229421
0.174556
0.131814
0.0987963
0.0735012
0.0542808
0.039794
0.0289619
0.0209263
0.0150117
0.0106919
0.00756104
0.00530914
0.00370163
0.00256272
0.00176181
0.00120275
0.000815382
0.000548939
0.000367005
0.000243675
0.000160676
0.000105219
6.84308e-05
4.42002e-05
2.83541e-05
1.80648e-05
1.14309e-05
7.18379e-06
4.48393e-06
2.77969e-06
1.71139e-06
1.04638e-06
6.35209e-07
3.82552e-07
2.28077e-07
1.33759e-07
7.55479e-08
3.82114e-08
1.16413e-08
0.773734
2.29715
3.74977
5.08876
6.27749
7.2872
8.09817
8.70007
9.09179
9.2806
9.28091
9.11278
8.80023
8.36954
7.84775
7.2613
6.6349
5.99076
5.34804
4.72256
4.12676
3.56983
3.05794
2.59465
2.18124
1.81719
1.50058
1.22844
0.997144
0.802661
0.640818
0.507478
0.398682
0.310746
0.240322
0.184427
0.140453
0.106156
0.0796329
0.0592923
0.0438214
0.0321497
0.0234148
0.0169296
0.0121523
0.0086606
0.00612808
0.0043053
0.00300329
0.00208026
0.00143079
0.000977198
0.000662745
0.000446352
0.000298526
0.000198276
0.000130781
8.56681e-05
5.57306e-05
3.6006e-05
2.3103e-05
1.47224e-05
9.31768e-06
5.85678e-06
3.65625e-06
2.2669e-06
1.39585e-06
8.53546e-07
5.18192e-07
3.12099e-07
1.86079e-07
1.091e-07
6.16334e-08
3.11954e-08
9.52183e-09
0.589154
1.74952
2.85705
3.87967
4.78983
5.56575
6.19223
6.66105
6.9708
7.12635
7.13801
7.02041
6.79128
6.47024
6.07763
5.63347
5.15664
4.66421
4.17105
3.68951
3.22943
2.79815
2.40072
2.04014
1.71764
1.43303
1.18499
0.971386
0.789503
0.636305
0.508609
0.403238
0.317136
0.247445
0.191558
0.147146
0.112164
0.0848493
0.0637029
0.0474693
0.0351101
0.0257774
0.0187869
0.0135925
0.00976308
0.00696202
0.00492901
0.00346477
0.00241819
0.0016758
0.00115314
0.000787907
0.000534584
0.000360174
0.000240976
0.000160105
0.000105637
6.92174e-05
4.50407e-05
2.91066e-05
1.86802e-05
1.19064e-05
7.53684e-06
4.73821e-06
2.95837e-06
1.83443e-06
1.12969e-06
6.90862e-07
4.19457e-07
2.52659e-07
1.50647e-07
8.83088e-08
4.98999e-08
2.52573e-08
7.68991e-09
0.446561
1.32634
2.16678
2.94398
3.63728
4.23024
4.71127
5.07388
5.31662
5.44276
5.45963
5.37789
5.21059
4.9723
4.67824
4.34352
3.98244
3.60807
3.23184
2.86332
2.51022
2.17835
1.87177
1.59296
1.34306
1.12206
0.929088
0.762592
0.620575
0.500755
0.400723
0.318055
0.250408
0.19558
0.151556
0.116527
0.0889045
0.067312
0.050578
0.0377188
0.0279193
0.0205128
0.0149603
0.010831
0.00778443
0.00555435
0.00393463
0.00276727
0.00193236
0.00133977
0.000922328
0.000630472
0.000427939
0.000288431
0.000193044
0.000128301
8.46789e-05
5.55002e-05
3.6124e-05
2.33499e-05
1.49888e-05
9.55538e-06
6.04967e-06
3.80384e-06
2.37529e-06
1.47304e-06
9.0722e-07
5.54864e-07
3.36902e-07
2.02948e-07
1.20996e-07
7.09544e-08
4.0085e-08
2.02686e-08
6.16093e-09
0.336877
1.00073
1.63541
2.22313
2.74847
3.19911
3.56622
3.84476
4.03339
4.13427
4.15264
4.0962
3.97453
3.79843
3.57922
3.32823
3.05626
2.77321
2.48783
2.20748
1.93813
1.68435
1.44937
1.2352
1.04284
0.872391
0.723281
0.594402
0.484287
0.391233
0.313429
0.249037
0.196272
0.15345
0.119023
0.0915974
0.0699459
0.0530027
0.0398583
0.0297476
0.0220354
0.0162013
0.0118239
0.00856581
0.00616021
0.00439803
0.00311725
0.00219356
0.00153252
0.00106305
0.000732157
0.00050069
0.000339983
0.000229234
0.000153477
0.000102037
6.73642e-05
4.41638e-05
2.87525e-05
1.85893e-05
1.19352e-05
7.61007e-06
4.81882e-06
3.03032e-06
1.89249e-06
1.17375e-06
7.22942e-07
4.42157e-07
2.68465e-07
1.61738e-07
9.64466e-08
5.65778e-08
3.19484e-08
1.61591e-08
4.91952e-09
0.25289
0.751359
1.22826
1.67041
2.06637
2.40692
2.6854
2.89793
3.04333
3.12304
3.14076
3.10206
3.01395
2.88438
2.72175
2.5345
2.33073
2.11792
1.90269
1.69068
1.48647
1.29362
1.11465
0.951207
0.804112
0.673533
0.559097
0.460021
0.375232
0.303472
0.243382
0.193583
0.15272
0.119516
0.0927882
0.071472
0.0546247
0.0414271
0.0311781
0.023287
0.0172623
0.0127008
0.00927537
0.00672385
0.00483849
0.0034564
0.00245119
0.00172577
0.0012063
0.000837156
0.000576832
0.000394635
0.000268073
0.000180814
0.0001211
8.05368e-05
5.31853e-05
3.48773e-05
2.2712e-05
1.4687e-05
9.43161e-06
6.01472e-06
3.80914e-06
2.39566e-06
1.49629e-06
9.28076e-07
5.71658e-07
3.49637e-07
2.123e-07
1.27898e-07
7.62778e-08
4.47169e-08
2.52265e-08
1.27653e-08
3.90203e-09
0.188888
0.561282
0.917788
1.24869
1.54552
1.80142
2.0114
2.17249
2.28371
2.34599
2.36195
2.33561
2.27208
2.17718
2.0571
1.91812
1.76627
1.60716
1.44577
1.28639
1.13252
0.986873
0.851438
0.727504
0.615762
0.516391
0.429157
0.353511
0.288674
0.233718
0.187636
0.149393
0.117973
0.0924105
0.0718095
0.0553611
0.042347
0.0321417
0.0242087
0.0180951
0.0134232
0.00988297
0.00722224
0.00523879
0.0037721
0.00269616
0.00191309
0.00134761
0.000942431
0.000654338
0.00045106
0.000308715
0.000209789
0.000141552
9.48355e-05
6.3089e-05
4.16746e-05
2.73359e-05
1.78051e-05
1.15162e-05
7.39673e-06
4.71776e-06
2.98814e-06
1.87948e-06
1.17398e-06
7.28208e-07
4.48562e-07
2.74375e-07
1.66617e-07
1.00344e-07
5.98311e-08
3.50711e-08
1.97889e-08
1.00026e-08
3.0404e-09
0.140357
0.417125
0.68224
0.928565
1.14986
1.34105
1.49843
1.61974
1.70417
1.75234
1.76608
1.7483
1.70269
1.63349
1.54528
1.44265
1.33011
1.21181
1.0915
0.972396
0.85715
0.747842
0.645997
0.552629
0.468297
0.393176
0.327124
0.269758
0.220517
0.178722
0.143627
0.114466
0.090477
0.0709367
0.0551715
0.0425703
0.0325897
0.0247554
0.0186596
0.0139575
0.0103612
0.00763365
0.00558209
0.00405157
0.00291898
0.00208756
0.00148204
0.0010445
0.000730809
0.000507638
0.000350084
0.000239701
0.000162951
0.000109987
7.37116e-05
4.90508e-05
3.24101e-05
2.12641e-05
1.38533e-05
8.96194e-06
5.75708e-06
3.67247e-06
2.32635e-06
1.46336e-06
9.14115e-07
5.67058e-07
3.49301e-07
2.13655e-07
1.29734e-07
7.81449e-08
4.65851e-08
2.73197e-08
1.54314e-08
7.81284e-09
2.34561e-09
0.103747
0.308358
0.504459
0.68683
0.850896
0.992926
1.11017
1.20092
1.26455
1.30145
1.31291
1.301
1.2684
1.21819
1.1537
1.07832
0.995361
0.907906
0.818737
0.73026
0.644469
0.562941
0.486838
0.416948
0.353717
0.297303
0.247623
0.204413
0.167271
0.135703
0.109162
0.0870796
0.0688931
0.0540621
0.0420831
0.0324981
0.0248988
0.0189279
0.0142777
0.0106874
0.00793912
0.00585303
0.00428272
0.00311035
0.00224217
0.00160441
0.00113963
0.000803583
0.000562509
0.000390906
0.000269695
0.000184731
0.000125628
8.4824e-05
5.68654e-05
3.78514e-05
2.50166e-05
1.64171e-05
1.06977e-05
6.92173e-06
4.44714e-06
2.83719e-06
1.79742e-06
1.13074e-06
7.06379e-07
4.38207e-07
2.69937e-07
1.65104e-07
1.00229e-07
6.0381e-08
3.60183e-08
2.11302e-08
1.19234e-08
6.03799e-09
1.82863e-09
0.0762741
0.226728
0.370994
0.505272
0.626226
0.731123
0.817935
0.885397
0.933011
0.961022
0.970337
0.962434
0.939233
0.902972
0.856068
0.800997
0.74018
0.675893
0.610189
0.544855
0.481381
0.420948
0.36444
0.312459
0.265357
0.223269
0.186151
0.153823
0.125997
0.102316
0.0823816
0.0657765
0.0520851
0.0409074
0.0318696
0.0246306
0.0188857
0.0143675
0.0108455
0.00812398
0.00603893
0.004455
0.00326178
0.00237029
0.00170965
0.00122402
0.000869881
0.000613676
0.000429772
0.000298794
0.000206229
0.000141313
9.61355e-05
6.49321e-05
4.35432e-05
2.89917e-05
1.91658e-05
1.25803e-05
8.19908e-06
5.30594e-06
3.40946e-06
2.17542e-06
1.37829e-06
8.67127e-07
5.41684e-07
3.36037e-07
2.07014e-07
1.266e-07
7.68541e-08
4.62865e-08
2.75974e-08
1.61888e-08
9.14315e-09
4.60121e-09
1.41702e-09
0.0557708
0.165797
0.271345
0.369662
0.458325
0.535346
0.599238
0.649065
0.684443
0.705524
0.712943
0.707748
0.691315
0.665254
0.631315
0.591296
0.54696
0.499972
0.451841
0.403886
0.357209
0.312691
0.270997
0.232583
0.197722
0.166527
0.13898
0.114954
0.0942479
0.0766047
0.0617351
0.0493347
0.0390989
0.0307335
0.0239627
0.0185342
0.0142219
0.0108274
0.00817896
0.0061307
0.00456021
0.00336625
0.00246613
0.00179314
0.00129408
0.000926979
0.000659115
0.000465208
0.000325944
0.000226705
0.000156535
0.000107302
7.3023e-05
4.93372e-05
3.30949e-05
2.20409e-05
1.45743e-05
9.56838e-06
6.23724e-06
4.03696e-06
2.59437e-06
1.6555e-06
1.04895e-06
6.59952e-07
4.1227e-07
2.55732e-07
1.57533e-07
9.63467e-08
5.85041e-08
3.52214e-08
2.09722e-08
1.22944e-08
6.94133e-09
3.49152e-09
1.08006e-09
0.0405533
0.120569
0.197359
0.268939
0.33356
0.389779
0.436518
0.473085
0.49919
0.514925
0.520732
0.517352
0.505767
0.48713
0.462701
0.433776
0.401636
0.36749
0.332439
0.29745
0.263334
0.230744
0.200173
0.171966
0.146332
0.123363
0.103052
0.0853156
0.0700114
0.0569556
0.0459397
0.036743
0.0291436
0.0229265
0.0178895
0.0138473
0.0106333
0.008101
0.00612366
0.00459314
0.0034187
0.00252516
0.00185104
0.00134666
0.000972386
0.000696905
0.000495767
0.00035008
0.000245389
0.000170747
0.000117943
8.08774e-05
5.50584e-05
3.72111e-05
2.49679e-05
1.66326e-05
1.10006e-05
7.22357e-06
4.70955e-06
3.04861e-06
1.9594e-06
1.2504e-06
7.92304e-07
4.98476e-07
3.11413e-07
1.93149e-07
1.18958e-07
7.27622e-08
4.41956e-08
2.66172e-08
1.58606e-08
9.27706e-09
5.23893e-09
2.65843e-09
8.05651e-10
0.0293227
0.0871863
0.142739
0.194555
0.24138
0.282174
0.316156
0.342822
0.361953
0.373604
0.378081
0.375907
0.367778
0.354517
0.337025
0.316234
0.293066
0.268395
0.24302
0.217645
0.192863
0.169152
0.146878
0.126298
0.10757
0.0907676
0.0758912
0.0628849
0.051649
0.0420531
0.0339477
0.0271737
0.0215706
0.0169821
0.0132611
0.0102721
0.00789351
0.00601785
0.00455199
0.00341649
0.00254449
0.00188056
0.00137931
0.00100403
0.000725362
0.000520126
0.000370187
0.000261522
0.000183393
0.00012766
8.82148e-05
6.0513e-05
4.12085e-05
2.7859e-05
1.86979e-05
1.24588e-05
8.24181e-06
5.41304e-06
3.52968e-06
2.28514e-06
1.46884e-06
9.37407e-07
5.93994e-07
3.73698e-07
2.33434e-07
1.44768e-07
8.9154e-08
5.45231e-08
3.31009e-08
1.9936e-08
1.18894e-08
6.94682e-09
3.93715e-09
2.01303e-09
6.15763e-10
0.021082
0.0626885
0.102647
0.139941
0.173672
0.203097
0.227653
0.246976
0.260901
0.269461
0.272867
0.271486
0.26581
0.256422
0.243964
0.229102
0.212496
0.194775
0.176514
0.158222
0.14033
0.123186
0.10706
0.0921398
0.0785455
0.0663338
0.0555094
0.0460349
0.0378409
0.0308355
0.024912
0.0199566
0.0158537
0.0124906
0.00976081
0.00756613
0.0058181
0.00443855
0.00335955
0.00252308
0.00188024
0.00139044
0.0010204
0.000743166
0.000537179
0.000385376
0.000274411
0.000193946
0.000136062
9.47505e-05
6.54978e-05
4.49451e-05
3.06166e-05
2.07043e-05
1.38996e-05
9.26373e-06
6.12943e-06
4.02637e-06
2.62583e-06
1.70015e-06
1.09292e-06
6.97526e-07
4.41993e-07
2.78067e-07
1.73668e-07
1.077e-07
6.63082e-08
4.05383e-08
2.45844e-08
1.47805e-08
8.80728e-09
5.17527e-09
2.93722e-09
1.49056e-09
4.64292e-10
0.0150703
0.0448154
0.0733915
0.100077
0.124233
0.145331
0.162967
0.176879
0.186947
0.193188
0.195748
0.194884
0.190939
0.184328
0.175503
0.164938
0.153104
0.140449
0.127385
0.114279
0.10144
0.0891226
0.0775203
0.0667726
0.0569682
0.0481508
0.0403263
0.0334702
0.0275345
0.0224546
0.0181549
0.0145545
0.0115707
0.00912272
0.00713395
0.00553368
0.00425804
0.00325049
0.00246184
0.00185
0.00137946
0.00102069
0.000749457
0.000546122
0.000394947
0.000283474
0.000201942
0.000142788
0.000100213
6.98132e-05
4.82767e-05
3.31388e-05
2.25811e-05
1.52746e-05
1.02569e-05
6.83748e-06
4.52494e-06
2.97285e-06
1.93902e-06
1.2556e-06
8.07194e-07
5.15185e-07
3.26431e-07
2.05371e-07
1.28272e-07
7.95674e-08
4.89823e-08
2.99101e-08
1.81272e-08
1.09125e-08
6.48802e-09
3.81971e-09
2.16779e-09
1.09432e-09
3.17211e-10
0.0107105
0.0318525
0.0521696
0.0711523
0.0883491
0.103385
0.115973
0.125927
0.133157
0.137674
0.139577
0.139044
0.136316
0.131684
0.125467
0.118
0.109614
0.10063
0.0913405
0.0820067
0.0728511
0.0640555
0.0557607
0.0480679
0.0410423
0.034717
0.0290981
0.0241695
0.0198982
0.0162393
0.0131394
0.0105412