/*--------------------------------*- C++ -*----------------------------------*\
  =========                 |
  \\      /  F ield         | OpenFOAM: The Open Source CFD Toolbox
   \\    /   O peration     | Website:  https://openfoam.org
    \\  /    A nd           | Version:  10
     \\/     M anipulation  |
\*---------------------------------------------------------------------------*/
FoamFile
{
    format      ascii;
    class       volScalarField;
    location    "236";
    object      gradTx;
}
// * * * * * * * * * * * * * * * * * * * * * * * * * * * * * * * * * * * * * //

dimensions      [0 -1 0 1 0 0 0];

internalField   nonuniform List<scalar> 
11250
(
14290.2
8075.23
5263.12
3763.16
2849.4
2235.05
1791.94
1456.15
1192.73
981.08
808.227
665.554
547.035
448.267
365.901
297.294
240.3
193.136
154.293
122.478
96.5793
75.6345
58.8141
45.4041
34.7935
26.4629
19.974
14.9603
11.1181
8.19799
5.9971
4.35223
3.13329
2.23764
1.58514
1.11383
0.776314
0.536675
0.367987
0.250263
0.168808
0.112932
0.0749314
0.0493087
0.0321803
0.0208283
0.0133691
0.00850997
0.00537173
0.00336237
0.00208691
0.00128431
0.000783641
0.000474048
0.000284286
0.000169
9.95824e-05
5.81576e-05
3.36606e-05
1.93059e-05
1.09716e-05
6.17757e-06
3.44586e-06
1.90399e-06
1.04204e-06
5.64816e-07
3.03194e-07
1.61149e-07
8.47975e-08
4.41462e-08
2.27218e-08
1.15371e-08
5.69115e-09
2.58928e-09
7.26623e-10
4086.12
4674.3
3954.05
3181.18
2555.19
2069.89
1691.41
1391.1
1148.66
950.178
785.99
649.236
534.886
439.127
358.973
292.017
236.269
190.054
151.936
120.679
95.2089
74.594
58.0272
44.8116
34.3495
26.132
19.7288
14.7797
10.986
8.10188
5.92769
4.30245
3.09783
2.21257
1.56754
1.10157
0.767838
0.530859
0.364027
0.247586
0.167014
0.111739
0.0741439
0.0487931
0.0318454
0.0206126
0.0132313
0.00842263
0.00531684
0.00332816
0.00206577
0.00127135
0.000775771
0.000469309
0.000281458
0.000167327
9.86018e-05
5.75881e-05
3.33329e-05
1.91191e-05
1.08661e-05
6.11863e-06
3.41321e-06
1.88612e-06
1.03233e-06
5.59587e-07
3.00385e-07
1.59684e-07
8.40402e-08
4.37653e-08
2.25209e-08
1.14449e-08
5.67688e-09
2.57611e-09
7.41989e-10
1466.74
2583.68
2700.66
2456.5
2125.45
1803.94
1519.42
1275.42
1068.27
892.806
744.182
618.276
511.678
421.574
345.614
281.808
228.451
184.062
147.348
117.17
92.5331
72.5602
56.4875
43.6513
33.4796
25.4833
19.2478
14.4253
10.7265
7.91313
5.79132
4.20461
3.02814
2.16328
1.53294
1.07746
0.75116
0.519412
0.356231
0.242317
0.163481
0.109388
0.0725924
0.0477772
0.0311856
0.0201874
0.0129596
0.00825041
0.00520859
0.00326068
0.00202406
0.00124579
0.000760242
0.000459956
0.000275875
0.000164024
9.66651e-05
5.64631e-05
3.26854e-05
1.87499e-05
1.06577e-05
6.00205e-06
3.34864e-06
1.85066e-06
1.01305e-06
5.49239e-07
2.9488e-07
1.56771e-07
8.25112e-08
4.29926e-08
2.2162e-08
1.12627e-08
5.56821e-09
2.52342e-09
7.36501e-10
664.502
1494.87
1811.4
1822.83
1691.23
1506.91
1313.51
1130.03
963.667
816.27
687.377
575.625
479.368
396.935
326.74
267.311
217.302
175.489
140.762
112.123
88.6763
69.6239
54.2614
41.9717
32.2189
24.5422
18.5496
13.9104
10.3492
7.63855
5.59284
4.06214
2.9266
2.09144
1.48249
1.04229
0.726833
0.50271
0.344852
0.234626
0.158322
0.105955
0.0703261
0.0462931
0.0302214
0.0195661
0.0125625
0.00799865
0.0050503
0.003162
0.00196306
0.0012084
0.00073752
0.000446269
0.000267702
0.000159187
9.38288e-05
5.4815e-05
3.17366e-05
1.82088e-05
1.0352e-05
5.83103e-06
3.25391e-06
1.7987e-06
9.84833e-07
5.34057e-07
2.86787e-07
1.52489e-07
8.02721e-08
4.18357e-08
2.15561e-08
1.09641e-08
5.41674e-09
2.45757e-09
6.90401e-10
361.509
921.674
1230.17
1336.15
1314.65
1224.72
1104.08
974.429
847.373
728.693
620.932
524.884
440.416
366.92
303.554
249.381
203.436
164.777
132.504
105.774
83.8114
65.9114
51.4413
39.8403
30.6167
23.3448
17.6601
13.2538
9.86771
7.28783
5.33915
3.87993
2.79667
1.99947
1.41786
0.997227
0.695643
0.48129
0.330255
0.224755
0.1517
0.101548
0.0674154
0.0443863
0.0289823
0.0187674
0.0120519
0.00767491
0.00484673
0.00303505
0.00188456
0.00116028
0.000708269
0.000428644
0.000257175
0.000152957
9.01738e-05
5.26904e-05
3.05131e-05
1.75108e-05
9.95756e-06
5.61029e-06
3.13157e-06
1.73157e-06
9.4836e-07
5.14425e-07
2.76345e-07
1.46989e-07
7.7415e-08
4.0344e-08
2.07867e-08
1.05569e-08
5.21588e-09
2.37195e-09
6.73937e-10
221.951
601.869
854.291
980.785
1011.24
978.763
909.848
822.901
729.706
637.384
550.001
469.693
397.411
333.38
277.393
228.987
187.561
152.447
122.954
98.4025
78.1447
61.575
48.1393
37.3394
28.7333
21.935
16.6113
12.4787
9.29865
6.87293
5.03876
3.66401
2.64259
1.89033
1.34113
0.943689
0.658573
0.455819
0.312889
0.213008
0.143816
0.0962982
0.063948
0.0421142
0.0275055
0.0178152
0.011443
0.00728871
0.00460381
0.00288353
0.00179084
0.0011028
0.000673325
0.000407582
0.000244593
0.000145506
8.58017e-05
5.01482e-05
2.90485e-05
1.66749e-05
9.48498e-06
5.34567e-06
2.98483e-06
1.65099e-06
9.04566e-07
4.90874e-07
2.63799e-07
1.4038e-07
7.39772e-08
3.85878e-08
1.99218e-08
1.01145e-08
4.99306e-09
2.27317e-09
6.48692e-10
146.928
411.201
607.024
725.111
775.296
774.516
739.532
683.977
617.845
547.993
478.884
413.278
352.754
298.1
249.579
207.113
170.409
139.041
112.516
90.3107
71.9006
56.781
44.4786
34.56
26.6357
20.3618
15.4391
11.6111
8.66084
6.40736
4.70134
3.42123
2.4692
1.76741
1.25466
0.883314
0.616743
0.427062
0.293274
0.199733
0.134903
0.0903609
0.0600246
0.0395424
0.0258332
0.0167367
0.010753
0.00685098
0.00432839
0.00271168
0.00168452
0.00103758
0.000633656
0.000383664
0.000230298
0.000137038
8.08306e-05
4.72564e-05
2.73817e-05
1.57231e-05
8.94661e-06
5.04403e-06
2.81745e-06
1.55905e-06
8.54579e-07
4.63955e-07
2.49445e-07
1.32813e-07
7.00269e-08
3.65737e-08
1.89141e-08
9.61952e-09
4.75707e-09
2.15133e-09
6.05885e-10
102.01
290.535
440.032
540.794
594.591
609.457
595.353
561.639
516.017
464.334
410.779
358.208
308.462
262.64
221.312
184.676
152.675
125.089
101.591
81.7996
65.3055
51.6992
40.5858
31.5962
24.3936
18.6766
14.181
10.6783
7.97417
5.90544
4.33713
3.1589
2.28166
1.63435
1.16097
0.817852
0.571358
0.395842
0.271966
0.185305
0.12521
0.0839016
0.0557543
0.036742
0.0240116
0.0155614
0.0100009
0.00637363
0.00402793
0.00252414
0.00156844
0.000966344
0.000590314
0.000357521
0.000214667
0.000127775
7.53898e-05
4.40897e-05
2.55555e-05
1.46797e-05
8.35605e-06
4.71295e-06
2.63361e-06
1.45796e-06
7.99505e-07
4.3426e-07
2.33626e-07
1.24459e-07
6.56529e-08
3.42929e-08
1.77232e-08
9.04108e-09
4.50023e-09
2.0273e-09
5.71859e-10
73.0747
210.35
324.15
406.676
456.818
478.033
475.993
456.834
426.159
388.611
347.787
306.328
266.082
228.262
193.6
162.467
134.979
111.069
90.5476
73.1515
58.5741
46.4921
36.5834
28.5399
22.0753
16.9302
12.8745
9.7079
7.25855
5.38158
3.9565
2.8844
2.0852
1.49482
1.06264
0.74909
0.523649
0.363
0.249536
0.170108
0.114995
0.0770906
0.0512494
0.0337864
0.0220881
0.0143198
0.00920603
0.00586893
0.00371013
0.0023257
0.00144557
0.000890903
0.000544393
0.00032981
0.00019809
0.000117946
6.9614e-05
4.07262e-05
2.36146e-05
1.35701e-05
7.72756e-06
4.36037e-06
2.43772e-06
1.35013e-06
7.40733e-07
4.02544e-07
2.16691e-07
1.15508e-07
6.09617e-08
3.18419e-08
1.64687e-08
8.41873e-09
4.18851e-09
1.91864e-09
5.59785e-10
53.4679
154.987
241.747
307.941
351.683
374.192
378.582
368.758
348.653
321.787
291.081
258.816
226.69
195.896
167.22
141.125
117.834
97.3888
79.7054
64.6156
51.8989
41.3072
32.5838
25.476
19.7447
15.1701
11.5549
8.72571
6.53296
4.84957
3.56938
2.60486
1.8849
1.35241
0.962166
0.678768
0.474817
0.329358
0.226544
0.154519
0.104511
0.0700957
0.0466203
0.0307477
0.0201096
0.0130421
0.00838764
0.00534906
0.00338263
0.0021211
0.00131882
0.000813053
0.000496982
0.000301186
0.000180958
0.000107782
6.3638e-05
3.72439e-05
2.16039e-05
1.24197e-05
7.07555e-06
3.99429e-06
2.23415e-06
1.23802e-06
6.79609e-07
3.69528e-07
1.99011e-07
1.06158e-07
5.60597e-08
2.93141e-08
1.5179e-08
7.73381e-09
3.8252e-09
1.77485e-09
5.22466e-10
39.6944
115.621
181.932
234.414
271.189
292.445
299.822
295.755
282.941
263.97
241.125
216.29
190.937
166.161
142.726
121.125
101.636
84.3727
69.3252
56.3989
45.4425
36.2712
28.6845
22.479
17.4583
13.4387
10.2537
7.75527
5.81468
4.32202
3.1849
2.32683
1.68542
1.21041
0.861887
0.60851
0.425984
0.295688
0.203515
0.138894
0.0939947
0.0630752
0.0419714
0.0276942
0.0181204
0.0117568
0.00756399
0.0048256
0.0030527
0.00191489
0.00119102
0.00073451
0.000449126
0.000272277
0.000163646
9.75061e-05
5.7592e-05
3.37186e-05
1.95669e-05
1.12535e-05
6.41404e-06
3.62256e-06
2.02723e-06
1.12398e-06
6.1737e-07
3.35878e-07
1.80966e-07
9.65859e-08
5.10502e-08
2.67237e-08
1.38223e-08
7.03353e-09
3.48933e-09
1.58496e-09
4.52218e-10
29.7621
86.9968
137.789
179.1
209.318
228.193
236.542
235.859
227.964
214.728
197.887
178.945
159.134
139.406
120.463
102.783
86.6646
72.2583
59.6046
48.6625
39.3343
31.4863
24.9654
19.6108
15.2635
11.7723
8.99827
6.81683
5.11871
3.80992
2.81107
2.0561
1.49091
1.07178
0.763871
0.539766
0.378157
0.262682
0.18092
0.123552
0.0836616
0.0561723
0.0373974
0.0246882
0.0161609
0.01049
0.00675177
0.00430912
0.00272701
0.00171122
0.00106472
0.000656854
0.000401783
0.000243662
0.000146501
8.73225e-05
5.15967e-05
3.02204e-05
1.75442e-05
1.00945e-05
5.75611e-06
3.25254e-06
1.8211e-06
1.01023e-06
5.55176e-07
3.02229e-07
1.62954e-07
8.70235e-08
4.60275e-08
2.41037e-08
1.24547e-08
6.35081e-09
3.15236e-09
1.41483e-09
4.11607e-10
22.4614
65.8305
104.788
137.14
161.586
177.729
185.934
187.105
182.46
173.328
161.008
146.675
131.325
115.763
100.602
86.2812
73.0922
61.2019
50.6796
41.5211
33.6688
27.0293
21.4879
16.9197
13.1978
10.1995
7.8104
5.9269
4.45734
3.32238
2.45456
1.79751
1.30486
0.939002
0.66988
0.473771
0.332196
0.230933
0.159167
0.108769
0.0736976
0.049511
0.0329806
0.0217835
0.0142664
0.0092645
0.00596555
0.00380891
0.0024114
0.00151374
0.0009422
0.000581479
0.000355805
0.000215856
0.00012983
7.74143e-05
4.57596e-05
2.68122e-05
1.5572e-05
8.96365e-06
5.11357e-06
2.89084e-06
1.61939e-06
8.98809e-07
4.94221e-07
2.69227e-07
1.45276e-07
7.76092e-08
4.10739e-08
2.151e-08
1.11222e-08
5.667e-09
2.8121e-09
1.29738e-09
3.97338e-10
17.0194
49.9833
79.8739
105.104
124.655
138.115
145.609
147.678
145.129
138.899
129.949
119.176
107.373
95.1984
83.1731
71.6843
61.0003
51.2875
42.6299
35.0464
28.508
22.9521
18.2947
14.4401
11.2886
8.74172
6.70658
5.098
3.84004
2.86644
2.12057
1.55486
1.13002
0.814058
0.581323
0.41152
0.288796
0.200923
0.138587
0.0947715
0.0642551
0.0431937
0.0287888
0.019025
0.0124661
0.00809919
0.00521751
0.0033327
0.00211077
0.00132554
0.000825363
0.000509559
0.00031191
0.000189294
0.000113894
6.79372e-05
4.01728e-05
2.35478e-05
1.36816e-05
7.87882e-06
4.49666e-06
2.54328e-06
1.42539e-06
7.91568e-07
4.35515e-07
2.37371e-07
1.28145e-07
6.85023e-08
3.62598e-08
1.89833e-08
9.83575e-09
5.05124e-09
2.53001e-09
1.17665e-09
3.4575e-10
12.9221
38.012
60.9329
80.5319
96.0265
107.043
113.587
115.975
114.741
110.541
104.077
96.0293
87.0147
77.5631
68.1045
58.9695
50.3957
42.5392
35.4872
29.2721
23.8845
19.2842
15.4112
12.1934
9.55327
7.41302
5.69791
4.33879
3.27342
2.44711
1.81285
1.33094
0.968425
0.698415
0.499254
0.35376
0.248482
0.173019
0.119432
0.0817318
0.0554515
0.0372991
0.0248747
0.0164474
0.0107827
0.00700889
0.0045172
0.00288662
0.00182898
0.00114903
0.000715725
0.000442031
0.000270671
0.000164324
9.89053e-05
5.90171e-05
3.49107e-05
2.04709e-05
1.18985e-05
6.85475e-06
3.91386e-06
2.21462e-06
1.24178e-06
6.89925e-07
3.79795e-07
2.07106e-07
1.11865e-07
5.9852e-08
3.17014e-08
1.66201e-08
8.62508e-09
4.42998e-09
2.22158e-09
1.03615e-09
2.93064e-10
9.81608
28.9128
46.464
61.6292
73.8136
82.7003
88.2411
90.6165
90.1775
87.383
82.7411
76.7613
69.9193
62.633
55.2511
48.0485
41.2292
34.933
29.244
24.2006
19.8056
16.0353
12.8477
10.1893
8.00066
6.22087
4.79059
3.65426
2.76144
2.06748
1.53375
1.12749
0.821386
0.593039
0.424372
0.300995
0.211612
0.147472
0.101878
0.0697706
0.0473691
0.0318832
0.0212756
0.0140756
0.00923261
0.00600427
0.00387151
0.00247508
0.00156887
0.000985997
0.000614402
0.000379588
0.000232515
0.000141207
8.50197e-05
5.07485e-05
3.00296e-05
1.76149e-05
1.02421e-05
5.90268e-06
3.37159e-06
1.90858e-06
1.07063e-06
5.9508e-07
3.27739e-07
1.78817e-07
9.66518e-08
5.17384e-08
2.74415e-08
1.44128e-08
7.49234e-09
3.82629e-09
1.90217e-09
8.80289e-10
2.67819e-10
7.45101
21.97
35.3797
47.0662
56.5806
63.6646
68.25
70.4362
70.4533
68.6206
65.3048
60.8845
55.7216
50.1418
44.4229
38.7891
33.4113
28.4104
23.8631
19.8093
16.2589
13.1993
10.602
8.42788
6.63193
5.16701
3.98649
3.04619
2.30567
1.72885
1.28435
0.945387
0.689563
0.498432
0.357052
0.253499
0.178386
0.124425
0.0860261
0.0589589
0.040057
0.0269793
0.0180143
0.0119248
0.007826
0.00509204
0.00328483
0.00210092
0.00133224
0.000837601
0.000522119
0.000322684
0.000197723
0.000120116
7.23433e-05
4.31952e-05
2.5568e-05
1.50024e-05
8.72589e-06
5.03054e-06
2.87441e-06
1.62773e-06
9.13452e-07
5.07935e-07
2.7985e-07
1.52749e-07
8.26133e-08
4.42483e-08
2.34736e-08
1.23164e-08
6.39911e-09
3.29505e-09
1.63984e-09
7.24428e-10
2.01962e-10
5.64579
16.6618
26.8778
35.8446
43.2251
48.8144
52.5416
54.4584
54.7152
53.5337
51.1775
47.9257
44.0515
39.8056
35.4062
31.0332
26.8266
22.8885
19.2862
16.0577
13.2165
10.7575
8.66176
6.9012
5.44213
4.24844
3.28386
2.51363
1.90565
1.43106
1.06462
0.78468
0.573048
0.414689
0.297382
0.211347
0.148864
0.103924
0.0719114
0.049323
0.0335343
0.0226012
0.0151004
0.0100016
0.00656739
0.00427524
0.00275919
0.00176548
0.00111998
0.000704405
0.000439242
0.000271552
0.000166443
0.000101143
6.0933e-05
3.63922e-05
2.1547e-05
1.26465e-05
7.35766e-06
4.24297e-06
2.42512e-06
1.37373e-06
7.71153e-07
4.28981e-07
2.36431e-07
1.29114e-07
6.98655e-08
3.74617e-08
1.98691e-08
1.04372e-08
5.4365e-09
2.79453e-09
1.39946e-09
6.0808e-10
1.60252e-10
4.26681
12.6015
20.3574
27.2056
32.8944
37.2637
40.2488
41.8736
42.2363
41.4903
39.8245
37.4436
34.552
31.3409
27.9797
24.6103
21.3459
18.2704
15.4413
12.893
10.6402
8.68233
7.00741
5.59548
4.42164
3.45851
2.67815
2.05349
1.55929
1.17271
0.87365
0.644774
0.471455
0.341564
0.245208
0.174444
0.122987
0.0859354
0.0595131
0.0408508
0.0277941
0.018745
0.0125318
0.00830517
0.00545634
0.00355372
0.00229457
0.00146881
0.00093213
0.000586466
0.000365818
0.000226226
0.000138699
8.43056e-05
5.0802e-05
3.03486e-05
1.79728e-05
1.05511e-05
6.13995e-06
3.54156e-06
2.02471e-06
1.14719e-06
6.44147e-07
3.58431e-07
1.97597e-07
1.07944e-07
5.84097e-08
3.13161e-08
1.66454e-08
8.76118e-09
4.57816e-09
2.32585e-09
1.15799e-09
5.27954e-10
1.36105e-10
3.21402
9.49816
15.3628
20.5675
24.9247
28.3114
30.6718
32.0146
32.4035
31.9448
30.7731
29.0379
26.8912
24.4773
21.9262
19.349
16.835
14.4526
12.2496
10.2557
8.48532
6.9407
5.61453
4.49288
3.55752
2.7879
2.16271
1.66106
1.26329
0.951506
0.709841
0.524564
0.384029
0.278546
0.200183
0.142557
0.100602
0.0703565
0.0487647
0.0334989
0.0228085
0.0153929
0.0102972
0.00682814
0.00448834
0.00292468
0.00188925
0.00120984
0.000768065
0.000483402
0.00030162
0.000186575
0.000114417
6.95616e-05
4.19258e-05
2.50507e-05
1.4838e-05
8.71226e-06
5.07074e-06
2.92533e-06
1.6727e-06
9.47913e-07
5.32351e-07
2.96275e-07
1.63372e-07
8.92594e-08
4.83029e-08
2.59082e-08
1.37663e-08
7.25196e-09
3.76154e-09
1.91424e-09
9.68099e-10
4.4234e-10
1.28421e-10
2.4116
7.13064
11.5456
15.4807
18.797
21.4008
23.2462
24.3338
24.7047
24.4323
23.6125
22.3538
20.7683
18.9645
17.0411
15.0836
13.1623
11.3314
9.62991
8.08307
6.70407
5.49638
4.45592
3.57313
2.83479
2.22563
1.72954
1.33055
1.01349
0.764474
0.571096
0.422579
0.309744
0.224922
0.161819
0.115353
0.0814814
0.0570351
0.0395644
0.0271998
0.0185329
0.0125158
0.0083777
0.00555848
0.00365565
0.00238321
0.00154014
0.000986657
0.000626596
0.000394485
0.000246206
0.000152334
9.34379e-05
5.68169e-05
3.42497e-05
2.0467e-05
1.21244e-05
7.11972e-06
4.14428e-06
2.39108e-06
1.36736e-06
7.74978e-07
4.35278e-07
2.42255e-07
1.33616e-07
7.3019e-08
3.9545e-08
2.12444e-08
1.12835e-08
5.94579e-09
3.07443e-09
1.58935e-09
7.94675e-10
3.58921e-10
1.18543e-10
1.80159
5.32941
8.63692
11.596
14.1041
16.0904
17.5183
18.3845
18.7153
18.5614
17.9909
17.0821
15.9174
14.5774
13.1366
11.6603
10.2028
8.80663
7.50321
6.31325
5.24831
4.31237
3.50339
2.81491
2.23747
1.75982
1.36988
1.05555
0.805244
0.608262
0.455013
0.337114
0.247397
0.179852
0.129532
0.09243
0.0653508
0.0457844
0.0317861
0.0218692
0.0149115
0.0100768
0.00674925
0.00448053
0.00294821
0.0019229
0.00124318
0.000796707
0.000506127
0.00031873
0.000198973
0.000123134
7.55398e-05
4.59396e-05
2.76956e-05
1.65517e-05
9.80556e-06
5.75829e-06
3.35189e-06
1.93396e-06
1.10596e-06
6.26837e-07
3.52084e-07
1.95958e-07
1.08073e-07
5.90694e-08
3.20109e-08
1.71733e-08
9.13657e-09
4.80756e-09
2.52342e-09
1.30616e-09
6.23447e-10
2.91966e-10
6.91499e-11
1.33942
3.9638
6.42885
8.64134
10.526
12.0299
13.1241
13.8039
14.0863
14.0059
13.6109
12.9579
12.1069
11.1174
10.0451
8.93943
7.84182
6.78542
5.79489
4.88702
4.0716
3.35254
2.72909
2.19697
1.74948
1.37839
1.07473
0.829419
0.633673
0.479333
0.359043
0.266345
0.195693
0.142424
0.102684
0.0733449
0.0519054
0.0363965
0.0252892
0.0174125
0.0118811
0.0080342
0.00538435
0.00357639
0.00235445
0.00153631
0.000993634
0.000637001
0.000404788
0.000254976
0.000159205
9.85394e-05
6.04587e-05
3.6771e-05
2.21692e-05
1.32492e-05
7.84901e-06
4.60918e-06
2.68287e-06
1.54786e-06
8.85137e-07
5.01628e-07
2.81732e-07
1.56807e-07
8.64868e-08
4.72766e-08
2.55767e-08
1.3695e-08
7.28159e-09
3.84715e-09
2.01303e-09
1.03176e-09
5.14783e-10
2.37085e-10
5.81737e-11
0.990661
2.93273
4.75983
6.40439
7.81138
8.94141
9.77231
10.2991
10.5323
10.4961
10.2243
9.7573
9.13883
8.41254
7.6197
6.79728
5.97675
5.1835
4.4367
3.74969
3.13054
2.58283
2.10655
1.69893
1.35525
1.06957
0.835271
0.645594
0.493943
0.374147
0.280618
0.208423
0.153315
0.111704
0.0806195
0.057641
0.0408295
0.0286547
0.019926
0.0137301
0.00937502
0.0063436
0.00425384
0.00282699
0.00186198
0.00121549
0.000786425
0.000504322
0.000320561
0.000201964
0.000126126
7.80738e-05
4.79054e-05
2.91369e-05
1.75663e-05
1.04978e-05
6.2186e-06
3.65136e-06
2.12508e-06
1.22587e-06
7.00891e-07
3.97161e-07
2.23025e-07
1.24115e-07
6.84716e-08
3.74024e-08
2.02247e-08
1.08379e-08
5.75591e-09
3.03052e-09
1.57398e-09
8.06749e-10
4.28071e-10
2.09645e-10
7.57356e-11
0.728694
2.15787
3.50435
4.71932
5.76275
6.6056
7.23101
7.63435
7.82237
7.81143
7.6254
7.29315
6.84616
6.31627
5.73385
5.12637
4.51744
3.92629
3.36766
2.85198
2.38574
1.97208
1.61136
1.30184
1.04024
0.822278
0.643141
0.497823
0.381416
0.289296
0.217253
0.161554
0.118974
0.086777
0.062693
0.0448672
0.0318101
0.0223437
0.0155498
0.0107225
0.00732643
0.00496054
0.0033283
0.00221303
0.00145827
0.000952331
0.000616375
0.000395386
0.000251376
0.000158403
9.89342e-05
6.12462e-05
3.75808e-05
2.28566e-05
1.3779e-05
8.23353e-06
4.87657e-06
2.86284e-06
1.6658e-06
9.60717e-07
5.49128e-07
3.11081e-07
1.74652e-07
9.71754e-08
5.35659e-08
2.92504e-08
1.58452e-08
8.50105e-09
4.50901e-09
2.36427e-09
1.25019e-09
6.70644e-10
3.49042e-10
1.76716e-10
4.71976e-11
0.532913
1.57853
2.56489
3.45686
4.22548
4.84949
5.31622
5.62173
5.77018
5.77277
5.64622
5.41102
5.08978
4.70554
4.28051
3.8349
3.38627
2.94905
2.53443
2.15045
1.80224
1.49243
1.22157
0.988577
0.791197
0.626385
0.49065
0.380326
0.291789
0.221602
0.166621
0.124049
0.0914553
0.0667762
0.0482914
0.0345931
0.0245477
0.0172569
0.0120191
0.00829388
0.00567078
0.00384188
0.00257916
0.00171577
0.0011311
0.000738947
0.000478419
0.000306971
0.000195203
0.000123023
7.6843e-05
4.75714e-05
2.9189e-05
1.77512e-05
1.06998e-05
6.39235e-06
3.78522e-06
2.22157e-06
1.2923e-06
7.45058e-07
4.25722e-07
2.41076e-07
1.35302e-07
7.52186e-08
4.14362e-08
2.26318e-08
1.2245e-08
6.57802e-09
3.50799e-09
1.8418e-09
9.60415e-10
5.1588e-10
2.59038e-10
1.08664e-10
3.62214e-11
0.387396
1.14777
1.86585
2.51648
3.07882
3.5374
3.88282
4.11184
4.22703
4.23601
4.15044
3.98482
3.75527
3.47838
3.17025
2.84565
2.51751
2.19657
1.89122
1.60758
1.34964
1.11954
0.91787
0.743989
0.596361
0.472835
0.370902
0.287897
0.221165
0.168177
0.126603
0.0943626
0.0696446
0.0509035
0.0368485
0.0264205
0.0187646
0.0132022
0.00920205
0.00635445
0.00434755
0.00294716
0.00197957
0.00131752
0.00086892
0.000567867
0.000367763
0.000236024
0.000150113
9.46151e-05
5.91009e-05
3.65869e-05
2.24471e-05
1.36491e-05
8.22552e-06
4.91293e-06
2.90827e-06
1.70628e-06
9.92175e-07
5.71767e-07
3.26564e-07
1.84839e-07
1.03668e-07
5.76019e-08
3.17354e-08
1.73226e-08
9.3517e-09
5.01721e-09
2.6705e-09
1.39288e-09
7.14549e-10
3.46847e-10
1.80009e-10
9.11023e-11
4.93928e-11
0.279865
0.829359
1.3488
1.82027
2.22884
2.56336
2.81691
2.98692
3.07494
3.08616
3.02866
2.91266
2.74958
2.5513
2.3294
2.0946
1.85634
1.62252
1.39938
1.19152
1.002
0.832509
0.683613
0.554953
0.44549
0.353716
0.277842
0.215947
0.166102
0.126459
0.0953081
0.0711162
0.0525429
0.0384424
0.0278546
0.0199898
0.0142094
0.0100052
0.00697893
0.00482259
0.00330158
0.00223939
0.00150494
0.00100209
0.000661147
0.000432222
0.000279991
0.000179728
0.000114323
7.20617e-05
4.50128e-05
2.78635e-05
1.70926e-05
1.03912e-05
6.2605e-06
3.73804e-06
2.21194e-06
1.29717e-06
7.53904e-07
4.34236e-07
2.47857e-07
1.40217e-07
7.85916e-08
4.36874e-08
2.40378e-08
1.30946e-08
7.07414e-09
3.79007e-09
2.01523e-09
1.06469e-09
5.40028e-10
2.50257e-10
1.30616e-10
6.69547e-11
1.97571e-11
0.200888
0.595433
0.968728
1.30808
1.60286
1.84508
2.02968
2.1547
2.22104
2.23222
2.19384
2.11303
1.99787
1.85679
1.69806
1.52941
1.35767
1.1886
1.02679
0.875663
0.737529
0.613712
0.504698
0.410304
0.329834
0.262242
0.20626
0.160514
0.123615
0.0942221
0.0710918
0.0531036
0.0392748
0.028763
0.0208604
0.0149836
0.0106596
0.00751157
0.00524331
0.00362566
0.00248367
0.00168556
0.00113331
0.000754957
0.000498281
0.000325849
0.000211132
0.00013555
8.62301e-05
5.4355e-05
3.39508e-05
2.10134e-05
1.28881e-05
7.83305e-06
4.71771e-06
2.81577e-06
1.66544e-06
9.76171e-07
5.67016e-07
3.26379e-07
1.86164e-07
1.05248e-07
5.89651e-08
3.27496e-08
1.79965e-08
9.78746e-09
5.27954e-09
2.84393e-09
1.50593e-09
7.9687e-10
3.95142e-10
1.98669e-10
1.00981e-10
2.96357e-11
-6.5857e-12
0.143253
0.424676
0.691154
0.933741
1.14492
1.31899
1.45233
1.54342
1.59279
1.60283
1.57737
1.5214
1.44057
1.34083
1.22806
1.10778
0.984886
0.863553
0.747124
0.638112
0.538241
0.448527
0.369375
0.300703
0.242052
0.192699
0.151752
0.118239
0.0911647
0.0695662
0.0525454
0.0392907
0.0290878
0.0213227
0.0154783
0.0111272
0.00792246
0.00558696
0.00390261
0.00270034
0.0018509
0.00125679
0.000845425
0.000563413
0.000371989
0.000243328
0.000157696
0.000101257
6.44185e-05
4.06056e-05
2.53605e-05
1.56939e-05
9.62316e-06
5.84686e-06
3.52011e-06
2.10001e-06
1.24144e-06
7.27205e-07
4.22133e-07
2.42811e-07
1.38389e-07
7.8157e-08
4.37521e-08
2.42595e-08
1.33207e-08
7.24647e-09
3.90093e-09
2.0734e-09
1.07127e-09
5.78444e-10
2.97454e-10
1.72326e-10
7.35404e-11
3.07333e-11
1.09762e-12
0.101469
0.300854
0.489786
0.661997
0.812201
0.936372
1.03191
1.09768
1.134
1.14246
1.12569
1.08714
1.03075
0.960702
0.881136
0.795958
0.708666
0.622247
0.539115
0.461099
0.389472
0.324996
0.268001
0.218461
0.176074
0.140347
0.110658
0.0863201
0.0666293
0.0508988
0.0384855
0.0288063
0.0213464
0.0156623
0.0113792
0.00818719
0.00583377
0.00411701
0.00287777
0.00199247
0.00136649
0.000928346
0.000624766
0.000416522
0.000275094
0.000179992
0.00011667
7.49224e-05
4.76662e-05
3.00444e-05
1.8762e-05
1.16081e-05
7.11578e-06
4.32185e-06
2.6008e-06
1.55076e-06
9.16204e-07
5.36332e-07
3.11097e-07
1.78808e-07
1.01835e-07
5.74592e-08
3.21207e-08
1.7788e-08
9.7677e-09
5.29271e-09
2.85051e-09
1.49935e-09
7.83699e-10
4.13802e-10
2.27207e-10
1.04274e-10
1.75619e-11
1.09762e-11
1.4269e-11
0.0713822
0.211676
0.344701
0.466092
0.572156
0.660065
0.727973
0.775054
0.801477
0.808301
0.79733
0.770933
0.731845
0.682974
0.627221
0.567333
0.505784
0.444696
0.385796
0.330402
0.279441
0.23348
0.192777
0.157337
0.126963
0.10132
0.0799781
0.0624574
0.048262
0.0369062
0.0279335
0.0209283
0.015523
0.0113996
0.00828923
0.00596875
0.00425624
0.00300584
0.00210246
0.00145655
0.000999489
0.000679355
0.000457396
0.000305051
0.000201533
0.000131892
8.55055e-05
5.49134e-05
3.49363e-05
2.20189e-05
1.3748e-05
8.50386e-06
5.21112e-06
3.1637e-06
1.90288e-06
1.13397e-06
6.69514e-07
3.91656e-07
2.26996e-07
1.3037e-07
7.41836e-08
4.18258e-08
2.33485e-08
1.28893e-08
7.06536e-09
3.8252e-09
2.05254e-09
1.09762e-09
5.93811e-10
2.88673e-10
1.47081e-10
5.48809e-11
9.87856e-12
-7.68332e-12
-3.29285e-12
0.0498677
0.147896
0.240901
0.325858
0.400207
0.461976
0.509863
0.543273
0.562292
0.567625
0.560498
0.54253
0.515606
0.481739
0.442944
0.40114
0.358063
0.315207
0.273797
0.234774
0.198806
0.166308
0.13748
0.112336
0.0907539
0.0725053
0.0572954
0.0447913
0.0346468
0.026521
0.0200925
0.0150677
0.011186
0.00822169
0.00598329
0.00431167
0.00307684
0.00217442
0.00152188
0.00105495
0.000724295
0.000492538
0.000331753
0.000221333
0.000146265
9.57421e-05
6.20778e-05
3.98698e-05
2.53648e-05
1.59846e-05
9.97835e-06
6.17037e-06
3.77975e-06
2.29362e-06
1.37881e-06
8.21128e-07
4.84451e-07
2.83184e-07
1.64019e-07
9.41185e-08
5.3511e-08
3.01406e-08
1.68144e-08
9.27487e-09
5.07977e-09
2.766e-09
1.48288e-09
7.97968e-10
4.2368e-10
2.20621e-10
1.00981e-10
5.04904e-11
2.52452e-11
1.64643e-11
-2.74404e-11
0.0345923
0.102605
0.167166
0.226197
0.277931
0.321003
0.354506
0.378013
0.391564
0.395626
0.391028
0.378871
0.360445
0.337134
0.310329
0.28136
0.251434
0.221597
0.192708
0.165433
0.14025
0.117458
0.0972061
0.0795162
0.0643091
0.0514326
0.0406855
0.0318386
0.0246519
0.0188883
0.0143232
0.0107508
0.00798804
0.00587601
0.0042796
0.00308626
0.00220393
0.00155856
0.00109151
0.000757051
0.000520032
0.000353795
0.000238395
0.0001591
0.000105167
6.88529e-05
4.46481e-05
2.86764e-05
1.82427e-05
1.14947e-05
7.17393e-06
4.43477e-06
2.71548e-06
1.64697e-06
9.8949e-07
5.88841e-07
3.47143e-07
2.02756e-07
1.17325e-07
6.72422e-08
3.82004e-08
2.14826e-08
1.19761e-08
6.61205e-09
3.62763e-09
1.9801e-09
1.06798e-09
5.69663e-10
2.86478e-10
1.66838e-10
1.04274e-10
6.91499e-11
2.08547e-11
1.53666e-11
-5.48809e-12
0.0238249
0.0706746
0.115169
0.155887
0.191618
0.221425
0.244679
0.261077
0.270637
0.273667
0.270721
0.262546
0.250018
0.234083
0.215693
0.195764
0.175129
0.154513
0.134515
0.115602
0.0981099
0.0822541
0.0681444
0.0558014
0.045176
0.036167
0.0286379
0.0224323
0.0173851
0.0133326
0.0101192
0.00760182
0.00565297
0.00416162
0.00303328
0.00218904
0.00156428
0.00110692
0.000775673
0.000538286
0.00036994
0.000251792
0.000169726
0.000113308
7.49154e-05
4.90555e-05
3.18133e-05
2.04331e-05
1.29977e-05
8.18851e-06
5.10922e-06
3.15733e-06
1.93244e-06
1.17145e-06
7.03336e-07
4.18277e-07
2.46394e-07
1.43782e-07
8.30896e-08
4.75718e-08
2.69849e-08
1.5168e-08
8.45714e-09
4.67146e-09
2.53111e-09
1.37861e-09
7.61747e-10
3.90752e-10
1.97571e-10
1.03176e-10
6.47594e-11
4.82952e-11
1.75619e-11
-1.09762e-11
1.31714e-11
0.0162906
0.0483293
0.0787708
0.10665
0.131145
0.151614
0.167627
0.178971
0.18565
0.187868
0.185994
0.180531
0.172069
0.161251
0.148725
0.135115
0.120993
0.106857
0.093121
0.080109
0.068056
0.0571146
0.0473644
0.0388235
0.0314614
0.0252113
0.0199816
0.0156661
0.0121521
0.00932754
0.00708538
0.00532709
0.00396453
0.00292084
0.00213046
0.00153856
0.00110017
0.000778987
0.000546184
0.000379228
0.00026075
0.000177548
0.000119723
7.99496e-05
5.28721e-05
3.46266e-05
2.24576e-05
1.4424e-05
9.17441e-06
5.7788e-06
3.6047e-06
2.22677e-06
1.36225e-06
8.25322e-07
4.9518e-07
2.94276e-07
1.73211e-07
1.00972e-07
5.83043e-08
3.33423e-08
1.88867e-08
1.06074e-08
5.90738e-09
3.25992e-09
1.76277e-09
9.46146e-10
5.19173e-10
2.77697e-10
1.60252e-10
7.02475e-11
1.4269e-11
4.39047e-12
2.19524e-12
-1.75619e-11
1.31714e-11
0.0110577
0.0328078
0.0534819
0.0724296
0.0890949
0.103044
0.113983
0.121765
0.126388
0.127985
0.126801
0.123173
0.117496
0.110203
0.101731
0.0925054
0.082913
0.0732944
0.0639329
0.0550513
0.0468125
0.0393234
0.0326408
0.0267796
0.0217212
0.0174217
0.0138201
0.0108446
0.00841925
0.00646767
0.00491692
0.00369964
0.00275542
0.00203151
0.00148282
0.00107157
0.000766721
0.000543205
0.000381076
0.000264723
0.000182101
0.000124045
8.36739e-05
5.58918e-05
3.69701e-05
2.42155e-05
1.57063e-05
1.00876e-05
6.41553e-06
4.04024e-06
2.51948e-06
1.55578e-06
9.51281e-07
5.75979e-07
3.45342e-07
2.05036e-07
1.20583e-07
7.023e-08
4.05207e-08
2.31499e-08
1.30869e-08
7.31891e-09
4.06448e-09
2.22377e-09
1.21836e-09
6.39911e-10
3.3148e-10
1.95376e-10
1.30616e-10
8.12237e-11
3.62214e-11
5.48809e-12
1.09762e-11
1.09762e-11
1.09762e-12
0.00745049
0.0221071
0.0360439
0.0488251
0.0600778
0.0695103
0.0769238
0.0822177
0.0853883
0.0865212
0.0857787
0.0833835
0.0796004
0.0747181
0.0690306
0.0628227
0.0563562
0.0498614
0.0435308
0.0375164
0.0319299
0.0268452
0.0223026
0.0183136
0.0148671
0.0119344
0.009475
0.00744112
0.00578156
0.00444487
0.0033817
0.00254638
0.00189786
0.00140022
0.00102271
0.000739541
0.000529473
0.000375333
0.000263447
0.000183098
0.000126007
8.58673e-05
5.79405e-05
3.87129e-05
2.5612e-05
1.67781e-05
1.08829e-05
6.98949e-06
4.44465e-06
2.79848e-06
1.74457e-06
1.07682e-06
6.58102e-07
3.98226e-07
2.3861e-07
1.41565e-07
8.31731e-08
4.84104e-08
2.78927e-08
1.5922e-08
8.9851e-09
5.01831e-09
2.77587e-09
1.50483e-09
8.04554e-10
4.06118e-10
2.10743e-10
1.20738e-10
7.35404e-11
5.04904e-11
4.06118e-11
5.48809e-12
1.97571e-11
3.07333e-11
5.48809e-12
0.00498278
0.014786
0.0241108
0.0326676
0.0402078
0.0465368
0.0515211
0.0550925
0.0572469
0.0580396
0.0575769
0.0560059
0.0535019
0.0502565
0.0464658
0.0423196
0.0379933
0.0336417
0.0293941
0.0253535
0.0215957
0.0181715
0.0151089
0.0124166
0.0100879
0.00810432
0.00643924
0.00506089
0.00393514
0.00302758
0.00230508
0.00173691
0.00129544
0.000956393
0.000698987
0.000505757
0.000362305
0.000256971
0.00018046
0.00012548
8.63908e-05
5.88926e-05
3.97514e-05
2.65666e-05
1.75795e-05
1.15174e-05
7.47094e-06
4.79797e-06
3.05069e-06
1.92037e-06
1.19678e-06
7.38378e-07
4.51034e-07
2.72761e-07
1.63313e-07
9.68285e-08
5.68412e-08
3.30482e-08
1.90031e-08
1.08137e-08
6.10605e-09
3.40261e-09
1.86924e-09
1.01091e-09
5.16978e-10
2.5794e-10
1.21836e-10
6.14666e-11
1.53666e-11
-1.64643e-11
-6.5857e-12
8.78094e-12
2.41476e-11
1.31714e-11
1.86595e-11
0.00330749
0.00981536
0.0160075
0.0216927
0.0267066