/*--------------------------------*- C++ -*----------------------------------*\
  =========                 |
  \\      /  F ield         | OpenFOAM: The Open Source CFD Toolbox
   \\    /   O peration     | Website:  https://openfoam.org
    \\  /    A nd           | Version:  10
     \\/     M anipulation  |
\*---------------------------------------------------------------------------*/
FoamFile
{
    format      ascii;
    class       volScalarField;
    location    "229";
    object      T;
}
// * * * * * * * * * * * * * * * * * * * * * * * * * * * * * * * * * * * * * //

dimensions      [0 0 0 1 0 0 0];

internalField   nonuniform List<scalar> 
11250
(
249.768
167.335
138.996
126.448
119.553
115.151
112.057
109.744
107.946
106.509
105.341
104.381
103.586
102.926
102.378
101.923
101.547
101.237
100.983
100.776
100.608
100.474
100.366
100.281
100.214
100.161
100.121
100.09
100.066
100.048
100.035
100.025
100.018
100.013
100.009
100.006
100.004
100.003
100.002
100.001
100.001
100.001
100
100
100
100
100
100
100
100
100
100
100
100
100
100
100
100
100
100
100
100
100
100
100
100
100
100
100
100
100
100
100
100
100
331.276
247.923
201.22
173.721
156.205
144.188
135.436
128.771
123.529
119.314
115.871
113.031
110.676
108.717
107.088
105.735
104.615
103.691
102.934
102.317
101.816
101.414
101.093
100.838
100.638
100.482
100.361
100.268
100.198
100.145
100.105
100.076
100.054
100.038
100.027
100.019
100.013
100.009
100.006
100.004
100.003
100.002
100.001
100.001
100
100
100
100
100
100
100
100
100
100
100
100
100
100
100
100
100
100
100
100
100
100
100
100
100
100
100
100
100
100
100
358.704
291.902
244.305
211.099
187.469
170.088
156.871
146.527
138.249
131.511
125.963
121.361
117.527
114.329
111.662
109.444
107.604
106.086
104.839
103.823
102.998
102.335
101.805
101.385
101.054
100.796
100.597
100.444
100.327
100.239
100.174
100.125
100.089
100.063
100.044
100.031
100.021
100.015
100.01
100.007
100.004
100.003
100.002
100.001
100.001
100.001
100
100
100
100
100
100
100
100
100
100
100
100
100
100
100
100
100
100
100
100
100
100
100
100
100
100
100
100
100
370.362
316.742
273.107
239.051
212.665
192.038
175.669
162.475
151.694
142.792
135.384
129.192
124.005
119.658
116.021
112.988
110.468
108.384
106.672
105.273
104.138
103.224
102.493
101.913
101.457
101.101
100.825
100.614
100.453
100.331
100.24
100.173
100.123
100.087
100.061
100.043
100.029
100.02
100.014
100.009
100.006
100.004
100.003
100.002
100.001
100.001
100
100
100
100
100
100
100
100
100
100
100
100
100
100
100
100
100
100
100
100
100
100
100
100
100
100
100
100
100
376.398
331.687
292.482
259.536
232.355
210.025
191.621
176.363
163.633
152.957
143.971
136.394
130.003
124.621
120.1
116.317
113.166
110.556
108.407
106.649
105.221
104.07
103.148
102.417
101.841
101.392
101.044
100.776
100.573
100.419
100.304
100.219
100.156
100.111
100.078
100.054
100.037
100.026
100.017
100.012
100.008
100.005
100.003
100.002
100.001
100.001
100.001
100
100
100
100
100
100
100
100
100
100
100
100
100
100
100
100
100
100
100
100
100
100
100
100
100
100
100
100
379.978
341.245
305.79
274.516
247.517
224.459
204.845
188.173
173.99
161.915
151.633
142.884
135.454
129.161
123.852
119.393
115.669
112.577
110.026
107.936
106.236
104.864
103.765
102.892
102.204
101.667
101.25
100.93
100.686
100.502
100.365
100.263
100.188
100.133
100.093
100.065
100.045
100.031
100.021
100.014
100.009
100.006
100.004
100.003
100.002
100.001
100.001
100
100
100
100
100
100
100
100
100
100
100
100
100
100
100
100
100
100
100
100
100
100
100
100
100
100
100
100
382.292
347.666
315.147
285.533
259.127
235.898
215.631
198.034
182.805
169.66
158.343
148.628
140.319
133.243
127.245
122.19
117.955
114.429
111.515
109.123
107.174
105.6
104.337
103.333
102.542
101.923
101.443
101.074
100.793
100.58
100.421
100.304
100.217
100.154
100.108
100.075
100.052
100.035
100.024
100.016
100.011
100.007
100.005
100.003
100.002
100.001
100.001
100.001
100
100
100
100
100
100
100
100
100
100
100
100
100
100
100
100
100
100
100
100
100
100
100
100
100
100
100
383.873
352.143
321.868
293.703
268.008
244.898
224.327
206.154
190.195
176.25
164.124
153.63
144.594
136.857
130.269
124.696
120.012
116.103
112.865
110.202
108.03
106.273
104.862
103.739
102.852
102.159
101.62
101.207
100.891
100.653
100.474
100.341
100.244
100.173
100.121
100.085
100.058
100.04
100.027
100.018
100.012
100.008
100.005
100.003
100.002
100.001
100.001
100.001
100
100
100
100
100
100
100
100
100
100
100
100
100
100
100
100
100
100
100
100
100
100
100
100
100
100
100
384.992
355.351
326.779
299.814
274.81
251.949
231.283
212.77
196.312
181.783
169.036
157.923
148.296
140.009
132.924
126.909
121.838
117.595
114.073
111.171
108.801
106.88
105.336
104.106
103.134
102.373
101.782
101.328
100.981
100.719
100.522
100.376
100.269
100.19
100.134
100.093
100.064
100.044
100.03
100.02
100.013
100.009
100.006
100.004
100.002
100.002
100.001
100.001
100
100
100
100
100
100
100
100
100
100
100
100
100
100
100
100
100
100
100
100
100
100
100
100
100
100
100
385.802
357.695
330.417
304.419
280.03
257.46
236.813
218.113
201.325
186.373
173.157
161.561
151.459
142.724
135.225
128.837
123.437
118.908
115.14
112.03
109.486
107.421
105.76
104.435
103.387
102.566
101.928
101.437
101.062
100.778
100.566
100.408
100.291
100.206
100.145
100.101
100.07
100.048
100.033
100.022
100.015
100.01
100.006
100.004
100.003
100.002
100.001
100.001
100
100
100
100
100
100
100
100
100
100
100
100
100
100
100
100
100
100
100
100
100
100
100
100
100
100
100
386.399
359.431
333.139
307.908
284.042
261.757
241.188
222.398
205.395
190.143
176.577
164.607
154.13
145.032
137.194
130.497
124.82
120.048
116.07
112.782
110.087
107.897
106.134
104.725
103.611
102.737
102.057
101.534
101.134
100.831
100.604
100.436
100.311
100.221
100.155
100.108
100.075
100.051
100.035
100.023
100.016
100.01
100.007
100.004
100.003
100.002
100.001
100.001
100
100
100
100
100
100
100
100
100
100
100
100
100
100
100
100
100
100
100
100
100
100
100
100
100
100
100
386.844
360.73
335.19
310.562
287.129
265.103
244.635
225.813
208.674
193.212
179.386
167.13
156.359
146.972
138.859
131.908
126.002
121.027
116.872
113.432
110.609
108.312
106.46
104.98
103.807
102.887
102.171
101.619
101.198
100.878
100.639
100.461
100.329
100.234
100.164
100.114
100.079
100.054
100.037
100.025
100.017
100.011
100.007
100.005
100.003
100.002
100.001
100.001
100
100
100
100
100
100
100
100
100
100
100
100
100
100
100
100
100
100
100
100
100
100
100
100
100
100
100
387.178
361.707
336.742
312.587
289.504
267.703
247.34
228.52
211.298
195.689
181.673
169.2
158.2
148.585
140.252
133.095
127
121.857
117.555
113.987
111.056
108.668
106.741
105.2
103.978
103.018
102.27
101.694
101.253
100.919
100.669
100.482
100.345
100.245
100.172
100.12
100.083
100.057
100.039
100.026
100.017
100.012
100.008
100.005
100.003
100.002
100.001
100.001
100.001
100
100
100
100
100
100
100
100
100
100
100
100
100
100
100
100
100
100
100
100
100
100
100
100
100
100
387.43
362.446
337.92
314.133
291.331
269.718
249.455
230.653
213.383
197.673
183.518
170.883
159.707
149.912
141.404
134.081
127.835
122.554
118.13
114.457
111.435
108.971
106.981
105.387
104.123
103.13
102.356
101.758
101.301
100.955
100.695
100.501
100.359
100.254
100.179
100.125
100.086
100.059
100.04
100.027
100.018
100.012
100.008
100.005
100.003
100.002
100.001
100.001
100.001
100
100
100
100
100
100
100
100
100
100
100
100
100
100
100
100
100
100
100
100
100
100
100
100
100
100
387.621
363.006
338.816
315.314
292.734
271.276
251.101
232.326
215.029
199.25
184.995
172.238
160.928
150.993
142.348
134.893
128.524
123.132
118.609
114.849
111.753
109.226
107.183
105.546
104.247
103.225
102.428
101.813
101.342
100.985
100.717
100.518
100.37
100.263
100.185
100.129
100.089
100.061
100.042
100.028
100.019
100.012
100.008
100.005
100.003
100.002
100.001
100.001
100.001
100
100
100
100
100
100
100
100
100
100
100
100
100
100
100
100
100
100
100
100
100
100
100
100
100
100
387.765
363.43
339.496
316.214
293.809
272.477
252.377
233.63
216.321
200.496
186.168
173.32
161.908
151.867
143.114
135.555
129.088
123.607
119.004
115.174
112.017
109.438
107.352
105.679
104.35
103.304
102.489
101.859
101.377
101.011
100.736
100.531
100.38
100.27
100.19
100.132
100.092
100.063
100.043
100.029
100.019
100.013
100.008
100.005
100.004
100.002
100.001
100.001
100.001
100
100
100
100
100
100
100
100
100
100
100
100
100
100
100
100
100
100
100
100
100
100
100
100
100
100
387.874
363.751
340.013
316.899
294.631
273.398
253.361
234.642
217.329
201.473
187.093
174.178
162.689
152.565
143.729
136.089
129.545
123.993
119.326
115.44
112.233
109.613
107.491
105.789
104.436
103.371
102.54
101.897
101.406
101.032
100.752
100.543
100.389
100.276
100.194
100.135
100.094
100.064
100.044
100.029
100.02
100.013
100.009
100.006
100.004
100.002
100.001
100.001
100.001
100
100
100
100
100
100
100
100
100
100
100
100
100
100
100
100
100
100
100
100
100
100
100
100
100
100
387.956
363.994
340.403
317.42
295.257
274.103
254.117
235.422
218.11
202.234
187.817
174.852
163.305
153.119
144.219
136.516
129.912
124.304
119.587
115.655
112.409
109.755
107.605
105.879
104.506
103.425
102.581
101.929
101.429
101.05
100.765
100.552
100.396
100.281
100.198
100.138
100.095
100.065
100.045
100.03
100.02
100.013
100.009
100.006
100.004
100.002
100.001
100.001
100.001
100
100
100
100
100
100
100
100
100
100
100
100
100
100
100
100
100
100
100
100
100
100
100
100
100
100
388.018
364.176
340.698
317.813
295.731
274.639
254.694
236.021
218.711
202.822
188.379
175.378
163.788
153.555
144.606
136.854
130.204
124.552
119.795
115.828
112.551
109.87
107.697
105.952
104.563
103.47
102.616
101.955
101.449
101.065
100.776
100.56
100.401
100.285
100.201
100.14
100.097
100.066
100.045
100.03
100.02
100.014
100.009
100.006
100.004
100.002
100.002
100.001
100.001
100
100
100
100
100
100
100
100
100
100
100
100
100
100
100
100
100
100
100
100
100
100
100
100
100
100
388.064
364.314
340.92
318.11
296.09
275.046
255.133
236.477
219.171
203.274
188.813
175.785
164.163
153.894
144.908
137.12
130.433
124.748
119.96
115.965
112.664
109.961
107.77
106.01
104.609
103.505
102.643
101.976
101.465
101.076
100.784
100.567
100.406
100.288
100.203
100.142
100.098
100.067
100.046
100.031
100.021
100.014
100.009
100.006
100.004
100.002
100.002
100.001
100.001
100
100
100
100
100
100
100
100
100
100
100
100
100
100
100
100
100
100
100
100
100
100
100
100
100
100
388.099
364.416
341.086
318.332
296.359
275.352
255.465
236.823
219.521
203.619
189.144
176.098
164.452
154.157
145.143
137.326
130.613
124.902
120.089
116.073
112.753
110.034
107.828
106.056
104.646
103.534
102.665
101.993
101.477
101.086
100.791
100.572
100.41
100.291
100.205
100.143
100.099
100.068
100.046
100.031
100.021
100.014
100.009
100.006
100.004
100.002
100.002
100.001
100.001
100
100
100
100
100
100
100
100
100
100
100
100
100
100
100
100
100
100
100
100
100
100
100
100
100
100
388.125
364.493
341.21
318.498
296.561
275.581
255.714
237.084
219.785
203.88
189.396
176.336
164.673
154.358
145.324
137.486
130.751
125.02
120.19
116.157
112.822
110.091
107.874
106.093
104.675
103.556
102.682
102.006
101.487
101.093
100.797
100.576
100.413
100.293
100.206
100.144
100.1
100.068
100.047
100.031
100.021
100.014
100.009
100.006
100.004
100.002
100.002
100.001
100.001
100
100
100
100
100
100
100
100
100
100
100
100
100
100
100
100
100
100
100
100
100
100
100
100
100
100
388.144
364.549
341.302
318.621
296.711
275.752
255.9
237.279
219.984
204.076
189.587
176.517
164.841
154.512
145.461
137.608
130.858
125.112
120.268
116.222
112.876
110.135
107.91
106.121
104.697
103.574
102.696
102.016
101.495
101.099
100.801
100.579
100.415
100.295
100.208
100.145
100.1
100.069
100.047
100.032
100.021
100.014
100.009
100.006
100.004
100.002
100.002
100.001
100.001
100
100
100
100
100
100
100
100
100
100
100
100
100
100
100
100
100
100
100
100
100
100
100
100
100
100
388.158
364.591
341.369
318.712
296.821
275.878
256.037
237.424
220.132
204.223
189.729
176.652
164.967
154.627
145.565
137.7
130.938
125.182
120.327
116.272
112.917
110.168
107.937
106.143
104.715
103.587
102.706
102.024
101.501
101.104
100.805
100.582
100.417
100.296
100.208
100.146
100.101
100.069
100.047
100.032
100.021
100.014
100.009
100.006
100.004
100.002
100.002
100.001
100.001
100
100
100
100
100
100
100
100
100
100
100
100
100
100
100
100
100
100
100
100
100
100
100
100
100
100
388.169
364.622
341.419
318.779
296.903
275.971
256.139
237.531
220.241
204.332
189.835
176.753
165.061
154.714
145.644
137.769
130.999
125.234
120.372
116.31
112.949
110.194
107.958
106.16
104.728
103.598
102.715
102.031
101.506
101.107
100.807
100.584
100.418
100.297
100.209
100.146
100.101
100.069
100.047
100.032
100.021
100.014
100.009
100.006
100.004
100.003
100.002
100.001
100.001
100
100
100
100
100
100
100
100
100
100
100
100
100
100
100
100
100
100
100
100
100
100
100
100
100
100
388.176
364.644
341.455
318.827
296.962
276.04
256.214
237.609
220.321
204.412
189.913
176.827
165.131
154.778
145.702
137.821
131.045
125.274
120.405
116.338
112.972
110.214
107.974
106.173
104.738
103.606
102.721
102.035
101.51
101.11
100.809
100.585
100.419
100.298
100.21
100.147
100.101
100.07
100.047
100.032
100.021
100.014
100.009
100.006
100.004
100.003
100.002
100.001
100.001
100
100
100
100
100
100
100
100
100
100
100
100
100
100
100
100
100
100
100
100
100
100
100
100
100
100
388.182
364.66
341.481
318.863
297.005
276.089
256.268
237.667
220.38
204.47
189.97
176.882
165.182
154.825
145.745
137.86
131.079
125.303
120.43
116.359
112.99
110.228
107.986
106.182
104.745
103.612
102.725
102.039
101.512
101.112
100.811
100.586
100.42
100.298
100.21
100.147
100.102
100.07
100.047
100.032
100.021
100.014
100.009
100.006
100.004
100.003
100.002
100.001
100.001
100
100
100
100
100
100
100
100
100
100
100
100
100
100
100
100
100
100
100
100
100
100
100
100
100
100
388.186
364.672
341.5
318.888
297.036
276.125
256.307
237.708
220.422
204.513
190.011
176.922
165.22
154.86
145.776
137.888
131.103
125.324
120.449
116.375
113.003
110.239
107.995
106.189
104.751
103.616
102.729
102.042
101.514
101.114
100.812
100.587
100.421
100.299
100.211
100.147
100.102
100.07
100.048
100.032
100.021
100.014
100.009
100.006
100.004
100.003
100.002
100.001
100.001
100
100
100
100
100
100
100
100
100
100
100
100
100
100
100
100
100
100
100
100
100
100
100
100
100
100
388.188
364.68
341.514
318.906
297.059
276.15
256.335
237.738
220.453
204.543
190.041
176.95
165.247
154.885
145.799
137.908
131.121
125.34
120.462
116.386
113.013
110.247
108.001
106.195
104.755
103.619
102.731
102.044
101.516
101.115
100.813
100.588
100.421
100.299
100.211
100.147
100.102
100.07
100.048
100.032
100.021
100.014
100.009
100.006
100.004
100.003
100.002
100.001
100.001
100
100
100
100
100
100
100
100
100
100
100
100
100
100
100
100
100
100
100
100
100
100
100
100
100
100
388.19
364.686
341.523
318.919
297.074
276.168
256.355
237.759
220.475
204.565
190.063
176.971
165.266
154.903
145.815
137.923
131.134
125.351
120.472
116.395
113.02
110.253
108.006
106.198
104.758
103.622
102.733
102.045
101.517
101.116
100.814
100.588
100.421
100.299
100.211
100.147
100.102
100.07
100.048
100.032
100.022
100.014
100.009
100.006
100.004
100.003
100.002
100.001
100.001
100
100
100
100
100
100
100
100
100
100
100
100
100
100
100
100
100
100
100
100
100
100
100
100
100
100
388.192
364.69
341.53
318.928
297.086
276.181
256.369
237.774
220.49
204.581
190.078
176.986
165.28
154.916
145.827
137.933
131.144
125.36
120.479
116.401
113.025
110.257
108.009
106.201
104.761
103.624
102.735
102.046
101.518
101.116
100.814
100.588
100.422
100.3
100.211
100.147
100.102
100.07
100.048
100.032
100.022
100.014
100.009
100.006
100.004
100.003
100.002
100.001
100.001
100
100
100
100
100
100
100
100
100
100
100
100
100
100
100
100
100
100
100
100
100
100
100
100
100
100
388.193
364.693
341.535
318.935
297.093
276.19
256.379
237.784
220.501
204.591
190.089
176.996
165.29
154.925
145.835
137.941
131.15
125.365
120.484
116.405
113.028
110.26
108.012
106.203
104.762
103.625
102.736
102.047
101.518
101.117
100.814
100.589
100.422
100.3
100.211
100.147
100.102
100.07
100.048
100.032
100.022
100.014
100.009
100.006
100.004
100.003
100.002
100.001
100.001
100
100
100
100
100
100
100
100
100
100
100
100
100
100
100
100
100
100
100
100
100
100
100
100
100
100
388.193
364.695
341.538
318.939
297.099
276.196
256.386
237.792
220.508
204.599
190.096
177.003
165.297
154.931
145.841
137.946
131.155
125.369
120.488
116.408
113.031
110.262
108.013
106.204
104.763
103.626
102.736
102.047
101.519
101.117
100.815
100.589
100.422
100.3
100.211
100.148
100.102
100.07
100.048
100.032
100.022
100.014
100.009
100.006
100.004
100.003
100.002
100.001
100.001
100
100
100
100
100
100
100
100
100
100
100
100
100
100
100
100
100
100
100
100
100
100
100
100
100
100
388.194
364.696
341.54
318.942
297.103
276.201
256.39
237.797
220.514
204.604
190.101
177.008
165.301
154.935
145.845
137.95
131.158
125.372
120.49
116.41
113.032
110.263
108.014
106.205
104.764
103.626
102.737
102.048
101.519
101.117
100.815
100.589
100.422
100.3
100.211
100.148
100.102
100.07
100.048
100.032
100.022
100.014
100.009
100.006
100.004
100.003
100.002
100.001
100.001
100
100
100
100
100
100
100
100
100
100
100
100
100
100
100
100
100
100
100
100
100
100
100
100
100
100
388.194
364.697
341.542
318.944
297.105
276.204
256.394
237.8
220.517
204.608
190.105
177.012
165.305
154.939
145.848
137.952
131.16
125.374
120.492
116.411
113.034
110.264
108.015
106.206
104.765
103.627
102.737
102.048
101.519
101.117
100.815
100.589
100.422
100.3
100.211
100.148
100.102
100.07
100.048
100.032
100.022
100.014
100.009
100.006
100.004
100.003
100.002
100.001
100.001
100
100
100
100
100
100
100
100
100
100
100
100
100
100
100
100
100
100
100
100
100
100
100
100
100
100
388.194
364.698
341.543
318.946
297.107
276.206
256.396
237.802
220.52
204.61
190.107
177.014
165.307
154.941
145.85
137.954
131.162
125.376
120.493
116.412
113.035
110.265
108.016
106.207
104.765
103.627
102.737
102.048
101.519
101.118
100.815
100.589
100.422
100.3
100.211
100.148
100.102
100.07
100.048
100.032
100.022
100.014
100.009
100.006
100.004
100.003
100.002
100.001
100.001
100
100
100
100
100
100
100
100
100
100
100
100
100
100
100
100
100
100
100
100
100
100
100
100
100
100
388.195
364.698
341.544
318.947
297.108
276.207
256.397
237.804
220.521
204.612
190.109
177.016
165.308
154.942
145.851
137.955
131.163
125.377
120.494
116.413
113.035
110.266
108.016
106.207
104.765
103.627
102.737
102.048
101.52
101.118
100.815
100.589
100.422
100.3
100.211
100.148
100.102
100.07
100.048
100.032
100.022
100.014
100.009
100.006
100.004
100.003
100.002
100.001
100.001
100
100
100
100
100
100
100
100
100
100
100
100
100
100
100
100
100
100
100
100
100
100
100
100
100
100
388.195
364.699
341.544
318.947
297.109
276.208
256.398
237.805
220.522
204.613
190.11
177.017
165.309
154.943
145.852
137.956
131.164
125.377
120.494
116.414
113.036
110.266
108.017
106.207
104.765
103.627
102.738
102.048
101.52
101.118
100.815
100.589
100.422
100.3
100.211
100.148
100.102
100.07
100.048
100.032
100.022
100.014
100.009
100.006
100.004
100.003
100.002
100.001
100.001
100
100
100
100
100
100
100
100
100
100
100
100
100
100
100
100
100
100
100
100
100
100
100
100
100
100
388.195
364.699
341.544
318.948
297.109
276.209
256.399
237.806
220.523
204.614
190.111
177.017
165.31
154.944
145.852
137.956
131.164
125.378
120.495
116.414
113.036
110.266
108.017
106.207
104.765
103.627
102.738
102.048
101.52
101.118
100.815
100.589
100.422
100.3
100.211
100.148
100.102
100.07
100.048
100.032
100.022
100.014
100.009
100.006
100.004
100.003
100.002
100.001
100.001
100
100
100
100
100
100
100
100
100
100
100
100
100
100
100
100
100
100
100
100
100
100
100
100
100
100
388.195
364.699
341.545
318.948
297.11
276.209
256.4
237.806
220.524
204.615
190.111
177.018
165.311
154.944
145.853
137.957
131.165
125.378
120.495
116.414
113.036
110.266
108.017
106.207
104.766
103.628
102.738
102.049
101.52
101.118
100.815
100.589
100.422
100.3
100.211
100.148
100.102
100.07
100.048
100.032
100.022
100.014
100.009
100.006
100.004
100.003
100.002
100.001
100.001
100
100
100
100
100
100
100
100
100
100
100
100
100
100
100
100
100
100
100
100
100
100
100
100
100
100
388.195
364.699
341.545
318.948
297.11
276.209
256.4
237.807
220.524
204.615
190.112
177.018
165.311
154.944
145.853
137.957
131.165
125.378
120.495
116.414
113.036
110.266
108.017
106.207
104.766
103.628
102.738
102.049
101.52
101.118
100.815
100.589
100.422
100.3
100.211
100.148
100.102
100.07
100.048
100.032
100.022
100.014
100.009
100.006
100.004
100.003
100.002
100.001
100.001
100
100
100
100
100
100
100
100
100
100
100
100
100
100
100
100
100
100
100
100
100
100
100
100
100
100
388.195
364.699
341.545
318.948
297.11
276.209
256.4
237.807
220.524
204.615
190.112
177.018
165.311
154.945
145.853
137.957
131.165
125.378
120.495
116.414
113.036
110.266
108.017
106.208
104.766
103.628
102.738
102.049
101.52
101.118
100.815
100.589
100.422
100.3
100.211
100.148
100.102
100.07
100.048
100.032
100.022
100.014
100.009
100.006
100.004
100.003
100.002
100.001
100.001
100
100
100
100
100
100
100
100
100
100
100
100
100
100
100
100
100
100
100
100
100
100
100
100
100
100
388.195
364.699
341.545
318.948
297.11
276.21
256.4
237.807
220.524
204.615
190.112
177.018
165.311
154.945
145.853
137.957
131.165
125.378
120.495
116.414
113.036
110.266
108.017
106.208
104.766
103.628
102.738
102.049
101.52
101.118
100.815
100.589
100.422
100.3
100.211
100.148
100.102
100.07
100.048
100.032
100.022
100.014
100.009
100.006
100.004
100.003
100.002
100.001
100.001
100
100
100
100
100
100
100
100
100
100
100
100
100
100
100
100
100
100
100
100
100
100
100
100
100
100
388.195
364.699
341.545
318.948
297.11
276.21
256.4
237.807
220.524
204.615
190.112
177.019
165.311
154.945
145.853
137.957
131.165
125.378
120.495
116.414
113.036
110.266
108.017
106.208
104.766
103.628
102.738
102.049
101.52
101.118
100.815
100.589
100.422
100.3
100.211
100.148
100.102
100.07
100.048
100.032
100.022
100.014
100.009
100.006
100.004
100.003
100.002
100.001
100.001
100
100
100
100
100
100
100
100
100
100
100
100
100
100
100
100
100
100
100
100
100
100
100
100
100
100
388.195
364.699
341.545
318.948
297.11
276.21
256.4
237.807
220.524
204.615
190.112
177.019
165.311
154.945
145.854
137.957
131.165
125.378
120.495
116.414
113.036
110.266
108.017
106.208
104.766
103.628
102.738
102.049
101.52
101.118
100.815
100.589
100.422
100.3
100.211
100.148
100.102
100.07
100.048
100.032
100.022
100.014
100.009
100.006
100.004
100.003
100.002
100.001
100.001
100
100
100
100
100
100
100
100
100
100
100
100
100
100
100
100
100
100
100
100
100
100
100
100
100
100
388.195
364.699
341.545
318.948
297.11
276.21
256.4
237.807
220.524
204.615
190.112
177.019
165.311
154.945
145.854
137.957
131.165
125.378
120.495
116.414
113.036
110.267
108.017
106.208
104.766
103.628
102.738
102.049
101.52
101.118
100.815
100.589
100.422
100.3
100.211
100.148
100.102
100.07
100.048
100.032
100.022
100.014
100.009
100.006
100.004
100.003
100.002
100.001
100.001
100
100
100
100
100
100
100
100
100
100
100
100
100
100
100
100
100
100
100
100
100
100
100
100
100
100
388.195
364.699
341.545
318.948
297.11
276.21
256.4
237.807
220.524
204.615
190.112
177.019
165.311
154.945
145.854
137.957
131.165
125.378
120.495
116.414
113.036
110.267
108.017
106.208
104.766
103.628
102.738
102.049
101.52
101.118
100.815
100.589
100.422
100.3
100.211
100.148
100.102
100.07
100.048
100.032
100.022
100.014
100.009
100.006
100.004
100.003
100.002
100.001
100.001
100
100
100
100
100
100
100
100
100
100
100
100
100
100
100
100
100
100
100
100
100
100
100
100
100
100
388.195
364.699
341.545
318.948
297.11
276.21
256.4
237.807
220.525
204.615
190.112
177.019
165.311
154.945
145.854
137.957
131.165
125.378
120.495
116.414
113.036
110.267
108.017
106.208
104.766
103.628
102.738
102.049
101.52
101.118
100.815
100.589
100.422
100.3
100.211
100.148
100.102
100.07
100.048
100.032
100.022
100.014
100.009
100.006
100.004
100.003
100.002
100.001
100.001
100
100
100
100
100
100
100
100
100
100
100
100
100
100
100
100
100
100
100
100
100
100
100
100
100
100
388.195
364.699
341.545
318.949
297.11
276.21
256.4
237.807
220.525
204.615
190.112
177.019
165.311
154.945
145.854
137.957
131.165
125.378
120.495
116.414
113.036
110.267
108.017
106.208
104.766
103.628
102.738
102.049
101.52
101.118
100.815
100.589
100.422
100.3
100.211
100.148
100.102
100.07
100.048
100.032
100.022
100.014
100.009
100.006
100.004
100.003
100.002
100.001
100.001
100
100
100
100
100
100
100
100
100
100
100
100
100
100
100
100
100
100
100
100
100
100
100
100
100
100
388.195
364.699
341.545
318.949
297.11
276.21
256.4
237.807
220.525
204.615
190.112
177.019
165.311
154.945
145.854
137.957
131.165
125.378
120.495
116.414
113.036
110.267
108.017
106.208
104.766
103.628
102.738
102.049
101.52
101.118
100.815
100.589
100.422
100.3
100.211
100.148
100.102
100.07
100.048
100.032
100.022
100.014
100.009
100.006
100.004
100.003
100.002
100.001
100.001
100
100
100
100
100
100
100
100
100
100
100
100
100
100
100
100
100
100
100
100
100
100
100
100
100
100
388.195
364.699
341.545
318.949
297.11
276.21
256.4
237.807
220.525
204.615
190.112
177.019
165.311
154.945
145.854
137.957
131.165
125.378
120.495
116.414
113.036
110.267
108.017
106.208
104.766
103.628
102.738
102.049
101.52
101.118
100.815
100.589
100.422
100.3
100.211
100.148
100.102
100.07
100.048
100.032
100.022
100.014
100.009
100.006
100.004
100.003
100.002
100.001
100.001
100
100
100
100
100
100
100
100
100
100
100
100
100
100
100
100
100
100
100
100
100
100
100
100
100
100
388.195
364.699
341.545
318.949
297.11
276.21
256.4
237.807
220.525
204.615
190.112
177.019
165.311
154.945
145.854
137.957
131.165
125.378
120.495
116.414
113.036
110.267
108.017
106.208
104.766
103.628
102.738
102.049
101.52
101.118
100.815
100.589
100.422
100.3
100.211
100.148
100.102
100.07
100.048
100.032
100.022
100.014
100.009
100.006
100.004
100.003
100.002
100.001
100.001
100
100
100
100
100
100
100
100
100
100
100
100
100
100
100
100
100
100
100
100
100
100
100
100
100
100
388.195
364.699
341.545
318.949
297.11
276.21
256.4
237.807
220.525
204.615
190.112
177.019
165.311
154.945
145.854
137.957
131.165
125.378
120.495
116.414
113.036
110.267
108.017
106.208
104.766
103.628
102.738
102.049
101.52
101.118
100.815
100.589
100.422
100.3
100.211
100.148
100.102
100.07
100.048
100.032
100.022
100.014
100.009
100.006
100.004
100.003
100.002
100.001
100.001
100
100
100
100
100
100
100
100
100
100
100
100
100
100
100
100
100
100
100
100
100
100
100
100
100
100
388.195
364.699
341.545
318.949
297.11
276.21
256.4
237.807
220.525
204.615
190.112
177.019
165.311
154.945
145.854
137.957
131.165
125.378
120.495
116.414
113.036
110.267
108.017
106.208
104.766
103.628
102.738
102.049
101.52
101.118
100.815
100.589
100.422
100.3
100.211
100.148
100.102
100.07
100.048
100.032
100.022
100.014
100.009
100.006
100.004
100.003
100.002
100.001
100.001
100
100
100
100
100
100
100
100
100
100
100
100
100
100
100
100
100
100
100
100
100
100
100
100
100
100
388.195
364.699
341.545
318.949
297.11
276.21
256.4
237.807
220.525
204.615
190.112
177.019
165.311
154.945
145.854
137.957
131.165
125.378
120.495
116.414
113.036
110.267
108.017
106.208
104.766
103.628
102.738
102.049
101.52
101.118
100.815
100.589
100.422
100.3
100.211
100.148
100.102
100.07
100.048
100.032
100.022
100.014
100.009
100.006
100.004
100.003
100.002
100.001
100.001
100
100
100
100
100
100
100
100
100
100
100
100
100
100
100
100
100
100
100
100
100
100
100
100
100
100
388.195
364.699
341.545
318.949
297.11
276.21
256.4
237.807
220.525
204.615
190.112
177.019
165.311
154.945
145.854
137.957
131.165
125.378
120.495
116.414
113.036
110.267
108.017
106.208
104.766
103.628
102.738
102.049
101.52
101.118
100.815
100.589
100.422
100.3
100.211
100.148
100.102
100.07
100.048
100.032
100.022
100.014
100.009
100.006
100.004
100.003
100.002
100.001
100.001
100
100
100
100
100
100
100
100
100
100
100
100
100
100
100
100
100
100
100
100
100
100
100
100
100
100
388.195
364.699
341.545
318.949
297.11
276.21
256.4
237.807
220.525
204.615
190.112
177.019
165.311
154.945
145.854
137.957
131.165
125.378
120.495
116.414
113.036
110.267
108.017
106.208
104.766
103.628
102.738
102.049
101.52
101.118
100.815
100.589
100.422
100.3
100.211
100.148
100.102
100.07
100.048
100.032
100.022
100.014
100.009
100.006
100.004
100.003
100.002
100.001
100.001
100
100
100
100
100
100
100
100
100
100
100
100
100
100
100
100
100
100
100
100
100
100
100
100
100
100
388.195
364.699
341.545
318.949
297.11
276.21
256.4
237.807
220.525
204.615
190.112
177.019
165.311
154.945
145.854
137.957
131.165
125.378
120.495
116.414
113.036
110.267
108.017
106.208
104.766
103.628
102.738
102.049
101.52
101.118
100.815
100.589
100.422
100.3
100.211
100.148
100.102
100.07
100.048
100.032
100.022
100.014
100.009
100.006
100.004
100.003
100.002
100.001
100.001
100
100
100
100
100
100
100
100
100
100
100
100
100
100
100
100
100
100
100
100
100
100
100
100
100
100
388.195
364.699
341.545
318.949
297.11
276.21
256.4
237.807
220.525
204.615
190.112
177.019
165.311
154.945
145.854
137.957
131.165
125.378
120.495
116.414
113.036
110.267
108.017
106.208
104.766
103.628
102.738
102.049
101.52
101.118
100.815
100.589
100.422
100.3
100.211
100.148
100.102
100.07
100.048
100.032
100.022
100.014
100.009
100.006
100.004
100.003
100.002
100.001
100.001
100
100
100
100
100
100
100
100
100
100
100
100
100
100
100
100
100
100
100
100
100
100
100
100
100
100
388.195
364.699
341.545
318.949
297.11
276.21
256.4
237.807
220.525
204.615
190.112
177.019
165.311
154.945
145.854
137.957
131.165
125.378
120.495
116.414
113.036
110.267
108.017
106.208
104.766
103.628
102.738
102.049
101.52
101.118
100.815
100.589
100.422
100.3
100.211
100.148
100.102
100.07
100.048
100.032
100.022
100.014
100.009
100.006
100.004
100.003
100.002
100.001
100.001
100
100
100
100
100
100
100
100
100
100
100
100
100
100
100
100
100
100
100
100
100
100
100
100
100
100
388.195
364.699
341.545
318.949
297.11