/*--------------------------------*- C++ -*----------------------------------*\
  =========                 |
  \\      /  F ield         | OpenFOAM: The Open Source CFD Toolbox
   \\    /   O peration     | Website:  https://openfoam.org
    \\  /    A nd           | Version:  10
     \\/     M anipulation  |
\*---------------------------------------------------------------------------*/
FoamFile
{
    format      ascii;
    class       volScalarField;
    location    "198";
    object      gradTz;
}
// * * * * * * * * * * * * * * * * * * * * * * * * * * * * * * * * * * * * * //

dimensions      [0 -1 0 1 0 0 0];

internalField   nonuniform List<scalar> 
11250
(
-14364.1
-4159.19
-1538.17
-733.552
-427.498
-284.303
-205.181
-155.822
-122.225
-97.8557
-79.3316
-64.7604
-53.0176
-43.399
-35.4417
-28.826
-23.3196
-18.7449
-14.9597
-11.846
-9.30279
-7.2423
-5.5876
-4.27121
-3.23419
-2.4255
-1.80136
-1.32471
-0.964561
-0.695343
-0.496261
-0.35063
-0.245248
-0.169813
-0.116398
-0.0789809
-0.0530522
-0.0352766
-0.0232204
-0.0151303
-0.00975916
-0.00623095
-0.00393782
-0.00246316
-0.00152488
-0.000934211
-0.000566334
-0.000339674
-0.000201534
-0.000118265
-6.86282e-05
-3.93731e-05
-2.23282e-05
-1.25131e-05
-6.92834e-06
-3.78921e-06
-2.04655e-06
-1.09131e-06
-5.74433e-07
-2.984e-07
-1.52944e-07
-7.73272e-08
-3.85878e-08
-1.89844e-08
-9.18377e-09
-4.3762e-09
-2.0745e-09
-9.8127e-10
-4.54414e-10
-2.21719e-10
-1.04274e-10
-4.17095e-11
-1.09762e-12
6.5857e-12
0
-8296.26
-4892.84
-2797.32
-1701.36
-1119.01
-788.334
-585.409
-451.46
-357.335
-287.731
-234.159
-191.662
-157.212
-128.875
-105.36
-85.7658
-69.4287
-55.8381
-44.5818
-35.315
-27.7414
-21.6022
-16.67
-12.745
-9.65205
-7.23955
-5.37726
-3.95481
-2.87987
-2.07623
-1.48189
-1.04709
-0.732425
-0.507168
-0.347652
-0.235907
-0.158467
-0.105375
-0.0693639
-0.0451986
-0.0291543
-0.0186147
-0.0117644
-0.007359
-0.00455589
-0.00279122
-0.00169213
-0.00101493
-0.000602195
-0.000353395
-0.00020508
-0.000117663
-6.67287e-05
-3.73977e-05
-2.07078e-05
-1.13261e-05
-6.11759e-06
-3.26241e-06
-1.71733e-06
-8.92179e-07
-4.57338e-07
-2.31255e-07
-1.15328e-07
-5.67271e-08
-2.75414e-08
-1.31747e-08
-6.20922e-09
-2.901e-09
-1.35775e-09
-6.5418e-10
-2.87576e-10
-9.87856e-11
-2.52452e-11
-1.20738e-11
8.78094e-12
-5629.17
-4315.97
-3054.47
-2153.38
-1557
-1163.11
-895.544
-706.556
-567.588
-461.601
-378.26
-311.143
-256.143
-210.544
-172.485
-140.634
-113.991
-91.7714
-73.3325
-58.1294
-45.689
-35.595
-27.4791
-21.0162
-15.9208
-11.9445
-8.87391
-6.52777
-4.7543
-3.42813
-2.44713
-1.72932
-1.20977
-0.83779
-0.574338
-0.389761
-0.261836
-0.174123
-0.114625
-0.0746961
-0.0481837
-0.0307664
-0.0194452
-0.0121642
-0.00753113
-0.00461428
-0.00279748
-0.00167801
-0.000995687
-0.000584352
-0.000339133
-0.00019459
-0.000110365
-6.18595e-05
-3.42564e-05
-1.87385e-05
-1.01225e-05
-5.39889e-06
-2.84237e-06
-1.47685e-06
-7.57164e-07
-3.82955e-07
-1.91044e-07
-9.39835e-08
-4.56115e-08
-2.18305e-08
-1.02935e-08
-4.79549e-09
-2.22926e-09
-1.05262e-09
-4.73073e-10
-1.73424e-10
-6.25642e-11
-2.08547e-11
-1.09762e-12
-4270.82
-3683.12
-2947.19
-2297.11
-1789.41
-1409.08
-1125.26
-910.44
-744.308
-612.869
-506.716
-419.543
-347.074
-286.352
-235.267
-192.256
-156.114
-125.867
-100.697
-79.899
-62.8509
-48.999
-37.8491
-28.9617
-21.9493
-16.4735
-12.2426
-9.0084
-6.56264
-4.7331
-3.37935
-2.38852
-1.67119
-1.1575
-0.793613
-0.538631
-0.361883
-0.24068
-0.158454
-0.103266
-0.0666187
-0.0425409
-0.026889
-0.016822
-0.0104157
-0.0063821
-0.00386956
-0.00232127
-0.0013775
-0.000808512
-0.000469276
-0.000269296
-0.000152755
-8.56309e-05
-4.74277e-05
-2.59476e-05
-1.40194e-05
-7.47868e-06
-3.93815e-06
-2.04665e-06
-1.04954e-06
-5.30959e-07
-2.64964e-07
-1.30413e-07
-6.32798e-08
-3.02668e-08
-1.42877e-08
-6.67132e-09
-3.07882e-09
-1.41483e-09
-6.3113e-10
-2.67819e-10
-1.1525e-10
-2.96357e-11
0
-3494.01
-3192.54
-2748.52
-2293.47
-1890.2
-1555.1
-1283.42
-1063.99
-885.569
-738.912
-616.995
-514.672
-428.203
-354.847
-292.552
-239.727
-195.091
-157.575
-126.25
-100.297
-78.9776
-61.6248
-47.6369
-36.4743
-27.658
-20.7679
-15.4404
-11.3656
-8.28253
-5.97523
-4.26729
-3.0168
-2.11122
-1.46254
-1.00293
-0.680799
-0.457464
-0.304288
-0.200355
-0.130588
-0.084253
-0.0538071
-0.0340133
-0.0212811
-0.0131778
-0.00807536
-0.00489671
-0.00293775
-0.00174354
-0.00102348
-0.00059413
-0.000340994
-0.000193457
-0.000108467
-6.00871e-05
-3.28805e-05
-1.77692e-05
-9.48137e-06
-4.99402e-06
-2.5961e-06
-1.33169e-06
-6.73908e-07
-3.36396e-07
-1.65615e-07
-8.04093e-08
-3.85066e-08
-1.81897e-08
-8.4769e-09
-3.89325e-09
-1.79131e-09
-7.93577e-10
-3.29285e-10
-1.33909e-10
-4.60999e-11
-7.68332e-12
-3010.87
-2836.97
-2553.83
-2231.74
-1917.44
-1633.34
-1386.09
-1174.43
-994.099
-840.29
-708.694
-595.762
-498.679
-415.228
-343.637
-282.449
-230.431
-186.498
-149.676
-119.075
-93.8751
-73.3229
-56.7285
-43.4676
-32.9821
-24.7795
-18.432
-13.5735
-9.89532
-7.14116
-5.1015
-3.60754
-2.52525
-1.74974
-1.20012
-0.814802
-0.547599
-0.364298
-0.239902
-0.156385
-0.100909
-0.064452
-0.0407471
-0.025497
-0.0157902
-0.00967738
-0.00586884
-0.00352143
-0.00209023
-0.00122718
-0.000712489
-0.000408997
-0.000232082
-0.00013015
-7.21157e-05
-3.94726e-05
-2.13375e-05
-1.13886e-05
-6.00046e-06
-3.12031e-06
-1.60112e-06
-8.10551e-07
-4.04779e-07
-1.99382e-07
-9.68439e-08
-4.63645e-08
-2.19008e-08
-1.02144e-08
-4.70329e-09
-2.15572e-09
-9.59318e-10
-4.17095e-10
-1.70131e-10
-3.7319e-11
1.09762e-12
-2692.25
-2581.58
-2389.65
-2154.66
-1907.98
-1669.49
-1449.29
-1251.05
-1074.94
-919.55
-782.949
-663.182
-558.478
-467.284
-388.24
-320.134
-261.864
-212.4
-170.774
-136.068
-107.411
-83.9884
-65.0419
-49.8787
-37.8736
-28.4723
-21.1905
-15.6125
-11.3866
-8.22053
-5.8746
-4.15552
-2.90963
-2.01659
-1.38346
-0.939474
-0.631507
-0.420192
-0.276755
-0.180435
-0.116445
-0.0743846
-0.0470327
-0.0294339
-0.0182307
-0.0111745
-0.0067777
-0.00406734
-0.00241464
-0.00141787
-0.000823356
-0.000472733
-0.000268307
-0.000150501
-8.34134e-05
-4.56692e-05
-2.46946e-05
-1.31847e-05
-6.94925e-06
-3.61502e-06
-1.85569e-06
-9.39809e-07
-4.69532e-07
-2.31358e-07
-1.12405e-07
-5.38831e-08
-2.5479e-08
-1.18576e-08
-5.44528e-09
-2.48171e-09
-1.11847e-09
-5.07099e-10
-2.16231e-10
-6.25642e-11
4.39047e-12
-2473.47
-2396.97
-2258.77
-2080.52
-1882.84
-1681.32
-1486.04
-1302.62
-1133.71
-980.13
-841.778
-718.061
-608.185
-511.278
-426.442
-352.763
-289.323
-235.196
-189.458
-151.195
-119.515
-93.5614
-72.5283
-55.6684
-42.3021
-31.8227
-23.698
-17.469
-12.7466
-9.20619
-6.58142
-4.65706
-3.26179
-2.26128
-1.55171
-1.05397
-0.708618
-0.47159
-0.310663
-0.202575
-0.130753
-0.0835372
-0.0528272
-0.0330649
-0.0204825
-0.0125565
-0.00761705
-0.00457175
-0.00271454
-0.00159426
-0.000925965
-0.000531761
-0.00030188
-0.000169376
-9.3901e-05
-5.14268e-05
-2.7817e-05
-1.48571e-05
-7.83362e-06
-4.07669e-06
-2.09355e-06
-1.06076e-06
-5.30185e-07
-2.61354e-07
-1.27054e-07
-6.09255e-08
-2.88168e-08
-1.34283e-08
-6.16312e-09
-2.79124e-09
-1.26555e-09
-6.0369e-10
-2.73307e-10
-7.35404e-11
8.78094e-12
-2319
-2262.25
-2156.92
-2015.97
-1853.1
-1680.1
-1505.86
-1336.43
-1175.61
-1025.61
-887.561
-761.937
-648.771
-547.807
-458.595
-380.534
-312.911
-254.931
-205.74
-164.45
-130.171
-102.024
-79.1702
-60.8209
-46.2538
-34.8196
-25.9457
-19.1363
-13.97
-10.0942
-7.21904
-5.11005
-3.58021
-2.48275
-1.70413
-1.15778
-0.778581
-0.518257
-0.341469
-0.222702
-0.143768
-0.0918664
-0.0581032
-0.0363725
-0.0225347
-0.0138167
-0.00838276
-0.00503215
-0.00298843
-0.00175544
-0.00101979
-0.000585773
-0.000332623
-0.000186675
-0.000103522
-5.67139e-05
-3.06873e-05
-1.63962e-05
-8.64852e-06
-4.50264e-06
-2.31333e-06
-1.17267e-06
-5.86405e-07
-2.89212e-07
-1.40666e-07
-6.7464e-08
-3.19275e-08
-1.48936e-08
-6.83925e-09
-3.10736e-09
-1.39288e-09
-6.27837e-10
-2.96357e-10
-1.13055e-10
-1.31714e-11
-2207.81
-2163.1
-2078.58
-1962.46
-1824.17
-1672.62
-1515.3
-1358.03
-1205.03
-1059.26
-922.669
-796.488
-681.397
-577.663
-485.233
-403.8
-332.86
-271.753
-219.711
-175.891
-139.414
-109.397
-84.9781
-65.3411
-49.7307
-37.4632
-27.9328
-20.6134
-15.0557
-10.8835
-7.78666
-5.51383
-3.86437
-2.6806
-1.84044
-1.25069
-0.841257
-0.560094
-0.369106
-0.24077
-0.155458
-0.0993525
-0.0628476
-0.0393484
-0.0243821
-0.0149516
-0.00907278
-0.00544726
-0.00323552
-0.00190095
-0.00110455
-0.000634601
-0.000360439
-0.000202341
-0.000112242
-6.15112e-05
-3.32946e-05
-1.77959e-05
-9.39057e-06
-4.89104e-06
-2.51399e-06
-1.27496e-06
-6.37891e-07
-3.14795e-07
-1.53183e-07
-7.34899e-08
-3.4778e-08
-1.6248e-08
-7.48465e-09
-3.37408e-09
-1.49276e-09
-6.93694e-10
-3.33676e-10
-1.27324e-10
-3.07333e-11
-2126.72
-2089.65
-2018.68
-1919.35
-1798.41
-1662.74
-1518.65
-1371.44
-1225.42
-1083.87
-949.266
-823.344
-707.269
-601.722
-506.985
-423.01
-349.484
-285.884
-231.528
-185.624
-147.318
-115.729
-89.9856
-69.2518
-52.7478
-39.7633
-29.666
-21.9043
-16.0064
-11.5759
-8.28536
-5.86909
-4.11471
-2.85511
-1.96079
-1.33281
-0.896699
-0.597132
-0.393592
-0.256789
-0.165829
-0.105998
-0.0670617
-0.0419931
-0.0260248
-0.0159614
-0.009687
-0.00581698
-0.00345572
-0.0020307
-0.00118018
-0.000678205
-0.000385299
-0.000216354
-0.000120051
-6.58113e-05
-3.56344e-05
-1.90535e-05
-1.00582e-05
-5.24094e-06
-2.69502e-06
-1.36741e-06
-6.8446e-07
-3.37934e-07
-1.64541e-07
-7.90054e-08
-3.74079e-08
-1.74708e-08
-8.04005e-09
-3.62324e-09
-1.63216e-09
-7.67235e-10
-3.3148e-10
-1.29519e-10
-4.06118e-11
-2067.08
-2035
-1973.05
-1885.21
-1776.57
-1652.59
-1518.62
-1379.5
-1239.38
-1101.7
-969.21
-843.987
-727.54
-620.866
-524.514
-438.658
-363.151
-297.592
-241.385
-193.791
-153.984
-121.093
-94.2444
-72.5895
-55.3308
-41.7379
-31.1576
-23.0179
-16.8282
-12.1754
-8.71788
-6.17767
-4.33244
-3.00708
-2.06571
-1.40448
-0.94513
-0.629515
-0.415017
-0.270816
-0.174917
-0.111825
-0.0707588
-0.0443148
-0.0274676
-0.0168487
-0.0102271
-0.00614224
-0.00364956
-0.00214499
-0.00124684
-0.000716668
-0.000407246
-0.000228736
-0.000126957
-6.96185e-05
-3.77083e-05
-2.01695e-05
-1.06513e-05
-5.55223e-06
-2.85629e-06
-1.44989e-06
-7.2609e-07
-3.58652e-07
-1.74734e-07
-8.39732e-08
-3.97656e-08
-1.85651e-08
-8.54934e-09
-3.868e-09
-1.7485e-09
-8.05651e-10
-3.79776e-10
-1.4269e-10
-9.87856e-12
-2022.99
-1994.25
-1938.42
-1858.54
-1758.62
-1643.21
-1516.9
-1384.12
-1248.83
-1114.51
-984.035
-859.699
-743.252
-635.923
-538.471
-451.245
-374.242
-307.166
-249.498
-200.552
-159.53
-125.577
-97.8187
-75.4007
-57.5133
-43.4111
-32.4247
-23.966
-17.5293
-12.6879
-9.08822
-6.4423
-4.51944
-3.13776
-2.15604
-1.46625
-0.986912
-0.657478
-0.433533
-0.282948
-0.182783
-0.116871
-0.0739628
-0.0463279
-0.0287193
-0.017619
-0.0106961
-0.0064249
-0.0038181
-0.00224443
-0.00130488
-0.000750177
-0.00042638
-0.000239541
-0.000132989
-7.29468e-05
-3.95232e-05
-2.11473e-05
-1.11717e-05
-5.82569e-06
-2.99819e-06
-1.52254e-06
-7.6279e-07
-3.76991e-07
-1.83755e-07
-8.83209e-08
-4.18609e-08
-1.95573e-08
-9.00266e-09
-4.1007e-09
-1.86375e-09
-8.46263e-10
-3.83069e-10
-1.32812e-10
-1.4269e-11
-1990.31
-1963.84
-1912.21
-1837.89
-1744.21
-1635.04
-1514.48
-1386.59
-1255.18
-1123.65
-994.969
-871.553
-755.311
-647.64
-549.459
-461.252
-383.133
-314.898
-256.093
-206.079
-164.088
-129.277
-100.78
-77.7381
-59.3337
-44.8107
-33.4873
-24.763
-18.1199
-13.1205
-9.40136
-6.6664
-4.67803
-3.24874
-2.23285
-1.51882
-1.02252
-0.681328
-0.44934
-0.293312
-0.189507
-0.121188
-0.0767055
-0.0480522
-0.0297921
-0.0182794
-0.0110985
-0.00666752
-0.00396284
-0.00232987
-0.00135478
-0.000779005
-0.000442854
-0.00024885
-0.00013819
-7.58195e-05
-4.10913e-05
-2.1993e-05
-1.16222e-05
-6.06276e-06
-3.12132e-06
-1.58568e-06
-7.94751e-07
-3.92932e-07
-1.91601e-07
-9.21417e-08
-4.37236e-08
-2.04387e-08
-9.41207e-09
-4.29937e-09
-1.95486e-09
-8.79192e-10
-3.69897e-10
-1.31714e-10
-3.18309e-11
-1966.06
-1941.16
-1892.45
-1822.04
-1732.81
-1628.2
-1511.92
-1387.77
-1259.38
-1130.13
-1002.98
-880.425
-764.484
-656.67
-558.017
-469.12
-390.18
-321.069
-261.39
-210.542
-167.785
-132.293
-103.203
-79.6572
-60.8331
-45.9669
-34.3674
-25.4246
-18.6112
-13.481
-9.66284
-6.85385
-4.81087
-3.34183
-2.29736
-1.56303
-1.05248
-0.701423
-0.462669
-0.30206
-0.195187
-0.124837
-0.079025
-0.0495112
-0.0307003
-0.0188389
-0.0114395
-0.00687321
-0.00408562
-0.00240238
-0.00139715
-0.000803495
-0.000456856
-0.000256768
-0.000142617
-7.82667e-05
-4.24283e-05
-2.27148e-05
-1.20072e-05
-6.26554e-06
-3.22679e-06
-1.63981e-06
-8.22154e-07
-4.06645e-07
-1.98394e-07
-9.54697e-08
-4.53118e-08
-2.11994e-08
-9.78197e-09
-4.45084e-09
-1.98339e-09
-8.75899e-10
-3.85264e-10
-1.6135e-10
-5.26856e-11
-1948.09
-1924.28
-1877.62
-1809.97
-1723.93
-1622.62
-1509.52
-1388.18
-1262.15
-1134.7
-1008.81
-887.016
-771.402
-663.563
-564.617
-475.24
-395.704
-325.939
-265.594
-214.104
-170.75
-134.721
-105.161
-81.2136
-62.053
-46.9101
-35.0873
-25.967
-19.015
-13.7779
-9.87851
-7.00871
-4.92079
-3.41896
-2.35088
-1.59976
-1.0774
-0.71815
-0.473774
-0.309354
-0.199926
-0.127884
-0.0809629
-0.0507308
-0.0314598
-0.019307
-0.011725
-0.00704545
-0.00418846
-0.00246314
-0.00143267
-0.000824036
-0.000468607
-0.000263416
-0.000146337
-8.0324e-05
-4.35531e-05
-2.33225e-05
-1.23315e-05
-6.43654e-06
-3.31583e-06
-1.68559e-06
-8.45396e-07
-4.18257e-07
-2.04116e-07
-9.82675e-08
-4.66575e-08
-2.18459e-08
-1.00772e-08
-4.58804e-09
-2.06242e-09
-9.16511e-10
-3.87459e-10
-1.56959e-10
-6.69547e-11
-1934.81
-1911.75
-1866.53
-1800.85
-1717.09
-1618.18
-1507.41
-1388.19
-1263.94
-1137.9
-1013.03
-891.877
-776.578
-668.778
-569.659
-479.953
-399.988
-329.739
-268.893
-216.913
-173.099
-136.653
-106.725
-82.4608
-63.0335
-47.6704
-35.669
-26.4065
-19.3427
-14.0193
-10.0543
-7.13512
-5.01065
-3.48211
-2.39475
-1.6299
-1.09788
-0.731905
-0.482915
-0.315362
-0.203833
-0.130397
-0.0825624
-0.0517381
-0.0320874
-0.0196938
-0.011961
-0.00718791
-0.00427355
-0.00251343
-0.00146207
-0.000841045
-0.00047834
-0.000268925
-0.00014942
-8.20304e-05
-4.44865e-05
-2.38271e-05
-1.26011e-05
-6.57878e-06
-3.38994e-06
-1.72372e-06
-8.64768e-07
-4.27969e-07
-2.08908e-07
-1.00596e-07
-4.77936e-08
-2.23771e-08
-1.03154e-08
-4.70439e-09
-2.10633e-09
-9.39561e-10
-4.06118e-10
-1.62447e-10
-8.01261e-11
-1925.01
-1902.5
-1858.29
-1793.99
-1711.87
-1614.7
-1505.63
-1387.98
-1265.08
-1140.13
-1016.06
-895.439
-780.42
-672.691
-573.474
-483.546
-403.276
-332.673
-271.454
-219.104
-174.94
-138.172
-107.96
-83.4485
-63.8124
-48.276
-36.1336
-26.7582
-19.6056
-14.2134
-10.1957
-7.23706
-5.08323
-3.53319
-2.43028
-1.65433
-1.1145
-0.743083
-0.49035
-0.320253
-0.207016
-0.132445
-0.0838669
-0.0525598
-0.0325996
-0.0200097
-0.0121537
-0.00730427
-0.00434306
-0.00255452
-0.0014861
-0.000854949
-0.000486298
-0.00027343
-0.000151942
-8.34266e-05
-4.52506e-05
-2.42404e-05
-1.2822e-05
-6.69538e-06
-3.45074e-06
-1.755e-06
-8.80666e-07
-4.35952e-07
-2.12864e-07
-1.02519e-07
-4.86991e-08
-2.28206e-08
-1.05525e-08
-4.81305e-09
-2.12718e-09
-9.43951e-10
-4.31364e-10
-1.74521e-10
-6.91499e-11
-1917.83
-1895.68
-1852.19
-1788.88
-1707.93
-1612.01
-1504.19
-1387.69
-1265.8
-1141.68
-1018.23
-898.03
-783.251
-675.601
-576.335
-486.26
-405.775
-334.916
-273.422
-220.794
-176.365
-139.354
-108.923
-84.2218
-64.4239
-48.7528
-36.5002
-27.0364
-19.814
-14.3675
-10.3083
-7.3183
-5.14116
-3.57401
-2.45872
-1.67392
-1.12783
-0.752059
-0.496325
-0.324187
-0.209577
-0.134095
-0.084918
-0.0532223
-0.0330126
-0.0202645
-0.0123092
-0.00739817
-0.00439916
-0.00258767
-0.00150549
-0.000866168
-0.000492719
-0.000277065
-0.000153978
-8.45534e-05
-4.58673e-05
-2.4574e-05
-1.30003e-05
-6.78957e-06
-3.49988e-06
-1.78032e-06
-8.93514e-07
-4.42397e-07
-2.16059e-07
-1.04065e-07
-4.94378e-08
-2.31839e-08
-1.07281e-08
-4.87562e-09
-2.17438e-09
-9.65903e-10
-4.44535e-10
-1.92083e-10
-6.91499e-11
-1912.58
-1890.7
-1847.71
-1785.1
-1704.98
-1609.97
-1503.04
-1387.39
-1266.25
-1142.74
-1019.77
-899.903
-785.32
-677.748
-578.462
-488.291
-407.655
-336.612
-274.917
-222.085
-177.458
-140.263
-109.666
-84.8203
-64.8986
-49.1238
-36.7862
-27.2539
-19.9773
-14.4885
-10.3969
-7.3823
-5.18687
-3.60627
-2.48122
-1.68943
-1.1384
-0.759182
-0.501071
-0.327314
-0.211615
-0.135408
-0.085755
-0.05375
-0.0333417
-0.0204675
-0.0124331
-0.00747299
-0.00444386
-0.00261409
-0.00152094
-0.000875103
-0.000497832
-0.000279959
-0.000155598
-8.54502e-05
-4.63581e-05
-2.48396e-05
-1.31423e-05
-6.86455e-06
-3.539e-06
-1.80047e-06
-9.03744e-07
-4.47541e-07
-2.18605e-07
-1.0531e-07
-5.00459e-08
-2.34407e-08
-1.08368e-08
-4.93928e-09
-2.22048e-09
-1.00761e-09
-4.36852e-10
-1.8879e-10
-5.92713e-11
-1908.76
-1887.07
-1844.44
-1782.32
-1702.79
-1608.42
-1502.15
-1387.12
-1266.52
-1143.47
-1020.86
-901.248
-786.822
-679.32
-580.029
-489.797
-409.057
-337.883
-276.042
-223.06
-178.286
-140.954
-110.234
-85.2785
-65.2629
-49.4093
-37.0068
-27.422
-20.1037
-14.5823
-10.4657
-7.43213
-5.22251
-3.63145
-2.49881
-1.70157
-1.14669
-0.76477
-0.504797
-0.329771
-0.213217
-0.136441
-0.0864136
-0.0541654
-0.0336008
-0.0206274
-0.0125307
-0.00753189
-0.00447903
-0.00263488
-0.00153309
-0.000882128
-0.00050185
-0.000282233
-0.00015687
-8.61541e-05
-4.67432e-05
-2.50478e-05
-1.32536e-05
-6.92334e-06
-3.56967e-06
-1.81628e-06
-9.11782e-07
-4.51561e-07
-2.206e-07
-1.0628e-07
-5.0497e-08
-2.3669e-08
-1.09498e-08
-4.99855e-09
-2.2556e-09
-9.84563e-10
-4.50023e-10
-2.09645e-10
-4.39047e-11
-1906.01
-1884.45
-1842.07
-1780.3
-1701.19
-1607.27
-1501.47
-1386.88
-1266.68
-1143.97
-1021.62
-902.207
-787.904
-680.461
-581.175
-490.903
-410.092
-338.825
-276.879
-223.789
-178.908
-141.475
-110.662
-85.6253
-65.5394
-49.6266
-37.1751
-27.5505
-20.2005
-14.6544
-10.5186
-7.47048
-5.24998
-3.6509
-2.5124
-1.71096
-1.1531
-0.769102
-0.507689
-0.331679
-0.214462
-0.137244
-0.0869258
-0.0544884
-0.0338023
-0.0207517
-0.0126066
-0.00757768
-0.00450638
-0.00265102
-0.00154252
-0.00088758
-0.000504967
-0.000283995
-0.000157855
-8.66989e-05
-4.70411e-05
-2.52088e-05
-1.33396e-05
-6.96874e-06
-3.59332e-06
-1.82846e-06
-9.18011e-07
-4.54676e-07
-2.22118e-07
-1.07011e-07
-5.08394e-08
-2.38304e-08
-1.10387e-08
-5.05453e-09
-2.27097e-09
-1.0131e-09
-4.6978e-10
-1.85497e-10
-4.93928e-11
-1904.03
-1882.56
-1840.36
-1778.83
-1700.02
-1606.43
-1500.95
-1386.68
-1266.77
-1144.31
-1022.16
-902.886
-788.677
-681.282
-582.004
-491.708
-410.849
-339.518
-277.497
-224.328
-179.37
-141.862
-110.982
-85.8851
-65.7471
-49.7901
-37.302
-27.6476
-20.2739
-14.709
-10.5588
-7.49967
-5.27092
-3.66573
-2.52279
-1.71815
-1.15802
-0.772422
-0.509907
-0.333143
-0.215417
-0.137861
-0.0873194
-0.0547368
-0.0339572
-0.0208473
-0.0126649
-0.00761286
-0.00452737
-0.00266341
-0.00154975
-0.000891756
-0.000507352
-0.000285342
-0.000158608
-8.71148e-05
-4.72683e-05
-2.53315e-05
-1.34051e-05
-7.00326e-06
-3.61132e-06
-1.83773e-06
-9.22702e-07
-4.57035e-07
-2.23287e-07
-1.07561e-07
-5.1116e-08
-2.39753e-08
-1.10925e-08
-5.05563e-09
-2.27865e-09
-1.04493e-09
-4.73073e-10
-2.03059e-10
-3.62214e-11
-1902.62
-1881.22
-1839.13
-1777.78
-1699.17
-1605.81
-1500.57
-1386.52
-1266.82
-1144.53
-1022.53
-903.364
-789.226
-681.869
-582.6
-492.29
-411.398
-340.021
-277.948
-224.723
-179.709
-142.148
-111.218
-86.0775
-65.9013
-49.9118
-37.3966
-27.7202
-20.3288
-14.75
-10.5889
-7.52163
-5.28669
-3.67693
-2.53064
-1.72359
-1.16174
-0.774938
-0.511589
-0.334255
-0.216143
-0.13833
-0.0876184
-0.0549254
-0.0340749
-0.0209199
-0.0127091
-0.00763955
-0.00454328
-0.0026728
-0.00155523
-0.000894914
-0.000509154
-0.000286359
-0.000159175
-8.74278e-05
-4.7439e-05
-2.54236e-05
-1.34542e-05
-7.02912e-06
-3.62479e-06
-1.84467e-06
-9.26241e-07
-4.58789e-07
-2.24133e-07
-1.08019e-07
-5.13542e-08
-2.40532e-08
-1.11024e-08
-5.08197e-09
-2.3017e-09
-1.03505e-09
-4.74171e-10
-1.96474e-10
-4.50023e-11
-1901.62
-1880.26
-1838.27
-1777.03
-1698.57
-1605.37
-1500.29
-1386.4
-1266.85
-1144.69
-1022.78
-903.697
-789.613
-682.284
-583.024
-492.705
-411.792
-340.384
-278.274
-225.01
-179.955
-142.356
-111.391
-86.2186
-66.0146
-50.0014
-37.4664
-27.7739
-20.3694
-14.7804
-10.6114
-7.53797
-5.29845
-3.68528
-2.5365
-1.72765
-1.16452
-0.776823
-0.51285
-0.335088
-0.216688
-0.138681
-0.087843
-0.0550671
-0.0341633
-0.0209743
-0.0127423
-0.00765956
-0.00455521
-0.00267983
-0.00155932
-0.000897273
-0.000510497
-0.000287116
-0.000159597
-8.76602e-05
-4.75657e-05
-2.54918e-05
-1.34905e-05
-7.04822e-06
-3.6347e-06
-1.84976e-06
-9.28813e-07
-4.60062e-07
-2.24792e-07
-1.08346e-07
-5.14947e-08
-2.41322e-08
-1.11595e-08
-5.08746e-09
-2.29183e-09
-1.01859e-09
-4.4673e-10
-2.04157e-10
-8.23213e-11
-1900.92
-1879.59
-1837.65
-1776.5
-1698.14
-1605.05
-1500.08
-1386.31
-1266.86
-1144.79
-1022.96
-903.929
-789.883
-682.576
-583.323
-493
-412.072
-340.643
-278.508
-225.215
-180.133
-142.507
-111.517
-86.321
-66.0969
-50.0667
-37.5174
-27.8131
-20.3992
-14.8027
-10.6279
-7.55
-5.30712
-3.69144
-2.54083
-1.73066
-1.16658
-0.77822
-0.513784
-0.335707
-0.217092
-0.138943
-0.0880097
-0.0551723
-0.0342289
-0.0210148
-0.0127669
-0.00767439
-0.00456403
-0.00268502
-0.00156234
-0.000899011
-0.000511486
-0.000287672
-0.000159907
-8.78304e-05
-4.76582e-05
-2.55416e-05
-1.35169e-05
-7.06212e-06
-3.64193e-06
-1.85345e-06
-9.30679e-07
-4.61026e-07
-2.25261e-07
-1.08544e-07
-5.15825e-08
-2.41772e-08
-1.11891e-08
-5.09404e-09
-2.26987e-09
-1.02408e-09
-4.80756e-10
-2.21719e-10
-7.68332e-11
-1900.43
-1879.13
-1837.23
-1776.13
-1697.83
-1604.82
-1499.94
-1386.24
-1266.86
-1144.85
-1023.08
-904.088
-790.07
-682.78
-583.533
-493.207
-412.27
-340.827
-278.674
-225.362
-180.26
-142.615
-111.606
-86.3945
-66.1562
-50.1137
-37.5542
-27.8415
-20.4208
-14.8189
-10.6399
-7.55876
-5.31343
-3.69594
-2.54399
-1.73285
-1.16809
-0.779243
-0.51447
-0.33616
-0.217389
-0.139134
-0.088132
-0.0552495
-0.034277
-0.0210444
-0.012785
-0.00768524
-0.00457049
-0.00268881
-0.00156455
-0.000900277
-0.000512205
-0.000288076
-0.000160131
-8.79535e-05
-4.7725e-05
-2.55774e-05
-1.35359e-05
-7.07208e-06
-3.64709e-06
-1.85609e-06
-9.32033e-07
-4.61692e-07
-2.25566e-07
-1.0871e-07
-5.1655e-08
-2.41915e-08
-1.12045e-08
-5.12478e-09
-2.28414e-09
-1.01969e-09
-4.75268e-10
-2.0745e-10
-8.56142e-11
-1900.1
-1878.8
-1836.93
-1775.87
-1697.62
-1604.66
-1499.83
-1386.19
-1266.86
-1144.9
-1023.16
-904.197
-790.198
-682.921
-583.679
-493.351
-412.408
-340.955
-278.79
-225.465
-180.349
-142.691
-111.67
-86.4467
-66.1984
-50.1473
-37.5805
-27.8618
-20.4363
-14.8305
-10.6485
-7.56506
-5.31798
-3.69919
-2.54628
-1.73444
-1.16918
-0.779984
-0.514966
-0.336489
-0.217604
-0.139273
-0.0882208
-0.0553054
-0.0343119
-0.0210659
-0.0127981
-0.0076931
-0.00457515
-0.00269155
-0.00156614
-0.000901188
-0.000512721
-0.000288365
-0.000160291
-8.80412e-05
-4.77725e-05
-2.56028e-05
-1.35494e-05
-7.07911e-06
-3.65071e-06
-1.85796e-06
-9.32973e-07
-4.62146e-07
-2.25788e-07
-1.08821e-07
-5.17132e-08
-2.42189e-08
-1.12187e-08
-5.12697e-09
-2.29292e-09
-1.0142e-09
-4.41242e-10
-1.96474e-10
-1.1525e-10
-1899.86
-1878.58
-1836.73
-1775.7
-1697.48
-1604.55
-1499.76
-1386.15
-1266.86
-1144.93
-1023.21
-904.27
-790.286
-683.017
-583.779
-493.451
-412.504
-341.044
-278.871
-225.537
-180.412
-142.744
-111.714
-86.4834
-66.2281
-50.171
-37.5991
-27.8762
-20.4472
-14.8387
-10.6546
-7.56955
-5.32123
-3.70151
-2.54791
-1.73558
-1.16997
-0.780515
-0.515323
-0.336725
-0.217758
-0.139373
-0.0882845
-0.0553456
-0.0343369
-0.0210813
-0.0128074
-0.00769871
-0.00457848
-0.0026935
-0.00156727
-0.000901835
-0.000513087
-0.00028857
-0.000160404
-8.81029e-05
-4.78058e-05
-2.56206e-05
-1.35588e-05
-7.08401e-06
-3.65323e-06
-1.85922e-06
-9.33593e-07
-4.62464e-07
-2.25986e-07
-1.08906e-07
-5.17329e-08
-2.42222e-08
-1.121e-08
-5.14124e-09
-2.32805e-09
-1.02298e-09
-4.43437e-10
-1.99766e-10
-8.23213e-11
-1899.71
-1878.43
-1836.59
-1775.57
-1697.38
-1604.48
-1499.71
-1386.13
-1266.86
-1144.94
-1023.25
-904.32
-790.346
-683.083
-583.847
-493.519
-412.569
-341.105
-278.927
-225.587
-180.455
-142.781
-111.745
-86.509
-66.2489
-50.1875
-37.6121
-27.8863
-20.4549
-14.8445
-10.6589
-7.57271
-5.32352
-3.70314
-2.54907
-1.73639
-1.17052
-0.780891
-0.515575
-0.336892
-0.217868
-0.139444
-0.0883297
-0.0553741
-0.0343546
-0.0210922
-0.012814
-0.00770269
-0.00458084
-0.00269488
-0.00156806
-0.000902289
-0.000513344
-0.000288713
-0.000160483
-8.81459e-05
-4.78289e-05
-2.56329e-05
-1.35652e-05
-7.08738e-06
-3.65495e-06
-1.86009e-06
-9.34024e-07
-4.6268e-07
-2.26087e-07
-1.08963e-07
-5.17483e-08
-2.42332e-08
-1.12253e-08
-5.14453e-09
-2.31707e-09
-1.00871e-09
-4.58804e-10
-2.16231e-10
-6.36618e-11
-1899.6
-1878.33
-1836.49
-1775.49
-1697.31
-1604.43
-1499.68
-1386.11
-1266.85
-1144.96
-1023.27
-904.353
-790.386
-683.127
-583.893
-493.565
-412.614
-341.147
-278.965
-225.62
-180.485
-142.806
-111.767
-86.5266
-66.2632
-50.199
-37.6212
-27.8933
-20.4603
-14.8486
-10.6619
-7.57491
-5.32511
-3.70428
-2.54987
-1.73695
-1.17091
-0.781154
-0.515752
-0.33701
-0.217945
-0.139494
-0.0883614
-0.0553941
-0.0343671
-0.0210998
-0.0128187
-0.00770546
-0.00458248
-0.00269584
-0.00156862
-0.000902605
-0.000513521
-0.000288811
-0.000160537
-8.81754e-05
-4.78448e-05
-2.56413e-05
-1.35696e-05
-7.08967e-06
-3.65613e-06
-1.86066e-06
-9.34299e-07
-4.62824e-07
-2.26167e-07
-1.08995e-07
-5.1779e-08
-2.42617e-08
-1.1199e-08
-5.11051e-09
-2.30719e-09
-1.01969e-09
-4.67585e-10
-2.15133e-10
-7.13451e-11
-1899.53
-1878.26
-1836.43
-1775.44
-1697.27
-1604.39
-1499.65
-1386.1
-1266.85
-1144.96
-1023.29
-904.375
-790.412
-683.156
-583.924
-493.596
-412.644
-341.175
-278.991
-225.644
-180.505
-142.824
-111.781
-86.5386
-66.273
-50.2068
-37.6273
-27.8981
-20.464
-14.8514
-10.664
-7.57643
-5.32622
-3.70507
-2.55043
-1.73734
-1.17118
-0.781337
-0.515875
-0.337091
-0.217998
-0.139528
-0.0883834
-0.055408
-0.0343757
-0.0211051
-0.0128219
-0.00770738
-0.00458361
-0.0026965
-0.001569
-0.000902821
-0.000513643
-0.000288879
-0.000160574
-8.81953e-05
-4.78555e-05
-2.5647e-05
-1.35726e-05
-7.09118e-06
-3.65689e-06
-1.86107e-06
-9.34517e-07
-4.62911e-07
-2.2621e-07
-1.09021e-07
-5.17757e-08
-2.42519e-08
-1.12078e-08
-5.11709e-09
-2.31488e-09
-1.04932e-09
-4.57706e-10
-1.63545e-10
-8.56142e-11
-1899.48
-1878.21
-1836.39
-1775.4
-1697.23
-1604.37
-1499.64
-1386.09
-1266.85
-1144.97
-1023.3
-904.39
-790.43
-683.176
-583.945
-493.616
-412.664
-341.194
-279.008
-225.659
-180.518
-142.835
-111.791
-86.5467
-66.2796
-50.2121
-37.6315
-27.9013
-20.4664
-14.8532
-10.6654
-7.57747
-5.32697
-3.70561
-2.55081
-1.73761
-1.17136
-0.781462
-0.515959
-0.337147
-0.218035
-0.139552
-0.0883985
-0.0554175
-0.0343816
-0.0211087
-0.0128241
-0.00770869
-0.00458439
-0.00269695
-0.00156926
-0.000902968
-0.000513725
-0.000288924
-0.000160599
-8.82087e-05
-4.78626e-05
-2.56508e-05
-1.35746e-05
-7.0922e-06
-3.65743e-06
-1.86133e-06
-9.3467e-07
-4.63001e-07
-2.2623e-07
-1.09019e-07
-5.17691e-08
-2.42387e-08
-1.12166e-08
-5.13136e-09
-2.31048e-09
-1.04054e-09
-4.6978e-10
-1.83302e-10
-5.37833e-11
-1899.45
-1878.18
-1836.36
-1775.38
-1697.21
-1604.35
-1499.63
-1386.08
-1266.85
-1144.97
-1023.3
-904.399
-790.441
-683.189
-583.958
-493.63
-412.677
-341.207
-279.019
-225.669
-180.527
-142.843
-111.798
-86.5521
-66.284
-50.2156
-37.6343
-27.9035
-20.4681
-14.8545
-10.6663
-7.57817
-5.32748
-3.70598
-2.55107
-1.73779
-1.17148
-0.781547
-0.516016
-0.337185
-0.21806
-0.139568
-0.0884088
-0.0554239
-0.0343856
-0.0211112
-0.0128256
-0.00770958
-0.00458491
-0.00269725
-0.00156943
-0.000903066
-0.00051378
-0.000288955
-0.000160615
-8.82176e-05
-4.78674e-05
-2.56532e-05
-1.35758e-05
-7.09286e-06
-3.65776e-06
-1.86152e-06
-9.34765e-07
-4.6304e-07
-2.26237e-07
-1.09034e-07
-5.17845e-08
-2.42431e-08
-1.12133e-08
-5.13356e-09
-2.32366e-09
-1.03725e-09
-4.53316e-10
-1.94278e-10
-6.58571e-11
-1899.43
-1878.16
-1836.34
-1775.36
-1697.2
-1604.34
-1499.62
-1386.08
-1266.85
-1144.97
-1023.31
-904.405
-790.449
-683.197
-583.967
-493.639
-412.686
-341.215
-279.027
-225.676
-180.533
-142.848
-111.802
-86.5557
-66.2869
-50.218
-37.6362
-27.9049
-20.4692
-14.8554
-10.667
-7.57863
-5.32782
-3.70622
-2.55125
-1.73791
-1.17157
-0.781604
-0.516054
-0.33721
-0.218076
-0.139579
-0.0884157
-0.0554283
-0.0343883
-0.0211128
-0.0128266
-0.00771017
-0.00458526
-0.00269746
-0.00156954
-0.000903132
-0.000513816
-0.000288975
-0.000160626
-8.82235e-05
-4.78704e-05
-2.56548e-05
-1.35767e-05
-7.09329e-06
-3.65798e-06
-1.86163e-06
-9.34809e-07
-4.63061e-07
-2.26243e-07
-1.09032e-07
-5.17834e-08
-2.42584e-08
-1.12177e-08
-5.10612e-09
-2.29512e-09
-1.0592e-09
-4.86245e-10
-1.94278e-10
-6.0369e-11
-1899.42
-1878.15
-1836.33
-1775.35
-1697.19
-1604.34
-1499.61
-1386.08
-1266.85
-1144.97
-1023.31
-904.409
-790.454
-683.202
-583.973
-493.645
-412.691
-341.22
-279.032
-225.68
-180.537
-142.851
-111.805
-86.5581
-66.2888
-50.2195
-37.6374
-27.9059
-20.47
-14.8559
-10.6674
-7.57894
-5.32804
-3.70638
-2.55136
-1.73799
-1.17162
-0.781642
-0.51608
-0.337227
-0.218087
-0.139586
-0.0884202
-0.0554311
-0.0343901
-0.0211139
-0.0128272
-0.00771057
-0.00458549
-0.00269759
-0.00156962
-0.000903174
-0.00051384
-0.000288988
-0.000160633
-8.82273e-05
-4.78724e-05
-2.56559e-05
-1.35772e-05
-7.09355e-06
-3.6581e-06
-1.86168e-06
-9.34836e-07
-4.63111e-07
-2.26273e-07
-1.09009e-07
-5.17922e-08
-2.42782e-08
-1.12198e-08
-5.11709e-09
-2.29841e-09
-1.04274e-09
-4.89537e-10
-1.94278e-10
-5.59785e-11
-1899.41
-1878.14
-1836.32
-1775.34
-1697.19
-1604.33
-1499.61
-1386.08
-1266.85
-1144.98
-1023.31
-904.411
-790.457
-683.206
-583.976
-493.649
-412.695
-341.224
-279.035
-225.683
-180.54
-142.854
-111.807
-86.5596
-66.2901
-50.2205
-37.6382
-27.9065
-20.4705
-14.8563
-10.6677
-7.57914
-5.32819
-3.70649
-2.55143
-1.73804
-1.17166
-0.781667
-0.516097
-0.337238
-0.218095
-0.13959
-0.0884232
-0.055433
-0.0343913
-0.0211147
-0.0128276
-0.00771082
-0.00458564
-0.00269768
-0.00156967
-0.000903202
-0.000513856
-0.000288996
-0.000160638
-8.82297e-05
-4.78737e-05
-2.56565e-05
-1.35776e-05
-7.09375e-06
-3.6582e-06
-1.86172e-06
-9.34858e-07
-4.63109e-07
-2.26283e-07
-1.09029e-07
-5.17724e-08
-2.42464e-08
-1.1222e-08
-5.14014e-09
-2.30939e-09
-1.04822e-09
-5.04904e-10
-1.89888e-10
-3.40261e-11
-1899.4
-1878.14
-1836.32
-1775.34
-1697.18
-1604.33