/*--------------------------------*- C++ -*----------------------------------*\
  =========                 |
  \\      /  F ield         | OpenFOAM: The Open Source CFD Toolbox
   \\    /   O peration     | Website:  https://openfoam.org
    \\  /    A nd           | Version:  10
     \\/     M anipulation  |
\*---------------------------------------------------------------------------*/
FoamFile
{
    format      ascii;
    class       volScalarField;
    location    "301";
    object      T;
}
// * * * * * * * * * * * * * * * * * * * * * * * * * * * * * * * * * * * * * //

dimensions      [0 0 0 1 0 0 0];

internalField   nonuniform List<scalar> 
11250
(
249.823
167.5
139.267
126.818
120.013
115.689
112.661
110.401
108.64
107.228
106.07
105.108
104.299
103.615
103.035
102.541
102.121
101.764
101.461
101.205
100.989
100.808
100.656
100.531
100.427
100.341
100.271
100.214
100.168
100.131
100.102
100.079
100.06
100.046
100.035
100.026
100.02
100.015
100.011
100.008
100.006
100.004
100.003
100.002
100.002
100.001
100.001
100.001
100
100
100
100
100
100
100
100
100
100
100
100
100
100
100
100
100
100
100
100
100
100
100
100
100
100
100
331.443
248.418
202.031
174.828
157.581
145.798
137.243
130.735
125.607
121.464
118.052
115.206
112.809
110.779
109.053
107.583
106.331
105.267
104.364
103.599
102.955
102.414
101.962
101.586
101.275
101.019
100.81
100.64
100.503
100.393
100.305
100.235
100.18
100.137
100.104
100.078
100.059
100.043
100.032
100.024
100.017
100.012
100.009
100.006
100.005
100.003
100.002
100.002
100.001
100.001
100.001
100
100
100
100
100
100
100
100
100
100
100
100
100
100
100
100
100
100
100
100
100
100
100
100
358.98
292.722
245.65
212.934
189.748
172.757
159.866
149.782
141.692
135.074
129.578
124.964
121.062
117.745
114.918
112.506
110.449
108.697
107.208
105.948
104.885
103.992
103.245
102.624
102.11
101.687
101.341
101.06
100.833
100.651
100.505
100.39
100.299
100.228
100.172
100.13
100.097
100.072
100.053
100.039
100.028
100.021
100.015
100.011
100.008
100.005
100.004
100.003
100.002
100.001
100.001
100.001
100
100
100
100
100
100
100
100
100
100
100
100
100
100
100
100
100
100
100
100
100
100
100
370.745
317.881
274.974
241.598
215.829
195.743
179.827
166.993
156.475
147.738
140.403
134.195
128.912
124.4
120.541
117.239
114.417
112.009
109.96
108.224
106.757
105.524
104.492
103.633
102.922
102.337
101.859
101.47
101.155
100.902
100.7
100.54
100.414
100.316
100.239
100.18
100.135
100.1
100.074
100.054
100.039
100.029
100.021
100.015
100.01
100.007
100.005
100.004
100.002
100.002
100.001
100.001
100.001
100
100
100
100
100
100
100
100
100
100
100
100
100
100
100
100
100
100
100
100
100
100
376.885
333.136
294.856
262.774
236.378
214.735
196.908
182.108
169.712
159.246
150.351
142.754
136.242
130.651
125.847
121.723
118.188
115.165
112.589
110.401
108.551
106.994
105.69
104.604
103.705
102.964
102.358
101.865
101.466
101.145
100.889
100.686
100.526
100.401
100.304
100.229
100.171
100.127
100.094
100.069
100.05
100.036
100.026
100.019
100.013
100.009
100.007
100.005
100.003
100.002
100.001
100.001
100.001
100
100
100
100
100
100
100
100
100
100
100
100
100
100
100
100
100
100
100
100
100
100
380.565
342.991
308.651
278.419
252.366
230.136
211.218
195.097
181.317
169.495
159.323
150.55
142.974
136.429
130.779
125.909
121.722
118.133
115.067
112.459
110.25
108.389
106.829
105.529
104.451
103.562
102.835
102.242
101.763
101.378
101.07
100.826
100.634
100.483
100.366
100.275
100.206
100.153
100.113
100.083
100.06
100.044
100.032
100.023
100.016
100.011
100.008
100.006
100.004
100.003
100.002
100.001
100.001
100.001
100
100
100
100
100
100
100
100
100
100
100
100
100
100
100
100
100
100
100
100
100
382.975
349.696
318.473
290.07
264.764
242.498
223.039
206.083
191.323
178.473
167.283
157.541
149.062
141.693
135.299
129.766
124.993
120.889
117.376
114.382
111.842
109.699
107.901
106.4
105.154
104.127
103.286
102.6
102.045
101.599
101.242
100.959
100.736
100.561
100.425
100.32
100.239
100.178
100.131
100.096
100.07
100.051
100.037
100.026
100.019
100.013
100.009
100.006
100.004
100.003
100.002
100.001
100.001
100.001
100
100
100
100
100
100
100
100
100
100
100
100
100
100
100
100
100
100
100
100
100
384.646
354.442
325.634
298.841
274.39
252.371
232.715
215.268
199.839
186.229
174.248
163.722
154.494
146.424
139.388
133.274
127.981
123.418
119.502
116.158
113.316
110.915
108.897
107.211
105.811
104.655
103.708
102.935
102.309
101.806
101.403
101.084
100.832
100.634
100.481
100.362
100.271
100.201
100.149
100.109
100.08
100.058
100.041
100.03
100.021
100.015
100.01
100.007
100.005
100.003
100.002
100.002
100.001
100.001
100
100
100
100
100
100
100
100
100
100
100
100
100
100
100
100
100
100
100
100
100
385.849
357.901
330.957
305.515
281.891
260.241
240.589
222.882
207.013
192.854
180.269
169.121
159.281
150.626
143.044
136.428
130.681
125.713
121.438
117.78
114.667
112.032
109.814
107.96
106.418
105.144
104.099
103.246
102.555
101.999
101.554
101.2
100.921
100.703
100.533
100.401
100.3
100.223
100.165
100.121
100.088
100.064
100.046
100.033
100.023
100.017
100.012
100.008
100.006
100.004
100.003
100.002
100.001
100.001
100.001
100
100
100
100
100
100
100
100
100
100
100
100
100
100
100
100
100
100
100
100
386.738
360.479
334.979
310.642
287.761
266.512
246.974
229.154
213.008
198.461
185.422
173.787
163.453
154.316
146.275
139.232
133.094
127.772
123.183
119.247
115.892
113.047
110.65
108.644
106.973
105.593
104.458
103.532
102.781
102.176
101.692
101.308
101.004
100.766
100.581
100.438
100.328
100.244
100.18
100.132
100.096
100.07
100.05
100.036
100.026
100.018
100.013
100.009
100.006
100.004
100.003
100.002
100.001
100.001
100.001
100
100
100
100
100
100
100
100
100
100
100
100
100
100
100
100
100
100
100
100
387.408
362.431
338.054
314.614
292.373
271.511
252.137
234.295
217.984
203.169
189.793
177.782
167.054
157.524
149.102
141.699
135.227
129.601
124.738
120.56
116.991
113.961
111.405
109.262
107.477
106
104.785
103.793
102.988
102.339
101.819
101.406
101.08
100.824
100.625
100.471
100.353
100.262
100.194
100.142
100.104
100.075
100.054
100.039
100.028
100.019
100.014
100.009
100.007
100.005
100.003
100.002
100.001
100.001
100.001
100
100
100
100
100
100
100
100
100
100
100
100
100
100
100
100
100
100
100
100
387.919
363.927
340.428
317.709
296.007
275.499
256.304
238.493
222.092
207.095
193.472
181.173
170.135
160.287
151.551
143.848
137.095
131.21
126.112
121.724
117.969
114.777
112.08
109.816
107.929
106.366
105.079
104.028
103.174
102.486
101.934
101.496
101.149
100.877
100.666
100.502
100.376
100.279
100.207
100.152
100.111
100.08
100.058
100.041
100.029
100.021
100.015
100.01
100.007
100.005
100.003
100.002
100.002
100.001
100.001
100
100
100
100
100
100
100
100
100
100
100
100
100
100
100
100
100
100
100
100
388.314
365.084
342.273
320.134
298.879
278.68
259.662
241.909
225.466
210.349
196.547
184.029
172.748
162.646
153.656
145.704
138.716
132.612
127.314
122.745
118.83
115.497
112.677
110.309
108.332
106.692
105.342
104.238
103.341
102.618
102.038
101.576
101.211
100.925
100.702
100.529
100.396
100.295
100.218
100.16
100.117
100.085
100.061
100.044
100.031
100.022
100.015
100.011
100.007
100.005
100.003
100.002
100.002
100.001
100.001
100
100
100
100
100
100
100
100
100
100
100
100
100
100
100
100
100
100
100
100
388.62
365.983
343.715
322.039
301.153
281.218
262.364
244.68
228.227
213.032
199.102
186.419
174.949
164.644
155.448
147.294
140.11
133.823
128.356
123.634
119.581
116.127
113.202
110.742
108.686
106.981
105.575
104.425
103.49
102.735
102.13
101.648
101.267
100.968
100.734
100.554
100.415
100.309
100.228
100.168
100.122
100.089
100.064
100.046
100.032
100.023
100.016
100.011
100.008
100.005
100.004
100.002
100.002
100.001
100.001
100
100
100
100
100
100
100
100
100
100
100
100
100
100
100
100
100
100
100
100
388.858
366.686
344.845
323.54
302.954
283.242
264.533
246.921
230.475
215.233
201.212
188.405
176.788
166.325
156.963
148.643
141.299
134.86
129.252
124.4
120.232
116.674
113.658
111.119
108.996
107.234
105.78
104.589
103.621
102.838
102.211
101.711
101.316
101.005
100.763
100.576
100.431
100.321
100.237
100.174
100.127
100.092
100.066
100.048
100.034
100.024
100.017
100.012
100.008
100.006
100.004
100.003
100.002
100.001
100.001
100.001
100
100
100
100
100
100
100
100
100
100
100
100
100
100
100
100
100
100
100
389.045
367.237
345.733
324.723
304.381
284.855
266.271
248.729
232.299
217.03
202.944
190.045
178.316
167.727
158.233
149.78
142.305
135.741
130.015
125.056
120.79
117.145
114.052
111.446
109.265
107.453
105.958
104.732
103.735
102.929
102.282
101.767
101.359
101.039
100.789
100.595
100.446
100.332
100.245
100.18
100.132
100.095
100.069
100.049
100.035
100.025
100.017
100.012
100.008
100.006
100.004
100.003
100.002
100.001
100.001
100.001
100
100
100
100
100
100
100
100
100
100
100
100
100
100
100
100
100
100
100
389.191
367.669
346.431
325.657
305.511
286.137
267.661
250.181
233.773
218.49
204.36
191.392
179.577
168.89
159.292
150.731
143.15
136.483
130.661
125.612
121.264
117.546
114.389
111.726
109.496
107.642
106.111
104.856
103.834
103.007
102.344
101.815
101.397
101.068
100.811
100.612
100.458
100.341
100.253
100.186
100.136
100.098
100.071
100.051
100.036
100.025
100.018
100.012
100.009
100.006
100.004
100.003
100.002
100.001
100.001
100.001
100
100
100
100
100
100
100
100
100
100
100
100
100
100
100
100
100
100
100
389.306
368.008
346.98
326.393
306.404
287.156
268.77
251.345
234.96
219.67
205.51
192.492
180.611
169.848
160.167
151.521
143.854
137.104
131.203
126.081
121.665
117.886
114.674
111.964
109.693
107.804
106.242
104.962
103.919
103.075
102.397
101.857
101.429
101.093
100.83
100.626
100.469
100.35
100.259
100.19
100.139
100.101
100.073
100.052
100.037
100.026
100.018
100.013
100.009
100.006
100.004
100.003
100.002
100.001
100.001
100.001
100
100
100
100
100
100
100
100
100
100
100
100
100
100
100
100
100
100
100
389.396
368.274
347.411
326.972
307.11
287.963
269.651
252.274
235.911
220.621
206.439
193.384
181.454
170.632
160.886
152.172
144.437
137.62
131.655
126.472
122.001
118.172
114.915
112.165
109.86
107.94
106.354
105.052
103.991
103.132
102.443
101.892
101.457
101.114
100.846
100.639
100.479
100.357
100.264
100.194
100.142
100.103
100.074
100.053
100.038
100.027
100.019
100.013
100.009
100.006
100.004
100.003
100.002
100.001
100.001
100.001
100
100
100
100
100
100
100
100
100
100
100
100
100
100
100
100
100
100
100
389.466
368.482
347.75
327.428
307.666
288.601
270.35
253.013
236.671
221.383
207.187
194.105
182.138
171.27
161.473
152.706
144.916
138.045
132.028
126.796
122.28
118.409
115.116
112.333
109.999
108.055
106.448
105.128
104.052
103.181
102.481
101.923
101.48
101.132
100.86
100.649
100.487
100.363
100.269
100.197
100.144
100.105
100.075
100.054
100.038
100.027
100.019
100.013
100.009
100.006
100.004
100.003
100.002
100.001
100.001
100.001
100
100
100
100
100
100
100
100
100
100
100
100
100
100
100
100
100
100
100
389.521
368.645
348.014
327.785
308.103
289.103
270.902
253.599
237.275
221.99
207.786
194.684
182.688
171.786
161.949
153.14
145.307
138.393
132.334
127.063
122.51
118.606
115.282
112.473
110.115
108.151
106.526
105.191
104.103
103.222
102.514
101.948
101.5
101.148
100.872
100.658
100.494
100.368
100.272
100.2
100.146
100.106
100.077
100.055
100.039
100.028
100.019
100.013
100.009
100.006
100.004
100.003
100.002
100.001
100.001
100.001
100
100
100
100
100
100
100
100
100
100
100
100
100
100
100
100
100
100
100
389.564
368.772
348.221
328.064
308.446
289.498
271.336
254.061
237.752
222.472
208.263
195.147
183.129
172.2
162.333
153.491
145.624
138.676
132.584
127.281
122.699
118.768
115.419
112.588
110.211
108.23
106.591
105.244
104.146
103.256
102.541
101.969
101.517
101.16
100.882
100.666
100.5
100.372
100.276
100.203
100.148
100.107
100.077
100.055
100.039
100.028
100.02
100.014
100.009
100.007
100.004
100.003
100.002
100.001
100.001
100.001
100
100
100
100
100
100
100
100
100
100
100
100
100
100
100
100
100
100
100
389.597
368.871
348.382
328.282
308.713
289.806
271.677
254.424
238.129
222.853
208.64
195.514
183.481
172.531
162.641
153.772
145.879
138.904
132.786
127.458
122.852
118.899
115.531
112.682
110.29
108.295
106.644
105.288
104.181
103.284
102.563
101.987
101.53
101.171
100.89
100.672
100.504
100.376
100.278
100.205
100.15
100.109
100.078
100.056
100.04
100.028
100.02
100.014
100.01
100.007
100.005
100.003
100.002
100.001
100.001
100.001
100
100
100
100
100
100
100
100
100
100
100
100
100
100
100
100
100
100
100
389.623
368.948
348.508
328.451
308.921
290.047
271.943
254.708
238.424
223.153
208.938
195.804
183.759
172.794
162.885
153.997
146.083
139.087
132.948
127.6
122.976
119.006
115.622
112.759
110.354
108.349
106.688
105.323
104.209
103.307
102.581
102.001
101.542
101.18
100.897
100.677
100.508
100.379
100.28
100.206
100.151
100.109
100.079
100.057
100.04
100.028
100.02
100.014
100.01
100.007
100.005
100.003
100.002
100.001
100.001
100.001
100
100
100
100
100
100
100
100
100
100
100
100
100
100
100
100
100
100
100
389.643
369.007
348.604
328.583
309.083
290.233
272.15
254.93
238.655
223.387
209.171
196.032
183.978
173.002
163.079
154.176
146.245
139.233
133.078
127.714
123.075
119.091
115.695
112.821
110.406
108.392
106.723
105.352
104.233
103.326
102.596
102.013
101.551
101.187
100.903
100.682
100.512
100.381
100.282
100.208
100.152
100.11
100.079
100.057
100.04
100.029
100.02
100.014
100.01
100.007
100.005
100.003
100.002
100.001
100.001
100.001
100
100
100
100
100
100
100
100
100
100
100
100
100
100
100
100
100
100
100
389.659
369.053
348.679
328.684
309.207
290.378
272.31
255.101
238.834
223.57
209.353
196.21
184.15
173.164
163.231
154.316
146.373
139.348
133.181
127.805
123.154
119.159
115.753
112.87
110.447
108.426
106.752
105.375
104.252
103.341
102.608
102.023
101.559
101.193
100.907
100.685
100.514
100.383
100.284
100.209
100.153
100.111
100.08
100.057
100.041
100.029
100.02
100.014
100.01
100.007
100.005
100.003
100.002
100.001
100.001
100.001
100
100
100
100
100
100
100
100
100
100
100
100
100
100
100
100
100
100
100
389.67
369.088
348.736
328.761
309.303
290.489
272.433
255.234
238.972
223.711
209.494
196.349
184.284
173.291
163.351
154.426
146.474
139.439
133.262
127.877
123.217
119.214
115.8
112.909
110.48
108.454
106.775
105.394
104.267
103.353
102.618
102.031
101.565
101.198
100.911
100.688
100.516
100.385
100.285
100.21
100.153
100.111
100.08
100.057
100.041
100.029
100.02
100.014
100.01
100.007
100.005
100.003
100.002
100.001
100.001
100.001
100
100
100
100
100
100
100
100
100
100
100
100
100
100
100
100
100
100
100
389.679
369.115
348.78
328.82
309.376
290.574
272.528
255.336
239.078
223.819
209.603
196.456
184.387
173.39
163.443
154.512
146.552
139.51
133.325
127.933
123.266
119.256
115.836
112.94
110.506
108.475
106.793
105.409
104.279
103.363
102.626
102.037
101.569
101.201
100.914
100.69
100.518
100.386
100.286
100.21
100.154
100.112
100.081
100.058
100.041
100.029
100.02
100.014
100.01
100.007
100.005
100.003
100.002
100.001
100.001
100.001
100
100
100
100
100
100
100
100
100
100
100
100
100
100
100
100
100
100
100
389.686
369.135
348.813
328.866
309.432
290.639
272.6
255.413
239.16
223.903
209.687
196.538
184.467
173.466
163.515
154.579
146.613
139.565
133.374
127.976
123.304
119.289
115.865
112.965
110.527
108.492
106.807
105.42
104.288
103.37
102.632
102.042
101.573
101.204
100.916
100.692
100.519
100.387
100.287
100.211
100.154
100.112
100.081
100.058
100.041
100.029
100.02
100.014
100.01
100.007
100.005
100.003
100.002
100.001
100.001
100.001
100
100
100
100
100
100
100
100
100
100
100
100
100
100
100
100
100
100
100
389.691
369.151
348.838
328.9
309.474
290.688
272.655
255.472
239.222
223.966
209.75
196.601
184.528
173.524
163.569
154.63
146.66
139.608
133.412
128.01
123.334
119.315
115.887
112.984
110.543
108.506
106.818
105.429
104.296
103.376
102.637
102.045
101.576
101.207
100.918
100.693
100.52
100.388
100.287
100.211
100.155
100.112
100.081
100.058
100.041
100.029
100.02
100.014
100.01
100.007
100.005
100.003
100.002
100.001
100.001
100.001
100
100
100
100
100
100
100
100
100
100
100
100
100
100
100
100
100
100
100
389.695
369.162
348.857
328.925
309.506
290.725
272.696
255.517
239.269
224.014
209.799
196.649
184.574
173.569
163.611
154.668
146.696
139.64
133.442
128.036
123.357
119.335
115.904
112.998
110.555
108.516
106.826
105.437
104.301
103.381
102.64
102.048
101.579
101.209
100.919
100.695
100.521
100.389
100.288
100.212
100.155
100.112
100.081
100.058
100.041
100.029
100.021
100.014
100.01
100.007
100.005
100.003
100.002
100.001
100.001
100.001
100
100
100
100
100
100
100
100
100
100
100
100
100
100
100
100
100
100
100
389.698
369.171
348.871
328.945
309.53
290.753
272.727
255.55
239.304
224.05
209.835
196.685
184.609
173.602
163.643
154.698
146.723
139.665
133.464
128.056
123.374
119.35
115.917
113.009
110.565
108.524
106.833
105.442
104.306
103.385
102.643
102.051
101.58
101.21
100.92
100.695
100.522
100.389
100.288
100.212
100.155
100.113
100.081
100.058
100.041
100.029
100.021
100.014
100.01
100.007
100.005
100.003
100.002
100.001
100.001
100.001
100
100
100
100
100
100
100
100
100
100
100
100
100
100
100
100
100
100
100
389.7
369.177
348.882
328.959
309.548
290.773
272.75
255.576
239.33
224.078
209.862
196.712
184.635
173.627
163.667
154.72
146.744
139.684
133.481
128.071
123.387
119.362
115.927
113.018
110.572
108.53
106.838
105.446
104.309
103.388
102.645
102.052
101.582
101.211
100.921
100.696
100.522
100.39
100.289
100.212
100.155
100.113
100.081
100.058
100.041
100.029
100.021
100.014
100.01
100.007
100.005
100.003
100.002
100.001
100.001
100.001
100
100
100
100
100
100
100
100
100
100
100
100
100
100
100
100
100
100
100
389.702
369.182
348.89
328.97
309.561
290.789
272.767
255.594
239.35
224.098
209.883
196.732
184.655
173.646
163.685
154.737
146.759
139.698
133.494
128.082
123.397
119.37
115.935
113.024
110.577
108.535
106.842
105.449
104.312
103.39
102.647
102.054
101.583
101.212
100.922
100.697
100.523
100.39
100.289
100.212
100.155
100.113
100.081
100.058
100.041
100.029
100.021
100.014
100.01
100.007
100.005
100.003
100.002
100.001
100.001
100.001
100
100
100
100
100
100
100
100
100
100
100
100
100
100
100
100
100
100
100
389.703
369.186
348.895
328.978
309.571
290.8
272.78
255.608
239.365
224.113
209.898
196.747
184.67
173.66
163.698
154.75
146.771
139.708
133.503
128.091
123.405
119.377
115.94
113.029
110.582
108.538
106.845
105.452
104.314
103.391
102.648
102.055
101.584
101.213
100.922
100.697
100.523
100.39
100.289
100.213
100.155
100.113
100.081
100.058
100.042
100.029
100.021
100.014
100.01
100.007
100.005
100.003
100.002
100.001
100.001
100.001
100
100
100
100
100
100
100
100
100
100
100
100
100
100
100
100
100
100
100
389.704
369.188
348.9
328.984
309.578
290.809
272.79
255.618
239.375
224.124
209.909
196.758
184.681
173.671
163.708
154.759
146.779
139.716
133.51
128.097
123.41
119.382
115.945
113.033
110.585
108.541
106.847
105.454
104.315
103.392
102.649
102.056
101.584
101.213
100.923
100.697
100.523
100.39
100.289
100.213
100.155
100.113
100.081
100.058
100.042
100.029
100.021
100.014
100.01
100.007
100.005
100.003
100.002
100.001
100.001
100.001
100
100
100
100
100
100
100
100
100
100
100
100
100
100
100
100
100
100
100
389.705
369.19
348.903
328.988
309.583
290.815
272.796
255.626
239.383
224.132
209.917
196.766
184.689
173.679
163.715
154.766
146.785
139.722
133.515
128.102
123.414
119.386
115.948
113.036
110.587
108.543
106.849
105.455
104.316
103.393
102.65
102.056
101.585
101.213
100.923
100.697
100.524
100.39
100.289
100.213
100.156
100.113
100.081
100.058
100.042
100.029
100.021
100.014
100.01
100.007
100.005
100.003
100.002
100.001
100.001
100.001
100
100
100
100
100
100
100
100
100
100
100
100
100
100
100
100
100
100
100
389.705
369.192
348.905
328.991
309.587
290.819
272.801
255.631
239.389
224.138
209.923
196.772
184.694
173.684
163.721
154.771
146.79
139.726
133.519
128.105
123.418
119.388
115.95
113.038
110.589
108.544
106.85
105.456
104.317
103.394
102.651
102.057
101.585
101.214
100.923
100.698
100.524
100.39
100.289
100.213
100.156
100.113
100.081
100.058
100.042
100.029
100.021
100.014
100.01
100.007
100.005
100.003
100.002
100.001
100.001
100.001
100
100
100
100
100
100
100
100
100
100
100
100
100
100
100
100
100
100
100
389.705
369.193
348.907
328.993
309.59
290.822
272.805
255.635
239.393
224.142
209.928
196.776
184.699
173.688
163.724
154.774
146.793
139.729
133.522
128.108
123.42
119.39
115.952
113.039
110.59
108.545
106.851
105.457
104.318
103.394
102.651
102.057
101.585
101.214
100.923
100.698
100.524
100.391
100.289
100.213
100.156
100.113
100.081
100.058
100.042
100.029
100.021
100.014
100.01
100.007
100.005
100.003
100.002
100.001
100.001
100.001
100
100
100
100
100
100
100
100
100
100
100
100
100
100
100
100
100
100
100
389.706
369.193
348.908
328.995
309.591
290.825
272.808
255.638
239.396
224.145
209.931
196.779
184.702
173.691
163.727
154.777
146.796
139.731
133.524
128.11
123.421
119.392
115.953
113.04
110.591
108.546
106.851
105.457
104.318
103.395
102.651
102.057
101.586
101.214
100.923
100.698
100.524
100.391
100.289
100.213
100.156
100.113
100.082
100.058
100.042
100.029
100.021
100.014
100.01
100.007
100.005
100.003
100.002
100.001
100.001
100.001
100
100
100
100
100
100
100
100
100
100
100
100
100
100
100
100
100
100
100
389.706
369.194
348.909
328.996
309.593
290.826
272.809
255.64
239.398
224.147
209.933
196.782
184.704
173.693
163.729
154.779
146.798
139.733
133.525
128.111
123.422
119.393
115.954
113.041
110.591
108.547
106.852
105.458
104.319
103.395
102.652
102.057
101.586
101.214
100.924
100.698
100.524
100.391
100.289
100.213
100.156
100.113
100.082
100.058
100.042
100.029
100.021
100.014
100.01
100.007
100.005
100.003
100.002
100.001
100.001
100.001
100
100
100
100
100
100
100
100
100
100
100
100
100
100
100
100
100
100
100
389.706
369.194
348.909
328.997
309.594
290.828
272.811
255.641
239.4
224.149
209.934
196.783
184.705
173.695
163.731
154.78
146.799
139.734
133.526
128.112
123.423
119.393
115.954
113.042
110.592
108.547
106.852
105.458
104.319
103.395
102.652
102.057
101.586
101.214
100.924
100.698
100.524
100.391
100.289
100.213
100.156
100.113
100.082
100.058
100.042
100.029
100.021
100.014
100.01
100.007
100.005
100.003
100.002
100.001
100.001
100.001
100
100
100
100
100
100
100
100
100
100
100
100
100
100
100
100
100
100
100
389.706
369.194
348.91
328.997
309.595
290.828
272.812
255.642
239.401
224.15
209.936
196.784
184.706
173.696
163.732
154.781
146.8
139.735
133.527
128.112
123.424
119.394
115.955
113.042
110.592
108.547
106.852
105.458
104.319
103.395
102.652
102.057
101.586
101.214
100.924
100.698
100.524
100.391
100.289
100.213
100.156
100.113
100.082
100.058
100.042
100.029
100.021
100.014
100.01
100.007
100.005
100.003
100.002
100.001
100.001
100.001
100
100
100
100
100
100
100
100
100
100
100
100
100
100
100
100
100
100
100
389.706
369.195
348.91
328.998
309.595
290.829
272.812
255.643
239.401
224.151
209.936
196.785
184.707
173.696
163.732
154.782
146.8
139.736
133.528
128.113
123.424
119.394
115.955
113.042
110.592
108.547
106.853
105.458
104.319
103.395
102.652
102.058
101.586
101.214
100.924
100.698
100.524
100.391
100.289
100.213
100.156
100.113
100.082
100.058
100.042
100.029
100.021
100.014
100.01
100.007
100.005
100.003
100.002
100.001
100.001
100.001
100
100
100
100
100
100
100
100
100
100
100
100
100
100
100
100
100
100
100
389.706
369.195
348.91
328.998
309.595
290.829
272.813
255.643
239.402
224.151
209.937
196.786
184.708
173.697
163.733
154.782
146.801
139.736
133.528
128.113
123.425
119.394
115.955
113.042
110.593
108.548
106.853
105.458
104.319
103.396
102.652
102.058
101.586
101.214
100.924
100.698
100.524
100.391
100.289
100.213
100.156
100.113
100.082
100.058
100.042
100.029
100.021
100.014
100.01
100.007
100.005
100.003
100.002
100.001
100.001
100.001
100
100
100
100
100
100
100
100
100
100
100
100
100
100
100
100
100
100
100
389.706
369.195
348.91
328.998
309.596
290.83
272.813
255.644
239.402
224.152
209.937
196.786
184.708
173.697
163.733
154.783
146.801
139.736
133.528
128.114
123.425
119.395
115.956
113.043
110.593
108.548
106.853
105.458
104.319
103.396
102.652
102.058
101.586
101.214
100.924
100.698
100.524
100.391
100.289
100.213
100.156
100.113
100.082
100.058
100.042
100.029
100.021
100.014
100.01
100.007
100.005
100.003
100.002
100.001
100.001
100.001
100
100
100
100
100
100
100
100
100
100
100
100
100
100
100
100
100
100
100
389.706
369.195
348.91
328.998
309.596
290.83
272.813
255.644
239.402
224.152
209.938
196.786
184.708
173.698
163.733
154.783
146.801
139.736
133.529
128.114
123.425
119.395
115.956
113.043
110.593
108.548
106.853
105.458
104.319
103.396
102.652
102.058
101.586
101.214
100.924
100.698
100.524
100.391
100.289
100.213
100.156
100.113
100.082
100.058
100.042
100.029
100.021
100.014
100.01
100.007
100.005
100.003
100.002
100.001
100.001
100.001
100
100
100
100
100
100
100
100
100
100
100
100
100
100
100
100
100
100
100
389.706
369.195
348.91
328.998
309.596
290.83
272.814
255.644
239.403
224.152
209.938
196.787
184.709
173.698
163.734
154.783
146.801
139.737
133.529
128.114
123.425
119.395
115.956
113.043
110.593
108.548
106.853
105.458
104.319
103.396
102.652
102.058
101.586
101.214
100.924
100.698
100.524
100.391
100.289
100.213
100.156
100.113
100.082
100.058
100.042
100.029
100.021
100.014
100.01
100.007
100.005
100.003
100.002
100.001
100.001
100.001
100
100
100
100
100
100
100
100
100
100
100
100
100
100
100
100
100
100
100
389.706
369.195
348.91
328.998
309.596
290.83
272.814
255.644
239.403
224.152
209.938
196.787
184.709
173.698
163.734
154.783
146.802
139.737
133.529
128.114
123.425
119.395
115.956
113.043
110.593
108.548
106.853
105.458
104.319
103.396
102.652
102.058
101.586
101.214
100.924
100.698
100.524
100.391
100.289
100.213
100.156
100.113
100.082
100.058
100.042
100.029
100.021
100.014
100.01
100.007
100.005
100.003
100.002
100.001
100.001
100.001
100
100
100
100
100
100
100
100
100
100
100
100
100
100
100
100
100
100
100
389.706
369.195
348.91
328.998
309.596
290.83
272.814
255.644
239.403
224.152
209.938
196.787
184.709
173.698
163.734
154.783
146.802
139.737
133.529
128.114
123.425
119.395
115.956
113.043
110.593
108.548
106.853
105.458
104.319
103.396
102.652
102.058
101.586
101.214
100.924
100.698
100.524
100.391
100.289
100.213
100.156
100.113
100.082
100.058
100.042
100.029
100.021
100.014
100.01
100.007
100.005
100.003
100.002
100.001
100.001
100.001
100
100
100
100
100
100
100
100
100
100
100
100
100
100
100
100
100
100
100
389.706
369.195
348.91
328.998
309.596
290.83
272.814
255.644
239.403
224.152
209.938
196.787
184.709
173.698
163.734
154.783
146.802
139.737
133.529
128.114
123.425
119.395
115.956
113.043
110.593
108.548
106.853
105.458
104.319
103.396
102.652
102.058
101.586
101.214
100.924
100.698
100.524
100.391
100.289
100.213
100.156
100.113
100.082
100.058
100.042
100.029
100.021
100.014
100.01
100.007
100.005
100.003
100.002
100.001
100.001
100.001
100
100
100
100
100
100
100
100
100
100
100
100
100
100
100
100
100
100
100
389.706
369.195
348.91
328.998
309.596
290.83
272.814
255.644
239.403
224.152
209.938
196.787
184.709
173.698
163.734
154.783
146.802
139.737
133.529
128.114
123.425
119.395
115.956
113.043
110.593
108.548
106.853
105.458
104.319
103.396
102.652
102.058
101.586
101.214
100.924
100.698
100.524
100.391
100.289
100.213
100.156
100.113
100.082
100.058
100.042
100.029
100.021
100.014
100.01
100.007
100.005
100.003
100.002
100.001
100.001
100.001
100
100
100
100
100
100
100
100
100
100
100
100
100
100
100
100
100
100
100
389.706
369.195
348.91
328.998
309.596
290.83
272.814
255.644
239.403
224.152
209.938
196.787
184.709
173.698
163.734
154.783
146.802
139.737
133.529
128.114
123.425
119.395
115.956
113.043
110.593
108.548
106.853
105.458
104.319
103.396
102.652
102.058
101.586
101.214
100.924
100.698
100.524
100.391
100.289
100.213
100.156
100.113
100.082
100.058
100.042
100.029
100.021
100.014
100.01
100.007
100.005
100.003
100.002
100.001
100.001
100.001
100
100
100
100
100
100
100
100
100
100
100
100
100
100
100
100
100
100
100
389.706
369.195
348.91
328.998
309.596
290.83
272.814
255.644
239.403
224.152
209.938
196.787
184.709
173.698
163.734
154.783
146.802
139.737
133.529
128.114
123.425
119.395
115.956
113.043
110.593
108.548
106.853
105.458
104.319
103.396
102.652
102.058
101.586
101.214
100.924
100.698
100.524
100.391
100.289
100.213
100.156
100.113
100.082
100.058
100.042
100.029
100.021
100.014
100.01
100.007
100.005
100.003
100.002
100.001
100.001
100.001
100
100
100
100
100
100
100
100
100
100
100
100
100
100
100
100
100
100
100
389.706
369.195
348.91
328.998
309.596
290.83
272.814
255.644
239.403
224.153
209.938
196.787
184.709
173.698
163.734
154.783
146.802
139.737
133.529
128.114
123.425
119.395
115.956
113.043
110.593
108.548
106.853
105.458
104.319
103.396
102.652
102.058
101.586
101.214
100.924
100.698
100.524
100.391
100.289
100.213
100.156
100.113
100.082
100.058
100.042
100.029
100.021
100.014
100.01
100.007
100.005
100.003
100.002
100.001
100.001
100.001
100
100
100
100
100
100
100
100
100
100
100
100
100
100
100
100
100
100
100
389.706
369.195
348.91
328.998
309.596
290.83
272.814
255.644
239.403
224.153
209.938
196.787
184.709
173.698
163.734
154.783
146.802
139.737
133.529
128.114
123.425
119.395
115.956
113.043
110.593
108.548
106.853
105.458
104.319
103.396
102.652
102.058
101.586
101.214
100.924
100.698
100.524
100.391
100.289
100.213
100.156
100.113
100.082
100.058
100.042
100.029
100.021
100.014
100.01
100.007
100.005
100.003
100.002
100.001
100.001
100.001
100
100
100
100
100
100
100
100
100
100
100
100
100
100
100
100
100
100
100
389.706
369.195
348.911
328.998
309.596
290.83
272.814
255.644
239.403
224.153
209.938
196.787
184.709
173.698
163.734
154.783
146.802
139.737
133.529
128.114
123.425
119.395
115.956
113.043
110.593
108.548
106.853
105.458
104.319
103.396
102.652
102.058
101.586
101.214
100.924
100.698
100.524
100.391
100.289
100.213
100.156
100.113
100.082
100.058
100.042
100.029
100.021
100.014
100.01
100.007
100.005
100.003