/*--------------------------------*- C++ -*----------------------------------*\
  =========                 |
  \\      /  F ield         | OpenFOAM: The Open Source CFD Toolbox
   \\    /   O peration     | Website:  https://openfoam.org
    \\  /    A nd           | Version:  10
     \\/     M anipulation  |
\*---------------------------------------------------------------------------*/
FoamFile
{
    format      ascii;
    class       volScalarField;
    location    "142";
    object      gradTz;
}
// * * * * * * * * * * * * * * * * * * * * * * * * * * * * * * * * * * * * * //

dimensions      [0 -1 0 1 0 0 0];

internalField   nonuniform List<scalar> 
11250
(
-14379.9
-4174.36
-1552.12
-745.756
-437.566
-291.972
-210.329
-158.467
-122.514
-96.038
-75.7334
-59.7548
-46.9943
-36.738
-28.4916
-21.8879
-16.6379
-12.5037
-9.28435
-6.80816
-4.92852
-3.52123
-2.48242
-1.72661
-1.1847
-0.801843
-0.535326
-0.352526
-0.228987
-0.146719
-0.0927314
-0.0578133
-0.0355519
-0.0215605
-0.0128906
-0.00759403
-0.00440464
-0.0025126
-0.00140779
-0.000773556
-0.000416168
-0.000218845
-0.000112303
-5.61539e-05
-2.73235e-05
-1.29236e-05
-5.93678e-06
-2.64702e-06
-1.14503e-06
-4.80423e-07
-1.95502e-07
-7.71603e-08
-2.95534e-08
-1.10014e-08
-3.9613e-09
-1.383e-09
-4.76366e-10
-1.69033e-10
-4.60999e-11
-1.09762e-12
0
0
-2.08547e-11
-1.09762e-12
2.19523e-11
1.09762e-12
-1.09762e-12
0
1.09762e-12
-1.09762e-12
0
-5.48809e-12
-1.09762e-12
6.5857e-12
0
-8343.47
-4938.14
-2838.96
-1737.81
-1149.08
-811.237
-600.783
-459.363
-358.199
-282.304
-223.414
-176.714
-139.225
-108.983
-84.604
-65.0448
-49.4733
-37.1982
-27.6316
-20.2687
-14.6767
-10.4883
-7.39554
-5.14472
-3.53051
-2.38985
-1.59568
-1.0509
-0.682678
-0.437446
-0.276499
-0.172394
-0.106019
-0.0642993
-0.0384462
-0.0226512
-0.0131395
-0.00749647
-0.00420101
-0.00230892
-0.00124254
-0.000653616
-0.000335539
-0.000167849
-8.17108e-05
-3.86677e-05
-1.77725e-05
-7.92868e-06
-3.43175e-06
-1.44074e-06
-5.86636e-07
-2.31688e-07
-8.8772e-08
-3.30185e-08
-1.19289e-08
-4.16656e-09
-1.42361e-09
-4.87342e-10
-1.43788e-10
-2.74404e-11
-3.29285e-12
1.09762e-12
1.09762e-12
8.78094e-12
-1.09762e-12
-1.20738e-11
1.09762e-12
2.19523e-12
-1.09762e-12
-4.39047e-12
1.09762e-12
4.39047e-12
0
-8.78094e-12
8.78094e-12
-5707.14
-4390.81
-3123.25
-2213.59
-1606.67
-1200.94
-920.943
-719.613
-569.021
-452.64
-360.516
-286.455
-226.433
-177.687
-138.201
-106.407
-81.0277
-60.9804
-45.332
-33.2733
-24.1061
-17.2343
-12.1568
-8.45961
-5.80692
-3.93172
-2.62572
-1.72958
-1.12375
-0.720175
-0.455264
-0.283886
-0.174605
-0.105909
-0.0633345
-0.0373211
-0.021654
-0.0123577
-0.00692776
-0.0038093
-0.00205108
-0.00107964
-0.000554652
-0.000277689
-0.000135306
-6.40935e-05
-2.94896e-05
-1.31703e-05
-5.70695e-06
-2.39875e-06
-9.77894e-07
-3.8665e-07
-1.48313e-07
-5.52365e-08
-1.99733e-08
-7.0028e-09
-2.38183e-09
-7.89187e-10
-2.45866e-10
-4.93928e-11
-3.29285e-12
0
1.09762e-12
5.48809e-12
-1.09762e-12
-5.48809e-12
0
0
0
-1.09762e-11
0
1.20738e-11
1.09762e-12
-1.09762e-12
-1.09762e-12
-4378.54
-3786.51
-3042.21
-2380.29
-1858.04
-1461.35
-1160.35
-928.486
-746.295
-600.497
-482.21
-385.443
-306.035
-240.964
-187.904
-144.972
-110.574
-83.3262
-62.0102
-45.5555
-33.029
-23.6284
-16.6761
-11.6097
-7.97242
-5.39979
-3.60723
-2.37674
-1.54457
-0.990075
-0.625999
-0.390417
-0.240167
-0.145703
-0.087149
-0.0513668
-0.0298128
-0.0170208
-0.00954681
-0.00525281
-0.00283056
-0.00149132
-0.000766973
-0.000384451
-0.000187575
-8.898e-05
-4.10021e-05
-1.8341e-05
-7.96063e-06
-3.35164e-06
-1.36868e-06
-5.42122e-07
-2.0831e-07
-7.76971e-08
-2.81341e-08
-9.89283e-09
-3.3653e-09
-1.1075e-09
-3.55628e-10
-9.98832e-11
-2.19524e-11
-1.09762e-12
-1.20738e-11
-1.09762e-12
1.4269e-11
1.09762e-12
0
0
-2.19524e-12
0
8.78094e-12
1.09762e-12
-9.87856e-12
0
0
-3630.1
-3323.16
-2868.57
-2398.56
-1976.91
-1621.15
-1327.77
-1086.8
-888.092
-723.295
-586.046
-471.6
-376.363
-297.51
-232.717
-179.987
-137.553
-103.824
-77.3665
-56.8996
-41.2919
-29.5627
-20.8782
-14.5436
-9.99211
-6.77068
-4.52474
-2.98227
-1.93866
-1.24301
-0.786111
-0.490381
-0.301724
-0.183088
-0.109537
-0.0645825
-0.0374976
-0.021419
-0.0120215
-0.00661978
-0.00357071
-0.0018835
-0.000969983
-0.000486956
-0.000237988
-0.0001131
-5.22175e-05
-2.34053e-05
-1.018e-05
-4.29525e-06
-1.75786e-06
-6.97813e-07
-2.68731e-07
-1.00433e-07
-3.64365e-08
-1.28355e-08
-4.39486e-09
-1.45434e-09
-4.44535e-10
-1.32812e-10
-4.17095e-11
-1.09762e-12
2.19523e-12
1.09762e-12
5.48809e-12
-2.19523e-12
-4.39047e-12
1.09762e-12
2.19523e-12
-5.48809e-12
-2.19523e-12
4.39047e-12
0
-5.48809e-12
5.48809e-12
-3173.65
-2993.21
-2697.44
-2357.45
-2021.16
-1712.35
-1439.15
-1201.74
-997.136
-821.629
-671.691
-544.255
-436.68
-346.649
-272.066
-210.989
-161.599
-122.194
-91.1915
-67.1512
-48.783
-34.9574
-24.7072
-17.2223
-11.8393
-8.0264
-5.3663
-3.53832
-2.30093
-1.47574
-0.933551
-0.582503
-0.358494
-0.217591
-0.130217
-0.0768015
-0.0446118
-0.0254973
-0.0143211
-0.00789349
-0.00426266
-0.00225158
-0.00116139
-0.000584098
-0.000286031
-0.000136224
-6.30369e-05
-2.83223e-05
-1.2349e-05
-5.22363e-06
-2.1433e-06
-8.53045e-07
-3.29381e-07
-1.23412e-07
-4.4864e-08
-1.58276e-08
-5.43869e-09
-1.81436e-09
-5.6198e-10
-1.69033e-10
-4.60999e-11
-4.39047e-12
3.29285e-12
0
-5.48809e-12
1.09762e-12
0
0
0
-1.09762e-11
-2.19523e-12
4.39047e-12
1.09762e-12
4.39047e-12
3.29285e-12
-2879.82
-2761.61
-2555.13
-2299.52
-2027.51
-1760.56
-1510.46
-1282.53
-1078.46
-898.071
-740.334
-603.852
-487.053
-388.271
-305.774
-237.79
-182.544
-138.293
-103.37
-76.2212
-55.435
-39.7628
-28.1271
-19.6205
-13.4965
-9.15495
-6.12382
-4.03954
-2.62787
-1.68601
-1.06689
-0.66589
-0.409923
-0.248874
-0.148984
-0.0879026
-0.0510843
-0.0292146
-0.0164222
-0.0090608
-0.00489922
-0.00259175
-0.00133921
-0.000674877
-0.000331216
-0.000158121
-7.33561e-05
-3.30464e-05
-1.44484e-05
-6.12882e-06
-2.52186e-06
-1.00656e-06
-3.89762e-07
-1.46462e-07
-5.33991e-08
-1.88768e-08
-6.48692e-09
-2.16999e-09
-7.10159e-10
-2.21719e-10
-5.04904e-11
-6.5857e-12
-1.09762e-12
-1.09762e-12
1.09762e-12
-1.09762e-12
0
0
0
0
0
-4.39047e-12
-1.09762e-12
0
5.48809e-12
-2683.75
-2598.79
-2444.28
-2242.93
-2016.86
-1783.43
-1554.64
-1337.95
-1137.69
-956.083
-794.033
-651.572
-528.131
-422.712
-333.996
-260.447
-200.392
-152.104
-113.876
-84.0824
-61.2239
-43.9593
-31.1227
-21.7266
-14.9551
-10.1503
-6.79314
-4.4831
-2.9176
-1.87257
-1.18533
-0.740034
-0.455694
-0.276741
-0.165717
-0.0978121
-0.0568703
-0.0325441
-0.0183089
-0.0101125
-0.00547513
-0.00290104
-0.00150183
-0.000758436
-0.000373101
-0.00017857
-8.30672e-05
-3.75271e-05
-1.64553e-05
-7.00086e-06
-2.88932e-06
-1.15672e-06
-4.49252e-07
-1.69289e-07
-6.19001e-08
-2.19513e-08
-7.57027e-09
-2.55745e-09
-8.30896e-10
-2.52452e-10
-6.36618e-11
-1.4269e-11
3.29285e-12
0
0
-1.09762e-12
0
-1.20738e-11
0
1.31714e-11
1.09762e-12
-8.78094e-12
-8.78094e-12
4.39047e-12
1.09762e-11
-2549.79
-2483.78
-2360.55
-2194.24
-2000.21
-1792.21
-1581.19
-1375.25
-1180.02
-999.25
-835.188
-688.986
-560.924
-450.608
-357.13
-279.203
-215.288
-163.71
-122.757
-90.7618
-66.1637
-47.5537
-33.6968
-23.5415
-16.2153
-11.0121
-7.37377
-4.86856
-3.16978
-2.03518
-1.28869
-0.804803
-0.495716
-0.30113
-0.180376
-0.106503
-0.061952
-0.0354739
-0.0199734
-0.0110435
-0.00598714
-0.00317745
-0.00164805
-0.000834078
-0.000411296
-0.000197363
-9.20627e-05
-4.17108e-05
-1.83441e-05
-7.82794e-06
-3.24045e-06
-1.3012e-06
-5.06871e-07
-1.91568e-07
-7.02223e-08
-2.49763e-08
-8.64923e-09
-2.93613e-09
-9.68099e-10
-3.07333e-10
-9.21999e-11
-1.86595e-11
0
0
1.09762e-12
6.58571e-12
-1.09762e-12
-6.5857e-12
1.09762e-12
-1.09762e-12
0
1.09762e-12
0
-1.09762e-12
0
-2456.91
-2402.21
-2298.37
-2154.89
-1982.98
-1793.65
-1596.64
-1399.96
-1209.84
-1030.85
-866.18
-717.781
-586.605
-472.767
-375.724
-294.427
-227.48
-173.277
-130.122
-96.3288
-70.2994
-50.5747
-35.8678
-25.0768
-17.2841
-11.7448
-7.86845
-5.19757
-3.38538
-2.1744
-1.3773
-0.860395
-0.530102
-0.322103
-0.192993
-0.11399
-0.0663357
-0.0380057
-0.0214153
-0.0118527
-0.00643404
-0.00341997
-0.00177712
-0.000901298
-0.000445488
-0.000214314
-0.00010024
-4.55435e-05
-2.00875e-05
-8.59704e-06
-3.56928e-06
-1.43743e-06
-5.6154e-07
-2.12809e-07
-7.82492e-08
-2.79267e-08
-9.69855e-09
-3.29395e-09
-1.08884e-09
-3.64409e-10
-9.98832e-11
1.09762e-12
-4.39047e-12
-9.87856e-12
0
1.64643e-11
1.09762e-12
-1.64643e-11
-1.09762e-12
2.19524e-12
5.48809e-12
-2.19524e-12
-5.48809e-12
0
0
-2391.94
-2344.23
-2252.69
-2124.24
-1967.51
-1791.64
-1605.29
-1416.13
-1230.58
-1053.67
-889.164
-739.58
-606.37
-490.056
-390.396
-306.555
-237.273
-181.015
-136.115
-100.883
-73.6984
-53.0676
-37.6655
-26.3521
-18.1744
-12.3566
-8.28245
-5.47347
-3.5665
-2.29155
-1.45196
-0.907287
-0.559134
-0.339826
-0.203663
-0.120327
-0.0700493
-0.0401536
-0.0226412
-0.0125426
-0.00681655
-0.00362854
-0.00188875
-0.000959808
-0.000475453
-0.000229277
-0.00010751
-4.89755e-05
-2.16596e-05
-9.29516e-06
-3.86967e-06
-1.5626e-06
-6.12044e-07
-2.32575e-07
-8.57569e-08
-3.06894e-08
-1.06864e-08
-3.62324e-09
-1.20628e-09
-3.95142e-10
-1.05371e-10
-1.97571e-11
-3.29285e-12
-1.09762e-12
1.09762e-12
1.09762e-12
1.09762e-12
-1.09762e-12
0
0
1.09762e-12
-6.5857e-12
0
5.48809e-12
0
-2346.31
-2303.03
-2219.43
-2100.94
-1954.63
-1788.32
-1609.88
-1426.59
-1244.86
-1069.96
-905.978
-755.837
-621.341
-503.321
-401.776
-316.05
-245
-187.163
-140.905
-104.543
-76.4422
-55.0882
-39.1279
-27.3929
-18.9031
-12.8587
-8.62292
-5.70084
-3.71603
-2.38841
-1.51378
-0.946163
-0.583226
-0.354542
-0.212527
-0.125594
-0.0731381
-0.0419418
-0.0236632
-0.0131192
-0.00713719
-0.00380408
-0.00198316
-0.00100957
-0.000501091
-0.000242159
-0.000113809
-5.19679e-05
-2.30386e-05
-9.91111e-06
-4.13615e-06
-1.67421e-06
-6.57338e-07
-2.50358e-07
-9.25039e-08
-3.3204e-08
-1.15919e-08
-3.93935e-09
-1.30507e-09
-4.17095e-10
-1.09762e-10
-2.41476e-11
-1.31714e-11
0
-9.87856e-12
-2.08547e-11
8.78094e-12
2.19523e-11
0
0
0
0
-2.19524e-12
-3.29285e-12
5.48809e-12
-2314.22
-2273.8
-2195.4
-2083.56
-1944.37
-1784.81
-1612.13
-1433.29
-1254.6
-1081.45
-918.129
-767.796
-632.515
-513.341
-410.461
-323.36
-250.995
-191.965
-144.669
-107.433
-78.6188
-56.6975
-40.2969
-28.2275
-19.4891
-13.2635
-8.89813
-5.88501
-3.83739
-2.46716
-1.56411
-0.977848
-0.602877
-0.366553
-0.219763
-0.129894
-0.0756598
-0.043402
-0.0244984
-0.0135909
-0.00740007
-0.00394843
-0.00206107
-0.00105082
-0.000522446
-0.000252944
-0.000119111
-5.44991e-05
-2.4211e-05
-1.04372e-05
-4.36479e-06
-1.77043e-06
-6.96512e-07
-2.65795e-07
-9.84157e-08
-3.53927e-08
-1.23756e-08
-4.20827e-09
-1.38519e-09
-4.39047e-10
-1.383e-10
-2.74404e-11
0
-1.86595e-11
-4.39047e-12
9.87856e-12
3.29285e-12
3.29285e-12
1.09762e-12
0
-1.09762e-12
0
0
1.09762e-12
-1.09762e-12
-2291.7
-2253.14
-2178.17
-2070.78
-1936.46
-1781.62
-1613.07
-1437.53
-1261.2
-1089.49
-926.809
-776.481
-640.738
-520.798
-416.987
-328.9
-255.571
-195.654
-147.576
-109.676
-80.3163
-57.9577
-41.2156
-28.8855
-19.9525
-13.5844
-9.11685
-6.0317
-3.93423
-2.53011
-1.6044
-1.00324
-0.618636
-0.376188
-0.225568
-0.133342
-0.0776804
-0.0445713
-0.0251668
-0.0139684
-0.00761062
-0.0040642
-0.0021237
-0.00108406
-0.000539716
-0.000261698
-0.00012343
-5.65697e-05
-2.51737e-05
-1.08709e-05
-4.55391e-06
-1.85026e-06
-7.2913e-07
-2.78704e-07
-1.0336e-07
-3.72103e-08
-1.30287e-08
-4.44316e-09
-1.46861e-09
-4.62097e-10
-1.24031e-10
-2.52452e-11
-1.20738e-11
-1.09762e-12
1.31714e-11
2.19523e-12
-2.19523e-12
-1.09762e-12
1.09762e-12
-1.09762e-12
-4.39047e-12
-7.68332e-12
3.29285e-12
1.31714e-11
-3.29285e-12
-2275.94
-2238.62
-2165.91
-2061.51
-1930.51
-1778.94
-1613.33
-1440.18
-1265.62
-1095.05
-932.942
-782.711
-646.71
-526.27
-421.819
-333.033
-259.009
-198.443
-149.786
-111.39
-81.6185
-58.9282
-41.9256
-29.3957
-20.3128
-13.8347
-9.28778
-6.14659
-4.01023
-2.5796
-1.63611
-1.02325
-0.631062
-0.383785
-0.230143
-0.136057
-0.0792693
-0.0454892
-0.0256907
-0.0142639
-0.0077752
-0.00415466
-0.00217265
-0.00111007
-0.000553249
-0.000268572
-0.00012683
-5.82035e-05
-2.59353e-05
-1.12148e-05
-4.70429e-06
-1.91389e-06
-7.55171e-07
-2.89035e-07
-1.07336e-07
-3.86735e-08
-1.35413e-08
-4.59024e-09
-1.51032e-09
-5.03806e-10
-1.52569e-10
-2.52452e-11
1.09762e-12
0
4.39047e-12
0
-4.39047e-12
-1.09762e-12
0
-4.39047e-12
4.39047e-12
5.48809e-12
-4.39047e-12
1.09762e-12
-1.09762e-12
-2264.98
-2228.47
-2157.27
-2054.87
-1926.12
-1776.81
-1613.26
-1441.83
-1268.57
-1098.87
-937.23
-787.128
-650.992
-530.232
-425.346
-336.072
-261.554
-200.518
-151.439
-112.678
-82.6014
-59.6636
-42.4654
-29.7849
-20.5885
-14.0266
-9.41921
-6.23512
-4.06891
-2.61787
-1.66067
-1.03876
-0.640698
-0.389676
-0.233687
-0.138157
-0.0804954
-0.0461956
-0.0260926
-0.0144898
-0.0079007
-0.00422346
-0.00220982
-0.0011298
-0.000563509
-0.000273785
-0.00012941
-5.94448e-05
-2.65147e-05
-1.14769e-05
-4.8191e-06
-1.96254e-06
-7.75103e-07
-2.96934e-07
-1.10352e-07
-3.97974e-08
-1.39441e-08
-4.70988e-09
-1.53776e-09
-5.08197e-10
-1.72326e-10
-3.7319e-11
4.39047e-12
8.78094e-12
0
-8.78094e-12
0
-4.39047e-12
0
-6.58571e-12
-1.09762e-12
9.87856e-12
9.87856e-12
1.09762e-12
-8.78094e-12
-2257.4
-2221.42
-2151.23
-2050.17
-1922.94
-1775.18
-1613.05
-1442.84
-1270.52
-1101.47
-940.198
-790.224
-654.025
-533.062
-427.885
-338.274
-263.408
-202.04
-152.657
-113.631
-83.3317
-60.2119
-42.8693
-30.077
-20.7959
-14.1714
-9.51862
-6.30224
-4.11348
-2.64699
-1.67939
-1.05058
-0.648048
-0.394167
-0.236386
-0.139752
-0.0814242
-0.0467286
-0.0263944
-0.0146586
-0.00799403
-0.00427439
-0.00223722
-0.0011443
-0.00057103
-0.0002776
-0.000131296
-6.03519e-05
-2.69382e-05
-1.16685e-05
-4.90305e-06
-1.99815e-06
-7.89723e-07
-3.02726e-07
-1.12593e-07
-4.06338e-08
-1.42152e-08
-4.80537e-09
-1.58386e-09
-5.25759e-10
-1.72326e-10
-4.50023e-11
-2.19523e-12
4.39047e-12
2.19523e-12
-5.48809e-12
-2.19523e-12
0
2.19523e-12
-6.5857e-12
-4.39047e-12
6.5857e-12
4.39047e-12
8.78094e-12
-7.68332e-12
-2252.19
-2216.57
-2147.04
-2046.88
-1920.67
-1773.96
-1612.82
-1443.45
-1271.8
-1103.22
-942.231
-792.37
-656.146
-535.057
-429.688
-339.848
-264.742
-203.139
-153.541
-114.326
-83.8659
-60.6145
-43.1668
-30.2927
-20.9496
-14.279
-9.59264
-6.35232
-4.14681
-2.66879
-1.69342
-1.05946
-0.653563
-0.397534
-0.238406
-0.140943
-0.0821149
-0.047123
-0.0266165
-0.014782
-0.00806176
-0.0043111
-0.00225684
-0.00115462
-0.00057636
-0.000280293
-0.000132624
-6.09894e-05
-2.72353e-05
-1.18029e-05
-4.96189e-06
-2.02307e-06
-7.99963e-07
-3.06823e-07
-1.14156e-07
-4.12013e-08
-1.44501e-08
-4.91074e-09
-1.61679e-09
-5.25759e-10
-1.70131e-10
-3.7319e-11
-3.29285e-12
0
0
0
-1.09762e-12
0
1.09762e-12
-1.4269e-11
4.39047e-12
9.87856e-12
-3.29285e-12
4.39047e-12
-1.09762e-12
-2248.65
-2213.26
-2144.17
-2044.6
-1919.08
-1773.07
-1612.6
-1443.82
-1272.64
-1104.39
-943.61
-793.84
-657.612
-536.446
-430.951
-340.957
-265.686
-203.921
-154.173
-114.824
-84.2508
-60.9055
-43.3825
-30.4497
-21.0617
-14.3577
-9.6469
-6.3891
-4.17133
-2.68486
-1.70377
-1.06601
-0.657633
-0.400017
-0.239892
-0.141817
-0.0826193
-0.0474093
-0.0267766
-0.0148703
-0.00810976
-0.00433689
-0.00227051
-0.00116175
-0.000580016
-0.000282129
-0.000133526
-6.14203e-05
-2.74357e-05
-1.18933e-05
-5.00142e-06
-2.03982e-06
-8.06836e-07
-3.09545e-07
-1.15189e-07
-4.16041e-08
-1.46016e-08
-4.95465e-09
-1.63765e-09
-5.37833e-10
-1.81107e-10
-4.50023e-11
3.29285e-12
0
1.09762e-12
8.78094e-12
0
-9.87856e-12
0
0
9.87856e-12
3.29285e-12
-1.4269e-11
-2.19523e-12
3.29285e-12
-2246.26
-2211.02
-2142.22
-2043.04
-1917.97
-1772.44
-1612.42
-1444.04
-1273.18
-1105.17
-944.535
-794.837
-658.613
-537.402
-431.825
-341.728
-266.346
-204.47
-154.618
-115.177
-84.524
-61.1127
-43.5366
-30.5621
-21.1422
-14.4143
-9.68604
-6.4157
-4.18909
-2.69652
-1.71128
-1.07077
-0.66059
-0.401818
-0.240968
-0.142446
-0.082981
-0.0476133
-0.0268897
-0.0149321
-0.00814303
-0.00435456
-0.00227977
-0.00116653
-0.000582445
-0.00028334
-0.000134116
-6.17009e-05
-2.75656e-05
-1.19517e-05
-5.02689e-06
-2.05059e-06
-8.11225e-07
-3.11278e-07
-1.15861e-07
-4.18576e-08
-1.46894e-08
-5.01172e-09
-1.68155e-09
-5.6198e-10
-1.844e-10
-3.07333e-11
7.68332e-12
-8.78094e-12
-1.09762e-11
9.87856e-12
9.87856e-12
5.48809e-12
-1.09762e-12
-4.39047e-12
0
-1.09762e-12
0
0
1.09762e-12
-2244.66
-2209.53
-2140.91
-2041.99
-1917.22
-1772
-1612.28
-1444.16
-1273.52
-1105.68
-945.149
-795.504
-659.289
-538.05
-432.421
-342.258
-266.801
-204.85
-154.927
-115.423
-84.715
-61.2581
-43.6451
-30.6414
-21.1992
-14.4545
-9.71387
-6.43465
-4.20177
-2.70485
-1.71666
-1.07417
-0.662702
-0.403103
-0.241733
-0.142893
-0.083236
-0.0477561
-0.0269682
-0.0149745
-0.0081656
-0.0043664
-0.00228589
-0.00116966
-0.000584013
-0.000284113
-0.000134489
-6.18771e-05
-2.76467e-05
-1.1988e-05
-5.04266e-06
-2.05725e-06
-8.1396e-07
-3.12351e-07
-1.16261e-07
-4.19992e-08
-1.47476e-08
-5.03477e-09
-1.68045e-09
-5.65273e-10
-1.96474e-10
-4.71976e-11
1.20738e-11
0
-2.19523e-12
0
1.09762e-12
-1.09762e-12
0
-2.19524e-12
-2.19523e-12
6.58571e-12
-3.29285e-12
-7.68332e-12
8.78094e-12
-2243.61
-2208.53
-2140.04
-2041.28
-1916.71
-1771.69
-1612.17
-1444.23
-1273.74
-1106.01
-945.553
-795.947
-659.74
-538.485
-432.823
-342.616
-267.11
-205.109
-155.139
-115.592
-84.8467
-61.3586
-43.7202
-30.6965
-21.2388
-14.4825
-9.73334
-6.44793
-4.21067
-2.71071
-1.72044
-1.07657
-0.664188
-0.404005
-0.242269
-0.143204
-0.0834126
-0.0478543
-0.0270216
-0.015003
-0.00818061
-0.00437416
-0.00228985
-0.00117165
-0.000584998
-0.000284592
-0.000134718
-6.19841e-05
-2.76955e-05
-1.20097e-05
-5.05206e-06
-2.06121e-06
-8.15581e-07
-3.12982e-07
-1.1652e-07
-4.20936e-08
-1.47673e-08
-5.03587e-09
-1.68045e-09
-5.64175e-10
-1.78912e-10
-4.39047e-11
-1.86595e-11
0
1.64643e-11
0
1.09762e-12
0
0
-1.31714e-11
0
1.20738e-11
-3.29285e-12
1.09762e-12
2.19524e-12
-2242.91
-2207.88
-2139.46
-2040.81
-1916.37
-1771.48
-1612.09
-1444.27
-1273.88
-1106.22
-945.815
-796.237
-660.037
-538.774
-433.091
-342.855
-267.317
-205.284
-155.282
-115.706
-84.9361
-61.4271
-43.7715
-30.7342
-21.2661
-14.5018
-9.74677
-6.45711
-4.21683
-2.71477
-1.72307
-1.07823
-0.665217
-0.404629
-0.242638
-0.143417
-0.083533
-0.0479206
-0.0270574
-0.015022
-0.00819041
-0.00437916
-0.00229236
-0.00117289
-0.000585602
-0.000284882
-0.000134854
-6.20471e-05
-2.77239e-05
-1.20223e-05
-5.05746e-06
-2.06346e-06
-8.165e-07
-3.13358e-07
-1.16666e-07
-4.21364e-08
-1.47827e-08
-5.04465e-09
-1.67716e-09
-5.49906e-10
-1.74521e-10
-4.39047e-11
0
-1.09762e-12
-4.39047e-12
1.20738e-11
4.39047e-12
-1.09762e-11
-2.19523e-12
-1.09762e-12
2.19523e-12
0
0
-1.09762e-11
1.20738e-11
-2242.46
-2207.46
-2139.09
-2040.51
-1916.14
-1771.35
-1612.04
-1444.29
-1273.96
-1106.35
-945.984
-796.424
-660.231
-538.962
-433.267
-343.013
-267.454
-205.399
-155.377
-115.783
-84.996
-61.473
-43.8061
-30.7597
-21.2845
-14.5149
-9.75589
-6.46336
-4.22104
-2.71755
-1.72486
-1.07936
-0.665919
-0.405053
-0.242888
-0.143561
-0.0836136
-0.0479648
-0.027081
-0.0150343
-0.00819671
-0.00438232
-0.00229392
-0.00117365
-0.000585965
-0.000285053
-0.000134934
-6.20832e-05
-2.774e-05
-1.20293e-05
-5.06048e-06
-2.0647e-06
-8.17004e-07
-3.13573e-07
-1.1672e-07
-4.21452e-08
-1.47827e-08
-5.03697e-09
-1.68265e-09
-5.40028e-10
-1.75619e-10
-5.92713e-11
-3.29285e-12
0
1.75619e-11
0
-1.4269e-11
0
1.09762e-12
-5.48809e-12
-2.19523e-12
6.58571e-12
-1.09762e-12
-1.09762e-12
2.19524e-12
-2242.18
-2207.19
-2138.85
-2040.31
-1916
-1771.25
-1612
-1444.31
-1274.02
-1106.44
-946.092
-796.545
-660.355
-539.084
-433.381
-343.116
-267.544
-205.475
-155.44
-115.833
-85.0356
-61.5034
-43.8289
-30.7766
-21.2968
-14.5236
-9.762
-6.46756
-4.22386
-2.71941
-1.72607
-1.08012
-0.666391
-0.405337
-0.243055
-0.143657
-0.0836669
-0.0479937
-0.0270963
-0.0150422
-0.00820069
-0.00438429
-0.00229487
-0.0011741
-0.000586179
-0.000285152
-0.000134979
-6.21034e-05
-2.77489e-05
-1.20331e-05
-5.0621e-06
-2.06537e-06
-8.17255e-07
-3.13662e-07
-1.16755e-07
-4.21562e-08
-1.48003e-08
-5.04685e-09
-1.68375e-09
-5.37833e-10
-1.60252e-10
-4.82952e-11
-2.19524e-12
4.39047e-12
-4.39047e-12
-2.19524e-12
0
0
0
0
0
0
1.09762e-12
1.09762e-12
-2.19524e-12
-2241.99
-2207.02
-2138.7
-2040.19
-1915.9
-1771.2
-1611.98
-1444.31
-1274.05
-1106.49
-946.16
-796.621
-660.434
-539.162
-433.454
-343.182
-267.602
-205.524
-155.48
-115.866
-85.0613
-61.5232
-43.8439
-30.7877
-21.3048
-14.5293
-9.76602
-6.47033
-4.22573
-2.72065
-1.72687
-1.08063
-0.666704
-0.405526
-0.243165
-0.143719
-0.0837016
-0.0480124
-0.0271061
-0.0150472
-0.00820318
-0.0043855
-0.00229545
-0.00117437
-0.000586304
-0.000285208
-0.000135004
-6.21145e-05
-2.77537e-05
-1.20352e-05
-5.06294e-06
-2.06572e-06
-8.17391e-07
-3.13707e-07
-1.16794e-07
-4.21705e-08
-1.47761e-08
-5.04685e-09
-1.67387e-09
-5.42223e-10
-1.83302e-10
-4.82952e-11
-2.19523e-12
-2.19523e-12
-2.19523e-12
4.39047e-12
1.09762e-12
-3.29285e-12
0
0
2.19523e-12
0
-2.19523e-12
-5.48809e-12
5.48809e-12
-2241.88
-2206.91
-2138.6
-2040.11
-1915.84
-1771.16
-1611.96
-1444.32
-1274.07
-1106.53
-946.202
-796.669
-660.484
-539.211
-433.5
-343.224
-267.638
-205.556
-155.506
-115.887
-85.0777
-61.5359
-43.8535
-30.7948
-21.31
-14.5331
-9.76863
-6.47213
-4.22695
-2.72146
-1.72739
-1.08096
-0.666909
-0.405648
-0.243237
-0.14376
-0.0837239
-0.0480243
-0.0271122
-0.0150503
-0.00820471
-0.00438624
-0.0022958
-0.00117453
-0.000586375
-0.00028524
-0.000135018
-6.21204e-05
-2.77563e-05
-1.20362e-05
-5.06337e-06
-2.06588e-06
-8.17468e-07
-3.13736e-07
-1.16795e-07
-4.21781e-08
-1.47794e-08
-5.03477e-09
-1.67935e-09
-5.43321e-10
-1.86595e-10
-5.59785e-11
-5.48809e-12
-1.09762e-12
5.48809e-12
1.09762e-12
0
2.19523e-12
-1.09762e-12
-6.58571e-12
0
2.19524e-12
-1.4269e-11
4.39047e-12
1.31714e-11
-2241.81
-2206.84
-2138.54
-2040.06
-1915.81
-1771.13
-1611.95
-1444.32
-1274.08
-1106.55
-946.228
-796.698
-660.515
-539.242
-433.529
-343.25
-267.661
-205.575
-155.522
-115.9
-85.0881
-61.5439
-43.8596
-30.7993
-21.3133
-14.5354
-9.7703
-6.47328
-4.22774
-2.72198
-1.72773
-1.08118
-0.667041
-0.405727
-0.243283
-0.143786
-0.0837381
-0.0480318
-0.0271161
-0.0150522
-0.00820565
-0.00438668
-0.002296
-0.00117462
-0.000586416
-0.000285258
-0.000135025
-6.21236e-05
-2.77576e-05
-1.20368e-05
-5.06359e-06
-2.06597e-06
-8.17506e-07
-3.13753e-07
-1.16802e-07
-4.21836e-08
-1.47816e-08
-5.02489e-09
-1.67387e-09
-5.40028e-10
-1.74521e-10
-5.92713e-11
-2.08547e-11
4.39047e-12
1.86595e-11
0
-1.09762e-12
1.09762e-12
0
0
0
0
0
8.78094e-12
-8.78094e-12
-2241.76
-2206.8
-2138.51
-2040.03
-1915.78
-1771.12
-1611.94
-1444.32
-1274.09
-1106.56
-946.244
-796.716
-660.534
-539.261
-433.547
-343.266
-267.676
-205.587
-155.533
-115.908
-85.0946
-61.5489
-43.8634
-30.8021
-21.3153
-14.5369
-9.77135
-6.47401
-4.22823
-2.72231
-1.72795
-1.08131
-0.667125
-0.405777
-0.243312
-0.143802
-0.0837469
-0.0480364
-0.0271185
-0.0150534
-0.00820621
-0.00438694
-0.00229612
-0.00117468
-0.000586439
-0.000285268
-0.000135029
-6.21253e-05
-2.77583e-05
-1.20371e-05
-5.06369e-06
-2.066e-06
-8.1751e-07
-3.13756e-07
-1.16818e-07
-4.21902e-08
-1.47926e-08
-5.03587e-09
-1.66838e-09
-5.40028e-10
-1.58057e-10
-4.17095e-11
-1.09762e-11
1.09762e-12
-3.29285e-12
0
3.29285e-12
9.87856e-12
3.29285e-12
-8.78094e-12
-2.41476e-11
-1.09762e-12
1.64643e-11
2.19523e-12
2.19523e-12
-2241.74
-2206.77
-2138.48
-2040.01
-1915.77
-1771.11
-1611.94
-1444.32
-1274.09
-1106.57
-946.254
-796.727
-660.546
-539.272
-433.558
-343.276
-267.684
-205.595
-155.539
-115.913
-85.0985
-61.552
-43.8657
-30.8039
-21.3166
-14.5378
-9.77199
-6.47446
-4.22854
-2.72251
-1.72808
-1.0814
-0.667177
-0.405809
-0.24333
-0.143812
-0.0837524
-0.0480393
-0.0271199
-0.0150541
-0.00820655
-0.0043871
-0.00229619
-0.00117471
-0.000586452
-0.000285273
-0.000135032
-6.21262e-05
-2.77586e-05
-1.20372e-05
-5.06377e-06
-2.06603e-06
-8.17525e-07
-3.13769e-07
-1.16806e-07
-4.21825e-08
-1.48003e-08
-5.03697e-09
-1.67057e-09
-5.45516e-10
-1.45983e-10
-3.18309e-11
-7.68332e-12
0
0
0
9.87856e-12
2.19523e-12
-9.87856e-12
-6.58571e-12
-1.09762e-12
5.48809e-12
0
0
0
-2241.72
-2206.76
-2138.47
-2040
-1915.76
-1771.11
-1611.94
-1444.32
-1274.09
-1106.57
-946.259
-796.734
-660.553
-539.279
-433.564
-343.282
-267.69
-205.599
-155.542
-115.916
-85.1009
-61.5538
-43.8671
-30.8049
-21.3174
-14.5384
-9.77238
-6.47473
-4.22872
-2.72264
-1.72816
-1.08145
-0.667209
-0.405828
-0.243341
-0.143818
-0.0837557
-0.048041
-0.0271208
-0.0150545
-0.00820675
-0.00438719
-0.00229623
-0.00117472
-0.000586459
-0.000285276
-0.000135033
-6.21267e-05
-2.77588e-05
-1.20373e-05
-5.06379e-06
-2.06606e-06
-8.17512e-07
-3.13732e-07
-1.16792e-07
-4.21935e-08
-1.48222e-08
-5.05124e-09
-1.6563e-09
-5.48809e-10
-1.6135e-10
-1.97571e-11
4.39047e-12
3.29285e-12
0
0
1.09762e-12
-1.09762e-12
7.68332e-12
1.09762e-12
-4.39047e-12
0
-2.19524e-12
0
-2.19524e-12
-2241.71
-2206.75
-2138.46
-2039.99
-1915.76
-1771.1
-1611.94
-1444.32
-1274.1
-1106.57
-946.263
-796.738
-660.557
-539.283
-433.568
-343.286
-267.693
-205.602
-155.545
-115.918
-85.1023
-61.5549
-43.8679
-30.8055
-21.3178
-14.5387
-9.77261
-6.47489
-4.22883
-2.72271
-1.72821
-1.08148
-0.667228
-0.405839
-0.243348
-0.143822
-0.0837577
-0.0480421
-0.0271213
-0.0150548
-0.00820687
-0.00438724
-0.00229625
-0.00117473
-0.000586463
-0.000285278
-0.000135034
-6.21269e-05
-2.77589e-05
-1.20373e-05
-5.06381e-06
-2.06605e-06
-8.17496e-07
-3.13736e-07
-1.16803e-07
-4.21924e-08
-1.48288e-08
-5.06441e-09
-1.66618e-09
-5.36735e-10
-1.37202e-10
-1.4269e-11
-2.19523e-12
0
-7.68332e-12
0
1.4269e-11
0
-4.39047e-12
-7.68332e-12
-1.09762e-12
-1.09762e-12
0
1.64643e-11
-6.5857e-12
-2241.71
-2206.74
-2138.46
-2039.99
-1915.75
-1771.1
-1611.93
-1444.32
-1274.1
-1106.57
-946.265
-796.74
-660.559
-539.285
-433.57
-343.288
-267.695
-205.603
-155.546
-115.919
-85.1031
-61.5555
-43.8683
-30.8058
-21.3181
-14.5389
-9.77274
-6.47498
-4.2289
-2.72276
-1.72824
-1.0815
-0.66724
-0.405846
-0.243352
-0.143824
-0.0837589
-0.0480427
-0.0271216
-0.0150549
-0.00820693
-0.00438727
-0.00229627
-0.00117474
-0.000586465
-0.000285279
-0.000135034
-6.21271e-05
-2.77589e-05
-1.20373e-05
-5.06377e-06
-2.06603e-06
-8.17512e-07
-3.13744e-07
-1.16801e-07
-4.21858e-08
-1.48277e-08
-5.06331e-09
-1.66399e-09
-5.37833e-10
-1.52569e-10
-1.97571e-11
-5.48809e-12
-1.09762e-12
6.5857e-12
0
1.09762e-12
0
-1.09762e-12
-1.31714e-11
0
6.58571e-12
-4.39047e-12
6.5857e-12
4.39047e-12
-2241.7
-2206.74
-2138.45
-2039.99
-1915.75
-1771.1
-1611.93
-1444.32
-1274.1
-1106.57
-946.266
-796.742
-660.561
-539.287
-433.572
-343.289
-267.696
-205.604
-155.547
-115.919
-85.1035
-61.5558
-43.8686
-30.806
-21.3182
-14.539
-9.77281
-6.47503
-4.22894
-2.72278
-1.72826
-1.08151
-0.667246
-0.40585
-0.243354
-0.143825
-0.0837596
-0.048043
-0.0271218
-0.015055
-0.00820697
-0.00438729
-0.00229627
-0.00117474
-0.000586467
-0.000285279
-0.000135034
-6.21271e-05
-2.77589e-05
-1.20373e-05
-5.06379e-06
-2.06605e-06
-8.17533e-07
-3.1375e-07
-1.16797e-07
-4.22034e-08
-1.48156e-08
-5.02819e-09
-1.65082e-09
-5.35637e-10
-1.55862e-10
-4.17095e-11
-7.68332e-12
-1.09762e-12
1.09762e-12
-3.29285e-12
4.39047e-12
4.39047e-12
1.09762e-12
-2.19524e-12
-5.48809e-12
1.09762e-12
1.09762e-12
-1.09762e-12
0
-2241.7
-2206.74
-2138.45
-2039.99
-1915.75
-1771.1
-1611.93
-1444.32
-1274.1
-1106.58
-946.267
-796.742
-660.562
-539.288
-433.572
-343.29
-267.696
-205.605
-155.547
-115.92
-85.1038
-61.556
-43.8688
-30.8061
-21.3183
-14.539
-9.77286
-6.47506
-4.22896
-2.72279
-1.72826
-1.08152
-0.66725
-0.405852
-0.243355
-0.143826
-0.0837599
-0.0480432
-0.0271219
-0.015055
-0.00820699
-0.0043873
-0.00229628
-0.00117474
-0.000586467
-0.000285279
-0.000135034
-6.21272e-05
-2.7759e-05
-1.20373e-05
-5.06377e-06
-2.06604e-06
-8.17527e-07
-3.13762e-07
-1.16829e-07
-4.22122e-08
-1.47926e-08
-5.02819e-09
-1.66838e-09
-5.36735e-10
-1.59155e-10
-4.06118e-11
-5.48809e-12
-2.19523e-12
7.68332e-12
4.39047e-12
1.31714e-11
0
-1.31714e-11
8.78094e-12
1.31714e-11
-1.09762e-11
-1.09762e-11
-1.09762e-12
1.09762e-12
-2241.7
-2206.74
-2138.45
-2039.99
-1915.75
-1771.1
-1611.93
-1444.32
-1274.1
-1106.58
-946.267
-796.743
-660.562
-539.288
-433.573
-343.29
-267.697
-205.605
-155.547
-115.92
-85.1039
-61.5561
-43.8688
-30.8062
-21.3183
-14.5391
-9.77288
-6.47508
-4.22897
-2.7228
-1.72827
-1.08152
-0.667252
-0.405853
-0.243356
-0.143827
-0.0837601
-0.0480433
-0.0271219
-0.0150551
-0.008207
-0.0043873
-0.00229628
-0.00117474
-0.000586468
-0.000285279
-0.000135034
-6.21272e-05
-2.7759e-05
-1.20373e-05
-5.06377e-06
-2.06603e-06
-8.1752e-07
-3.13776e-07
-1.1683e-07
-4.22045e-08
-1.48069e-08
-5.04136e-09
-1.67716e-09
-5.46614e-10
-1.54764e-10
-3.29285e-11
-8.78094e-12
-3.29285e-12
0
4.39047e-12
0
-1.09762e-12
-8.78094e-12
-6.58571e-12
1.53666e-11
5.48809e-12
-8.78094e-12
0
3.29285e-12
-2241.7
-2206.74
-2138.45
-2039.99
-1915.75
-1771.1
-1611.93
-1444.32
-1274.1
-1106.58
-946.267
-796.743
-660.562
-539.288
-433.573
-343.29
-267.697
-205.605
-155.547
-115.92
-85.104
-61.5562
-43.8689
-30.8062
-21.3183
-14.5391
-9.77289
-6.47509
-4.22897
-2.72281
-1.72827
-1.08152
-0.667253
-0.405854
-0.243356
-0.143827
-0.0837602
-0.0480434
-0.027122
-0.0150551
-0.00820701
-0.0043873
-0.00229628
-0.00117474
-0.000586468
-0.000285279
-0.000135034
-6.21272e-05
-2.7759e-05
-1.20373e-05
-5.06375e-06
-2.06604e-06
-8.17543e-07
-3.13806e-07
-1.16844e-07
-4.21825e-08
-1.47904e-08
-5.03697e-09
-1.67935e-09
-5.58687e-10
-1.67935e-10
-3.51238e-11
2.19524e-12
0
0
0
0
1.09762e-12
-1.09762e-12
-7.68332e-12
1.09762e-12
7.68332e-12
-8.78094e-12
0
7.68332e-12
-2241.7
-2206.74
-2138.45
-2039.99
-1915.75
-1771.1
-1611.93
-1444.32
-1274.1
-1106.58
-946.267
-796.743
-660.562
-539.288
-433.573
-343.29
-267.697
-205.605
-155.547
-115.92
-85.104
-61.5562
-43.8689
-30.8062
-21.3184
-14.5391
-9.77289
-6.47509
-4.22897
-2.72281
-1.72827
-1.08152
-0.667253
-0.405854
-0.243356
-0.143827
-0.0837603
-0.0480434
-0.027122
-0.0150551
-0.00820701
-0.00438731
-0.00229628
-0.00117474
-0.000586468
-0.00028528
-0.000135034
-6.21272e-05
-2.7759e-05
-1.20373e-05
-5.06377e-06
-2.06605e-06
-8.17555e-07
-3.13799e-07
-1.16849e-07
-4.21891e-08
-1.47717e-08
-5.0216e-09
-1.67496e-09
-5.66371e-10
-1.76716e-10
-2.96357e-11
2.19523e-12