/*--------------------------------*- C++ -*----------------------------------*\
  =========                 |
  \\      /  F ield         | OpenFOAM: The Open Source CFD Toolbox
   \\    /   O peration     | Website:  https://openfoam.org
    \\  /    A nd           | Version:  10
     \\/     M anipulation  |
\*---------------------------------------------------------------------------*/
FoamFile
{
    format      ascii;
    class       volScalarField;
    location    "91";
    object      gradTx;
}
// * * * * * * * * * * * * * * * * * * * * * * * * * * * * * * * * * * * * * //

dimensions      [0 -1 0 1 0 0 0];

internalField   nonuniform List<scalar> 
11250
(
14236.2
7915.99
5006.64
3422.03
2439.63
1774.81
1300.13
951.083
691.044
496.902
352.706
246.686
169.783
114.879
76.3604
49.8365
31.9234
20.0647
12.3718
7.48268
4.43892
2.58276
1.47396
0.825087
0.453067
0.24407
0.129004
0.0669094
0.0340585
0.0170171
0.00834708
0.00402019
0.0019015
0.000883403
0.000403194
0.000180817
7.96924e-05
3.45243e-05
1.47043e-05
6.15823e-06
2.53652e-06
1.02774e-06
4.09656e-07
1.60669e-07
6.19956e-08
2.35648e-08
8.81606e-09
3.24675e-09
1.18872e-09
4.2368e-10
1.47081e-10
2.74404e-11
1.4269e-11
0
1.09762e-12
0
1.09762e-12
-2.19524e-12
0
2.19524e-12
0
1.09762e-12
0
-2.19524e-11
9.87856e-12
-1.09762e-12
-1.09762e-12
0
1.09762e-12
0
-5.48809e-12
0
-7.68332e-12
0
-9.87856e-12
4033.03
4517.73
3701.88
2845.76
2152.26
1617.29
1207.69
894.279
655.093
473.754
337.678
236.915
163.45
110.803
73.7629
48.2006
30.9069
19.4423
11.9966
7.26019
4.3092
2.50842
1.4321
0.801942
0.440495
0.237363
0.12549
0.0651015
0.033145
0.0165637
0.00812607
0.00391436
0.00185171
0.000860386
0.000392738
0.000176149
7.76432e-05
3.364e-05
1.43291e-05
6.00165e-06
2.47224e-06
1.00177e-06
3.99355e-07
1.56652e-07
6.04798e-08
2.29786e-08
8.58556e-09
3.16443e-09
1.14372e-09
4.01728e-10
1.08664e-10
2.96357e-11
-8.78094e-12
8.78094e-12
-1.31714e-11
-6.5857e-12
-1.4269e-11
0
-4.39047e-12
0
0
-1.09762e-12
0
2.41476e-11
5.48809e-12
0
-1.09762e-12
1.09762e-12
-1.09762e-12
0
-8.78094e-12
0
8.78094e-12
2.19523e-12
0
1415.42
2432.33
2456.88
2132.21
1735.81
1366.19
1051.47
794.669
590.511
431.486
309.922
218.717
151.584
103.131
68.8553
45.1009
28.9763
18.2579
11.2815
6.83559
4.06135
2.36626
1.35199
0.757602
0.416392
0.224497
0.118746
0.0616296
0.0313897
0.0156922
0.00770104
0.00371073
0.00175587
0.000816064
0.000372594
0.000167151
7.36925e-05
3.19345e-05
1.36051e-05
5.6994e-06
2.34813e-06
9.51606e-07
3.79433e-07
1.48878e-07
5.74998e-08
2.18525e-08
8.17396e-09
3.01516e-09
1.08335e-09
3.72092e-10
1.24031e-10
4.17095e-11
1.97571e-11
8.78094e-12
0
-2.19523e-12
0
4.39047e-12
0
-2.19524e-12
0
0
0
-1.4269e-11
-1.09762e-11
2.19524e-12
3.29285e-12
2.19523e-12
0
0
3.29285e-12
8.78094e-12
0
-1.09762e-12
8.78094e-12
615.723
1351
1579.65
1514.47
1320.66
1090.46
868.179
672.325
508.609
376.646
273.31
194.416
135.59
92.7148
62.1551
40.8498
26.3191
16.6229
10.292
6.24678
3.71705
2.16847
1.2404
0.695765
0.382746
0.20652
0.109315
0.0567713
0.028932
0.0144712
0.00710524
0.00342516
0.0016214
0.000753849
0.000344309
0.000154512
6.81408e-05
2.95371e-05
1.25871e-05
5.27427e-06
2.17349e-06
8.81013e-07
3.51357e-07
1.37891e-07
5.32597e-08
2.02357e-08
7.58015e-09
2.78136e-09
9.94441e-10
3.36969e-10
1.28421e-10
3.62214e-11
-1.09762e-12
-8.78094e-12
1.31714e-11
5.48809e-12
1.4269e-11
-4.39047e-12
5.48809e-12
6.58571e-12
0
-2.19523e-12
0
-1.09762e-12
-4.39047e-12
3.29285e-12
0
1.09762e-12
0
2.19524e-12
5.48809e-12
0
-1.09762e-12
-1.09762e-12
-5.48809e-12
315.909
787.176
1013.48
1047.76
967.966
834.957
687.098
545.63
420.793
316.303
232.228
166.739
117.163
80.6051
54.3093
35.843
23.1745
14.6805
9.11255
5.54307
3.3046
1.93107
1.10621
0.6213
0.342175
0.184819
0.0979183
0.0508949
0.0259568
0.012992
0.00638295
0.00307874
0.00145818
0.000678296
0.000309941
0.000139148
6.13894e-05
2.66203e-05
1.13481e-05
4.75665e-06
1.96079e-06
7.95026e-07
3.17153e-07
1.24486e-07
4.80844e-08
1.82622e-08
6.8195e-09
2.50367e-09
9.13218e-10
3.29285e-10
1.16347e-10
3.84166e-11
-8.78094e-12
-9.87856e-12
0
5.48809e-12
1.09762e-12
-8.78094e-12
-5.48809e-12
0
0
0
0
1.86595e-11
0
-1.09762e-12
-1.09762e-12
-3.29285e-12
0
-1.09762e-12
-9.87856e-12
-1.20738e-11
-7.68332e-12
-1.09762e-12
-1.09762e-12
180.015
478.166
654.949
715.411
692.107
619.798
525.591
427.494
336.048
256.502
190.665
138.281
97.9704
67.8624
45.9846
30.4945
19.7967
12.5843
7.83473
4.77813
2.855
1.67164
0.959275
0.539608
0.297595
0.160939
0.0853614
0.0444128
0.0226716
0.0113571
0.00558399
0.00269526
0.00127738
0.000594546
0.000271823
0.000122098
5.38931e-05
2.33803e-05
9.97107e-06
4.18112e-06
1.72418e-06
6.99354e-07
2.79059e-07
1.09552e-07
4.23197e-08
1.60944e-08
6.00507e-09
2.19743e-09
7.80406e-10
2.79892e-10
9.43951e-11
3.95142e-11
7.68332e-12
-2.19524e-12
-1.09762e-12
0
-1.09762e-12
2.19524e-12
1.09762e-12
-6.58571e-12
1.09762e-12
2.19523e-12
1.09762e-12
0
-1.09762e-12
-4.39047e-12
0
0
0
-2.19524e-12
4.39047e-12
1.09762e-12
-4.39047e-12
0
0
108.976
299.238
426.558
484.783
486.146
449.092
390.94
324.985
260.12
201.531
151.666
111.133
79.4151
55.4079
37.7751
25.1809
16.42
10.4779
6.54507
4.00319
2.39806
1.40725
0.809155
0.455969
0.251866
0.136402
0.0724401
0.0377338
0.0192826
0.00966871
0.00475807
0.00229847
0.00109015
0.000507754
0.000232292
0.000104404
4.61093e-05
2.0014e-05
8.53969e-06
3.58259e-06
1.47802e-06
5.99784e-07
2.39416e-07
9.40055e-08
3.63092e-08
1.38157e-08
5.16868e-09
1.88022e-09
6.56375e-10
2.25012e-10
7.68332e-11
2.74404e-11
1.09762e-11
-1.09762e-12
0
-9.87856e-12
-1.09762e-12
-7.68332e-12
4.39047e-12
-4.39047e-12
0
-2.19523e-12
1.09762e-12
-5.48809e-12
2.19523e-12
2.19524e-12
0
0
-1.20738e-11
1.09762e-12
1.31714e-11
2.19524e-12
0
-7.68332e-12
0
68.1985
190.774
279.189
326.512
336.641
318.953
283.92
240.62
195.798
153.841
117.164
86.7233
62.5079
43.9334
30.1415
20.2016
13.2351
8.48012
5.31606
3.26169
1.95928
1.15258
0.66417
0.374998
0.207503
0.112554
0.0598604
0.0312216
0.0159736
0.00801822
0.00394977
0.00190976
0.000906553
0.000422575
0.000193465
8.70127e-05
3.84531e-05
1.67008e-05
7.13002e-06
2.99279e-06
1.23533e-06
5.01527e-07
2.00304e-07
7.86959e-08
3.04029e-08
1.15513e-08
4.31693e-09
1.60252e-09
5.70761e-10
1.844e-10
7.79308e-11
1.97571e-11
2.19523e-11
3.29285e-12
1.09762e-12
4.39047e-12
2.305e-11
3.29285e-12
-3.29285e-12
0
0
0
-3.29285e-12
0
0
0
7.68332e-12
-1.09762e-12
0
1.09762e-12
-1.09762e-12
0
6.5857e-12
0
4.39047e-12
43.4089
122.806
182.962
218.493
230.148
222.564
201.872
173.981
143.681
114.358
88.0737
65.8264
47.8459
33.8738
23.3872
15.7613
10.3759
6.67629
4.20088
2.58596
1.55792
0.918862
0.530727
0.300283
0.166473
0.0904534
0.0481812
0.0251656
0.0128919
0.00647898
0.00319503
0.0015464
0.00073475
0.00034279
0.000157065
7.06946e-05
3.12639e-05
1.35875e-05
5.80452e-06
2.43786e-06
1.00683e-06
4.08957e-07
1.63407e-07
6.42688e-08
2.48665e-08
9.47024e-09
3.54421e-09
1.32592e-09
4.82952e-10
1.6135e-10
5.59785e-11
1.75619e-11
6.5857e-12
-3.29285e-12
0
8.78094e-12
1.4269e-11
1.4269e-11
-4.39047e-12
4.39047e-12
-1.09762e-12
2.19523e-12
8.78094e-12
0
-1.09762e-12
0
1.4269e-11
2.19523e-12
1.31714e-11
-1.09762e-12
2.19523e-12
5.48809e-12
6.58571e-12
8.78094e-12
2.19524e-12
27.8213
79.2912
119.625
145.088
155.39
152.775
140.762
123.08
102.982
82.9263
64.5303
48.6718
35.6621
25.4268
17.6646
11.97
7.91819
5.11676
3.23184
1.9962
1.20625
0.713383
0.413051
0.234217
0.130107
0.0708215
0.0377863
0.0197661
0.0101398
0.00510239
0.00251914
0.00122059
0.000580535
0.000271097
0.000124325
5.60044e-05
2.47865e-05
1.07802e-05
4.60842e-06
1.93677e-06
8.00368e-07
3.25297e-07
1.30085e-07
5.11962e-08
1.9846e-08
7.57576e-09
2.84722e-09
1.03396e-09
3.90752e-10
1.49276e-10
3.7319e-11
1.53666e-11
-4.39047e-12
6.58571e-12
0
-5.48809e-12
-1.97571e-11
-1.09762e-12
2.19523e-12
-1.09762e-12
-1.09762e-12
0
1.09762e-12
-1.09762e-12
-1.09762e-12
-1.09762e-12
-6.58571e-12
0
-1.09762e-12
0
1.09762e-12
0
-6.58571e-12
0
1.09762e-12
17.8369
51.0966
77.7949
95.4659
103.586
103.215
96.3511
85.2972
72.1908
58.7423
46.1444
35.1
25.9131
18.6008
13.0002
8.85654
5.88665
3.82022
2.42215
1.5012
0.909939
0.539637
0.313237
0.178023
0.0990961
0.0540434
0.0288844
0.0151334
0.00777464
0.00391749
0.00193654
0.000939392
0.000447271
0.000209075
9.59715e-05
4.32703e-05
1.91664e-05
8.34244e-06
3.56895e-06
1.501e-06
6.20719e-07
2.5245e-07
1.01025e-07
3.97831e-08
1.54391e-08
5.87006e-09
2.20182e-09
7.9248e-10
2.87576e-10
1.22933e-10
3.62214e-11
2.08547e-11
2.19523e-11
3.29285e-12
2.19523e-12
1.09762e-12
-1.4269e-11
0
4.39047e-12
-1.09762e-12
3.29285e-12
1.4269e-11
-8.78094e-12
0
0
-9.87856e-12
-3.7319e-11
-1.09762e-12
0
0
-3.29285e-12
-5.48809e-12
0
-2.19523e-12
-3.29285e-12
11.3878
32.7437
50.1933
62.1524
68.1391
68.6393
64.7788
57.9567
49.5441
40.6907
32.2381
24.7135
18.3741
13.2733
9.33016
6.38917
4.26645
2.78039
1.76953
1.10047
0.669105
0.397924
0.231568
0.131914
0.0735853
0.0402088
0.0215286
0.011298
0.00581306
0.00293319
0.00145186
0.000705132
0.000336113
0.000157281
7.22678e-05
3.26134e-05
1.44587e-05
6.29859e-06
2.69671e-06
1.135e-06
4.69712e-07
1.9117e-07
7.65314e-08
3.01428e-08
1.16721e-08
4.45303e-09
1.66838e-09
6.30032e-10
2.40378e-10
1.06469e-10
6.58571e-11
4.28071e-11
2.08547e-11
1.09762e-12
-1.09762e-12
-1.09762e-12
-3.29285e-12
0
-1.09762e-12
2.19524e-12
0
-1.09762e-12
5.48809e-12
0
-1.09762e-11
-5.48809e-12
-2.19524e-12
-1.09762e-12
0
1.09762e-12
0
0
4.39047e-12
0
1.09762e-12
7.21652
20.8081
32.064
39.985
44.201
44.9253
42.7884
38.6299
33.3114
27.5848
22.0231
17.0029
12.724
9.24663
6.53502
4.49722
3.01656
1.97387
1.26089
0.786793
0.479851
0.286172
0.166961
0.0953333
0.0532939
0.0291787
0.0156513
0.00822751
0.00423982
0.00214245
0.00106189
0.000516381
0.00024643
0.000115441
5.30981e-05
2.39857e-05
1.06435e-05
4.64066e-06
1.98853e-06
8.37584e-07
3.46875e-07
1.41271e-07
5.65635e-08
2.22619e-08
8.60861e-09
3.28188e-09
1.23592e-09
4.86245e-10
1.97571e-10
9.43951e-11
7.24428e-11
4.06118e-11
5.48809e-12
1.09762e-12
-1.09762e-12
0
1.09762e-12
-8.78094e-12
-7.68332e-12
-3.29285e-12
-1.09762e-12
-1.4269e-11
1.09762e-12
-1.20738e-11
-1.09762e-12
1.09762e-11
2.305e-11
-2.19523e-12
0
0
-1.09762e-12
-4.39047e-12
-8.78094e-12
1.09762e-12
6.58571e-12
4.52845
13.0856
20.2467
25.3907
28.257
28.933
27.77
25.266
21.9532
18.3119
14.7208
11.4387
8.61146
6.29272
4.47006
3.09058
2.08194
1.36766
0.876792
0.548919
0.335786
0.20081
0.117456
0.0672235
0.0376609
0.0206606
0.0111027
0.00584637
0.00301755
0.00152707
0.000757925
0.000369042
0.000176329
8.2696e-05
3.80773e-05
1.72178e-05
7.6476e-06
3.33741e-06
1.4313e-06
6.03377e-07
2.50086e-07
1.01927e-07
4.08423e-08
1.60911e-08
6.22349e-09
2.3478e-09
8.83582e-10
3.28188e-10
1.16347e-10
5.04904e-11
3.07333e-11
1.64643e-11
5.48809e-12
1.64643e-11
0
0
4.39047e-12
0
1.09762e-12
0
-1.09762e-12
-1.09762e-12
-6.5857e-12
0
1.20738e-11
8.78094e-12
2.19523e-12
0
-1.09762e-12
-2.19523e-12
-6.5857e-12
4.39047e-12
0
0
0
2.8088
8.1303
12.6207
15.8993
17.7918
18.33
17.7083
16.2191
14.1858
11.9092
9.63285
7.52896
5.69925
4.18603
2.98774
2.07483
1.40339
0.925375
0.595305
0.373884
0.229387
0.137553
0.0806583
0.0462701
0.0259777
0.0142796
0.00768784
0.00405517
0.00209639
0.0010625
0.000528084
0.000257468
0.000123171
5.78325e-05
2.66582e-05
1.20668e-05
5.36491e-06
2.34343e-06
1.0059e-06
4.24404e-07
1.76062e-07
7.18391e-08
2.88267e-08
1.13922e-08
4.41901e-09
1.68045e-09
6.4979e-10
2.27207e-10
6.91499e-11
1.64643e-11
-1.53666e-11
-3.7319e-11
-2.41476e-11
-1.09762e-12
-1.4269e-11
-1.09762e-12
0
7.68332e-12
8.78094e-12
6.58571e-12
1.09762e-12
-4.39047e-12
0
1.31714e-11
9.87856e-12
0
-1.09762e-12
2.19523e-12
-4.39047e-12
0
-7.68332e-12
3.29285e-12
8.78094e-12
9.87856e-12
-3.29285e-12
1.71965
4.98454
7.758
9.80979
11.0277
11.4202
11.0942
10.2197
8.99028
7.59047
6.17353
4.85071
3.69031
2.72332
1.95236
1.36143
0.924399
0.611719
0.394834
0.248741
0.153045
0.092017
0.0540897
0.0310997
0.0174976
0.00963721
0.00519802
0.00274656
0.00142217
0.000721871
0.000359293
0.000175407
8.40183e-05
3.94959e-05
1.82262e-05
8.25882e-06
3.67559e-06
1.60704e-06
6.9046e-07
2.91588e-07
1.21072e-07
4.94499e-08
1.98757e-08
7.86443e-09
3.0887e-09
1.20409e-09
4.6539e-10
1.78912e-10
6.69547e-11
1.53666e-11
-1.86595e-11
-3.29285e-11
-2.305e-11
-2.19524e-11
0
-4.39047e-12
-4.39047e-12
0
8.78094e-12
-1.09762e-12
0
1.09762e-12
0
-2.19524e-12
5.48809e-12
-4.39047e-12
-1.09762e-12
-1.09762e-12
0
1.09762e-12
-4.39047e-12
-7.68332e-12
-2.19524e-12
2.19523e-12
5.48809e-12
1.03812
3.01245
4.69882
5.9599
6.72551
6.9954
6.82812
6.32121
5.58893
4.74252
3.87628
3.06026
2.33883
1.73349
1.24786
0.873527
0.595271
0.395256
0.255926
0.161708
0.0997694
0.0601398
0.0354362
0.0204202
0.0115129
0.0063534
0.00343309
0.0018171
0.000942402
0.000479071
0.000238784
0.00011673
5.59834e-05
2.63485e-05
1.21729e-05
5.52182e-06
2.46001e-06
1.07662e-06
4.63005e-07
1.95712e-07
8.13346e-08
3.32293e-08
1.33789e-08
5.31027e-09
2.07559e-09
8.33092e-10
3.08431e-10
1.35007e-10
5.1588e-11
9.87856e-12
-7.68332e-12
2.41476e-11
2.74404e-11
1.4269e-11
1.4269e-11
2.19523e-12
1.09762e-12
3.29285e-12
0
-2.19523e-12
-2.19523e-12
5.48809e-12
1.09762e-12
0
-9.87856e-12
-1.09762e-12
0
-3.29285e-12
4.39047e-12
-1.09762e-12
-3.29285e-12
5.48809e-12
-3.29285e-12
-9.87856e-12
-1.09762e-12
0.617416
1.79332
2.80228
3.56357
4.03436
4.21195
4.12808
3.83818
3.40864
2.90536
2.38519
1.8912
1.4514
1.08004
0.780433
0.548291
0.37491
0.249736
0.16219
0.10277
0.0635743
0.0384169
0.0226891
0.0131031
0.00740266
0.00409298
0.00221564
0.0011747
0.000610204
0.000310663
0.000155064
7.59048e-05
3.64499e-05
1.71758e-05
7.94418e-06
3.60753e-06
1.60885e-06
7.04822e-07
3.03381e-07
1.28365e-07
5.33936e-08
2.18602e-08
8.7996e-09
3.49042e-09
1.34897e-09
5.29052e-10
1.92083e-10
6.14666e-11
3.40261e-11
-1.09762e-12
-7.68332e-12
1.53666e-11
2.41476e-11
0
-2.19524e-12
5.48809e-12
-1.09762e-12
-2.19524e-12
-9.87856e-12
0
0
-4.39047e-12
0
2.19524e-12
-4.39047e-12
1.09762e-12
8.78094e-12
4.39047e-12
0
0
9.87856e-12
1.20738e-11
5.48809e-12
-5.48809e-12
-4.39047e-12
0.361537
1.05093
1.64471
2.09611
2.37957
2.49229
2.45134
2.28782
2.03975
1.7455
1.43868
1.14517
0.882199
0.658887
0.477786
0.336794
0.231028
0.154358
0.100534
0.0638736
0.039613
0.0239947
0.0142032
0.00821978
0.00465305
0.00257753
0.00139775
0.000742303
0.000386201
0.000196913
9.8425e-05
4.82441e-05
2.31965e-05
1.09437e-05
5.06752e-06
2.30375e-06
1.02849e-06
4.51026e-07
1.9434e-07
8.23202e-08
3.42786e-08
1.40693e-08
5.66261e-09
2.24353e-09
9.02242e-10
3.43554e-10
1.36105e-10
3.62214e-11
1.97571e-11
-1.75619e-11
3.29285e-12
-4.39047e-12
1.53666e-11
-1.31714e-11
1.09762e-12
-2.19523e-12
-1.09762e-12
-1.09762e-12
-1.09762e-12
2.19524e-12
-1.09762e-12
-8.78094e-12
-1.09762e-12
0
-8.78094e-12
-9.87856e-12
0
2.19523e-12
4.39047e-12
1.09762e-12
1.31714e-11
-4.39047e-12
3.29285e-12
-1.09762e-12
-1.09762e-12
0.20833
0.605984
0.949601
1.21249
1.37972
1.44909
1.42969
1.33875
1.19773
1.02858
0.850798
0.679618
0.525369
0.393705
0.28642
0.20253
0.139343
0.0933649
0.060973
0.0388381
0.024145
0.0146588
0.00869579
0.00504281
0.00286016
0.00158726
0.000862236
0.000458657
0.000238997
0.000122037
6.10842e-05
2.99808e-05
1.44334e-05
6.81767e-06
3.16057e-06
1.43841e-06
6.42838e-07
2.82183e-07
1.21733e-07
5.16133e-08
2.15188e-08
8.83582e-09
3.57055e-09
1.42471e-09
5.66371e-10
2.1184e-10
9.43951e-11
4.71976e-11
1.09762e-12
-8.78094e-12
1.97571e-11
5.48809e-12
1.4269e-11
4.39047e-12
3.29285e-12
3.29285e-12
1.86595e-11
0
2.19523e-12
0
0
-6.5857e-12
-1.09762e-12
3.29285e-12
0
-1.09762e-12
-7.68332e-12
0
0
1.09762e-12
-4.39047e-12
-8.78094e-12
0
0
-5.48809e-12
0.118088
0.343688
0.539172
0.689545
0.786257
0.827786
0.818918
0.769074
0.690184
0.594593
0.493399
0.39539
0.306617
0.230486
0.168183
0.119269
0.0822872
0.0552829
0.0361953
0.0231115
0.0144012
0.00876243
0.00520882
0.00302664
0.00171985
0.000956143
0.000520274
0.000277198
0.000144662
7.39746e-05
3.70782e-05
1.82223e-05
8.78362e-06
4.15395e-06
1.92794e-06
8.7838e-07
3.92964e-07
1.7267e-07
7.4559e-08
3.16377e-08
1.32274e-08
5.43211e-09
2.21938e-09
8.82484e-10
3.227e-10
1.21836e-10
3.7319e-11
3.29285e-12
3.29285e-12
1.86595e-11
1.20738e-11
1.09762e-11
-1.75619e-11
6.58571e-12
-1.09762e-12
-1.09762e-12
9.87856e-12
0
0
-2.19524e-12
3.29285e-12
8.78094e-12
0
-1.86595e-11
8.78094e-12
1.09762e-11
0
1.09762e-12
-4.39047e-12
0
-1.20738e-11
0
0
-3.29285e-12
2.19524e-12
0.0658249
0.191673
0.300983
0.385464
0.440313
0.464551
0.460671
0.433755
0.39033
0.337226
0.280643
0.22555
0.175416
0.132236
0.0967592
0.0688032
0.0475933
0.0320548
0.0210377
0.013464
0.00840818
0.00512671
0.00305366
0.00177774
0.00101202
0.000563596
0.000307179
0.000163918
8.56723e-05
4.38718e-05
2.20196e-05
1.08357e-05
5.22959e-06
2.47613e-06
1.15055e-06
5.24785e-07
2.35046e-07
1.03401e-07
4.46884e-08
1.89712e-08
7.93577e-09
3.24126e-09
1.32153e-09
5.24661e-10
2.03059e-10
8.45165e-11
2.19523e-11
-6.58571e-12
9.87856e-12
1.86595e-11
-2.19524e-12
6.58571e-12
-1.09762e-11
1.4269e-11
-1.09762e-12
-2.19523e-12
-1.86595e-11
-7.68332e-12
-1.09762e-12
0
-1.09762e-12
1.09762e-11
1.09762e-12
-2.19524e-12
-1.09762e-12
-4.39047e-12
9.87856e-12
-1.09762e-12
2.19524e-12
-2.19524e-12
3.29285e-12
0
-2.19524e-12
3.29285e-12
-8.78094e-12
0.0360748
0.10509
0.165161
0.211778
0.242291
0.256105
0.254502
0.240186
0.216671
0.187672
0.156592
0.126185
0.0983965
0.0743698
0.0545574
0.0388919
0.0269683
0.0182064
0.0119761
0.00768135
0.004807
0.00293684
0.00175265
0.00102221
0.000582932
0.00032518
0.000177517
9.48722e-05
4.96575e-05
2.54645e-05
1.27979e-05
6.30581e-06
3.04708e-06
1.44443e-06
6.71933e-07
3.06832e-07
1.37589e-07
6.06049e-08
2.62166e-08
1.11474e-08
4.63743e-09
1.89778e-09
7.57356e-10
2.93064e-10
1.22933e-10
4.93928e-11
3.18309e-11
1.4269e-11
1.09762e-12
1.4269e-11
-3.29285e-12
-9.87856e-12
1.31714e-11
5.48809e-12
-2.19523e-12
5.48809e-12
-7.68332e-12
1.20738e-11
1.09762e-12
0
1.09762e-12
-2.19523e-12
-1.09762e-12
1.31714e-11
0
1.31714e-11
0
-2.19523e-12
0
1.09762e-12
4.39047e-12
-2.19523e-12
0
2.19523e-12
-1.09762e-12
0.0194349
0.0566373
0.0890775
0.114343
0.130998
0.138696
0.138087
0.130588
0.118063
0.102497
0.0857267
0.069247
0.0541283
0.0410098
0.0301563
0.0215475
0.0149754
0.0101323
0.00667928
0.00429289
0.00269184
0.00164773
0.000985144
0.000575583
0.000328791
0.000183708
0.000100442
5.376e-05
2.81788e-05
1.44699e-05
7.28178e-06
3.5924e-06
1.73798e-06
8.24827e-07
3.84134e-07
1.75605e-07
7.88298e-08
3.47648e-08
1.50593e-08
6.42436e-09
2.66831e-09
1.10091e-09
4.28071e-10
1.6135e-10
8.12237e-11
3.7319e-11
2.85381e-11
1.09762e-11
6.58571e-12
7.68332e-12
-1.20738e-11
-2.52452e-11
-1.97571e-11
-8.78094e-12
-1.31714e-11
6.5857e-12
1.09762e-12
1.09762e-11
0
-1.09762e-12
1.09762e-12
0
-1.09762e-12
4.39047e-12
3.29285e-12
4.39047e-12
-9.87856e-12
0
-1.09762e-12
1.09762e-12
1.09762e-12
1.09762e-12
0
1.09762e-12
1.31714e-11
0.0102914
0.0300014
0.047216
0.0606656
0.0695876
0.0737849
0.0735843
0.0697171
0.0631557
0.0549441
0.0460535
0.0372825
0.0292075
0.0221781
0.0163445
0.011704
0.00815154
0.00552677
0.00365064
0.00235092
0.00147693
0.00090571
0.000542456
0.000317474
0.000181646
0.000101651
5.56611e-05
2.98347e-05
1.56598e-05
8.05206e-06
4.05729e-06
2.00411e-06
9.70724e-07
4.61221e-07
2.15052e-07
9.84321e-08
4.42439e-08
1.95299e-08
8.49336e-09
3.64299e-09
1.54435e-09
6.38813e-10
2.48062e-10
9.7688e-11
4.82952e-11
3.51238e-11
3.29285e-12
1.31714e-11
2.08547e-11
9.87856e-12
3.29285e-12
-9.87856e-12
-2.63428e-11
-1.20738e-11
1.09762e-12
-4.39047e-12
0
-3.29285e-12
-2.19523e-12
2.19524e-12
-1.09762e-12
2.19523e-12
0
6.58571e-12
-2.19523e-12
-1.31714e-11
2.19524e-12
1.09762e-12
0
-1.09762e-12
7.68332e-12
3.29285e-12
0
3.29285e-12
-4.39047e-12
0.00535625
0.015619
0.0245954
0.0316282
0.0363194
0.0385607
0.0385138
0.0365506
0.0331703
0.0289123
0.0242818
0.019697
0.0154625
0.0117653
0.00868835
0.00623417
0.00435061
0.00295549
0.00195593
0.00126191
0.000794199
0.000487881
0.000292698
0.00017158
9.83251e-05
5.51069e-05
3.02189e-05
1.62202e-05
8.52524e-06
4.38926e-06
2.21446e-06
1.09517e-06
5.31104e-07
2.52646e-07
1.17937e-07
5.40236e-08
2.42991e-08
1.07215e-08
4.66487e-09
1.99108e-09
8.68215e-10
3.7319e-10
1.6574e-10
8.23213e-11
3.40261e-11
3.29285e-11
1.75619e-11
3.84166e-11
2.19523e-11
7.68332e-12
7.68332e-12
7.68332e-12
6.5857e-12
-3.29285e-12
1.4269e-11
-6.5857e-12
-1.09762e-12
-3.29285e-12
1.09762e-12
2.19523e-12
-1.09762e-12
-2.19523e-12
2.19523e-12
-1.20738e-11
-3.29285e-12
-1.09762e-12
0
1.09762e-12
1.09762e-12
0
-7.68332e-12
0
-4.39047e-12
-1.4269e-11
-1.09762e-12
0.00273983
0.00799157
0.0125909
0.0162034
0.018625
0.0197977
0.0198005
0.0188196
0.017107
0.0149368
0.0125672
0.0102133
0.00803278
0.0061237
0.00453082
0.00325715
0.0022773
0.00154988
0.00102755
0.000664107
0.000418678
0.000257624
0.000154807
9.08894e-05
5.21632e-05
2.92778e-05
1.60776e-05
8.64149e-06
4.54791e-06
2.3445e-06
1.18428e-06
5.86389e-07
2.84701e-07
1.35593e-07
6.33435e-08
2.90287e-08
1.30474e-08
5.74603e-09
2.47403e-09
1.04383e-09
4.28071e-10
1.85497e-10
9.43951e-11
4.93928e-11
2.19524e-11
1.31714e-11
3.95142e-11
4.06118e-11
2.305e-11
0
-1.97571e-11
4.39047e-12
-2.19523e-12
-3.29285e-12
-2.19524e-12
0
0
-7.68332e-12
4.39047e-12
-3.29285e-12
0
-1.09762e-12
-5.48809e-12
-2.08547e-11
2.19523e-12
0
-2.19524e-12
-3.29285e-12
1.09762e-12
-1.09762e-12
1.09762e-12
-2.19524e-12
0
0
1.31714e-11
0.00137742
0.00401864
0.00633439
0.00815737
0.00938478
0.00998636
0.0100001
0.00951766
0.00866441
0.00757724
0.00638576
0.00519854
0.0040958
0.00312791
0.00231839
0.00166961
0.00116939
0.000797233
0.000529453
0.000342756
0.000216438
0.00013339
8.0278e-05
4.7203e-05
2.713e-05
1.52487e-05
8.38504e-06
4.51278e-06
2.37804e-06
1.22744e-06
6.20769e-07
3.0772e-07
1.49561e-07
7.12859e-08
3.3316e-08
1.52898e-08
6.85023e-09
3.02723e-09
1.28311e-09
5.36735e-10
1.89888e-10
6.14666e-11
1.31714e-11
1.09762e-12
1.97571e-11
2.08547e-11
3.18309e-11
1.75619e-11
2.305e-11
1.09762e-12
-6.58571e-12
4.39047e-12
2.19523e-12
8.78094e-12
0
-1.09762e-12
0
0
-1.09762e-12
0
0
3.29285e-12
-1.09762e-12
7.68332e-12
0
-1.09762e-12
0
0
6.58571e-12
4.39047e-12
6.5857e-12
-1.97571e-11
2.19524e-12
1.09762e-11
0
0.00068062
0.00198614
0.00313197
0.00403581
0.00464677
0.00494942
0.00496175
0.0047283
0.00431027
0.00377491
0.00318618
0.00259791
0.00205015
0.00156824
0.0011643
0.000839867
0.000589207
0.000402348
0.000267634
0.000173533
0.000109749
6.77406e-05
4.08282e-05
2.40412e-05
1.3837e-05
7.78774e-06
4.28801e-06
2.31072e-06
1.21915e-06
6.30023e-07
3.18995e-07
1.58305e-07
7.70198e-08
3.67285e-08
1.71689e-08
7.86772e-09
3.51347e-09
1.55313e-09
6.5418e-10
2.62331e-10
9.32975e-11
1.53666e-11
-1.64643e-11
-5.48809e-12
-6.5857e-12
3.29285e-12
3.29285e-12
-1.53666e-11
-1.09762e-12
5.48809e-12
1.31714e-11
-1.09762e-12
2.19523e-11
1.31714e-11
0
0
8.78094e-12
0
-1.09762e-12
-2.19523e-12
-1.09762e-12
1.09762e-12
4.39047e-12
1.86595e-11
1.09762e-12
0
-1.09762e-12
1.31714e-11
0
1.09762e-12
-7.68332e-12
0
0
0
-7.68332e-12
0.000330566
0.000964825
0.00152202
0.00196235
0.00226107
0.00241046
0.00241893
0.00230775
0.00210635
0.00184719
0.0015613
0.0012749
0.0010076
0.000771933
0.000573986
0.000414688
0.000291374
0.000199275
0.000132755
8.62071e-05
5.46009e-05
3.375e-05
2.03703e-05
1.20113e-05
6.92243e-06
3.90119e-06
2.15076e-06
1.16042e-06
6.12983e-07
3.17113e-07
1.6073e-07
7.98407e-08
3.88798e-08
1.85574e-08
8.67228e-09
3.96789e-09
1.76497e-09
7.62844e-10
3.227e-10
1.21836e-10
3.40261e-11
6.58571e-12
-1.64643e-11
-2.19523e-11
-3.95142e-11
-4.06118e-11
-2.96357e-11
-2.74404e-11
-2.41476e-11
-1.4269e-11
-2.19524e-12
-2.52452e-11
-1.20738e-11
-1.09762e-11
1.09762e-12
3.29285e-12
7.68332e-12
-1.20738e-11
-1.09762e-12
2.19524e-12
-1.09762e-12
-5.48809e-12
-3.29285e-12
0
0
2.19524e-12
1.09762e-12
0
-8.78094e-12
4.39047e-12
1.09762e-12
2.41476e-11
2.19524e-12
4.39047e-12
0
0.000157819
0.00046071
0.000727028
0.000937838
0.00108132
0.00115369
0.00115882
0.00110672
0.00101129
0.000887962
0.000751507
0.000614486
0.00048633
0.000373116
0.000277839
0.000201024
0.000141452
9.68814e-05
6.46345e-05
4.20314e-05
2.66588e-05
1.65011e-05
9.9729e-06
5.88826e-06
3.39796e-06
1.91738e-06
1.05838e-06
5.71731e-07
3.02356e-07
1.56593e-07
7.94609e-08
3.94912e-08
1.92478e-08
9.18816e-09
4.27412e-09
1.96474e-09
8.85777e-10
3.68799e-10
1.58057e-10
5.48809e-11
-1.09762e-11
-1.09762e-11
-1.09762e-11
-1.75619e-11
-2.41476e-11
-3.7319e-11
-4.93928e-11
-2.41476e-11
-2.96357e-11
-2.74404e-11
-2.305e-11
-2.85381e-11
-3.51238e-11
-8.78094e-12
2.19524e-12
0
-8.78094e-12
-1.64643e-11
-8.78094e-12
-1.20738e-11
-3.29285e-12
-1.09762e-12
1.09762e-12
-2.19524e-12
-1.09762e-12
-1.09762e-11
1.09762e-12
-6.5857e-12
-1.09762e-12
-1.09762e-12
-2.19523e-12
0
-9.87856e-12
0
5.48809e-12
7.40708e-05
0.000216265
0.000341387
0.000440581
0.000508293
0.000542713
0.000545598
0.000521571
0.000477104
0.000419397
0.000355376
0.000290947
0.000230569
0.000177131
0.000132079
9.56933e-05
6.74281e-05
4.62454e-05
3.08948e-05
2.01179e-05
1.2777e-05
7.91908e-06
4.79234e-06
2.83314e-06
1.63697e-06
9.24821e-07
5.1113e-07
2.76442e-07
1.4638e-07
7.5897e-08
3.85384e-08
1.91589e-08
9.32865e-09
4.46621e-09
2.0734e-09
9.41756e-10
4.24778e-10
1.58057e-10
4.60999e-11
4.39047e-12
2.19523e-12
-4.39047e-12
1.4269e-11
1.64643e-11
-6.5857e-12
-7.68332e-12
-1.53666e-11
-1.53666e-11
-4.39047e-12
-1.86595e-11
-1.86595e-11
1.4269e-11
-5.48809e-12
-2.19523e-12
-3.29285e-12
6.5857e-12
-7.68332e-12
7.68332e-12
-8.78094e-12
-2.19523e-12
-1.31714e-11
5.48809e-12
4.39047e-12
-7.68332e-12
1.09762e-12
-1.09762e-12
-1.09762e-12
1.09762e-12
2.19523e-12
-8.78094e-12
-1.31714e-11
-4.39047e-12
-6.5857e-12
-7.68332e-12
-1.09762e-12
3.41793e-05
9.98084e-05
0.000157599
0.000203479
0.000234883
0.000250959
0.000252493
0.000241589
0.000221209
0.000194659
0.00016513
0.000135352
0.000107394
8.2607e-05
6.16752e-05
4.47425e-05
3.15678e-05
2.16789e-05
1.45016e-05
9.45531e-06
6.0128e-06
3.73136e-06
2.26091e-06
1.33825e-06
7.74169e-07
4.37908e-07
2.4229e-07
1.31193e-07
6.95593e-08
3.61006e-08
1.83598e-08
9.13657e-09
4.44535e-09
2.13157e-09
9.92246e-10
4.25876e-10
1.77814e-10
5.70761e-11
1.09762e-12
-1.20738e-11
2.19523e-12
2.19524e-12
1.31714e-11
0
1.64643e-11
5.48809e-12
2.52452e-11
-3.29285e-12
-9.87856e-12
-2.19523e-12
1.09762e-11
2.08547e-11
1.09762e-11
-1.09762e-11
-1.09762e-12
4.39047e-12
0
4.39047e-12
1.86595e-11
1.31714e-11
4.39047e-12
2.19523e-12
0
2.19524e-12
0
1.09762e-11
-2.19524e-12
0
0
5.48809e-12
8.78094e-12
0
9.87856e-12
2.19523e-12
-6.58571e-12
1.55081e-05
4.5292e-05
7.15363e-05
9.23981e-05
0.000106713
0.000114089
0.00011487
0.000110001
0.000100813
8.88009e-05
7.54091e-05
6.18785e-05
4.91533e-05
3.78531e-05
2.82955e-05
2.05521e-05
1.45183e-05
9.98263e-06
6.68594e-06
4.36467e-06
2.77898e-06
1.72666e-06
1.04745e-06
6.20719e-07
3.59498e-07
2.03614e-07
1.1279e-07
6.11516e-08
3.24609e-08
1.68792e-08
8.6152e-09
4.31693e-09
2.12499e-09
9.9993e-10
4.82952e-10
2.10743e-10
1.05371e-10
5.04904e-11
3.62214e-11
1.09762e-11
2.19523e-11
1.86595e-11
2.08547e-11
-1.09762e-12
3.18309e-11
2.19524e-11
1.4269e-11
7.68332e-12
-1.97571e-11
4.39047e-12
1.4269e-11
6.58571e-12
1.4269e-11
-4.39047e-12
2.19524e-12
-2.305e-11
-1.09762e-12
0
7.68332e-12
1.09762e-12
1.4269e-11
-2.19523e-12
-1.09762e-12
-1.09762e-12
-4.39047e-12
1.09762e-12
-1.09762e-12
1.20738e-11
0
0
2.08547e-11
9.87856e-12
6.58571e-12
4.39047e-12
0
6.91963e-06
2.02116e-05
3.19312e-05
4.12582e-05
4.76731e-05
5.09979e-05
5.13822e-05
4.92419e-05
4.51675e-05
3.98222e-05
3.38499e-05
2.78049e-05
2.21106e-05
1.70463e-05
1.27568e-05
9.27648e-06
6.5607e-06
4.5164e-06
3.02845e-06
1.97934e-06
1.26172e-06
7.84851e-07
4.76663e-07
2.82798e-07
1.63983e-07
9.29836e-08
5.15891e-08
2.80364e-08
1.49078e-08
7.7854e-09
3.97996e-09
2.01523e-09
1.00212e-09
4.79659e-10
2.5794e-10
1.14152e-10
6.36618e-11
5.48809e-11
2.63428e-11
6.5857e-12
4.28071e-11
1.75619e-11
3.84166e-11
5.59785e-11
4.17095e-11
4.39047e-11
2.74404e-11
4.06118e-11
1.20738e-11
5.48809e-12
2.08547e-11
2.52452e-11
2.96357e-11
3.84166e-11
1.09762e-12
5.48809e-12
4.39047e-12
1.4269e-11
-1.09762e-11
0
0
-2.19523e-12
-1.09762e-12
0
-3.29285e-12
0
4.39047e-12
-4.39047e-12
-2.19523e-12
-1.31714e-11
-5.48809e-12
6.5857e-12
-1.09762e-12
-5.48809e-12
2.19523e-12
3.0366e-06
8.8708e-06
1.40176e-05
1.81184e-05
2.09448e-05
2.24177e-05
2.2601e-05
2.16752e-05
1.98975e-05
1.75579e-05
1.49384e-05
1.22826e-05
9.7771e-06
7.54562e-06
5.65292e-06
4.11519e-06
2.91367e-06
2.00803e-06
1.34796e-06
8.8201e-07
5.6286e-07
3.50491e-07
2.13116e-07
1.26595e-07
7.35052e-08
4.17215e-08
2.31883e-08
1.26226e-08
6.72291e-09
3.52335e-09
1.80448e-09
9.14315e-10
4.57706e-10
2.40378e-10
1.04274e-10
3.95142e-11
9.87856e-12
2.41476e-11
4.39047e-12
1.4269e-11
7.68332e-12
7.68332e-12
1.4269e-11
4.93928e-11
4.17095e-11
4.28071e-11
2.08547e-11
1.09762e-11
2.96357e-11
1.86595e-11
3.18309e-11
3.95142e-11
3.51238e-11
2.63428e-11
-2.19524e-12
1.4269e-11
1.31714e-11
2.19524e-12
2.19523e-12
0
0
-2.19523e-12
2.19524e-12
8.78094e-12
3.29285e-12
-1.09762e-12
0
-1.20738e-11
1.09762e-12
0
-1.64643e-11
-9.87856e-12
1.09762e-12
-7.68332e-12
0
1.3108e-06
3.82979e-06
6.05315e-06
7.82643e-06
9.05114e-06
9.69255e-06
9.77763e-06
9.38337e-06
8.62023e-06
7.61278e-06
6.48266e-06
5.33501e-06
4.2508e-06
3.28389e-06
2.46269e-06
1.79465e-06
1.272e-06
8.77551e-07
5.89725e-07
3.86256e-07
2.46758e-07
1.53823e-07
9.3629e-08
5.56799e-08
3.23545e-08
1.83961e-08
1.02353e-08
5.56273e-09
2.96576e-09
1.56959e-09
8.14432e-10
4.07216e-10
1.86595e-10
9.11023e-11
2.85381e-11
2.41476e-11
0
1.53666e-11
2.08547e-11
3.84166e-11
8.78094e-12
1.09762e-11
-1.97571e-11
8.78094e-12
2.96357e-11
2.63428e-11
0
4.39047e-12
1.64643e-11
2.52452e-11
8.78094e-12
1.86595e-11
3.29285e-12
-1.20738e-11
0
-2.08547e-11
-4.39047e-12
-4.39047e-12
1.09762e-12
0
0
-2.19523e-12
4.39047e-12
0
5.48809e-12
0
-1.09762e-12
0
6.58571e-12
1.53666e-11
5.48809e-12
-5.48809e-12
-8.78094e-12
1.09762e-12
-4.39047e-12
5.56698e-07
1.62667e-06
2.5715e-06
3.32581e-06
3.84772e-06
4.12233e-06
4.16079e-06
3.99555e-06
3.67316e-06
3.24632e-06
2.76667e-06
2.27885e-06
1.81737e-06
1.40531e-06
1.0549e-06
7.69511e-07
5.45952e-07
3.77027e-07
2.53637e-07
1.6628e-07
1.06311e-07
6.63488e-08
4.0434e-08
2.40455e-08
1.3988e-08
7.9687e-09
4.42559e-09
2.40159e-09
1.2908e-09