/*--------------------------------*- C++ -*----------------------------------*\
  =========                 |
  \\      /  F ield         | OpenFOAM: The Open Source CFD Toolbox
   \\    /   O peration     | Website:  https://openfoam.org
    \\  /    A nd           | Version:  10
     \\/     M anipulation  |
\*---------------------------------------------------------------------------*/
FoamFile
{
    format      ascii;
    class       volScalarField;
    location    "403";
    object      gradTz;
}
// * * * * * * * * * * * * * * * * * * * * * * * * * * * * * * * * * * * * * //

dimensions      [0 -1 0 1 0 0 0];

internalField   nonuniform List<scalar> 
11250
(
-14343.7
-4139.3
-1519.28
-716.102
-411.88
-270.827
-194.072
-147.212
-116.159
-94.2902
-78.1468
-65.7705
-55.9851
-48.0494
-41.479
-35.9468
-31.2259
-27.1552
-23.6175
-20.5256
-17.8131
-15.4284
-13.33
-11.4841
-9.86211
-8.43978
-7.19572
-6.11098
-5.1685
-4.35281
-3.64982
-3.04664
-2.53149
-2.09365
-1.72333
-1.41172
-1.15084
-0.933585
-0.753603
-0.605296
-0.483744
-0.384659
-0.304325
-0.239548
-0.1876
-0.146169
-0.113305
-0.0873808
-0.0670423
-0.0511736
-0.0388601
-0.0293577
-0.0220648
-0.0164981
-0.0122723
-0.00908183
-0.0066862
-0.00489714
-0.00356833
-0.0025867
-0.00186548
-0.00133844
-0.000955374
-0.000678464
-0.000479373
-0.000337016
-0.000235796
-0.00016425
-0.00011401
-7.9015e-05
-5.49133e-05
-3.86238e-05
-2.801e-05
-2.16489e-05
-1.86732e-05
-8235.21
-4833.31
-2740.78
-1649.15
-1072.29
-748.017
-552.171
-425.701
-339.183
-277.061
-230.61
-194.68
-166.086
-142.784
-123.419
-107.066
-93.0791
-80.9971
-70.4818
-61.281
-53.2018
-46.0931
-39.8341
-34.3252
-29.4827
-25.2347
-21.5179
-18.2763
-15.4592
-13.0207
-10.9187
-9.11489
-7.57418
-6.26452
-5.15675
-4.22451
-3.444
-2.79394
-2.25539
-1.81159
-1.44784
-1.15131
-0.910888
-0.717018
-0.56154
-0.437532
-0.339167
-0.26157
-0.200691
-0.15319
-0.116331
-0.0878859
-0.0660543
-0.0493902
-0.0367398
-0.0271888
-0.020017
-0.0146611
-0.010683
-0.00774423
-0.00558502
-0.00400715
-0.00286032
-0.00203129
-0.00143523
-0.00100902
-0.000705975
-0.000491768
-0.000341351
-0.000236575
-0.000164414
-0.000115643
-8.38647e-05
-6.48195e-05
-5.59103e-05
-5527.98
-4217.32
-2960.77
-2066.86
-1479.55
-1096.28
-840.447
-663.852
-537.493
-443.903
-372.365
-316.132
-270.837
-233.585
-202.405
-175.928
-153.183
-133.466
-116.257
-101.166
-87.8894
-76.1906
-65.8772
-56.7905
-48.7963
-41.7785
-35.6347
-30.2736
-25.6125
-21.5763
-18.0961
-15.1087
-12.5565
-10.3865
-8.55074
-7.00557
-5.71172
-4.63399
-3.74101
-3.00508
-2.40183
-1.91002
-1.51123
-1.18964
-0.931719
-0.725992
-0.562796
-0.43405
-0.333037
-0.25422
-0.193057
-0.145855
-0.109626
-0.0819713
-0.0609772
-0.0451262
-0.0332236
-0.0243345
-0.0177319
-0.0128543
-0.00927046
-0.00665148
-0.00474792
-0.00337182
-0.00238243
-0.00167496
-0.00117192
-0.000816347
-0.000566657
-0.000392728
-0.00027294
-0.000191978
-0.000139224
-0.000107608
-9.28189e-05
-4130.32
-3546.14
-2817.1
-2176.97
-1681.88
-1316.28
-1048.74
-851.128
-702.499
-588.271
-498.505
-426.441
-367.449
-318.317
-276.785
-241.241
-210.515
-183.747
-160.29
-139.652
-121.447
-105.371
-91.1734
-78.6459
-67.6109
-57.9135
-49.4165
-41.9965
-35.5414
-29.9485
-25.1239
-20.9808
-17.4399
-14.4284
-11.8801
-9.73462
-7.93774
-6.44071
-5.20012
-4.17754
-3.33922
-2.65567
-2.10136
-1.6543
-1.29572
-1.00968
-0.782753
-0.603719
-0.463243
-0.353625
-0.268558
-0.202903
-0.152509
-0.114041
-0.0848359
-0.0627847
-0.0462258
-0.0338588
-0.0246726
-0.0178862
-0.0128997
-0.00925565
-0.00660694
-0.00469214
-0.00331538
-0.00233091
-0.0016309
-0.00113608
-0.00078861
-0.000546563
-0.000379858
-0.000267185
-0.000193768
-0.000149768
-0.000129186
-3315.35
-3018.35
-2583.08
-2140.68
-1753.44
-1437.07
-1186.09
-988.528
-832.361
-707.587
-606.506
-523.397
-454.068
-395.455
-345.314
-301.989
-264.248
-231.164
-202.026
-176.283
-153.501
-133.326
-115.468
-99.6807
-85.7523
-73.4961
-62.7449
-53.3475
-45.1654
-38.0714
-31.9479
-26.6869
-22.1884
-18.3611
-15.1211
-12.3926
-10.1067
-8.20185
-6.62293
-5.32122
-4.25387
-3.38345
-2.67748
-2.10804
-1.65124
-1.28681
-0.997674
-0.769532
-0.59051
-0.450803
-0.342376
-0.258688
-0.194449
-0.145408
-0.108174
-0.0800601
-0.0589471
-0.0431781
-0.0314646
-0.0228107
-0.0164518
-0.0118046
-0.00842669
-0.00598464
-0.00422874
-0.00297313
-0.00208029
-0.00144916
-0.00100595
-0.00069721
-0.000484567
-0.000340841
-0.00024719
-0.000191063
-0.000164807
-2795.45
-2626.94
-2354.35
-2047.51
-1752.52
-1490.99
-1268.69
-1083.4
-929.885
-802.456
-695.979
-606.214
-529.8
-464.129
-407.199
-357.476
-313.782
-275.205
-241.031
-210.695
-183.742
-159.797
-138.544
-119.714
-103.07
-88.4006
-75.5154
-64.2399
-54.4129
-45.8856
-38.5197
-32.1871
-26.7695
-22.1578
-18.2524
-14.9621
-12.2047
-9.90616
-8.00046
-6.42897
-5.14014
-4.08888
-3.23611
-2.54813
-1.99617
-1.55576
-1.20629
-0.930519
-0.714098
-0.54519
-0.414088
-0.312891
-0.235205
-0.175894
-0.130861
-0.0968551
-0.0713162
-0.0522406
-0.0380701
-0.0276004
-0.0199071
-0.0142843
-0.0101972
-0.00724225
-0.00511752
-0.00359811
-0.00251765
-0.00175388
-0.00121751
-0.000843856
-0.0005865
-0.000412551
-0.000299204
-0.000231271
-0.000199493
-2441.73
-2337.32
-2157.65
-1940.39
-1716.16
-1503.91
-1312.71
-1145.1
-1000.18
-875.461
-768.069
-675.245
-594.581
-524.071
-462.088
-407.328
-358.753
-315.533
-277.003
-242.621
-211.94
-184.584
-160.231
-138.6
-119.44
-102.523
-87.6402
-74.6001
-63.2227
-53.3404
-44.797
-37.4468
-31.1546
-25.7955
-21.2547
-17.4276
-14.2191
-11.5436
-9.32471
-7.49442
-5.99295
-4.76798
-3.77409
-2.97212
-2.32858
-1.81503
-1.40746
-1.0858
-0.833338
-0.636277
-0.483309
-0.365221
-0.27456
-0.205339
-0.152776
-0.113081
-0.0832683
-0.0609988
-0.0444547
-0.0322306
-0.0232476
-0.016682
-0.0119093
-0.00845852
-0.00597716
-0.00420265
-0.00294075
-0.00204868
-0.0014222
-0.000985755
-0.000685143
-0.000481951
-0.000349546
-0.00027019
-0.000233068
-2189.7
-2120.29
-1995.96
-1837.79
-1665.51
-1493.7
-1331.25
-1182.53
-1048.92
-930.076
-824.805
-731.606
-648.965
-575.497
-509.999
-451.454
-399.015
-351.981
-309.77
-271.894
-237.939
-207.548
-180.405
-156.23
-134.767
-115.781
-99.0498
-84.3692
-71.5448
-60.3939
-50.7449
-42.4368
-35.3197
-29.2542
-24.1122
-19.7762
-16.1394
-13.1057
-10.5888
-8.51204
-6.80793
-5.41728
-4.28869
-3.37785
-2.64681
-2.06332
-1.60019
-1.23461
-0.947641
-0.723617
-0.549699
-0.415423
-0.312324
-0.233598
-0.173813
-0.128661
-0.094746
-0.0694108
-0.0505878
-0.0366792
-0.0264576
-0.0189863
-0.0135548
-0.00962767
-0.00680361
-0.00478392
-0.0033476
-0.0023322
-0.00161906
-0.00112224
-0.000780034
-0.000548718
-0.000397983
-0.000307639
-0.000265377
-2003.99
-1955.11
-1865.17
-1746.48
-1611.79
-1471.76
-1333.94
-1203.01
-1081.37
-969.904
-868.573
-776.827
-693.899
-618.967
-551.238
-489.996
-434.609
-384.527
-339.276
-298.441
-261.659
-228.606
-198.987
-172.532
-148.988
-128.117
-109.694
-93.5033
-79.3416
-67.0141
-56.3363
-47.1345
-39.2458
-32.5183
-26.8116
-21.9969
-17.9569
-14.5852
-11.7869
-9.47726
-7.58141
-6.03386
-4.77763
-3.76353
-2.94945
-2.29955
-1.78362
-1.3763
-1.05651
-0.806828
-0.612969
-0.463279
-0.348332
-0.260551
-0.193882
-0.143526
-0.1057
-0.0774404
-0.0564433
-0.040927
-0.0295232
-0.0211873
-0.0151269
-0.0107448
-0.00759335
-0.00533944
-0.00373648
-0.00260322
-0.00180728
-0.00125275
-0.000870774
-0.000612571
-0.000444311
-0.000343462
-0.000296284
-1863.69
-1827.57
-1759.85
-1668.03
-1560.51
-1444.93
-1327.38
-1212.14
-1101.93
-998.244
-901.755
-812.581
-730.53
-655.246
-586.303
-523.268
-465.721
-413.272
-365.564
-322.269
-283.086
-247.733
-215.945
-187.469
-162.065
-139.497
-119.539
-101.973
-86.5875
-73.1783
-61.5518
-51.5233
-42.9189
-35.5759
-29.3432
-24.0819
-19.6647
-15.9768
-12.9148
-10.3865
-8.31053
-6.61544
-5.23907
-4.12772
-3.23536
-2.52284
-1.95706
-1.51032
-1.15953
-0.885601
-0.672883
-0.508611
-0.382451
-0.286096
-0.212908
-0.157623
-0.116089
-0.085058
-0.0619994
-0.0449584
-0.0324332
-0.0232769
-0.0166196
-0.0118057
-0.00834347
-0.00586717
-0.00410596
-0.00286075
-0.00198615
-0.00137679
-0.00095703
-0.000673276
-0.00048836
-0.000377525
-0.000325676
-1755.7
-1727.88
-1675
-1601.84
-1514.06
-1417.16
-1315.91
-1213.99
-1114.07
-1017.9
-926.519
-840.499
-760.055
-685.197
-615.806
-551.695
-492.641
-438.408
-388.759
-343.455
-302.261
-264.947
-231.282
-201.038
-173.988
-149.907
-128.573
-109.765
-93.2684
-78.8739
-66.3796
-55.5927
-46.3299
-38.4192
-31.7004
-26.0253
-21.2584
-17.2766
-13.9691
-11.2372
-8.99317
-7.16033
-5.67168
-4.46935
-3.50372
-2.73251
-2.12002
-1.63629
-1.2564
-0.959697
-0.729261
-0.551282
-0.414578
-0.310157
-0.230833
-0.170907
-0.125883
-0.0922403
-0.0672392
-0.0487612
-0.0351786
-0.0252487
-0.0180285
-0.0128071
-0.0090517
-0.0063655
-0.0044549
-0.00310401
-0.00215513
-0.00149399
-0.00103854
-0.000730647
-0.000529996
-0.000409727
-0.000353463
-1671.38
-1649.16
-1606.49
-1546.55
-1473.23
-1390.56
-1302.26
-1211.41
-1120.43
-1031.13
-944.731
-862.063
-783.626
-709.699
-640.404
-575.762
-515.724
-460.193
-409.043
-362.125
-319.274
-280.308
-245.037
-213.26
-184.77
-159.354
-136.796
-116.877
-99.3812
-84.0965
-70.8154
-59.3382
-49.4745
-41.0444
-33.8796
-27.8242
-22.7352
-18.4822
-14.948
-12.0276
-9.62803
-7.66745
-6.07457
-4.78772
-3.75394
-2.92812
-2.27212
-1.75394
-1.3469
-1.02895
-0.781979
-0.591197
-0.44464
-0.332678
-0.247617
-0.183349
-0.135058
-0.0989708
-0.0721505
-0.0523264
-0.0377532
-0.0270982
-0.0193503
-0.0137468
-0.00971635
-0.00683325
-0.00478249
-0.00333241
-0.00231381
-0.00160406
-0.0011151
-0.000784547
-0.000569118
-0.000439988
-0.000379578
-1604.84
-1586.5
-1551.03
-1500.6
-1437.99
-1366.19
-1288.11
-1206.3
-1122.93
-1039.7
-957.927
-878.561
-802.29
-729.585
-660.752
-595.977
-535.357
-478.919
-426.637
-378.446
-334.244
-293.904
-257.274
-224.183
-194.445
-167.861
-144.223
-123.319
-104.933
-88.8503
-74.8612
-62.7609
-52.3529
-43.451
-35.8801
-29.4778
-24.0942
-19.593
-15.8508
-12.7573
-10.2145
-8.1363
-6.44734
-5.08248
-3.98575
-3.10945
-2.4132
-1.86311
-1.43093
-1.09328
-0.830964
-0.6283
-0.472595
-0.353629
-0.263235
-0.194931
-0.143601
-0.105239
-0.0767261
-0.0556487
-0.0401528
-0.0288224
-0.0205827
-0.0146232
-0.0103364
-0.00726968
-0.00508819
-0.00354559
-0.00246194
-0.00170683
-0.0011866
-0.000834888
-0.000605663
-0.00046826
-0.000403978
-1551.88
-1536.31
-1506.01
-1462.54
-1407.93
-1344.46
-1274.43
-1199.96
-1122.95
-1044.97
-967.341
-891.074
-816.966
-745.618
-677.47
-612.839
-551.938
-494.898
-441.785
-392.604
-347.318
-305.848
-268.079
-233.872
-203.061
-175.464
-150.883
-129.112
-109.937
-93.1461
-78.5251
-65.8664
-54.9691
-45.6419
-37.704
-30.9873
-25.3364
-20.6094
-16.6777
-13.4263
-10.7528
-8.56694
-6.78998
-5.35362
-4.19913
-3.27646
-2.54321
-1.96377
-1.50844
-1.15265
-0.876196
-0.662576
-0.498429
-0.372997
-0.277679
-0.205645
-0.151507
-0.111042
-0.0809629
-0.0587258
-0.042376
-0.0304202
-0.0217251
-0.0154357
-0.0109113
-0.00767445
-0.00537177
-0.00374338
-0.00259941
-0.00180222
-0.00125297
-0.000881627
-0.000639599
-0.000494518
-0.000426643
-1509.47
-1495.91
-1469.4
-1431.08
-1382.51
-1325.45
-1261.75
-1193.2
-1121.44
-1047.94
-973.94
-900.488
-828.437
-758.469
-691.125
-626.815
-565.849
-508.443
-454.736
-404.802
-358.656
-316.265
-277.551
-242.404
-210.679
-182.21
-156.812
-134.284
-114.418
-97.0008
-81.8199
-68.6646
-57.3307
-47.6228
-39.3556
-32.3562
-26.4643
-21.5333
-17.4302
-14.0357
-11.2435
-8.95992
-7.10291
-5.60142
-4.39429
-3.42931
-2.66226
-2.056
-1.57951
-1.20711
-0.917704
-0.694044
-0.522157
-0.390794
-0.290956
-0.215497
-0.158779
-0.116381
-0.0848622
-0.0615587
-0.0444233
-0.031892
-0.0227776
-0.0161845
-0.0114413
-0.00804763
-0.00563328
-0.00392581
-0.00272622
-0.00189023
-0.00131422
-0.000924768
-0.000670928
-0.000518762
-0.000447571
-1475.36
-1463.27
-1439.57
-1405.12
-1361.14
-1309.04
-1250.32
-1186.52
-1119.08
-1049.34
-978.468
-907.514
-837.353
-768.72
-702.22
-638.338
-577.454
-519.854
-465.74
-415.241
-368.422
-325.288
-285.798
-249.865
-217.368
-188.156
-162.053
-138.87
-118.401
-100.436
-84.7626
-71.1688
-59.4481
-49.4018
-40.8412
-33.5892
-27.4816
-22.3676
-18.1105
-14.5873
-11.6881
-9.31622
-7.38687
-5.82646
-4.57164
-3.56831
-2.7706
-2.13998
-1.64425
-1.25675
-0.955559
-0.722755
-0.543816
-0.407045
-0.303084
-0.224501
-0.165427
-0.121264
-0.0884294
-0.064151
-0.0462972
-0.0332395
-0.0237415
-0.0168704
-0.0119268
-0.00838964
-0.00587299
-0.00409307
-0.00284251
-0.00197095
-0.00137041
-0.000964353
-0.00069968
-0.000541016
-0.000466784
-1447.82
-1436.83
-1415.24
-1383.72
-1343.26
-1295
-1240.22
-1180.23
-1116.32
-1049.7
-981.494
-912.716
-844.25
-776.86
-711.195
-647.791
-587.084
-529.413
-475.034
-424.122
-376.781
-333.056
-292.931
-256.348
-223.202
-193.36
-166.656
-142.909
-121.918
-103.477
-87.3734
-73.395
-61.3339
-50.989
-42.1687
-34.6926
-28.3931
-23.1162
-18.7216
-15.0832
-12.0882
-9.63721
-7.64291
-6.02954
-4.73181
-3.69393
-2.86858
-2.21597
-1.70287
-1.30172
-0.989869
-0.748791
-0.563466
-0.421795
-0.314097
-0.232679
-0.171468
-0.125702
-0.0916731
-0.066509
-0.0480023
-0.0344659
-0.0246191
-0.0174951
-0.0123691
-0.00870122
-0.00609143
-0.00424552
-0.00294852
-0.00204456
-0.00142166
-0.00100046
-0.000725913
-0.000561324
-0.000484318
-1425.53
-1415.39
-1395.39
-1366.11
-1328.35
-1283.09
-1231.42
-1174.48
-1113.43
-1049.4
-983.441
-916.535
-849.561
-783.299
-718.425
-655.511
-595.036
-537.381
-482.842
-431.633
-383.895
-339.7
-299.063
-261.944
-228.259
-197.885
-170.672
-146.443
-125.004
-106.152
-89.6745
-75.3612
-63.0026
-52.3959
-43.3472
-35.6736
-29.2046
-23.7834
-19.267
-15.5262
-12.4461
-9.92456
-7.87233
-6.21165
-4.87555
-3.80674
-2.95663
-2.28431
-1.75562
-1.34221
-1.02078
-0.772256
-0.581184
-0.435102
-0.324036
-0.240063
-0.176924
-0.129713
-0.0946048
-0.0686409
-0.0495443
-0.0355755
-0.0254132
-0.0180604
-0.0127696
-0.00898341
-0.0062893
-0.00438365
-0.0030446
-0.00211128
-0.00146812
-0.00103321
-0.000749708
-0.000579748
-0.000500228
-1407.48
-1397.97
-1379.19
-1351.63
-1315.97
-1273.06
-1223.84
-1169.34
-1110.62
-1048.71
-984.629
-919.314
-853.634
-788.374
-724.227
-661.791
-601.574
-543.99
-489.367
-437.952
-389.914
-345.352
-304.303
-266.746
-232.614
-201.797
-174.154
-149.516
-127.694
-108.489
-91.6898
-77.0866
-64.4697
-53.6349
-44.3868
-36.5402
-29.9226
-24.3745
-19.7506
-15.9196
-12.7641
-10.1802
-8.0766
-6.37394
-5.00375
-3.90743
-3.03527
-2.34539
-1.80279
-1.37844
-1.04845
-0.793276
-0.597064
-0.447033
-0.332952
-0.246689
-0.181823
-0.133314
-0.0972389
-0.070557
-0.0509308
-0.0365733
-0.0261276
-0.0185692
-0.01313
-0.00923748
-0.0064675
-0.00450808
-0.00313117
-0.00217141
-0.00151
-0.00106273
-0.000771165
-0.000596365
-0.000514579
-1392.84
-1383.82
-1365.98
-1339.75
-1305.72
-1264.64
-1217.36
-1164.82
-1107.98
-1047.82
-985.29
-921.315
-856.744
-792.362
-728.868
-666.881
-606.927
-549.447
-494.794
-443.241
-394.98
-350.133
-308.755
-270.842
-236.343
-205.158
-177.154
-152.171
-130.025
-110.518
-93.4437
-78.5913
-65.7514
-54.7193
-45.2981
-37.3011
-30.5537
-24.8948
-20.1768
-16.2667
-13.045
-10.4062
-8.25735
-6.51767
-5.11738
-3.99675
-3.10508
-2.39964
-1.84472
-1.41066
-1.07307
-0.811992
-0.61121
-0.457666
-0.340902
-0.252601
-0.186194
-0.13653
-0.0995914
-0.0722688
-0.0521698
-0.0374654
-0.0267664
-0.0190243
-0.0134526
-0.00946487
-0.00662703
-0.00461949
-0.0032087
-0.00222528
-0.00154753
-0.00108919
-0.000790402
-0.000611265
-0.00052745
-1380.98
-1372.33
-1355.22
-1330.02
-1297.26
-1257.62
-1211.88
-1160.9
-1105.58
-1046.83
-985.593
-922.739
-859.11
-795.485
-732.569
-670.99
-611.292
-553.933
-499.287
-447.646
-399.222
-354.155
-312.516
-274.317
-239.517
-208.028
-179.724
-154.452
-132.032
-112.27
-94.9607
-79.8954
-66.8644
-55.6625
-46.092
-37.9649
-31.1052
-25.3499
-20.5502
-16.571
-13.2916
-10.6048
-8.41633
-6.64419
-5.21749
-4.0755
-3.16668
-2.44755
-1.88176
-1.43915
-1.09486
-0.828555
-0.623736
-0.467087
-0.347948
-0.257842
-0.190072
-0.139384
-0.10168
-0.0737892
-0.0532706
-0.0382582
-0.0273344
-0.019429
-0.0137394
-0.00966719
-0.00676901
-0.00471868
-0.00327774
-0.00227325
-0.00158096
-0.00111277
-0.000807548
-0.000624549
-0.000538925
-1371.36
-1363
-1346.45
-1322.06
-1290.3
-1251.8
-1207.28
-1157.54
-1103.43
-1045.85
-985.662
-923.739
-860.902
-797.923
-735.511
-674.298
-614.839
-557.607
-502.991
-451.298
-402.756
-357.521
-315.677
-277.249
-242.204
-210.465
-181.913
-156.399
-133.75
-113.773
-96.2651
-81.0188
-67.8249
-56.4779
-46.7794
-38.5405
-31.584
-25.7457
-20.8752
-16.8362
-13.5067
-10.7782
-8.55529
-6.75489
-5.30514
-4.14451
-3.22069
-2.48958
-1.91429
-1.46418
-1.11401
-0.843127
-0.634762
-0.475383
-0.354156
-0.262462
-0.193492
-0.141901
-0.103523
-0.0751314
-0.0542428
-0.0389586
-0.0278363
-0.0197868
-0.0139931
-0.00984616
-0.00689464
-0.00480646
-0.00333886
-0.00231574
-0.00161058
-0.00113366
-0.000822741
-0.000636323
-0.000549097
-1363.57
-1355.44
-1339.33
-1315.56
-1284.59
-1246.98
-1203.42
-1154.68
-1101.56
-1044.91
-985.584
-924.429
-862.254
-799.823
-737.843
-676.951
-617.711
-560.603
-506.03
-454.311
-405.687
-360.325
-318.321
-279.709
-244.466
-212.523
-183.766
-158.053
-135.212
-115.054
-97.3799
-81.9809
-68.6489
-57.1786
-47.3711
-39.0367
-31.9973
-26.0877
-21.1564
-17.066
-13.6933
-10.9287
-8.67603
-6.85115
-5.38144
-4.20462
-3.26778
-2.52625
-1.94268
-1.48604
-1.13075
-0.855869
-0.644408
-0.482646
-0.359594
-0.266511
-0.19649
-0.144109
-0.10514
-0.0763095
-0.0550965
-0.0395738
-0.0282773
-0.0201013
-0.0142162
-0.0100035
-0.00700515
-0.0048837
-0.00339265
-0.00235314
-0.00163665
-0.00115206
-0.000836126
-0.000646698
-0.000558062
-1357.28
-1349.32
-1333.55
-1310.28
-1279.91
-1243.01
-1200.22
-1152.27
-1099.93
-1044.04
-985.419
-924.896
-863.269
-801.298
-739.686
-679.073
-620.027
-563.038
-508.514
-456.787
-408.106
-362.648
-320.519
-281.762
-246.36
-214.251
-185.327
-159.449
-136.449
-116.141
-98.3272
-82.7999
-69.3517
-57.7772
-47.8773
-39.4618
-32.3519
-26.3815
-21.3982
-17.2638
-13.8541
-11.0586
-8.78031
-6.93436
-5.44744
-4.25667
-3.30858
-2.55805
-1.96732
-1.50502
-1.14529
-0.866946
-0.652799
-0.488966
-0.364328
-0.270037
-0.199102
-0.146034
-0.106551
-0.0773374
-0.0558415
-0.040111
-0.0286625
-0.020376
-0.0144111
-0.0101411
-0.00710179
-0.00495127
-0.00343972
-0.00238587
-0.00165948
-0.00116817
-0.00084785
-0.000655787
-0.000565918
-1352.2
-1344.38
-1328.88
-1305.98
-1276.1
-1239.76
-1197.57
-1150.25
-1098.54
-1043.26
-985.21
-925.203
-864.029
-802.44
-741.139
-680.765
-621.89
-565.008
-510.536
-458.812
-410.093
-364.565
-322.34
-283.467
-247.939
-215.695
-186.634
-160.621
-137.49
-117.058
-99.1275
-83.4932
-69.9476
-58.2856
-48.3078
-39.8239
-32.6543
-26.6324
-21.605
-17.4332
-13.9918
-11.17
-8.86984
-7.00587
-5.50421
-4.30147
-3.34372
-2.58546
-1.98858
-1.52141
-1.15785
-0.876519
-0.660053
-0.494433
-0.368425
-0.273091
-0.201366
-0.147702
-0.107774
-0.0782291
-0.0564881
-0.0405773
-0.028997
-0.0206147
-0.0145805
-0.0102607
-0.00718582
-0.00501003
-0.00348066
-0.00241436
-0.00167935
-0.0011822
-0.00085806
-0.000663705
-0.000572761
-1348.11
-1340.39
-1325.1
-1302.51
-1273
-1237.1
-1195.39
-1148.57
-1097.37
-1042.57
-984.984
-925.397
-864.594
-803.322
-742.28
-682.11
-623.382
-566.597
-512.176
-460.461
-411.719
-366.138
-323.839
-284.876
-249.246
-216.895
-187.723
-161.599
-138.361
-117.827
-99.7999
-84.0766
-70.4499
-58.7148
-48.6719
-40.1305
-32.9108
-26.8454
-21.7808
-17.5773
-14.1092
-11.265
-8.94626
-7.06696
-5.55275
-4.3398
-3.37382
-2.60895
-2.0068
-1.53547
-1.16863
-0.884743
-0.66629
-0.499135
-0.371951
-0.27572
-0.203315
-0.149139
-0.108828
-0.078998
-0.0570459
-0.0409797
-0.0292858
-0.0208208
-0.0147269
-0.0103641
-0.00725845
-0.00506084
-0.00351608
-0.002439
-0.00169654
-0.00119434
-0.000866901
-0.000670562
-0.000578689
-1344.82
-1337.19
-1322.06
-1299.7
-1270.49
-1234.93
-1193.6
-1147.18
-1096.38
-1041.98
-984.76
-925.513
-865.013
-804.002
-743.176
-683.175
-624.574
-567.874
-513.5
-461.799
-413.042
-367.424
-325.068
-286.035
-250.325
-217.886
-188.626
-162.412
-139.086
-118.468
-100.362
-84.565
-70.8711
-59.0752
-48.9781
-40.3887
-33.127
-27.0253
-21.9294
-17.6992
-14.2086
-11.3456
-9.0111
-7.11883
-5.594
-4.37241
-3.39944
-2.62896
-2.02234
-1.54746
-1.17784
-0.891767
-0.671619
-0.503156
-0.374967
-0.27797
-0.204984
-0.150371
-0.109731
-0.0796573
-0.0575243
-0.041325
-0.0295337
-0.0209978
-0.0148525
-0.0104529
-0.00732087
-0.00510452
-0.00354653
-0.00246019
-0.00171134
-0.00120479
-0.000874511
-0.000676466
-0.000583794
-1342.18
-1334.61
-1319.62
-1297.44
-1268.47
-1233.18
-1192.15
-1146.04
-1095.56
-1041.47
-984.548
-925.577
-865.322
-804.524
-743.876
-684.017
-625.523
-568.896
-514.565
-462.88
-414.116
-368.47
-326.072
-286.983
-251.21
-218.702
-189.37
-163.083
-139.686
-118.999
-100.828
-84.9714
-71.2221
-59.3761
-49.234
-40.6049
-33.3082
-27.1762
-22.0542
-17.8017
-14.2923
-11.4134
-9.06579
-7.16264
-5.62886
-4.39999
-3.42112
-2.64591
-2.03551
-1.55763
-1.18565
-0.897731
-0.676147
-0.506574
-0.377533
-0.279885
-0.206406
-0.15142
-0.110501
-0.0802193
-0.0579323
-0.0416196
-0.0297452
-0.0211489
-0.0149599
-0.0105288
-0.00737421
-0.00514186
-0.00357257
-0.00247832
-0.00172399
-0.00121373
-0.000881025
-0.000681521
-0.000588166
-1340.07
-1332.56
-1317.66
-1295.63
-1266.84
-1231.76
-1190.97
-1145.1
-1094.88
-1041.04
-984.355
-925.604
-865.549
-804.924
-744.421
-684.68
-626.275
-569.711
-515.419
-463.75
-414.982
-369.317
-326.886
-287.756
-251.932
-219.37
-189.98
-163.635
-140.181
-119.438
-101.214
-85.3078
-71.5132
-59.6259
-49.4468
-40.7848
-33.4593
-27.3021
-22.1585
-17.8875
-14.3624
-11.4703
-9.11167
-7.19941
-5.65815
-4.42318
-3.43937
-2.66018
-2.0466
-1.56621
-1.19224
-0.902766
-0.679971
-0.509462
-0.379702
-0.281505
-0.207608
-0.152308
-0.111154
-0.0806956
-0.0582782
-0.0418695
-0.0299247
-0.0212771
-0.015051
-0.0105932
-0.00741953
-0.00517359
-0.0035947
-0.00249374
-0.00173476
-0.00122134
-0.000886569
-0.000685824
-0.000591887
-1338.39
-1330.92
-1316.1
-1294.18
-1265.53
-1230.62
-1190.01
-1144.34
-1094.32
-1040.68
-984.184
-925.61
-865.714
-805.229
-744.845
-685.201
-626.87
-570.359
-516.1
-464.447
-415.679
-370
-327.545
-288.382
-252.519
-219.914
-190.478
-164.087
-140.585
-119.798
-101.531
-85.5848
-71.7531
-59.8322
-49.6228
-40.9338
-33.5845
-27.4067
-22.2451
-17.9588
-14.4207
-11.5177
-9.14993
-7.2301
-5.68262
-4.44257
-3.45464
-2.67213
-2.0559
-1.5734
-1.19777
-0.906993
-0.683184
-0.51189
-0.381526
-0.282868
-0.208621
-0.153056
-0.111703
-0.081097
-0.0585698
-0.0420802
-0.0300761
-0.0213853
-0.015128
-0.0106476
-0.00745781
-0.0052004
-0.00361341
-0.00250677
-0.00174386
-0.00122778
-0.00089126
-0.000689466
-0.000595038
-1337.05
-1329.61
-1314.85
-1293.02
-1264.49
-1229.71
-1189.24
-1143.73
-1093.86
-1040.38
-984.035
-925.601
-865.834
-805.462
-745.174
-685.608
-627.339
-570.872
-516.642
-465.003
-416.236
-370.549
-328.076
-288.887
-252.994
-220.354
-190.882
-164.454
-140.915
-120.091
-101.791
-85.8116
-71.9499
-60.0016
-49.7674
-41.0564
-33.6877
-27.4929
-22.3167
-18.0178
-14.469
-11.557
-9.18166
-7.25558
-5.70295
-4.45868
-3.46734
-2.68208
-2.06364
-1.57939
-1.20238
-0.91052
-0.685866
-0.513918
-0.38305
-0.284007
-0.209468
-0.153682
-0.112163
-0.0814332
-0.0588142
-0.0422568
-0.0302031
-0.0214761
-0.0151925
-0.0106933
-0.00748997
-0.00522292
-0.00362913
-0.00251773
-0.00175151
-0.00123319
-0.000895206
-0.000692531
-0.000597689
-1336
-1328.58
-1313.87
-1292.1
-1263.65
-1228.98
-1188.63
-1143.24
-1093.49
-1040.13
-983.907
-925.585
-865.92
-805.638
-745.428
-685.926
-627.707
-571.277
-517.071
-465.445
-416.681
-370.987
-328.5
-289.292
-253.375
-220.709
-191.209
-164.751
-141.183
-120.33
-102.001
-85.9963
-72.1104
-60.1399
-49.8857
-41.1568
-33.7723
-27.5637
-22.3755
-18.0663
-14.5088
-11.5893
-9.20783
-7.2766
-5.71973
-4.472
-3.47784
-2.69031
-2.07006
-1.58436
-1.2062
-0.913447
-0.688093
-0.515603
-0.384318
-0.284955
-0.210172
-0.154203
-0.112546
-0.0817134
-0.0590179
-0.0424041
-0.030309
-0.0215519
-0.0152464
-0.0107314
-0.00751682
-0.00524174
-0.00364227
-0.00252688
-0.00175791
-0.00123772
-0.000898508
-0.000695096
-0.000599909
-1335.16
-1327.76
-1313.09
-1291.38
-1263
-1228.4
-1188.14
-1142.84
-1093.19
-1039.93
-983.799
-925.566
-865.982
-805.772
-745.624
-686.173
-627.995
-571.595
-517.409
-465.794
-417.034
-371.336
-328.839
-289.617
-253.681
-220.994
-191.471
-164.99
-141.399
-120.523
-102.172
-86.146
-72.2406
-60.2523
-49.982
-41.2386
-33.8413
-27.6214
-22.4235
-18.1059
-14.5413
-11.6158
-9.22928
-7.29385
-5.73352
-4.48295
-3.48648
-2.69709
-2.07534
-1.58846
-1.20936
-0.915862
-0.689932
-0.516994
-0.385365
-0.285738
-0.210755
-0.154634
-0.112863
-0.0819454
-0.0591867
-0.0425262
-0.0303969
-0.0216148
-0.0152912
-0.0107631
-0.00753912
-0.00525737
-0.00365319
-0.00253449
-0.00176324
-0.00124148
-0.000901255
-0.00069723
-0.000601756
-1334.5
-1327.12
-1312.47
-1290.8
-1262.47
-1227.94
-1187.75
-1142.52
-1092.95
-1039.76
-983.709
-925.546
-866.025
-805.873
-745.774
-686.365
-628.219
-571.845
-517.675
-466.07
-417.312
-371.612
-329.108
-289.874
-253.925
-221.222
-191.681
-165.181
-141.572
-120.678
-102.309
-86.2666
-72.3457
-60.3431
-50.0598
-41.3048
-33.8972
-27.6683
-22.4625
-18.1382
-14.5678
-11.6374
-9.24677
-7.30793
-5.74478
-4.4919
-3.49355
-2.70263
-2.07967
-1.59181
-1.21194
-0.917844
-0.691441
-0.518137
-0.386225
-0.286383
-0.211235
-0.154989
-0.113125
-0.0821365
-0.0593258
-0.0426269
-0.0304693
-0.0216666
-0.0153281
-0.0107892
-0.00755753
-0.00527028
-0.00366221
-0.00254078
-0.00176763
-0.0012446
-0.000903527
-0.000698996
-0.000603284
-1333.99
-1326.61
-1311.99
-1290.35
-1262.06
-1227.58
-1187.44
-1142.27
-1092.76
-1039.63
-983.634
-925.526
-866.056
-805.949
-745.889
-686.513
-628.394
-572.039
-517.883
-466.286
-417.532
-371.83
-329.321
-290.079
-254.119
-221.403
-191.848
-165.334
-141.71
-120.802
-102.419
-86.3633
-72.4301
-60.4161
-50.1225
-41.3582
-33.9423
-27.7061
-22.494
-18.1643
-14.5892
-11.6549
-9.26096
-7.31936
-5.75393
-4.49917
-3.4993
-2.70715
-2.08319
-1.59455
-1.21405
-0.919461
-0.692673
-0.519071
-0.386929
-0.286909
-0.211627
-0.15528
-0.113338
-0.0822931
-0.0594398
-0.0427094
-0.0305287
-0.0217091
-0.0153584
-0.0108107
-0.00757265
-0.00528089
-0.00366962
-0.00254595
-0.00177125
-0.00124716
-0.000905395
-0.000700448
-0.000604541
-1333.58
-1326.22
-1311.61
-1290
-1261.74
-1227.29
-1187.2
-1142.07
-1092.61
-1039.53
-983.573
-925.508
-866.077
-806.005
-745.977
-686.627
-628.529
-572.19
-518.046
-466.455
-417.704
-372.001
-329.488
-290.24
-254.271
-221.546
-191.981
-165.456
-141.82
-120.9
-102.507
-86.4405
-72.4974
-60.4744
-50.1726
-41.4009
-33.9785
-27.7365
-22.5194
-18.1853
-14.6065
-11.669
-9.2724
-7.32858
-5.76131
-4.50505
-3.50394
-2.7108
-2.08605
-1.59676
-1.21576
-0.920772
-0.693674
-0.519829
-0.3875
-0.287338
-0.211946
-0.155516
-0.113512
-0.0824206
-0.0595326
-0.0427766
-0.0305771
-0.0217438
-0.0153831
-0.0108282
-0.00758499
-0.00528955
-0.00367567
-0.00255018
-0.00177421
-0.00124925
-0.000906923
-0.000701636
-0.00060557
-1333.27
-1325.91
-1311.32
-1289.73
-1261.49
-1227.07
-1187.01
-1141.92
-1092.49
-1039.44
-983.524
-925.492
-866.092
-806.048
-746.044
-686.714
-628.633
-572.307
-518.172
-466.587
-417.838
-372.135
-329.619
-290.366
-254.391
-221.659
-192.085
-165.551
-141.907
-120.978
-102.576
-86.5017
-72.551
-60.5208
-50.2125
-41.435
-34.0074
-27.7608
-22.5396
-18.2021
-14.6203
-11.6803
-9.28157
-7.33598
-5.76725
-4.50977
-3.50768
-2.71374
-2.08835
-1.59855
-1.21714
-0.92183
-0.694481
-0.520442
-0.387962
-0.287684
-0.212204
-0.155707
-0.113653
-0.0825238
-0.0596078
-0.0428311
-0.0306164
-0.021772
-0.0154031
-0.0108424
-0.00759501
-0.00529658
-0.00368059
-0.00255361
-0.00177661
-0.00125095
-0.000908166
-0.000702603
-0.000606407
-1333.03
-1325.67
-1311.09
-1289.51
-1261.3
-1226.9
-1186.86
-1141.8
-1092.4
-1039.38
-983.484
-925.478
-866.102
-806.08
-746.095
-686.781
-628.713
-572.397
-518.269
-466.689
-417.942
-372.239
-329.721
-290.465
-254.485
-221.747
-192.167
-165.626
-141.975
-121.04
-102.631
-86.55
-72.5933
-60.5576
-50.2442
-41.462
-34.0303
-27.7801
-22.5557
-18.2154
-14.6313
-11.6893
-9.28889
-7.34189
-5.77198
-4.51355
-3.51067
-2.7161
-2.09019
-1.59998
-1.21825
-0.92268
-0.695129
-0.520934
-0.388333
-0.287962
-0.212412
-0.155861
-0.113767
-0.0826069
-0.0596684
-0.042875
-0.0306481
-0.0217946
-0.0154193
-0.0108539
-0.0076031
-0.00530226
-0.00368456
-0.00255638
-0.00177855
-0.00125233
-0.000909171
-0.000703385
-0.000607084
-1332.84
-1325.49
-1310.91
-1289.35
-1261.15
-1226.76
-1186.74
-1141.7
-1092.32
-1039.32
-983.452
-925.466
-866.109
-806.103
-746.133
-686.832
-628.774
-572.466
-518.344
-466.768
-418.022
-372.319
-329.8
-290.541
-254.558
-221.816
-192.231
-165.685
-142.028
-121.088
-102.674
-86.588
-72.6266
-60.5865
-50.2691
-41.4833
-34.0484
-27.7953
-22.5685
-18.226
-14.64
-11.6965
-9.2947
-7.34658
-5.77575
-4.51655
-3.51305
-2.71797
-2.09165
-1.60112
-1.21913
-0.923357
-0.695647
-0.521326
-0.38863
-0.288185
-0.212578
-0.155984
-0.113858
-0.0826735
-0.059717
-0.0429102
-0.0306734
-0.0218128
-0.0154323
-0.0108631
-0.00760959
-0.00530682
-0.00368775
-0.00255861
-0.00178011
-0.00125343
-0.000909979
-0.000704014
-0.000607629
-1332.7
-1325.35
-1310.78
-1289.22
-1261.03
-1226.66
-1186.65
-1141.63
-1092.26
-1039.28
-983.427
-925.456
-866.113
-806.121
-746.162
-686.87
-628.821
-572.519
-518.402
-466.828
-418.084
-372.382
-329.862
-290.601
-254.615
-221.869
-192.281
-165.731
-142.07
-121.125
-102.707
-86.6177
-72.6526
-60.6091
-50.2886
-41.5
-34.0626
-27.8073
-22.5785
-18.2343
-14.6469
-11.7021
-9.29928
-7.35029
-5.77873
-4.51893
-3.51494
-2.71945
-2.09282
-1.60202
-1.21983
-0.923895
-0.696058
-0.521638
-0.388865
-0.288361
-0.21271
-0.156082
-0.11393
-0.0827266
-0.0597557
-0.0429383
-0.0306937
-0.0218274
-0.0154426
-0.0108704
-0.00761478
-0.00531046
-0.0036903
-0.00256039
-0.00178136
-0.00125432
-0.000910626
-0.000704517
-0.000608065
-1332.59
-1325.24
-1310.67
-1289.12
-1260.94
-1226.58
-1186.59
-1141.57
-1092.22
-1039.25
-983.407
-925.448
-866.116
-806.133
-746.183
-686.9
-628.856
-572.56
-518.446
-466.875
-418.132
-372.429
-329.909
-290.646
-254.659
-221.91
-192.319
-165.766
-142.102
-121.154
-102.733
-86.6407
-72.6728
-60.6267
-50.3038
-41.5131
-34.0736
-27.8166
-22.5863