/*--------------------------------*- C++ -*----------------------------------*\
  =========                 |
  \\      /  F ield         | OpenFOAM: The Open Source CFD Toolbox
   \\    /   O peration     | Website:  https://openfoam.org
    \\  /    A nd           | Version:  10
     \\/     M anipulation  |
\*---------------------------------------------------------------------------*/
FoamFile
{
    format      ascii;
    class       volScalarField;
    location    "140";
    object      gradTz;
}
// * * * * * * * * * * * * * * * * * * * * * * * * * * * * * * * * * * * * * //

dimensions      [0 -1 0 1 0 0 0];

internalField   nonuniform List<scalar> 
11250
(
-14380.7
-4175.13
-1552.81
-746.343
-438.03
-292.3
-210.519
-158.523
-122.449
-95.8702
-75.4847
-59.4483
-46.653
-36.3827
-28.1399
-21.5539
-16.3316
-12.2313
-9.04874
-6.60956
-4.7651
-3.38977
-2.37894
-1.64683
-1.1244
-0.757148
-0.502815
-0.329308
-0.212701
-0.135495
-0.085127
-0.0527473
-0.0322317
-0.0194187
-0.01153
-0.00674242
-0.00387928
-0.00219318
-0.00121648
-0.000660806
-0.000350896
-0.000181809
-9.1755e-05
-4.50354e-05
-2.14694e-05
-9.93057e-06
-4.45325e-06
-1.93505e-06
-8.14476e-07
-3.32037e-07
-1.31115e-07
-5.01523e-08
-1.8598e-08
-6.69876e-09
-2.33134e-09
-7.89187e-10
-2.68916e-10
-8.45165e-11
-1.31714e-11
0
0
0
-2.08547e-11
-1.09762e-12
2.19523e-11
1.09762e-12
-1.09762e-12
0
1.09762e-12
-1.09762e-12
0
-5.48809e-12
-1.09762e-12
6.5857e-12
0
-8345.85
-4940.41
-2841.01
-1739.56
-1150.47
-812.217
-601.349
-459.53
-358.005
-281.803
-222.672
-175.799
-138.206
-107.922
-83.5546
-64.0481
-48.5591
-36.3852
-26.9285
-19.676
-14.1891
-10.096
-7.08673
-4.90661
-3.35057
-2.25647
-1.49866
-0.981609
-0.634077
-0.403949
-0.253805
-0.157275
-0.0961106
-0.057908
-0.0343862
-0.0201101
-0.011572
-0.00654348
-0.00363025
-0.00197256
-0.0010478
-0.000543108
-0.000274217
-0.000134658
-6.42291e-05
-2.97259e-05
-1.33383e-05
-5.79945e-06
-2.44262e-06
-9.96446e-07
-3.93715e-07
-1.50712e-07
-5.59082e-08
-2.01149e-08
-7.02475e-09
-2.36976e-09
-7.83699e-10
-2.63428e-10
-6.25642e-11
-1.09762e-12
-3.29285e-12
1.09762e-12
1.09762e-12
8.78094e-12
-1.09762e-12
-1.20738e-11
1.09762e-12
2.19523e-12
-1.09762e-12
-4.39047e-12
1.09762e-12
4.39047e-12
0
-8.78094e-12
8.78094e-12
-5711.07
-4394.55
-3126.64
-2216.48
-1608.95
-1202.56
-921.877
-719.889
-568.701
-451.814
-359.291
-284.946
-224.753
-175.938
-136.47
-104.763
-79.52
-59.6396
-44.1724
-32.2959
-23.3018
-16.5873
-11.6475
-8.06692
-5.51015
-3.71174
-2.46571
-1.61531
-1.04359
-0.664929
-0.417835
-0.258951
-0.158263
-0.0953686
-0.0566394
-0.0331312
-0.0190697
-0.0107868
-0.005987
-0.00325489
-0.00173009
-0.000897438
-0.000453511
-0.000222916
-0.000106437
-4.9315e-05
-2.21539e-05
-9.64418e-06
-4.06705e-06
-1.66126e-06
-6.57269e-07
-2.51894e-07
-9.35499e-08
-3.37111e-08
-1.17884e-08
-3.98984e-09
-1.30726e-09
-4.18192e-10
-1.09762e-10
-4.39047e-12
-3.29285e-12
0
1.09762e-12
5.48809e-12
-1.09762e-12
-5.48809e-12
0
0
0
-1.09762e-11
0
1.20738e-11
1.09762e-12
-1.09762e-12
-1.09762e-12
-4383.95
-3791.67
-3046.88
-2384.27
-1861.18
-1463.58
-1161.64
-928.866
-745.854
-599.359
-480.523
-383.364
-303.72
-238.553
-185.518
-142.706
-108.496
-81.4782
-60.4119
-44.2083
-31.9204
-22.7367
-15.9741
-11.0685
-7.56337
-5.09658
-3.38667
-2.21923
-1.43409
-0.913923
-0.574407
-0.356048
-0.217644
-0.131175
-0.0779224
-0.0455936
-0.0262526
-0.014857
-0.00825118
-0.0044893
-0.00238845
-0.0012403
-0.000627555
-0.000308892
-0.000147711
-6.85484e-05
-3.08464e-05
-1.3452e-05
-5.68314e-06
-2.32564e-06
-9.2183e-07
-3.53971e-07
-1.31703e-07
-4.7529e-08
-1.66377e-08
-5.64614e-09
-1.85497e-09
-5.92713e-10
-1.70131e-10
-3.29285e-11
-1.20738e-11
-1.09762e-12
-1.20738e-11
-1.09762e-12
1.4269e-11
1.09762e-12
0
0
-2.19524e-12
0
8.78094e-12
1.09762e-12
-9.87856e-12
0
0
-3636.92
-3329.66
-2874.45
-2403.57
-1980.87
-1623.95
-1329.39
-1087.28
-887.537
-721.861
-583.92
-468.981
-373.446
-294.473
-229.712
-177.133
-134.935
-101.496
-75.3533
-55.2026
-39.8954
-28.4394
-19.994
-13.8618
-9.47684
-6.38874
-4.24691
-2.78385
-1.79948
-1.14708
-0.721119
-0.447085
-0.273352
-0.16479
-0.0979174
-0.0573129
-0.0330156
-0.0186955
-0.0103911
-0.00565904
-0.00301433
-0.00156748
-0.000794348
-0.000391679
-0.000187659
-8.72659e-05
-3.93541e-05
-1.72007e-05
-7.28369e-06
-2.98764e-06
-1.18705e-06
-4.56904e-07
-1.70417e-07
-6.16301e-08
-2.16143e-08
-7.34855e-09
-2.43013e-09
-7.76016e-10
-2.18426e-10
-5.26856e-11
-1.64643e-11
0
2.19523e-12
1.09762e-12
5.48809e-12
-2.19523e-12
-4.39047e-12
1.09762e-12
2.19523e-12
-5.48809e-12
-2.19523e-12
4.39047e-12
0
-5.48809e-12
5.48809e-12
-3181.78
-3000.95
-2704.44
-2363.43
-2025.88
-1715.7
-1441.09
-1202.31
-996.474
-819.92
-669.158
-541.134
-433.204
-343.03
-268.484
-207.587
-158.48
-119.419
-88.7919
-65.1286
-47.1185
-33.6185
-23.6532
-16.4096
-11.2251
-7.57115
-5.03515
-3.30182
-2.13503
-1.36139
-0.856082
-0.530896
-0.324676
-0.195782
-0.11637
-0.0681403
-0.0392732
-0.0222542
-0.0123799
-0.00674974
-0.00360021
-0.00187516
-0.000952034
-0.000470403
-0.000225886
-0.000105297
-4.7607e-05
-2.0863e-05
-8.85855e-06
-3.64369e-06
-1.45177e-06
-5.60388e-07
-2.09618e-07
-7.60045e-08
-2.67083e-08
-9.09815e-09
-3.02284e-09
-9.74684e-10
-2.89771e-10
-6.69547e-11
-7.68332e-12
0
4.39047e-12
0
-5.48809e-12
1.09762e-12
0
0
0
-1.09762e-11
-2.19523e-12
4.39047e-12
1.09762e-12
4.39047e-12
3.29285e-12
-2889.15
-2770.5
-2563.17
-2306.38
-2032.93
-1764.4
-1512.67
-1283.19
-1077.7
-896.111
-737.427
-600.27
-483.064
-384.118
-301.664
-233.886
-178.964
-135.109
-100.617
-73.9001
-53.525
-38.2264
-26.9176
-18.6879
-12.7917
-8.63251
-5.74379
-3.76813
-2.43748
-1.55478
-0.977984
-0.606663
-0.371114
-0.223849
-0.133096
-0.0779672
-0.0449619
-0.0254964
-0.0141972
-0.00774998
-0.00413992
-0.00216012
-0.00109896
-0.000544254
-0.000262009
-0.000122466
-5.55272e-05
-2.44059e-05
-1.03943e-05
-4.28852e-06
-1.71398e-06
-6.63627e-07
-2.49e-07
-9.05743e-08
-3.19264e-08
-1.08993e-08
-3.61555e-09
-1.17006e-09
-3.80873e-10
-9.43951e-11
-1.09762e-12
1.09762e-12
-1.09762e-12
-1.09762e-12
1.09762e-12
-1.09762e-12
0
0
0
0
0
-4.39047e-12
-1.09762e-12
0
5.48809e-12
-2694.15
-2608.71
-2453.25
-2250.58
-2022.91
-1787.72
-1557.11
-1338.68
-1136.84
-953.895
-790.789
-647.575
-523.68
-418.077
-329.41
-256.091
-196.396
-148.55
-110.803
-81.4921
-59.0923
-42.2446
-29.7729
-20.6858
-14.1686
-9.56727
-6.36901
-4.18019
-2.70512
-1.72611
-1.08611
-0.673933
-0.412381
-0.248814
-0.147989
-0.0867281
-0.050042
-0.0283984
-0.0158288
-0.00865162
-0.00462884
-0.00241978
-0.00123375
-0.000612506
-0.000295659
-0.000138593
-6.30299e-05
-2.77907e-05
-1.18739e-05
-4.91493e-06
-1.97075e-06
-7.65549e-07
-2.88171e-07
-1.05129e-07
-3.71719e-08
-1.27302e-08
-4.24119e-09
-1.39397e-09
-4.33559e-10
-1.16347e-10
-1.86595e-11
0
3.29285e-12
0
0
-1.09762e-12
0
-1.20738e-11
0
1.31714e-11
1.09762e-12
-8.78094e-12
-8.78094e-12
4.39047e-12
1.09762e-11
-2561.16
-2494.61
-2370.35
-2202.6
-2006.82
-1796.89
-1583.89
-1376.04
-1179.1
-996.86
-831.645
-684.621
-556.061
-445.546
-352.121
-274.445
-210.924
-159.829
-119.401
-87.9324
-63.8354
-45.6807
-32.2224
-22.4047
-15.3561
-10.3752
-6.91048
-4.53768
-2.93767
-1.87519
-1.1803
-0.732595
-0.448402
-0.270625
-0.161014
-0.0943993
-0.0544976
-0.0309495
-0.0172676
-0.00944998
-0.00506399
-0.00265231
-0.00135531
-0.00067454
-0.000326497
-0.0001535
-7.00251e-05
-3.09738e-05
-1.32772e-05
-5.51387e-06
-2.21818e-06
-8.64469e-07
-3.26442e-07
-1.19464e-07
-4.2345e-08
-1.45456e-08
-4.86574e-09
-1.61569e-09
-5.1588e-10
-1.54764e-10
-4.06118e-11
-1.09762e-12
0
0
1.09762e-12
6.58571e-12
-1.09762e-12
-6.5857e-12
1.09762e-12
-1.09762e-12
0
1.09762e-12
0
-1.09762e-12
0
-2469.12
-2413.84
-2308.89
-2163.87
-1990.07
-1798.67
-1599.54
-1400.82
-1208.84
-1028.29
-862.375
-713.093
-581.384
-467.332
-370.344
-289.317
-222.793
-169.109
-126.517
-93.2905
-67.7992
-48.5635
-34.2845
-23.856
-16.3614
-11.0609
-7.37093
-4.84224
-3.13612
-2.00259
-1.26089
-0.782847
-0.479289
-0.289343
-0.172202
-0.100996
-0.0583344
-0.0331509
-0.0185128
-0.0101437
-0.00544406
-0.00285665
-0.00146289
-0.000729866
-0.000354226
-0.000167016
-7.64218e-05
-3.39087e-05
-1.45814e-05
-6.07483e-06
-2.4516e-06
-9.58445e-07
-3.63031e-07
-1.33233e-07
-4.73885e-08
-1.63457e-08
-5.4837e-09
-1.81875e-09
-5.87225e-10
-1.78912e-10
-4.39047e-11
9.87856e-12
0
-9.87856e-12
0
1.64643e-11
1.09762e-12
-1.64643e-11
-1.09762e-12
2.19524e-12
5.48809e-12
-2.19524e-12
-5.48809e-12
0
0
-2404.87
-2356.55
-2263.84
-2133.75
-1975.03
-1796.96
-1608.36
-1417.04
-1229.52
-1050.96
-885.134
-734.615
-600.84
-484.299
-384.698
-301.144
-232.309
-176.601
-132.297
-97.6651
-71.0502
-50.9373
-35.9885
-25.059
-17.1972
-11.6322
-7.75548
-5.09711
-3.30247
-2.10955
-1.32865
-0.825142
-0.505308
-0.305123
-0.18164
-0.106565
-0.0615775
-0.0350149
-0.0195699
-0.0107347
-0.00576935
-0.00303255
-0.00155611
-0.000778152
-0.000378613
-0.000178996
-8.21355e-05
-3.65501e-05
-1.57637e-05
-6.58684e-06
-2.66606e-06
-1.04527e-06
-3.97021e-07
-1.46132e-07
-5.21346e-08
-1.8035e-08
-6.07092e-09
-2.00535e-09
-6.50887e-10
-1.99766e-10
-4.28071e-11
-1.09762e-12
-1.09762e-12
-1.09762e-12
1.09762e-12
1.09762e-12
1.09762e-12
-1.09762e-12
0
0
1.09762e-12
-6.5857e-12
0
5.48809e-12
0
-2359.85
-2315.93
-2231.11
-2110.9
-1962.5
-1793.9
-1613.1
-1427.54
-1243.76
-1067.11
-901.758
-750.637
-615.55
-497.291
-395.809
-310.383
-239.802
-182.54
-136.907
-101.172
-73.6687
-52.8571
-37.3715
-26.0386
-17.8795
-12.0999
-8.071
-5.30665
-3.4395
-2.1978
-1.38463
-0.86012
-0.526845
-0.318193
-0.18946
-0.111181
-0.0642673
-0.0365625
-0.0204492
-0.0112277
-0.00604172
-0.00318054
-0.00163498
-0.000819267
-0.000399517
-0.000189336
-8.71001e-05
-3.88602e-05
-1.68042e-05
-7.04009e-06
-2.85693e-06
-1.12296e-06
-4.27611e-07
-1.57764e-07
-5.64011e-08
-1.95837e-08
-6.61095e-09
-2.18316e-09
-7.05768e-10
-2.04157e-10
-3.84166e-11
-9.87856e-12
-1.31714e-11
0
-9.87856e-12
-2.08547e-11
8.78094e-12
2.19523e-11
0
0
0
0
-2.19524e-12
-3.29285e-12
5.48809e-12
-2328.27
-2287.19
-2207.51
-2093.89
-1952.54
-1790.6
-1615.47
-1434.27
-1253.46
-1078.5
-913.75
-762.4
-626.505
-507.084
-404.269
-317.479
-245.601
-187.168
-140.52
-103.935
-75.7408
-54.3824
-38.4743
-26.8222
-18.427
-12.4762
-8.3254
-5.47596
-3.55042
-2.26935
-1.43008
-0.888552
-0.544363
-0.328827
-0.195824
-0.114937
-0.0664557
-0.037822
-0.0211653
-0.0116299
-0.00626447
-0.00330199
-0.00169999
-0.000853322
-0.000416923
-0.000197993
-9.12794e-05
-4.08154e-05
-1.76892e-05
-7.42746e-06
-3.02079e-06
-1.18997e-06
-4.54076e-07
-1.67872e-07
-6.0156e-08
-2.09228e-08
-7.07305e-09
-2.33244e-09
-7.47478e-10
-2.18426e-10
-6.0369e-11
-4.39047e-12
0
-1.86595e-11
-4.39047e-12
9.87856e-12
3.29285e-12
3.29285e-12
1.09762e-12
0
-1.09762e-12
0
0
1.09762e-12
-1.09762e-12
-2306.16
-2266.93
-2190.64
-2081.42
-1944.87
-1787.58
-1616.51
-1438.54
-1260.02
-1086.45
-922.299
-770.925
-634.549
-514.355
-410.611
-322.843
-250.016
-190.714
-143.303
-106.075
-77.3525
-55.5735
-39.3387
-27.4383
-18.8587
-12.7736
-8.52703
-5.61044
-3.6387
-2.32639
-1.46636
-0.911269
-0.558368
-0.337329
-0.20091
-0.117937
-0.0682019
-0.038826
-0.0217359
-0.0119503
-0.00644211
-0.00339902
-0.00175205
-0.000880683
-0.00043096
-0.000205001
-9.46765e-05
-4.24108e-05
-1.84143e-05
-7.74597e-06
-3.15599e-06
-1.24542e-06
-4.76052e-07
-1.76299e-07
-6.32831e-08
-2.20336e-08
-7.45941e-09
-2.46964e-09
-7.90285e-10
-2.21719e-10
-4.50023e-11
-8.78094e-12
-1.20738e-11
-1.09762e-12
1.31714e-11
2.19523e-12
-2.19523e-12
-1.09762e-12
1.09762e-12
-1.09762e-12
-4.39047e-12
-7.68332e-12
3.29285e-12
1.31714e-11
-3.29285e-12
-2290.75
-2252.73
-2178.68
-2072.4
-1939.12
-1785.04
-1616.85
-1441.22
-1264.42
-1091.94
-928.327
-777.025
-640.377
-519.677
-415.294
-326.835
-253.325
-193.387
-145.413
-107.704
-78.5854
-56.4882
-40.0047
-27.9146
-19.1934
-13.0049
-8.68416
-5.71547
-3.70778
-2.3711
-1.49483
-0.929115
-0.569373
-0.34401
-0.204903
-0.120288
-0.0695681
-0.0396098
-0.0221804
-0.0121995
-0.0065801
-0.00347436
-0.0017925
-0.000901961
-0.000441895
-0.000210473
-9.73353e-05
-4.36628e-05
-1.89847e-05
-7.99719e-06
-3.26289e-06
-1.28936e-06
-4.93491e-07
-1.83004e-07
-6.57868e-08
-2.29139e-08
-7.75028e-09
-2.54208e-09
-8.02358e-10
-2.56842e-10
-7.24428e-11
-3.29285e-12
1.09762e-12
0
4.39047e-12
0
-4.39047e-12
-1.09762e-12
0
-4.39047e-12
4.39047e-12
5.48809e-12
-4.39047e-12
1.09762e-12
-1.09762e-12
-2280.05
-2242.83
-2170.27
-2065.96
-1934.89
-1783.02
-1616.84
-1442.89
-1267.35
-1095.7
-932.532
-781.339
-644.544
-523.518
-418.702
-329.761
-255.765
-195.371
-146.987
-108.925
-79.513
-57.1791
-40.5096
-28.2768
-19.4487
-13.1817
-8.80459
-5.79614
-3.76095
-2.40557
-1.51681
-0.942901
-0.577877
-0.349169
-0.207982
-0.122098
-0.0706163
-0.0402092
-0.022519
-0.0123885
-0.00668444
-0.00353116
-0.00182293
-0.000917957
-0.000450112
-0.000214586
-9.93354e-05
-4.46057e-05
-1.94149e-05
-8.18695e-06
-3.34378e-06
-1.32266e-06
-5.06721e-07
-1.88078e-07
-6.76506e-08
-2.35878e-08
-7.98517e-09
-2.59587e-09
-8.05651e-10
-2.63428e-10
-8.67118e-11
-8.78094e-12
4.39047e-12
8.78094e-12
0
-8.78094e-12
0
-4.39047e-12
0
-6.58571e-12
-1.09762e-12
9.87856e-12
9.87856e-12
1.09762e-12
-8.78094e-12
-2272.68
-2235.99
-2164.41
-2061.41
-1931.83
-1781.47
-1616.69
-1443.92
-1269.28
-1098.26
-935.434
-784.354
-647.486
-526.254
-421.148
-331.875
-257.539
-196.82
-148.142
-109.826
-80.2
-57.6927
-40.8861
-28.5478
-19.6402
-13.3147
-8.89539
-5.85711
-3.8012
-2.43171
-1.5335
-0.953376
-0.584338
-0.353085
-0.210315
-0.123465
-0.0714052
-0.040658
-0.0227711
-0.0125285
-0.00676124
-0.00357275
-0.00184512
-0.000929573
-0.000456064
-0.00021756
-0.00010078
-4.52866e-05
-1.97256e-05
-8.32403e-06
-3.40223e-06
-1.34673e-06
-5.1631e-07
-1.91753e-07
-6.90281e-08
-2.40905e-08
-8.12896e-09
-2.64197e-09
-8.44068e-10
-2.78795e-10
-7.79308e-11
-9.87856e-12
-2.19523e-12
4.39047e-12
2.19523e-12
-5.48809e-12
-2.19523e-12
0
2.19523e-12
-6.5857e-12
-4.39047e-12
6.5857e-12
4.39047e-12
8.78094e-12
-7.68332e-12
-2267.64
-2231.29
-2160.36
-2058.24
-1929.66
-1780.32
-1616.49
-1444.54
-1270.55
-1099.98
-937.416
-786.437
-649.538
-528.177
-422.879
-333.381
-258.81
-197.863
-148.978
-110.48
-80.7009
-58.0684
-41.1624
-28.7472
-19.7815
-13.4131
-8.96276
-5.90244
-3.83119
-2.45121
-1.54597
-0.961204
-0.589166
-0.356008
-0.212052
-0.12448
-0.0719877
-0.0409873
-0.0229548
-0.0126297
-0.00681629
-0.00360234
-0.00186078
-0.000937725
-0.00046022
-0.000219628
-0.000101782
-4.57579e-05
-1.99403e-05
-8.41874e-06
-3.44257e-06
-1.36332e-06
-5.22923e-07
-1.94325e-07
-6.99709e-08
-2.44176e-08
-8.27823e-09
-2.7166e-09
-8.62727e-10
-2.74404e-10
-7.4638e-11
1.09762e-12
-1.09762e-12
0
0
0
-1.09762e-12
0
1.09762e-12
-1.4269e-11
4.39047e-12
9.87856e-12
-3.29285e-12
4.39047e-12
-1.09762e-12
-2264.22
-2228.1
-2157.6
-2056.05
-1928.13
-1779.48
-1616.3
-1444.91
-1271.37
-1101.12
-938.756
-787.86
-650.951
-529.512
-424.088
-334.438
-259.707
-198.603
-149.573
-110.948
-81.0604
-58.339
-41.3621
-28.8918
-19.8843
-13.4848
-9.01196
-5.93561
-3.85317
-2.46553
-1.55513
-0.96696
-0.592713
-0.358152
-0.213323
-0.125219
-0.0724097
-0.0412243
-0.0230858
-0.0127011
-0.00685477
-0.0036228
-0.00187151
-0.00094326
-0.000463021
-0.000221014
-0.00010245
-4.60708e-05
-2.00825e-05
-8.48132e-06
-3.4692e-06
-1.37428e-06
-5.2729e-07
-1.95998e-07
-7.05856e-08
-2.46492e-08
-8.36385e-09
-2.73746e-09
-8.76996e-10
-2.77697e-10
-8.01261e-11
-1.4269e-11
3.29285e-12
0
1.09762e-12
8.78094e-12
0
-9.87856e-12
0
0
9.87856e-12
3.29285e-12
-1.4269e-11
-2.19523e-12
3.29285e-12
-2261.93
-2225.95
-2155.73
-2054.56
-1927.08
-1778.89
-1616.14
-1445.14
-1271.9
-1101.88
-939.652
-788.821
-651.913
-530.426
-424.921
-335.171
-260.331
-199.121
-149.991
-111.277
-81.3146
-58.5309
-41.5041
-28.9949
-19.9578
-13.5363
-9.04732
-5.95951
-3.86904
-2.47588
-1.56176
-0.971123
-0.595277
-0.359699
-0.214238
-0.125748
-0.07271
-0.0413915
-0.0231774
-0.0127505
-0.00688104
-0.00363659
-0.00187865
-0.000946903
-0.000464845
-0.000221908
-0.000102879
-4.62704e-05
-2.01729e-05
-8.52093e-06
-3.48601e-06
-1.38118e-06
-5.30005e-07
-1.97036e-07
-7.09752e-08
-2.47952e-08
-8.40885e-09
-2.78136e-09
-9.06632e-10
-2.88673e-10
-9.43951e-11
-8.78094e-12
7.68332e-12
-8.78094e-12
-1.09762e-11
9.87856e-12
9.87856e-12
5.48809e-12
-1.09762e-12
-4.39047e-12
0
-1.09762e-12
0
0
1.09762e-12
-2260.4
-2224.52
-2154.48
-2053.56
-1926.36
-1778.47
-1616.02
-1445.27
-1272.24
-1102.37
-940.245
-789.463
-652.56
-531.044
-425.487
-335.671
-260.76
-199.477
-150.28
-111.506
-81.4916
-58.665
-41.6037
-29.0673
-20.0095
-13.5726
-9.07236
-5.97646
-3.88031
-2.48324
-1.56647
-0.974085
-0.5971
-0.360796
-0.214884
-0.12612
-0.0729197
-0.0415073
-0.0232401
-0.012784
-0.00689858
-0.00364567
-0.00188329
-0.000949232
-0.000465997
-0.000222467
-0.000103143
-4.63929e-05
-2.0228e-05
-8.54496e-06
-3.49618e-06
-1.38537e-06
-5.31679e-07
-1.97663e-07
-7.11992e-08
-2.48676e-08
-8.43739e-09
-2.78575e-09
-9.13218e-10
-3.0404e-10
-9.7688e-11
-1.75619e-11
1.20738e-11
0
-2.19523e-12
0
1.09762e-12
-1.09762e-12
0
-2.19524e-12
-2.19523e-12
6.58571e-12
-3.29285e-12
-7.68332e-12
8.78094e-12
-2259.39
-2223.57
-2153.65
-2052.89
-1925.88
-1778.19
-1615.92
-1445.34
-1272.46
-1102.69
-940.634
-789.886
-652.989
-531.457
-425.867
-336.009
-261.05
-199.72
-150.478
-111.663
-81.6131
-58.7573
-41.6724
-29.1175
-20.0454
-13.5979
-9.0898
-5.98829
-3.8882
-2.4884
-1.56978
-0.976161
-0.598375
-0.361562
-0.215333
-0.126377
-0.0730637
-0.0415861
-0.0232823
-0.0128062
-0.00691006
-0.00365151
-0.00188622
-0.000950683
-0.000466704
-0.000222805
-0.000103302
-4.64654e-05
-2.02603e-05
-8.55901e-06
-3.5021e-06
-1.38779e-06
-5.32647e-07
-1.98028e-07
-7.13495e-08
-2.49203e-08
-8.44726e-09
-2.78246e-09
-9.05534e-10
-3.05138e-10
-8.01261e-11
-1.09762e-11
-1.64643e-11
0
1.64643e-11
0
1.09762e-12
0
0
-1.31714e-11
0
1.20738e-11
-3.29285e-12
1.09762e-12
2.19524e-12
-2258.73
-2222.95
-2153.1
-2052.45
-1925.56
-1778
-1615.85
-1445.38
-1272.59
-1102.89
-940.885
-790.162
-653.271
-531.729
-426.119
-336.233
-261.243
-199.882
-150.61
-111.768
-81.6953
-58.8199
-41.7191
-29.1517
-20.07
-13.6152
-9.10179
-5.99644
-3.89363
-2.49195
-1.57206
-0.977592
-0.599253
-0.362088
-0.21564
-0.126552
-0.0731609
-0.0416388
-0.0233102
-0.0128206
-0.00691743
-0.0036552
-0.00188804
-0.000951567
-0.000467127
-0.000223004
-0.000103394
-4.6507e-05
-2.02786e-05
-8.5669e-06
-3.50542e-06
-1.38913e-06
-5.33173e-07
-1.98244e-07
-7.14329e-08
-2.49379e-08
-8.44946e-09
-2.79673e-09
-9.01144e-10
-2.89771e-10
-7.68332e-11
-6.5857e-12
0
-1.09762e-12
-4.39047e-12
1.20738e-11
4.39047e-12
-1.09762e-11
-2.19523e-12
-1.09762e-12
2.19523e-12
0
0
-1.09762e-11
1.20738e-11
-2258.31
-2222.56
-2152.75
-2052.16
-1925.35
-1777.87
-1615.81
-1445.41
-1272.67
-1103.02
-941.046
-790.34
-653.454
-531.907
-426.284
-336.381
-261.371
-199.989
-150.698
-111.838
-81.75
-58.8617
-41.7503
-29.1746
-20.0865
-13.6268
-9.10989
-6.00196
-3.89732
-2.49437
-1.57361
-0.978564
-0.599848
-0.362443
-0.215847
-0.126669
-0.0732254
-0.0416734
-0.0233284
-0.0128299
-0.00692209
-0.00365749
-0.00188915
-0.000952095
-0.000467374
-0.000223118
-0.000103446
-4.65301e-05
-2.02887e-05
-8.57121e-06
-3.50722e-06
-1.38985e-06
-5.3346e-07
-1.98372e-07
-7.14527e-08
-2.49335e-08
-8.44617e-09
-2.78356e-09
-9.05534e-10
-2.73307e-10
-8.23213e-11
-2.74404e-11
-2.19524e-12
0
1.75619e-11
0
-1.4269e-11
0
1.09762e-12
-5.48809e-12
-2.19523e-12
6.58571e-12
-1.09762e-12
-1.09762e-12
2.19524e-12
-2258.04
-2222.3
-2152.53
-2051.98
-1925.22
-1777.79
-1615.77
-1445.42
-1272.73
-1103.11
-941.149
-790.454
-653.571
-532.021
-426.391
-336.476
-261.454
-200.059
-150.755
-111.884
-81.786
-58.8892
-41.771
-29.1898
-20.0975
-13.6346
-9.11528
-6.00564
-3.89979
-2.49599
-1.57465
-0.979215
-0.600246
-0.36268
-0.215984
-0.126746
-0.0732675
-0.0416958
-0.02334
-0.0128358
-0.00692499
-0.00365889
-0.00188981
-0.000952405
-0.000467517
-0.000223183
-0.000103474
-4.65427e-05
-2.02941e-05
-8.57349e-06
-3.50816e-06
-1.39023e-06
-5.33592e-07
-1.9841e-07
-7.14703e-08
-2.4939e-08
-8.46044e-09
-2.79344e-09
-9.01144e-10
-2.66721e-10
-7.24428e-11
-2.41476e-11
4.39047e-12
4.39047e-12
-4.39047e-12
-2.19524e-12
0
0
0
0
0
0
1.09762e-12
1.09762e-12
-2.19524e-12
-2257.87
-2222.14
-2152.39
-2051.86
-1925.13
-1777.73
-1615.75
-1445.43
-1272.76
-1103.16
-941.213
-790.526
-653.645
-532.093
-426.458
-336.537
-261.507
-200.104
-150.792
-111.914
-81.8092
-58.907
-41.7844
-29.1996
-20.1046
-13.6397
-9.11882
-6.00807
-3.90142
-2.49706
-1.57534
-0.979645
-0.600508
-0.362835
-0.216073
-0.126797
-0.0732947
-0.0417102
-0.0233473
-0.0128395
-0.00692676
-0.00365974
-0.0018902
-0.000952584
-0.000467597
-0.000223219
-0.00010349
-4.65493e-05
-2.02969e-05
-8.57465e-06
-3.50864e-06
-1.39043e-06
-5.33672e-07
-1.98428e-07
-7.14878e-08
-2.4951e-08
-8.43848e-09
-2.79124e-09
-8.97851e-10
-2.8099e-10
-9.00046e-11
-1.31714e-11
2.19523e-12
-2.19523e-12
-2.19523e-12
4.39047e-12
1.09762e-12
-3.29285e-12
0
0
2.19523e-12
0
-2.19523e-12
-5.48809e-12
5.48809e-12
-2257.76
-2222.04
-2152.3
-2051.79
-1925.08
-1777.7
-1615.74
-1445.43
-1272.78
-1103.19
-941.252
-790.57
-653.692
-532.139
-426.501
-336.576
-261.541
-200.133
-150.816
-111.933
-81.824
-58.9184
-41.7929
-29.206
-20.1092
-13.6429
-9.12111
-6.00964
-3.90248
-2.49775
-1.57578
-0.979926
-0.600678
-0.362936
-0.216131
-0.126829
-0.073312
-0.0417192
-0.0233519
-0.0128417
-0.00692785
-0.00366024
-0.00189043
-0.000952688
-0.000467643
-0.000223238
-0.000103498
-4.65528e-05
-2.02984e-05
-8.57525e-06
-3.50886e-06
-1.39051e-06
-5.33709e-07
-1.98447e-07
-7.14922e-08
-2.49543e-08
-8.43848e-09
-2.78356e-09
-9.03339e-10
-2.88673e-10
-8.67118e-11
-1.4269e-11
-4.39047e-12
-1.09762e-12
5.48809e-12
1.09762e-12
0
2.19523e-12
-1.09762e-12
-6.58571e-12
0
2.19524e-12
-1.4269e-11
4.39047e-12
1.31714e-11
-2257.69
-2221.98
-2152.24
-2051.74
-1925.05
-1777.68
-1615.73
-1445.43
-1272.79
-1103.21
-941.277
-790.598
-653.721
-532.167
-426.528
-336.6
-261.562
-200.15
-150.831
-111.945
-81.8333
-58.9256
-41.7983
-29.2099
-20.1121
-13.645
-9.12256
-6.01064
-3.90315
-2.4982
-1.57607
-0.980105
-0.600788
-0.363001
-0.216168
-0.126849
-0.0733229
-0.0417249
-0.0233547
-0.0128431
-0.0069285
-0.00366054
-0.00189057
-0.000952746
-0.000467668
-0.000223249
-0.000103503
-4.65547e-05
-2.02991e-05
-8.57557e-06
-3.50898e-06
-1.39055e-06
-5.33732e-07
-1.98458e-07
-7.14966e-08
-2.49565e-08
-8.44178e-09
-2.76929e-09
-9.00046e-10
-2.86478e-10
-7.79308e-11
-1.86595e-11
-1.75619e-11
4.39047e-12
1.86595e-11
0
-1.09762e-12
1.09762e-12
0
0
0
0
0
8.78094e-12
-8.78094e-12
-2257.65
-2221.94
-2152.21
-2051.71
-1925.02
-1777.66
-1615.72
-1445.43
-1272.8
-1103.22
-941.292
-790.615
-653.738
-532.185
-426.544
-336.615
-261.575
-200.161
-150.84
-111.952
-81.839
-58.93
-41.8016
-29.2124
-20.1139
-13.6463
-9.12346
-6.01126
-3.90358
-2.49848
-1.57625
-0.980219
-0.600857
-0.363041
-0.216191
-0.126862
-0.0733297
-0.0417283
-0.0233565
-0.0128439
-0.00692888
-0.00366072
-0.00189065
-0.00095278
-0.000467682
-0.000223255
-0.000103505
-4.65556e-05
-2.02995e-05
-8.57572e-06
-3.50903e-06
-1.39057e-06
-5.33726e-07
-1.9846e-07
-7.15076e-08
-2.49598e-08
-8.44946e-09
-2.78136e-09
-8.86875e-10
-2.88673e-10
-7.68332e-11
-2.19523e-12
0
1.09762e-12
-3.29285e-12
0
3.29285e-12
9.87856e-12
3.29285e-12
-8.78094e-12
-2.41476e-11
-1.09762e-12
1.64643e-11
2.19523e-12
2.19523e-12
-2257.63
-2221.92
-2152.19
-2051.7
-1925.01
-1777.66
-1615.72
-1445.44
-1272.8
-1103.23
-941.301
-790.625
-653.749
-532.195
-426.554
-336.624
-261.583
-200.168
-150.845
-111.956
-81.8425
-58.9326
-41.8036
-29.2139
-20.115
-13.6471
-9.12402
-6.01165
-3.90384
-2.49865
-1.57636
-0.980289
-0.6009
-0.363066
-0.216205
-0.12687
-0.0733339
-0.0417304
-0.0233575
-0.0128444
-0.00692911
-0.00366082
-0.00189069
-0.000952798
-0.00046769
-0.000223258
-0.000103506
-4.65561e-05
-2.02997e-05
-8.57578e-06
-3.50908e-06
-1.39058e-06
-5.33737e-07
-1.98471e-07
-7.14988e-08
-2.49565e-08
-8.45165e-09
-2.77587e-09
-8.95656e-10
-2.84283e-10
-6.25642e-11
0
0
0
0
0
9.87856e-12
2.19523e-12
-9.87856e-12
-6.58571e-12
-1.09762e-12
5.48809e-12
0
0
0
-2257.62
-2221.9
-2152.18
-2051.69
-1925
-1777.65
-1615.72
-1445.44
-1272.8
-1103.23
-941.306
-790.631
-653.755
-532.201
-426.56
-336.629
-261.587
-200.172
-150.848
-111.959
-81.8446
-58.9342
-41.8048
-29.2148
-20.1156
-13.6475
-9.12435
-6.01188
-3.90399
-2.49876
-1.57643
-0.980332
-0.600926
-0.363082
-0.216214
-0.126874
-0.0733364
-0.0417317
-0.0233581
-0.0128447
-0.00692925
-0.00366088
-0.00189071
-0.000952809
-0.000467694
-0.000223259
-0.000103507
-4.65563e-05
-2.02998e-05
-8.5758e-06
-3.50909e-06
-1.3906e-06
-5.3372e-07
-1.98429e-07
-7.14867e-08
-2.49664e-08
-8.478e-09
-2.79234e-09
-8.76996e-10
-2.74404e-10
-6.91499e-11
-4.39047e-12
4.39047e-12
3.29285e-12
0
0
1.09762e-12
-1.09762e-12
7.68332e-12
1.09762e-12
-4.39047e-12
0
-2.19524e-12
0
-2.19524e-12
-2257.61
-2221.9
-2152.17
-2051.68
-1925
-1777.65
-1615.71
-1445.44
-1272.8
-1103.23
-941.309
-790.635
-653.759
-532.205
-426.563
-336.632
-261.59
-200.174
-150.85
-111.96
-81.8458
-58.9352
-41.8055
-29.2153
-20.116
-13.6478
-9.12454
-6.01201
-3.90409
-2.49882
-1.57647
-0.980358
-0.600941
-0.363091
-0.216219
-0.126877
-0.0733378
-0.0417325
-0.0233585
-0.0128449
-0.00692932
-0.00366091
-0.00189073
-0.000952815
-0.000467696
-0.00022326
-0.000103507
-4.65565e-05
-2.02998e-05
-8.57581e-06
-3.50909e-06
-1.39059e-06
-5.33708e-07
-1.98431e-07
-7.14922e-08
-2.49631e-08
-8.49117e-09
-2.80551e-09
-8.86875e-10
-2.63428e-10
-4.39047e-11
4.39047e-12
-2.19523e-12
0
-7.68332e-12
0
1.4269e-11
0
-4.39047e-12
-7.68332e-12
-1.09762e-12
-1.09762e-12
0
1.64643e-11
-6.5857e-12
-2257.6
-2221.89
-2152.16
-2051.68
-1925
-1777.65
-1615.71
-1445.44
-1272.8
-1103.23
-941.311
-790.637
-653.761
-532.207
-426.565
-336.634
-261.592
-200.176
-150.851
-111.961
-81.8465
-58.9357
-41.8059
-29.2156
-20.1162
-13.648
-9.12465
-6.01209
-3.90414
-2.49886
-1.5765
-0.980373
-0.600951
-0.363096
-0.216222
-0.126879
-0.0733387
-0.0417329
-0.0233587
-0.012845
-0.00692937
-0.00366093
-0.00189074
-0.000952818
-0.000467698
-0.000223261
-0.000103508
-4.65565e-05
-2.02999e-05
-8.57584e-06
-3.50906e-06
-1.39057e-06
-5.33724e-07
-1.98446e-07
-7.14878e-08
-2.49565e-08
-8.48897e-09
-2.80551e-09
-8.86875e-10
-2.78795e-10
-5.81737e-11
1.20738e-11
-5.48809e-12
-1.09762e-12
6.5857e-12
0
1.09762e-12
0
-1.09762e-12
-1.31714e-11
0
6.58571e-12
-4.39047e-12
6.5857e-12
4.39047e-12
-2257.6
-2221.89
-2152.16
-2051.68
-1925
-1777.65
-1615.71
-1445.44
-1272.8
-1103.23
-941.312
-790.638
-653.762
-532.208
-426.566
-336.635
-261.593
-200.176
-150.852
-111.962
-81.8469
-58.936
-41.8061
-29.2158
-20.1163
-13.648
-9.12471
-6.01213
-3.90417
-2.49888
-1.57651
-0.980381
-0.600956
-0.363099
-0.216224
-0.12688
-0.0733392
-0.0417331
-0.0233588
-0.012845
-0.00692939
-0.00366094
-0.00189074
-0.00095282
-0.000467698
-0.000223261
-0.000103508
-4.65566e-05
-2.02999e-05
-8.57581e-06
-3.50907e-06
-1.39059e-06
-5.33742e-07
-1.9845e-07
-7.14856e-08
-2.49774e-08
-8.4747e-09
-2.76709e-09
-8.75899e-10
-2.78795e-10
-6.47594e-11
-6.5857e-12
-2.19524e-12
-1.09762e-12
1.09762e-12
-3.29285e-12
4.39047e-12
4.39047e-12
1.09762e-12
-2.19524e-12
-5.48809e-12
1.09762e-12
1.09762e-12
-1.09762e-12
0
-2257.6
-2221.89
-2152.16
-2051.68
-1925
-1777.65
-1615.71
-1445.44
-1272.8
-1103.23
-941.313
-790.639
-653.763
-532.209
-426.567
-336.635
-261.593
-200.177
-150.852
-111.962
-81.8471
-58.9361
-41.8063
-29.2158
-20.1164
-13.6481
-9.12474
-6.01216
-3.90419
-2.49889
-1.57652
-0.980386
-0.600958
-0.363101
-0.216225
-0.12688
-0.0733394
-0.0417333
-0.0233589
-0.0128451
-0.0069294
-0.00366095
-0.00189074
-0.000952821
-0.000467699
-0.000223261
-0.000103508
-4.65566e-05
-2.02999e-05
-8.5758e-06
-3.50906e-06
-1.39058e-06
-5.3374e-07
-1.9846e-07
-7.15164e-08
-2.49829e-08
-8.45165e-09
-2.76929e-09
-8.85777e-10
-2.82088e-10
-6.80523e-11
-5.48809e-12
-5.48809e-12
-2.19523e-12
7.68332e-12
4.39047e-12
1.31714e-11
0
-1.31714e-11
8.78094e-12
1.31714e-11
-1.09762e-11
-1.09762e-11
-1.09762e-12
1.09762e-12
-2257.6
-2221.89
-2152.16
-2051.68
-1924.99
-1777.64
-1615.71
-1445.44
-1272.81
-1103.24
-941.313
-790.639
-653.763
-532.21
-426.567
-336.636
-261.593
-200.177
-150.853
-111.962
-81.8472
-58.9362
-41.8063
-29.2159
-20.1164
-13.6481
-9.12476
-6.01217
-3.90419
-2.49889
-1.57652
-0.980388
-0.60096
-0.363102
-0.216225
-0.126881
-0.0733396
-0.0417333
-0.0233589
-0.0128451
-0.00692941
-0.00366095
-0.00189074
-0.000952821
-0.000467699
-0.000223261
-0.000103508
-4.65566e-05
-2.02999e-05
-8.5758e-06
-3.50905e-06
-1.39057e-06
-5.33729e-07
-1.98474e-07
-7.15197e-08
-2.49785e-08
-8.46702e-09
-2.78466e-09
-8.97851e-10
-2.84283e-10
-6.80523e-11
-3.29285e-12
0
-3.29285e-12
0
4.39047e-12
0
-1.09762e-12
-8.78094e-12
-6.58571e-12
1.53666e-11
5.48809e-12
-8.78094e-12
0
3.29285e-12
-2257.6
-2221.88
-2152.16
-2051.67
-1924.99
-1777.64
-1615.71
-1445.44
-1272.81
-1103.24
-941.313
-790.639
-653.764
-532.21
-426.568
-336.636
-261.593
-200.177
-150.853
-111.962
-81.8472
-58.9363
-41.8064
-29.2159
-20.1164
-13.6481
-9.12477
-6.01217
-3.9042
-2.4989
-1.57652
-0.980389
-0.600961
-0.363102
-0.216226
-0.126881
-0.0733396
-0.0417334
-0.0233589
-0.0128451
-0.00692941
-0.00366095
-0.00189075
-0.000952821
-0.000467699
-0.000223261
-0.000103508
-4.65566e-05
-2.02999e-05
-8.5758e-06
-3.50903e-06
-1.39058e-06
-5.33756e-07
-1.98504e-07
-7.15306e-08
-2.49543e-08
-8.45165e-09
-2.77917e-09
-8.97851e-10
-2.97454e-10
-7.68332e-11
-4.39047e-12
4.39047e-12
0
0
0
0
1.09762e-12
-1.09762e-12
-7.68332e-12
1.09762e-12
7.68332e-12
-8.78094e-12
0
7.68332e-12
-2257.6
-2221.88
-2152.16
-2051.67
-1924.99
-1777.64
-1615.71
-1445.44
-1272.81
-1103.24
-941.313
-790.639
-653.764
-532.21
-426.568
-336.636
-261.594
-200.177
-150.853
-111.962
-81.8473
-58.9363
-41.8064
-29.2159
-20.1164
-13.6481
-9.12477
-6.01218
-3.9042
-2.4989
-1.57652
-0.98039
-0.600961
-0.363102
-0.216226
-0.126881
-0.0733397
-0.0417334
-0.0233589
-0.0128451
-0.00692942
-0.00366095
-0.00189075
-0.000952822
-0.000467699
-0.000223261
-0.000103508
-4.65566e-05
-2.02999e-05
-8.57581e-06
-3.50905e-06
-1.39059e-06
-5.33765e-07
-1.98495e-07
-7.15416e-08
-2.49609e-08
-8.4308e-09
-2.7649e-09
-8.90168e-10
-3.01845e-10
-8.78094e-11
0
2.19523e-12
-4.39047e-12
0
-1.09762e-12
0
7.68332e-12
7.68332e-12
-6.5857e-12