/*--------------------------------*- C++ -*----------------------------------*\
  =========                 |
  \\      /  F ield         | OpenFOAM: The Open Source CFD Toolbox
   \\    /   O peration     | Website:  https://openfoam.org
    \\  /    A nd           | Version:  10
     \\/     M anipulation  |
\*---------------------------------------------------------------------------*/
FoamFile
{
    format      ascii;
    class       volScalarField;
    location    "261";
    object      gradTz;
}
// * * * * * * * * * * * * * * * * * * * * * * * * * * * * * * * * * * * * * //

dimensions      [0 -1 0 1 0 0 0];

internalField   nonuniform List<scalar> 
11250
(
-14354.4
-4149.8
-1529.34
-725.517
-420.471
-278.443
-200.594
-152.557
-120.28
-97.1774
-79.8233
-66.2913
-55.4318
-46.5258
-39.1052
-32.8537
-27.5501
-23.0333
-19.1821
-15.901
-13.1126
-10.7519
-8.76282
-7.09625
-5.70856
-4.56083
-3.61828
-2.84996
-2.22844
-1.7296
-1.3324
-1.01868
-0.772911
-0.581959
-0.43482
-0.32238
-0.237168
-0.173128
-0.125399
-0.0901229
-0.0642666
-0.045472
-0.0319235
-0.0222374
-0.0153698
-0.0105404
-0.00717234
-0.00484255
-0.00324414
-0.00215644
-0.00142228
-0.000930779
-0.000604388
-0.000389395
-0.000248923
-0.000157883
-9.93555e-05
-6.20336e-05
-3.84264e-05
-2.3615e-05
-1.43974e-05
-8.70777e-06
-5.22441e-06
-3.10925e-06
-1.83542e-06
-1.07464e-06
-6.24072e-07
-3.59444e-07
-2.05329e-07
-1.16374e-07
-6.55223e-08
-3.68437e-08
-2.09711e-08
-1.26687e-08
-9.15193e-09
-8267.31
-4864.74
-2770.89
-1677.33
-1098
-770.812
-571.692
-441.699
-351.519
-285.702
-235.629
-196.239
-164.431
-138.224
-116.314
-97.8088
-82.0781
-68.661
-57.2071
-47.4399
-39.1332
-32.0964
-26.1645
-21.1924
-17.0509
-13.6247
-10.8103
-8.51572
-6.65923
-5.16896
-3.9822
-3.04477
-2.31033
-1.73964
-1.29986
-0.963772
-0.709055
-0.517614
-0.374928
-0.269465
-0.192161
-0.135967
-0.0954576
-0.0664958
-0.0459606
-0.0315199
-0.0214484
-0.0144816
-0.0097017
-0.00644899
-0.00425351
-0.00278364
-0.00180754
-0.00116458
-0.000744472
-0.000472197
-0.000297157
-0.000185535
-0.00011493
-7.06311e-05
-4.30625e-05
-2.60451e-05
-1.56265e-05
-9.3e-06
-5.49004e-06
-3.2145e-06
-1.86672e-06
-1.07515e-06
-6.14206e-07
-3.48142e-07
-1.9601e-07
-1.10131e-07
-6.27146e-08
-3.79633e-08
-2.73932e-08
-5581.24
-4269.46
-3010.72
-2113.6
-1522.21
-1134.1
-872.832
-690.394
-557.959
-458.241
-380.693
-318.721
-268.093
-226.023
-190.621
-160.574
-134.935
-113.003
-94.2368
-78.2053
-64.5514
-52.9713
-43.2003
-35.0038
-28.1723
-22.5174
-17.8704
-14.0802
-11.0127
-8.54953
-6.58757
-5.03747
-3.8228
-2.87881
-2.15125
-1.59516
-1.17366
-0.856842
-0.620684
-0.446118
-0.318153
-0.225127
-0.158061
-0.11011
-0.0761086
-0.0521975
-0.0355201
-0.0239833
-0.0160677
-0.010681
-0.00704496
-0.00461058
-0.00299393
-0.001929
-0.00123317
-0.000782179
-0.000492241
-0.000307346
-0.00019039
-0.000117008
-7.13393e-05
-4.31486e-05
-2.58887e-05
-1.54079e-05
-9.09589e-06
-5.32593e-06
-3.09295e-06
-1.78144e-06
-1.01771e-06
-5.76864e-07
-3.2481e-07
-1.82499e-07
-1.03932e-07
-6.29078e-08
-4.54271e-08
-4204.37
-3618.64
-2886.54
-2241.96
-1741.18
-1368.86
-1093.77
-888.031
-730.956
-608.208
-510.086
-430.046
-363.64
-307.809
-260.408
-219.898
-185.149
-155.301
-129.678
-107.732
-89.0018
-73.09
-59.6455
-48.3549
-38.9358
-31.133
-24.7166
-19.4803
-15.2404
-11.8345
-9.1206
-6.97578
-5.29463
-3.9878
-2.98038
-2.21024
-1.6264
-1.18749
-0.860279
-0.618381
-0.441038
-0.312104
-0.219142
-0.15267
-0.105533
-0.0723816
-0.0492578
-0.0332606
-0.0222841
-0.0148139
-0.00977133
-0.0063951
-0.00415287
-0.0026758
-0.00171064
-0.00108507
-0.000682877
-0.000426389
-0.000264142
-0.000162339
-9.89803e-05
-5.98687e-05
-3.59219e-05
-2.138e-05
-1.26219e-05
-7.39074e-06
-4.29223e-06
-2.4723e-06
-1.41243e-06
-8.00607e-07
-4.50815e-07
-2.53333e-07
-1.44299e-07
-8.73385e-08
-6.30471e-08
-3409.68
-3110.7
-2671.53
-2223.47
-1828.99
-1504.05
-1243.45
-1035.54
-868.619
-732.992
-621.268
-527.997
-449.224
-382.077
-324.458
-274.808
-231.94
-194.931
-163.032
-135.623
-112.169
-92.2027
-75.303
-61.0905
-49.2197
-39.3762
-31.2749
-24.6589
-19.2986
-14.9903
-11.5559
-8.84057
-6.71147
-5.05593
-3.77934
-2.8032
-2.06303
-1.50649
-1.09152
-0.784685
-0.559706
-0.396118
-0.278156
-0.1938
-0.133974
-0.0918947
-0.0625411
-0.0422325
-0.0282968
-0.018812
-0.0124092
-0.00812189
-0.00527446
-0.00339862
-0.00217283
-0.0013783
-0.000867456
-0.000541662
-0.000335565
-0.000206243
-0.000125755
-7.60666e-05
-4.56427e-05
-2.71668e-05
-1.60389e-05
-9.39207e-06
-5.45479e-06
-3.14207e-06
-1.79515e-06
-1.01762e-06
-5.73043e-07
-3.22031e-07
-1.83431e-07
-1.11043e-07
-8.01645e-08
-2909.43
-2738.53
-2461.23
-2147.55
-1843.8
-1571.93
-1338.01
-1140.21
-973.704
-833.164
-713.828
-611.784
-523.958
-447.976
-382.01
-324.643
-274.753
-231.431
-193.92
-161.568
-133.802
-110.106
-90.0102
-73.0812
-58.9217
-47.1667
-37.4825
-29.5672
-23.1494
-17.9882
-13.8715
-10.6151
-8.06077
-6.07383
-4.5412
-3.36894
-2.47983
-1.81114
-1.31244
-0.943636
-0.673168
-0.476473
-0.334617
-0.233161
-0.161199
-0.110578
-0.0752626
-0.0508269
-0.0340575
-0.0226433
-0.0149374
-0.00977721
-0.00634981
-0.00409175
-0.0026161
-0.00165957
-0.00104453
-0.000652262
-0.000404103
-0.00024838
-0.000151454
-9.16165e-05
-5.49761e-05
-3.27239e-05
-1.93208e-05
-1.13145e-05
-6.57168e-06
-3.78567e-06
-2.163e-06
-1.22621e-06
-6.90576e-07
-3.88127e-07
-2.21082e-07
-1.33827e-07
-9.66353e-08
-2574.62
-2467.42
-2282.27
-2057.02
-1822.59
-1598.28
-1393.53
-1211.36
-1051.28
-911.277
-788.893
-681.755
-587.786
-505.255
-432.736
-369.062
-313.261
-264.508
-222.085
-185.349
-153.718
-126.651
-103.644
-84.2269
-67.9615
-54.4404
-43.2889
-34.1656
-26.7622
-20.8042
-16.049
-12.2856
-9.33206
-7.03366
-5.26013
-3.90315
-2.87364
-2.09915
-1.52141
-1.09405
-0.780583
-0.552575
-0.38811
-0.270465
-0.18701
-0.128296
-0.08733
-0.0589814
-0.0395248
-0.0262803
-0.0173379
-0.0113492
-0.00737123
-0.00475023
-0.0030373
-0.00192687
-0.00121284
-0.000757408
-0.000469271
-0.000288452
-0.000175899
-0.000106409
-6.38567e-05
-3.80122e-05
-2.24445e-05
-1.31447e-05
-7.63523e-06
-4.39861e-06
-2.51338e-06
-1.42495e-06
-8.02587e-07
-4.51153e-07
-2.57001e-07
-1.55583e-07
-1.12358e-07
-2340.65
-2268.06
-2137.51
-1970.28
-1786.42
-1600.9
-1423.07
-1257.8
-1106.98
-970.779
-848.48
-739.021
-641.268
-554.144
-476.677
-408.004
-347.355
-294.032
-247.395
-206.843
-171.805
-141.738
-116.121
-94.459
-76.2824
-61.1513
-48.657
-38.4245
-30.1138
-23.4203
-18.0745
-13.8412
-10.5172
-7.92929
-5.93154
-4.40244
-3.24197
-2.36869
-1.71709
-1.23498
-0.881275
-0.623947
-0.438299
-0.30548
-0.211245
-0.144938
-0.0986682
-0.0666454
-0.0446647
-0.0297004
-0.0195957
-0.0128282
-0.00833241
-0.00537003
-0.00343383
-0.00217857
-0.00137135
-0.000856454
-0.000530671
-0.000326213
-0.000198939
-0.000120355
-7.22302e-05
-4.29996e-05
-2.53912e-05
-1.48715e-05
-8.6389e-06
-4.97722e-06
-2.84423e-06
-1.61264e-06
-9.08392e-07
-5.10702e-07
-2.90973e-07
-1.76175e-07
-1.27211e-07
-2172.07
-2119.66
-2022.8
-1894.01
-1746.43
-1591.14
-1436.2
-1286.84
-1146.04
-1015.25
-894.961
-785.111
-685.355
-595.215
-514.157
-441.635
-377.102
-320.014
-269.83
-226.011
-188.02
-155.324
-127.4
-103.739
-83.8512
-67.2713
-53.5635
-42.3251
-33.1888
-25.8243
-19.9386
-15.2747
-11.6105
-8.75637
-6.55215
-4.86435
-3.58299
-2.61843
-1.89852
-1.36572
-0.974741
-0.690232
-0.484933
-0.338029
-0.233783
-0.160421
-0.10922
-0.0737806
-0.0494514
-0.0328864
-0.0216997
-0.0142067
-0.00922854
-0.00594801
-0.00380369
-0.0024134
-0.00151928
-0.000948902
-0.000587993
-0.000361474
-0.000220458
-0.000133383
-8.00544e-05
-4.76609e-05
-2.81458e-05
-1.64861e-05
-9.57761e-06
-5.51852e-06
-3.15384e-06
-1.78837e-06
-1.00746e-06
-5.6643e-07
-3.22776e-07
-1.95485e-07
-1.41168e-07
-2047.91
-2007.93
-1932.61
-1829.74
-1708.09
-1575.79
-1439.48
-1304.05
-1172.84
-1047.97
-930.707
-821.692
-721.197
-629.243
-545.689
-470.287
-402.711
-342.579
-289.46
-242.889
-202.375
-167.408
-137.473
-112.057
-90.6566
-72.7893
-57.9982
-45.8582
-35.9794
-28.0098
-21.6358
-16.5816
-12.6086
-9.51231
-7.11997
-5.28738
-3.89557
-2.84754
-2.06507
-1.48583
-1.06066
-0.751197
-0.527848
-0.367996
-0.254543
-0.174689
-0.118948
-0.0803608
-0.0538674
-0.0358266
-0.023642
-0.0154796
-0.0100563
-0.00648202
-0.00414551
-0.00263047
-0.00165605
-0.0010344
-0.000641019
-0.000394101
-0.000240373
-0.000145443
-8.72992e-05
-5.19782e-05
-3.06977e-05
-1.79823e-05
-1.04477e-05
-6.02042e-06
-3.441e-06
-1.95137e-06
-1.09939e-06
-6.18209e-07
-3.52326e-07
-2.13393e-07
-1.54158e-07
-1955.02
-1923.02
-1861.93
-1776.82
-1673.75
-1558.76
-1437.22
-1313.46
-1190.83
-1071.74
-957.881
-850.392
-749.993
-657.097
-571.894
-494.398
-424.489
-361.939
-306.429
-257.574
-214.934
-178.033
-146.368
-119.428
-96.7073
-77.7095
-61.9626
-49.0239
-38.4851
-29.9758
-23.165
-17.761
-13.5105
-10.1962
-7.63427
-5.67093
-4.17925
-3.05563
-2.21647
-1.59509
-1.13887
-0.806729
-0.566961
-0.395324
-0.273484
-0.187712
-0.127832
-0.0863724
-0.0579033
-0.0385147
-0.0254183
-0.0166442
-0.0108138
-0.00697087
-0.0044585
-0.0028293
-0.00178136
-0.00111276
-0.000689626
-0.000424016
-0.000258638
-0.000156506
-9.39469e-05
-5.59406e-05
-3.30405e-05
-1.93563e-05
-1.1247e-05
-6.48159e-06
-3.70493e-06
-2.10125e-06
-1.18399e-06
-6.65862e-07
-3.79491e-07
-2.29881e-07
-1.6612e-07
-1884.75
-1858.05
-1806.59
-1733.85
-1644.17
-1542.15
-1432.13
-1317.91
-1202.63
-1088.8
-978.34
-872.694
-772.896
-679.659
-593.436
-514.464
-442.801
-378.36
-320.931
-270.206
-225.8
-187.269
-154.133
-125.889
-102.029
-82.0495
-65.4689
-51.8305
-40.7112
-31.7258
-24.5286
-18.8144
-14.3172
-10.8088
-8.09544
-6.01523
-4.43416
-3.2428
-2.35277
-1.69353
-1.20938
-0.856829
-0.60227
-0.420008
-0.290602
-0.199488
-0.135868
-0.0918132
-0.0615575
-0.0409496
-0.0270279
-0.0176999
-0.0115006
-0.00741427
-0.00474248
-0.00300975
-0.00189512
-0.00118391
-0.000733775
-0.000451195
-0.000275237
-0.000166563
-9.99916e-05
-5.95446e-05
-3.51721e-05
-2.06068e-05
-1.19746e-05
-6.90153e-06
-3.94536e-06
-2.23785e-06
-1.2611e-06
-7.09289e-07
-4.04321e-07
-2.44956e-07
-1.76993e-07
-1831.15
-1808.07
-1763.28
-1699.28
-1619.32
-1527
-1425.89
-1319.3
-1210.15
-1100.91
-993.62
-889.882
-790.953
-697.765
-610.973
-530.994
-458.038
-392.142
-333.193
-280.956
-235.098
-195.213
-160.841
-131.492
-106.659
-85.8376
-68.5377
-54.2929
-42.6688
-33.2678
-25.7324
-19.7458
-15.0316
-11.3519
-8.5049
-6.32128
-4.66099
-3.40951
-2.47427
-1.78136
-1.27234
-0.901598
-0.633843
-0.442094
-0.305927
-0.210036
-0.14307
-0.0966914
-0.0648354
-0.0431346
-0.0284729
-0.0186479
-0.0121177
-0.00781274
-0.00499777
-0.00317201
-0.00199744
-0.00124792
-0.000773511
-0.000475663
-0.000290185
-0.000175622
-0.000105438
-6.27929e-05
-3.70938e-05
-2.17345e-05
-1.26311e-05
-7.28052e-06
-4.1624e-06
-2.36121e-06
-1.33077e-06
-7.48544e-07
-4.26749e-07
-2.58567e-07
-1.86856e-07
-1790.07
-1769.5
-1729.4
-1671.65
-1598.8
-1513.73
-1419.47
-1318.92
-1214.78
-1109.44
-1004.95
-903.038
-805.084
-712.176
-625.123
-544.485
-470.596
-403.596
-343.457
-290.011
-242.975
-201.975
-166.576
-136.3
-110.646
-89.1101
-71.1963
-56.4316
-44.3728
-34.6129
-26.7844
-20.5611
-15.6579
-11.8288
-8.86489
-6.59068
-4.86088
-3.55657
-2.58156
-1.85897
-1.32803
-0.941225
-0.661809
-0.46167
-0.319518
-0.219397
-0.149465
-0.101025
-0.0677485
-0.0450773
-0.0297581
-0.0194914
-0.012667
-0.00816756
-0.00522517
-0.0033166
-0.00208865
-0.001305
-0.00080895
-0.000497492
-0.000303524
-0.000183709
-0.000110301
-6.5694e-05
-3.88106e-05
-2.27423e-05
-1.32179e-05
-7.61944e-06
-4.35656e-06
-2.4716e-06
-1.39312e-06
-7.83699e-07
-4.46816e-07
-2.70757e-07
-1.95748e-07
-1758.46
-1739.68
-1702.92
-1649.69
-1582.05
-1502.42
-1413.4
-1317.59
-1217.48
-1115.37
-1013.31
-913.047
-816.066
-723.56
-636.45
-555.402
-480.852
-413.025
-351.967
-297.565
-249.581
-207.674
-171.431
-140.386
-114.047
-91.9091
-73.4765
-58.2706
-45.8415
-35.7745
-27.6947
-21.2679
-16.2017
-12.2435
-9.17833
-6.82554
-5.03534
-3.68505
-2.67539
-1.92692
-1.37682
-0.975969
-0.686348
-0.478859
-0.33146
-0.227626
-0.15509
-0.104839
-0.0703136
-0.0467887
-0.0308908
-0.0202352
-0.0131514
-0.00848063
-0.00542588
-0.00344426
-0.0021692
-0.00135543
-0.000840268
-0.000516789
-0.00031532
-0.000190861
-0.000114604
-6.82616e-05
-4.03306e-05
-2.36348e-05
-1.37377e-05
-7.91976e-06
-4.52868e-06
-2.56948e-06
-1.44838e-06
-8.14858e-07
-4.64672e-07
-2.81643e-07
-2.03618e-07
-1734.12
-1716.61
-1682.26
-1632.32
-1568.53
-1492.98
-1407.95
-1315.83
-1218.94
-1119.47
-1019.43
-920.62
-824.551
-732.493
-645.448
-564.165
-489.157
-420.721
-358.958
-303.808
-255.069
-212.431
-175.5
-143.824
-116.917
-94.2797
-75.4132
-59.8365
-47.0949
-36.7682
-28.4748
-21.8747
-16.6693
-12.6006
-9.44864
-7.02833
-5.18616
-3.79626
-2.75668
-1.98584
-1.41917
-1.00615
-0.707679
-0.493811
-0.341855
-0.234794
-0.159992
-0.108164
-0.0725514
-0.0482825
-0.03188
-0.0208849
-0.0135748
-0.00875435
-0.00560143
-0.00355595
-0.0022397
-0.00139958
-0.000867695
-0.000533692
-0.000325655
-0.00019713
-0.000118376
-7.05134e-05
-4.16639e-05
-2.4418e-05
-1.4194e-05
-8.18346e-06
-4.67985e-06
-2.65547e-06
-1.49702e-06
-8.42312e-07
-4.80351e-07
-2.91174e-07
-2.10574e-07
-1715.35
-1698.77
-1666.17
-1618.64
-1557.7
-1485.2
-1403.23
-1313.96
-1219.6
-1122.25
-1023.9
-926.322
-831.07
-739.458
-652.547
-571.147
-495.831
-426.948
-364.653
-308.922
-259.588
-216.366
-178.879
-146.69
-119.318
-96.2685
-77.0425
-61.1572
-48.1546
-37.6099
-29.1369
-22.3906
-17.0676
-12.9053
-9.67955
-7.2018
-5.31532
-3.89159
-2.82644
-2.03645
-1.45558
-1.03212
-0.72605
-0.506698
-0.350821
-0.240979
-0.164225
-0.111038
-0.074486
-0.0495745
-0.0327359
-0.0214474
-0.0139415
-0.00899149
-0.00575356
-0.00365278
-0.00230084
-0.00143788
-0.000891495
-0.000548365
-0.000334629
-0.000202575
-0.000121653
-7.24702e-05
-4.28229e-05
-2.50989e-05
-1.45909e-05
-8.41287e-06
-4.8114e-06
-2.73034e-06
-1.53935e-06
-8.66219e-07
-4.94042e-07
-2.99502e-07
-2.16616e-07
-1700.9
-1684.99
-1653.67
-1607.91
-1549.08
-1478.88
-1399.23
-1312.16
-1219.78
-1124.13
-1027.15
-930.595
-836.052
-744.858
-658.112
-576.67
-501.151
-431.948
-369.252
-313.075
-263.276
-219.591
-181.66
-149.056
-121.308
-97.9214
-78.4004
-62.2607
-49.042
-38.3163
-29.6937
-22.8252
-17.4037
-13.1627
-9.87496
-7.34878
-5.42491
-3.97257
-2.88576
-2.07953
-1.4866
-1.05427
-0.741727
-0.517703
-0.358482
-0.246269
-0.167847
-0.113498
-0.0761432
-0.0506818
-0.0334698
-0.0219299
-0.0142562
-0.00919507
-0.00588422
-0.00373597
-0.00235339
-0.0014708
-0.000911961
-0.000560986
-0.00034235
-0.000207261
-0.000124474
-7.41552e-05
-4.38212e-05
-2.56856e-05
-1.49329e-05
-8.61064e-06
-4.92488e-06
-2.79493e-06
-1.57586e-06
-8.86837e-07
-5.05882e-07
-3.06712e-07
-2.2181e-07
-1689.78
-1674.36
-1643.98
-1599.53
-1542.28
-1473.8
-1395.9
-1310.53
-1219.69
-1125.38
-1029.49
-933.784
-839.841
-749.019
-662.446
-581.01
-505.362
-435.931
-372.938
-316.42
-266.26
-222.211
-183.929
-150.994
-122.942
-99.2827
-79.5217
-63.1742
-49.7782
-38.9036
-30.1575
-23.188
-17.6846
-13.3783
-10.0388
-7.47219
-5.51702
-4.04072
-2.93574
-2.11586
-1.51278
-1.07298
-0.754983
-0.527016
-0.36497
-0.250751
-0.170918
-0.115585
-0.0775498
-0.0516222
-0.0340934
-0.02234
-0.0145238
-0.00936827
-0.00599542
-0.00380679
-0.00239813
-0.00149885
-0.000929401
-0.000571744
-0.000348933
-0.000211257
-0.000126881
-7.55929e-05
-4.46732e-05
-2.61864e-05
-1.52249e-05
-8.77956e-06
-5.0218e-06
-2.85011e-06
-1.60709e-06
-9.04487e-07
-5.16008e-07
-3.12893e-07
-2.26263e-07
-1681.25
-1666.19
-1636.51
-1593.02
-1536.94
-1469.76
-1393.18
-1309.1
-1219.46
-1126.19
-1031.17
-936.154
-842.709
-752.209
-665.801
-584.396
-508.672
-439.081
-375.868
-319.092
-268.654
-224.323
-185.763
-152.566
-124.272
-100.394
-80.4394
-63.9236
-50.3836
-39.3875
-30.5404
-23.4879
-17.9173
-13.5571
-10.1749
-7.57485
-5.59375
-4.09755
-2.97746
-2.14622
-1.53468
-1.08864
-0.766089
-0.534824
-0.370414
-0.254515
-0.173499
-0.117339
-0.0787331
-0.0524136
-0.0346184
-0.0226856
-0.0147493
-0.00951429
-0.00608921
-0.00386654
-0.0024359
-0.00152252
-0.000944128
-0.000580831
-0.000354495
-0.000214635
-0.000128915
-7.68084e-05
-4.53936e-05
-2.661e-05
-1.54719e-05
-8.92246e-06
-5.10381e-06
-2.89683e-06
-1.63356e-06
-9.19456e-07
-5.24557e-07
-3.18108e-07
-2.30047e-07
-1674.72
-1659.93
-1630.75
-1587.99
-1532.78
-1466.56
-1390.99
-1307.89
-1219.16
-1126.71
-1032.38
-937.908
-844.869
-754.641
-668.383
-587.022
-511.255
-441.553
-378.179
-321.21
-270.56
-226.01
-187.234
-153.831
-125.345
-101.293
-81.1838
-64.5329
-50.8769
-39.7826
-30.8537
-23.7337
-18.1083
-13.7041
-10.287
-7.65947
-5.65707
-4.14451
-3.01197
-2.17136
-1.55283
-1.10163
-0.77531
-0.541313
-0.374941
-0.257647
-0.175648
-0.118801
-0.0797195
-0.0530737
-0.0350566
-0.022974
-0.0149377
-0.00963629
-0.00616759
-0.0039165
-0.00246748
-0.00154233
-0.000956451
-0.000588436
-0.000359151
-0.000217463
-0.000130619
-7.78266e-05
-4.59973e-05
-2.6965e-05
-1.5679e-05
-9.0423e-06
-5.1726e-06
-2.93602e-06
-1.65576e-06
-9.31963e-07
-5.31745e-07
-3.225e-07
-2.33235e-07
-1669.74
-1655.15
-1626.35
-1584.11
-1529.55
-1464.05
-1389.24
-1306.89
-1218.86
-1127.03
-1033.24
-939.2
-846.489
-756.486
-670.358
-589.046
-513.258
-443.48
-379.99
-322.876
-272.065
-227.347
-188.404
-154.839
-126.203
-102.014
-81.7823
-65.024
-51.2753
-40.1024
-31.1076
-23.9334
-18.2637
-13.8238
-10.3784
-7.72861
-5.70887
-4.18296
-3.04026
-2.19199
-1.56774
-1.11232
-0.782898
-0.546656
-0.378671
-0.26023
-0.177421
-0.120008
-0.0805344
-0.0536194
-0.0354189
-0.0232127
-0.0150936
-0.00973731
-0.00623252
-0.0039579
-0.00249366
-0.00155876
-0.000966671
-0.000594745
-0.000363014
-0.000219809
-0.000132033
-7.86719e-05
-4.64985e-05
-2.72598e-05
-1.5851e-05
-9.14183e-06
-5.22976e-06
-2.9686e-06
-1.67419e-06
-9.42407e-07
-5.37736e-07
-3.26129e-07
-2.35881e-07
-1665.96
-1651.51
-1622.99
-1581.15
-1527.07
-1462.11
-1387.86
-1306.07
-1218.57
-1127.23
-1033.85
-940.148
-847.697
-757.877
-671.861
-590.595
-514.8
-444.971
-381.398
-324.177
-273.245
-228.398
-189.327
-155.638
-126.884
-102.588
-82.2595
-65.4163
-51.5943
-40.3589
-31.3117
-24.0941
-18.389
-13.9205
-10.4523
-7.78459
-5.75087
-4.21418
-3.06325
-2.20877
-1.57988
-1.12102
-0.789086
-0.551017
-0.381719
-0.262341
-0.178871
-0.120996
-0.0812017
-0.0540664
-0.0357159
-0.0234084
-0.0152215
-0.00982022
-0.00628582
-0.00399189
-0.00251517
-0.00157225
-0.000975069
-0.00059993
-0.00036619
-0.000221739
-0.000133196
-7.93671e-05
-4.69107e-05
-2.75023e-05
-1.59925e-05
-9.22375e-06
-5.27679e-06
-2.99537e-06
-1.68936e-06
-9.51015e-07
-5.42663e-07
-3.29146e-07
-2.3804e-07
-1663.1
-1648.76
-1620.44
-1578.89
-1525.16
-1460.6
-1386.78
-1305.41
-1218.32
-1127.34
-1034.28
-940.841
-848.595
-758.922
-672.997
-591.774
-515.979
-446.118
-382.484
-325.185
-274.162
-229.219
-190.049
-156.264
-127.42
-103.04
-82.6368
-65.7272
-51.8476
-40.563
-31.4743
-24.2224
-18.4891
-13.9979
-10.5116
-7.82952
-5.78461
-4.23929
-3.08176
-2.2223
-1.58968
-1.12805
-0.794088
-0.554545
-0.384185
-0.264051
-0.180046
-0.121797
-0.0817433
-0.0544294
-0.0359572
-0.0235674
-0.0153255
-0.00988765
-0.00632919
-0.00401956
-0.00253267
-0.00158324
-0.000981909
-0.000604154
-0.000368778
-0.000223311
-0.000134144
-7.99337e-05
-4.72467e-05
-2.77e-05
-1.61079e-05
-9.29049e-06
-5.31509e-06
-3.01723e-06
-1.70175e-06
-9.57999e-07
-5.46675e-07
-3.31579e-07
-2.39833e-07
-1660.95
-1646.68
-1618.51
-1577.18
-1523.71
-1459.45
-1385.94
-1304.89
-1218.1
-1127.4
-1034.58
-941.345
-849.259
-759.701
-673.851
-592.666
-516.876
-446.993
-383.317
-325.96
-274.87
-229.854
-190.609
-156.751
-127.838
-103.394
-82.9325
-65.9714
-52.0469
-40.7238
-31.6028
-24.3238
-18.5685
-14.0594
-10.5587
-7.86527
-5.81149
-4.25931
-3.09654
-2.23311
-1.59751
-1.13368
-0.798096
-0.557374
-0.386165
-0.265424
-0.180991
-0.122441
-0.082179
-0.0547216
-0.0361515
-0.0236955
-0.0154093
-0.00994201
-0.00636417
-0.00404187
-0.0025468
-0.0015921
-0.00098743
-0.000607564
-0.000370867
-0.00022458
-0.000134909
-8.03912e-05
-4.75181e-05
-2.78597e-05
-1.6201e-05
-9.34443e-06
-5.34607e-06
-3.03486e-06
-1.71172e-06
-9.63635e-07
-5.49892e-07
-3.33565e-07
-2.41309e-07
-1659.34
-1645.12
-1617.07
-1575.89
-1522.62
-1458.57
-1385.3
-1304.48
-1217.91
-1127.42
-1034.79
-941.71
-849.747
-760.28
-674.49
-593.336
-517.553
-447.656
-383.95
-326.552
-275.412
-230.342
-191.041
-157.128
-128.162
-103.668
-83.1625
-66.1617
-52.2025
-40.8496
-31.7034
-24.4034
-18.6308
-14.1077
-10.5958
-7.89346
-5.83272
-4.27514
-3.10824
-2.24167
-1.60373
-1.13815
-0.801279
-0.559623
-0.38774
-0.266517
-0.181743
-0.122955
-0.0825264
-0.0549546
-0.0363065
-0.0237979
-0.0154762
-0.00998545
-0.00639212
-0.00405971
-0.00255809
-0.00159919
-0.000991846
-0.000610292
-0.000372538
-0.000225596
-0.000135521
-8.07573e-05
-4.77353e-05
-2.79874e-05
-1.62755e-05
-9.38756e-06
-5.37085e-06
-3.04898e-06
-1.71969e-06
-9.68152e-07
-5.5251e-07
-3.35171e-07
-2.42455e-07
-1658.13
-1643.96
-1615.99
-1574.92
-1521.79
-1457.91
-1384.8
-1304.16
-1217.77
-1127.43
-1034.93
-941.974
-850.104
-760.707
-674.964
-593.836
-518.061
-448.156
-384.429
-327.001
-275.824
-230.713
-191.371
-157.416
-128.41
-103.88
-83.3398
-66.3086
-52.3229
-40.9472
-31.7815
-24.4654
-18.6794
-14.1454
-10.6247
-7.91551
-5.84933
-4.28755
-3.11742
-2.24839
-1.60861
-1.14166
-0.803786
-0.561395
-0.388981
-0.26738
-0.182337
-0.12336
-0.0828009
-0.0551389
-0.0364292
-0.0238788
-0.0155292
-0.0100198
-0.00641426
-0.00407385
-0.00256704
-0.00160481
-0.000995347
-0.000612455
-0.000373863
-0.000226402
-0.000136007
-8.10476e-05
-4.79074e-05
-2.80887e-05
-1.63346e-05
-9.42174e-06
-5.39049e-06
-3.06018e-06
-1.72603e-06
-9.71728e-07
-5.54565e-07
-3.36408e-07
-2.43368e-07
-1657.24
-1643.1
-1615.18
-1574.2
-1521.18
-1457.41
-1384.43
-1303.92
-1217.65
-1127.43
-1035.04
-942.163
-850.364
-761.021
-675.315
-594.208
-518.44
-448.53
-384.789
-327.339
-276.135
-230.995
-191.622
-157.636
-128.599
-104.041
-83.4754
-66.4213
-52.4153
-41.0222
-31.8417
-24.5131
-18.7169
-14.1745
-10.6472
-7.9326
-5.86223
-4.29719
-3.12455
-2.25363
-1.61241
-1.1444
-0.805742
-0.562779
-0.389952
-0.268055
-0.182802
-0.123678
-0.0830161
-0.0552834
-0.0365254
-0.0239424
-0.0155708
-0.0100469
-0.00643165
-0.00408496
-0.00257407
-0.00160923
-0.000998098
-0.000614154
-0.000374905
-0.000227035
-0.000136388
-8.12757e-05
-4.80427e-05
-2.81682e-05
-1.63811e-05
-9.4486e-06
-5.4059e-06
-3.06896e-06
-1.73102e-06
-9.74537e-07
-5.56145e-07
-3.37367e-07
-2.44115e-07
-1656.58
-1642.47
-1614.59
-1573.67
-1520.72
-1457.04
-1384.15
-1303.73
-1217.55
-1127.42
-1035.1
-942.298
-850.553
-761.251
-675.573
-594.482
-518.72
-448.807
-385.056
-327.591
-276.368
-231.206
-191.81
-157.801
-128.743
-104.163
-83.5783
-66.5069
-52.4857
-41.0794
-31.8876
-24.5496
-18.7456
-14.1969
-10.6644
-7.94574
-5.87216
-4.30461
-3.13006
-2.25767
-1.61535
-1.14652
-0.807256
-0.56385
-0.390704
-0.268578
-0.183163
-0.123925
-0.0831832
-0.0553957
-0.0366002
-0.0239918
-0.0156032
-0.0100679
-0.00644519
-0.0040936
-0.00257955
-0.00161267
-0.00100024
-0.000615478
-0.000375716
-0.000227527
-0.000136685
-8.14533e-05
-4.8148e-05
-2.82301e-05
-1.64171e-05
-9.46948e-06
-5.41788e-06
-3.0758e-06
-1.73492e-06
-9.76728e-07
-5.57388e-07
-3.38144e-07
-2.44636e-07
-1656.1
-1642
-1614.16
-1573.28
-1520.38
-1456.77
-1383.95
-1303.59
-1217.48
-1127.41
-1035.15
-942.393
-850.688
-761.417
-675.761
-594.683
-518.926
-449.012
-385.255
-327.778
-276.542
-231.364
-191.951
-157.925
-128.85
-104.255
-83.6558
-66.5715
-52.5389
-41.1226
-31.9225
-24.5773
-18.7674
-14.2139
-10.6775
-7.95576
-5.87973
-4.31029
-3.13427
-2.26076
-1.61761
-1.14814
-0.808417
-0.564673
-0.391282
-0.26898
-0.183441
-0.124115
-0.0833119
-0.0554822
-0.0366579
-0.0240299
-0.0156281
-0.0100841
-0.00645564
-0.00410027
-0.00258378
-0.00161533
-0.00100189
-0.0006165
-0.000376342
-0.000227908
-0.000136915
-8.15903e-05
-4.82292e-05
-2.82779e-05
-1.6445e-05
-9.48558e-06
-5.42713e-06
-3.08107e-06
-1.73788e-06
-9.7839e-07
-5.58364e-07
-3.38737e-07
-2.45053e-07
-1655.75
-1641.66
-1613.84
-1572.99
-1520.13
-1456.56
-1383.79
-1303.49
-1217.43
-1127.4
-1035.18
-942.461
-850.786
-761.537
-675.897
-594.83
-519.077
-449.162
-385.4
-327.916
-276.67
-231.48
-192.055
-158.017
-128.93
-104.324
-83.7137
-66.6198
-52.5787
-41.1551
-31.9486
-24.5982
-18.7839
-14.2267
-10.6874
-7.96333
-5.88546
-4.31458
-3.13746
-2.26311
-1.61932
-1.14938
-0.809301
-0.5653
-0.391722
-0.269287
-0.183652
-0.124259
-0.0834101
-0.0555483
-0.0367019
-0.024059
-0.0156472
-0.0100965
-0.00646363
-0.00410538
-0.00258701
-0.00161736
-0.00100316
-0.000617282
-0.000376821
-0.000228199
-0.00013709
-8.16951e-05
-4.82913e-05
-2.83144e-05
-1.64663e-05
-9.4979e-06
-5.43415e-06
-3.08504e-06
-1.74014e-06
-9.79689e-07
-5.5911e-07
-3.3918e-07
-2.45372e-07
-1655.5
-1641.41
-1613.61
-1572.78
-1519.95
-1456.42
-1383.68
-1303.41
-1217.38
-1127.39
-1035.21
-942.509
-850.855
-761.624
-675.995
-594.936
-519.187
-449.272
-385.506
-328.017
-276.764
-231.566
-192.132
-158.085
-128.989
-104.374
-83.7566
-66.6556
-52.6083
-41.1792
-31.9681
-24.6137
-18.7961
-14.2363
-10.6948
-7.969
-5.88976
-4.31781
-3.13986
-2.26488
-1.6206
-1.15031
-0.809967
-0.565773
-0.392055
-0.269518
-0.183812
-0.124369
-0.0834845
-0.0555983
-0.0367353
-0.024081
-0.0156617
-0.0101059
-0.00646969
-0.00410925
-0.00258946
-0.0016189
-0.00100412
-0.000617875
-0.000377184
-0.000228419
-0.000137223
-8.17744e-05
-4.83383e-05
-2.8342e-05
-1.64824e-05
-9.50719e-06
-5.43949e-06
-3.08808e-06
-1.74186e-06
-9.80684e-07
-5.59664e-07
-3.39476e-07
-2.45611e-07
-1655.31
-1641.24
-1613.44
-1572.63
-1519.82
-1456.31
-1383.6
-1303.36
-1217.35
-1127.38
-1035.22
-942.543
-850.904
-761.685
-676.066
-595.012
-519.266
-449.351
-385.583
-328.09
-276.832
-231.628
-192.188
-158.135
-129.032
-104.411
-83.7881
-66.682
-52.6301
-41.1971
-31.9825
-24.6253
-18.8052
-14.2434
-10.7003
-7.97322
-5.89297
-4.32022
-3.14164
-2.26619
-1.62157
-1.15101
-0.810466
-0.566127
-0.392304
-0.269692
-0.183932
-0.124451
-0.0835403
-0.0556359
-0.0367604
-0.0240976
-0.0156726
-0.010113
-0.00647424
-0.00411216
-0.00259131
-0.00162006
-0.00100484
-0.00061832
-0.000377457
-0.000228585
-0.000137323
-8.18341e-05
-4.83736e-05
-2.83628e-05
-1.64944e-05
-9.51415e-06
-5.4435e-06
-3.09037e-06
-1.74314e-06
-9.81394e-07
-5.60078e-07
-3.39749e-07
-2.45762e-07
-1655.18
-1641.11
-1613.32
-1572.52
-1519.73
-1456.23
-1383.54
-1303.32
-1217.33
-1127.38
-1035.23
-942.566
-850.939
-761.729
-676.116
-595.066
-519.322
-449.408
-385.639
-328.143
-276.881
-231.674
-192.229
-158.171
-129.064
-104.438
-83.8111
-66.7013
-52.6461
-41.2101
-31.9931
-24.6337
-18.8119
-14.2487
-10.7044
-7.97634
-5.89533
-4.32199
-3.14297
-2.26717
-1.62228
-1.15152
-0.810835
-0.566389
-0.392488
-0.269821
-0.184022
-0.124512
-0.0835819
-0.0556639
-0.0367791
-0.02411
-0.0156807
-0.0101182
-0.00647764
-0.00411433
-0.00259268
-0.00162092
-0.00100538
-0.000618652
-0.00037766
-0.000228709
-0.000137397
-8.18785e-05
-4.83999e-05
-2.83782e-05
-1.65034e-05
-9.51934e-06
-5.44646e-06
-3.09206e-06
-1.7441e-06
-9.8193e-07
-5.60373e-07
-3.39946e-07
-2.45904e-07
-1655.09
-1641.02
-1613.24
-1572.45
-1519.66
-1456.18
-1383.5
-1303.29
-1217.31
-1127.37
-1035.24
-942.582
-850.963
-761.759
-676.152
-595.105
-519.362
-449.448
-385.679
-328.181
-276.917
-231.706
-192.258
-158.197
-129.086
-104.458
-83.8278
-66.7153
-52.6577
-41.2196
-32.0008
-24.6399
-18.8168
-14.2525
-10.7074
-7.97861
-5.89706
-4.32329
-3.14394
-2.26789
-1.6228
-1.1519
-0.811107
-0.566583
-0.392625
-0.269916
-0.184087
-0.124557
-0.0836125
-0.0556845
-0.0367928
-0.0241191
-0.0156866
-0.0101221
-0.00648014
-0.00411593
-0.0025937
-0.00162156
-0.00100578
-0.000618898
-0.000377811
-0.0002288
-0.000137452
-8.19112e-05
-4.84193e-05
-2.83895e-05
-1.651e-05
-9.52317e-06
-5.44864e-06
-3.09327e-06
-1.74478e-06
-9.8235e-07
-5.60631e-07
-3.40081e-07
-2.45995e-07
-1655.02
-1640.95
-1613.18
-1572.39
-1519.62
-1456.14
-1383.46
-1303.26
-1217.3
-1127.37
-1035.24
-942.593
-850.98
-761.781
-676.177
-595.132
-519.391
-449.477
-385.707
-328.208
-276.942
-231.729
-192.279
-158.215
-129.103
-104.472
-83.8397
-66.7253
-52.666
-41.2265
-32.0063
-24.6443
-18.8203
-14.2553
-10.7095
-7.98026
-5.89831
-4.32424
-3.14464
-2.26841
-1.62318
-1.15218
-0.811306
-0.566724
-0.392724
-0.269986
-0.184135
-0.12459
-0.0836349
-0.0556996
-0.0368029
-0.0241258
-0.015691
-0.010125
-0.00648198
-0.00411711
-0.00259444
-0.00162203
-0.00100607
-0.000619077
-0.000377921
-0.000228867
-0.000137492
-8.19352e-05
-4.84334e-05
-2.83978e-05
-1.65149e-05
-9.52597e-06
-5.45024e-06
-3.09419e-06
-1.74529e-06
-9.82614e-07
-5.60798e-07
-3.40174e-07
-2.46064e-07
-1654.98
-1640.91
-1613.13
-1572.35
-1519.58
-1456.11
-1383.44
-1303.25
-1217.29
-1127.37
-1035.24
-942.601
-850.992
-761.796
-676.194
-595.151
-519.411
-449.497
-385.727
-328.227
-276.96
-231.746
-192.294
-158.228
-129.114
-104.482
-83.8482
-66.7325
-52.672
-41.2314
-32.0103
-24.6475
-18.8229
-14.2573
-10.711
-7.98145
-5.89922
-4.32492
-3.14515
-2.26878
-1.62346
-1.15238
-0.811449
-0.566826
-0.392796
-0.270036
-0.18417
-0.124614
-0.0836512
-0.0557106
-0.0368103
-0.0241306
-0.0156942
-0.010127
-0.00648332
-0.00411796
-0.00259498
-0.00162236
-0.00100628
-0.000619208
-0.000378
-0.000228915
-0.000137521
-8.19525e-05
-4.84437e-05
-2.84039e-05
-1.65183e-05
-9.52796e-06
-5.4514e-06
-3.09486e-06
-1.74567e-06
-9.82822e-07
-5.60919e-07
-3.40237e-07
-2.46109e-07
-1654.94
-1640.88
-1613.1
-1572.33
-1519.56
-1456.09
-1383.43
-1303.24
-1217.29
-1127.37
-1035.24
-942.606
-851
-761.806
-676.206
-595.165
-519.425
-449.511
-385.74
-328.24
-276.972
-231.757
-192.304
-158.238
-129.122
-104.489
-83.8543
-66.7376
-52.6762
-41.2349
-32.0131
-24.6498
-18.8247
-14.2587
-10.7121
-7.9823
-5.89986
-4.32541
-3.14551
-2.26905
-1.62366
-1.15252
-0.811552
-0.566899
-0.392848
-0.270072
-0.184195
-0.124632
-0.0836629
-0.0557185
-0.0368155
-0.0241341
-0.0156965
-0.0101285
-0.00648428
-0.00411858
-0.00259537
-0.00162261
-0.00100643
-0.000619302
-0.000378058
-0.00022895
-0.000137542
-8.1965e-05
-4.84511e-05
-2.84082e-05
-1.65208e-05
-9.52938e-06
-5.4522e-06
-3.09533e-06
-1.74595e-06
-9.82977e-07
-5.6098e-07
-3.40295e-07
-2.46164e-07
-1654.92
-1640.86
-1613.08
-1572.31
-1519.54
-1456.08
-1383.42
-1303.23
-1217.28
-1127.36
-1035.25
-942.609
-851.005
-761.814