/*--------------------------------*- C++ -*----------------------------------*\
  =========                 |
  \\      /  F ield         | OpenFOAM: The Open Source CFD Toolbox
   \\    /   O peration     | Website:  https://openfoam.org
    \\  /    A nd           | Version:  10
     \\/     M anipulation  |
\*---------------------------------------------------------------------------*/
FoamFile
{
    format      ascii;
    class       volScalarField;
    location    "292";
    object      T;
}
// * * * * * * * * * * * * * * * * * * * * * * * * * * * * * * * * * * * * * //

dimensions      [0 0 0 1 0 0 0];

internalField   nonuniform List<scalar> 
11250
(
249.818
167.484
139.241
126.782
119.968
115.636
112.6
110.335
108.57
107.154
105.995
105.031
104.223
103.541
102.963
102.473
102.056
101.704
101.405
101.154
100.943
100.767
100.62
100.498
100.399
100.317
100.25
100.197
100.154
100.119
100.092
100.07
100.054
100.041
100.03
100.023
100.017
100.012
100.009
100.007
100.005
100.003
100.002
100.002
100.001
100.001
100.001
100
100
100
100
100
100
100
100
100
100
100
100
100
100
100
100
100
100
100
100
100
100
100
100
100
100
100
100
331.426
248.37
201.951
174.719
157.444
145.638
137.062
130.536
125.396
121.243
117.826
114.977
112.582
110.557
108.838
107.378
106.138
105.086
104.197
103.447
102.817
102.29
101.852
101.49
101.191
100.947
100.748
100.588
100.459
100.356
100.275
100.21
100.16
100.121
100.091
100.068
100.05
100.037
100.027
100.02
100.014
100.01
100.007
100.005
100.004
100.003
100.002
100.001
100.001
100.001
100
100
100
100
100
100
100
100
100
100
100
100
100
100
100
100
100
100
100
100
100
100
100
100
100
358.952
292.642
245.517
212.753
189.522
172.491
159.566
149.453
141.342
134.708
129.202
124.586
120.686
117.377
114.562
112.166
110.128
108.397
106.932
105.695
104.656
103.787
103.063
102.464
101.971
101.567
101.239
100.973
100.76
100.59
100.455
100.348
100.265
100.201
100.151
100.113
100.084
100.062
100.045
100.033
100.024
100.017
100.012
100.009
100.006
100.004
100.003
100.002
100.001
100.001
100.001
100
100
100
100
100
100
100
100
100
100
100
100
100
100
100
100
100
100
100
100
100
100
100
100
370.708
317.769
274.79
241.346
215.515
195.373
179.41
166.536
155.988
147.229
139.881
133.668
128.389
123.889
120.047
116.767
113.971
111.593
109.576
107.873
106.439
105.239
104.239
103.411
102.729
102.171
101.716
101.349
101.053
100.817
100.63
100.483
100.368
100.278
100.209
100.156
100.116
100.085
100.063
100.045
100.033
100.024
100.017
100.012
100.008
100.006
100.004
100.003
100.002
100.001
100.001
100.001
100
100
100
100
100
100
100
100
100
100
100
100
100
100
100
100
100
100
100
100
100
100
100
376.837
332.994
294.622
262.454
235.978
214.264
196.377
181.526
169.091
158.598
149.687
142.084
135.577
129.999
125.217
121.122
117.62
114.635
112.1
109.954
108.147
106.632
105.369
104.322
103.459
102.752
102.176
101.711
101.336
101.037
100.8
100.613
100.467
100.353
100.266
100.198
100.147
100.109
100.079
100.058
100.042
100.03
100.021
100.015
100.011
100.007
100.005
100.004
100.002
100.002
100.001
100.001
100.001
100
100
100
100
100
100
100
100
100
100
100
100
100
100
100
100
100
100
100
100
100
100
380.507
342.819
308.368
278.032
251.884
229.568
210.576
194.395
180.567
168.713
158.521
149.742
142.171
135.642
130.019
125.183
121.037
117.493
114.476
111.919
109.762
107.952
106.442
105.188
104.154
103.306
102.616
102.057
101.607
101.248
100.963
100.738
100.562
100.425
100.32
100.239
100.177
100.131
100.096
100.07
100.05
100.036
100.026
100.018
100.013
100.009
100.006
100.004
100.003
100.002
100.001
100.001
100.001
100
100
100
100
100
100
100
100
100
100
100
100
100
100
100
100
100
100
100
100
100
100
382.908
349.496
318.144
289.62
264.202
241.836
222.291
205.265
190.45
177.561
166.349
156.599
148.127
140.777
134.414
128.921
124.195
120.144
116.688
113.753
111.274
109.19
107.449
106.002
104.808
103.829
103.03
102.383
101.863
101.447
101.117
100.856
100.652
100.494
100.371
100.277
100.206
100.152
100.111
100.081
100.058
100.042
100.03
100.021
100.015
100.01
100.007
100.005
100.003
100.002
100.002
100.001
100.001
100
100
100
100
100
100
100
100
100
100
100
100
100
100
100
100
100
100
100
100
100
100
384.569
354.214
325.26
298.329
273.752
251.62
231.867
214.34
198.849
185.195
173.188
162.653
153.432
145.385
138.384
132.315
127.076
122.573
118.722
115.445
112.671
110.337
108.384
106.76
105.419
104.317
103.418
102.689
102.103
101.634
101.261
100.967
100.737
100.558
100.42
100.314
100.233
100.172
100.126
100.092
100.066
100.047
100.034
100.024
100.017
100.012
100.008
100.006
100.004
100.003
100.002
100.001
100.001
100.001
100
100
100
100
100
100
100
100
100
100
100
100
100
100
100
100
100
100
100
100
100
385.764
357.648
330.542
304.946
281.182
259.406
239.646
221.85
205.912
191.704
179.09
167.932
158.1
149.47
141.926
135.361
129.674
124.773
120.571
116.987
113.949
111.389
109.244
107.458
105.981
104.768
103.777
102.973
102.325
101.807
101.396
101.071
100.816
100.618
100.465
100.348
100.258
100.19
100.139
100.101
100.073
100.053
100.038
100.027
100.019
100.013
100.009
100.006
100.004
100.003
100.002
100.001
100.001
100.001
100
100
100
100
100
100
100
100
100
100
100
100
100
100
100
100
100
100
100
100
100
386.645
360.202
334.524
310.02
286.985
265.598
245.941
228.024
211.802
197.202
184.131
172.486
162.161
153.051
145.052
138.064
131.991
126.743
122.233
118.379
115.106
112.344
110.026
108.095
106.496
105.18
104.105
103.233
102.53
101.967
101.519
101.166
100.889
100.673
100.507
100.379
100.281
100.207
100.152
100.111
100.08
100.057
100.041
100.029
100.02
100.014
100.01
100.007
100.005
100.003
100.002
100.001
100.001
100.001
100
100
100
100
100
100
100
100
100
100
100
100
100
100
100
100
100
100
100
100
100
387.308
362.132
337.562
313.941
291.534
270.524
251.021
233.074
216.681
201.809
188.398
176.376
165.658
156.157
147.78
140.437
134.036
128.489
123.712
119.622
116.143
113.201
110.731
108.669
106.961
105.554
104.404
103.469
102.716
102.112
101.632
101.253
100.956
100.724
100.545
100.408
100.303
100.223
100.164
100.119
100.086
100.062
100.044
100.031
100.022
100.015
100.011
100.007
100.005
100.003
100.002
100.002
100.001
100.001
100
100
100
100
100
100
100
100
100
100
100
100
100
100
100
100
100
100
100
100
100
387.812
363.607
339.903
316.99
295.11
274.443
255.112
237.188
220.699
205.641
191.981
179.67
168.642
158.825
150.139
142.499
135.822
130.022
125.015
120.721
117.062
113.964
111.359
109.183
107.377
105.89
104.672
103.683
102.884
102.244
101.734
101.332
101.016
100.77
100.58
100.434
100.322
100.238
100.174
100.127
100.092
100.066
100.047
100.033
100.023
100.016
100.011
100.008
100.005
100.004
100.002
100.002
100.001
100.001
100
100
100
100
100
100
100
100
100
100
100
100
100
100
100
100
100
100
100
100
100
388.2
364.745
341.717
319.372
297.929
277.562
258.4
240.527
223.992
208.809
194.969
182.438
171.168
161.098
152.16
144.276
137.368
131.353
126.152
121.683
117.869
114.636
111.914
109.638
107.747
106.188
104.911
103.873
103.034
102.361
101.826
101.403
101.07
100.811
100.611
100.457
100.34
100.251
100.184
100.134
100.097
100.07
100.05
100.035
100.025
100.017
100.012
100.008
100.006
100.004
100.003
100.002
100.001
100.001
100.001
100
100
100
100
100
100
100
100
100
100
100
100
100
100
100
100
100
100
100
100
388.5
365.627
343.131
321.239
300.155
280.044
261.037
243.228
226.677
211.414
197.443
184.746
173.288
163.018
153.876
145.792
138.693
132.5
127.135
122.518
118.572
115.223
112.4
110.036
108.072
106.451
105.122
104.041
103.167
102.466
101.907
101.466
101.119
100.848
100.639
100.478
100.355
100.262
100.192
100.14
100.101
100.073
100.052
100.037
100.026
100.018
100.013
100.009
100.006
100.004
100.003
100.002
100.001
100.001
100.001
100
100
100
100
100
100
100
100
100
100
100
100
100
100
100
100
100
100
100
100
388.733
366.315
344.235
322.705
301.912
282.016
263.148
245.406
228.858
213.544
199.48
186.659
175.055
164.627
155.322
147.076
139.82
133.48
127.977
123.236
119.178
115.73
112.821
110.383
108.356
106.68
105.307
104.188
103.284
102.558
101.979
101.521
101.161
100.881
100.664
100.497
100.369
100.273
100.2
100.146
100.105
100.076
100.054
100.038
100.027
100.019
100.013
100.009
100.006
100.004
100.003
100.002
100.001
100.001
100.001
100
100
100
100
100
100
100
100
100
100
100
100
100
100
100
100
100
100
100
100
388.915
366.851
345.1
323.857
303.3
283.583
264.835
247.156
230.621
215.278
201.148
188.234
176.518
165.966
156.531
148.155
140.771
134.309
128.693
123.848
119.697
116.165
113.183
110.682
108.6
106.879
105.467
104.316
103.385
102.637
102.041
101.569
101.199
100.909
100.685
100.513
100.381
100.282
100.207
100.15
100.109
100.078
100.056
100.04
100.028
100.02
100.014
100.009
100.006
100.004
100.003
100.002
100.001
100.001
100.001
100
100
100
100
100
100
100
100
100
100
100
100
100
100
100
100
100
100
100
100
389.057
367.271
345.778
324.763
304.395
284.825
266.178
248.558
232.042
216.681
202.505
189.523
177.721
167.072
157.534
149.053
141.567
135.005
129.296
124.365
120.136
116.536
113.492
110.938
108.81
107.05
105.604
104.426
103.473
102.706
102.095
101.611
101.231
100.934
100.704
100.527
100.392
100.29
100.212
100.155
100.112
100.081
100.057
100.041
100.029
100.02
100.014
100.01
100.007
100.004
100.003
100.002
100.001
100.001
100.001
100
100
100
100
100
100
100
100
100
100
100
100
100
100
100
100
100
100
100
100
389.168
367.599
346.309
325.474
305.258
285.807
267.246
249.677
233.181
217.812
203.605
190.571
178.704
167.98
158.361
149.797
142.227
135.586
129.801
124.799
120.506
116.848
113.753
111.154
108.988
107.195
105.722
104.52
103.548
102.766
102.142
101.648
101.259
100.955
100.72
100.539
100.401
100.296
100.217
100.158
100.115
100.082
100.059
100.042
100.029
100.021
100.014
100.01
100.007
100.005
100.003
100.002
100.001
100.001
100.001
100
100
100
100
100
100
100
100
100
100
100
100
100
100
100
100
100
100
100
100
389.255
367.855
346.724
326.032
305.937
286.582
268.091
250.567
234.09
218.719
204.49
191.419
179.502
168.721
159.038
150.408
142.772
136.065
130.219
125.16
120.814
117.109
113.972
111.336
109.138
107.317
105.821
104.6
103.611
102.816
102.181
101.678
101.283
100.974
100.734
100.55
100.409
100.302
100.222
100.162
100.117
100.084
100.06
100.043
100.03
100.021
100.015
100.01
100.007
100.005
100.003
100.002
100.001
100.001
100.001
100
100
100
100
100
100
100
100
100
100
100
100
100
100
100
100
100
100
100
100
389.323
368.055
347.049
326.469
306.47
287.192
268.759
251.272
234.813
219.442
205.199
192.1
180.147
169.32
159.588
150.906
143.217
136.459
130.564
125.458
121.07
117.325
114.154
111.488
109.263
107.42
105.904
104.667
103.665
102.858
102.214
101.704
101.303
100.989
100.746
100.559
100.416
100.307
100.225
100.164
100.119
100.086
100.061
100.043
100.031
100.021
100.015
100.01
100.007
100.005
100.003
100.002
100.001
100.001
100.001
100
100
100
100
100
100
100
100
100
100
100
100
100
100
100
100
100
100
100
100
389.375
368.211
347.302
326.81
306.887
287.671
269.284
251.828
235.385
220.017
205.763
192.645
180.663
169.803
160.032
151.309
143.579
136.78
130.845
125.702
121.279
117.504
114.304
111.613
109.367
107.505
105.973
104.723
103.709
102.894
102.242
101.726
101.32
101.002
100.756
100.566
100.421
100.311
100.229
100.167
100.121
100.087
100.062
100.044
100.031
100.022
100.015
100.01
100.007
100.005
100.003
100.002
100.001
100.001
100.001
100
100
100
100
100
100
100
100
100
100
100
100
100
100
100
100
100
100
100
100
389.416
368.332
347.499
327.075
307.212
288.045
269.695
252.265
235.836
220.471
206.211
193.078
181.076
170.189
160.389
151.634
143.871
137.04
131.073
125.901
121.45
117.649
114.427
111.716
109.452
107.575
106.03
104.769
103.746
102.923
102.265
101.744
101.334
101.013
100.764
100.572
100.426
100.315
100.231
100.169
100.122
100.088
100.063
100.044
100.031
100.022
100.015
100.011
100.007
100.005
100.003
100.002
100.001
100.001
100.001
100
100
100
100
100
100
100
100
100
100
100
100
100
100
100
100
100
100
100
100
389.448
368.426
347.651
327.281
307.464
288.336
270.016
252.607
236.19
220.828
206.564
193.421
181.402
170.496
160.673
151.894
144.105
137.249
131.257
126.061
121.589
117.767
114.527
111.8
109.521
107.632
106.077
104.807
103.776
102.947
102.284
101.759
101.345
101.022
100.771
100.578
100.43
100.318
100.233
100.17
100.123
100.089
100.063
100.045
100.032
100.022
100.015
100.011
100.007
100.005
100.003
100.002
100.002
100.001
100.001
100
100
100
100
100
100
100
100
100
100
100
100
100
100
100
100
100
100
100
100
389.472
368.498
347.769
327.44
307.66
288.562
270.266
252.873
236.466
221.107
206.841
193.69
181.66
170.738
160.898
152.1
144.292
137.415
131.405
126.19
121.7
117.863
114.608
111.868
109.578
107.679
106.115
104.837
103.801
102.967
102.3
101.771
101.355
101.029
100.776
100.582
100.433
100.32
100.235
100.171
100.124
100.089
100.064
100.045
100.032
100.022
100.016
100.011
100.007
100.005
100.003
100.002
100.002
100.001
100.001
100
100
100
100
100
100
100
100
100
100
100
100
100
100
100
100
100
100
100
100
389.491
368.554
347.859
327.563
307.811
288.736
270.459
253.079
236.68
221.325
207.057
193.901
181.862
170.929
161.075
152.262
144.439
137.547
131.521
126.292
121.788
117.939
114.672
111.922
109.623
107.716
106.146
104.862
103.821
102.983
102.313
101.781
101.362
101.035
100.781
100.585
100.436
100.322
100.237
100.172
100.125
100.09
100.064
100.046
100.032
100.022
100.016
100.011
100.007
100.005
100.003
100.002
100.002
100.001
100.001
100
100
100
100
100
100
100
100
100
100
100
100
100
100
100
100
100
100
100
100
389.505
368.596
347.929
327.657
307.926
288.87
270.607
253.238
236.845
221.493
207.224
194.064
182.019
171.077
161.214
152.39
144.555
137.651
131.614
126.373
121.859
117.999
114.724
111.965
109.659
107.746
106.17
104.882
103.837
102.995
102.323
101.789
101.368
101.04
100.785
100.588
100.438
100.324
100.238
100.173
100.126
100.09
100.065
100.046
100.032
100.023
100.016
100.011
100.007
100.005
100.003
100.002
100.002
100.001
100.001
100
100
100
100
100
100
100
100
100
100
100
100
100
100
100
100
100
100
100
100
389.516
368.629
347.982
327.729
308.015
288.973
270.721
253.36
236.972
221.622
207.353
194.191
182.14
171.193
161.322
152.489
144.645
137.732
131.686
126.436
121.914
118.046
114.764
111.999
109.688
107.769
106.19
104.898
103.85
103.006
102.331
101.795
101.373
101.044
100.788
100.59
100.44
100.325
100.239
100.174
100.126
100.091
100.065
100.046
100.032
100.023
100.016
100.011
100.007
100.005
100.003
100.002
100.002
100.001
100.001
100
100
100
100
100
100
100
100
100
100
100
100
100
100
100
100
100
100
100
100
389.524
368.653
348.022
327.783
308.082
289.051
270.807
253.453
237.07
221.721
207.452
194.288
182.234
171.281
161.405
152.566
144.715
137.796
131.742
126.486
121.957
118.084
114.796
112.026
109.71
107.788
106.205
104.91
103.86
103.014
102.337
101.8
101.377
101.047
100.79
100.592
100.441
100.326
100.239
100.175
100.127
100.091
100.065
100.046
100.033
100.023
100.016
100.011
100.008
100.005
100.003
100.002
100.002
100.001
100.001
100
100
100
100
100
100
100
100
100
100
100
100
100
100
100
100
100
100
100
100
389.531
368.672
348.052
327.825
308.133
289.11
270.873
253.523
237.143
221.797
207.528
194.362
182.306
171.35
161.469
152.625
144.769
137.844
131.785
126.524
121.99
118.112
114.821
112.047
109.728
107.803
106.217
104.92
103.868
103.02
102.342
101.804
101.38
101.049
100.792
100.594
100.442
100.327
100.24
100.175
100.127
100.091
100.065
100.046
100.033
100.023
100.016
100.011
100.008
100.005
100.003
100.002
100.002
100.001
100.001
100
100
100
100
100
100
100
100
100
100
100
100
100
100
100
100
100
100
100
100
389.535
368.686
348.075
327.856
308.171
289.155
270.923
253.577
237.199
221.854
207.585
194.418
182.36
171.401
161.517
152.67
144.811
137.881
131.819
126.554
122.016
118.135
114.84
112.063
109.741
107.814
106.226
104.928
103.874
103.025
102.346
101.807
101.383
101.051
100.793
100.595
100.443
100.327
100.24
100.175
100.127
100.091
100.065
100.046
100.033
100.023
100.016
100.011
100.008
100.005
100.003
100.002
100.002
100.001
100.001
100
100
100
100
100
100
100
100
100
100
100
100
100
100
100
100
100
100
100
100
389.539
368.696
348.092
327.879
308.2
289.188
270.96
253.617
237.241
221.897
207.628
194.461
182.401
171.441
161.554
152.704
144.842
137.91
131.844
126.576
122.036
118.152
114.854
112.075
109.752
107.823
106.233
104.934
103.879
103.029
102.349
101.81
101.385
101.052
100.794
100.596
100.443
100.328
100.241
100.176
100.127
100.092
100.065
100.046
100.033
100.023
100.016
100.011
100.008
100.005
100.003
100.002
100.002
100.001
100.001
100
100
100
100
100
100
100
100
100
100
100
100
100
100
100
100
100
100
100
100
389.541
368.704
348.105
327.896
308.222
289.213
270.988
253.647
237.273
221.929
207.661
194.492
182.432
171.47
161.582
152.73
144.866
137.931
131.863
126.593
122.051
118.165
114.865
112.085
109.76
107.829
106.239
104.938
103.882
103.032
102.352
101.812
101.386
101.054
100.795
100.596
100.444
100.328
100.241
100.176
100.127
100.092
100.066
100.047
100.033
100.023
100.016
100.011
100.008
100.005
100.003
100.002
100.002
100.001
100.001
100
100
100
100
100
100
100
100
100
100
100
100
100
100
100
100
100
100
100
100
389.543
368.71
348.114
327.909
308.237
289.231
271.008
253.669
237.296
221.953
207.685
194.516
182.455
171.492
161.603
152.75
144.884
137.948
131.878
126.606
122.062
118.174
114.874
112.092
109.766
107.834
106.243
104.942
103.885
103.034
102.353
101.813
101.387
101.054
100.796
100.597
100.444
100.329
100.241
100.176
100.128
100.092
100.066
100.047
100.033
100.023
100.016
100.011
100.008
100.005
100.003
100.002
100.002
100.001
100.001
100
100
100
100
100
100
100
100
100
100
100
100
100
100
100
100
100
100
100
100
389.545
368.714
348.121
327.918
308.249
289.245
271.024
253.686
237.313
221.971
207.703
194.534
182.472
171.509
161.618
152.764
144.897
137.96
131.889
126.616
122.07
118.182
114.88
112.097
109.77
107.838
106.246
104.944
103.887
103.036
102.355
101.814
101.388
101.055
100.796
100.597
100.445
100.329
100.242
100.176
100.128
100.092
100.066
100.047
100.033
100.023
100.016
100.011
100.008
100.005
100.003
100.002
100.002
100.001
100.001
100
100
100
100
100
100
100
100
100
100
100
100
100
100
100
100
100
100
100
100
389.546
368.717
348.126
327.925
308.258
289.255
271.035
253.698
237.326
221.984
207.716
194.547
182.485
171.521
161.63
152.775
144.907
137.969
131.897
126.623
122.077
118.187
114.885
112.102
109.774
107.841
106.248
104.946
103.889
103.037
102.356
101.815
101.389
101.056
100.797
100.597
100.445
100.329
100.242
100.176
100.128
100.092
100.066
100.047
100.033
100.023
100.016
100.011
100.008
100.005
100.003
100.002
100.002
100.001
100.001
100
100
100
100
100
100
100
100
100
100
100
100
100
100
100
100
100
100
100
100
389.547
368.72
348.13
327.93
308.264
289.262
271.043
253.706
237.335
221.993
207.725
194.556
182.494
171.53
161.638
152.783
144.914
137.975
131.903
126.628
122.081
118.191
114.888
112.104
109.776
107.843
106.25
104.947
103.89
103.038
102.356
101.816
101.389
101.056
100.797
100.598
100.445
100.329
100.242
100.176
100.128
100.092
100.066
100.047
100.033
100.023
100.016
100.011
100.008
100.005
100.003
100.002
100.002
100.001
100.001
100
100
100
100
100
100
100
100
100
100
100
100
100
100
100
100
100
100
100
100
389.547
368.721
348.133
327.934
308.268
289.268
271.049
253.713
237.342
222
207.732
194.563
182.501
171.536
161.644
152.788
144.919
137.98
131.907
126.632
122.085
118.194
114.891
112.107
109.778
107.845
106.251
104.949
103.891
103.039
102.357
101.816
101.39
101.056
100.797
100.598
100.445
100.329
100.242
100.176
100.128
100.092
100.066
100.047
100.033
100.023
100.016
100.011
100.008
100.005
100.003
100.002
100.002
100.001
100.001
100
100
100
100
100
100
100
100
100
100
100
100
100
100
100
100
100
100
100
100
389.548
368.722
348.135
327.937
308.272
289.271
271.053
253.717
237.347
222.005
207.737
194.568
182.506
171.541
161.649
152.792
144.923
137.983
131.91
126.635
122.087
118.196
114.893
112.108
109.779
107.846
106.252
104.949
103.891
103.039
102.357
101.816
101.39
101.056
100.797
100.598
100.445
100.329
100.242
100.176
100.128
100.092
100.066
100.047
100.033
100.023
100.016
100.011
100.008
100.005
100.003
100.002
100.002
100.001
100.001
100
100
100
100
100
100
100
100
100
100
100
100
100
100
100
100
100
100
100
100
389.548
368.723
348.136
327.939
308.274
289.274
271.056
253.721
237.35
222.009
207.741
194.572
182.509
171.544
161.652
152.795
144.926
137.986
131.912
126.637
122.089
118.198
114.894
112.109
109.78
107.847
106.253
104.95
103.892
103.04
102.358
101.817
101.39
101.057
100.798
100.598
100.445
100.329
100.242
100.176
100.128
100.092
100.066
100.047
100.033
100.023
100.016
100.011
100.008
100.005
100.003
100.002
100.002
100.001
100.001
100
100
100
100
100
100
100
100
100
100
100
100
100
100
100
100
100
100
100
100
389.548
368.724
348.137
327.94
308.276
289.276
271.058
253.723
237.353
222.011
207.744
194.574
182.512
171.547
161.654
152.798
144.928
137.988
131.914
126.638
122.09
118.199
114.895
112.11
109.781
107.847
106.254
104.95
103.892
103.04
102.358
101.817
101.39
101.057
100.798
100.598
100.445
100.329
100.242
100.176
100.128
100.092
100.066
100.047
100.033
100.023
100.016
100.011
100.008
100.005
100.004
100.002
100.002
100.001
100.001
100
100
100
100
100
100
100
100
100
100
100
100
100
100
100
100
100
100
100
100
389.548
368.724
348.138
327.941
308.277
289.277
271.06
253.725
237.355
222.013
207.745
194.576
182.514
171.548
161.656
152.799
144.929
137.989
131.915
126.639
122.091
118.2
114.896
112.111
109.781
107.848
106.254
104.951
103.893
103.04
102.358
101.817
101.39
101.057
100.798
100.598
100.445
100.329
100.242
100.177
100.128
100.092
100.066
100.047
100.033
100.023
100.016
100.011
100.008
100.005
100.004
100.002
100.002
100.001
100.001
100
100
100
100
100
100
100
100
100
100
100
100
100
100
100
100
100
100
100
100
389.548
368.725
348.138
327.942
308.278
289.278
271.061
253.726
237.356
222.015
207.747
194.578
182.515
171.55
161.657
152.8
144.93
137.99
131.916
126.64
122.092
118.201
114.896
112.111
109.782
107.848
106.254
104.951
103.893
103.04
102.358
101.817
101.39
101.057
100.798
100.598
100.445
100.329
100.242
100.177
100.128
100.092
100.066
100.047
100.033
100.023
100.016
100.011
100.008
100.005
100.004
100.002
100.002
100.001
100.001
100
100
100
100
100
100
100
100
100
100
100
100
100
100
100
100
100
100
100
100
389.548
368.725
348.139
327.942
308.278
289.279
271.062
253.727
237.357
222.015
207.748
194.578
182.516
171.55
161.658
152.801
144.931
137.991
131.917
126.641
122.092
118.201
114.897
112.112
109.782
107.848
106.254
104.951
103.893
103.04
102.358
101.817
101.39
101.057
100.798
100.598
100.445
100.329
100.242
100.177
100.128
100.092
100.066
100.047
100.033
100.023
100.016
100.011
100.008
100.005
100.004
100.002
100.002
100.001
100.001
100
100
100
100
100
100
100
100
100
100
100
100
100
100
100
100
100
100
100
100
389.548
368.725
348.139
327.942
308.279
289.28
271.062
253.727
237.357
222.016
207.748
194.579
182.516
171.551
161.659
152.801
144.931
137.991
131.917
126.641
122.093
118.201
114.897
112.112
109.782
107.848
106.255
104.951
103.893
103.04
102.358
101.817
101.391
101.057
100.798
100.598
100.445
100.329
100.242
100.177
100.128
100.092
100.066
100.047
100.033
100.023
100.016
100.011
100.008
100.005
100.004
100.002
100.002
100.001
100.001
100
100
100
100
100
100
100
100
100
100
100
100
100
100
100
100
100
100
100
100
389.548
368.725
348.139
327.943
308.279
289.28
271.063
253.728
237.358
222.017
207.749
194.58
182.517
171.551
161.659
152.802
144.932
137.991
131.917
126.641
122.093
118.201
114.897
112.112
109.782
107.848
106.255
104.951
103.893
103.04
102.358
101.817
101.391
101.057
100.798
100.598
100.445
100.329
100.242
100.177
100.128
100.092
100.066
100.047
100.033
100.023
100.016
100.011
100.008
100.005
100.004
100.002
100.002
100.001
100.001
100
100
100
100
100
100
100
100
100
100
100
100
100
100
100
100
100
100
100
100
389.548
368.725
348.139
327.943
308.279
289.28
271.063
253.728
237.358
222.017
207.749
194.58
182.517
171.552
161.659
152.802
144.932
137.992
131.917
126.641
122.093
118.202
114.897
112.112
109.782
107.848
106.255
104.951
103.893
103.04
102.358
101.817
101.391
101.057
100.798
100.598
100.445
100.329
100.242
100.177
100.128
100.092
100.066
100.047
100.033
100.023
100.016
100.011
100.008
100.005
100.004
100.002
100.002
100.001
100.001
100
100
100
100
100
100
100
100
100
100
100
100
100
100
100
100
100
100
100
100
389.548
368.725
348.139
327.943
308.279
289.28
271.063
253.728
237.358
222.017
207.749
194.58
182.517
171.552
161.659
152.802
144.932
137.992
131.918
126.641
122.093
118.202
114.897
112.112
109.783
107.848
106.255
104.951
103.893
103.04
102.358
101.817
101.391
101.057
100.798
100.598
100.445
100.329
100.242
100.177
100.128
100.092
100.066
100.047
100.033
100.023
100.016
100.011
100.008
100.005
100.004
100.002
100.002
100.001
100.001
100
100
100
100
100
100
100
100
100
100
100
100
100
100
100
100
100
100
100
100
389.549
368.725
348.139
327.943
308.279
289.28
271.063
253.728
237.358
222.017
207.749
194.58
182.518
171.552
161.66
152.802
144.932
137.992
131.918
126.642
122.093
118.202
114.897
112.112
109.783
107.848
106.255
104.951
103.893
103.04
102.359
101.817
101.391
101.057
100.798
100.598
100.445
100.329
100.242
100.177
100.128
100.092
100.066
100.047
100.033
100.023
100.016
100.011
100.008
100.005
100.004
100.002
100.002
100.001
100.001
100
100
100
100
100
100
100
100
100
100
100
100
100
100
100
100
100
100
100
100
389.549
368.725
348.139
327.943
308.279
289.28
271.063
253.728
237.358
222.017
207.749
194.58
182.518
171.552
161.66
152.802
144.932
137.992
131.918
126.642
122.093
118.202
114.897
112.112
109.783
107.849
106.255
104.951
103.893
103.04
102.359
101.817
101.391
101.057
100.798
100.598
100.445
100.329
100.242
100.177
100.128
100.092
100.066
100.047
100.033
100.023
100.016
100.011
100.008
100.005
100.004
100.002
100.002
100.001
100.001
100
100
100
100
100
100
100
100
100
100
100
100
100
100
100
100
100
100
100
100
389.549
368.725
348.139
327.943
308.279
289.28
271.063
253.728
237.358
222.017
207.749
194.58
182.518
171.552
161.66
152.802
144.932
137.992
131.918
126.642
122.093
118.202
114.897
112.112
109.783
107.849
106.255
104.951
103.893
103.04
102.359
101.817
101.391
101.057
100.798
100.598
100.445
100.329
100.242
100.177
100.128
100.092
100.066
100.047
100.033
100.023
100.016
100.011
100.008
100.005
100.004
100.002
100.002
100.001
100.001
100
100
100
100
100
100
100
100
100
100
100
100
100
100
100
100
100
100
100
100
389.549
368.725
348.139
327.943
308.279
289.281
271.063
253.728
237.359
222.017
207.749
194.58
182.518
171.552
161.66
152.803
144.932
137.992
131.918
126.642
122.093
118.202
114.897
112.112
109.783
107.849
106.255
104.951
103.893
103.04
102.359
101.817
101.391
101.057
100.798
100.598
100.445
100.329
100.242
100.177
100.128
100.092
100.066
100.047
100.033
100.023
100.016
100.011
100.008
100.005
100.004
100.002
100.002
100.001
100.001
100
100
100
100
100
100
100
100
100
100
100
100
100
100
100
100
100
100
100
100
389.549
368.725
348.139
327.943
308.279
289.281
271.063
253.728
237.359
222.017
207.749
194.58
182.518
171.552
161.66
152.803
144.932
137.992
131.918
126.642
122.093
118.202
114.897
112.112
109.783
107.849
106.255
104.951
103.893
103.04
102.359
101.817
101.391
101.057
100.798
100.598
100.445
100.329
100.242
100.177
100.128
100.092
100.066
100.047
100.033
100.023
100.016
100.011
100.008
100.005
100.004
100.002
100.002
100.001
100.001
100
100
100
100
100
100
100
100
100
100
100
100
100
100
100
100
100
100
100
100
389.549
368.725
348.139
327.943
308.279
289.281
271.063
253.728
237.359
222.017
207.749
194.58
182.518
171.552
161.66
152.803
144.932
137.992
131.918
126.642
122.093
118.202
114.897
112.112
109.783
107.849
106.255
104.951
103.893
103.04
102.359
101.817
101.391
101.057
100.798
100.598
100.445
100.329
100.242
100.177
100.128
100.092
100.066
100.047
100.033
100.023
100.016
100.011
100.008
100.005
100.004
100.002
100.002
100.001
100.001
100
100
100
100
100
100
100
100
100
100
100
100
100
100
100
100
100
100
100
100
389.549
368.725
348.139
327.943
308.279
289.281
271.063
253.728
237.359
222.017
207.75
194.58
182.518
171.552
161.66
152.803
144.932
137.992
131.918
126.642
122.093
118.202
114.897
112.112
109.783
107.849
106.255
104.951
103.893
103.04
102.359
101.817
101.391
101.057
100.798
100.598
100.445
100.329
100.242
100.177
100.128
100.092
100.066
100.047
100.033
100.023
100.016
100.011
100.008
100.005
100.004
100.002
100.002
100.001
100.001
100
100
100
100
100
100
100
100
100
100
100
100
100
100
100
100
100
100
100
100
389.549
368.725
348.139
327.943
308.28
289.281
271.063
253.728
237.359
222.017
207.75
194.58
182.518
171.552
161.66
152.803
144.932
137.992
131.918
126.642
122.093
118.202
114.897
112.112
109.783
107.849
106.255
104.951
103.893
103.04
102.359
101.817
101.391
101.057
100.798
100.598
100.445
100.329
100.242
100.177
100.128
100.092
100.066
100.047
100.033
100.023
100.016
100.011
100.008
100.005
100.004
100.002
100.002
100.001
100.001
100
100
100
100
100
100
100
100
100
100
100
100
100
100
100
100
100
100
100
100
389.549
368.725
348.139
327.943
308.28
289.281
271.063
253.728
237.359
222.017
207.75
194.58
182.518
171.552
161.66
152.803
144.932
137.992
131.918
126.642
122.093
118.202
114.897
112.112
109.783
107.849
106.255
104.951
103.893
103.04
102.359
101.817
101.391
101.057
100.798
100.598
100.445
100.329
100.242
100.177
100.128
100.092
100.066
100.047
100.033
100.023
100.016
100.011
100.008
100.005
100.004
100.002
100.002
100.001
100.001
100
100
100
100
100
100
100
100
100
100
100
100
100
100
100
100
100
100
100
100
389.549
368.725
348.139
327.943
308.28
289.281
271.063
253.728
237.359
222.017
207.75
194.58
182.518
171.552
161.66
152.803
144.932
137.992
131.918
126.642
122.093
118.202
114.897
112.112
109.783
107.849
106.255
104.951
103.893
103.04
102.359
101.817
101.391
101.057
100.798
100.598
100.445
100.329
100.242
100.177
100.128
100.092
100.066
100.047
100.033
100.023
100.016
100.011
100.008
100.005
100.004
100.002
100.002
100.001
100.001
100
100
100
100
100
100
100
100
100
100
100
100
100
100
100
100
100
100
100
100
389.549
368.725
348.139
327.943
308.28
289.281
271.063
253.728
237.359
222.017
207.75
194.58