/*--------------------------------*- C++ -*----------------------------------*\
  =========                 |
  \\      /  F ield         | OpenFOAM: The Open Source CFD Toolbox
   \\    /   O peration     | Website:  https://openfoam.org
    \\  /    A nd           | Version:  10
     \\/     M anipulation  |
\*---------------------------------------------------------------------------*/
FoamFile
{
    format      ascii;
    class       volScalarField;
    location    "73";
    object      gradTx;
}
// * * * * * * * * * * * * * * * * * * * * * * * * * * * * * * * * * * * * * //

dimensions      [0 -1 0 1 0 0 0];

internalField   nonuniform List<scalar> 
11250
(
14214.4
7852.56
4906.7
3293.39
2291.75
1617.62
1142.96
801.786
555.477
378.723
253.501
166.305
106.804
67.0906
41.1983
24.7215
14.4924
8.29898
4.64203
2.53631
1.35377
0.705979
0.35976
0.17918
0.0872405
0.0415332
0.0193388
0.00880903
0.00392652
0.0017131
0.000731768
0.000306122
0.000125449
5.0374e-05
1.98258e-05
7.64994e-06
2.89469e-06
1.0744e-06
3.91279e-07
1.39834e-07
4.90569e-08
1.69253e-08
5.70432e-09
1.87144e-09
5.79542e-10
1.73424e-10
2.305e-11
-4.39047e-12
2.19524e-12
0
1.09762e-12
0
1.4269e-11
0
1.09762e-12
0
1.09762e-12
-2.19524e-12
0
2.19524e-12
0
1.09762e-12
0
-2.19524e-11
9.87856e-12
-1.09762e-12
-1.09762e-12
0
1.09762e-12
0
-5.48809e-12
0
-7.68332e-12
0
-9.87856e-12
4011.88
4456.04
3604.67
2720.64
2008.41
1464.38
1054.8
749.041
523.208
358.781
241.161
158.708
102.172
64.3038
39.5475
23.7605
13.9434
7.99148
4.47329
2.44564
1.30608
0.681427
0.347392
0.173083
0.0842993
0.0401447
0.0186972
0.00851881
0.00379799
0.00165736
0.000708087
0.000296267
0.00012143
4.87675e-05
1.91963e-05
7.40807e-06
2.80351e-06
1.0407e-06
3.79031e-07
1.35482e-07
4.75301e-08
1.63808e-08
5.53968e-09
1.82534e-09
5.97104e-10
1.87693e-10
5.04904e-11
2.19523e-12
-2.19523e-12
0
-1.75619e-11
0
-1.4269e-11
8.78094e-12
-1.31714e-11
-6.5857e-12
-1.4269e-11
0
-4.39047e-12
0
0
-1.09762e-12
0
2.41476e-11
5.48809e-12
0
-1.09762e-12
1.09762e-12
-1.09762e-12
0
-8.78094e-12
0
8.78094e-12
2.19523e-12
0
1395.4
2373.96
2364.89
2013.8
1599.69
1221.49
906.779
657.215
465.687
322.662
218.561
144.683
93.5705
59.1044
36.4565
21.956
12.9102
7.41166
4.15461
2.27417
1.21578
0.634895
0.323929
0.161508
0.0787111
0.0375046
0.0174765
0.0079663
0.00355315
0.00155111
0.000662931
0.000277464
0.000113758
4.56995e-05
1.79935e-05
6.94564e-06
2.62914e-06
9.76203e-07
3.55609e-07
1.27137e-07
4.46192e-08
1.53644e-08
5.21149e-09
1.74631e-09
5.8064e-10
1.90985e-10
6.91499e-11
1.75619e-11
0
0
1.09762e-12
-1.09762e-12
4.39047e-12
8.78094e-12
0
-2.19523e-12
0
4.39047e-12
0
-2.19524e-12
0
0
0
-1.4269e-11
-1.09762e-11
2.19524e-12
3.29285e-12
2.19523e-12
0
0
3.29285e-12
8.78094e-12
0
-1.09762e-12
8.78094e-12
597.302
1297.27
1494.97
1405.48
1195.35
957.248
734.959
545.762
393.666
276.428
189.163
126.221
82.145
52.1501
32.2996
19.5187
11.5096
6.62343
3.72034
2.04003
1.09226
0.571149
0.291745
0.145611
0.0710291
0.0338722
0.0157955
0.00720492
0.00321553
0.00140452
0.000600586
0.000251491
0.000103155
4.14572e-05
1.63295e-05
6.30565e-06
2.38773e-06
8.86852e-07
3.23193e-07
1.15593e-07
4.05822e-08
1.39573e-08
4.72634e-09
1.58825e-09
5.19173e-10
1.62447e-10
6.25642e-11
1.4269e-11
0
0
1.53666e-11
0
1.09762e-12
-8.78094e-12
1.31714e-11
5.48809e-12
1.4269e-11
-4.39047e-12
5.48809e-12
6.58571e-12
0
-2.19523e-12
0
-1.09762e-12
-4.39047e-12
3.29285e-12
0
1.09762e-12
0
2.19524e-12
5.48809e-12
0
-1.09762e-12
-1.09762e-12
-5.48809e-12
299.413
739.054
937.644
950.138
855.725
715.629
567.757
432.241
317.802
226.494
156.811
105.609
69.2472
44.231
27.533
16.7082
9.88717
5.70686
3.21376
1.76616
0.947457
0.496268
0.253874
0.126878
0.0619642
0.0295807
0.0138075
0.00630361
0.00281551
0.00123069
0.000526608
0.00022065
9.0557e-05
3.64138e-05
1.43502e-05
5.54397e-06
2.10025e-06
7.80395e-07
2.84516e-07
1.018e-07
3.57472e-08
1.22988e-08
4.17204e-09
1.38519e-09
4.47828e-10
1.28421e-10
2.85381e-11
3.29285e-12
1.09762e-12
3.29285e-12
8.78094e-12
1.09762e-12
-5.48809e-12
-9.87856e-12
0
5.48809e-12
1.09762e-12
-8.78094e-12
-5.48809e-12
0
0
0
0
1.86595e-11
0
-1.09762e-12
-1.09762e-12
-3.29285e-12
0
-1.09762e-12
-9.87856e-12
-1.20738e-11
-7.68332e-12
-1.09762e-12
-1.09762e-12
165.639
436.232
588.863
630.336
594.283
515.787
421.557
328.636
246.243
178.179
124.883
84.9499
56.1594
36.1156
22.6093
13.786
8.19117
4.7444
2.67979
1.47656
0.793908
0.416676
0.213536
0.106887
0.0522753
0.0249873
0.0116769
0.00533651
0.00238584
0.00104379
0.000447
0.000187435
7.69793e-05
3.09744e-05
1.22141e-05
4.72145e-06
1.78962e-06
6.65326e-07
2.4267e-07
8.68468e-08
3.04907e-08
1.05119e-08
3.5475e-09
1.15799e-09
3.68799e-10
1.20738e-10
3.29285e-11
9.87856e-12
-2.19524e-12
-2.19523e-12
-6.58571e-12
-1.09762e-12
0
-3.29285e-12
-1.09762e-12
0
-1.09762e-12
2.19524e-12
1.09762e-12
-6.58571e-12
1.09762e-12
2.19523e-12
1.09762e-12
0
-1.09762e-12
-4.39047e-12
0
0
0
-2.19524e-12
4.39047e-12
1.09762e-12
-4.39047e-12
0
0
96.7852
263.675
370.511
412.626
403.17
360.858
302.676
241.1
183.903
135.047
95.8154
65.8431
43.8998
28.4343
17.9089
10.9765
6.55086
3.80888
2.15855
1.19282
0.642996
0.338237
0.173688
0.0870974
0.0426657
0.0204238
0.00955697
0.00437296
0.00195723
0.00085715
0.000367417
0.000154199
6.3381e-05
2.55223e-05
1.00714e-05
3.89582e-06
1.47761e-06
5.49661e-07
2.00584e-07
7.18226e-08
2.52342e-08
8.72606e-09
2.94161e-09
9.49439e-10
2.82088e-10
1.00981e-10
3.62214e-11
1.09762e-11
-1.09762e-12
-4.39047e-12
-9.87856e-12
0
0
-1.09762e-12
0
-9.87856e-12
-1.09762e-12
-7.68332e-12
4.39047e-12
-4.39047e-12
0
-2.19523e-12
1.09762e-12
-5.48809e-12
2.19523e-12
2.19524e-12
0
0
-1.20738e-11
1.09762e-12
1.31714e-11
2.19524e-12
0
-7.68332e-12
0
58.1356
161.417
232.922
266.941
268.13
246.093
211.024
171.328
132.829
98.9003
70.9986
49.2785
33.1361
21.619
13.7015
8.44308
5.06245
2.95546
1.68088
0.931775
0.503672
0.265602
0.13669
0.0686805
0.0337041
0.01616
0.00757298
0.00346982
0.00155493
0.000681744
0.000292538
0.000122895
5.05602e-05
2.03771e-05
8.04762e-06
3.11534e-06
1.18244e-06
4.40163e-07
1.60715e-07
5.75689e-08
2.02532e-08
6.99073e-09
2.36756e-09
7.70527e-10
2.26109e-10
5.70761e-11
7.68332e-12
2.305e-11
1.09762e-12
-3.29285e-12
5.48809e-12
0
0
4.39047e-12
1.09762e-12
4.39047e-12
2.305e-11
3.29285e-12
-3.29285e-12
0
0
0
-3.29285e-12
0
0
0
7.68332e-12
-1.09762e-12
0
1.09762e-12
-1.09762e-12
0
6.5857e-12
0
4.39047e-12
35.3219
99.2134
145.777
170.611
175.074
163.985
143.254
118.251
93.0249
70.1489
50.9166
35.6789
24.1905
15.8963
10.1377
6.28108
3.78411
2.21845
1.26639
0.704319
0.381835
0.201881
0.104141
0.0524369
0.0257822
0.0123833
0.0058124
0.00266705
0.0011968
0.000525379
0.000225703
9.49195e-05
3.90904e-05
1.57695e-05
6.23347e-06
2.41511e-06
9.17427e-07
3.41792e-07
1.24895e-07
4.47554e-08
1.57387e-08
5.41345e-09
1.81875e-09
6.20154e-10
2.0745e-10
6.69547e-11
1.53666e-11
1.86595e-11
4.39047e-12
-1.20738e-11
-2.19524e-12
0
-1.09762e-12
-3.29285e-12
0
8.78094e-12
1.4269e-11
1.4269e-11
-4.39047e-12
4.39047e-12
-1.09762e-12
2.19523e-12
8.78094e-12
0
-1.09762e-12
0
1.4269e-11
2.19523e-12
1.31714e-11
-1.09762e-12
2.19523e-12
5.48809e-12
6.58571e-12
8.78094e-12
2.19524e-12
21.4925
60.8271
90.521
107.609
112.276
106.909
94.8569
79.427
63.2931
48.2799
35.4013
25.0302
17.105
11.3185
7.26249
4.52402
2.73859
1.61232
0.923862
0.515548
0.280341
0.148622
0.0768554
0.0387843
0.019108
0.00919467
0.00432304
0.00198674
0.000892802
0.000392453
0.000168807
7.10747e-05
2.93024e-05
1.1833e-05
4.682e-06
1.81569e-06
6.90345e-07
2.57398e-07
9.41361e-08
3.37814e-08
1.18795e-08
4.09741e-09
1.41044e-09
4.95025e-10
1.96474e-10
7.90285e-11
3.40261e-11
-4.39047e-12
1.09762e-12
4.39047e-12
-2.19524e-12
-1.09762e-12
0
0
0
-5.48809e-12
-1.97571e-11
-1.09762e-12
2.19523e-12
-1.09762e-12
-1.09762e-12
0
1.09762e-12
-1.09762e-12
-1.09762e-12
-1.09762e-12
-6.58571e-12
0
-1.09762e-12
0
1.09762e-12
0
-6.58571e-12
0
1.09762e-12
13.0124
37.0208
55.6061
66.8889
70.7079
68.2327
61.332
51.9879
41.8983
32.2902
23.8974
17.0374
11.7296
7.81309
5.04291
3.15795
1.92065
1.13553
0.65312
0.365703
0.199469
0.106041
0.0549741
0.0278057
0.0137279
0.00661848
0.0031173
0.00143496
0.00064582
0.000284286
0.000122442
5.16165e-05
2.13049e-05
8.61288e-06
3.41143e-06
1.32428e-06
5.03983e-07
1.88086e-07
6.88656e-08
2.47633e-08
8.74472e-09
3.02833e-09
1.05701e-09
3.76483e-10
1.56959e-10
4.06118e-11
1.53666e-11
-1.31714e-11
-5.48809e-12
1.20738e-11
2.19523e-12
0
2.19523e-12
4.39047e-12
2.19523e-12
1.09762e-12
-1.4269e-11
0
4.39047e-12
-1.09762e-12
3.29285e-12
1.4269e-11
-8.78094e-12
0
0
-9.87856e-12
-3.7319e-11
-1.09762e-12
0
0
-3.29285e-12
-5.48809e-12
0
-2.19523e-12
-3.29285e-12
7.80436
22.2885
33.7108
40.9221
43.7097
42.6416
38.7476
33.1901
27.0139
21.0104
15.6803
11.2647
7.80914
5.2342
3.39743
2.13833
1.30648
0.775608
0.44777
0.251569
0.137637
0.0733747
0.0381359
0.0193341
0.00956582
0.00462096
0.00218044
0.0010054
0.000453201
0.000199789
8.61672e-05
3.63715e-05
1.50308e-05
6.08347e-06
2.41219e-06
9.37368e-07
3.57105e-07
1.33453e-07
4.89307e-08
1.76014e-08
6.23008e-09
2.1645e-09
7.43087e-10
2.5355e-10
7.4638e-11
2.305e-11
1.09762e-12
6.58571e-12
4.39047e-12
2.19523e-12
4.39047e-12
4.39047e-12
0
1.09762e-12
-1.09762e-12
-1.09762e-12
-3.29285e-12
0
-1.09762e-12
2.19524e-12
0
-1.09762e-12
5.48809e-12
0
-1.09762e-11
-5.48809e-12
-2.19524e-12
-1.09762e-12
0
1.09762e-12
0
0
4.39047e-12
0
1.09762e-12
4.62246
13.2392
20.1306
24.6123
26.509
26.0936
23.928
20.6806
16.9777
13.3121
10.0102
7.24158
5.0523
3.40619
2.22268
1.40572
0.862654
0.514179
0.297926
0.16794
0.0921614
0.0492684
0.0256722
0.0130458
0.00646859
0.00313104
0.00148015
0.000683676
0.000308676
0.000136282
5.88607e-05
2.48785e-05
1.02942e-05
4.17141e-06
1.65591e-06
6.44191e-07
2.45703e-07
9.1931e-08
3.37528e-08
1.21473e-08
4.29059e-09
1.49166e-09
4.79659e-10
1.32812e-10
1.53666e-11
-4.39047e-12
-7.68332e-12
1.09762e-11
1.53666e-11
1.09762e-12
0
1.09762e-12
0
0
-1.09762e-12
0
1.09762e-12
-8.78094e-12
-7.68332e-12
-3.29285e-12
-1.09762e-12
-1.4269e-11
1.09762e-12
-1.20738e-11
-1.09762e-12
1.09762e-11
2.305e-11
-2.19523e-12
0
0
-1.09762e-12
-4.39047e-12
-8.78094e-12
1.09762e-12
6.58571e-12
2.69763
7.7434
11.8233
14.5381
15.7649
15.6333
14.4465
12.5823
10.4072
8.21893
6.22234
4.52994
3.17905
2.15492
1.4132
0.897877
0.553321
0.331076
0.192511
0.10887
0.0599236
0.0321224
0.0167804
0.00854724
0.00424723
0.00205996
0.000975642
0.000451435
0.000204155
9.02743e-05
3.90464e-05
1.65263e-05
6.84712e-06
2.77801e-06
1.10408e-06
4.30003e-07
1.64183e-07
6.14721e-08
2.25835e-08
8.14322e-09
2.88344e-09
9.9993e-10
3.21602e-10
8.56142e-11
5.48809e-12
-3.29285e-11
-1.20738e-11
-3.29285e-12
-5.48809e-12
-1.09762e-12
0
-2.19523e-12
-1.09762e-12
1.09762e-12
0
0
4.39047e-12
0
1.09762e-12
0
-1.09762e-12
-1.09762e-12
-6.5857e-12
0
1.20738e-11
8.78094e-12
2.19523e-12
0
-1.09762e-12
-2.19523e-12
-6.5857e-12
4.39047e-12
0
0
0
1.5486
4.45296
6.82181
8.42704
9.18914
9.16901
8.52837
7.47722
6.22522
4.9476
3.76849
2.75929
1.94688
1.32633
0.873871
0.557613
0.345005
0.207193
0.120887
0.0685801
0.0378572
0.0203483
0.0106563
0.00544044
0.00270925
0.00131667
0.000624774
0.000289596
0.000131182
5.80975e-05
2.5166e-05
1.06664e-05
4.42512e-06
1.79763e-06
7.15314e-07
2.78901e-07
1.06572e-07
3.99379e-08
1.46664e-08
5.29161e-09
1.88461e-09
6.7723e-10
2.37085e-10
9.11023e-11
2.52452e-11
2.19524e-12
1.86595e-11
-1.4269e-11
-1.75619e-11
-1.09762e-12
0
-3.29285e-12
-8.78094e-12
0
-1.4269e-11
-1.09762e-12
0
7.68332e-12
8.78094e-12
6.58571e-12
1.09762e-12
-4.39047e-12
0
1.31714e-11
9.87856e-12
0
-1.09762e-12
2.19523e-12
-4.39047e-12
0
-7.68332e-12
3.29285e-12
8.78094e-12
9.87856e-12
-3.29285e-12
0.873377
2.51493
3.86322
4.79038
5.2478
5.26364
4.92318
4.34115
3.63503
2.90529
2.22496
1.6376
1.16114
0.794706
0.52588
0.336922
0.209247
0.126105
0.0738164
0.0420036
0.023252
0.0125308
0.00657833
0.00336615
0.00167987
0.000818025
0.00038889
0.000180576
8.19343e-05
3.63437e-05
1.57664e-05
6.69187e-06
2.77999e-06
1.13078e-06
4.50525e-07
1.75881e-07
6.72851e-08
2.52254e-08
9.28914e-09
3.36749e-09
1.20957e-09
4.40145e-10
1.70131e-10
6.91499e-11
5.48809e-11
3.84166e-11
2.19523e-11
8.78094e-12
-1.09762e-12
0
1.09762e-12
-1.09762e-12
0
-2.19524e-12
0
-4.39047e-12
-4.39047e-12
0
8.78094e-12
-1.09762e-12
0
1.09762e-12
0
-2.19524e-12
5.48809e-12
-4.39047e-12
-1.09762e-12
-1.09762e-12
0
1.09762e-12
-4.39047e-12
-7.68332e-12
-2.19524e-12
2.19523e-12
5.48809e-12
0.483472
1.39379
2.14579
2.66915
2.93538
2.95728
2.77923
2.46287
2.07266
1.66486
1.28122
0.947437
0.674805
0.463823
0.308163
0.198184
0.123521
0.0746893
0.0438562
0.025028
0.0138925
0.00750591
0.0039498
0.00202564
0.00101301
0.000494265
0.00023541
0.000109501
4.97673e-05
2.21101e-05
9.60596e-06
4.08294e-06
1.69849e-06
6.91778e-07
2.75977e-07
1.07867e-07
4.13132e-08
1.55071e-08
5.72847e-09
2.08108e-09
7.51868e-10
2.54647e-10
1.08664e-10
5.59785e-11
2.63428e-11
4.50023e-11
6.5857e-12
3.07333e-11
1.53666e-11
0
-1.09762e-12
4.39047e-12
8.78094e-12
0
1.4269e-11
2.19523e-12
1.09762e-12
3.29285e-12
0
-2.19523e-12
-2.19523e-12
5.48809e-12
1.09762e-12
0
-9.87856e-12
-1.09762e-12
0
-3.29285e-12
4.39047e-12
-1.09762e-12
-3.29285e-12
5.48809e-12
-3.29285e-12
-9.87856e-12
-1.09762e-12
0.26251
0.757513
1.16839
1.4572
1.60782
1.62594
1.53436
1.3656
1.15435
0.931345
0.719876
0.534602
0.382331
0.263826
0.175942
0.113551
0.0710092
0.0430723
0.0253663
0.0145165
0.00807889
0.00437563
0.00230789
0.00118617
0.000594414
0.000290587
0.000138656
6.46078e-05
2.94119e-05
1.30873e-05
5.6944e-06
2.42381e-06
1.00967e-06
4.11784e-07
1.64478e-07
6.43522e-08
2.46744e-08
9.28365e-09
3.4092e-09
1.2447e-09
4.50023e-10
1.81107e-10
6.58571e-11
2.96357e-11
-7.68332e-12
7.68332e-12
-5.48809e-12
-8.78094e-12
1.20738e-11
0
0
0
0
-1.09762e-12
-2.19524e-12
5.48809e-12
-1.09762e-12
-2.19524e-12
-9.87856e-12
0
0
-4.39047e-12
0
2.19524e-12
-4.39047e-12
1.09762e-12
8.78094e-12
4.39047e-12
0
0
9.87856e-12
1.20738e-11
5.48809e-12
-5.48809e-12
-4.39047e-12
0.139737
0.403557
0.62342
0.779267
0.862231
0.87479
0.828476
0.740162
0.628114
0.508781
0.394808
0.29433
0.211286
0.146324
0.0979196
0.0634054
0.039775
0.0241983
0.014291
0.00820012
0.0045751
0.00248381
0.001313
0.000676264
0.000339568
0.000166317
7.95023e-05
3.71082e-05
1.69206e-05
7.54077e-06
3.28597e-06
1.40068e-06
5.84264e-07
2.38607e-07
9.5417e-08
3.73903e-08
1.43678e-08
5.41345e-09
2.00315e-09
7.47478e-10
2.74404e-10
1.33909e-10
3.95142e-11
6.5857e-12
2.63428e-11
4.39047e-12
7.68332e-12
-1.53666e-11
4.39047e-12
1.09762e-12
0
0
0
0
1.09762e-12
-2.19523e-12
-1.09762e-12
-1.09762e-12
-1.09762e-12
2.19524e-12
-1.09762e-12
-8.78094e-12
-1.09762e-12
0
-8.78094e-12
-9.87856e-12
0
2.19523e-12
4.39047e-12
1.09762e-12
1.31714e-11
-4.39047e-12
3.29285e-12
-1.09762e-12
-1.09762e-12
0.0728964
0.210668
0.325878
0.408125
0.452669
0.46056
0.437543
0.39221
0.333995
0.2715
0.211428
0.158173
0.113935
0.0791674
0.0531485
0.034521
0.0217192
0.0132506
0.0078464
0.00451364
0.00252435
0.00137359
0.000727685
0.000375565
0.000188948
9.27165e-05
4.43982e-05
2.0758e-05
9.48044e-06
4.2315e-06
1.84662e-06
7.88264e-07
3.29273e-07
1.34654e-07
5.39248e-08
2.11588e-08
8.14432e-09
3.06565e-09
1.16787e-09
4.41242e-10
1.66838e-10
7.24428e-11
3.07333e-11
1.64643e-11
1.4269e-11
-2.19523e-12
1.09762e-11
1.53666e-11
-1.20738e-11
-8.78094e-12
0
-1.09762e-12
0
1.09762e-12
3.29285e-12
3.29285e-12
1.86595e-11
0
2.19523e-12
0
0
-6.5857e-12
-1.09762e-12
3.29285e-12
0
-1.09762e-12
-7.68332e-12
0
0
1.09762e-12
-4.39047e-12
-8.78094e-12
0
0
-5.48809e-12
0.0372587
0.10774
0.166852
0.20931
0.232642
0.237281
0.226043
0.203224
0.173596
0.141563
0.110594
0.0830013
0.0599751
0.0418015
0.0281467
0.0183344
0.0115671
0.00707556
0.00420042
0.00242212
0.00135774
0.000740411
0.000393064
0.000203267
0.000102458
5.0367e-05
2.41603e-05
1.13146e-05
5.17569e-06
2.31361e-06
1.0111e-06
4.3221e-07
1.80797e-07
7.40552e-08
2.97037e-08
1.16666e-08
4.48267e-09
1.68484e-09
6.34423e-10
2.39281e-10
1.18543e-10
4.71976e-11
3.62214e-11
1.97571e-11
-1.53666e-11
-1.09762e-11
-1.75619e-11
-1.75619e-11
-1.20738e-11
0
0
2.19524e-12
-1.09762e-12
2.19524e-12
-1.09762e-12
-1.09762e-12
9.87856e-12
0
0
-2.19524e-12
3.29285e-12
8.78094e-12
0
-1.86595e-11
8.78094e-12
1.09762e-11
0
1.09762e-12
-4.39047e-12
0
-1.20738e-11
0
0
-3.29285e-12
2.19524e-12
0.0186556
0.0539736
0.0836699
0.105112
0.117044
0.119636
0.114247
0.102984
0.0882148
0.0721425
0.0565241
0.0425449
0.0308308
0.0215493
0.0145501
0.0095031
0.00601098
0.00368607
0.00219348
0.00126774
0.000712203
0.000389199
0.00020703
0.000107268
5.41684e-05
2.66753e-05
1.28173e-05
6.01223e-06
2.75446e-06
1.23312e-06
5.39681e-07
2.31014e-07
9.67769e-08
3.96997e-08
1.59594e-08
6.28935e-09
2.43671e-09
9.3078e-10
3.42457e-10
1.20738e-10
6.14666e-11
6.58571e-12
1.31714e-11
0
-5.48809e-12
-1.09762e-12
-1.20738e-11
-2.52452e-11
0
7.68332e-12
0
1.09762e-12
0
1.09762e-12
-1.09762e-12
-2.19523e-12
-1.86595e-11
-7.68332e-12
-1.09762e-12
0
-1.09762e-12
1.09762e-11
1.09762e-12
-2.19524e-12
-1.09762e-12
-4.39047e-12
9.87856e-12
-1.09762e-12
2.19524e-12
-2.19524e-12
3.29285e-12
0
-2.19524e-12
3.29285e-12
-8.78094e-12
0.00914992
0.026484
0.0410913
0.0516872
0.0576473
0.0590372
0.0564997
0.0510496
0.0438372
0.035943
0.0282359
0.0213093
0.015483
0.0108502
0.00734483
0.00480913
0.0030493
0.00187429
0.00111786
0.00064749
0.000364515
0.000199598
0.000106379
5.52202e-05
2.79348e-05
1.378e-05
6.6321e-06
3.11582e-06
1.42968e-06
6.40982e-07
2.8094e-07
1.20416e-07
5.052e-08
2.07373e-08
8.36275e-09
3.3159e-09
1.31165e-09
5.24661e-10
1.97571e-10
7.57356e-11
5.48809e-12
-1.20738e-11
-9.87856e-12
-1.75619e-11
-2.19523e-12
-1.09762e-12
8.78094e-12
4.39047e-12
4.39047e-12
2.19523e-12
1.09762e-12
-2.19523e-12
7.68332e-12
-3.29285e-12
-2.19523e-12
5.48809e-12
-7.68332e-12
1.20738e-11
1.09762e-12
0
1.09762e-12
-2.19523e-12
-1.09762e-12
1.31714e-11
0
1.31714e-11
0
-2.19523e-12
0
1.09762e-12
4.39047e-12
-2.19523e-12
0
2.19523e-12
-1.09762e-12
0.00439586
0.0127286
0.0197643
0.0248885
0.0277982
0.0285169
0.0273439
0.0247584
0.0213083
0.0175121
0.0137901
0.0104326
0.00759863
0.00533787
0.003622
0.0023771
0.00151067
0.000930608
0.000556225
0.000322845
0.000182114
9.99131e-05
5.33494e-05
2.77426e-05
1.40586e-05
6.94649e-06
3.34856e-06
1.57561e-06
7.24054e-07
3.25097e-07
1.42691e-07
6.12405e-08
2.57007e-08
1.05668e-08
4.26973e-09
1.7035e-09
6.80523e-10
2.82088e-10
1.11957e-10
5.70761e-11
4.39047e-12
5.48809e-12
-1.64643e-11
-1.86595e-11
5.48809e-12
6.58571e-12
1.09762e-11
-4.39047e-12
-1.09762e-12
2.19523e-12
-7.68332e-12
-7.68332e-12
-1.09762e-12
0
-1.31714e-11
6.5857e-12
1.09762e-12
1.09762e-11
0
-1.09762e-12
1.09762e-12
0
-1.09762e-12
4.39047e-12
3.29285e-12
4.39047e-12
-9.87856e-12
0
-1.09762e-12
1.09762e-12
1.09762e-12
1.09762e-12
0
1.09762e-12
1.31714e-11
0.00206872
0.00599227
0.0093108
0.0117364
0.0131252
0.0134851
0.0129528
0.0117504
0.0101336
0.00834599
0.00658664
0.00499411
0.00364568
0.00256676
0.00174554
0.0011481
0.000731191
0.000451373
0.000270334
0.000157218
8.88548e-05
4.88384e-05
2.61242e-05
1.36084e-05
6.90758e-06
3.41862e-06
1.65051e-06
7.77796e-07
3.57928e-07
1.60932e-07
7.07327e-08
3.04117e-08
1.27741e-08
5.25978e-09
2.14694e-09
8.74801e-10
3.63311e-10
1.49276e-10
8.45165e-11
5.92713e-11
4.28071e-11
2.19524e-11
-4.39047e-12
0
6.58571e-12
1.31714e-11
-5.48809e-12
-1.09762e-12
-1.09762e-12
-1.09762e-12
-1.09762e-12
-3.29285e-12
-7.68332e-12
1.09762e-12
1.09762e-12
-4.39047e-12
0
-3.29285e-12
-2.19523e-12
2.19524e-12
-1.09762e-12
2.19523e-12
0
6.58571e-12
-2.19523e-12
-1.31714e-11
2.19524e-12
1.09762e-12
0
-1.09762e-12
7.68332e-12
3.29285e-12
0
3.29285e-12
-4.39047e-12
0.000953725
0.00276343
0.00429644
0.00542055
0.00606891
0.00624384
0.00600678
0.00545856
0.0047162
0.00389183
0.00307763
0.00233833
0.00171053
0.00120682
0.000822412
0.000542036
0.000345904
0.000213953
0.000128387
7.48061e-05
4.23554e-05
2.33216e-05
1.24964e-05
6.52037e-06
3.31505e-06
1.64318e-06
7.94555e-07
3.75e-07
1.72807e-07
7.78145e-08
3.42588e-08
1.47586e-08
6.23117e-09
2.58379e-09
1.07237e-09
4.24778e-10
1.72326e-10
5.59785e-11
3.95142e-11
1.64643e-11
3.51238e-11
3.29285e-11
2.63428e-11
2.74404e-11
8.78094e-12
1.86595e-11
7.68332e-12
3.7319e-11
3.29285e-12
-2.19523e-12
7.68332e-12
6.5857e-12
2.19523e-12
-2.19523e-12
1.4269e-11
-6.5857e-12
-1.09762e-12
-3.29285e-12
1.09762e-12
2.19523e-12
-1.09762e-12
-2.19523e-12
2.19523e-12
-1.20738e-11
-3.29285e-12
-1.09762e-12
0
1.09762e-12
1.09762e-12
0
-7.68332e-12
0
-4.39047e-12
-1.4269e-11
-1.09762e-12
0.000430778
0.00124854
0.00194222
0.00245234
0.0027485
0.00283123
0.0027276
0.00248255
0.00214856
0.00177617
0.00140719
0.0010712
0.00078512
0.000555001
0.000378951
0.000250241
0.000159997
9.91487e-05
5.96054e-05
3.47919e-05
1.97337e-05
1.08841e-05
5.84169e-06
3.05296e-06
1.55455e-06
7.71711e-07
3.73696e-07
1.76626e-07
8.15365e-08
3.67757e-08
1.62129e-08
6.99512e-09
2.96357e-09
1.24909e-09
5.03806e-10
1.85497e-10
5.70761e-11
-4.39047e-12
-1.97571e-11
-2.305e-11
-1.64643e-11
3.29285e-12
2.08547e-11
1.64643e-11
8.78094e-12
6.58571e-12
3.40261e-11
3.18309e-11
1.86595e-11
5.48809e-12
-1.09762e-12
3.29285e-12
-6.5857e-12
0
-2.19524e-12
0
0
-7.68332e-12
4.39047e-12
-3.29285e-12
0
-1.09762e-12
-5.48809e-12
-2.08547e-11
2.19523e-12
0
-2.19524e-12
-3.29285e-12
1.09762e-12
-1.09762e-12
1.09762e-12
-2.19524e-12
0
0
1.31714e-11
0.000190656
0.000552727
0.000860246
0.00108697
0.00121938
0.0012575
0.00121303
0.00110564
0.000958377
0.000793577
0.000629802
0.000480275
0.000352644
0.000249738
0.00017083
0.000113013
7.23874e-05
4.49374e-05
2.70622e-05
1.58233e-05
8.98985e-06
4.96645e-06
2.66979e-06
1.39742e-06
7.12615e-07
3.54267e-07
1.71776e-07
8.12786e-08
3.75649e-08
1.6979e-08
7.50002e-09
3.23468e-09
1.36544e-09
5.53199e-10
1.97571e-10
8.01261e-11
-7.68332e-12
-5.48809e-12
-3.7319e-11
-2.305e-11
-4.17095e-11
-3.51238e-11
-2.305e-11
-1.09762e-11
1.31714e-11
1.86595e-11
2.74404e-11
1.20738e-11
3.29285e-11
-2.19523e-12
-1.09762e-12
1.09762e-12
0
3.29285e-12
0
-1.09762e-12
0
0
-1.09762e-12
0
0
3.29285e-12
-1.09762e-12
7.68332e-12
0
-1.09762e-12
0
0
6.58571e-12
4.39047e-12
6.5857e-12
-1.97571e-11
2.19524e-12
1.09762e-11
0
8.26959e-05
0.000239797
0.00037338
0.000472098
0.000530057
0.000547188
0.000528465
0.000482313
0.000418671
0.000347206
0.00027599
0.000210811
0.00015505
0.000109992
7.53677e-05
4.99451e-05
3.20454e-05
1.9927e-05
1.20204e-05
7.03987e-06
4.00604e-06
2.21661e-06
1.19339e-06
6.25581e-07
3.19474e-07
1.59023e-07
7.72075e-08
3.65693e-08
1.69121e-08
7.65478e-09
3.37627e-09
1.45434e-09
6.0808e-10
2.25012e-10
6.5857e-11
6.5857e-12
-4.17095e-11
-1.64643e-11
-2.85381e-11
-2.63428e-11
-2.63428e-11
-2.63428e-11
-3.07333e-11
-9.87856e-12
-6.5857e-12
3.29285e-12
2.19523e-12
-1.4269e-11
1.09762e-12
-5.48809e-12
2.19523e-12
0
2.08547e-11
0
0
0
8.78094e-12
0
-1.09762e-12
-2.19523e-12
-1.09762e-12
1.09762e-12
4.39047e-12
1.86595e-11
1.09762e-12
0
-1.09762e-12
1.31714e-11
0
1.09762e-12
-7.68332e-12
0
0
0
-7.68332e-12
3.51582e-05
0.000101971
0.000158841
0.000200958
0.000225806
0.000233323
0.000225585
0.000206135
0.000179172
0.000148798
0.000118454
9.06185e-05
6.67544e-05
4.74312e-05
3.25531e-05
2.16074e-05
1.3886e-05
8.64869e-06
5.22539e-06
3.06508e-06
1.74687e-06
9.6802e-07
5.2194e-07
2.73997e-07
1.40128e-07
6.98491e-08
3.39438e-08
1.609e-08
7.44953e-09
3.34334e-09
1.46093e-09
6.19056e-10
2.48062e-10
8.56142e-11
1.20738e-11
-1.97571e-11
-3.18309e-11
-2.85381e-11
-1.53666e-11
-2.19524e-11
-2.305e-11
-1.4269e-11
-1.75619e-11
-2.41476e-11
-3.7319e-11
-3.84166e-11
-2.74404e-11
-2.63428e-11
-3.07333e-11
2.19523e-12
-2.19524e-12
-1.31714e-11
-1.09762e-12
-2.19524e-12
1.09762e-12
3.29285e-12
7.68332e-12
-1.20738e-11
-1.09762e-12
2.19524e-12
-1.09762e-12
-5.48809e-12
-3.29285e-12
0
0
2.19524e-12
1.09762e-12
0
-8.78094e-12
4.39047e-12
1.09762e-12
2.41476e-11
2.19524e-12
4.39047e-12
0
1.46541e-05
4.25105e-05
6.62439e-05
8.3855e-05
9.4291e-05
9.75149e-05
9.43758e-05
8.63357e-05
7.51352e-05
6.24801e-05
4.98076e-05
3.81584e-05
2.81512e-05
2.00327e-05
1.37699e-05
9.15396e-06
5.89183e-06
3.67525e-06
2.22391e-06
1.30643e-06
7.45686e-07
4.13835e-07
2.23443e-07
1.17447e-07
6.01604e-08
3.00374e-08
1.46247e-08
6.94792e-09
3.21273e-09
1.43678e-09
6.32228e-10
2.49159e-10
9.7688e-11
2.08547e-11
-2.85381e-11
-1.53666e-11
-6.58571e-12
-2.305e-11
-8.78094e-12
-1.09762e-11
-3.40261e-11
-2.08547e-11
-1.31714e-11
-1.75619e-11
-2.305e-11
-3.29285e-11
-4.28071e-11
-1.53666e-11
-2.305e-11
-1.09762e-12
-4.39047e-12
-5.48809e-12
-1.4269e-11
2.19524e-12
2.19524e-12
0
-8.78094e-12
-1.64643e-11
-8.78094e-12
-1.20738e-11
-3.29285e-12
-1.09762e-12
1.09762e-12
-2.19524e-12
-1.09762e-12
-1.09762e-11
1.09762e-12
-6.5857e-12
-1.09762e-12
-1.09762e-12
-2.19523e-12
0
-9.87856e-12
0
5.48809e-12
5.98916e-06
1.73774e-05
2.70884e-05
3.43076e-05
3.8603e-05
3.9955e-05
3.87051e-05
3.54449e-05
3.08819e-05
2.57121e-05
2.05237e-05
1.57449e-05
1.1632e-05
8.28929e-06
5.70611e-06
3.79886e-06
2.44869e-06
1.52971e-06
9.26954e-07
5.45348e-07
3.11727e-07
1.73259e-07
9.36937e-08
4.93313e-08
2.52968e-08
1.26478e-08
6.19495e-09
2.95918e-09
1.38849e-09
6.24544e-10
2.65623e-10
8.56142e-11
1.09762e-11
5.48809e-12
-1.97571e-11
-2.19523e-11
-1.20738e-11
-3.40261e-11
-3.40261e-11
-2.41476e-11
-9.87856e-12
-6.5857e-12
9.87856e-12
1.53666e-11
-6.5857e-12
-3.29285e-12
-7.68332e-12
-6.5857e-12
1.86595e-11
-4.39047e-12
1.09762e-12
1.31714e-11
1.09762e-12
0
-3.29285e-12
6.5857e-12
-7.68332e-12
7.68332e-12
-8.78094e-12
-2.19523e-12
-1.31714e-11
5.48809e-12
4.39047e-12
-7.68332e-12
1.09762e-12
-1.09762e-12
-1.09762e-12
1.09762e-12
2.19523e-12
-8.78094e-12
-1.31714e-11
-4.39047e-12
-6.5857e-12
-7.68332e-12
-1.09762e-12
2.4007e-06
6.96675e-06
1.08635e-05
1.37653e-05
1.54983e-05
1.60532e-05
1.55646e-05
1.42675e-05
1.24442e-05
1.0373e-05
8.28996e-06
6.36785e-06
4.71068e-06
3.36155e-06
2.31719e-06
1.54484e-06
9.97181e-07
6.23806e-07
3.78529e-07
2.23019e-07
1.2765e-07
7.10378e-08
3.84803e-08
2.03026e-08
1.04372e-08
5.24442e-09
2.57062e-09
1.22823e-09
5.93811e-10
2.61233e-10
1.1964e-10
3.84166e-11
-4.39047e-12
3.29285e-12
-8.78094e-12
-3.18309e-11
-2.52452e-11
-3.40261e-11
-3.29285e-11
-2.41476e-11
-1.09762e-12
2.19524e-12
6.58571e-12
-5.48809e-12
1.4269e-11
1.09762e-12
2.08547e-11
1.09762e-12
2.19524e-12
1.09762e-12
0
1.09762e-12
-1.09762e-12
-1.31714e-11
-1.09762e-12
4.39047e-12
0
4.39047e-12
1.86595e-11
1.31714e-11
4.39047e-12
2.19523e-12
0
2.19524e-12
0
1.09762e-11
-2.19524e-12
0
0
5.48809e-12
8.78094e-12
0
9.87856e-12
2.19523e-12
-6.58571e-12
9.44048e-07
2.73996e-06
4.2739e-06
5.41782e-06
6.10348e-06
6.32646e-06
6.13894e-06
5.63255e-06
4.91771e-06
4.10368e-06
3.28343e-06
2.52521e-06
1.8704e-06
1.33646e-06
9.2247e-07
6.15818e-07
3.98038e-07
2.49331e-07
1.51516e-07
8.93559e-08
5.12225e-08
2.856e-08
1.54797e-08
8.17506e-09
4.21375e-09
2.15353e-09
1.06579e-09
5.24661e-10
2.60135e-10
1.28421e-10
7.57356e-11
5.04904e-11
4.06118e-11
0
1.09762e-11
-3.29285e-12
1.09762e-11
1.4269e-11
2.19524e-11
0
2.19523e-11
1.53666e-11
1.64643e-11
-4.39047e-12
2.305e-11
1.31714e-11
8.78094e-12
8.78094e-12
-1.75619e-11
-4.39047e-12
1.09762e-12
3.29285e-12
0
-2.19524e-12
2.19524e-12
-2.305e-11
-1.09762e-12
0
7.68332e-12
1.09762e-12
1.4269e-11
-2.19523e-12
-1.09762e-12
-1.09762e-12
-4.39047e-12
1.09762e-12
-1.09762e-12
1.20738e-11
0
0
2.08547e-11
9.87856e-12
6.58571e-12
4.39047e-12
0
3.64216e-07
1.05725e-06
1.64965e-06
2.09205e-06
2.3581e-06
2.44591e-06
2.37522e-06
2.1812e-06
1.90621e-06
1.5923e-06
1.27542e-06
9.82047e-07
7.28254e-07
5.2099e-07
3.60068e-07
2.40701e-07
1.55794e-07
9.77472e-08
5.94744e-08
3.51205e-08
2.01676e-08
1.1267e-08
6.11483e-09
3.23907e-09
1.69033e-09
8.69313e-10
4.52218e-10
2.63428e-10
1.4269e-10
9.98832e-11
5.81737e-11
5.70761e-11
4.39047e-11
1.31714e-11
3.84166e-11
1.31714e-11
2.19523e-11
3.40261e-11
1.53666e-11
0
3.40261e-11
9.87856e-12
3.62214e-11
4.82952e-11
3.7319e-11
4.28071e-11
2.19523e-11
3.51238e-11
-1.09762e-12
-6.5857e-12
4.39047e-12
6.5857e-12
1.53666e-11
2.08547e-11
1.09762e-12
5.48809e-12
4.39047e-12
1.4269e-11
-1.09762e-11
0
0
-2.19523e-12
-1.09762e-12
0
-3.29285e-12
0
4.39047e-12
-4.39047e-12
-2.19523e-12
-1.31714e-11
-5.48809e-12
6.5857e-12
-1.09762e-12
-5.48809e-12
2.19523e-12
1.37865e-07
4.00288e-07
6.24707e-07
7.92607e-07
8.939e-07
9.27816e-07
9.01704e-07
8.28739e-07
7.24919e-07
6.06131e-07
4.86024e-07
3.74639e-07
2.78148e-07
1.99222e-07
1.37866e-07
9.22767e-08
5.98092e-08
3.75791e-08
2.287e-08
1.35347e-08
7.77882e-09
4.3323e-09
2.36646e-09
1.27104e-09
6.83816e-10
3.51238e-10
2.01962e-10
1.20738e-10
6.80523e-11
5.48809e-11
3.62214e-11
3.40261e-11
2.63428e-11
3.07333e-11
3.29285e-12
0
-7.68332e-12
1.09762e-11
-5.48809e-12
1.20738e-11
5.48809e-12
4.39047e-12
1.64643e-11
4.60999e-11
4.06118e-11
3.95142e-11
1.53666e-11
1.09762e-12
8.78094e-12
8.78094e-12
1.09762e-12
4.39047e-12
1.4269e-11
1.09762e-12
-2.19524e-12
1.4269e-11
1.31714e-11
2.19524e-12
2.19523e-12
0
0
-2.19523e-12
2.19524e-12
8.78094e-12
3.29285e-12
-1.09762e-12
0
-1.20738e-11
1.09762e-12
0
-1.64643e-11
-9.87856e-12
1.09762e-12
-7.68332e-12
0
5.12324e-08
1.48859e-07
2.32414e-07
2.94976e-07
3.32881e-07
3.45708e-07
3.36231e-07
3.09234e-07
2.70741e-07
2.26579e-07
1.81881e-07
1.40335e-07
1.04312e-07
7.48125e-08
5.18328e-08
3.47363e-08
2.25418e-08
1.41604e-08
8.62837e-09
5.08416e-09
2.92186e-09
1.62447e-09
8.8468e-10
4.76366e-10
2.46964e-10
1.44886e-10
8.23213e-11
3.51238e-11
2.305e-11
3.18309e-11
3.07333e-11
1.64643e-11
-1.09762e-11
1.09762e-12
-1.31714e-11
2.19524e-12
-1.09762e-11
8.78094e-12
1.53666e-11
3.51238e-11
8.78094e-12
1.31714e-11
-2.19524e-11
6.5857e-12
2.52452e-11
1.53666e-11
-8.78094e-12
-4.39047e-12
-3.29285e-12
5.48809e-12
0
-2.19524e-12
-1.4269e-11
-8.78094e-12
0
-2.08547e-11
-4.39047e-12
-4.39047e-12
1.09762e-12
0
0
-2.19523e-12
4.39047e-12
0
5.48809e-12
0
-1.09762e-12
0
6.58571e-12
1.53666e-11
5.48809e-12
-5.48809e-12
-8.78094e-12
1.09762e-12
-4.39047e-12
1.87254e-08
5.43979e-08
8.4881e-08
1.07749e-07
1.21649e-07
1.26402e-07
1.22977e-07
1.13191e-07
9.91675e-08
8.30413e-08
6.67231e-08
5.15353e-08
3.83453e-08
2.75381e-08
1.90898e-08
1.28147e-08
8.31775e-09
5.21917e-09
3.20065e-09
1.87144e-09
1.05481e-09
5.88323e-10
3.23797e-10
1.55862e-10
8.01261e-11
5.26856e-11
1.97571e-11
5.48809e-12
1.31714e-11