/*--------------------------------*- C++ -*----------------------------------*\
  =========                 |
  \\      /  F ield         | OpenFOAM: The Open Source CFD Toolbox
   \\    /   O peration     | Website:  https://openfoam.org
    \\  /    A nd           | Version:  10
     \\/     M anipulation  |
\*---------------------------------------------------------------------------*/
FoamFile
{
    format      ascii;
    class       volScalarField;
    location    "153";
    object      gradTx;
}
// * * * * * * * * * * * * * * * * * * * * * * * * * * * * * * * * * * * * * //

dimensions      [0 -1 0 1 0 0 0];

internalField   nonuniform List<scalar> 
11250
(
14271.8
8020.82
5174.6
3643.64
2702.97
2066.55
1606.68
1259.64
990.401
778.045
609.088
474.242
366.722
281.327
213.92
161.124
120.145
88.6535
64.7112
46.7122
33.3387
23.5207
16.401
11.3019
7.69581
5.17775
3.4418
2.26029
1.46641
0.939803
0.594955
0.372014
0.229726
0.140075
0.0843143
0.0500825
0.0293442
0.01695
0.0096458
0.00540378
0.00297768
0.00161246
0.000857284
0.00044708
0.000228499
0.000114357
5.60015e-05
2.68168e-05
1.25501e-05
5.73757e-06
2.56152e-06
1.11647e-06
4.75018e-07
1.97247e-07
7.99263e-08
3.16004e-08
1.21967e-08
4.57706e-09
1.67057e-09
5.94909e-10
1.75619e-10
3.40261e-11
0
-2.19524e-11
9.87856e-12
-1.09762e-12
-1.09762e-12
0
1.09762e-12
0
-5.48809e-12
0
-7.68332e-12
0
-9.87856e-12
4067.98
4620.54
3866.58
3063.09
2410.51
1903.4
1508.35
1196.92
948.733
749.549
589.205
460.181
356.696
274.147
208.772
157.438
117.513
86.7841
63.3911
45.7866
32.6948
23.0767
16.0975
11.0966
7.55823
5.08653
3.38196
2.22146
1.44149
0.924001
0.585048
0.365878
0.225973
0.137809
0.0829656
0.0492913
0.0288874
0.0166907
0.00950139
0.00532495
0.00293559
0.00159051
0.00084613
0.000441565
0.000225853
0.000113127
5.54488e-05
2.65777e-05
1.24508e-05
5.69819e-06
2.54669e-06
1.11125e-06
4.73319e-07
1.96786e-07
7.98242e-08
3.15949e-08
1.21901e-08
4.58804e-09
1.67277e-09
6.10275e-10
2.08547e-10
6.91499e-11
1.20738e-11
2.41476e-11
5.48809e-12
0
-1.09762e-12
1.09762e-12
-1.09762e-12
0
-8.78094e-12
0
8.78094e-12
2.19523e-12
0
1449.03
2531.19
2615.27
2341.21
1984.2
1641.39
1340.7
1085.83
873.052
696.898
552.02
433.653
337.656
260.444
198.909
150.353
112.444
83.1751
60.8383
43.9942
31.4465
22.2149
15.5082
10.6974
7.29063
4.909
3.26544
2.14582
1.39294
0.893189
0.565724
0.353905
0.218646
0.133384
0.0803296
0.047744
0.0279934
0.0161829
0.00921824
0.0051702
0.00285284
0.00154729
0.000824115
0.000430655
0.000220601
0.000110677
5.43432e-05
2.60966e-05
1.22496e-05
5.61767e-06
2.51609e-06
1.10029e-06
4.69723e-07
1.95727e-07
7.95992e-08
3.15883e-08
1.22231e-08
4.62426e-09
1.71338e-09
6.19056e-10
2.33793e-10
8.8907e-11
1.64643e-11
-1.31714e-11
-1.09762e-11
2.19524e-12
3.29285e-12
2.19523e-12
0
0
3.29285e-12
8.78094e-12
0
-1.09762e-12
8.78094e-12
647.42
1444.24
1729.03
1711.61
1554.96
1350.1
1141.08
947.106
775.308
627.233
501.942
397.452
311.412
241.409
185.124
140.403
105.296
78.0703
57.2181
41.4467
29.669
20.9859
14.6665
10.1267
6.90761
4.65466
3.09838
2.03729
1.32323
0.848926
0.537947
0.336683
0.208102
0.127012
0.0765307
0.0455122
0.0267025
0.0154488
0.00880827
0.00494574
0.00273255
0.0014843
0.000791942
0.000414653
0.000212866
0.00010705
5.26969e-05
2.53749e-05
1.19449e-05
5.49426e-06
2.46839e-06
1.08283e-06
4.63734e-07
1.93848e-07
7.91119e-08
3.15082e-08
1.22549e-08
4.64402e-09
1.72655e-09
6.23447e-10
2.22816e-10
7.68332e-11
2.41476e-11
-1.09762e-12
-4.39047e-12
3.29285e-12
0
1.09762e-12
0
2.19524e-12
5.48809e-12
0
-1.09762e-12
-1.09762e-12
-5.48809e-12
345.228
873.415
1151.66
1230.13
1184.75
1075.23
939.699
800.032
667.779
548.438
444.096
354.956
280.215
218.558
168.445
128.287
96.547
71.7962
52.7528
38.2953
27.4646
19.4585
13.6185
9.41495
6.4293
4.33667
2.88927
1.90132
1.23582
0.793376
0.503061
0.315037
0.194837
0.118988
0.0717426
0.0426959
0.0250713
0.0145195
0.00828831
0.00466039
0.0025792
0.00140373
0.000750625
0.000394008
0.000202831
0.000102313
5.05301e-05
2.44158e-05
1.15353e-05
5.32583e-06
2.40197e-06
1.05785e-06
4.54816e-07
1.90873e-07
7.81877e-08
3.12722e-08
1.2211e-08
4.63743e-09
1.71997e-09
6.22349e-10
2.25012e-10
8.34189e-11
4.50023e-11
2.305e-11
0
-1.09762e-12
-1.09762e-12
-3.29285e-12
0
-1.09762e-12
-9.87856e-12
-1.20738e-11
-7.68332e-12
-1.09762e-12
-1.09762e-12
206.616
556.415
780.339
880.926
888.885
837.938
754.984
658.591
560.485
467.523
383.342
309.526
246.392
193.502
149.99
114.782
86.7349
64.7234
47.6977
34.7147
24.9525
17.7132
12.4183
8.5983
5.87955
3.97062
2.64825
1.74441
1.13483
0.729134
0.462675
0.289954
0.179451
0.10967
0.0661755
0.0394166
0.0231687
0.0134334
0.00767909
0.00432506
0.00239836
0.00130832
0.00070146
0.000369301
0.000190741
9.6561e-05
4.78731e-05
2.32264e-05
1.102e-05
5.11027e-06
2.31508e-06
1.02423e-06
4.42399e-07
1.86519e-07
7.67421e-08
3.08376e-08
1.21045e-08
4.64512e-09
1.74411e-09
6.25642e-10
2.33793e-10
9.00046e-11
4.60999e-11
1.09762e-12
-1.09762e-12
-4.39047e-12
0
0
0
-2.19524e-12
4.39047e-12
1.09762e-12
-4.39047e-12
0
0
132.655
368.895
538.192
632.162
661.399
643.42
595.355
530.992
460.27
389.802
323.656
264.074
212.049
167.751
130.834
100.649
76.3967
57.2288
42.3153
30.8867
22.2572
15.8351
11.1235
7.71517
5.28385
3.57329
2.38622
1.57358
1.02474
0.659017
0.418545
0.262513
0.162598
0.0994514
0.0600611
0.0358088
0.0210712
0.0122332
0.0070039
0.00395214
0.00219642
0.00120126
0.000645974
0.000341228
0.000176895
8.99123e-05
4.47687e-05
2.18186e-05
1.04008e-05
4.8464e-06
2.2063e-06
9.80922e-07
4.25779e-07
1.80398e-07
7.46051e-08
3.01131e-08
1.18861e-08
4.58255e-09
1.72216e-09
6.24544e-10
2.35988e-10
8.12237e-11
1.86595e-11
-1.09762e-12
2.19523e-12
2.19524e-12
0
0
-1.20738e-11
1.09762e-12
1.31714e-11
2.19524e-12
0
-7.68332e-12
0
88.8818
251.622
376.718
455.293
489.814
488.849
462.698
420.865
371
318.731
267.88
220.831
178.887
142.579
111.915
86.5697
66.0228
49.6619
36.8525
26.984
19.4988
13.9065
9.78993
6.80336
4.66743
3.16131
2.11404
1.39585
0.910037
0.585861
0.372442
0.233808
0.144945
0.0887316
0.0536363
0.0320105
0.018858
0.0109633
0.00628718
0.00355473
0.00198021
0.001086
0.000585853
0.000310581
0.000161645
8.25147e-05
4.12736e-05
2.02119e-05
9.68265e-06
4.53461e-06
2.07493e-06
9.27203e-07
4.04506e-07
1.72237e-07
7.16064e-08
2.90671e-08
1.15338e-08
4.47279e-09
1.69033e-09
6.41009e-10
2.37085e-10
7.57356e-11
-3.29285e-12
7.68332e-12
0
0
7.68332e-12
-1.09762e-12
0
1.09762e-12
-1.09762e-12
0
6.5857e-12
0
4.39047e-12
61.1414
174.977
266.594
328.947
361.558
368.37
355.363
328.803
294.252
256.149
217.761
181.304
148.133
118.948
93.9708
73.0983
56.0225
42.3208
31.5234
23.1588
16.784
12.0016
8.46863
5.89741
4.05346
2.75008
1.84183
1.21778
0.79493
0.512336
0.326039
0.204876
0.127125
0.0778933
0.0471287
0.0281553
0.0166061
0.00966738
0.00555314
0.00314598
0.0017567
0.000966135
0.000522884
0.000278217
0.000145389
7.45431e-05
3.74604e-05
1.84341e-05
8.8753e-06
4.17766e-06
1.92134e-06
8.62933e-07
3.78353e-07
1.61916e-07
6.76374e-08
2.75864e-08
1.09882e-08
4.284e-09
1.63325e-09
6.17959e-10
2.19524e-10
8.8907e-11
3.95142e-11
4.39047e-12
-1.09762e-12
0
1.4269e-11
2.19523e-12
1.31714e-11
-1.09762e-12
2.19523e-12
5.48809e-12
6.58571e-12
8.78094e-12
2.19524e-12
42.7467
123.207
190.034
238.098
266.081
275.638
270.159
253.667
230.058
202.672
174.133
146.342
120.556
97.5067
77.5234
60.6428
46.7066
35.4377
26.4987
19.5344
14.2006
10.1821
7.20235
5.02664
3.4618
2.35286
1.57835
1.04509
0.683108
0.440794
0.280817
0.176636
0.109705
0.0672799
0.0407441
0.0243646
0.014386
0.00838578
0.00482449
0.00273838
0.00153261
0.00084519
0.000458875
0.000245036
0.000128559
6.61981e-05
3.34188e-05
1.65234e-05
7.99413e-06
3.78142e-06
1.74763e-06
7.88729e-07
3.4746e-07
1.49403e-07
6.26718e-08
2.56447e-08
1.02276e-08
3.98216e-09
1.50922e-09
5.45516e-10
1.89888e-10
7.24428e-11
3.95142e-11
-3.29285e-12
-1.09762e-12
-1.09762e-12
-6.58571e-12
0
-1.09762e-12
0
1.09762e-12
0
-6.58571e-12
0
1.09762e-12
30.1736
87.3983
136.006
172.383
195.155
204.896
203.492
193.486
177.539
158.085
137.145
116.263
96.5235
78.612
62.8879
49.4651
38.2845
29.1747
21.9006
16.2012
11.8144
8.49503
6.02421
4.214
2.90815
1.98026
1.33064
0.882423
0.577578
0.373162
0.237997
0.149853
0.0931564
0.0571799
0.0346565
0.0207422
0.0122589
0.00715386
0.00412137
0.00234323
0.00131416
0.000726519
0.000395594
0.000211947
0.000111611
5.77022e-05
2.92542e-05
1.45285e-05
7.06091e-06
3.35526e-06
1.55771e-06
7.06157e-07
3.12459e-07
1.3489e-07
5.68149e-08
2.33408e-08
9.32426e-09
3.64189e-09
1.37312e-09
5.00514e-10
1.82205e-10
7.24428e-11
2.305e-11
1.53666e-11
6.5857e-12
-9.87856e-12
-3.7319e-11
-1.09762e-12
0
0
-3.29285e-12
-5.48809e-12
0
-2.19523e-12
-3.29285e-12
21.4045
62.2214
97.4709
124.639
142.556
151.311
151.937
146.022
135.358
121.676
106.486
90.9965
76.0969
62.3834
50.2009
39.6965
30.8712
23.6268
17.8049
13.2174
9.66895
6.9722
4.95707
3.47564
2.40368
1.6399
1.10386
0.733189
0.48058
0.310888
0.198503
0.12511
0.077843
0.0478175
0.0290027
0.0173704
0.0102737
0.00600054
0.00346061
0.00197018
0.00110679
0.000613147
0.00033469
0.000179833
9.50065e-05
4.92921e-05
2.50851e-05
1.25073e-05
6.10316e-06
2.91195e-06
1.3574e-06
6.17795e-07
2.74393e-07
1.18891e-07
5.02555e-08
2.07077e-08
8.30677e-09
3.24675e-09
1.23043e-09
4.59902e-10
1.71228e-10
6.5857e-11
3.7319e-11
3.40261e-11
-1.09762e-11
-4.39047e-12
-2.19524e-12
-1.09762e-12
0
1.09762e-12
0
0
4.39047e-12
0
1.09762e-12
15.2083
44.3292
69.7955
89.8694
103.633
110.982
112.47
109.084
102.016
92.4784
81.573
70.2173
59.1154
48.7606
39.4587
31.3613
24.5021
18.8311
14.245
10.6113
7.78696
5.63117
4.01404
2.8211
1.95522
1.33656
0.901273
0.599591
0.393577
0.254931
0.162955
0.102803
0.0640146
0.0393488
0.0238791
0.0143084
0.00846654
0.00494752
0.00285514
0.00162687
0.000914984
0.000507645
0.000277619
0.000149503
7.91883e-05
4.12043e-05
2.1035e-05
1.05227e-05
5.15226e-06
2.46675e-06
1.15383e-06
5.26915e-07
2.34785e-07
1.02048e-07
4.32384e-08
1.78517e-08
7.19049e-09
2.80002e-09
1.06469e-09
3.87459e-10
1.39397e-10
3.7319e-11
1.53666e-11
5.48809e-12
-6.5857e-12
9.87856e-12
2.305e-11
-2.19523e-12
0
0
-1.09762e-12
-4.39047e-12
-8.78094e-12
1.09762e-12
6.58571e-12
10.7961
31.5342
49.8473
64.5377
74.916
80.8199
82.5381
80.6808
76.0355
69.44
61.6846
53.4504
45.278
37.5609
30.5559
24.4031
19.1504
14.7778
11.2204
8.38661
6.17347
4.47703
3.19962
2.25405
1.5656
1.07234
0.724398
0.482701
0.317306
0.205787
0.131684
0.0831487
0.0518117
0.0318638
0.0193431
0.0115926
0.00686014
0.00400906
0.00231384
0.00131877
0.000742055
0.000412017
0.00022557
0.00012165
6.45503e-05
3.36579e-05
1.72229e-05
8.63753e-06
4.24052e-06
2.03579e-06
9.54868e-07
4.37237e-07
1.95343e-07
8.51235e-08
3.61336e-08
1.49463e-08
6.02702e-09
2.35768e-09
9.15413e-10
3.36969e-10
1.08664e-10
3.84166e-11
1.64643e-11
1.86595e-11
2.305e-11
8.78094e-12
2.19523e-12
0
-1.09762e-12
-2.19523e-12
-6.5857e-12
4.39047e-12
0
0
0
7.64227
22.359
35.4557
46.1087
53.8141
58.4103
60.0419
59.0848
56.0565
51.53
46.0642
40.1551
34.2081
28.5281
23.3222
18.7111
14.7456
11.4231
8.70431
6.52745
4.81951
3.50488
2.51128
1.7733
1.23435
0.847116
0.573282
0.382621
0.251877
0.163554
0.104766
0.0662049
0.0412768
0.025393
0.0154161
0.00923774
0.00546482
0.0031922
0.00184147
0.00104907
0.000590108
0.000327617
0.000179396
9.67968e-05
5.14058e-05
2.68351e-05
1.37513e-05
6.90796e-06
3.39764e-06
1.63433e-06
7.68093e-07
3.52404e-07
1.57747e-07
6.88667e-08
2.92811e-08
1.21353e-08
4.8844e-09
1.92851e-09
7.71625e-10
3.09528e-10
1.22933e-10
4.82952e-11
2.19524e-11
1.09762e-11
2.08547e-11
3.29285e-12
-1.09762e-12
2.19523e-12
-4.39047e-12
0
-7.68332e-12
3.29285e-12
8.78094e-12
9.87856e-12
-3.29285e-12
5.38627
15.7796
25.0864
32.7424
38.3857
41.8776
43.286
42.8419
40.8835
37.7998
33.9809
29.7826
25.5029
21.3722
17.5522
14.1423
11.1896
8.70052
6.65257
5.00473
3.70612
2.70255
1.94127
1.37399
0.958441
0.659052
0.446803
0.298681
0.196895
0.128004
0.0820718
0.0518997
0.0323713
0.0199166
0.0120889
0.00724033
0.00427983
0.00249745
0.001439
0.000818765
0.000460005
0.000255112
0.000139575
7.52686e-05
3.99635e-05
2.08641e-05
1.0696e-05
5.37694e-06
2.64711e-06
1.27475e-06
5.99846e-07
2.75587e-07
1.23531e-07
5.39907e-08
2.30126e-08
9.54378e-09
3.85264e-09
1.53447e-09
6.06982e-10
2.40378e-10
1.05371e-10
5.04904e-11
1.97571e-11
-5.48809e-12
6.5857e-12
-3.29285e-12
-1.09762e-12
-1.09762e-12
0
1.09762e-12
-4.39047e-12
-7.68332e-12
-2.19524e-12
2.19523e-12
5.48809e-12
3.77518
11.0717
17.6389
23.0912
27.1726
29.7726
30.9195
30.7547
29.4987
27.413
24.7676
21.8138
18.7671
15.798
13.0295
10.5403
8.37101
6.53182
5.01076
3.78115
2.80801
2.05306
1.47837
1.04874
0.733096
0.50507
0.34301
0.229655
0.151597
0.0986662
0.0633165
0.0400625
0.0249943
0.0153761
0.00932834
0.00558199
0.00329537
0.00191988
0.00110411
0.000626915
0.000351457
0.0001945
0.000106204
5.71744e-05
3.0314e-05
1.58098e-05
8.09941e-06
4.07028e-06
2.0038e-06
9.65187e-07
4.54403e-07
2.08945e-07
9.37695e-08
4.10421e-08
1.75169e-08
7.30025e-09
2.97893e-09
1.18762e-09
4.50023e-10
1.69033e-10
5.1588e-11
2.52452e-11
2.52452e-11
9.87856e-12
-8.78094e-12
-5.48809e-12
0
-3.29285e-12
4.39047e-12
-1.09762e-12
-3.29285e-12
5.48809e-12
-3.29285e-12
-9.87856e-12
-1.09762e-12
2.62874
7.7164
12.3149
16.162
19.0787
20.9812
21.8779
21.8553
21.0564
19.6561
17.8391
15.7809
13.6349
11.525
9.54268
7.74845
6.17547
4.83469
3.72043
2.81569
2.09676
1.53697
1.10938
0.788732
0.552478
0.38135
0.25943
0.17396
0.114982
0.0749147
0.0481118
0.0304557
0.0190022
0.0116859
0.00708397
0.00423359
0.00249496
0.00145034
0.000831905
0.00047097
0.000263205
0.000145194
7.90329e-05
4.2422e-05
2.2433e-05
1.16731e-05
5.96913e-06
2.99541e-06
1.47312e-06
7.09085e-07
3.33713e-07
1.53438e-07
6.88832e-08
3.01702e-08
1.28915e-08
5.40467e-09
2.20402e-09
8.80289e-10
3.35871e-10
1.33909e-10
5.1588e-11
1.09762e-11
2.19524e-12
1.64643e-11
-1.09762e-11
1.09762e-12
8.78094e-12
4.39047e-12
0
0
9.87856e-12
1.20738e-11
5.48809e-12
-5.48809e-12
-4.39047e-12
1.81705
5.33779
8.53131
11.2202
13.2807
14.651
15.3307
15.3725
14.8687
13.9356
12.6982
11.2778
9.78211
8.29957
6.89697
5.61964
4.49362
3.52901
2.72372
2.06712
1.54337
1.13411
0.820493
0.584599
0.41031
0.283739
0.193347
0.129838
0.0859254
0.0560384
0.0360134
0.0228044
0.014227
0.00874433
0.00529503
0.00315928
0.00185772
0.00107691
0.000615661
0.000347237
0.000193262
0.000106154
5.75337e-05
3.07529e-05
1.61988e-05
8.39935e-06
4.28185e-06
2.14312e-06
1.05174e-06
5.05399e-07
2.37575e-07
1.09121e-07
4.89647e-08
2.14496e-08
9.20352e-09
3.85374e-09
1.58496e-09
6.5418e-10
2.56842e-10
9.98832e-11
3.51238e-11
-8.78094e-12
-1.75619e-11
4.39047e-12
-1.97571e-11
-9.87856e-12
0
2.19523e-12
4.39047e-12
1.09762e-12
1.31714e-11
-4.39047e-12
3.29285e-12
-1.09762e-12
-1.09762e-12
1.24598
3.66255
5.8611
7.72233
9.16149
10.1342
10.6367
10.7008
10.386
9.76882
8.93347
7.96266
6.93105
5.90091
4.92008
4.02178
3.22585
2.54084
1.96652
1.49642
1.12007
0.825009
0.598198
0.427105
0.300352
0.208071
0.142013
0.0955005
0.0632757
0.0413039
0.0265594
0.016821
0.0104913
0.00644326
0.00389637
0.00232017
0.0013607
0.000786182
0.000447681
0.000251353
0.000139197
7.60515e-05
4.09935e-05
2.17931e-05
1.14196e-05
5.89268e-06
2.99092e-06
1.4913e-06
7.29457e-07
3.49591e-07
1.6399e-07
7.51923e-08
3.36914e-08
1.47454e-08
6.32776e-09
2.65184e-09
1.11957e-09
4.58804e-10
1.8879e-10
6.69547e-11
1.97571e-11
-5.48809e-12
-1.64643e-11
-6.5857e-12
-5.48809e-12
-1.09762e-12
-7.68332e-12
0
0
1.09762e-12
-4.39047e-12
-8.78094e-12
0
0
-5.48809e-12
0.847115
2.49144
3.99126
5.26688
6.26085
6.94191
7.30548
7.3708
7.17583
6.77084
6.21185
5.55474
4.85064
4.14275
3.46479
2.84064
2.28501
1.80475
1.4005
1.06838
0.801594
0.591767
0.429998
0.307631
0.216741
0.150408
0.102817
0.0692357
0.0459244
0.0300022
0.0193012
0.0122248
0.00762141
0.00467611
0.0028232
0.00167729
0.000980717
0.000564502
0.000319999
0.00017873
9.84044e-05
5.34274e-05
2.86103e-05
1.51094e-05
7.86612e-06
4.0341e-06
2.03595e-06
1.00997e-06
4.91837e-07
2.34842e-07
1.09797e-07
5.02215e-08
2.24265e-08
9.78087e-09
4.16217e-09
1.72326e-09
7.11256e-10
2.77697e-10
1.24031e-10
4.06118e-11
1.64643e-11
1.64643e-11
-6.58571e-12
-2.08547e-11
8.78094e-12
1.09762e-11
0
1.09762e-12
-4.39047e-12
0
-1.20738e-11
0
0
-3.29285e-12
2.19524e-12
0.570771
1.67948
2.69298
3.55845
4.23729
4.70789
4.96601
5.0232
4.90361
4.63996
4.26924
3.82881
3.35325
2.87216
2.40893
1.98043
1.59731
1.26484
0.983953
0.752395
0.565795
0.418594
0.30479
0.218477
0.154208
0.107192
0.0733856
0.0494812
0.0328556
0.0214804
0.0138241
0.00875524
0.00545522
0.00334317
0.00201477
0.00119395
0.000695785
0.000398835
0.000224962
0.000124923
6.83323e-05
3.68367e-05
1.95778e-05
1.02595e-05
5.30016e-06
2.69797e-06
1.35212e-06
6.6645e-07
3.22709e-07
1.5332e-07
7.13594e-08
3.25191e-08
1.44721e-08
6.29045e-09
2.64745e-09
1.07347e-09
4.20388e-10
1.53666e-10
5.04904e-11
1.20738e-11
-1.09762e-12
2.19523e-12
-4.39047e-12
-2.19524e-11
0
-4.39047e-12
9.87856e-12
-1.09762e-12
2.19524e-12
-2.19524e-12
3.29285e-12
0
-2.19524e-12
3.29285e-12
-8.78094e-12
0.380983
1.12149
1.79971
2.38087
2.83934
3.16037
3.34049
3.38659
3.31396
3.14372
2.90009
2.60779
2.28995
1.96658
1.6537
1.36299
1.10204
0.874748
0.682066
0.522717
0.393922
0.292036
0.213058
0.153008
0.108187
0.0753252
0.0516443
0.0348656
0.0231741
0.0151612
0.00976014
0.00618042
0.00384822
0.00235526
0.00141657
0.000837151
0.000486112
0.000277408
0.000155636
8.5887e-05
4.6648e-05
2.49512e-05
1.31501e-05
6.83118e-06
3.49799e-06
1.76518e-06
8.77336e-07
4.29106e-07
2.06311e-07
9.74081e-08
4.50835e-08
2.04311e-08
9.06413e-09
3.90532e-09
1.62338e-09
6.67351e-10
2.5794e-10
1.05371e-10
3.07333e-11
1.64643e-11
2.08547e-11
1.09762e-12
-5.48809e-12
-3.29285e-12
0
1.31714e-11
0
-2.19523e-12
0
1.09762e-12
4.39047e-12
-2.19523e-12
0
2.19523e-12
-1.09762e-12
0.251848
0.741619
1.19094
1.57714
1.88333
2.09959
2.22328
2.25847
2.2148
2.10579
1.94715
1.75508
1.54488
1.32992
1.12098
0.926084
0.750489
0.597028
0.466524
0.358278
0.270545
0.200962
0.146889
0.105678
0.0748495
0.0521965
0.0358381
0.0242246
0.016117
0.0105511
0.00679402
0.00430119
0.00267603
0.00163551
0.000981587
0.0005784
0.000334601
0.000190056
0.000106031
5.81291e-05
3.13356e-05
1.66213e-05
8.68087e-06
4.46649e-06
2.26471e-06
1.13164e-06
5.57094e-07
2.70005e-07
1.2874e-07
6.03196e-08
2.77192e-08
1.247e-08
5.49138e-09
2.35658e-09
9.72489e-10
4.09411e-10
1.52569e-10
5.59785e-11
7.68332e-12
1.09762e-12
9.87856e-12
1.09762e-11
0
9.87856e-12
8.78094e-12
4.39047e-12
-9.87856e-12
0
-1.09762e-12
1.09762e-12
1.09762e-12
1.09762e-12
0
1.09762e-12
1.31714e-11
0.164834
0.48554
0.780192
1.03412
1.23632
1.38021
1.46387
1.48969
1.46368
1.39446
1.29212
1.16718
1.02963
0.888292
0.75036
0.621223
0.504487
0.402149
0.31487
0.242281
0.183299
0.136406
0.0998815
0.0719837
0.0510689
0.0356686
0.0245249
0.0165978
0.0110536
0.00724092
0.00466365
0.00295173
0.00183492
0.00111979
0.000670586
0.000393957
0.000227021
0.000128333
7.11837e-05
3.87612e-05
2.0733e-05
1.09018e-05
5.63945e-06
2.87203e-06
1.44075e-06
7.12153e-07
3.46815e-07
1.6637e-07
7.85631e-08
3.64826e-08
1.66388e-08
7.43526e-09
3.24565e-09
1.39836e-09
5.88323e-10
2.26109e-10
9.11023e-11
3.29285e-11
-1.09762e-12
8.78094e-12
-1.09762e-11
-1.09762e-12
5.48809e-12
1.4269e-11
-4.39047e-12
-1.31714e-11
2.19524e-12
1.09762e-12
0
-1.09762e-12
7.68332e-12
3.29285e-12
0
3.29285e-12
-4.39047e-12
0.106794
0.314661
0.505885
0.671063
0.803095
0.897673
0.953432
0.971779
0.956443
0.912857
0.847454
0.766984
0.677921
0.586012
0.495985
0.411419
0.334742
0.267335
0.209697
0.161642
0.122506
0.0913222
0.0669832
0.0483546
0.0343608
0.0240361
0.0165502
0.0112148
0.00747619
0.0049008
0.00315729
0.00199785
0.00124093
0.000756172
0.000451828
0.000264638
0.000151906
8.5457e-05
4.7126e-05
2.54859e-05
1.35249e-05
7.04838e-06
3.61024e-06
1.81902e-06
9.02217e-07
4.40771e-07
2.12149e-07
1.00622e-07
4.69879e-08
2.1589e-08
9.76001e-09
4.33449e-09
1.89449e-09
7.99066e-10
3.43554e-10
1.22933e-10
5.26856e-11
3.07333e-11
2.52452e-11
1.75619e-11
4.39047e-12
-5.48809e-12
1.4269e-11
-1.97571e-11
-8.78094e-12
-1.09762e-12
0
1.09762e-12
1.09762e-12
0
-7.68332e-12
0
-4.39047e-12
-1.4269e-11
-1.09762e-12
0.0684803
0.20182
0.324622
0.430913
0.516158
0.577569
0.61421
0.626898
0.617933
0.590715
0.549305
0.497997
0.440934
0.38182
0.323725
0.268992
0.219231
0.175376
0.13779
0.106385
0.0807567
0.0602964
0.0442969
0.0320286
0.0227956
0.0159705
0.0110126
0.00747214
0.00498653
0.00327125
0.00210819
0.0013338
0.000827844
0.000503738
0.000300343
0.00017539
0.00010029
5.61507e-05
3.07867e-05
1.65366e-05
8.70676e-06
4.49699e-06
2.28047e-06
1.13649e-06
5.57102e-07
2.68827e-07
1.278e-07
5.98619e-08
2.76139e-08
1.2526e-08
5.58139e-09
2.45976e-09
1.05481e-09
4.36852e-10
1.72326e-10
6.14666e-11
6.58571e-12
-8.78094e-12
2.19523e-12
-1.4269e-11
-3.29285e-12
-7.68332e-12
-1.75619e-11
-3.29285e-11
1.09762e-12
0
-2.19524e-12
-3.29285e-12
1.09762e-12
-1.09762e-12
1.09762e-12
-2.19524e-12
0
0
1.31714e-11
0.0434567
0.128099
0.206127
0.273783
0.328198
0.36759
0.391333
0.399899
0.394696
0.377835
0.351858
0.319468
0.28329
0.245683
0.208617
0.173605
0.141698
0.113518
0.0893169
0.0690586
0.0524971
0.0392535
0.0288804
0.0209134
0.0149076
0.0104603
0.00722375
0.0049081
0.00327925
0.00215312
0.00138826
0.000878293
0.000544792
0.000331077
0.000196998
0.000114715
6.53529e-05
3.64213e-05
1.98578e-05
1.05958e-05
5.53598e-06
2.83417e-06
1.42303e-06
7.01426e-07
3.39778e-07
1.61903e-07
7.59584e-08
3.50875e-08
1.59824e-08
7.15427e-09
3.14358e-09
1.36983e-09
5.72956e-10
2.48062e-10
9.21999e-11
2.74404e-11
-5.48809e-12
-2.52452e-11
-2.41476e-11
-2.63428e-11
-2.63428e-11
-6.5857e-12
-1.86595e-11
8.78094e-12
1.09762e-12
-1.09762e-12
0
0
6.58571e-12
4.39047e-12
6.5857e-12
-1.97571e-11
2.19524e-12
1.09762e-11
0
0.0272887
0.0804541
0.129505
0.172099
0.206439
0.231401
0.246573
0.252227
0.249221
0.238855
0.222705
0.202459
0.17976
0.156096
0.132713
0.110578
0.0903665
0.0724826
0.0570987
0.0442013
0.0336425
0.0251876
0.0185564
0.0134565
0.00960639
0.00675092
0.00466924
0.00317708
0.00212544
0.00139696
0.000901291
0.000570298
0.000353599
0.000214654
0.000127492
7.40469e-05
4.20389e-05
2.33263e-05
1.26506e-05
6.70759e-06
3.47869e-06
1.76585e-06
8.78105e-07
4.28195e-07
2.04967e-07
9.64169e-08
4.46105e-08
2.03059e-08
9.11681e-09
4.02935e-09
1.76168e-09
7.43087e-10
3.21602e-10
1.25128e-10
4.50023e-11
1.75619e-11
0
-2.63428e-11
-2.74404e-11
-3.84166e-11
-3.84166e-11
-9.87856e-12
2.19523e-12
1.97571e-11
0
0
-1.09762e-12
1.31714e-11
0
1.09762e-12
-7.68332e-12
0
0
0
-7.68332e-12
0.0169561
0.0499979
0.0805027
0.107023
0.128447
0.14407
0.15363
0.157282
0.155546
0.149216
0.139264
0.12673
0.112635
0.0979058
0.0833227
0.0694933
0.0568453
0.0456384
0.0359858
0.0278841
0.0212444
0.0159225
0.0117444
0.00852765
0.00609636
0.00429071
0.00297227
0.00202551
0.00135697
0.000892928
0.000576578
0.000364971
0.00022625
0.000137234
8.13837e-05
4.71583e-05
2.66896e-05
1.47501e-05
7.96016e-06
4.19575e-06
2.16094e-06
1.08817e-06
5.36174e-07
2.58753e-07
1.22414e-07
5.68368e-08
2.59268e-08
1.16336e-08
5.13136e-09
2.23255e-09
9.57122e-10
3.76483e-10
1.48178e-10
5.04904e-11
3.07333e-11
1.31714e-11
-2.19524e-12
-2.85381e-11
-2.52452e-11
-2.63428e-11
-3.29285e-11
-2.52452e-11
-4.39047e-12
2.19524e-12
3.29285e-12
2.19524e-12
1.09762e-12
0
-8.78094e-12
4.39047e-12
1.09762e-12
2.41476e-11
2.19524e-12
4.39047e-12
0
0.0104249
0.0307426
0.0495094
0.0658391
0.079049
0.0887056
0.0946425
0.0969506
0.0959426
0.0921016
0.0860193
0.0783335
0.0696711
0.0606029
0.0516115
0.0430738
0.035257
0.0283241
0.0223478
0.0173281
0.0132117
0.00991031
0.00731693
0.0053189
0.00380741
0.00268362
0.00186191
0.00127086
0.00085269
0.000561847
0.000363168
0.000230023
0.000142606
8.64534e-05
5.12077e-05
2.96149e-05
1.6715e-05
9.20471e-06
4.94543e-06
2.59272e-06
1.32684e-06
6.63209e-07
3.24016e-07
1.54856e-07
7.24702e-08
3.32381e-08
1.49419e-08
6.60985e-09
2.8549e-09
1.21396e-09
4.98318e-10
1.89888e-10
5.70761e-11
3.95142e-11
2.08547e-11
6.5857e-12
-2.19524e-12
-2.52452e-11
-2.85381e-11
-1.75619e-11
-1.20738e-11
-9.87856e-12
-1.20738e-11
3.29285e-12
8.78094e-12
-1.09762e-11
1.09762e-12
-6.5857e-12
-1.09762e-12
-1.09762e-12
-2.19523e-12
0
-9.87856e-12
0
5.48809e-12
0.00634172
0.0187026
0.030123
0.0400652
0.0481144
0.0540064
0.0576388
0.0590648
0.0584724
0.0561533
0.0524658
0.0477968
0.0425275
0.0370057
0.031526
0.0263192
0.0215492
0.0173167
0.013667
0.0106008
0.00808598
0.0060688
0.00448395
0.00326257
0.00233814
0.00165027
0.00114672
0.000783967
0.000526851
0.000347658
0.000224991
0.000142624
8.84532e-05
5.36122e-05
3.17282e-05
1.8321e-05
1.03169e-05
5.66393e-06
3.03122e-06
1.58161e-06
8.04825e-07
3.9961e-07
1.93746e-07
9.18025e-08
4.25382e-08
1.93027e-08
8.58227e-09
3.74068e-09
1.60691e-09
6.61863e-10
2.66721e-10
1.31714e-10
5.48809e-11
2.96357e-11
-4.39047e-12
1.20738e-11
4.39047e-12
7.68332e-12
-2.19523e-12
7.68332e-12
9.87856e-12
7.68332e-12
-3.29285e-12
-2.52452e-11
-2.19523e-12
-1.09762e-12
-1.09762e-12
1.09762e-12
2.19523e-12
-8.78094e-12
-1.31714e-11
-4.39047e-12
-6.5857e-12
-7.68332e-12
-1.09762e-12
0.00381703
0.011257
0.0181309
0.0241153
0.0289606
0.0325079
0.0346956
0.0355555
0.0352006
0.0338061
0.0315875
0.0287772
0.0256049
0.0222799
0.0189798
0.0158439
0.0129712
0.0104225
0.00822514
0.00637967
0.00486661
0.0036534
0.00270052
0.00196629
0.00141051
0.000996768
0.000693628
0.000474965
0.000319715
0.000211303
0.000136933
8.68925e-05
5.39219e-05
3.26853e-05
1.93338e-05
1.11512e-05
6.26802e-06
3.43236e-06
1.83085e-06
9.51376e-07
4.81741e-07
2.378e-07
1.14511e-07
5.38206e-08
2.47348e-08
1.1109e-08
4.90635e-09
2.10413e-09
8.87973e-10
3.68799e-10
1.66838e-10
8.56142e-11
4.06118e-11
-2.19524e-12
5.48809e-12
-4.39047e-12
-6.58571e-12
1.4269e-11
3.51238e-11
3.29285e-11
3.29285e-11
2.41476e-11
1.53666e-11
-1.4269e-11
-7.68332e-12
1.09762e-11
-2.19524e-12
0
0
5.48809e-12
8.78094e-12
0
9.87856e-12
2.19523e-12
-6.58571e-12
0.00227305
0.00670313
0.0107949
0.0143553
0.0172356
0.0193416
0.0206372
0.0211421
0.0209242
0.0200884
0.0187632
0.0170873
0.0151973
0.013218
0.0112548
0.00939049
0.00768386
0.00617082
0.00486745
0.00377374
0.00287785
0.00216015
0.00159692
0.00116321
0.000835029
0.000590707
0.000411603
0.000282277
0.000190319
0.000125986
8.17629e-05
5.19453e-05
3.22613e-05
1.95624e-05
1.15694e-05
6.66795e-06
3.74289e-06
2.04547e-06
1.08815e-06
5.63496e-07
2.84155e-07
1.39572e-07
6.68219e-08
3.11877e-08
1.42383e-08
6.34972e-09
2.77039e-09
1.18213e-09
4.78561e-10
2.15133e-10
1.14152e-10
5.1588e-11
3.7319e-11
6.58571e-12
1.31714e-11
-2.63428e-11
-1.53666e-11
1.31714e-11
2.305e-11
8.78094e-12
2.305e-11
7.68332e-12
9.87856e-12
1.09762e-12
-2.19523e-12
1.09762e-12
-1.09762e-12
1.20738e-11
0
0
2.08547e-11
9.87856e-12
6.58571e-12
4.39047e-12
0
0.00133916
0.00394854
0.00635698
0.00845009
0.0101402
0.0113722
0.0121258
0.0124134
0.012276
0.0117763
0.0109904
0.0100002
0.00888632
0.0077219
0.00656885
0.00547549
0.004476
0.00359114
0.00282999
0.00219222
0.00167058
0.00125332
0.000926299
0.000674775
0.000484609
0.000343093
0.000239338
0.000164368
0.000110994
7.35918e-05
4.78316e-05
3.04274e-05
1.89158e-05
1.14766e-05
6.78822e-06
3.91077e-06
2.19313e-06
1.19672e-06
6.35265e-07
3.28057e-07
1.64885e-07
8.0642e-08
3.84452e-08
1.78857e-08
8.11798e-09
3.61445e-09
1.5663e-09
6.92597e-10
2.87576e-10
1.26226e-10
7.57356e-11
5.70761e-11
5.92713e-11
5.70761e-11
2.85381e-11
2.305e-11
2.19523e-11
3.07333e-11
3.29285e-12
-1.09762e-12
-2.19523e-12
4.39047e-12
2.08547e-11
2.41476e-11
-6.5857e-12
0
4.39047e-12
-4.39047e-12
-2.19523e-12
-1.31714e-11
-5.48809e-12
6.5857e-12
-1.09762e-12
-5.48809e-12
2.19523e-12
0.000780471
0.00230066
0.00370215
0.00491768
0.00589606
0.00660564
0.00703532
0.00719343
0.00710481
0.00680667
0.00634393
0.00576455
0.00511538
0.00443884
0.00377062
0.00313848
0.00256185
0.00205244
0.00161517
0.00124955
0.000951122
0.000712892
0.000526545
0.000383459
0.000275424
0.000195097
0.000136221
9.36652e-05
6.33407e-05
4.20604e-05
2.73782e-05
1.74395e-05
1.08533e-05
6.5899e-06
3.89912e-06
2.2461e-06
1.25885e-06
6.86182e-07
3.63651e-07
1.87403e-07
9.39089e-08
4.57761e-08
2.1735e-08
1.00871e-08
4.56828e-09
2.0273e-09
8.72606e-10
3.7319e-10
1.83302e-10
8.45165e-11
6.14666e-11
6.36618e-11
5.04904e-11
3.84166e-11
4.39047e-12
2.41476e-11
2.96357e-11
1.97571e-11
1.31714e-11
1.20738e-11
3.29285e-12
7.68332e-12
1.75619e-11
2.96357e-11
7.68332e-12
0
0
-1.20738e-11
1.09762e-12
0
-1.64643e-11
-9.87856e-12
1.09762e-12
-7.68332e-12
0
0.000449912
0.00132575
0.00213183
0.00282886
0.00338727
0.0037892
0.00402897
0.00411222
0.00405408
0.00387666
0.00360625
0.00327063
0.00289673
0.00250876
0.00212696
0.00176693
0.0014395
0.00115105
0.000904137
0.000698239
0.000530632
0.000397181
0.000293051
0.000213273
0.000153149
0.000108505
7.58091e-05
5.2178e-05
3.53296e-05
2.3493e-05
1.5314e-05
9.76775e-06
6.08576e-06
3.69831e-06
2.18936e-06
1.26138e-06
7.0676e-07
3.84974e-07
2.03805e-07
1.04876e-07
5.24332e-08
2.54988e-08
1.20332e-08
5.55614e-09
2.51464e-09
1.10859e-09
4.59902e-10
2.00864e-10
1.00981e-10
6.25642e-11
3.29285e-11
3.40261e-11
1.31714e-11
0
-1.20738e-11
-2.08547e-11
2.19524e-12
8.78094e-12
1.97571e-11
1.31714e-11
0
-1.4269e-11
-2.19524e-12
2.19524e-12
1.64643e-11
-1.09762e-12
-1.09762e-12
0
6.58571e-12
1.53666e-11
5.48809e-12
-5.48809e-12
-8.78094e-12
1.09762e-12
-4.39047e-12
0.00025649
0.00075542
0.00121354
0.00160806
0.00192209
0.00214576
0.00227639
0.00231786
0.00227944
0.00217422
0.00201747
0.00182512
0.00161243
0.00139301
0.0011781
0.000976275
0.000793425
0.000632921
0.000495995
0.000382195
0.000289859
0.000216571
0.000159556
0.000115995
8.32431e-05
5.89695e-05
4.12135e-05
2.83873e-05
1.92411e-05
1.28106e-05
8.36161e-06
5.34012e-06
3.33092e-06
2.02604e-06
1.20019e-06
6.91706e-07
3.87571e-07
2.11017e-07
1.11631e-07
5.73659e-08
2.86357e-08
1.38914e-08
6.5418e-09
2.99979e-09
1.34568e-09
5.78444e-10
2.51354e-10
1.25128e-10
4.93928e-11
3.95142e-11
3.29285e-12
0
-2.19523e-12
-1.31714e-11
-1.09762e-12
2.19523e-12
9.87856e-12
2.74404e-11
2.63428e-11
2.19523e-11
6.5857e-12
0
3.29285e-12
-6.5857e-12
-2.19523e-12
-4.39047e-12
-1.09762e-12
-1.09762e-12
0
6.5857e-12
8.78094e-12
-2.19523e-12
-4.39047e-12
8.78094e-12
0
0.000144572
0.000425522
0.000682717
0.000903029
0.00107692
0.00119907
0.00126836
0.0012875
0.00126215
0.00120005