/*--------------------------------*- C++ -*----------------------------------*\
  =========                 |
  \\      /  F ield         | OpenFOAM: The Open Source CFD Toolbox
   \\    /   O peration     | Website:  https://openfoam.org
    \\  /    A nd           | Version:  10
     \\/     M anipulation  |
\*---------------------------------------------------------------------------*/
FoamFile
{
    format      ascii;
    class       volScalarField;
    location    "486";
    object      gradTz;
}
// * * * * * * * * * * * * * * * * * * * * * * * * * * * * * * * * * * * * * //

dimensions      [0 -1 0 1 0 0 0];

internalField   nonuniform List<scalar> 
11250
(
-14340.3
-4135.98
-1516.06
-713.032
-409.002
-268.178
-191.686
-145.116
-114.373
-92.8278
-77.014
-64.967
-55.5038
-47.8776
-41.5986
-36.3353
-31.8573
-28.0008
-24.6469
-21.7075
-19.1162
-16.8221
-14.785
-12.9731
-11.3602
-9.92477
-8.64826
-7.51472
-6.51013
-5.62193
-4.83879
-4.1504
-3.5473
-3.02077
-2.56279
-2.16598
-1.82352
-1.52918
-1.27726
-1.06255
-0.880355
-0.726415
-0.596924
-0.488483
-0.398076
-0.323042
-0.261049
-0.210062
-0.168317
-0.134295
-0.106694
-0.084404
-0.0664851
-0.0521462
-0.0407244
-0.0316679
-0.0245196
-0.0189033
-0.0145109
-0.0110912
-0.00844101
-0.0063966
-0.00482673
-0.00362684
-0.00271405
-0.00202304
-0.00150264
-0.00111299
-0.000823261
-0.000609814
-0.000454717
-0.000344585
-0.000269686
-0.000223268
-0.000201081
-8225.12
-4823.37
-2731.15
-1639.96
-1063.67
-740.084
-545.025
-419.424
-333.835
-272.681
-227.218
-192.274
-164.645
-142.269
-123.777
-108.229
-94.9701
-83.5297
-73.5649
-64.8208
-57.1045
-50.2671
-44.1917
-38.7847
-33.9695
-29.6821
-25.8682
-22.4805
-19.4773
-16.8216
-14.4796
-12.4206
-10.6165
-9.04122
-7.67091
-6.48349
-5.45865
-4.57775
-3.82374
-3.18108
-2.63569
-2.17487
-1.78722
-1.46258
-1.19192
-0.967271
-0.781662
-0.629002
-0.504012
-0.402142
-0.319496
-0.252751
-0.199095
-0.156158
-0.121955
-0.0948352
-0.0734292
-0.0566106
-0.0434566
-0.0332157
-0.0252792
-0.0191568
-0.0144554
-0.0108619
-0.00812829
-0.00605883
-0.00450031
-0.00333335
-0.00246564
-0.00182638
-0.00136188
-0.00103204
-0.000807718
-0.000668698
-0.000602252
-5511.22
-4200.81
-2944.76
-2051.59
-1465.23
-1083.11
-828.578
-653.425
-528.608
-436.628
-366.73
-312.134
-268.443
-232.73
-202.999
-177.86
-156.324
-137.672
-121.378
-107.045
-94.372
-83.1237
-73.1154
-64.1981
-56.2492
-49.166
-42.8608
-37.257
-32.287
-27.89
-24.0111
-20.5999
-17.61
-14.9989
-12.727
-10.758
-9.05828
-7.59709
-6.34622
-5.27996
-4.37499
-3.61028
-2.96694
-2.42812
-1.97886
-1.60596
-1.29784
-1.04441
-0.836899
-0.667768
-0.530547
-0.419723
-0.330629
-0.259331
-0.202535
-0.157499
-0.121951
-0.0940205
-0.0721752
-0.0551675
-0.0419866
-0.0318182
-0.0240098
-0.0180415
-0.0135011
-0.0100638
-0.00747519
-0.00553688
-0.00409561
-0.00303379
-0.00226223
-0.00171435
-0.00134174
-0.00111081
-0.00100044
-4106.98
-3523.15
-2794.8
-2155.7
-1661.93
-1297.93
-1032.21
-836.603
-690.123
-578.136
-490.655
-420.873
-364.114
-317.126
-277.613
-243.933
-214.89
-189.607
-167.423
-147.842
-130.477
-115.029
-101.256
-88.9645
-77.9926
-68.2043
-59.4824
-51.7244
-44.8388
-38.7435
-33.3635
-28.63
-24.4795
-20.8535
-17.6977
-14.9618
-12.5996
-10.5684
-8.82925
-7.34653
-6.08791
-5.02421
-4.12923
-3.37957
-2.75445
-2.23553
-1.80672
-1.45399
-1.16516
-0.929733
-0.738711
-0.584428
-0.460389
-0.361121
-0.282042
-0.219333
-0.169834
-0.13094
-0.100519
-0.0768343
-0.058478
-0.0443166
-0.0334417
-0.0251293
-0.0188055
-0.0140181
-0.0104125
-0.00771266
-0.00570512
-0.00422609
-0.00315134
-0.00238816
-0.00186913
-0.00154746
-0.00139372
-3285.53
-2988.98
-2554.6
-2113.52
-1727.96
-1413.63
-1164.97
-969.977
-816.555
-694.643
-596.48
-516.285
-449.808
-393.933
-346.371
-305.426
-269.836
-238.647
-211.136
-186.743
-165.033
-145.66
-128.345
-112.859
-99.0115
-86.6392
-75.6008
-65.7717
-57.04
-49.3042
-42.4715
-36.4564
-31.1795
-26.5672
-22.5514
-19.0688
-16.0609
-13.4738
-11.2582
-9.36876
-7.76461
-6.40865
-5.26758
-4.31165
-3.51442
-2.85255
-2.30556
-1.85557
-1.48706
-1.18666
-0.942902
-0.746011
-0.587706
-0.461007
-0.36007
-0.280024
-0.216836
-0.167184
-0.128347
-0.0981084
-0.0746718
-0.0565904
-0.0427048
-0.0320907
-0.0240157
-0.0179023
-0.0132979
-0.00985016
-0.0072864
-0.00539754
-0.00402496
-0.00305028
-0.00238739
-0.00197656
-0.0017802
-2759.31
-2591.35
-2319.83
-2014.58
-1721.63
-1462.58
-1243.1
-1060.91
-910.726
-786.766
-683.826
-597.593
-524.635
-462.284
-408.48
-361.643
-320.555
-284.275
-252.073
-223.374
-197.721
-174.747
-154.153
-135.688
-119.142
-104.332
-91.0986
-79.2998
-68.8067
-59.5016
-51.276
-44.0294
-37.6682
-32.1052
-27.2593
-23.0549
-19.4223
-16.2969
-13.6193
-11.3355
-9.39593
-7.75612
-6.37591
-5.21944
-4.2548
-3.45383
-2.7918
-2.24709
-1.80096
-1.43726
-1.1421
-0.903671
-0.711952
-0.558499
-0.436239
-0.339277
-0.262731
-0.202579
-0.155526
-0.118888
-0.0904909
-0.0685814
-0.0517553
-0.038893
-0.0291072
-0.0216983
-0.0161181
-0.0119394
-0.00883212
-0.00654272
-0.00487905
-0.00369763
-0.00289413
-0.00239615
-0.00215813
-2399.44
-2295.67
-2117.26
-1901.85
-1680.02
-1470.66
-1282.75
-1118.79
-977.757
-857.1
-753.847
-665.155
-588.537
-521.911
-463.586
-412.203
-366.677
-326.147
-289.925
-257.457
-228.298
-202.079
-178.497
-157.293
-138.247
-121.165
-105.876
-92.2237
-80.0668
-69.2744
-59.725
-51.3053
-43.9089
-37.4365
-31.7953
-26.8985
-22.6658
-19.0226
-15.9005
-13.2365
-10.9735
-9.05981
-7.44868
-6.09843
-4.97195
-4.03644
-3.26307
-2.62667
-2.10537
-1.68033
-1.33536
-1.05667
-0.832547
-0.653144
-0.510196
-0.396819
-0.307307
-0.236961
-0.181931
-0.13908
-0.105864
-0.0802358
-0.0605527
-0.0455058
-0.0340573
-0.0253893
-0.0188604
-0.0139713
-0.0103355
-0.00765662
-0.00570987
-0.00432741
-0.00338714
-0.0028044
-0.00252587
-2141.46
-2072.77
-1949.89
-1793.83
-1624.29
-1455.77
-1297.08
-1152.51
-1023.34
-909.13
-808.58
-720.095
-642.069
-573.033
-511.708
-457.014
-408.054
-364.088
-324.51
-288.818
-256.599
-227.505
-201.241
-177.554
-156.222
-137.048
-119.853
-104.474
-90.7602
-78.5712
-67.7747
-58.2466
-49.8699
-42.5344
-36.137
-30.5808
-25.7757
-21.638
-18.0907
-15.0629
-12.4901
-10.3137
-8.48096
-6.94462
-5.66262
-4.59774
-3.71727
-2.99262
-2.39894
-1.91482
-1.52185
-1.20433
-0.948968
-0.744534
-0.581625
-0.452404
-0.350375
-0.270187
-0.207452
-0.158598
-0.120727
-0.0915047
-0.0690602
-0.0519014
-0.0388455
-0.0289599
-0.0215137
-0.0159373
-0.0117903
-0.00873464
-0.00651402
-0.00493702
-0.00386442
-0.00319965
-0.00288191
-1950.01
-1901.95
-1813.62
-1697.3
-1565.67
-1429.32
-1295.71
-1169.42
-1052.75
-946.468
-850.42
-763.948
-686.183
-616.208
-553.148
-496.215
-444.72
-398.071
-355.765
-317.374
-282.535
-250.933
-222.298
-196.389
-172.991
-151.911
-132.968
-115.997
-100.84
-87.3513
-75.3899
-64.8232
-55.5253
-47.377
-40.2658
-34.086
-28.7387
-24.132
-20.1809
-16.8071
-13.9393
-11.5126
-9.46851
-7.75455
-6.324
-5.13547
-4.15257
-3.34347
-2.6805
-2.13979
-1.70082
-1.34609
-1.06076
-0.832309
-0.650245
-0.505815
-0.391768
-0.302126
-0.23199
-0.177367
-0.135022
-0.102345
-0.0772452
-0.0580555
-0.0434534
-0.0323966
-0.0240677
-0.01783
-0.013191
-0.00977271
-0.00728846
-0.00552418
-0.00432417
-0.00358041
-0.00322492
-1804.22
-1769
-1703.06
-1613.84
-1509.69
-1398.17
-1285.26
-1175.14
-1070.4
-972.423
-881.754
-798.391
-722.028
-652.205
-588.406
-530.118
-476.859
-428.192
-383.729
-343.128
-306.084
-272.33
-241.626
-213.752
-188.51
-165.711
-145.182
-126.755
-110.274
-95.5851
-82.5443
-71.0121
-60.8553
-51.9471
-44.167
-37.4017
-31.5443
-26.4957
-22.1635
-18.4628
-15.316
-12.6522
-10.4078
-8.52534
-6.95374
-5.64773
-4.56744
-3.67799
-2.94906
-2.35444
-1.87164
-1.48143
-1.16753
-0.916165
-0.715818
-0.556868
-0.431342
-0.332668
-0.255459
-0.195323
-0.148699
-0.112719
-0.0850796
-0.0639469
-0.0478654
-0.0356876
-0.0265138
-0.019643
-0.0145329
-0.0107673
-0.00803056
-0.00608689
-0.00476483
-0.00394541
-0.00355375
-1691
-1664.16
-1613.21
-1542.89
-1458.77
-1366.29
-1270.08
-1173.74
-1079.77
-989.803
-904.757
-825.058
-750.803
-681.887
-618.093
-559.146
-504.758
-454.64
-408.522
-366.148
-327.282
-291.708
-259.222
-229.633
-202.76
-178.428
-156.472
-136.728
-119.04
-103.253
-89.2206
-76.7977
-65.846
-56.2324
-47.83
-40.5185
-34.1846
-28.7223
-24.0328
-20.0253
-16.6161
-13.7293
-11.2961
-9.25472
-7.54999
-6.133
-4.96064
-3.99518
-3.20381
-2.55815
-2.03381
-1.60997
-1.26895
-0.995852
-0.778149
-0.60541
-0.468979
-0.361723
-0.27779
-0.212412
-0.16172
-0.122596
-0.0925402
-0.0695582
-0.0520683
-0.0388232
-0.0288448
-0.0213709
-0.015812
-0.0117155
-0.00873814
-0.00662349
-0.0051851
-0.00429356
-0.00386742
-1601.72
-1580.55
-1539.96
-1483.07
-1413.7
-1335.79
-1252.92
-1168.06
-1083.5
-1000.88
-921.297
-845.435
-773.662
-706.133
-642.864
-583.783
-528.768
-477.668
-430.32
-386.557
-346.213
-309.121
-275.12
-244.049
-215.749
-190.064
-166.835
-145.909
-127.13
-110.347
-95.4096
-82.1711
-70.489
-60.2253
-51.2478
-43.4306
-36.6543
-30.8072
-25.785
-21.4911
-17.8368
-14.7413
-12.1314
-9.94102
-8.11137
-6.59014
-5.33125
-4.2943
-3.44416
-2.75042
-2.18693
-1.73138
-1.3648
-1.07118
-0.837087
-0.651322
-0.504588
-0.389219
-0.298929
-0.228592
-0.17405
-0.131952
-0.0996087
-0.0748756
-0.0560518
-0.0417956
-0.0310548
-0.0230094
-0.0170251
-0.012615
-0.00940943
-0.00713266
-0.00558394
-0.00462399
-0.00416515
-1530.49
-1513.28
-1480.03
-1432.85
-1374.45
-1307.73
-1235.45
-1160.04
-1083.51
-1007.42
-932.916
-860.814
-791.654
-725.777
-663.375
-604.536
-549.277
-497.567
-449.343
-404.519
-362.993
-324.653
-289.379
-257.042
-227.507
-200.635
-176.283
-154.303
-134.548
-116.867
-101.11
-87.1302
-74.7816
-63.9229
-54.4175
-46.1348
-38.9506
-32.748
-27.4177
-22.8582
-18.9764
-15.6869
-12.9124
-10.5832
-8.63698
-7.01842
-5.67865
-4.57484
-3.66969
-2.93092
-2.33075
-1.84546
-1.45488
-1.142
-0.892523
-0.694521
-0.538103
-0.415106
-0.318836
-0.243833
-0.185668
-0.140769
-0.106271
-0.0798889
-0.0598083
-0.0445991
-0.0331396
-0.0245554
-0.0181699
-0.0134639
-0.0100431
-0.0076134
-0.00596058
-0.00493607
-0.00444636
-1473.14
-1458.76
-1430.81
-1390.79
-1340.64
-1282.55
-1218.65
-1150.96
-1081.19
-1010.78
-940.849
-872.275
-805.699
-741.582
-680.245
-621.9
-566.678
-514.647
-465.831
-420.217
-377.766
-338.414
-302.082
-268.673
-238.078
-210.176
-184.839
-161.929
-141.305
-122.821
-106.328
-91.6784
-78.7259
-67.3262
-57.3395
-48.6312
-41.0732
-34.544
-28.9302
-24.1261
-20.0342
-16.5654
-13.6385
-11.1807
-9.12638
-7.41746
-6.00253
-4.83653
-3.88018
-3.09946
-2.4651
-1.95207
-1.53911
-1.20825
-0.944395
-0.734957
-0.569483
-0.439351
-0.337486
-0.258116
-0.196558
-0.149036
-0.11252
-0.0845917
-0.0633328
-0.04723
-0.0350965
-0.0260068
-0.0192449
-0.0142612
-0.0106384
-0.00806505
-0.00631448
-0.00522936
-0.00471067
-1426.63
-1414.31
-1390.27
-1355.59
-1311.71
-1260.3
-1203.07
-1141.64
-1077.51
-1011.96
-946.064
-880.706
-816.579
-754.221
-694.042
-636.347
-581.356
-529.219
-480.034
-433.853
-390.69
-350.529
-313.327
-279.02
-247.522
-218.733
-192.539
-168.814
-147.423
-128.225
-111.074
-95.8247
-82.3284
-70.44
-60.0171
-50.9223
-43.0237
-36.1966
-30.3236
-25.2953
-21.0106
-17.3769
-14.31
-11.7336
-9.57959
-7.78723
-6.30285
-5.07933
-4.07558
-3.256
-2.58995
-2.05119
-1.61745
-1.26989
-0.992678
-0.772608
-0.598714
-0.461943
-0.354869
-0.271432
-0.206714
-0.156748
-0.118351
-0.0889808
-0.066623
-0.0496866
-0.036924
-0.0273625
-0.0202492
-0.0150062
-0.0111948
-0.00848728
-0.00664539
-0.00550363
-0.00495786
-1388.69
-1377.92
-1356.8
-1326.15
-1287.08
-1240.89
-1188.93
-1132.59
-1073.12
-1011.69
-949.305
-886.818
-824.946
-764.273
-705.269
-648.306
-593.672
-541.585
-492.202
-445.629
-401.93
-361.13
-323.221
-288.168
-255.908
-226.362
-199.428
-174.992
-152.928
-133.1
-115.367
-99.5822
-85.5996
-73.2725
-62.4568
-53.0128
-44.806
-37.7085
-31.5998
-26.3673
-21.9068
-18.1226
-14.9274
-12.2424
-9.99699
-8.12803
-6.57982
-5.30339
-4.25601
-3.40063
-2.70535
-2.14286
-1.68994
-1.32695
-1.03739
-0.807487
-0.625801
-0.482886
-0.370989
-0.283785
-0.216138
-0.163906
-0.123764
-0.0930566
-0.069679
-0.0519689
-0.0386223
-0.0286227
-0.0211829
-0.015699
-0.0117122
-0.00888004
-0.00695326
-0.00575885
-0.0051879
-1357.62
-1348
-1329.1
-1301.53
-1266.18
-1224.07
-1176.33
-1124.1
-1068.48
-1010.52
-951.14
-891.174
-831.335
-772.229
-714.365
-658.162
-603.96
-552.027
-502.571
-455.745
-411.653
-370.356
-331.878
-296.21
-263.313
-233.122
-205.554
-180.504
-157.853
-137.473
-119.226
-102.968
-88.5528
-75.8342
-64.667
-54.9096
-46.4254
-39.0841
-32.7624
-27.345
-22.725
-18.8039
-15.4921
-12.7082
-10.3794
-8.44046
-6.83391
-5.50907
-4.42173
-3.53355
-2.81147
-2.22719
-1.75665
-1.37948
-1.07858
-0.839631
-0.650774
-0.502201
-0.385861
-0.295185
-0.224838
-0.170516
-0.128764
-0.0968224
-0.0725034
-0.0540787
-0.0401927
-0.0297881
-0.0220466
-0.01634
-0.0121911
-0.0092436
-0.00723831
-0.00599519
-0.00540095
-1332.09
-1323.35
-1306.14
-1280.96
-1248.5
-1209.61
-1165.22
-1116.32
-1063.87
-1008.81
-951.992
-894.215
-836.178
-778.498
-721.706
-666.253
-612.517
-560.806
-511.369
-464.394
-420.021
-378.343
-339.412
-303.241
-269.813
-239.081
-210.972
-185.393
-162.235
-141.374
-122.676
-106.001
-91.204
-78.1382
-66.6581
-56.6211
-47.8887
-40.3286
-33.8155
-28.2316
-23.4677
-19.4231
-16.0057
-13.1323
-10.7278
-8.72535
-7.06576
-5.69688
-4.57315
-3.65506
-2.90853
-2.30437
-1.81774
-1.42762
-1.11633
-0.869103
-0.673681
-0.519924
-0.399513
-0.305653
-0.232829
-0.176589
-0.133359
-0.100284
-0.0751007
-0.0560194
-0.0416374
-0.0308606
-0.0228416
-0.0169301
-0.012632
-0.00957848
-0.00750092
-0.00621297
-0.00559728
-1311.06
-1303.01
-1287.11
-1263.77
-1233.58
-1197.23
-1155.53
-1109.33
-1059.48
-1006.83
-952.176
-896.28
-839.821
-783.417
-727.609
-672.872
-619.608
-568.158
-518.799
-471.753
-427.188
-385.223
-345.935
-309.357
-275.491
-244.304
-215.737
-189.707
-166.112
-144.834
-125.744
-108.704
-93.5711
-80.199
-68.4421
-58.1569
-49.2037
-41.4486
-34.7644
-29.0315
-24.1385
-19.9828
-16.4705
-13.5163
-11.0435
-8.98375
-7.27622
-5.86747
-4.71078
-3.76558
-2.99686
-2.37465
-1.87339
-1.47148
-1.15074
-0.895988
-0.694585
-0.536104
-0.41198
-0.315216
-0.240132
-0.182141
-0.137561
-0.103451
-0.0774771
-0.0577955
-0.04296
-0.0318426
-0.0235698
-0.0174708
-0.0130361
-0.00988542
-0.00774167
-0.00641266
-0.00577733
-1293.72
-1286.19
-1271.31
-1249.42
-1221.01
-1186.69
-1147.14
-1103.12
-1055.4
-1004.75
-951.922
-897.63
-842.54
-787.261
-732.342
-678.269
-625.465
-574.291
-525.051
-477.99
-433.3
-391.123
-351.555
-314.651
-280.425
-248.86
-219.907
-193.493
-169.523
-147.887
-128.457
-111.1
-95.6731
-82.0324
-70.0319
-59.5277
-50.3791
-42.451
-35.6148
-29.7491
-24.741
-20.4861
-16.8888
-13.8622
-11.3282
-9.21692
-7.46626
-6.02162
-4.83523
-3.86557
-3.07683
-2.4383
-1.92382
-1.51126
-1.18197
-0.920388
-0.713565
-0.550801
-0.423309
-0.323909
-0.246773
-0.187192
-0.141385
-0.106334
-0.0796408
-0.059413
-0.0441648
-0.0327375
-0.0242335
-0.0179636
-0.0134046
-0.0101654
-0.00796132
-0.00659487
-0.00594164
-1279.39
-1272.28
-1258.2
-1237.45
-1210.45
-1177.74
-1139.92
-1097.67
-1051.69
-1002.7
-951.396
-898.464
-844.55
-790.255
-736.126
-682.657
-630.286
-579.39
-530.291
-483.253
-438.489
-396.159
-356.376
-319.211
-284.692
-252.813
-223.537
-196.799
-172.511
-150.566
-130.844
-113.212
-97.5299
-83.6549
-71.4412
-60.7447
-51.4242
-43.3436
-36.3729
-30.3896
-25.2794
-20.9363
-17.2633
-14.1722
-11.5836
-9.42622
-7.63697
-6.1602
-4.94718
-3.95558
-3.14886
-2.49567
-1.9693
-1.54714
-1.21015
-0.942422
-0.730711
-0.564084
-0.433551
-0.331772
-0.252781
-0.191763
-0.144847
-0.108944
-0.0816009
-0.0608788
-0.045257
-0.0335488
-0.0248354
-0.0184108
-0.013739
-0.0104195
-0.00816072
-0.00676033
-0.00609086
-1267.56
-1260.77
-1247.32
-1227.47
-1201.59
-1170.17
-1133.74
-1092.93
-1048.37
-1000.75
-950.716
-898.932
-846.021
-792.576
-739.142
-686.216
-634.244
-583.616
-534.668
-487.679
-442.878
-400.44
-360.493
-323.121
-288.364
-256.227
-226.682
-199.671
-175.113
-152.906
-132.933
-115.064
-99.1616
-85.0833
-72.684
-61.8197
-52.3486
-44.1341
-37.0452
-30.9583
-25.7579
-21.3368
-17.5969
-14.4486
-11.8114
-9.61312
-7.78954
-6.28413
-5.04737
-4.03619
-3.2134
-2.5471
-2.0101
-1.57935
-1.23546
-0.962217
-0.746124
-0.576028
-0.442766
-0.338848
-0.258191
-0.195879
-0.147966
-0.111297
-0.0833679
-0.0622006
-0.0462421
-0.0342809
-0.0253786
-0.0188144
-0.0140409
-0.010649
-0.00834086
-0.00690983
-0.00622571
-1257.79
-1251.25
-1238.3
-1219.16
-1194.18
-1163.78
-1128.48
-1088.83
-1045.44
-998.94
-949.965
-899.144
-847.085
-794.369
-741.539
-689.094
-637.484
-587.108
-538.311
-491.387
-446.575
-404.064
-363.994
-326.459
-291.51
-259.162
-229.394
-202.155
-177.369
-154.939
-134.752
-116.68
-100.588
-86.3344
-73.7744
-62.7642
-53.1621
-44.8307
-37.6384
-31.4607
-26.1811
-21.6914
-17.8925
-14.6938
-12.0137
-9.77919
-7.92521
-6.39442
-5.13658
-4.10801
-3.27095
-2.59299
-2.04651
-1.60811
-1.25808
-0.979914
-0.759908
-0.586715
-0.451014
-0.345184
-0.263037
-0.199568
-0.150762
-0.113407
-0.084953
-0.0633866
-0.0471262
-0.0349381
-0.0258664
-0.019177
-0.0143122
-0.0108552
-0.00850281
-0.00704428
-0.00634699
-1249.72
-1243.38
-1230.82
-1212.25
-1187.99
-1158.42
-1124.01
-1085.31
-1042.87
-997.299
-949.2
-899.183
-847.843
-795.749
-743.441
-691.417
-640.13
-589.984
-541.335
-494.483
-449.679
-407.121
-366.959
-329.297
-294.195
-261.674
-231.722
-204.292
-179.315
-156.698
-136.329
-118.084
-101.83
-87.4248
-74.7263
-63.5901
-53.8744
-45.4415
-38.1592
-31.9023
-26.5535
-22.0038
-18.1531
-14.9101
-12.1924
-9.92599
-8.04522
-6.49205
-5.21562
-4.17168
-3.32199
-2.63372
-2.07886
-1.63367
-1.27818
-0.995656
-0.772175
-0.59623
-0.45836
-0.350831
-0.267356
-0.202858
-0.153256
-0.115289
-0.0863678
-0.0644456
-0.047916
-0.0355253
-0.0263024
-0.0195011
-0.0145547
-0.0110397
-0.00864771
-0.00716459
-0.00645553
-1243.06
-1236.88
-1224.64
-1206.52
-1182.83
-1153.92
-1120.25
-1082.31
-1040.64
-995.832
-948.456
-899.11
-848.373
-796.807
-744.946
-693.286
-642.284
-592.347
-543.836
-497.059
-452.274
-409.688
-369.459
-331.699
-296.474
-263.814
-233.71
-206.123
-180.987
-158.211
-137.689
-119.297
-102.904
-88.3705
-75.5531
-64.3085
-54.4949
-45.9742
-38.614
-32.2884
-26.8794
-22.2775
-18.3817
-15.1
-12.3494
-10.0551
-8.15087
-6.57806
-5.2853
-4.22785
-3.36705
-2.66969
-2.10744
-1.65627
-1.29597
-1.00959
-0.783038
-0.60466
-0.464872
-0.355837
-0.271188
-0.205777
-0.15547
-0.116961
-0.0876246
-0.0653866
-0.0486179
-0.0360474
-0.0266901
-0.0197895
-0.0147706
-0.011204
-0.00877672
-0.00727173
-0.00655221
-1237.57
-1231.52
-1219.53
-1201.78
-1178.54
-1150.16
-1117.08
-1079.76
-1038.73
-994.536
-947.758
-898.968
-848.735
-797.614
-746.133
-694.788
-644.034
-594.283
-545.899
-499.196
-454.437
-411.837
-371.56
-333.724
-298.403
-265.629
-235.402
-207.685
-182.415
-159.508
-138.856
-120.341
-103.83
-89.1867
-76.2679
-64.9305
-55.0329
-46.4367
-39.0093
-32.6244
-27.1634
-22.5162
-18.5812
-15.266
-12.4867
-10.1681
-8.2434
-6.65345
-5.34642
-4.27715
-3.40663
-2.70131
-2.13257
-1.67616
-1.31163
-1.02186
-0.792609
-0.612091
-0.470614
-0.360254
-0.27457
-0.208355
-0.157426
-0.118438
-0.0887355
-0.0662186
-0.0492387
-0.0365093
-0.0270333
-0.0200447
-0.0149618
-0.0113494
-0.00889103
-0.00736669
-0.00663791
-1233.05
-1227.11
-1215.32
-1197.85
-1174.98
-1147.03
-1114.42
-1077.6
-1037.09
-993.405
-947.118
-898.787
-848.975
-798.227
-747.068
-695.992
-645.453
-595.865
-547.595
-500.962
-456.234
-413.63
-373.319
-335.425
-300.027
-267.163
-236.835
-209.011
-183.631
-160.613
-139.853
-121.234
-104.624
-89.8877
-76.8828
-65.4664
-55.4969
-46.8362
-39.3512
-32.9153
-27.4095
-22.7233
-18.7546
-15.4103
-12.6061
-10.2665
-8.32404
-6.7192
-5.39976
-4.32021
-3.44122
-2.72896
-2.15456
-1.69357
-1.32534
-1.03261
-0.801002
-0.61861
-0.475654
-0.364132
-0.27754
-0.21062
-0.159145
-0.119737
-0.0897127
-0.0669507
-0.0497852
-0.036916
-0.0273355
-0.0202696
-0.0151302
-0.0114777
-0.00899183
-0.00745044
-0.0067135
-1229.34
-1223.48
-1211.85
-1194.61
-1172.03
-1144.43
-1112.2
-1075.79
-1035.69
-992.426
-946.542
-898.591
-849.127
-798.691
-747.803
-696.954
-646.599
-597.154
-548.986
-502.418
-457.721
-415.119
-374.786
-336.848
-301.39
-268.453
-238.043
-210.131
-184.661
-161.552
-140.702
-121.995
-105.302
-90.4871
-77.4092
-65.9258
-55.8954
-47.1797
-39.6455
-33.166
-27.6219
-22.9021
-18.9044
-15.5351
-12.7096
-10.3518
-8.39399
-6.77627
-5.44609
-4.35764
-3.4713
-2.75301
-2.17371
-1.70874
-1.3373
-1.04199
-0.808326
-0.624301
-0.480056
-0.367521
-0.280137
-0.2126
-0.160648
-0.120874
-0.0905681
-0.0675918
-0.0502639
-0.0372723
-0.0276004
-0.0204668
-0.015278
-0.0115902
-0.00908028
-0.00752395
-0.00677986
-1226.3
-1220.5
-1208.99
-1191.94
-1169.6
-1142.27
-1110.35
-1074.27
-1034.51
-991.586
-946.031
-898.392
-849.216
-799.039
-748.378
-697.721
-647.524
-598.201
-550.123
-503.614
-458.948
-416.352
-376.004
-338.034
-302.529
-269.534
-239.058
-211.075
-185.53
-162.345
-141.42
-122.64
-105.878
-90.9971
-77.8579
-66.3179
-56.2359
-47.4735
-39.8975
-33.3809
-27.8041
-23.0558
-19.0332
-15.6426
-12.7987
-10.4253
-8.45435
-6.82556
-5.48613
-4.39001
-3.49733
-2.77385
-2.19031
-1.72189
-1.34767
-1.05013
-0.814685
-0.629245
-0.483881
-0.370467
-0.282395
-0.214324
-0.161957
-0.121863
-0.0913133
-0.0681505
-0.0506812
-0.0375831
-0.0278314
-0.0206389
-0.0154069
-0.0116884
-0.00915754
-0.00758817
-0.00683784
-1223.8
-1218.06
-1206.65
-1189.75
-1167.6
-1140.5
-1108.82
-1073.01
-1033.52
-990.87
-945.584
-898.201
-849.262
-799.3
-748.828
-698.333
-648.268
-599.05
-551.05
-504.593
-459.957
-417.37
-377.013
-339.018
-303.477
-270.436
-239.907
-211.865
-186.26
-163.012
-142.026
-123.185
-106.365
-91.4291
-78.2384
-66.651
-56.5255
-47.7238
-40.1124
-33.5644
-27.9599
-23.1873
-19.1436
-15.7346
-12.8751
-10.4884
-8.5062
-6.86793
-5.52058
-4.41787
-3.51976
-2.79181
-2.20462
-1.73323
-1.35663
-1.05717
-0.82018
-0.633519
-0.48719
-0.373017
-0.284351
-0.215816
-0.163091
-0.122721
-0.0919594
-0.068635
-0.0510432
-0.0378527
-0.028032
-0.0207883
-0.0155189
-0.0117737
-0.00922468
-0.007644
-0.00688826
-1221.77
-1216.06
-1204.74
-1187.96
-1165.95
-1139.03
-1107.56
-1071.95
-1032.69
-990.264
-945.196
-898.023
-849.279
-799.494
-749.179
-698.818
-648.866
-599.737
-551.804
-505.393
-460.784
-418.207
-377.845
-339.833
-304.263
-271.186
-240.614
-212.525
-186.87
-163.572
-142.534
-123.644
-106.775
-91.7933
-78.5598
-66.9325
-56.7706
-47.9358
-40.2948
-33.7202
-28.0923
-23.2991
-19.2375
-15.8131
-12.9404
-10.5424
-8.55051
-6.90417
-5.55006
-4.44173
-3.53897
-2.80721
-2.21689
-1.74298
-1.36432
-1.06321
-0.824905
-0.637197
-0.490038
-0.375212
-0.286035
-0.217102
-0.164069
-0.123461
-0.0925168
-0.0690532
-0.0513557
-0.0380857
-0.0282053
-0.0209174
-0.0156158
-0.0118475
-0.00928276
-0.00769231
-0.00693188
-1220.11
-1214.44
-1203.18
-1186.49
-1164.61
-1137.83
-1106.51
-1071.08
-1032
-989.754
-944.864
-897.861
-849.277
-799.637
-749.451
-699.203
-649.344
-600.29
-552.414
-506.044
-461.459
-418.893
-378.528
-340.504
-304.912
-271.806
-241.2
-213.074
-187.378
-164.038
-142.959
-124.027
-107.118
-92.0991
-78.8299
-67.1695
-56.9772
-48.1148
-40.4488
-33.852
-28.2044
-23.3939
-19.3172
-15.8798
-12.9958
-10.5882
-8.58821
-6.93502
-5.57518
-4.46208
-3.55537
-2.82035
-2.22738
-1.7513
-1.37089
-1.06838
-0.828949
-0.640345
-0.492478
-0.377093
-0.287479
-0.218206
-0.164908
-0.124096
-0.0929954
-0.0694124
-0.0516243
-0.0382858
-0.0283543
-0.0210284
-0.0156991
-0.0119111
-0.00933276
-0.00773391
-0.00696946
-1218.76
-1213.11
-1201.91
-1185.3
-1163.51
-1136.84
-1105.66
-1070.37
-1031.43
-989.327
-944.581
-897.717
-849.263
-799.743
-749.663
-699.507
-649.726
-600.735
-552.908
-506.572
-462.01
-419.453
-379.088
-341.055
-305.447
-272.318
-241.685
-213.528
-187.8
-164.426
-143.312
-124.347
-107.405
-92.3546
-79.0559
-67.3681
-57.1505
-48.265
-40.5783
-33.9629
-28.2988
-23.4738
-19.3845
-15.936
-13.0426
-10.627
-8.62013
-6.96117
-5.59648
-4.47934
-3.56929
-2.83152
-2.23629
-1.75838
-1.37649
-1.07278
-0.832394
-0.643029
-0.494558
-0.378698
-0.288711
-0.219147
-0.165625
-0.124639
-0.0934044
-0.0697195
-0.051854
-0.0384571
-0.0284818
-0.0211235
-0.0157704
-0.0119655
-0.00937561
-0.00776956
-0.00700167
-1217.66
-1212.04
-1200.88
-1184.33
-1162.62
-1136.04
-1104.96
-1069.78
-1030.95
-988.972
-944.343
-897.59
-849.242
-799.819
-749.827
-699.747
-650.03
-601.092
-553.306
-507
-462.456
-419.909
-379.545
-341.505
-305.885
-272.739
-242.084
-213.903
-188.148
-164.747
-143.605
-124.612
-107.644
-92.5672
-79.2442
-67.5337
-57.2952
-48.3906
-40.6866
-34.0558
-28.3779
-23.5409
-19.4409
-15.9833
-13.082
-10.6596
-8.64703
-6.98321
-5.61445
-4.49391
-3.58105
-2.84096
-2.24383
-1.76437
-1.38123
-1.07651
-0.835314
-0.645304
-0.496323
-0.38006
-0.289758
-0.219948
-0.166234
-0.1251
-0.0937523
-0.0699808
-0.0520494
-0.0386029
-0.0285904
-0.0212045
-0.0158312
-0.0120119
-0.00941214
-0.00779997
-0.00702914
-1216.78
-1211.17
-1200.04
-1183.54
-1161.89
-1135.39
-1104.39
-1069.3
-1030.57
-988.678
-944.142
-897.48
-849.218
-799.874
-749.953
-699.935
-650.272
-601.378
-553.625
-507.344
-462.817
-420.279
-379.917
-341.873
-306.243
-273.083
-242.411
-214.21
-188.434
-165.011
-143.847
-124.831
-107.841
-92.7433
-79.4003
-67.6712
-57.4154
-48.4951
-40.7769
-34.1332
-28.444
-23.5969
-19.4882
-16.0229
-13.115
-10.687
-8.66959
-7.00171
-5.62954
-4.50616
-3.59094
-2.8489
-2.25018
-1.76942
-1.38522
-1.07965
-0.837778
-0.647225
-0.497813
-0.381211
-0.290642
-0.220624
-0.166749
-0.12549
-0.0940468
-0.070202
-0.052215
-0.0387265
-0.0286825
-0.0212731
-0.0158828
-0.0120512
-0.00944315
-0.00782579
-0.00705247
-1216.06
-1210.47
-1199.37
-1182.9
-1161.3
-1134.86
-1103.92
-1068.9
-1030.25
-988.436
-943.975
-897.387
-849.193
-799.913
-750.05
-700.083
-650.464
-601.605
-553.881
-507.622
-463.109
-420.578
-380.218
-342.171
-306.534
-273.363
-242.678
-214.462
-188.669
-165.227
-144.045
-125.011
-108.003
-92.8886
-79.5293
-67.7849
-57.515
-48.5817
-40.8517
-34.1975
-28.4989
-23.6435
-19.5275
-16.0559
-13.1425
-10.7098
-8.68842
-7.01717
-5.64216
-4.51641
-3.59921
-2.85555
-2.2555
-1.77365
-1.38857
-1.08229
-0.839847
-0.648839
-0.499066
-0.382179
-0.291386
-0.221193
-0.167182
-0.125819
-0.0942949
-0.0703885
-0.0523546
-0.0388307
-0.0287601
-0.0213311
-0.0159263
-0.0120844
-0.00946934
-0.0078476
-0.00707219
-1215.49
-1209.91
-1198.83
-1182.39
-1160.83
-1134.43
-1103.55
-1068.59
-1029.99
-988.237
-943.837
-897.307
-849.169
-799.941
-750.125
-700.199
-650.615
-601.786
-554.086
-507.844
-463.343
-420.819
-380.461
-342.412
-306.77
-273.591
-242.895
-214.667
-188.86
-165.404
-144.207
-125.159
-108.136
-93.0079
-79.6353
-67.8784
-57.597
-48.6531
-40.9135
-34.2507
-28.5443
-23.682
-19.5601
-16.0833
-13.1654
-10.7287
-8.70407
-7.03002
-5.65266
-4.52494
-3.60611
-2.8611
-2.25994
-1.77718
-1.39137
-1.0845
-0.841576
-0.650188
-0.500114
-0.382989
-0.292009
-0.22167
-0.167545
-0.126095
-0.094503
-0.0705449
-0.0524718
-0.0389181
-0.0288253
-0.0213798
-0.0159629
-0.0121124
-0.00949137
-0.00786595
-0.00708877
-1215.03
-1209.46
-1198.39
-1181.98
-1160.45
-1134.09
-1103.25
-1068.33
-1029.78
-988.075
-943.723
-897.24
-849.147
-799.96
-750.182
-700.29
-650.735
-601.93
-554.249
-508.021
-463.53
-421.013
-380.657
-342.607
-306.96
-273.775
-243.071
-214.833
-189.016
-165.549
-144.34
-125.279
-108.245
-93.1054
-79.7221
-67.9551
-57.6643
-48.7118
-40.9643
-34.2944
-28.5817
-23.7138
-19.5869
-16.1058
-13.1842
-10.7444
-8.71702
-7.04066
-5.66135
-4.53201
-3.61183
-2.8657
-2.26362
-1.78012
-1.39369
-1.08633
-0.843014
-0.651311
-0.500986
-0.383663
-0.292528
-0.222068
-0.167848
-0.126325
-0.0946766
-0.0706755
-0.0525696
-0.0389912
-0.0288798
-0.0214205
-0.0159935
-0.0121357
-0.0095098
-0.0078813
-0.00710266
-1214.66
-1209.1
-1198.04
-1181.65
-1160.14
-1133.81
-1103
-1068.12
-1029.61
-987.943
-943.63
-897.184
-849.127
-799.973
-750.225
-700.36
-650.829
-602.043
-554.378
-508.162
-463.68
-421.167
-380.814
-342.763
-307.114
-273.924
-243.213
-214.967
-189.141
-165.665
-144.447
-125.377
-108.334
-93.1848
-79.7928
-68.0177
-57.7192
-48.7597
-41.0058
-34.3302
-28.6123
-23.7399
-19.609
-16.1244
-13.1997
-10.7573
-8.72768
-7.04942
-5.66852
-4.53784
-3.61655
-2.8695
-2.26667
-1.78254
-1.39562
-1.08785
-0.844205
-0.652241
-0.501709
-0.384223
-0.292959
-0.222398
-0.1681
-0.126516
-0.0948208
-0.070784
-0.0526509
-0.039052
-0.0289252
-0.0214543
-0.016019
-0.0121552
-0.00952515
-0.0078941
-0.00711423
-1214.37
-1208.81
-1197.76
-1181.39
-1159.9
-1133.59
-1102.81
-1067.95
-1029.47
-987.836
-943.553
-897.137
-849.109
-799.982
-750.258
-700.415
-650.902
-602.133
-554.48
-508.274
-463.799
-421.291
-380.939
-342.888
-307.237
-274.043
-243.327
-215.075
-189.243
-165.76
-144.534
-125.456
-108.405
-93.2492
-79.8502
-68.0685
-57.7639
-48.7987
-41.0397
-34.3593
-28.6373
-23.7612
-19.627
-16.1395
-13.2124
-10.7679
-8.73641
-7.05661
-5.67441
-4.54263
-3.62043
-2.87263
-2.26917
-1.78454
-1.3972
-1.0891
-0.845187
-0.653008
-0.502306
-0.384684
-0.293314
-0.22267
-0.168308
-0.126673
-0.0949401
-0.0708737
-0.0527182
-0.0391022
-0.0289627
-0.0214824
-0.0160401
-0.0121713
-0.00953787
-0.00790471
-0.00712382
-1214.14
-1208.58
-1197.54
-1181.18
-1159.7
-1133.41
-1102.65
-1067.82
-1029.36
-987.75
-943.492
-897.099
-849.093
-799.988
-750.283
-700.458
-650.96
-602.203
-554.561
-508.363
-463.894
-421.389
-381.039
-342.988
-307.335
-274.138
-243.419
-215.162
-189.324
-165.835
-144.604
-125.52
-108.463
-93.3012
-79.8966
-68.1096
-57.8001
-48.8304
-41.0672
-34.383
-28.6576
-23.7785
-19.6416
-16.1519
-13.2228
-10.7765
-8.74354
-7.06248
-5.67921
-4.54655
-3.6236
-2.87518
-2.27122
-1.78618
-1.3985
-1.09012
-0.845992
-0.653638
-0.502796
-0.385064
-0.293606
-0.222894
-0.168479
-0.126803
-0.0950382
-0.0709476
-0.0527736
-0.0391437
-0.0289936
-0.0215055
-0.0160575
-0.0121846
-0.00954837
-0.00791346
-0.00713174
-1213.95
-1208.4
-1197.37
-1181.01
-1159.55
-1133.27
-1102.53
-1067.71
-1029.27
-987.682
-943.442
-897.068
-849.08
-799.991
-750.302
-700.491
-651.005
-602.258
-554.624
-508.433
-463.968
-421.467
-381.118
-343.067
-307.413
-274.214
-243.492
-215.231
-189.389
-165.896
-144.66
-125.571
-108.51
-93.3429
-79.934
-68.1427
-57.8292
-48.8559
-41.0893
-34.4022
-28.674
-23.7925
-19.6535
-16.1619
-13.2311
-10.7834
-8.74933