/*--------------------------------*- C++ -*----------------------------------*\
  =========                 |
  \\      /  F ield         | OpenFOAM: The Open Source CFD Toolbox
   \\    /   O peration     | Website:  https://openfoam.org
    \\  /    A nd           | Version:  10
     \\/     M anipulation  |
\*---------------------------------------------------------------------------*/
FoamFile
{
    format      ascii;
    class       volScalarField;
    location    "411";
    object      T;
}
// * * * * * * * * * * * * * * * * * * * * * * * * * * * * * * * * * * * * * //

dimensions      [0 0 0 1 0 0 0];

internalField   nonuniform List<scalar> 
11250
(
249.871
167.641
139.5
127.137
120.413
116.162
113.199
110.994
109.279
107.902
106.769
105.821
105.017
104.329
103.735
103.222
102.775
102.387
102.048
101.753
101.497
101.274
101.081
100.914
100.77
100.647
100.541
100.45
100.374
100.309
100.254
100.208
100.17
100.138
100.112
100.09
100.072
100.057
100.046
100.036
100.028
100.022
100.017
100.013
100.01
100.008
100.006
100.005
100.004
100.003
100.002
100.001
100.001
100.001
100.001
100
100
100
100
100
100
100
100
100
100
100
100
100
100
100
100
100
100
100
100
331.584
248.841
202.726
175.782
158.777
147.214
138.853
132.51
127.519
123.481
120.143
117.34
114.958
112.914
111.15
109.62
108.29
107.131
106.121
105.241
104.475
103.81
103.233
102.734
102.304
101.934
101.618
101.348
101.118
100.924
100.76
100.623
100.508
100.413
100.334
100.269
100.215
100.172
100.136
100.108
100.085
100.066
100.052
100.04
100.031
100.024
100.018
100.014
100.011
100.008
100.006
100.004
100.003
100.002
100.002
100.001
100.001
100.001
100.001
100
100
100
100
100
100
100
100
100
100
100
100
100
100
100
100
359.215
293.424
246.803
214.518
191.733
175.106
162.538
152.729
144.865
138.421
133.048
128.507
124.628
121.289
118.399
115.887
113.699
111.791
110.125
108.673
107.408
106.308
105.354
104.529
103.817
103.205
102.681
102.234
101.854
101.532
101.261
101.033
100.843
100.685
100.554
100.446
100.357
100.285
100.226
100.179
100.141
100.11
100.086
100.067
100.051
100.04
100.03
100.023
100.017
100.013
100.01
100.007
100.005
100.004
100.003
100.002
100.002
100.001
100.001
100.001
100
100
100
100
100
100
100
100
100
100
100
100
100
100
100
371.073
318.856
276.579
243.801
218.59
199.011
183.544
171.093
160.889
152.395
145.23
139.122
133.872
129.33
125.384
121.943
118.939
116.313
114.018
112.015
110.267
108.747
107.427
106.284
105.298
104.45
103.723
103.103
102.575
102.128
101.752
101.436
101.171
100.952
100.77
100.62
100.497
100.396
100.315
100.249
100.196
100.153
100.12
100.093
100.072
100.055
100.042
100.032
100.024
100.018
100.014
100.01
100.008
100.006
100.004
100.003
100.002
100.002
100.001
100.001
100.001
100
100
100
100
100
100
100
100
100
100
100
100
100
100
377.302
334.379
296.901
265.583
239.898
218.901
201.646
187.334
175.339
165.183
156.506
149.036
142.566
136.936
132.021
127.72
123.953
120.653
117.762
115.234
113.027
111.104
109.433
107.985
106.734
105.658
104.735
103.947
103.277
102.709
102.23
101.828
101.492
101.212
100.98
100.789
100.633
100.505
100.401
100.317
100.249
100.195
100.152
100.118
100.091
100.07
100.054
100.041
100.031
100.023
100.018
100.013
100.01
100.007
100.005
100.004
100.003
100.002
100.001
100.001
100.001
100.001
100
100
100
100
100
100
100
100
100
100
100
100
100
381.069
344.495
311.125
281.817
256.624
235.175
216.948
201.419
188.123
176.676
166.768
158.149
150.623
144.032
138.247
133.164
128.696
124.771
121.325
118.306
115.665
113.361
111.356
109.618
108.115
106.821
105.71
104.761
103.954
103.269
102.692
102.207
101.801
101.464
101.184
100.954
100.765
100.61
100.485
100.383
100.302
100.236
100.184
100.143
100.11
100.085
100.065
100.049
100.037
100.028
100.021
100.016
100.012
100.009
100.006
100.005
100.003
100.002
100.002
100.001
100.001
100.001
100
100
100
100
100
100
100
100
100
100
100
100
100
383.564
351.452
321.361
294.036
269.733
248.38
229.728
213.462
199.268
186.855
175.973
166.411
157.991
150.567
144.016
138.234
133.133
128.638
124.681
121.207
118.163
115.502
113.185
111.173
109.432
107.931
106.643
105.541
104.602
103.807
103.135
102.571
102.099
101.706
101.381
101.112
100.892
100.712
100.565
100.447
100.352
100.276
100.215
100.167
100.129
100.099
100.076
100.058
100.044
100.033
100.025
100.018
100.014
100.01
100.007
100.005
100.004
100.003
100.002
100.002
100.001
100.001
100.001
100
100
100
100
100
100
100
100
100
100
100
100
385.316
356.438
328.918
303.352
280.043
259.061
240.323
223.661
208.876
195.763
184.132
173.811
164.65
156.519
149.304
142.907
137.241
132.232
127.813
123.922
120.506
117.517
114.909
112.641
110.677
108.983
107.527
106.281
105.219
104.318
103.558
102.918
102.383
101.937
101.568
101.263
101.013
100.809
100.643
100.508
100.4
100.313
100.244
100.19
100.147
100.113
100.086
100.066
100.05
100.037
100.028
100.021
100.016
100.012
100.009
100.006
100.005
100.003
100.002
100.002
100.001
100.001
100.001
100
100
100
100
100
100
100
100
100
100
100
100
386.596
360.128
334.62
310.545
288.195
267.701
249.074
232.242
217.091
203.486
191.291
180.373
170.607
161.884
154.102
147.171
141.009
135.543
130.707
126.44
122.686
119.395
116.52
114.016
111.846
109.971
108.359
106.978
105.801
104.801
103.957
103.247
102.652
102.157
101.746
101.407
101.128
100.901
100.716
100.566
100.446
100.349
100.273
100.212
100.163
100.126
100.096
100.073
100.055
100.042
100.031
100.023
100.017
100.013
100.009
100.007
100.005
100.004
100.003
100.002
100.001
100.001
100.001
100
100
100
100
100
100
100
100
100
100
100
100
387.558
362.923
339
316.165
294.681
274.703
256.288
239.429
224.071
210.134
197.522
186.14
175.888
166.676
158.415
151.026
144.432
138.565
133.359
128.755
124.697
121.132
118.013
115.294
112.934
110.893
109.136
107.63
106.346
105.254
104.332
103.555
102.905
102.363
101.913
101.542
101.237
100.988
100.785
100.621
100.489
100.383
100.299
100.232
100.179
100.138
100.106
100.08
100.061
100.046
100.034
100.026
100.019
100.014
100.01
100.008
100.006
100.004
100.003
100.002
100.001
100.001
100.001
100.001
100
100
100
100
100
100
100
100
100
100
100
388.297
365.08
342.412
320.599
299.873
280.389
262.232
245.432
229.975
215.82
202.908
191.17
180.533
170.921
162.261
154.483
147.518
141.3
135.77
130.867
126.536
122.726
119.387
116.472
113.939
111.746
109.857
108.236
106.852
105.676
104.681
103.843
103.141
102.556
102.07
101.669
101.339
101.07
100.85
100.673
100.53
100.415
100.324
100.252
100.194
100.149
100.114
100.087
100.066
100.05
100.037
100.028
100.021
100.015
100.011
100.008
100.006
100.004
100.003
100.002
100.002
100.001
100.001
100.001
100
100
100
100
100
100
100
100
100
100
100
388.872
366.767
345.101
324.127
304.05
285.018
267.13
250.435
234.95
220.662
207.537
195.53
184.589
174.654
165.664
157.559
150.276
143.757
137.943
132.778
128.206
124.177
120.641
117.55
114.86
112.53
110.52
108.795
107.32
106.066
105.004
104.11
103.36
102.735
102.216
101.787
101.434
101.146
100.911
100.721
100.568
100.445
100.347
100.27
100.208
100.16
100.123
100.093
100.071
100.053
100.04
100.03
100.022
100.016
100.012
100.009
100.006
100.005
100.003
100.002
100.002
100.001
100.001
100.001
100
100
100
100
100
100
100
100
100
100
100
389.326
368.102
347.239
326.954
307.426
288.796
271.166
254.6
239.131
224.767
211.494
199.288
188.109
177.915
168.654
160.276
152.725
145.947
139.888
134.494
129.711
125.489
121.777
118.529
115.699
113.245
111.126
109.306
107.749
106.424
105.302
104.356
103.562
102.9
102.35
101.896
101.522
101.216
100.967
100.766
100.603
100.473
100.369
100.287
100.222
100.17
100.13
100.099
100.075
100.057
100.043
100.032
100.024
100.018
100.013
100.009
100.007
100.005
100.004
100.003
100.002
100.001
100.001
100.001
100
100
100
100
100
100
100
100
100
100
100
389.687
369.166
348.952
329.231
310.164
291.885
274.494
258.063
242.636
228.235
214.864
202.509
191.147
180.746
171.265
162.66
154.884
147.887
141.617
136.025
131.058
126.666
122.8
119.412
116.457
113.892
111.676
109.77
108.139
106.75
105.573
104.58
103.747
103.051
102.473
101.995
101.602
101.281
101.019
100.807
100.636
100.498
100.389
100.302
100.234
100.18
100.138
100.105
100.079
100.06
100.045
100.034
100.025
100.019
100.014
100.01
100.007
100.005
100.004
100.003
100.002
100.001
100.001
100.001
100
100
100
100
100
100
100
100
100
100
100
389.976
370.02
350.33
331.072
312.392
294.415
277.238
260.939
245.568
231.157
217.721
205.258
193.756
183.19
173.531
164.739
156.775
149.592
143.144
137.381
132.254
127.715
123.713
120.203
117.138
114.475
112.172
110.19
108.493
107.046
105.819
104.784
103.915
103.189
102.586
102.087
101.676
101.34
101.066
100.844
100.665
100.522
100.407
100.316
100.245
100.188
100.144
100.11
100.083
100.063
100.047
100.035
100.026
100.019
100.014
100.01
100.008
100.006
100.004
100.003
100.002
100.001
100.001
100.001
100.001
100
100
100
100
100
100
100
100
100
100
390.209
370.708
351.444
332.566
314.209
296.488
279.501
263.324
248.015
233.611
220.135
207.595
195.985
185.29
175.486
166.543
158.422
151.083
144.483
138.575
133.311
128.643
124.525
120.907
117.746
114.996
112.616
110.566
108.81
107.312
106.041
104.968
104.067
103.314
102.687
102.169
101.743
101.394
101.109
100.878
100.692
100.543
100.424
100.329
100.255
100.196
100.15
100.114
100.087
100.065
100.049
100.037
100.027
100.02
100.015
100.011
100.008
100.006
100.004
100.003
100.002
100.002
100.001
100.001
100.001
100
100
100
100
100
100
100
100
100
100
390.397
371.264
352.347
333.781
315.692
298.188
281.366
265.301
250.054
235.667
222.169
209.573
197.882
187.085
177.166
168.097
159.847
152.379
145.651
139.619
134.238
129.461
125.24
121.53
118.284
115.458
113.011
110.902
109.093
107.55
106.24
105.133
104.203
103.426
102.779
102.244
101.803
101.442
101.148
100.909
100.717
100.562
100.439
100.341
100.264
100.203
100.156
100.119
100.09
100.068
100.051
100.038
100.028
100.021
100.015
100.011
100.008
100.006
100.004
100.003
100.002
100.002
100.001
100.001
100.001
100
100
100
100
100
100
100
100
100
100
390.549
371.715
353.08
334.771
316.903
299.583
282.902
266.937
251.749
237.384
223.875
211.241
199.488
188.613
178.601
169.431
161.075
153.499
146.663
140.527
135.047
130.175
125.867
122.077
118.758
115.866
113.36
111.199
109.344
107.761
106.416
105.28
104.325
103.526
102.861
102.31
101.857
101.485
101.183
100.937
100.739
100.58
100.453
100.352
100.272
100.209
100.16
100.122
100.093
100.07
100.053
100.039
100.029
100.022
100.016
100.012
100.009
100.006
100.004
100.003
100.002
100.002
100.001
100.001
100.001
100
100
100
100
100
100
100
100
100
100
390.673
372.082
353.677
335.577
317.893
300.727
284.166
268.288
253.155
238.815
225.303
212.643
200.844
189.906
179.821
170.569
162.126
154.461
147.536
141.312
135.747
130.796
126.414
122.554
119.172
116.224
113.667
111.46
109.566
107.948
106.573
105.41
104.433
103.614
102.933
102.37
101.905
101.524
101.214
100.962
100.758
100.595
100.465
100.361
100.28
100.215
100.165
100.126
100.095
100.072
100.054
100.04
100.03
100.022
100.016
100.012
100.009
100.006
100.005
100.003
100.002
100.002
100.001
100.001
100.001
100
100
100
100
100
100
100
100
100
100
390.773
372.379
354.162
336.234
318.702
301.664
285.205
269.403
254.319
240.004
226.494
213.816
201.983
190.998
180.854
171.536
163.022
155.283
148.284
141.987
136.352
131.333
126.887
122.969
119.533
116.536
113.935
111.689
109.76
108.111
106.71
105.525
104.527
103.693
102.998
102.422
101.947
101.558
101.241
100.984
100.776
100.609
100.476
100.37
100.286
100.22
100.169
100.129
100.098
100.074
100.055
100.041
100.031
100.023
100.017
100.012
100.009
100.007
100.005
100.003
100.002
100.002
100.001
100.001
100.001
100
100
100
100
100
100
100
100
100
100
390.855
372.621
354.557
336.769
319.362
302.43
286.058
270.321
255.281
240.989
227.485
214.795
202.937
191.914
181.724
172.354
163.782
155.982
148.922
142.565
136.87
131.795
127.295
123.327
119.845
116.806
114.167
111.888
109.929
108.254
106.83
105.625
104.611
103.761
103.054
102.468
101.985
101.588
101.265
101.003
100.791
100.621
100.485
100.377
100.292
100.225
100.172
100.131
100.1
100.075
100.057
100.042
100.031
100.023
100.017
100.013
100.009
100.007
100.005
100.003
100.002
100.002
100.001
100.001
100.001
100
100
100
100
100
100
100
100
100
100
390.921
372.818
354.877
337.205
319.901
303.057
286.757
271.075
256.073
241.803
228.305
215.609
203.732
192.681
182.455
173.041
164.423
156.574
149.464
143.056
137.311
132.189
127.644
123.634
120.114
117.039
114.368
112.06
110.075
108.378
106.934
105.712
104.683
103.821
103.103
102.508
102.017
101.615
101.286
101.02
100.805
100.632
100.494
100.384
100.297
100.229
100.175
100.134
100.101
100.077
100.058
100.043
100.032
100.024
100.017
100.013
100.009
100.007
100.005
100.004
100.003
100.002
100.001
100.001
100.001
100
100
100
100
100
100
100
100
100
100
390.975
372.977
355.138
337.56
320.34
303.569
287.328
271.693
256.724
242.474
228.984
216.284
204.393
193.32
183.065
173.618
164.962
157.073
149.921
143.471
137.686
132.524
127.942
123.896
120.343
117.239
114.54
112.208
110.201
108.485
107.024
105.787
104.746
103.873
103.146
102.543
102.046
101.638
101.305
101.035
100.816
100.641
100.501
100.39
100.302
100.232
100.178
100.136
100.103
100.078
100.058
100.044
100.033
100.024
100.018
100.013
100.009
100.007
100.005
100.004
100.003
100.002
100.001
100.001
100.001
100
100
100
100
100
100
100
100
100
100
391.018
373.106
355.349
337.848
320.697
303.985
287.795
272.198
257.257
243.025
229.542
216.84
204.94
193.85
183.572
174.098
165.412
157.49
150.305
143.821
138.002
132.807
128.194
124.119
120.538
117.409
114.687
112.334
110.309
108.576
107.101
105.852
104.8
103.918
103.183
102.573
102.07
101.658
101.321
101.048
100.827
100.649
100.507
100.395
100.305
100.235
100.18
100.137
100.104
100.079
100.059
100.044
100.033
100.024
100.018
100.013
100.01
100.007
100.005
100.004
100.003
100.002
100.001
100.001
100.001
100
100
100
100
100
100
100
100
100
100
391.053
373.211
355.521
338.081
320.986
304.324
288.174
272.61
257.693
243.476
230
217.298
205.391
194.288
183.993
174.497
165.787
157.839
150.625
144.114
138.267
133.045
128.406
124.307
120.703
117.552
114.812
112.441
110.401
108.654
107.167
105.907
104.846
103.956
103.214
102.599
102.091
101.675
101.335
101.059
100.835
100.656
100.513
100.399
100.309
100.238
100.182
100.139
100.106
100.08
100.06
100.045
100.033
100.025
100.018
100.013
100.01
100.007
100.005
100.004
100.003
100.002
100.001
100.001
100.001
100
100
100
100
100
100
100
100
100
100
391.082
373.295
355.659
338.27
321.22
304.598
288.482
272.945
258.048
243.844
230.375
217.674
205.761
194.649
184.34
174.827
166.097
158.128
150.892
144.358
138.489
133.245
128.584
124.465
120.842
117.674
114.917
112.532
110.478
108.72
107.223
105.954
104.885
103.988
103.241
102.621
102.109
101.689
101.347
101.068
100.843
100.662
100.518
100.403
100.312
100.24
100.184
100.14
100.107
100.08
100.06
100.045
100.034
100.025
100.018
100.013
100.01
100.007
100.005
100.004
100.003
100.002
100.001
100.001
100.001
100
100
100
100
100
100
100
100
100
100
391.105
373.363
355.77
338.422
321.41
304.82
288.732
273.217
258.336
244.144
230.681
217.98
206.064
194.945
184.625
175.099
166.353
158.367
151.114
144.561
138.673
133.411
128.733
124.596
120.958
117.775
115.006
112.608
110.544
108.776
107.27
105.994
104.918
104.016
103.264
102.64
102.125
101.702
101.357
101.076
100.849
100.667
100.522
100.406
100.314
100.242
100.186
100.142
100.107
100.081
100.061
100.046
100.034
100.025
100.019
100.014
100.01
100.007
100.005
100.004
100.003
100.002
100.001
100.001
100.001
100
100
100
100
100
100
100
100
100
100
391.123
373.418
355.86
338.544
321.562
304.999
288.933
273.436
258.57
244.387
230.929
218.23
206.311
195.186
184.858
175.321
166.563
158.564
151.296
144.728
138.825
133.548
128.856
124.706
121.055
117.86
115.079
112.672
110.599
108.823
107.309
106.027
104.946
104.039
103.283
102.655
102.137
101.712
101.365
101.083
100.855
100.672
100.525
100.408
100.316
100.244
100.187
100.142
100.108
100.082
100.061
100.046
100.034
100.025
100.019
100.014
100.01
100.007
100.005
100.004
100.003
100.002
100.001
100.001
100.001
100
100
100
100
100
100
100
100
100
100
391.138
373.462
355.932
338.643
321.685
305.143
289.095
273.613
258.758
244.583
231.13
218.432
206.512
195.383
185.048
175.503
166.735
158.725
151.445
144.866
138.951
133.662
128.958
124.796
121.135
117.93
115.14
112.725
110.644
108.862
107.342
106.055
104.969
104.059
103.299
102.669
102.148
101.721
101.372
101.089
100.859
100.675
100.528
100.411
100.318
100.245
100.188
100.143
100.109
100.082
100.062
100.046
100.034
100.025
100.019
100.014
100.01
100.007
100.005
100.004
100.003
100.002
100.001
100.001
100.001
100
100
100
100
100
100
100
100
100
100
391.149
373.497
355.99
338.722
321.783
305.258
289.226
273.756
258.91
244.741
231.292
218.595
206.674
195.542
185.202
175.651
166.875
158.856
151.567
144.978
139.053
133.755
129.041
124.871
121.201
117.988
115.191
112.769
110.682
108.894
107.37
106.078
104.989
104.075
103.312
102.68
102.157
101.728
101.378
101.093
100.863
100.678
100.53
100.413
100.32
100.246
100.189
100.144
100.109
100.083
100.062
100.046
100.035
100.026
100.019
100.014
100.01
100.007
100.005
100.004
100.003
100.002
100.001
100.001
100.001
100
100
100
100
100
100
100
100
100
100
391.159
373.525
356.036
338.784
321.861
305.35
289.33
273.869
259.031
244.868
231.422
218.727
206.805
195.67
185.327
175.77
166.989
158.962
151.666
145.07
139.137
133.831
129.11
124.932
121.255
118.036
115.233
112.805
110.713
108.92
107.392
106.097
105.005
104.088
103.324
102.689
102.165
101.735
101.383
101.097
100.867
100.681
100.532
100.414
100.321
100.247
100.189
100.145
100.11
100.083
100.062
100.047
100.035
100.026
100.019
100.014
100.01
100.007
100.005
100.004
100.003
100.002
100.001
100.001
100.001
100
100
100
100
100
100
100
100
100
100
391.166
373.547
356.072
338.834
321.923
305.424
289.412
273.96
259.128
244.97
231.526
218.832
206.91
195.773
185.427
175.866
167.08
159.048
151.747
145.144
139.205
133.892
129.165
124.982
121.299
118.075
115.266
112.834
110.738
108.942
107.411
106.113
105.018
104.099
103.333
102.696
102.171
101.74
101.387
101.101
100.869
100.683
100.534
100.416
100.322
100.248
100.19
100.145
100.11
100.083
100.063
100.047
100.035
100.026
100.019
100.014
100.01
100.007
100.005
100.004
100.003
100.002
100.001
100.001
100.001
100
100
100
100
100
100
100
100
100
100
391.172
373.565
356.101
338.874
321.973
305.482
289.478
274.032
259.206
245.05
231.609
218.916
206.994
195.856
185.507
175.944
167.153
159.118
151.811
145.203
139.26
133.942
129.21
125.022
121.335
118.106
115.294
112.858
110.759
108.96
107.426
106.126
105.029
104.108
103.34
102.703
102.176
101.744
101.391
101.103
100.871
100.685
100.535
100.417
100.323
100.249
100.191
100.145
100.11
100.083
100.063
100.047
100.035
100.026
100.019
100.014
100.01
100.007
100.005
100.004
100.003
100.002
100.001
100.001
100.001
100
100
100
100
100
100
100
100
100
100
391.177
373.579
356.124
338.905
322.012
305.528
289.53
274.09
259.267
245.114
231.675
218.983
207.06
195.921
185.571
176.005
167.212
159.173
151.863
145.251
139.304
133.982
129.246
125.054
121.364
118.132
115.316
112.878
110.776
108.974
107.439
106.136
105.037
104.116
103.346
102.708
102.18
101.747
101.393
101.106
100.873
100.686
100.537
100.418
100.323
100.249
100.191
100.146
100.111
100.084
100.063
100.047
100.035
100.026
100.019
100.014
100.01
100.007
100.005
100.004
100.003
100.002
100.001
100.001
100.001
100
100
100
100
100
100
100
100
100
100
391.181
373.59
356.142
338.93
322.043
305.564
289.572
274.135
259.315
245.165
231.728
219.036
207.113
195.974
185.622
176.054
167.259
159.217
151.904
145.29
139.339
134.014
129.275
125.08
121.387
118.152
115.334
112.893
110.789
108.986
107.448
106.145
105.045
104.122
103.351
102.712
102.184
101.75
101.396
101.107
100.875
100.687
100.538
100.418
100.324
100.25
100.191
100.146
100.111
100.084
100.063
100.047
100.035
100.026
100.019
100.014
100.01
100.007
100.005
100.004
100.003
100.002
100.001
100.001
100.001
100
100
100
100
100
100
100
100
100
100
391.183
373.598
356.156
338.949
322.067
305.593
289.604
274.17
259.353
245.205
231.769
219.077
207.155
196.015
185.662
176.093
167.296
159.252
151.937
145.32
139.367
134.04
129.298
125.101
121.405
118.168
115.349
112.906
110.8
108.995
107.456
106.151
105.05
104.126
103.355
102.715
102.186
101.752
101.397
101.109
100.876
100.688
100.538
100.419
100.324
100.25
100.192
100.146
100.111
100.084
100.063
100.047
100.035
100.026
100.019
100.014
100.01
100.007
100.005
100.004
100.003
100.002
100.001
100.001
100.001
100
100
100
100
100
100
100
100
100
100
391.186
373.605
356.167
338.964
322.086
305.615
289.629
274.198
259.383
245.236
231.801
219.11
207.188
196.047
185.694
176.124
167.325
159.28
151.963
145.344
139.389
134.06
129.317
125.118
121.42
118.182
115.36
112.916
110.809
109.003
107.463
106.157
105.055
104.13
103.359
102.718
102.189
101.754
101.399
101.11
100.877
100.689
100.539
100.419
100.325
100.25
100.192
100.146
100.111
100.084
100.063
100.047
100.035
100.026
100.019
100.014
100.01
100.007
100.005
100.004
100.003
100.002
100.001
100.001
100.001
100
100
100
100
100
100
100
100
100
100
391.187
373.61
356.176
338.976
322.1
305.632
289.649
274.22
259.406
245.261
231.826
219.136
207.213
196.073
185.718
176.148
167.348
159.302
151.983
145.363
139.407
134.076
129.331
125.131
121.432
118.192
115.369
112.924
110.816
109.009
107.468
106.161
105.059
104.133
103.361
102.72
102.19
101.755
101.4
101.111
100.878
100.69
100.539
100.42
100.325
100.251
100.192
100.147
100.111
100.084
100.063
100.047
100.035
100.026
100.019
100.014
100.01
100.007
100.005
100.004
100.003
100.002
100.001
100.001
100.001
100
100
100
100
100
100
100
100
100
100
391.189
373.614
356.182
338.985
322.112
305.646
289.664
274.236
259.424
245.28
231.846
219.156
207.233
196.092
185.738
176.166
167.366
159.319
151.999
145.378
139.42
134.089
129.343
125.141
121.441
118.2
115.377
112.93
110.821
109.014
107.472
106.165
105.061
104.136
103.363
102.722
102.192
101.757
101.401
101.112
100.878
100.69
100.54
100.42
100.325
100.251
100.192
100.147
100.111
100.084
100.063
100.047
100.035
100.026
100.019
100.014
100.01
100.007
100.005
100.004
100.003
100.002
100.001
100.001
100.001
100
100
100
100
100
100
100
100
100
100
391.19
373.617
356.187
338.992
322.121
305.656
289.676
274.249
259.438
245.294
231.861
219.171
207.249
196.108
185.753
176.181
167.38
159.332
152.012
145.39
139.431
134.099
129.352
125.149
121.448
118.206
115.382
112.935
110.826
109.017
107.475
106.167
105.064
104.138
103.365
102.723
102.193
101.757
101.402
101.112
100.879
100.691
100.54
100.42
100.326
100.251
100.192
100.147
100.111
100.084
100.063
100.047
100.035
100.026
100.019
100.014
100.01
100.007
100.005
100.004
100.003
100.002
100.001
100.001
100.001
100
100
100
100
100
100
100
100
100
100
391.191
373.62
356.191
338.998
322.127
305.664
289.685
274.259
259.449
245.306
231.873
219.183
207.261
196.12
185.765
176.192
167.391
159.342
152.022
145.399
139.439
134.106
129.359
125.155
121.454
118.211
115.387
112.939
110.829
109.02
107.478
106.169
105.066
104.139
103.366
102.724
102.194
101.758
101.402
101.113
100.879
100.691
100.54
100.42
100.326
100.251
100.192
100.147
100.112
100.084
100.063
100.047
100.035
100.026
100.019
100.014
100.01
100.008
100.005
100.004
100.003
100.002
100.001
100.001
100.001
100
100
100
100
100
100
100
100
100
100
391.191
373.622
356.194
339.002
322.133
305.67
289.692
274.267
259.457
245.314
231.882
219.192
207.27
196.129
185.774
176.201
167.399
159.35
152.029
145.406
139.446
134.112
129.364
125.16
121.458
118.215
115.39
112.942
110.832
109.022
107.48
106.171
105.067
104.14
103.367
102.725
102.194
101.759
101.403
101.113
100.879
100.691
100.54
100.421
100.326
100.251
100.193
100.147
100.112
100.084
100.063
100.047
100.035
100.026
100.019
100.014
100.01
100.008
100.005
100.004
100.003
100.002
100.001
100.001
100.001
100
100
100
100
100
100
100
100
100
100
391.192
373.623
356.197
339.005
322.137
305.675
289.697
274.273
259.463
245.321
231.889
219.199
207.277
196.136
185.78
176.208
167.406
159.356
152.035
145.411
139.451
134.117
129.368
125.164
121.461
118.218
115.393
112.944
110.834
109.024
107.481
106.172
105.068
104.141
103.368
102.725
102.195
101.759
101.403
101.114
100.88
100.691
100.541
100.421
100.326
100.251
100.193
100.147
100.112
100.084
100.063
100.047
100.035
100.026
100.019
100.014
100.01
100.008
100.005
100.004
100.003
100.002
100.001
100.001
100.001
100
100
100
100
100
100
100
100
100
100
391.192
373.624
356.198
339.007
322.14
305.679
289.701
274.277
259.468
245.326
231.894
219.205
207.282
196.141
185.786
176.213
167.411
159.361
152.039
145.415
139.455
134.12
129.371
125.167
121.464
118.221
115.395
112.946
110.835
109.026
107.482
106.173
105.069
104.142
103.368
102.726
102.195
101.76
101.403
101.114
100.88
100.691
100.541
100.421
100.326
100.251
100.193
100.147
100.112
100.084
100.063
100.047
100.035
100.026
100.019
100.014
100.01
100.008
100.005
100.004
100.003
100.002
100.001
100.001
100.001
100
100
100
100
100
100
100
100
100
100
391.192
373.625
356.2
339.009
322.142
305.681
289.704
274.281
259.472
245.33
231.898
219.209
207.287
196.145
185.79
176.217
167.414
159.365
152.043
145.418
139.458
134.123
129.374
125.169
121.466
118.222
115.396
112.947
110.836
109.027
107.483
106.174
105.07
104.143
103.369
102.726
102.196
101.76
101.404
101.114
100.88
100.692
100.541
100.421
100.326
100.251
100.193
100.147
100.112
100.084
100.063
100.047
100.035
100.026
100.019
100.014
100.01
100.008
100.005
100.004
100.003
100.002
100.001
100.001
100.001
100
100
100
100
100
100
100
100
100
100
391.193
373.625
356.201
339.011
322.144
305.683
289.707
274.283
259.475
245.333
231.901
219.212
207.29
196.148
185.793
176.219
167.417
159.367
152.045
145.421
139.46
134.125
129.376
125.171
121.468
118.224
115.398
112.948
110.837
109.027
107.484
106.175
105.07
104.143
103.369
102.727
102.196
101.76
101.404
101.114
100.88
100.692
100.541
100.421
100.326
100.251
100.193
100.147
100.112
100.084
100.063
100.047
100.035
100.026
100.019
100.014
100.01
100.008
100.005
100.004
100.003
100.002
100.001
100.001
100.001
100
100
100
100
100
100
100
100
100
100
391.193
373.626
356.201
339.012
322.145
305.685
289.708
274.285
259.477
245.335
231.903
219.214
207.292
196.151
185.795
176.222
167.419
159.369
152.047
145.423
139.462
134.126
129.377
125.172
121.469
118.225
115.398
112.949
110.838
109.028
107.484
106.175
105.07
104.143
103.369
102.727
102.196
101.76
101.404
101.114
100.88
100.692
100.541
100.421
100.326
100.251
100.193
100.147
100.112
100.084
100.063
100.047
100.035
100.026
100.019
100.014
100.01
100.008
100.005
100.004
100.003
100.002
100.001
100.001
100.001
100
100
100
100
100
100
100
100
100
100
391.193
373.626
356.202
339.012
322.146
305.686
289.71
274.287
259.478
245.337
231.905
219.216
207.294
196.152
185.797
176.223
167.421
159.371
152.048
145.424
139.463
134.128
129.378
125.173
121.47
118.226
115.399
112.95
110.839
109.028
107.485
106.175
105.071
104.144
103.37
102.727
102.196
101.76
101.404
101.114
100.88
100.692
100.541
100.421
100.326
100.251
100.193
100.147
100.112
100.084
100.063
100.047
100.035
100.026
100.019
100.014
100.01
100.008
100.005
100.004
100.003
100.002
100.001
100.001
100.001
100
100
100
100
100
100
100
100
100
100
391.193
373.627
356.202
339.013
322.147
305.687
289.711
274.288
259.479
245.338
231.906
219.217
207.295
196.154
185.798
176.225
167.422
159.372
152.05
145.425
139.464
134.128
129.379
125.174
121.47
118.226
115.4
112.95
110.839
109.029
107.485
106.176
105.071
104.144
103.37
102.727
102.196
101.76
101.404
101.114
100.88
100.692
100.541
100.421
100.326
100.251
100.193
100.147
100.112
100.084
100.063
100.047
100.035
100.026
100.019
100.014
100.01
100.008
100.005
100.004
100.003
100.002
100.001
100.001
100.001
100
100
100
100
100
100
100
100
100
100
391.193
373.627
356.203
339.013
322.147
305.688
289.711
274.289
259.48
245.339
231.907
219.218
207.296
196.155
185.799
176.226
167.423
159.373
152.05
145.426
139.464
134.129
129.38
125.174
121.471
118.227
115.4
112.951
110.839
109.029
107.485
106.176
105.071
104.144
103.37
102.727
102.196
101.76
101.404
101.114
100.88
100.692
100.541
100.421
100.326
100.251
100.193
100.147
100.112
100.084
100.063
100.047
100.035
100.026
100.019
100.014
100.01
100.008
100.005
100.004
100.003
100.002
100.001
100.001
100.001
100
100
100
100
100
100
100
100
100
100
391.193
373.627
356.203
339.014
322.148
305.688
289.712
274.289
259.481
245.339
231.908
219.219
207.297
196.155
185.8
176.226
167.424
159.373
152.051
145.426
139.465
134.13
129.38
125.175
121.471
118.227
115.4
112.951
110.839
109.029
107.485
106.176
105.071
104.144
103.37
102.727
102.197
101.76
101.404
101.114
100.88
100.692
100.541
100.421
100.326
100.251
100.193
100.147
100.112
100.084
100.063
100.047
100.035
100.026
100.019
100.014
100.01
100.008
100.005
100.004
100.003
100.002
100.001
100.001
100.001
100
100
100
100
100
100
100
100
100
100
391.193
373.627
356.203
339.014
322.148
305.688
289.712
274.29
259.481
245.34
231.908
219.219
207.297
196.156
185.8
176.227
167.424
159.374
152.051
145.427
139.465
134.13
129.38
125.175
121.471
118.227
115.401
112.951
110.84
109.029
107.486
106.176
105.071
104.144
103.37
102.727
102.197
101.761
101.404
101.114
100.88
100.692
100.541
100.421
100.326
100.251
100.193
100.147
100.112
100.084
100.063
100.047
100.035
100.026
100.019
100.014
100.01
100.008
100.005
100.004
100.003
100.002
100.001
100.001
100.001
100
100
100
100
100
100
100
100
100
100
391.193
373.627
356.203
339.014
322.148
305.689
289.713
274.29
259.482
245.34
231.908
219.22
207.298
196.156
185.801
176.227
167.424
159.374
152.052
145.427
139.466
134.13
129.381
125.175
121.471
118.227
115.401
112.951
110.84
109.029
107.486
106.176
105.071
104.144
103.37
102.727
102.197
101.761
101.404
101.114
100.88
100.692
100.541
100.421
100.326
100.251
100.193
100.147
100.112
100.084
100.063
100.047
100.035
100.026
100.019
100.014
100.01
100.008
100.005
100.004
100.003
100.002
100.001
100.001
100.001
100
100
100
100
100
100
100
100
100
100
391.193
373.627
356.203
339.014
322.148
305.689
289.713
274.29
259.482
245.34
231.909
219.22
207.298
196.156
185.801
176.227
167.425
159.374
152.052
145.427
139.466
134.13
129.381