/*--------------------------------*- C++ -*----------------------------------*\
  =========                 |
  \\      /  F ield         | OpenFOAM: The Open Source CFD Toolbox
   \\    /   O peration     | Website:  https://openfoam.org
    \\  /    A nd           | Version:  10
     \\/     M anipulation  |
\*---------------------------------------------------------------------------*/
FoamFile
{
    format      ascii;
    class       volScalarField;
    location    "476";
    object      T;
}
// * * * * * * * * * * * * * * * * * * * * * * * * * * * * * * * * * * * * * //

dimensions      [0 0 0 1 0 0 0];

internalField   nonuniform List<scalar> 
11250
(
249.888
167.694
139.587
127.257
120.564
116.342
113.405
111.224
109.529
108.169
107.05
106.112
105.315
104.63
104.037
103.52
103.069
102.672
102.324
102.017
101.748
101.511
101.303
101.12
100.961
100.822
100.7
100.595
100.504
100.425
100.358
100.3
100.25
100.208
100.173
100.143
100.117
100.096
100.078
100.064
100.052
100.042
100.033
100.027
100.021
100.017
100.013
100.011
100.008
100.006
100.005
100.004
100.003
100.002
100.002
100.001
100.001
100.001
100.001
100
100
100
100
100
100
100
100
100
100
100
100
100
100
100
100
331.637
248.999
202.987
176.142
159.229
147.754
139.472
133.2
128.269
124.282
120.985
118.212
115.85
113.816
112.053
110.515
109.169
107.986
106.947
106.032
105.227
104.519
103.897
103.352
102.875
102.458
102.096
101.781
101.508
101.273
101.071
100.897
100.749
100.623
100.517
100.427
100.351
100.288
100.235
100.191
100.155
100.125
100.1
100.08
100.064
100.051
100.04
100.032
100.025
100.019
100.015
100.012
100.009
100.007
100.005
100.004
100.003
100.002
100.002
100.001
100.001
100.001
100.001
100
100
100
100
100
100
100
100
100
100
100
100
359.303
293.686
247.236
215.115
192.485
176.003
163.566
153.874
146.111
139.752
134.446
129.955
126.11
122.788
119.899
117.374
115.159
113.212
111.497
109.987
108.657
107.487
106.458
105.556
104.766
104.076
103.475
102.953
102.501
102.112
101.776
101.489
101.243
101.035
100.858
100.708
100.583
100.478
100.39
100.317
100.257
100.207
100.166
100.133
100.106
100.084
100.067
100.052
100.041
100.032
100.025
100.019
100.015
100.011
100.009
100.007
100.005
100.004
100.003
100.002
100.002
100.001
100.001
100.001
100
100
100
100
100
100
100
100
100
100
100
371.195
319.222
277.182
244.633
219.638
200.26
184.976
172.688
162.625
154.249
147.178
141.14
135.936
131.418
127.473
124.014
120.972
118.293
115.929
113.845
112.007
110.388
108.964
107.714
106.619
105.663
104.829
104.105
103.477
102.936
102.47
102.07
101.729
101.439
101.193
100.985
100.811
100.665
100.543
100.441
100.357
100.288
100.232
100.185
100.148
100.117
100.093
100.073
100.057
100.045
100.035
100.027
100.021
100.016
100.012
100.009
100.007
100.005
100.004
100.003
100.002
100.002
100.001
100.001
100.001
100
100
100
100
100
100
100
100
100
100
377.458
334.846
297.672
266.646
241.237
220.496
203.475
189.371
177.556
167.55
158.994
151.613
145.203
139.603
134.69
130.365
126.55
123.181
120.203
117.572
115.249
113.2
111.396
109.811
108.422
107.207
106.148
105.227
104.429
103.74
103.147
102.639
102.204
101.835
101.521
101.257
101.034
100.848
100.692
100.563
100.456
100.368
100.296
100.237
100.189
100.15
100.118
100.093
100.073
100.057
100.044
100.034
100.027
100.02
100.016
100.012
100.009
100.007
100.005
100.004
100.003
100.002
100.002
100.001
100.001
100.001
100
100
100
100
100
100
100
100
100
381.259
345.061
312.059
283.104
258.246
237.109
219.165
203.888
190.81
179.546
169.783
161.273
153.819
147.264
141.481
136.369
131.844
127.835
124.283
121.139
118.358
115.902
113.736
111.832
110.161
108.698
107.423
106.313
105.351
104.519
103.804
103.19
102.665
102.219
101.84
101.52
101.251
101.026
100.838
100.681
100.552
100.445
100.358
100.286
100.228
100.181
100.143
100.113
100.089
100.069
100.054
100.042
100.032
100.025
100.019
100.014
100.011
100.008
100.006
100.005
100.003
100.003
100.002
100.001
100.001
100.001
100.001
100
100
100
100
100
100
100
100
383.786
352.114
322.454
295.543
271.632
250.643
232.322
216.351
202.412
190.213
179.502
170.066
161.731
154.35
147.802
141.986
136.817
132.223
128.143
124.523
121.314
118.476
115.971
113.764
111.826
110.129
108.646
107.356
106.237
105.27
104.437
103.722
103.11
102.59
102.148
101.775
101.461
101.198
100.978
100.796
100.645
100.52
100.418
100.335
100.267
100.212
100.168
100.132
100.104
100.081
100.063
100.049
100.038
100.029
100.022
100.017
100.013
100.01
100.007
100.005
100.004
100.003
100.002
100.002
100.001
100.001
100.001
100
100
100
100
100
100
100
100
385.569
357.194
330.165
305.071
282.209
261.642
243.282
226.957
212.463
199.594
188.157
177.981
168.917
160.834
153.622
147.186
141.444
136.323
131.762
127.704
124.102
120.909
118.086
115.597
113.409
111.49
109.813
108.352
107.084
105.987
105.042
104.231
103.537
102.945
102.443
102.019
101.663
101.363
101.114
100.906
100.734
100.593
100.476
100.381
100.304
100.241
100.191
100.15
100.118
100.092
100.072
100.056
100.043
100.033
100.025
100.019
100.015
100.011
100.008
100.006
100.005
100.003
100.003
100.002
100.001
100.001
100.001
100.001
100
100
100
100
100
100
100
386.879
360.973
336.015
312.468
290.618
270.589
252.385
235.929
221.104
207.773
195.795
185.039
175.381
166.712
158.933
151.959
145.711
140.12
135.126
130.672
126.709
123.19
120.075
117.324
114.902
112.776
110.917
109.296
107.888
106.669
105.618
104.715
103.943
103.284
102.725
102.253
101.855
101.522
101.243
101.011
100.82
100.662
100.532
100.426
100.34
100.27
100.213
100.168
100.132
100.103
100.08
100.062
100.048
100.037
100.028
100.021
100.016
100.012
100.009
100.007
100.005
100.004
100.003
100.002
100.002
100.001
100.001
100.001
100
100
100
100
100
100
100
387.87
363.854
340.536
318.283
297.351
277.884
259.936
243.491
228.493
214.856
202.484
191.28
181.147
171.995
163.739
156.301
149.613
143.608
138.227
133.418
129.129
125.314
121.93
118.938
116.301
113.983
111.954
110.184
108.645
107.312
106.162
105.173
104.327
103.605
102.993
102.474
102.038
101.672
101.366
101.112
100.901
100.728
100.585
100.468
100.374
100.297
100.235
100.185
100.145
100.113
100.088
100.068
100.053
100.04
100.031
100.024
100.018
100.014
100.01
100.008
100.006
100.004
100.003
100.002
100.002
100.001
100.001
100.001
100
100
100
100
100
100
100
388.636
366.093
344.084
322.904
302.777
283.85
266.201
249.852
234.786
220.958
208.307
196.764
186.255
176.708
168.053
160.223
153.154
146.787
141.066
135.94
131.358
127.276
123.649
120.437
117.602
115.109
112.923
111.014
109.354
107.915
106.672
105.604
104.688
103.908
103.244
102.683
102.21
101.814
101.482
101.207
100.978
100.79
100.635
100.509
100.406
100.322
100.255
100.201
100.158
100.123
100.096
100.074
100.057
100.044
100.034
100.026
100.019
100.015
100.011
100.008
100.006
100.005
100.003
100.003
100.002
100.001
100.001
100.001
100.001
100
100
100
100
100
100
389.238
367.858
346.901
326.609
307.177
288.745
271.403
255.195
240.13
226.194
213.35
201.553
190.75
180.885
171.9
163.739
156.345
149.665
143.646
138.24
133.398
129.076
125.23
121.819
118.805
116.15
113.822
111.786
110.014
108.477
107.148
106.006
105.026
104.191
103.48
102.879
102.372
101.947
101.591
101.296
101.051
100.848
100.682
100.547
100.436
100.346
100.274
100.216
100.169
100.132
100.103
100.08
100.062
100.047
100.036
100.028
100.021
100.016
100.012
100.009
100.007
100.005
100.004
100.003
100.002
100.001
100.001
100.001
100.001
100
100
100
100
100
100
389.716
369.266
349.161
329.603
310.764
292.774
275.727
259.679
244.66
230.671
217.698
205.715
194.685
184.565
175.31
166.872
159.202
152.252
145.975
140.324
135.253
130.717
126.675
123.085
119.909
117.109
114.65
112.499
110.624
108.997
107.59
106.379
105.341
104.454
103.7
103.061
102.523
102.071
101.693
101.379
101.118
100.903
100.727
100.582
100.464
100.369
100.292
100.23
100.181
100.141
100.11
100.085
100.066
100.05
100.039
100.029
100.022
100.017
100.013
100.01
100.007
100.005
100.004
100.003
100.002
100.002
100.001
100.001
100.001
100
100
100
100
100
100
390.1
370.399
350.986
332.037
313.7
296.098
279.325
263.443
248.491
234.489
221.435
209.317
198.112
187.79
178.314
169.646
161.744
154.565
148.065
142.2
136.927
132.204
127.987
124.238
120.917
117.985
115.409
113.152
111.185
109.476
107.997
106.723
105.631
104.697
103.903
103.23
102.663
102.187
101.788
101.456
101.181
100.954
100.768
100.615
100.491
100.39
100.309
100.243
100.191
100.149
100.116
100.09
100.069
100.053
100.041
100.031
100.024
100.018
100.013
100.01
100.008
100.006
100.004
100.003
100.002
100.002
100.001
100.001
100.001
100
100
100
100
100
100
390.411
371.317
352.471
334.024
316.112
298.848
282.321
266.599
251.728
237.737
224.635
212.421
201.084
190.602
180.948
172.09
163.993
156.619
149.928
143.879
138.43
133.542
129.172
125.281
121.83
118.782
116.099
113.749
111.697
109.914
108.37
107.039
105.897
104.921
104.09
103.386
102.792
102.293
101.876
101.528
101.24
101.002
100.806
100.646
100.515
100.41
100.324
100.256
100.201
100.157
100.122
100.095
100.073
100.056
100.043
100.033
100.025
100.019
100.014
100.011
100.008
100.006
100.004
100.003
100.002
100.002
100.001
100.001
100.001
100
100
100
100
100
100
390.664
372.065
353.684
335.655
318.1
301.125
284.818
269.246
254.46
240.494
227.368
215.088
203.651
193.044
183.246
174.232
165.973
158.434
151.58
145.372
139.772
134.739
130.235
126.22
122.654
119.501
116.725
114.289
112.162
110.312
108.71
107.327
106.141
105.126
104.261
103.529
102.91
102.391
101.956
101.594
101.293
101.045
100.841
100.674
100.538
100.428
100.339
100.267
100.209
100.164
100.127
100.099
100.076
100.059
100.045
100.034
100.026
100.02
100.015
100.011
100.008
100.006
100.005
100.003
100.002
100.002
100.001
100.001
100.001
100
100
100
100
100
100
390.87
372.677
354.678
336.995
319.741
303.015
286.899
271.464
256.761
242.83
229.696
217.372
205.86
195.155
185.242
176.101
167.706
160.03
153.037
146.694
140.962
135.805
131.184
127.059
123.393
120.148
117.287
114.777
112.582
110.672
109.017
107.589
106.361
105.312
104.417
103.659
103.018
102.48
102.029
101.654
101.342
101.085
100.873
100.7
100.559
100.444
100.352
100.277
100.218
100.17
100.132
100.103
100.079
100.061
100.047
100.036
100.027
100.02
100.015
100.012
100.009
100.006
100.005
100.003
100.003
100.002
100.001
100.001
100.001
100
100
100
100
100
100
391.04
373.179
355.495
338.101
321.099
304.583
288.635
273.321
258.698
244.806
231.674
219.321
207.754
196.973
186.968
177.723
169.217
161.425
154.316
147.857
142.013
136.749
132.025
127.805
124.051
120.725
117.791
115.214
112.959
110.996
109.294
107.824
106.561
105.48
104.558
103.777
103.116
102.561
102.096
101.708
101.387
101.121
100.903
100.724
100.578
100.459
100.364
100.287
100.225
100.176
100.137
100.106
100.082
100.063
100.048
100.037
100.028
100.021
100.016
100.012
100.009
100.007
100.005
100.004
100.003
100.002
100.001
100.001
100.001
100.001
100
100
100
100
100
391.179
373.592
356.169
339.013
322.222
305.886
290.081
274.876
260.325
246.473
233.35
220.98
209.373
198.533
188.454
179.125
170.528
162.639
155.432
148.876
142.936
137.579
132.768
128.466
124.635
121.238
118.239
115.603
113.296
111.286
109.542
108.036
106.74
105.631
104.685
103.883
103.204
102.634
102.156
101.758
101.427
101.154
100.929
100.745
100.595
100.473
100.375
100.295
100.232
100.181
100.141
100.11
100.085
100.065
100.05
100.038
100.029
100.022
100.016
100.012
100.009
100.007
100.005
100.004
100.003
100.002
100.001
100.001
100.001
100.001
100
100
100
100
100
391.294
373.932
356.724
339.767
323.153
306.968
291.287
276.176
261.691
247.877
234.768
222.388
210.752
199.867
189.73
180.333
171.66
163.692
156.403
149.763
143.743
138.307
133.421
129.047
125.149
121.691
118.636
115.949
113.596
111.544
109.763
108.224
106.9
105.766
104.799
103.978
103.284
102.7
102.21
101.802
101.464
101.184
100.953
100.764
100.61
100.485
100.384
100.303
100.238
100.186
100.145
100.112
100.087
100.067
100.051
100.039
100.03
100.022
100.017
100.013
100.009
100.007
100.005
100.004
100.003
100.002
100.001
100.001
100.001
100.001
100
100
100
100
100
391.388
374.212
357.182
340.39
323.924
307.866
292.291
277.262
262.835
249.057
235.963
223.579
211.923
201.003
190.821
181.369
172.635
164.6
157.242
150.534
144.444
138.942
133.991
129.556
125.601
122.089
118.985
116.253
113.86
111.772
109.959
108.392
107.042
105.886
104.9
104.062
103.354
102.758
102.259
101.842
101.496
101.21
100.975
100.782
100.624
100.497
100.393
100.31
100.244
100.191
100.148
100.115
100.089
100.068
100.052
100.04
100.03
100.023
100.017
100.013
100.01
100.007
100.005
100.004
100.003
100.002
100.002
100.001
100.001
100.001
100
100
100
100
100
391.466
374.444
357.56
340.904
324.562
308.612
293.125
278.167
263.792
250.047
236.969
224.585
212.915
201.969
191.75
182.253
173.469
165.38
157.965
151.199
145.052
139.492
134.486
129.999
125.995
122.438
119.291
116.521
114.092
111.973
110.132
108.539
107.168
105.993
104.99
104.138
103.417
102.81
102.302
101.877
101.525
101.234
100.994
100.797
100.637
100.507
100.401
100.317
100.249
100.194
100.151
100.117
100.091
100.07
100.053
100.041
100.031
100.023
100.018
100.013
100.01
100.007
100.005
100.004
100.003
100.002
100.002
100.001
100.001
100.001
100
100
100
100
100
391.53
374.634
357.872
341.33
325.09
309.229
293.819
278.921
264.591
250.876
237.813
225.432
213.752
202.786
192.538
183.006
174.181
166.048
158.585
151.771
145.575
139.967
134.915
130.384
126.337
122.741
119.558
116.754
114.296
112.149
110.283
108.669
107.279
106.086
105.069
104.204
103.472
102.856
102.34
101.909
101.551
101.255
101.011
100.811
100.648
100.515
100.408
100.322
100.253
100.198
100.154
100.12
100.092
100.071
100.054
100.041
100.032
100.024
100.018
100.013
100.01
100.007
100.006
100.004
100.003
100.002
100.002
100.001
100.001
100.001
100
100
100
100
100
391.583
374.791
358.129
341.681
325.526
309.741
294.394
279.548
265.257
251.568
238.52
226.142
214.456
203.475
193.205
183.645
174.786
166.616
159.115
152.26
146.024
140.376
135.285
130.715
126.634
123.003
119.79
116.957
114.472
112.302
110.415
108.782
107.375
106.168
105.138
104.262
103.521
102.897
102.373
101.936
101.573
101.273
101.026
100.823
100.658
100.523
100.415
100.327
100.257
100.201
100.157
100.121
100.094
100.072
100.055
100.042
100.032
100.024
100.018
100.014
100.01
100.008
100.006
100.004
100.003
100.002
100.002
100.001
100.001
100.001
100
100
100
100
100
391.626
374.92
358.341
341.971
325.887
310.164
294.87
280.068
265.81
252.145
239.11
226.737
215.047
204.054
193.767
184.184
175.299
167.099
159.566
152.677
146.407
140.726
135.601
131
126.888
123.23
119.989
117.133
114.626
112.435
110.53
108.881
107.459
106.24
105.198
104.313
103.563
102.932
102.403
101.961
101.593
101.289
101.039
100.834
100.666
100.53
100.42
100.331
100.26
100.204
100.159
100.123
100.095
100.073
100.056
100.043
100.032
100.025
100.018
100.014
100.01
100.008
100.006
100.004
100.003
100.002
100.002
100.001
100.001
100.001
100
100
100
100
100
391.662
375.027
358.516
342.209
326.184
310.513
295.264
280.498
266.269
252.624
239.602
227.233
215.541
204.54
194.239
184.638
175.731
167.507
159.947
153.031
146.733
141.023
135.872
131.244
127.106
123.424
120.161
117.284
114.757
112.55
110.629
108.966
107.532
106.302
105.251
104.357
103.6
102.963
102.428
101.982
101.61
101.303
101.05
100.843
100.674
100.536
100.425
100.335
100.263
100.206
100.161
100.125
100.096
100.074
100.057
100.043
100.033
100.025
100.019
100.014
100.01
100.008
100.006
100.004
100.003
100.002
100.002
100.001
100.001
100.001
100
100
100
100
100
391.691
375.114
358.659
342.405
326.428
310.801
295.589
280.854
266.649
253.021
240.01
227.646
215.952
204.946
194.634
185.019
176.094
167.85
160.269
153.33
147.009
141.276
136.101
131.451
127.292
123.59
120.308
117.413
114.871
112.648
110.714
109.039
107.595
106.355
105.296
104.395
103.632
102.99
102.45
102
101.626
101.316
101.06
100.851
100.68
100.541
100.429
100.339
100.266
100.208
100.162
100.126
100.097
100.075
100.057
100.044
100.033
100.025
100.019
100.014
100.011
100.008
100.006
100.004
100.003
100.002
100.002
100.001
100.001
100.001
100
100
100
100
100
391.715
375.186
358.776
342.566
326.629
311.037
295.856
281.147
266.962
253.35
240.348
227.988
216.295
205.284
194.964
185.337
176.398
168.138
160.539
153.582
147.241
141.489
136.296
131.627
127.45
123.73
120.433
117.523
114.967
112.732
110.787
109.102
107.649
106.401
105.335
104.428
103.66
103.013
102.469
102.016
101.639
101.326
101.069
100.858
100.686
100.546
100.433
100.341
100.268
100.21
100.164
100.127
100.098
100.075
100.058
100.044
100.033
100.025
100.019
100.014
100.011
100.008
100.006
100.004
100.003
100.002
100.002
100.001
100.001
100.001
100
100
100
100
100
391.735
375.244
358.873
342.698
326.794
311.231
296.076
281.388
267.221
253.62
240.627
228.271
216.578
205.564
195.238
185.602
176.652
168.379
160.766
153.793
147.437
141.669
136.459
131.775
127.584
123.85
120.539
117.617
115.049
112.804
110.849
109.156
107.695
106.44
105.368
104.456
103.683
103.032
102.486
102.029
101.65
101.335
101.077
100.864
100.691
100.55
100.436
100.344
100.27
100.212
100.165
100.128
100.099
100.076
100.058
100.044
100.034
100.026
100.019
100.014
100.011
100.008
100.006
100.004
100.003
100.002
100.002
100.001
100.001
100.001
100
100
100
100
100
391.751
375.292
358.951
342.805
326.928
311.39
296.256
281.586
267.433
253.843
240.857
228.505
216.812
205.796
195.464
185.821
176.863
168.579
160.954
153.97
147.6
141.819
136.596
131.9
127.696
123.95
120.628
117.695
115.118
112.864
110.902
109.201
107.734
106.474
105.396
104.48
103.704
103.049
102.5
102.041
101.659
101.343
101.083
100.869
100.695
100.553
100.439
100.346
100.272
100.213
100.166
100.129
100.099
100.077
100.059
100.045
100.034
100.026
100.019
100.015
100.011
100.008
100.006
100.004
100.003
100.002
100.002
100.001
100.001
100.001
100
100
100
100
100
391.764
375.331
359.015
342.893
327.038
311.52
296.403
281.747
267.606
254.026
241.045
228.697
217.005
205.987
195.652
186.003
177.037
168.745
161.111
154.116
147.736
141.945
136.711
132.004
127.79
124.034
120.703
117.762
115.177
112.915
110.946
109.239
107.767
106.502
105.42
104.5
103.721
103.063
102.512
102.051
101.667
101.35
101.088
100.874
100.699
100.556
100.441
100.348
100.274
100.214
100.167
100.129
100.1
100.077
100.059
100.045
100.034
100.026
100.019
100.015
100.011
100.008
100.006
100.004
100.003
100.002
100.002
100.001
100.001
100.001
100
100
100
100
100
391.774
375.363
359.067
342.964
327.127
311.625
296.523
281.879
267.748
254.175
241.2
228.854
217.163
206.144
195.806
186.153
177.181
168.882
161.241
154.238
147.849
142.049
136.806
132.091
127.868
124.105
120.766
117.817
115.226
112.958
110.983
109.272
107.794
106.525
105.441
104.517
103.735
103.075
102.522
102.059
101.674
101.356
101.093
100.878
100.702
100.559
100.443
100.35
100.275
100.215
100.168
100.13
100.101
100.077
100.059
100.045
100.034
100.026
100.02
100.015
100.011
100.008
100.006
100.004
100.003
100.002
100.002
100.001
100.001
100.001
100
100
100
100
100
391.783
375.388
359.109
343.022
327.2
311.711
296.62
281.986
267.863
254.296
241.326
228.983
217.292
206.272
195.932
186.276
177.3
168.995
161.348
154.338
147.942
142.135
136.885
132.163
127.933
124.163
120.818
117.864
115.266
112.994
111.015
109.299
107.818
106.545
105.458
104.532
103.747
103.086
102.53
102.066
101.68
101.36
101.097
100.881
100.704
100.561
100.444
100.351
100.276
100.216
100.168
100.131
100.101
100.078
100.059
100.045
100.034
100.026
100.02
100.015
100.011
100.008
100.006
100.004
100.003
100.002
100.002
100.001
100.001
100.001
100
100
100
100
100
391.79
375.409
359.143
343.069
327.258
311.78
296.699
282.073
267.957
254.395
241.428
229.087
217.398
206.377
196.035
186.376
177.397
169.088
161.435
154.42
148.019
142.206
136.951
132.222
127.987
124.211
120.861
117.902
115.3
113.024
111.041
109.321
107.837
106.562
105.472
104.544
103.757
103.094
102.537
102.072
101.685
101.364
101.1
100.883
100.706
100.562
100.446
100.352
100.277
100.217
100.169
100.131
100.101
100.078
100.06
100.046
100.035
100.026
100.02
100.015
100.011
100.008
100.006
100.004
100.003
100.002
100.002
100.001
100.001
100.001
100
100
100
100
100
391.796
375.426
359.171
343.107
327.306
311.836
296.763
282.144
268.033
254.475
241.511
229.172
217.483
206.462
196.119
186.458
177.476
169.163
161.507
154.487
148.082
142.264
137.004
132.271
128.031
124.251
120.897
117.934
115.328
113.048
111.062
109.34
107.853
106.576
105.483
104.554
103.766
103.101
102.543
102.077
101.689
101.368
101.103
100.886
100.708
100.564
100.447
100.353
100.277
100.217
100.169
100.131
100.102
100.078
100.06
100.046
100.035
100.026
100.02
100.015
100.011
100.008
100.006
100.004
100.003
100.002
100.002
100.001
100.001
100.001
100
100
100
100
100
391.8
375.439
359.193
343.137
327.344
311.881
296.814
282.2
268.094
254.54
241.578
229.241
217.553
206.531
196.187
186.524
177.54
169.225
161.565
154.542
148.133
142.312
137.048
132.311
128.067
124.284
120.926
117.96
115.351
113.068
111.08
109.355
107.866
106.587
105.493
104.562
103.773
103.107
102.548
102.081
101.692
101.371
101.105
100.888
100.71
100.565
100.448
100.354
100.278
100.218
100.17
100.132
100.102
100.078
100.06
100.046
100.035
100.026
100.02
100.015
100.011
100.008
100.006
100.005
100.003
100.002
100.002
100.001
100.001
100.001
100
100
100
100
100
391.804
375.45
359.211
343.162
327.374
311.918
296.855
282.246
268.143
254.592
241.632
229.296
217.608
206.587
196.242
186.578
177.592
169.275
161.613
154.587
148.175
142.35
137.083
132.343
128.097
124.311
120.95
117.981
115.37
113.085
111.094
109.368
107.877
106.597
105.501
104.569
103.779
103.112
102.552
102.084
101.695
101.373
101.107
100.889
100.711
100.566
100.449
100.354
100.279
100.218
100.17
100.132
100.102
100.078
100.06
100.046
100.035
100.026
100.02
100.015
100.011
100.008
100.006
100.005
100.003
100.002
100.002
100.001
100.001
100.001
100
100
100
100
100
391.807
375.458
359.225
343.181
327.399
311.946
296.888
282.282
268.182
254.633
241.675
229.34
217.653
206.632
196.287
186.621
177.634
169.315
161.651
154.623
148.209
142.382
137.112
132.37
128.121
124.332
120.969
117.998
115.386
113.099
111.106
109.378
107.886
106.604
105.508
104.574
103.783
103.116
102.556
102.087
101.698
101.375
101.109
100.89
100.712
100.567
100.449
100.355
100.279
100.218
100.17
100.132
100.102
100.079
100.06
100.046
100.035
100.026
100.02
100.015
100.011
100.008
100.006
100.005
100.003
100.002
100.002
100.001
100.001
100.001
100
100
100
100
100
391.809
375.465
359.236
343.197
327.418
311.97
296.914
282.312
268.214
254.667
241.71
229.376
217.689
206.668
196.322
186.656
177.667
169.347
161.682
154.652
148.236
142.407
137.136
132.391
128.14
124.35
120.985
118.012
115.398
113.11
111.116
109.386
107.893
106.611
105.513
104.579
103.787
103.119
102.558
102.089
101.699
101.376
101.11
100.891
100.713
100.568
100.45
100.355
100.279
100.219
100.17
100.132
100.102
100.079
100.06
100.046
100.035
100.026
100.02
100.015
100.011
100.008
100.006
100.005
100.003
100.002
100.002
100.001
100.001
100.001
100
100
100
100
100
391.811
375.471
359.245
343.209
327.434
311.988
296.935
282.335
268.239
254.693
241.738
229.404
217.718
206.697
196.351
186.684
177.694
169.373
161.706
154.676
148.258
142.427
137.155
132.408
128.156
124.364
120.998
118.024
115.408
113.119
111.124
109.393
107.899
106.616
105.518
104.583
103.79
103.122
102.561
102.091
101.701
101.378
101.111
100.892
100.713
100.568
100.451
100.356
100.28
100.219
100.171
100.132
100.102
100.079
100.06
100.046
100.035
100.026
100.02
100.015
100.011
100.008
100.006
100.005
100.003
100.002
100.002
100.001
100.001
100.001
100
100
100
100
100
391.812
375.475
359.252
343.219
327.446
312.002
296.952
282.353
268.258
254.714
241.759
229.427
217.741
206.719
196.373
186.706
177.716
169.394
161.726
154.694
148.275
142.444
137.17
132.422
128.169
124.375
121.008
118.033
115.416
113.126
111.13
109.399
107.904
106.62
105.521
104.586
103.793
103.124
102.562
102.093
101.702
101.379
101.112
100.893
100.714
100.569
100.451
100.356
100.28
100.219
100.171
100.133
100.102
100.079
100.06
100.046
100.035
100.027
100.02
100.015
100.011
100.008
100.006
100.005
100.003
100.002
100.002
100.001
100.001
100.001
100
100
100
100
100
391.813
375.478
359.258
343.226
327.456
312.014
296.965
282.368
268.274
254.731
241.777
229.445
217.759
206.737
196.391
186.724
177.733
169.41
161.742
154.709
148.289
142.457
137.182
132.433
128.179
124.385
121.016
118.04
115.423
113.132
111.135
109.403
107.908
106.623
105.524
104.588
103.795
103.126
102.564
102.094
101.703
101.379
101.113
100.893
100.715
100.569
100.451
100.356
100.28
100.219
100.171
100.133
100.103
100.079
100.06
100.046
100.035
100.027
100.02
100.015
100.011
100.008
100.006
100.005
100.003
100.002
100.002
100.001
100.001
100.001
100
100
100
100
100
391.814
375.481
359.262
343.232
327.463
312.023
296.975
282.379
268.286
254.744
241.791
229.459
217.773
206.752
196.405
186.738
177.746
169.423
161.754
154.721
148.3
142.467
137.191
132.442
128.187
124.392
121.023
118.046
115.428
113.136
111.139
109.407
107.911
106.626
105.526
104.59
103.797
103.127
102.565
102.095
101.704
101.38
101.113
100.894
100.715
100.569
100.451
100.356
100.28
100.219
100.171
100.133
100.103
100.079
100.061
100.046
100.035
100.027
100.02
100.015
100.011
100.008
100.006
100.005
100.003
100.002
100.002
100.001
100.001
100.001
100
100
100
100
100
391.815
375.483
359.266
343.237
327.469
312.03
296.983
282.388
268.296
254.754
241.801
229.47
217.784
206.763
196.416
186.749
177.757
169.433
161.764
154.73
148.309
142.475
137.199
132.449
128.193
124.398
121.028
118.051
115.432
113.14
111.142
109.409
107.913
106.628
105.528
104.592
103.798
103.128
102.566
102.096
101.705
101.381
101.114
100.894
100.715
100.57
100.452
100.357
100.28
100.219
100.171
100.133
100.103
100.079
100.061
100.046
100.035
100.027
100.02
100.015
100.011
100.008
100.006
100.005
100.003
100.002
100.002
100.001
100.001
100.001
100
100
100
100
100
391.816
375.485
359.269
343.241
327.474
312.036
296.99
282.395
268.304
254.762
241.81
229.478
217.793
206.772
196.425
186.757
177.765
169.441
161.772
154.737
148.316
142.481
137.205
132.454
128.198
124.402
121.032
118.055
115.436
113.143
111.145
109.412
107.915
106.629
105.529
104.593
103.799
103.129
102.567
102.096
101.705
101.381
101.114
100.895
100.715
100.57
100.452
100.357
100.28
100.22
100.171
100.133
100.103
100.079
100.061
100.046
100.035
100.027
100.02
100.015
100.011
100.008
100.006
100.005
100.003
100.002
100.002
100.001
100.001
100.001
100
100
100
100
100
391.816
375.486
359.271
343.244
327.478
312.04
296.995
282.4
268.31
254.768
241.816
229.485
217.8
206.779
196.432
186.764
177.772
169.448
161.778
154.743
148.321
142.487
137.209
132.459
128.202
124.406
121.035
118.057
115.438
113.145
111.147
109.413
107.917
106.631
105.531
104.594
103.8
103.13
102.567
102.097
101.706
101.381
101.114
100.895
100.716
100.57
100.452
100.357
100.281
100.22
100.171
100.133
100.103
100.079
100.061
100.046
100.035
100.027
100.02
100.015
100.011
100.008
100.006
100.005
100.003
100.002
100.002
100.001
100.001
100.001
100
100
100
100
100
391.816
375.487
359.272
343.246
327.48
312.043
296.999
282.405
268.314
254.773
241.821
229.49
217.805
206.784
196.437
186.769
177.777
169.453
161.782
154.748
148.326
142.49
137.213
132.462
128.205
124.409
121.038
118.06
115.44
113.147
111.148
109.415
107.918
106.632
105.532
104.595
103.8
103.13
102.568
102.097
101.706
101.382
101.114
100.895
100.716
100.57
100.452
100.357
100.281
100.22
100.171
100.133
100.103
100.079
100.061
100.046
100.035
100.027
100.02
100.015
100.011
100.008
100.006
100.005
100.003
100.002
100.002
100.001
100.001
100.001
100
100
100
100
100
391.817
375.488
359.274
343.248
327.482
312.046
297.001
282.408
268.318
254.777
241.825
229.494
217.809
206.788
196.441
186.773
177.781
169.457
161.786
154.751
148.329
142.494
137.216
132.465
128.208
124.411
121.04
118.061
115.442
113.148
111.15
109.416
107.919
106.633
105.532
104.595
103.801
103.131
102.568
102.098
101.706
101.382
101.115
100.895
100.716
100.57
100.452
100.357
100.281
100.22
100.171
100.133
100.103
100.079
100.061
100.046
100.035
100.027
100.02
100.015
100.011
100.008
100.006
100.005
100.003
100.002
100.002
100.001
100.001
100.001
100
100
100
100
100
391.817
375.488
359.274
343.249
327.484
312.048
297.004
282.41
268.32
254.78
241.828
229.497
217.813
206.791
196.445
186.776
177.784
169.46
161.789
154.754
148.331
142.496
137.218
132.467
128.21
124.412
121.042
118.063
115.443
113.149
111.151
109.417
107.92
106.633
105.533
104.596
103.801
103.131
102.568
102.098
101.706
101.382
101.115
100.895
100.716
100.57
100.452
100.357
100.281
100.22
100.171
100.133
100.103
100.079
100.061
100.046
100.035
100.027
100.02
100.015
100.011
100.008
100.006
100.005
100.003
100.002
100.002
100.001
100.001
100.001
100
100
100
100
100
391.817
375.489
359.275
343.25
327.485
312.049
297.005
282.412
268.323
254.782
241.831
229.5
217.815
206.794
196.447
186.779
177.786
169.462
161.791
154.756
148.333
142.498
137.22
132.468
128.211
124.414
121.043
118.064
115.444
113.15
111.151
109.417
107.92
106.634
105.533
104.596
103.802
103.131
102.569
102.098
101.707
101.382
101.115
100.895
100.716
100.57
100.452
100.357
100.281
100.22
100.171
100.133
100.103
100.079
100.061
100.046
100.035
100.027
100.02
100.015
100.011
100.008
100.006
100.005
100.003
100.002
100.002
100.001
100.001
100.001
100
100
100
100
100
391.817
375.489
359.276
343.251
327.486
312.05
297.007
282.414
268.324
254.784
241.832
229.502
217.817
206.796
196.449
186.781
177.788
169.464
161.793
154.757
148.335
142.499
137.221
132.47
128.212
124.415
121.044
118.065
115.445
113.151
111.152
109.418
107.921
106.634
105.534
104.596
103.802
103.132
102.569
102.098
101.707
101.382
101.115
100.895
100.716
100.57
100.452
100.357
100.281
100.22
100.171
100.133
100.103
100.079
100.061
100.046
100.035
100.027
100.02
100.015
100.011
100.008
100.006
100.005
100.003
100.002
100.002
100.001
100.001
100.001
100
100
100
100
100
391.817
375.49
359.276
343.252
327.487
312.051
297.008
282.415
268.325
254.785
241.834
229.503
217.818
206.797
196.45
186.782
177.79
169.465
161.794
154.759
148.336
142.5
137.222
132.471
128.213
124.416
121.044
118.065
115.445
113.151
111.152
109.418
107.921
106.635
105.534
104.597
103.802
103.132
102.569
102.098
101.707