/*--------------------------------*- C++ -*----------------------------------*\
  =========                 |
  \\      /  F ield         | OpenFOAM: The Open Source CFD Toolbox
   \\    /   O peration     | Website:  https://openfoam.org
    \\  /    A nd           | Version:  10
     \\/     M anipulation  |
\*---------------------------------------------------------------------------*/
FoamFile
{
    format      ascii;
    class       volScalarField;
    location    "320";
    object      gradTz;
}
// * * * * * * * * * * * * * * * * * * * * * * * * * * * * * * * * * * * * * //

dimensions      [0 -1 0 1 0 0 0];

internalField   nonuniform List<scalar> 
11250
(
-14348.8
-4144.32
-1524.11
-720.659
-416.084
-274.611
-197.38
-150.003
-118.406
-95.9815
-79.2836
-66.3679
-56.0699
-47.6592
-40.6594
-34.7498
-29.7078
-25.3746
-21.633
-18.3943
-15.5893
-13.1617
-11.0652
-9.25997
-7.71139
-6.38883
-5.26483
-4.31465
-3.51593
-2.84849
-2.29415
-1.83663
-1.46145
-1.15578
-0.908403
-0.709527
-0.55072
-0.424765
-0.325546
-0.24792
-0.187602
-0.141054
-0.105377
-0.0782203
-0.05769
-0.0422755
-0.0307809
-0.0222678
-0.0160059
-0.011431
-0.00811139
-0.0057189
-0.00400625
-0.00278852
-0.0019285
-0.00132519
-0.000904801
-0.000613824
-0.000413764
-0.000277128
-0.000184429
-0.000121956
-8.01301e-05
-5.23135e-05
-3.39359e-05
-2.18745e-05
-1.40111e-05
-8.919e-06
-5.64453e-06
-3.55499e-06
-2.23421e-06
-1.41137e-06
-9.12985e-07
-6.31473e-07
-5.04846e-07
-8250.52
-4848.34
-2755.25
-1662.8
-1084.88
-759.345
-562.075
-434.058
-345.912
-282.124
-234.014
-196.468
-166.34
-141.616
-120.965
-103.482
-88.5346
-75.6665
-64.5408
-54.9006
-46.544
-39.3073
-33.0539
-27.6668
-23.044
-19.0946
-15.7373
-12.8985
-10.5118
-8.51704
-6.86007
-5.49236
-4.37066
-3.45672
-2.71699
-2.12226
-1.64732
-1.27061
-0.973846
-0.741656
-0.56123
-0.421987
-0.315262
-0.23402
-0.172601
-0.126485
-0.092096
-0.0666262
-0.0478909
-0.034203
-0.0242706
-0.0171121
-0.0119877
-0.00834402
-0.00577067
-0.00396543
-0.0027075
-0.0018368
-0.00123816
-0.000829293
-0.0005519
-0.000364952
-0.000239791
-0.00015655
-0.000101555
-6.54613e-05
-4.19296e-05
-2.66912e-05
-1.68921e-05
-1.06389e-05
-6.68629e-06
-4.22373e-06
-2.73229e-06
-1.88989e-06
-1.5109e-06
-5553.39
-4242.26
-2984.78
-2089.5
-1500.45
-1115.08
-856.886
-677.723
-548.661
-452.308
-378.014
-319.1
-271.259
-231.646
-198.332
-169.98
-145.64
-124.618
-106.397
-90.5759
-76.8393
-64.9278
-54.6236
-45.7392
-38.1095
-31.5873
-26.04
-21.3475
-17.4008
-14.1012
-11.3596
-9.09601
-7.23921
-5.72606
-4.50113
-3.51617
-2.72951
-2.10548
-1.61383
-1.22913
-0.930163
-0.699422
-0.522555
-0.387913
-0.286116
-0.209679
-0.152676
-0.110456
-0.079398
-0.0567066
-0.0402404
-0.0283724
-0.0198764
-0.0138352
-0.00956856
-0.00657535
-0.00448958
-0.00304585
-0.00205318
-0.0013752
-0.000915222
-0.000605212
-0.000397659
-0.00025962
-0.000168419
-0.000108562
-6.95378e-05
-4.42663e-05
-2.80152e-05
-1.76446e-05
-1.10894e-05
-7.00524e-06
-4.53169e-06
-3.13453e-06
-2.50603e-06
-4165.69
-3580.85
-2850.5
-2208.47
-1710.95
-1342.44
-1071.62
-870.428
-718.038
-599.964
-506.365
-430.572
-368.037
-315.62
-271.119
-232.966
-200.021
-171.438
-146.571
-124.918
-106.073
-89.7009
-75.5159
-63.2696
-52.7416
-43.7339
-36.0668
-29.577
-24.1157
-19.5477
-15.7506
-12.6146
-10.0413
-7.94374
-6.2453
-4.87931
-3.78812
-2.92238
-2.2402
-1.70634
-1.29141
-0.971128
-0.725604
-0.538678
-0.397341
-0.291206
-0.21205
-0.153418
-0.110285
-0.0787698
-0.0558992
-0.0394144
-0.0276129
-0.019221
-0.0132938
-0.00913552
-0.0062378
-0.004232
-0.00285283
-0.00191084
-0.00127173
-0.000840978
-0.000552582
-0.000360772
-0.000234043
-0.000150866
-9.66362e-05
-6.15177e-05
-3.89338e-05
-2.45219e-05
-1.54119e-05
-9.736e-06
-6.29835e-06
-4.35659e-06
-3.48309e-06
-3360.44
-3062.6
-2625.67
-2180.86
-1790.51
-1470.43
-1215.25
-1013.14
-852.178
-722.499
-616.53
-528.666
-454.819
-392.017
-338.09
-291.438
-250.868
-215.468
-184.532
-157.496
-133.896
-113.344
-95.5015
-80.0729
-66.791
-55.414
-45.721
-37.5097
-30.5949
-24.8076
-19.9946
-16.0177
-12.7532
-10.0912
-7.9351
-6.20056
-4.81463
-3.71481
-2.84801
-2.16956
-1.64216
-1.23501
-0.922858
-0.685175
-0.50544
-0.370457
-0.269777
-0.195196
-0.140326
-0.100231
-0.0711329
-0.0501581
-0.0351412
-0.0244624
-0.0169196
-0.0116276
-0.00793972
-0.00538683
-0.00363143
-0.00243243
-0.00161891
-0.00107059
-0.000703475
-0.000459299
-0.000297967
-0.000192077
-0.000123037
-7.83256e-05
-4.95725e-05
-3.12232e-05
-1.9624e-05
-1.23972e-05
-8.0201e-06
-5.54769e-06
-4.43546e-06
-2850.01
-2680.48
-2405.88
-2096.12
-1797.36
-1531.35
-1303.98
-1113.17
-953.86
-820.499
-708.108
-612.59
-530.71
-459.971
-398.461
-344.714
-297.595
-256.217
-219.867
-187.966
-160.024
-135.622
-114.389
-95.992
-80.1296
-66.5239
-54.9188
-45.0781
-36.7843
-29.8379
-24.0573
-19.2783
-15.3535
-12.1518
-9.55759
-7.46991
-5.80134
-4.47689
-3.4328
-2.61541
-1.97989
-1.48919
-1.11291
-0.826364
-0.60965
-0.446876
-0.325454
-0.235499
-0.169311
-0.120943
-0.0858373
-0.0605302
-0.0424103
-0.0295241
-0.0204215
-0.0140349
-0.0095839
-0.00650262
-0.0043838
-0.00293649
-0.00195446
-0.00129254
-0.00084934
-0.000554552
-0.000359773
-0.000231925
-0.000148566
-9.45802e-05
-5.98617e-05
-3.77048e-05
-2.36985e-05
-1.49716e-05
-9.68583e-06
-6.70009e-06
-5.35697e-06
-2505.43
-2399.83
-2217.82
-1997.14
-1768.51
-1551.03
-1353.91
-1179.87
-1028.17
-896.529
-782.232
-682.69
-595.645
-519.218
-451.888
-392.429
-339.855
-293.365
-252.295
-216.084
-184.248
-156.358
-132.028
-110.903
-92.6547
-76.979
-63.5911
-52.2262
-42.6386
-34.6021
-27.9096
-22.3733
-17.8241
-14.1113
-11.1016
-8.67874
-6.7416
-5.2035
-3.99068
-3.04094
-2.30237
-1.73199
-1.29453
-0.961333
-0.709301
-0.519974
-0.378727
-0.274071
-0.197059
-0.140775
-0.0999199
-0.0704657
-0.0493748
-0.0343745
-0.0237778
-0.0163424
-0.0111602
-0.0075725
-0.00510529
-0.00341994
-0.00227632
-0.00150546
-0.000989287
-0.00064595
-0.000419083
-0.000270168
-0.000173069
-0.000110183
-6.97393e-05
-4.39278e-05
-2.76106e-05
-1.74437e-05
-1.12856e-05
-7.80696e-06
-6.24211e-06
-2262.18
-2191.41
-2064.42
-1902.36
-1725.09
-1547.32
-1378.13
-1222.09
-1080.77
-954.049
-840.922
-740.08
-650.178
-569.979
-498.396
-434.504
-377.515
-326.759
-281.658
-241.701
-206.432
-175.432
-148.315
-124.715
-104.29
-86.7157
-71.6851
-58.9103
-48.1222
-39.0714
-31.5284
-25.2842
-20.1502
-15.9579
-12.5581
-9.81991
-7.62989
-5.89041
-4.51839
-3.4437
-2.60775
-1.96201
-1.46667
-1.08931
-0.803828
-0.589337
-0.429293
-0.310696
-0.223413
-0.159616
-0.113302
-0.0799092
-0.0559958
-0.0389866
-0.0269699
-0.0185375
-0.0126599
-0.00859056
-0.00579196
-0.00388011
-0.00258273
-0.00170818
-0.00112255
-0.000732994
-0.000475575
-0.000306598
-0.000196413
-0.00012505
-7.91516e-05
-4.98582e-05
-3.13393e-05
-1.98002e-05
-1.28106e-05
-8.86231e-06
-7.08609e-06
-2084.84
-2034.45
-1941.55
-1818.51
-1678.25
-1531.57
-1386.24
-1247.14
-1116.9
-996.651
-886.556
-786.284
-695.256
-612.813
-538.297
-471.09
-410.626
-356.392
-307.916
-264.759
-226.511
-192.779
-163.188
-137.374
-114.987
-95.6913
-79.1642
-65.0998
-53.2096
-43.2247
-34.8963
-27.997
-22.3207
-17.6829
-13.9199
-10.8879
-8.4619
-6.5343
-5.01338
-3.82172
-2.89454
-2.17816
-1.6285
-1.20968
-0.892773
-0.654631
-0.476912
-0.345197
-0.248247
-0.177375
-0.12592
-0.0888156
-0.0622418
-0.0433386
-0.0299826
-0.0206096
-0.0140759
-0.00955197
-0.00644053
-0.00431483
-0.00287224
-0.00189975
-0.0012485
-0.000815273
-0.000528981
-0.000341043
-0.000218488
-0.00013911
-8.80545e-05
-5.54683e-05
-3.4867e-05
-2.20299e-05
-1.42539e-05
-9.86116e-06
-7.88499e-06
-1952.49
-1914.71
-1843.73
-1747.14
-1633.5
-1510.63
-1384.83
-1260.61
-1140.96
-1027.62
-921.509
-822.971
-732.025
-648.492
-572.095
-502.507
-439.385
-382.376
-331.125
-285.28
-244.485
-208.386
-176.627
-148.856
-124.722
-103.884
-86.0083
-70.7767
-57.8853
-47.0488
-38.0024
-30.5025
-24.328
-19.2802
-15.1823
-11.8789
-9.23462
-7.13278
-5.47383
-4.17361
-3.16168
-2.37962
-1.77942
-1.32199
-0.9758
-0.715607
-0.521399
-0.377442
-0.271466
-0.193985
-0.137724
-0.0971506
-0.0680888
-0.0474136
-0.0328043
-0.0225508
-0.0154027
-0.010453
-0.00704849
-0.00472241
-0.00314373
-0.00207942
-0.00136665
-0.000892469
-0.000579096
-0.000373369
-0.000239209
-0.000152308
-9.64132e-05
-6.07363e-05
-3.818e-05
-2.41242e-05
-1.56096e-05
-1.07996e-05
-8.63569e-06
-1851.98
-1822.36
-1765.95
-1687.63
-1593.2
-1488.4
-1378.19
-1266.56
-1156.4
-1049.76
-947.943
-851.769
-761.68
-677.879
-600.404
-529.188
-464.088
-404.91
-351.419
-303.349
-260.407
-222.283
-188.649
-159.167
-133.495
-111.289
-92.2122
-75.9352
-62.1431
-50.538
-40.8413
-32.7962
-26.1682
-20.7464
-16.3425
-12.7906
-9.94623
-7.68444
-5.89861
-4.49849
-3.40849
-2.56586
-1.91902
-1.42594
-1.05269
-0.772101
-0.562636
-0.407343
-0.293005
-0.209399
-0.148683
-0.104891
-0.0735201
-0.0512
-0.0354269
-0.0243554
-0.0166365
-0.0112911
-0.00761411
-0.00510168
-0.00339641
-0.00224668
-0.00147666
-0.000964355
-0.000625771
-0.000403482
-0.000258513
-0.000164607
-0.000104203
-6.56465e-05
-4.12685e-05
-2.60768e-05
-1.68739e-05
-1.16748e-05
-9.33592e-06
-1774.68
-1750.53
-1704.07
-1638.58
-1558.14
-1466.99
-1369.08
-1267.8
-1165.85
-1065.31
-967.72
-874.159
-785.375
-701.852
-623.885
-551.621
-485.096
-424.259
-368.987
-319.1
-274.372
-234.537
-199.299
-168.339
-141.327
-117.922
-97.784
-80.5798
-65.9856
-53.6933
-43.4134
-34.8777
-27.8408
-22.0808
-17.3997
-13.6224
-10.5961
-8.18874
-6.28726
-4.79598
-3.63466
-2.73665
-2.04713
-1.52139
-1.12332
-0.82403
-0.600559
-0.434854
-0.312831
-0.223593
-0.158778
-0.112024
-0.0785269
-0.0546916
-0.0378459
-0.0260205
-0.0177752
-0.0120648
-0.00813637
-0.00545195
-0.00362982
-0.00240122
-0.00157832
-0.0010308
-0.000668921
-0.000431325
-0.000276365
-0.000175983
-0.000111409
-7.01895e-05
-4.41265e-05
-2.78841e-05
-1.80442e-05
-1.24852e-05
-9.98425e-06
-1714.66
-1694.28
-1654.77
-1598.45
-1528.26
-1447.45
-1359.16
-1266.26
-1171.22
-1076.05
-982.374
-891.427
-804.155
-721.248
-643.195
-570.316
-502.799
-440.718
-384.053
-332.704
-286.507
-245.242
-208.646
-176.423
-148.254
-123.808
-102.743
-84.7248
-69.4228
-56.5217
-45.7234
-36.7504
-29.3479
-23.285
-18.355
-14.3749
-11.1848
-8.64598
-6.63998
-5.0662
-3.84026
-2.89203
-2.16375
-1.60833
-1.18771
-0.87139
-0.635163
-0.45997
-0.33094
-0.236563
-0.168006
-0.118546
-0.0831071
-0.0578867
-0.0400602
-0.0275452
-0.0188182
-0.0127736
-0.00861497
-0.00577302
-0.00384382
-0.00254294
-0.00167156
-0.00109176
-0.000708516
-0.000456879
-0.000292753
-0.000186427
-0.000118027
-7.4362e-05
-4.67519e-05
-2.95445e-05
-1.91197e-05
-1.323e-05
-1.05802e-05
-1667.74
-1650.01
-1615.46
-1565.77
-1503.17
-1430.19
-1349.39
-1263.22
-1173.89
-1083.33
-993.138
-904.655
-818.94
-736.829
-658.953
-585.772
-517.594
-454.601
-396.862
-344.351
-296.958
-254.511
-216.777
-183.484
-154.329
-128.986
-107.119
-88.3918
-72.471
-59.0356
-47.7806
-38.4212
-30.6948
-24.3628
-19.2112
-15.0502
-11.7136
-9.05718
-6.95749
-5.30967
-4.02567
-3.03225
-2.26908
-1.68691
-1.24594
-0.914246
-0.666493
-0.482722
-0.347352
-0.248323
-0.176377
-0.124466
-0.0872651
-0.0607884
-0.0420719
-0.0289307
-0.0197663
-0.0134181
-0.00905029
-0.00606513
-0.00403857
-0.00267193
-0.00175646
-0.00114727
-0.000744579
-0.000480159
-0.000307685
-0.000195945
-0.000124059
-7.8166e-05
-4.91457e-05
-3.10587e-05
-2.01006e-05
-1.39095e-05
-1.11241e-05
-1630.89
-1615.06
-1584.09
-1539.26
-1482.32
-1415.29
-1340.31
-1259.5
-1174.84
-1088.14
-1000.98
-914.726
-830.512
-749.267
-671.728
-598.458
-529.866
-466.22
-407.665
-354.239
-305.885
-262.468
-223.79
-189.6
-159.609
-133.502
-110.947
-91.6086
-75.1515
-61.2511
-49.5974
-39.8994
-31.8884
-25.3194
-19.9722
-15.6512
-12.1848
-9.42402
-7.24104
-5.52731
-4.19156
-3.15781
-2.36346
-1.75738
-1.29819
-0.952727
-0.694642
-0.503174
-0.362112
-0.258905
-0.183913
-0.129796
-0.0910114
-0.0634037
-0.0438858
-0.0301804
-0.0206217
-0.0139998
-0.00944328
-0.00632891
-0.00421447
-0.00278848
-0.00183317
-0.00119744
-0.000777184
-0.00050121
-0.000321191
-0.000204556
-0.000129516
-8.16084e-05
-5.13125e-05
-3.24296e-05
-2.09889e-05
-1.45249e-05
-1.16167e-05
-1601.84
-1587.4
-1559.05
-1517.82
-1465.12
-1402.63
-1332.17
-1255.59
-1174.71
-1091.22
-1006.64
-922.354
-839.522
-759.14
-682.02
-608.802
-539.973
-475.872
-416.706
-362.568
-313.448
-269.245
-229.791
-194.854
-164.162
-137.409
-114.269
-94.4072
-77.4893
-63.1878
-51.1887
-41.1966
-32.9376
-26.1616
-20.6432
-16.1818
-12.6014
-9.74867
-7.49226
-5.72032
-4.3388
-3.26936
-2.44738
-1.82008
-1.34471
-0.987012
-0.719736
-0.521417
-0.375286
-0.268354
-0.190645
-0.134561
-0.0943611
-0.0657432
-0.0455089
-0.0312991
-0.0213877
-0.0145209
-0.00979541
-0.00656534
-0.00437218
-0.00289299
-0.00190199
-0.00124246
-0.000806444
-0.000520106
-0.000333316
-0.000212288
-0.000134418
-8.4701e-05
-5.32594e-05
-3.36617e-05
-2.17874e-05
-1.50782e-05
-1.20597e-05
-1578.91
-1565.48
-1539.07
-1500.53
-1451.03
-1392
-1325.05
-1251.82
-1173.98
-1093.11
-1010.7
-928.103
-846.506
-766.939
-690.266
-617.186
-548.244
-483.835
-424.219
-369.534
-319.807
-274.972
-234.884
-199.332
-168.056
-140.761
-117.127
-96.8224
-79.5118
-64.867
-52.5713
-42.3259
-33.8526
-26.8973
-21.2302
-16.6466
-12.9667
-10.0337
-7.71308
-5.89015
-4.46849
-3.3677
-2.52142
-1.87544
-1.38582
-1.01732
-0.741937
-0.537567
-0.386954
-0.276728
-0.196614
-0.138788
-0.0973339
-0.0678202
-0.0469504
-0.0322931
-0.0220685
-0.0149841
-0.0101086
-0.00677567
-0.00451252
-0.00298603
-0.00196326
-0.00128255
-0.00083251
-0.000536942
-0.000344122
-0.00021918
-0.000138788
-8.74587e-05
-5.49959e-05
-3.47608e-05
-2.24999e-05
-1.55721e-05
-1.24551e-05
-1560.78
-1548.11
-1523.15
-1486.62
-1439.54
-1383.18
-1318.94
-1248.35
-1172.93
-1094.2
-1013.58
-932.418
-851.897
-773.071
-696.839
-623.943
-554.971
-490.362
-430.419
-375.317
-325.115
-279.776
-239.174
-203.118
-171.361
-143.616
-119.569
-98.8903
-81.2478
-66.3115
-53.7632
-43.3011
-34.6443
-27.5348
-21.7396
-17.0506
-13.2846
-10.2821
-7.90569
-6.03843
-4.58183
-3.45371
-2.58624
-1.92394
-1.42186
-1.04392
-0.76143
-0.551755
-0.397211
-0.284092
-0.201867
-0.142509
-0.0999522
-0.0696504
-0.0482212
-0.0331696
-0.0226691
-0.015393
-0.0103851
-0.00696141
-0.00463649
-0.00306823
-0.00201742
-0.001318
-0.000855558
-0.000551834
-0.000353682
-0.000225279
-0.000142656
-8.99e-05
-5.65334e-05
-3.57342e-05
-2.3131e-05
-1.60096e-05
-1.28054e-05
-1546.46
-1534.35
-1510.48
-1475.46
-1430.23
-1375.9
-1313.77
-1245.25
-1171.76
-1094.75
-1015.61
-935.642
-856.042
-777.872
-702.054
-629.36
-560.41
-495.68
-435.504
-380.086
-329.516
-283.776
-242.762
-206.297
-174.145
-146.028
-121.637
-100.647
-82.7263
-67.5446
-54.7826
-44.1369
-35.3239
-28.0829
-22.1782
-17.3989
-13.5591
-10.4968
-8.07238
-6.1669
-4.68012
-3.52837
-2.64255
-1.96611
-1.45322
-1.06708
-0.778415
-0.564126
-0.40616
-0.290521
-0.206454
-0.14576
-0.102241
-0.0712511
-0.0493331
-0.0339369
-0.023195
-0.0157511
-0.0106273
-0.00712422
-0.00474519
-0.00314033
-0.00206493
-0.0013491
-0.000875789
-0.000564908
-0.000362077
-0.000230636
-0.000146055
-9.20452e-05
-5.78847e-05
-3.65899e-05
-2.3686e-05
-1.63944e-05
-1.31135e-05
-1535.14
-1523.46
-1500.41
-1466.55
-1422.71
-1369.95
-1309.46
-1242.55
-1170.59
-1094.96
-1017.02
-938.041
-859.217
-781.616
-706.173
-633.68
-564.784
-499.986
-439.646
-383.994
-333.139
-287.084
-245.741
-208.946
-176.473
-148.051
-123.377
-102.129
-83.9759
-68.5891
-55.648
-44.8477
-35.9028
-28.5507
-22.5531
-17.697
-13.7944
-10.681
-8.21556
-6.27736
-4.76472
-3.5927
-2.69111
-2.0025
-1.4803
-1.0871
-0.793104
-0.574832
-0.413908
-0.296091
-0.210431
-0.14858
-0.104227
-0.0726407
-0.0502988
-0.0346035
-0.0236522
-0.0160625
-0.0108381
-0.00726588
-0.0048398
-0.0032031
-0.0021063
-0.0013762
-0.000893417
-0.000576303
-0.000369395
-0.000235307
-0.000149018
-9.39165e-05
-5.90638e-05
-3.73367e-05
-2.41703e-05
-1.67303e-05
-1.33826e-05
-1526.22
-1514.86
-1492.42
-1459.44
-1416.68
-1365.12
-1305.89
-1240.24
-1169.49
-1094.96
-1017.99
-939.819
-861.642
-784.524
-709.411
-637.109
-568.284
-503.454
-443.002
-387.176
-336.103
-289.801
-248.198
-211.138
-178.405
-149.735
-124.829
-103.369
-85.0244
-69.4673
-56.377
-45.4476
-36.3923
-28.9468
-22.871
-17.9502
-13.9944
-10.8379
-8.3376
-6.37162
-4.83698
-3.64769
-2.73266
-2.03367
-1.50352
-1.10427
-0.805713
-0.584027
-0.420568
-0.300881
-0.213853
-0.151008
-0.105938
-0.0738382
-0.0511314
-0.0351785
-0.0240466
-0.0163313
-0.01102
-0.00738824
-0.00492154
-0.00325735
-0.00214207
-0.00139963
-0.000908665
-0.000586161
-0.000375729
-0.00023935
-0.000151584
-9.5537e-05
-6.00851e-05
-3.79835e-05
-2.45901e-05
-1.70215e-05
-1.36159e-05
-1519.2
-1508.08
-1486.11
-1453.79
-1411.85
-1361.21
-1302.96
-1238.3
-1168.49
-1094.84
-1018.64
-941.132
-863.487
-786.775
-711.946
-639.818
-571.068
-506.231
-445.704
-389.75
-338.511
-292.019
-250.21
-212.939
-179.998
-151.127
-126.033
-104.399
-85.8976
-70.2002
-56.9866
-45.9502
-36.8031
-29.2797
-23.1387
-18.1636
-14.1633
-10.9704
-8.44086
-6.45145
-4.89824
-3.69436
-2.76795
-2.06017
-1.52327
-1.11888
-0.816455
-0.591866
-0.426249
-0.30497
-0.216775
-0.153082
-0.107401
-0.0748624
-0.0518438
-0.0356707
-0.0243844
-0.0165616
-0.011176
-0.00749315
-0.00499165
-0.00330389
-0.00217277
-0.00141974
-0.000921758
-0.000594629
-0.00038117
-0.000242824
-0.00015379
-9.693e-05
-6.09631e-05
-3.85399e-05
-2.49511e-05
-1.7272e-05
-1.38166e-05
-1513.68
-1502.75
-1481.14
-1449.32
-1408
-1358.08
-1300.58
-1236.69
-1167.62
-1094.66
-1019.08
-942.097
-864.886
-788.51
-713.923
-641.949
-573.273
-508.443
-447.867
-391.821
-340.457
-293.817
-251.847
-214.409
-181.302
-152.271
-127.024
-105.249
-86.6195
-70.8075
-57.4927
-46.3681
-37.1453
-29.5575
-23.3623
-18.3422
-14.3047
-11.0816
-8.52757
-6.51857
-4.9498
-3.73367
-2.79771
-2.08253
-1.53995
-1.13124
-0.82554
-0.5985
-0.43106
-0.308435
-0.219253
-0.154842
-0.108642
-0.0757321
-0.052449
-0.036089
-0.0246716
-0.0167574
-0.0113086
-0.00758244
-0.00505134
-0.00334353
-0.00219892
-0.00143688
-0.000932918
-0.000601848
-0.00038581
-0.000245788
-0.000155671
-9.81188e-05
-6.17126e-05
-3.90149e-05
-2.52594e-05
-1.74859e-05
-1.3988e-05
-1509.37
-1498.57
-1477.23
-1445.8
-1404.96
-1355.57
-1298.66
-1235.36
-1166.87
-1094.46
-1019.36
-942.803
-865.943
-789.843
-715.458
-643.616
-575.01
-510.196
-449.59
-393.477
-342.019
-295.266
-253.17
-215.602
-182.362
-153.203
-127.834
-105.946
-87.2123
-71.307
-57.9098
-46.7132
-37.4282
-29.7876
-23.5478
-18.4905
-14.4224
-11.1742
-8.59985
-6.57457
-4.99287
-3.76654
-2.82261
-2.10125
-1.55393
-1.1416
-0.833167
-0.604074
-0.435104
-0.311349
-0.221338
-0.156324
-0.109688
-0.0764652
-0.0529594
-0.0364419
-0.024914
-0.0169228
-0.0114207
-0.00765789
-0.00510179
-0.00337705
-0.00222104
-0.00145138
-0.000942362
-0.000607959
-0.000389738
-0.000248297
-0.000157265
-9.91259e-05
-6.23477e-05
-3.94175e-05
-2.55208e-05
-1.76673e-05
-1.41334e-05
-1505.99
-1495.31
-1474.17
-1443.03
-1402.55
-1353.59
-1297.12
-1234.28
-1166.24
-1094.25
-1019.54
-943.318
-866.739
-790.864
-716.645
-644.915
-576.372
-511.577
-450.953
-394.793
-343.265
-296.426
-254.233
-216.562
-183.219
-153.957
-128.492
-106.512
-87.6955
-71.7151
-58.2511
-46.9961
-37.6606
-29.9768
-23.7006
-18.6128
-14.5195
-11.2507
-8.65967
-6.62097
-5.02858
-3.79382
-2.84329
-2.11682
-1.56556
-1.15023
-0.839523
-0.608722
-0.438479
-0.313782
-0.22308
-0.157562
-0.110563
-0.0770787
-0.0533867
-0.0367375
-0.0251171
-0.0170614
-0.0115147
-0.00772118
-0.00514413
-0.00340518
-0.00223961
-0.00146356
-0.000950296
-0.000613094
-0.00039304
-0.000250407
-0.000158605
-9.99729e-05
-6.28819e-05
-3.97562e-05
-2.57407e-05
-1.782e-05
-1.42559e-05
-1503.37
-1492.76
-1471.78
-1440.86
-1400.66
-1352.02
-1295.9
-1233.41
-1165.72
-1094.05
-1019.65
-943.691
-867.337
-791.642
-717.559
-645.923
-577.435
-512.66
-452.027
-395.834
-344.254
-297.349
-255.082
-217.331
-183.907
-154.565
-129.022
-106.97
-88.0868
-72.0461
-58.5285
-47.2264
-37.85
-30.1312
-23.8254
-18.713
-14.5991
-11.3135
-8.70881
-6.65913
-5.05798
-3.8163
-2.86036
-2.12968
-1.57517
-1.15737
-0.844781
-0.612569
-0.441275
-0.315799
-0.224525
-0.15859
-0.111289
-0.0775883
-0.0537418
-0.0369833
-0.0252861
-0.0171768
-0.0115929
-0.00777389
-0.0051794
-0.00342863
-0.00225509
-0.00147371
-0.000956913
-0.000617378
-0.000395795
-0.000252168
-0.000159724
-0.00010068
-6.3328e-05
-4.0039e-05
-2.59244e-05
-1.79476e-05
-1.43581e-05
-1501.34
-1490.79
-1469.92
-1439.17
-1399.19
-1350.78
-1294.93
-1232.71
-1165.29
-1093.88
-1019.71
-943.961
-867.784
-792.233
-718.26
-646.702
-578.26
-513.505
-452.868
-396.652
-345.033
-298.079
-255.755
-217.942
-184.455
-155.05
-129.447
-107.338
-88.4014
-72.3128
-58.7523
-47.4125
-38.0034
-30.2565
-23.9268
-18.7944
-14.6639
-11.3647
-8.7489
-6.69029
-5.08201
-3.8347
-2.87433
-2.14021
-1.58306
-1.16322
-0.8491
-0.615732
-0.443574
-0.317459
-0.225715
-0.159437
-0.111888
-0.0780085
-0.0540348
-0.0371862
-0.0254256
-0.0172721
-0.0116576
-0.00781746
-0.00520857
-0.00344802
-0.0022679
-0.00148212
-0.000962392
-0.000620926
-0.000398078
-0.000253627
-0.000160651
-0.000101266
-6.36979e-05
-4.02736e-05
-2.60768e-05
-1.80534e-05
-1.4443e-05
-1499.76
-1489.26
-1468.49
-1437.87
-1398.04
-1349.82
-1294.16
-1232.15
-1164.94
-1093.73
-1019.74
-944.155
-868.118
-792.68
-718.796
-647.3
-578.898
-514.16
-453.523
-397.291
-345.645
-298.653
-256.285
-218.426
-184.889
-155.435
-129.785
-107.631
-88.6527
-72.5262
-58.9317
-47.5619
-38.1267
-30.3573
-24.0086
-18.86
-14.7163
-11.4061
-8.78137
-6.71555
-5.10151
-3.84964
-2.88568
-2.14878
-1.58948
-1.16799
-0.852623
-0.618313
-0.445452
-0.318815
-0.226688
-0.16013
-0.112378
-0.0783527
-0.0542749
-0.0373525
-0.02554
-0.0173503
-0.0117107
-0.00785323
-0.00523252
-0.00346395
-0.00227843
-0.00148903
-0.000966896
-0.000623843
-0.000399955
-0.000254827
-0.000161414
-0.000101749
-6.40023e-05
-4.04667e-05
-2.62022e-05
-1.81405e-05
-1.45128e-05
-1498.56
-1488.09
-1467.38
-1436.86
-1397.15
-1349.07
-1293.57
-1231.71
-1164.66
-1093.6
-1019.75
-944.294
-868.365
-793.017
-719.203
-647.757
-579.388
-514.666
-454.031
-397.788
-346.121
-299.102
-256.701
-218.805
-185.231
-155.739
-130.052
-107.863
-88.8521
-72.6958
-59.0745
-47.681
-38.2251
-30.4379
-24.074
-18.9127
-14.7583
-11.4393
-8.80748
-6.73588
-5.11723
-3.86168
-2.89485
-2.1557
-1.59467
-1.17186
-0.855475
-0.620404
-0.446974
-0.319915
-0.227477
-0.160693
-0.112776
-0.0786325
-0.0544701
-0.0374878
-0.0256331
-0.017414
-0.0117539
-0.00788238
-0.00525205
-0.00347695
-0.00228701
-0.00149466
-0.000970572
-0.000626224
-0.000401487
-0.000255807
-0.000162037
-0.000102143
-6.42511e-05
-4.06245e-05
-2.63047e-05
-1.82117e-05
-1.45699e-05
-1497.63
-1487.19
-1466.53
-1436.08
-1396.47
-1348.49
-1293.1
-1231.37
-1164.43
-1093.49
-1019.75
-944.393
-868.548
-793.27
-719.511
-648.106
-579.763
-515.055
-454.422
-398.172
-346.491
-299.451
-257.025
-219.102
-185.499
-155.978
-130.262
-108.045
-89.0092
-72.8296
-59.1874
-47.7753
-38.3031
-30.5019
-24.126
-18.9546
-14.7918
-11.4659
-8.82833
-6.75214
-5.1298
-3.87133
-2.9022
-2.16126
-1.59883
-1.17496
-0.857767
-0.622086
-0.448199
-0.320801
-0.228114
-0.161147
-0.113097
-0.0788583
-0.0546278
-0.0375971
-0.0257084
-0.0174654
-0.0117889
-0.00790597
-0.00526785
-0.00348747
-0.00229397
-0.00149923
-0.000973551
-0.000628154
-0.00040273
-0.000256602
-0.000162542
-0.000102463
-6.44528e-05
-4.07525e-05
-2.63879e-05
-1.82695e-05
-1.46163e-05
-1496.92
-1486.5
-1465.88
-1435.49
-1395.94
-1348.05
-1292.75
-1231.1
-1164.26
-1093.41
-1019.75
-944.463
-868.683
-793.459
-719.743
-648.37
-580.048
-515.352
-454.722
-398.467
-346.775
-299.72
-257.276
-219.332
-185.706
-156.163
-130.425
-108.188
-89.1323
-72.9346
-59.2761
-47.8495
-38.3646
-30.5523
-24.1671
-18.9877
-14.8183
-11.4869
-8.84486
-6.76504
-5.13979
-3.87901
-2.90805
-2.16568
-1.60215
-1.17743
-0.859597
-0.62343
-0.449179
-0.32151
-0.228623
-0.16151
-0.113354
-0.0790393
-0.0547542
-0.0376848
-0.0257688
-0.0175068
-0.0118169
-0.00792492
-0.00528055
-0.00349592
-0.00229956
-0.0015029
-0.000975947
-0.000629708
-0.00040373
-0.000257242
-0.000162949
-0.00010272
-6.46153e-05
-4.08557e-05
-2.64549e-05
-1.83161e-05
-1.46536e-05
-1496.39
-1485.98
-1465.39
-1435.03
-1395.54
-1347.71
-1292.47
-1230.9
-1164.12
-1093.34
-1019.74
-944.512
-868.782
-793.6
-719.918
-648.569
-580.264
-515.578
-454.95
-398.693
-346.994
-299.927
-257.469
-219.509
-185.867
-156.307
-130.552
-108.299
-89.228
-73.0164
-59.3453
-47.9074
-38.4127
-30.5919
-24.1993
-19.0137
-14.8391
-11.5034
-8.85788
-6.77521
-5.14767
-3.88506
-2.91267
-2.16918
-1.60478
-1.17939
-0.861048
-0.624496
-0.449956
-0.322073
-0.229027
-0.161799
-0.113559
-0.0791833
-0.0548548
-0.0377547
-0.025817
-0.0175397
-0.0118393
-0.00794004
-0.00529069
-0.00350267
-0.00230402
-0.00150584
-0.000977862
-0.000630949
-0.000404529
-0.000257753
-0.000163274
-0.000102926
-6.47453e-05
-4.09382e-05
-2.65085e-05
-1.83533e-05
-1.46835e-05
-1495.98
-1485.59
-1465.02
-1434.69
-1395.24
-1347.45
-1292.26
-1230.74
-1164.01
-1093.28
-1019.73
-944.547
-868.855
-793.705
-720.048
-648.719
-580.427
-515.748
-455.124
-398.865
-347.16
-300.085
-257.617
-219.645
-185.991
-156.418
-130.65
-108.384
-89.302
-73.0797
-59.3989
-47.9524
-38.45
-30.6226
-24.2243
-19.034
-14.8553
-11.5163
-8.86806
-6.78317
-5.15384
-3.88982
-2.9163
-2.17193
-1.60685
-1.18093
-0.86219
-0.625335
-0.450569
-0.322517
-0.229347
-0.162027
-0.113721
-0.0792971
-0.0549344
-0.0378099
-0.025855
-0.0175658
-0.0118571
-0.00795201
-0.00529872
-0.00350802
-0.00230756
-0.00150816
-0.00097938
-0.000631933
-0.000405163
-0.000258159
-0.000163532
-0.000103089
-6.48484e-05
-4.10036e-05
-2.65511e-05
-1.83829e-05
-1.47072e-05
-1495.68
-1485.29
-1464.74
-1434.43
-1395.01
-1347.25
-1292.1
-1230.62
-1163.93
-1093.24
-1019.72
-944.571
-868.908
-793.782
-720.145
-648.831
-580.55
-515.877
-455.254
-398.994
-347.286
-300.205
-257.729
-219.749
-186.085
-156.502
-130.725
-108.45
-89.3588
-73.1284
-59.4402
-47.987
-38.4789
-30.6464
-24.2437
-19.0497
-14.8679
-11.5263
-8.87597
-6.78936
-5.15865
-3.89352
-2.91913
-2.17407
-1.60846
-1.18214
-0.863082
-0.625992
-0.451048
-0.322864
-0.229597
-0.162205
-0.113848
-0.0793865
-0.0549969
-0.0378533
-0.025885
-0.0175863
-0.011871
-0.00796143
-0.00530504
-0.00351223
-0.00231035
-0.00151
-0.000980576
-0.000632709
-0.000405663
-0.000258479
-0.000163735
-0.000103218
-6.49298e-05
-4.10552e-05
-2.65846e-05
-1.84062e-05
-1.47259e-05
-1495.45
-1485.07
-1464.53
-1434.24
-1394.84
-1347.1
-1291.98
-1230.52
-1163.87
-1093.2
-1019.71
-944.588
-868.946
-793.839
-720.216
-648.914
-580.641
-515.973
-455.352
-399.092
-347.38
-300.296
-257.814
-219.827
-186.156
-156.566
-130.782
-108.5
-89.4021
-73.1656
-59.4718
-48.0136
-38.501
-30.6646
-24.2587
-19.0618
-14.8777
-11.5341
-8.88208
-6.79414
-5.16236
-3.89638
-2.92131
-2.17573
-1.60971
-1.18307
-0.863775
-0.626502
-0.451421
-0.323135
-0.229791
-0.162344
-0.113946
-0.079456
-0.0550456
-0.0378871
-0.0259083
-0.0176023
-0.0118819
-0.00796878
-0.00530998
-0.00351552
-0.00231253
-0.00151143
-0.000981511
-0.000633315
-0.000406054
-0.000258729
-0.000163895
-0.000103319
-6.49934e-05
-4.10956e-05
-2.66109e-05
-1.84245e-05
-1.47405e-05
-1495.28
-1484.91
-1464.37
-1434.1
-1394.71
-1346.99
-1291.89
-1230.46
-1163.82
-1093.17
-1019.71
-944.599
-868.974
-793.88
-720.269
-648.976
-580.709
-516.044
-455.425
-399.165
-347.451
-300.363
-257.878
-219.886
-186.21
-156.615
-130.825
-108.538
-89.435
-73.1938
-59.4958
-48.0338
-38.5178
-30.6785
-24.27
-19.071
-14.8851
-11.54
-8.88675
-6.79781
-5.16521
-3.89858
-2.923
-2.17701
-1.61067
-1.18379
-0.864309
-0.626895
-0.451708
-0.323343
-0.229942
-0.162452
-0.114023
-0.0795099
-0.0550833
-0.0379133
-0.0259264
-0.0176147
-0.0118903
-0.00797449
-0.0053138
-0.00351807
-0.00231422
-0.00151254
-0.000982237
-0.000633786
-0.000406357
-0.000258923
-0.000164018
-0.000103397
-6.50428e-05
-4.1127e-05
-2.66313e-05
-1.84386e-05
-1.47519e-05
-1495.16
-1484.78
-1464.25
-1433.99
-1394.61
-1346.91
-1291.82
-1230.4
-1163.79
-1093.15
-1019.7
-944.607
-868.993
-793.91
-720.308
-649.021
-580.758
-516.097
-455.48
-399.219
-347.504
-300.414
-257.925
-219.93
-186.25
-156.651
-130.857
-108.566
-89.4597
-73.2151
-59.5139
-48.0491
-38.5306
-30.6891
-24.2787
-19.078
-14.8907
-11.5445
-8.89031
-6.8006
-5.16738
-3.90025
-2.92428
-2.17798
-1.61141
-1.18434
-0.864718
-0.627196
-0.451929
-0.323503
-0.230057
-0.162535
-0.114081
-0.0795513
-0.0551123
-0.0379335
-0.0259403
-0.0176242
-0.0118968
-0.00797888
-0.00531675
-0.00352004
-0.00231552
-0.0015134
-0.000982797
-0.000634149
-0.000406591
-0.000259073
-0.000164114
-0.000103457
-6.5081e-05
-4.11512e-05
-2.66471e-05
-1.84496e-05
-1.47606e-05
-1495.07
-1484.69
-1464.17
-1433.91
-1394.54
-1346.85
-1291.77
-1230.36
-1163.76
-1093.14
-1019.7
-944.612
-869.008
-793.932
-720.336
-649.054
-580.795
-516.136
-455.52
-399.259
-347.544
-300.452
-257.961
-219.963
-186.28
-156.678
-130.881
-108.587
-89.4782
-73.231
-59.5275
-48.0605
-38.5401
-30.697
-24.2852
-19.0833
-14.895
-11.5479
-8.893
-6.80271
-5.16903
-3.90152
-2.92525
-2.17873
-1.61197
-1.18476
-0.865029
-0.627426
-0.452096
-0.323625
-0.230145
-0.162598
-0.114126
-0.0795828
-0.0551344
-0.0379489
-0.0259509
-0.0176315
-0.0119018
-0.00798224
-0.00531901
-0.00352155
-0.00231652
-0.00151405
-0.000983225
-0.000634427
-0.000406771
-0.000259188
-0.000164187
-0.000103504
-6.51102e-05
-4.11698e-05
-2.66591e-05
-1.8458e-05
-1.47674e-05
-1495
-1484.63
-1464.11
-1433.85
-1394.49
-1346.81
-1291.74
-1230.34
-1163.74
-1093.13
-1019.69
-944.616
-869.018
-793.948
-720.356
-649.078
-580.822
-516.165
-455.549
-399.288
-347.572
-300.479
-257.987
-219.988
-186.303
-156.698
-130.899
-108.603
-89.492
-73.2429
-59.5376
-48.0691
-38.5473
-30.7029
-24.29
-19.0873
-14.8982
-11.5504
-8.89502
-6.8043
-5.17027
-3.90248
-2.92599
-2.17928
-1.61239
-1.18508
-0.865264
-0.627599
-0.452223
-0.323717
-0.230212
-0.162645
-0.11416
-0.0796068
-0.0551512
-0.0379605
-0.025959
-0.017637
-0.0119056
-0.00798479
-0.00532072
-0.00352269
-0.00231728
-0.00151455
-0.000983551
-0.000634639
-0.000406907
-0.000259275
-0.000164242
-0.000103539
-6.51324e-05
-4.11839e-05
-2.66683e-05
-1.84643e-05
-1.47725e-05
-1494.95
-1484.58
-1464.06
-1433.81
-1394.45
-1346.77
-1291.71
-1230.32
-1163.72
-1093.12
-1019.69
-944.618
-869.025
-793.959