/*--------------------------------*- C++ -*----------------------------------*\
  =========                 |
  \\      /  F ield         | OpenFOAM: The Open Source CFD Toolbox
   \\    /   O peration     | Website:  https://openfoam.org
    \\  /    A nd           | Version:  10
     \\/     M anipulation  |
\*---------------------------------------------------------------------------*/
FoamFile
{
    format      ascii;
    class       volScalarField;
    location    "52";
    object      gradTx;
}
// * * * * * * * * * * * * * * * * * * * * * * * * * * * * * * * * * * * * * //

dimensions      [0 -1 0 1 0 0 0];

internalField   nonuniform List<scalar> 
11250
(
14169.9
7723.95
4707.91
3044.77
2016.58
1338.55
879.006
566.586
356.705
218.651
130.231
75.2732
42.1886
22.9191
12.0664
6.15668
3.04493
1.46011
0.679073
0.306437
0.134229
0.0570995
0.0235994
0.00948113
0.00370441
0.00140827
0.000521151
0.000187824
6.59547e-05
2.25754e-05
7.53529e-06
2.4537e-06
7.7976e-07
2.41917e-07
7.32956e-08
2.16911e-08
6.27947e-09
1.75948e-09
4.85147e-10
1.05371e-10
1.09762e-12
1.31714e-11
1.09762e-12
-5.48809e-12
-5.48809e-12
1.09762e-12
0
-4.39047e-12
2.19524e-12
0
1.09762e-12
0
1.4269e-11
0
1.09762e-12
0
1.09762e-12
-2.19524e-12
0
2.19524e-12
0
1.09762e-12
0
-2.19524e-11
9.87856e-12
-1.09762e-12
-1.09762e-12
0
1.09762e-12
0
-5.48809e-12
0
-7.68332e-12
0
-9.87856e-12
3968.97
4332.1
3413.09
2481.02
1743.19
1195.38
800.358
522.294
331.558
204.425
122.277
70.9024
39.8373
21.684
11.4341
5.84161
2.8922
1.38812
0.64609
0.291747
0.127869
0.0544217
0.0225029
0.00904435
0.00353508
0.00134436
0.000497657
0.00017941
6.30178e-05
2.15758e-05
7.20352e-06
2.34625e-06
7.45793e-07
2.31435e-07
7.01476e-08
2.0779e-08
5.99738e-09
1.68814e-09
4.59902e-10
1.28421e-10
2.63428e-11
8.78094e-12
-1.09762e-12
-1.09762e-12
0
0
-1.09762e-12
0
-2.19523e-12
0
-1.75619e-11
0
-1.4269e-11
8.78094e-12
-1.31714e-11
-6.5857e-12
-1.4269e-11
0
-4.39047e-12
0
0
-1.09762e-12
0
2.41476e-11
5.48809e-12
0
-1.09762e-12
1.09762e-12
-1.09762e-12
0
-8.78094e-12
0
8.78094e-12
2.19523e-12
0
1355.56
2258.84
2186.95
1791.21
1353.3
971.541
670.32
446.451
287.506
179.119
107.975
62.9823
35.5519
19.423
10.2726
5.26114
2.61016
1.25493
0.584965
0.264484
0.11605
0.0494401
0.020461
0.00823014
0.00321913
0.00122501
0.000453748
0.000163672
5.752e-05
1.97033e-05
6.58147e-06
2.1446e-06
6.82016e-07
2.11785e-07
6.42446e-08
1.90404e-08
5.50455e-09
1.56301e-09
4.1929e-10
1.20738e-10
3.95142e-11
-2.19524e-12
0
7.68332e-12
5.48809e-12
7.68332e-12
1.09762e-12
5.48809e-12
0
0
1.09762e-12
-1.09762e-12
4.39047e-12
8.78094e-12
0
-2.19523e-12
0
4.39047e-12
0
-2.19524e-12
0
0
0
-1.4269e-11
-1.09762e-11
2.19524e-12
3.29285e-12
2.19523e-12
0
0
3.29285e-12
8.78094e-12
0
-1.09762e-12
8.78094e-12
561.629
1194.2
1335.64
1206.14
974.659
733.326
523.067
356.839
233.897
147.669
89.9284
52.8745
30.0354
16.4931
8.75946
4.50173
2.2399
1.07958
0.504292
0.228428
0.10039
0.0428295
0.0177476
0.00714686
0.00279831
0.00106587
0.000395149
0.00014265
5.01704e-05
1.71981e-05
5.74859e-06
1.87444e-06
5.96484e-07
1.85338e-07
5.62595e-08
1.6686e-08
4.84818e-09
1.37422e-09
3.9624e-10
1.22933e-10
4.17095e-11
-5.48809e-12
1.09762e-12
0
0
0
0
1.09762e-12
0
0
1.53666e-11
0
1.09762e-12
-8.78094e-12
1.31714e-11
5.48809e-12
1.4269e-11
-4.39047e-12
5.48809e-12
6.58571e-12
0
-2.19523e-12
0
-1.09762e-12
-4.39047e-12
3.29285e-12
0
1.09762e-12
0
2.19524e-12
5.48809e-12
0
-1.09762e-12
-1.09762e-12
-5.48809e-12
268.617
650.075
800.069
777.999
665.098
522.157
384.617
268.89
179.597
115.06
70.8832
42.0626
24.0725
13.2997
7.09926
3.664
1.82964
0.884549
0.414288
0.188093
0.0828317
0.0354023
0.0146936
0.00592563
0.00232321
0.000885982
0.000328827
0.000118832
4.18345e-05
1.43539e-05
4.80218e-06
1.5672e-06
4.99124e-07
1.55166e-07
4.71097e-08
1.39628e-08
4.04362e-09
1.13274e-09
3.25992e-10
1.00981e-10
3.84166e-11
-4.39047e-12
8.78094e-12
0
-2.19523e-12
-1.09762e-11
-4.39047e-12
-2.19523e-12
1.09762e-12
3.29285e-12
8.78094e-12
1.09762e-12
-5.48809e-12
-9.87856e-12
0
5.48809e-12
1.09762e-12
-8.78094e-12
-5.48809e-12
0
0
0
0
1.86595e-11
0
-1.09762e-12
-1.09762e-12
-3.29285e-12
0
-1.09762e-12
-9.87856e-12
-1.20738e-11
-7.68332e-12
-1.09762e-12
-1.09762e-12
139.996
362.133
474.28
486.933
435.433
354.51
268.828
192.344
130.869
85.098
53.0596
31.7968
18.3453
10.204
5.47772
2.84069
1.42433
0.691041
0.324653
0.147795
0.0652407
0.0279431
0.0116199
0.00469415
0.0018433
0.000703985
0.000261632
9.46681e-05
3.33672e-05
1.14615e-05
3.83863e-06
1.25401e-06
3.99768e-07
1.244e-07
3.77767e-08
1.12023e-08
3.24126e-09
9.14315e-10
2.51354e-10
6.0369e-11
6.5857e-12
-3.29285e-12
-9.87856e-12
-1.09762e-12
1.09762e-12
1.09762e-12
0
1.09762e-12
-2.19524e-12
-2.19523e-12
-6.58571e-12
-1.09762e-12
0
-3.29285e-12
-1.09762e-12
0
-1.09762e-12
2.19524e-12
1.09762e-12
-6.58571e-12
1.09762e-12
2.19523e-12
1.09762e-12
0
-1.09762e-12
-4.39047e-12
0
0
0
-2.19524e-12
4.39047e-12
1.09762e-12
-4.39047e-12
0
0
76.1784
204.126
278.411
297.332
275.412
231.094
179.728
131.32
90.913
59.9708
37.8405
22.9029
13.3246
7.46378
4.03079
2.1011
1.05819
0.515384
0.242949
0.110931
0.0490983
0.0210794
0.00878452
0.00355569
0.00139876
0.000535094
0.000199172
7.21723e-05
2.5473e-05
8.76133e-06
2.93794e-06
9.60908e-07
3.06671e-07
9.55432e-08
2.90441e-08
8.62727e-09
2.4883e-09
6.99182e-10
1.81107e-10
4.06118e-11
0
2.19524e-11
-8.78094e-12
-9.87856e-12
-4.39047e-12
2.19524e-12
5.48809e-12
1.09762e-12
-1.09762e-12
-4.39047e-12
-9.87856e-12
0
0
-1.09762e-12
0
-9.87856e-12
-1.09762e-12
-7.68332e-12
4.39047e-12
-4.39047e-12
0
-2.19523e-12
1.09762e-12
-5.48809e-12
2.19523e-12
2.19524e-12
0
0
-1.20738e-11
1.09762e-12
1.31714e-11
2.19524e-12
0
-7.68332e-12
0
42.1471
115.21
161.442
177.433
168.908
145.262
115.435
85.9211
60.4301
40.4011
25.7844
15.758
9.24397
5.21491
2.83359
1.48491
0.751322
0.367419
0.173823
0.079622
0.0353418
0.0152125
0.00635445
0.0025776
0.001016
0.000389381
0.000145183
5.2694e-05
1.86267e-05
6.41597e-06
2.1545e-06
7.05662e-07
2.25524e-07
7.03452e-08
2.14222e-08
6.35521e-09
1.82534e-09
5.08197e-10
1.16347e-10
1.4269e-11
5.48809e-12
4.39047e-12
9.87856e-12
0
-5.48809e-12
-9.87856e-12
0
-1.09762e-12
1.09762e-12
-3.29285e-12
5.48809e-12
0
0
4.39047e-12
1.09762e-12
4.39047e-12
2.305e-11
3.29285e-12
-3.29285e-12
0
0
0
-3.29285e-12
0
0
0
7.68332e-12
-1.09762e-12
0
1.09762e-12
-1.09762e-12
0
6.5857e-12
0
4.39047e-12
23.3373
64.5732
92.1783
103.473
100.616
88.2791
71.4374
54.0361
38.545
26.088
16.8279
10.3797
6.13788
3.48686
1.9062
1.00427
0.510528
0.250706
0.119048
0.0547136
0.0243587
0.0105135
0.00440257
0.00178993
0.000707022
0.000271502
0.000101419
3.68746e-05
1.30566e-05
4.50457e-06
1.51498e-06
4.96931e-07
1.59036e-07
4.9676e-08
1.51482e-08
4.49584e-09
1.31056e-09
3.80873e-10
9.21999e-11
-1.09762e-12
-7.68332e-12
-2.08547e-11
-3.29285e-12
9.87856e-12
0
0
-3.29285e-12
0
0
-1.20738e-11
-2.19524e-12
0
-1.09762e-12
-3.29285e-12
0
8.78094e-12
1.4269e-11
1.4269e-11
-4.39047e-12
4.39047e-12
-1.09762e-12
2.19523e-12
8.78094e-12
0
-1.09762e-12
0
1.4269e-11
2.19523e-12
1.31714e-11
-1.09762e-12
2.19523e-12
5.48809e-12
6.58571e-12
8.78094e-12
2.19524e-12
12.808
35.7223
51.6672
58.9215
58.2542
51.9487
42.6828
32.7374
23.6453
16.182
10.5409
6.55818
3.90774
2.2349
1.22905
0.650934
0.332463
0.163948
0.0781446
0.0360368
0.0160933
0.00696564
0.00292443
0.00119182
0.000471818
0.000181561
6.79557e-05
2.4754e-05
8.78061e-06
3.03457e-06
1.02228e-06
3.35848e-07
1.07622e-07
3.36541e-08
1.02858e-08
3.07004e-09
9.05534e-10
2.50257e-10
5.48809e-11
5.48809e-12
-1.75619e-11
-7.68332e-12
1.09762e-12
0
5.48809e-12
8.78094e-12
-1.09762e-12
-4.39047e-12
1.09762e-12
4.39047e-12
-2.19524e-12
-1.09762e-12
0
0
0
-5.48809e-12
-1.97571e-11
-1.09762e-12
2.19523e-12
-1.09762e-12
-1.09762e-12
0
1.09762e-12
-1.09762e-12
-1.09762e-12
-1.09762e-12
-6.58571e-12
0
-1.09762e-12
0
1.09762e-12
0
-6.58571e-12
0
1.09762e-12
6.92444
19.4197
28.3581
32.7309
32.7873
29.6279
24.6557
19.1377
13.9748
9.65927
6.34846
3.98149
2.38941
1.37529
0.760653
0.404924
0.207767
0.102882
0.0492221
0.0227766
0.0102033
0.00442897
0.00186438
0.000761682
0.000302231
0.000116555
4.37147e-05
1.59551e-05
5.67021e-06
1.96319e-06
6.62549e-07
2.18074e-07
7.00225e-08
2.1937e-08
6.73059e-09
2.0262e-09
6.00397e-10
1.63545e-10
5.1588e-11
3.7319e-11
2.63428e-11
1.09762e-12
3.29285e-12
1.09762e-12
6.5857e-12
0
3.29285e-12
-5.48809e-12
-1.09762e-12
1.20738e-11
2.19523e-12
0
2.19523e-12
4.39047e-12
2.19523e-12
1.09762e-12
-1.4269e-11
0
4.39047e-12
-1.09762e-12
3.29285e-12
1.4269e-11
-8.78094e-12
0
0
-9.87856e-12
-3.7319e-11
-1.09762e-12
0
0
-3.29285e-12
-5.48809e-12
0
-2.19523e-12
-3.29285e-12
3.67282
10.3418
15.2109
17.7207
17.9379
16.3862
13.7831
10.8085
7.96861
5.55674
3.68174
2.32604
1.40523
0.813696
0.452493
0.242066
0.124759
0.062029
0.0297866
0.0138299
0.00621478
0.00270545
0.00114192
0.000467694
0.000186016
7.18969e-05
2.70229e-05
9.88299e-06
3.51917e-06
1.22076e-06
4.1277e-07
1.36113e-07
4.38224e-08
1.37718e-08
4.21814e-09
1.26994e-09
3.87459e-10
1.55862e-10
7.24428e-11
3.07333e-11
2.74404e-11
5.48809e-12
4.39047e-12
7.68332e-12
0
1.09762e-12
0
1.20738e-11
1.09762e-12
2.19523e-12
4.39047e-12
4.39047e-12
0
1.09762e-12
-1.09762e-12
-1.09762e-12
-3.29285e-12
0
-1.09762e-12
2.19524e-12
0
-1.09762e-12
5.48809e-12
0
-1.09762e-11
-5.48809e-12
-2.19524e-12
-1.09762e-12
0
1.09762e-12
0
0
4.39047e-12
0
1.09762e-12
1.90602
5.38313
7.9615
9.34351
9.53826
8.79158
7.462
5.90331
4.38885
3.08461
2.05871
1.3094
0.795923
0.463472
0.25906
0.139238
0.0720701
0.0359737
0.0173372
0.00807652
0.00364057
0.00158938
0.000672648
0.000276192
0.000110112
4.2656e-05
1.60673e-05
5.88853e-06
2.10103e-06
7.30247e-07
2.4739e-07
8.17253e-08
2.63439e-08
8.2903e-09
2.53111e-09
7.67235e-10
2.68916e-10
1.27324e-10
6.58571e-11
1.31714e-11
-8.78094e-12
6.58571e-12
-1.09762e-12
-3.29285e-12
-1.09762e-12
0
-1.09762e-12
4.39047e-12
0
1.09762e-12
0
1.09762e-12
0
0
-1.09762e-12
0
1.09762e-12
-8.78094e-12
-7.68332e-12
-3.29285e-12
-1.09762e-12
-1.4269e-11
1.09762e-12
-1.20738e-11
-1.09762e-12
1.09762e-11
2.305e-11
-2.19523e-12
0
0
-1.09762e-12
-4.39047e-12
-8.78094e-12
1.09762e-12
6.58571e-12
0.965944
2.73448
4.06184
4.79504
4.92887
4.57702
3.91467
3.12053
2.33706
1.65404
1.11119
0.711077
0.434684
0.254446
0.142911
0.0771527
0.0400984
0.0200909
0.00971657
0.00454119
0.00205319
0.000898918
0.00038145
0.00015702
6.27505e-05
2.43643e-05
9.19749e-06
3.37794e-06
1.20772e-06
4.20588e-07
1.42763e-07
4.72612e-08
1.52404e-08
4.7911e-09
1.46093e-09
4.4673e-10
1.54764e-10
5.48809e-11
2.85381e-11
7.68332e-12
3.29285e-12
-8.78094e-12
-6.5857e-12
-7.68332e-12
-5.48809e-12
-6.5857e-12
-1.09762e-12
-6.5857e-12
0
-1.09762e-12
0
-2.19523e-12
-1.09762e-12
1.09762e-12
0
0
4.39047e-12
0
1.09762e-12
0
-1.09762e-12
-1.09762e-12
-6.5857e-12
0
1.20738e-11
8.78094e-12
2.19523e-12
0
-1.09762e-12
-2.19523e-12
-6.5857e-12
4.39047e-12
0
0
0
0.477436
1.35407
2.01839
2.39415
2.47503
2.31278
1.99104
1.59759
1.20421
0.857572
0.579524
0.372917
0.229154
0.13479
0.0760476
0.0412279
0.0215109
0.0108169
0.00524911
0.00246101
0.00111598
0.000489955
0.000208456
8.60231e-05
3.44597e-05
1.34103e-05
5.0735e-06
1.86729e-06
6.68999e-07
2.33452e-07
7.93896e-08
2.63253e-08
8.50873e-09
2.67709e-09
8.22116e-10
2.40378e-10
4.17095e-11
1.20738e-11
-1.4269e-11
-9.87856e-12
4.39047e-12
4.39047e-12
-1.31714e-11
2.19523e-12
0
-5.48809e-12
4.39047e-12
0
-5.48809e-12
-1.09762e-12
0
-3.29285e-12
-8.78094e-12
0
-1.4269e-11
-1.09762e-12
0
7.68332e-12
8.78094e-12
6.58571e-12
1.09762e-12
-4.39047e-12
0
1.31714e-11
9.87856e-12
0
-1.09762e-12
2.19523e-12
-4.39047e-12
0
-7.68332e-12
3.29285e-12
8.78094e-12
9.87856e-12
-3.29285e-12
0.229956
0.653166
0.976385
1.16273
1.20775
1.13457
0.982225
0.792634
0.600854
0.430266
0.292309
0.18905
0.116726
0.0689681
0.0390759
0.0212681
0.0111378
0.00562017
0.00273615
0.00128674
0.000585174
0.00025761
0.000109886
4.5458e-05
1.82528e-05
7.1193e-06
2.69932e-06
9.95577e-07
3.57428e-07
1.24977e-07
4.25854e-08
1.41362e-08
4.57926e-09
1.43349e-09
4.51121e-10
1.40495e-10
2.96357e-11
-9.87856e-12
-4.39047e-12
3.29285e-12
1.09762e-12
6.58571e-12
1.09762e-12
0
5.48809e-12
5.48809e-12
1.09762e-12
2.19524e-12
-1.09762e-12
0
1.09762e-12
-1.09762e-12
0
-2.19524e-12
0
-4.39047e-12
-4.39047e-12
0
8.78094e-12
-1.09762e-12
0
1.09762e-12
0
-2.19524e-12
5.48809e-12
-4.39047e-12
-1.09762e-12
-1.09762e-12
0
1.09762e-12
-4.39047e-12
-7.68332e-12
-2.19524e-12
2.19523e-12
5.48809e-12
0.107872
0.306776
0.459664
0.549199
0.572759
0.540499
0.470191
0.381331
0.290518
0.209066
0.142715
0.0927261
0.0575041
0.0341183
0.0194069
0.010602
0.00557163
0.00282074
0.00137754
0.000649729
0.000296301
0.000130786
5.59284e-05
2.31924e-05
9.33401e-06
3.64876e-06
1.38644e-06
5.1243e-07
1.84327e-07
6.45849e-08
2.20248e-08
7.30794e-09
2.37415e-09
7.52966e-10
2.49159e-10
8.12237e-11
1.86595e-11
-8.78094e-12
3.29285e-12
5.48809e-12
2.19523e-12
-1.4269e-11
1.4269e-11
5.48809e-12
-1.53666e-11
6.5857e-12
-5.48809e-12
0
7.68332e-12
0
-1.09762e-12
4.39047e-12
8.78094e-12
0
1.4269e-11
2.19523e-12
1.09762e-12
3.29285e-12
0
-2.19523e-12
-2.19523e-12
5.48809e-12
1.09762e-12
0
-9.87856e-12
-1.09762e-12
0
-3.29285e-12
4.39047e-12
-1.09762e-12
-3.29285e-12
5.48809e-12
-3.29285e-12
-9.87856e-12
-1.09762e-12
0.0492684
0.140259
0.210575
0.252292
0.264019
0.250122
0.218504
0.177989
0.136206
0.098452
0.0674982
0.0440402
0.0274221
0.016333
0.00932464
0.00511188
0.00269533
0.00136885
0.000670484
0.000317134
0.000145014
6.41726e-05
2.75097e-05
1.14345e-05
4.61234e-06
1.80694e-06
6.8804e-07
2.54809e-07
9.18355e-08
3.22425e-08
1.10003e-08
3.64299e-09
1.18323e-09
3.86361e-10
1.27324e-10
3.51238e-11
-1.09762e-12
0
-1.64643e-11
3.29285e-12
-1.09762e-12
1.75619e-11
1.31714e-11
0
-1.53666e-11
-2.19524e-12
0
-3.29285e-12
1.09762e-12
0
0
0
0
-1.09762e-12
-2.19524e-12
5.48809e-12
-1.09762e-12
-2.19524e-12
-9.87856e-12
0
0
-4.39047e-12
0
2.19524e-12
-4.39047e-12
1.09762e-12
8.78094e-12
4.39047e-12
0
0
9.87856e-12
1.20738e-11
5.48809e-12
-5.48809e-12
-4.39047e-12
0.0219064
0.0624181
0.0938676
0.112732
0.118321
0.112473
0.0986189
0.0806449
0.0619588
0.0449636
0.0309483
0.0202705
0.0126687
0.00757279
0.00433826
0.00238611
0.00126206
0.000642867
0.000315784
0.000149769
6.86616e-05
3.04598e-05
1.30886e-05
5.45273e-06
2.20432e-06
8.65387e-07
3.30173e-07
1.22511e-07
4.42384e-08
1.55445e-08
5.33881e-09
1.79131e-09
5.79542e-10
1.98669e-10
5.1588e-11
1.97571e-11
8.78094e-12
7.68332e-12
0
1.64643e-11
0
2.63428e-11
-1.09762e-12
-5.48809e-12
1.4269e-11
1.09762e-12
1.31714e-11
0
6.58571e-12
1.09762e-12
0
0
0
0
1.09762e-12
-2.19523e-12
-1.09762e-12
-1.09762e-12
-1.09762e-12
2.19524e-12
-1.09762e-12
-8.78094e-12
-1.09762e-12
0
-8.78094e-12
-9.87856e-12
0
2.19523e-12
4.39047e-12
1.09762e-12
1.31714e-11
-4.39047e-12
3.29285e-12
-1.09762e-12
-1.09762e-12
0.0094823
0.0270383
0.0407203
0.0490044
0.051566
0.0491633
0.0432483
0.0354884
0.0273627
0.0199288
0.0137663
0.00904849
0.00567467
0.00340341
0.00195601
0.00107917
0.000572493
0.000292445
0.000144043
6.84941e-05
3.14793e-05
1.39983e-05
6.02885e-06
2.51715e-06
1.01976e-06
4.01173e-07
1.53358e-07
5.7019e-08
2.06144e-08
7.23879e-09
2.47623e-09
8.41873e-10
2.84283e-10
1.05371e-10
3.18309e-11
1.09762e-11
5.48809e-12
-8.78094e-12
1.64643e-11
9.87856e-12
4.39047e-12
-1.09762e-12
-1.20738e-11
0
1.53666e-11
-8.78094e-12
1.09762e-12
1.09762e-12
-2.19523e-12
-8.78094e-12
0
-1.09762e-12
0
1.09762e-12
3.29285e-12
3.29285e-12
1.86595e-11
0
2.19523e-12
0
0
-6.5857e-12
-1.09762e-12
3.29285e-12
0
-1.09762e-12
-7.68332e-12
0
0
1.09762e-12
-4.39047e-12
-8.78094e-12
0
0
-5.48809e-12
0.00399618
0.0114024
0.0171937
0.0207288
0.0218616
0.0208977
0.0184368
0.0151757
0.0117387
0.00857757
0.00594463
0.00392013
0.00246634
0.00148382
0.000855368
0.000473305
0.000251792
0.00012897
6.36891e-05
3.03604e-05
1.39868e-05
6.23398e-06
2.69081e-06
1.12585e-06
4.57024e-07
1.80157e-07
6.90006e-08
2.57018e-08
9.3056e-09
3.26102e-09
1.08445e-09
3.63311e-10
1.29519e-10
6.47594e-11
3.29285e-11
4.39047e-12
-7.68332e-12
-1.97571e-11
-2.19524e-12
-3.29285e-12
1.97571e-11
1.09762e-12
1.09762e-12
0
-5.48809e-12
-1.09762e-12
-1.09762e-11
-4.39047e-12
-4.39047e-12
0
0
2.19524e-12
-1.09762e-12
2.19524e-12
-1.09762e-12
-1.09762e-12
9.87856e-12
0
0
-2.19524e-12
3.29285e-12
8.78094e-12
0
-1.86595e-11
8.78094e-12
1.09762e-11
0
1.09762e-12
-4.39047e-12
0
-1.20738e-11
0
0
-3.29285e-12
2.19524e-12
0.00164001
0.00468213
0.00706801
0.0085347
0.00901912
0.00864163
0.0076439
0.00630944
0.00489476
0.0035874
0.00249376
0.00164946
0.00104085
0.000628039
0.000363075
0.000201458
0.00010746
5.51841e-05
2.73192e-05
1.30541e-05
6.02772e-06
2.69251e-06
1.16465e-06
4.8831e-07
1.98595e-07
7.84379e-08
3.01e-08
1.12286e-08
4.06887e-09
1.42032e-09
4.6978e-10
1.56959e-10
6.69547e-11
4.39047e-11
3.40261e-11
1.86595e-11
1.97571e-11
1.31714e-11
4.39047e-12
-9.87856e-12
1.31714e-11
-6.58571e-12
1.09762e-12
-2.19523e-12
0
9.87856e-12
-1.09762e-12
0
0
7.68332e-12
0
1.09762e-12
0
1.09762e-12
-1.09762e-12
-2.19523e-12
-1.86595e-11
-7.68332e-12
-1.09762e-12
0
-1.09762e-12
1.09762e-11
1.09762e-12
-2.19524e-12
-1.09762e-12
-4.39047e-12
9.87856e-12
-1.09762e-12
2.19524e-12
-2.19524e-12
3.29285e-12
0
-2.19524e-12
3.29285e-12
-8.78094e-12
0.000655571
0.00187257
0.00282955
0.00342154
0.00362221
0.00347791
0.00308361
0.00255176
0.00198492
0.00145879
0.00101692
0.000674517
0.00042683
0.000258254
0.000149702
8.3283e-05
4.45374e-05
2.29277e-05
1.13775e-05
5.44901e-06
2.5216e-06
1.12875e-06
4.89249e-07
2.05544e-07
8.3768e-08
3.31327e-08
1.27455e-08
4.75049e-09
1.73643e-09
6.11373e-10
2.14035e-10
5.92713e-11
3.40261e-11
9.87856e-12
2.41476e-11
2.63428e-11
3.40261e-11
3.07333e-11
1.31714e-11
9.87856e-12
-1.4269e-11
-7.68332e-12
4.39047e-12
0
4.39047e-12
0
2.19523e-12
0
-1.09762e-12
2.19523e-12
1.09762e-12
-2.19523e-12
7.68332e-12
-3.29285e-12
-2.19523e-12
5.48809e-12
-7.68332e-12
1.20738e-11
1.09762e-12
0
1.09762e-12
-2.19523e-12
-1.09762e-12
1.31714e-11
0
1.31714e-11
0
-2.19523e-12
0
1.09762e-12
4.39047e-12
-2.19523e-12
0
2.19523e-12
-1.09762e-12
0.000255325
0.000729644
0.0011035
0.00133606
0.00141671
0.00136287
0.00121095
0.00100443
0.000783245
0.000577109
0.000403355
0.00026825
0.000170194
0.000103245
6.00011e-05
3.34638e-05
1.79391e-05
9.25678e-06
4.60399e-06
2.20983e-06
1.02478e-06
4.59658e-07
1.99639e-07
8.40237e-08
3.43159e-08
1.36006e-08
5.23015e-09
1.95376e-09
7.31013e-10
2.63428e-10
9.7688e-11
2.19523e-11
-1.75619e-11
-1.4269e-11
5.48809e-12
1.64643e-11
2.305e-11
2.74404e-11
1.20738e-11
2.52452e-11
-2.19523e-12
8.78094e-12
-3.29285e-12
2.19523e-12
2.19524e-12
-1.09762e-12
-1.09762e-12
-5.48809e-12
-2.19524e-12
2.19523e-12
-7.68332e-12
-7.68332e-12
-1.09762e-12
0
-1.31714e-11
6.5857e-12
1.09762e-12
1.09762e-11
0
-1.09762e-12
1.09762e-12
0
-1.09762e-12
4.39047e-12
3.29285e-12
4.39047e-12
-9.87856e-12
0
-1.09762e-12
1.09762e-12
1.09762e-12
1.09762e-12
0
1.09762e-12
1.31714e-11
9.69185e-05
0.00027708
0.000419384
0.000508356
0.000539835
0.000520228
0.000463154
0.000384996
0.000300905
0.000222243
0.000155713
0.000103814
6.60304e-05
4.01553e-05
2.33935e-05
1.30782e-05
7.02727e-06
3.63439e-06
1.81158e-06
8.71326e-07
4.04894e-07
1.81965e-07
7.91525e-08
3.33775e-08
1.36642e-08
5.44309e-09
2.10633e-09
7.95773e-10
2.79892e-10
9.7688e-11
3.40261e-11
1.97571e-11
-1.09762e-11
-9.87856e-12
2.19523e-11
3.18309e-11
3.29285e-11
2.19524e-11
3.18309e-11
3.84166e-11
3.7319e-11
2.08547e-11
-5.48809e-12
0
0
1.53666e-11
-1.09762e-12
1.09762e-12
0
-1.09762e-12
-1.09762e-12
-3.29285e-12
-7.68332e-12
1.09762e-12
1.09762e-12
-4.39047e-12
0
-3.29285e-12
-2.19523e-12
2.19524e-12
-1.09762e-12
2.19523e-12
0
6.58571e-12
-2.19523e-12
-1.31714e-11
2.19524e-12
1.09762e-12
0
-1.09762e-12
7.68332e-12
3.29285e-12
0
3.29285e-12
-4.39047e-12
3.5868e-05
0.000102582
0.00015538
0.000188544
0.000200491
0.000193521
0.000172607
0.000143768
0.000112608
8.33577e-05
5.85396e-05
3.91208e-05
2.49417e-05
1.52038e-05
8.8781e-06
4.97479e-06
2.67909e-06
1.38863e-06
6.93636e-07
3.34293e-07
1.55648e-07
7.00752e-08
3.0528e-08
1.29091e-08
5.2993e-09
2.09864e-09
8.37482e-10
3.38066e-10
1.14152e-10
5.04904e-11
3.51238e-11
2.85381e-11
3.18309e-11
3.29285e-11
3.95142e-11
1.64643e-11
7.68332e-12
-9.87856e-12
7.68332e-12
3.29285e-12
2.19523e-11
1.20738e-11
5.48809e-12
1.09762e-12
-1.09762e-12
2.19523e-12
1.09762e-12
9.87856e-12
1.09762e-12
-2.19523e-12
7.68332e-12
6.5857e-12
2.19523e-12
-2.19523e-12
1.4269e-11
-6.5857e-12
-1.09762e-12
-3.29285e-12
1.09762e-12
2.19523e-12
-1.09762e-12
-2.19523e-12
2.19523e-12
-1.20738e-11
-3.29285e-12
-1.09762e-12
0
1.09762e-12
1.09762e-12
0
-7.68332e-12
0
-4.39047e-12
-1.4269e-11
-1.09762e-12
1.29463e-05
3.70396e-05
5.61416e-05
6.81913e-05
7.26038e-05
7.01857e-05
6.27081e-05
5.233e-05
4.10714e-05
3.0468e-05
2.14441e-05
1.4363e-05
9.1781e-06
5.60749e-06
3.28182e-06
1.84302e-06
9.94707e-07
5.16658e-07
2.58601e-07
1.24897e-07
5.82517e-08
2.62484e-08
1.14745e-08
4.85257e-09
1.96693e-09
7.7382e-10
3.00747e-10
1.28421e-10
7.57356e-11
4.50023e-11
2.52452e-11
2.19523e-11
3.07333e-11
4.28071e-11
1.31714e-11
-5.48809e-12
-1.4269e-11
-2.74404e-11
-2.96357e-11
-2.96357e-11
-2.305e-11
-1.4269e-11
2.19524e-12
0
-4.39047e-12
-1.64643e-11
1.09762e-12
1.09762e-12
1.09762e-11
0
-1.09762e-12
3.29285e-12
-6.5857e-12
0
-2.19524e-12
0
0
-7.68332e-12
4.39047e-12
-3.29285e-12
0
-1.09762e-12
-5.48809e-12
-2.08547e-11
2.19523e-12
0
-2.19524e-12
-3.29285e-12
1.09762e-12
-1.09762e-12
1.09762e-12
-2.19524e-12
0
0
1.31714e-11
4.5592e-06
1.30484e-05
1.97903e-05
2.406e-05
2.56473e-05
2.48284e-05
2.22192e-05
1.85753e-05
1.46071e-05
1.08581e-05
7.65838e-06
5.14065e-06
3.29214e-06
2.01581e-06
1.18233e-06
6.6542e-07
3.59895e-07
1.87312e-07
9.39198e-08
4.54545e-08
2.12301e-08
9.5833e-09
4.18192e-09
1.74302e-09
6.88206e-10
2.59038e-10
7.90285e-11
1.64643e-11
1.20738e-11
2.63428e-11
2.305e-11
1.53666e-11
5.48809e-12
-7.68332e-12
-2.305e-11
-7.68332e-12
-3.62214e-11
-1.09762e-11
-2.85381e-11
-1.53666e-11
-3.07333e-11
-2.19524e-11
-5.48809e-12
0
0
1.09762e-12
6.5857e-12
-2.19524e-12
8.78094e-12
-2.19523e-12
-1.09762e-12
1.09762e-12
0
3.29285e-12
0
-1.09762e-12
0
0
-1.09762e-12
0
0
3.29285e-12
-1.09762e-12
7.68332e-12
0
-1.09762e-12
0
0
6.58571e-12
4.39047e-12
6.5857e-12
-1.97571e-11
2.19524e-12
1.09762e-11
0
1.5672e-06
4.4864e-06
6.80848e-06
8.2846e-06
8.84106e-06
8.57035e-06
7.68157e-06
6.43282e-06
5.06797e-06
3.77464e-06
2.66776e-06
1.79449e-06
1.15163e-06
7.06645e-07
4.15335e-07
2.34243e-07
1.26952e-07
6.62061e-08
3.32534e-08
1.61361e-08
7.56149e-09
3.42018e-09
1.48178e-09
6.20154e-10
2.305e-10
6.0369e-11
8.78094e-12
-1.97571e-11
-1.75619e-11
1.09762e-12
-1.09762e-12
-2.19523e-12
-7.68332e-12
-2.85381e-11
-3.40261e-11
-3.07333e-11
-4.93928e-11
-1.20738e-11
-1.53666e-11
-1.20738e-11
-9.87856e-12
-8.78094e-12
-2.19523e-12
1.09762e-12
0
0
1.75619e-11
0
-1.09762e-11
0
2.19523e-12
0
2.08547e-11
0
0
0
8.78094e-12
0
-1.09762e-12
-2.19523e-12
-1.09762e-12
1.09762e-12
4.39047e-12
1.86595e-11
1.09762e-12
0
-1.09762e-12
1.31714e-11
0
1.09762e-12
-7.68332e-12
0
0
0
-7.68332e-12
5.26005e-07
1.50607e-06
2.28685e-06
2.78495e-06
2.9751e-06
2.88774e-06
2.59212e-06
2.1743e-06
1.71606e-06
1.28058e-06
9.0688e-07
6.11254e-07
3.9309e-07
2.4169e-07
1.42362e-07
8.04323e-08
4.3672e-08
2.27942e-08
1.15019e-08
5.58687e-09
2.6255e-09
1.17994e-09
5.1588e-10
2.15133e-10
8.34189e-11
1.97571e-11
-1.31714e-11
-2.74404e-11
-2.305e-11
-3.95142e-11
-3.62214e-11
-2.74404e-11
-1.75619e-11
-2.19524e-11
-3.07333e-11
-2.85381e-11
-2.41476e-11
-1.86595e-11
-4.39047e-12
-5.48809e-12
-9.87856e-12
1.09762e-12
2.19524e-12
-2.19523e-12
0
-1.09762e-12
2.19523e-12
0
-7.68332e-12
2.19523e-12
-2.19524e-12
-1.31714e-11
-1.09762e-12
-2.19524e-12
1.09762e-12
3.29285e-12
7.68332e-12
-1.20738e-11
-1.09762e-12
2.19524e-12
-1.09762e-12
-5.48809e-12
-3.29285e-12
0
0
2.19524e-12
1.09762e-12
0
-8.78094e-12
4.39047e-12
1.09762e-12
2.41476e-11
2.19524e-12
4.39047e-12
0
1.72466e-07
4.93998e-07
7.5045e-07
9.14623e-07
9.78058e-07
9.50464e-07
8.54407e-07
7.17842e-07
5.67535e-07
4.24318e-07
3.01095e-07
2.0334e-07
1.31031e-07
8.07298e-08
4.76596e-08
2.69597e-08
1.46323e-08
7.63942e-09
3.8702e-09
1.87363e-09
8.87973e-10
4.12704e-10
1.75619e-10
5.81737e-11
3.18309e-11
1.4269e-11
4.39047e-12
-1.09762e-12
-1.75619e-11
-2.63428e-11
-1.86595e-11
-3.18309e-11
-1.53666e-11
-2.08547e-11
-3.95142e-11
-1.53666e-11
5.48809e-12
-1.20738e-11
6.58571e-12
0
-2.19523e-11
-3.29285e-12
1.09762e-12
-2.19523e-12
0
0
-1.86595e-11
0
-1.09762e-12
-1.09762e-12
-4.39047e-12
-5.48809e-12
-1.4269e-11
2.19524e-12
2.19524e-12
0
-8.78094e-12
-1.64643e-11
-8.78094e-12
-1.20738e-11
-3.29285e-12
-1.09762e-12
1.09762e-12
-2.19524e-12
-1.09762e-12
-1.09762e-11
1.09762e-12
-6.5857e-12
-1.09762e-12
-1.09762e-12
-2.19523e-12
0
-9.87856e-12
0
5.48809e-12
5.52233e-08
1.58206e-07
2.40413e-07
2.9329e-07
3.14004e-07
3.05476e-07
2.75001e-07
2.31437e-07
1.83286e-07
1.37281e-07
9.75749e-08
6.60129e-08
4.26238e-08
2.63121e-08
1.55642e-08
8.81277e-09
4.79439e-09
2.52452e-09
1.26006e-09
6.28935e-10
3.12821e-10
1.63545e-10
8.78094e-11
4.71976e-11
2.52452e-11
1.4269e-11
3.18309e-11
2.74404e-11
2.74404e-11
7.68332e-12
-1.4269e-11
-3.84166e-11
-3.95142e-11
-1.09762e-11
-1.97571e-11
-1.75619e-11
-2.19523e-12
-2.41476e-11
-2.19523e-11
-1.64643e-11
-2.19523e-12
0
4.39047e-12
4.39047e-12
-2.19523e-12
0
-9.87856e-12
-1.09762e-12
1.09762e-12
-4.39047e-12
1.09762e-12
1.31714e-11
1.09762e-12
0
-3.29285e-12
6.5857e-12
-7.68332e-12
7.68332e-12
-8.78094e-12
-2.19523e-12
-1.31714e-11
5.48809e-12
4.39047e-12
-7.68332e-12
1.09762e-12
-1.09762e-12
-1.09762e-12
1.09762e-12
2.19523e-12
-8.78094e-12
-1.31714e-11
-4.39047e-12
-6.5857e-12
-7.68332e-12
-1.09762e-12
1.72458e-08
4.94543e-08
7.51605e-08
9.17652e-08
9.83729e-08
9.58198e-08
8.63847e-08
7.28247e-08
5.77665e-08
4.33449e-08
3.08518e-08
2.09118e-08
1.35369e-08
8.39458e-09
4.9766e-09
2.82527e-09
1.54435e-09
8.05651e-10
3.98435e-10
2.15133e-10
1.07567e-10
5.26856e-11
4.60999e-11
3.84166e-11
3.07333e-11
3.29285e-11
2.08547e-11
1.53666e-11
2.74404e-11
5.48809e-12
8.78094e-12
-7.68332e-12
-2.63428e-11
1.09762e-12
-5.48809e-12
-2.305e-11
-2.08547e-11
-2.41476e-11
-3.07333e-11
-1.97571e-11
2.19523e-12
-3.29285e-12
-1.09762e-12
-4.39047e-12
5.48809e-12
-8.78094e-12
0
-1.31714e-11
-1.09762e-12
1.09762e-12
0
1.09762e-12
-1.09762e-12
-1.31714e-11
-1.09762e-12
4.39047e-12
0
4.39047e-12
1.86595e-11
1.31714e-11
4.39047e-12
2.19523e-12
0
2.19524e-12
0
1.09762e-11
-2.19524e-12
0
0
5.48809e-12
8.78094e-12
0
9.87856e-12
2.19523e-12
-6.58571e-12
5.3432e-09
1.52393e-08
2.32256e-08
2.83339e-08
3.03996e-08
2.96532e-08
2.67885e-08
2.26197e-08
1.79669e-08
1.35029e-08
9.64257e-09
6.55936e-09
4.24778e-09
2.65294e-09
1.57947e-09
8.95656e-10
4.87342e-10
2.46964e-10
1.31714e-10
4.06118e-11
2.74404e-11
2.63428e-11
8.78094e-12
6.58571e-12
1.09762e-11
4.71976e-11
3.18309e-11
2.96357e-11
2.63428e-11
2.305e-11
2.74404e-11
3.29285e-11
3.18309e-11
-1.09762e-12
1.86595e-11
-2.19524e-12
1.20738e-11
1.20738e-11
1.97571e-11
0
2.08547e-11
6.58571e-12
2.19524e-12
-1.64643e-11
1.09762e-12
2.19524e-12
0
0
-2.19524e-12
-4.39047e-12
1.09762e-12
3.29285e-12
0
-2.19524e-12
2.19524e-12
-2.305e-11
-1.09762e-12
0
7.68332e-12
1.09762e-12
1.4269e-11
-2.19523e-12
-1.09762e-12
-1.09762e-12
-4.39047e-12
1.09762e-12
-1.09762e-12
1.20738e-11
0
0
2.08547e-11
9.87856e-12
6.58571e-12
4.39047e-12
0
1.58935e-09
4.49145e-09
6.87987e-09
8.41434e-09
9.03998e-09
8.85997e-09
8.00602e-09
6.76132e-09
5.3893e-09
4.04253e-09
2.88344e-09
1.97791e-09
1.27214e-09
7.81504e-10
4.66487e-10
2.83185e-10
1.71228e-10
1.16347e-10
6.36618e-11
2.63428e-11
2.19523e-11
1.97571e-11
8.78094e-12
1.20738e-11
1.97571e-11
3.07333e-11
4.28071e-11
6.14666e-11
4.93928e-11
5.37833e-11
3.62214e-11
4.71976e-11
4.06118e-11
1.09762e-11
3.84166e-11
1.86595e-11
1.97571e-11
3.51238e-11
1.64643e-11
-5.48809e-12
3.07333e-11
-1.20738e-11
5.48809e-12
9.87856e-12
0
8.78094e-12
9.87856e-12
2.305e-11
2.19523e-12
-6.5857e-12
4.39047e-12
6.5857e-12
1.53666e-11
2.08547e-11
1.09762e-12
5.48809e-12
4.39047e-12
1.4269e-11
-1.09762e-11
0
0
-2.19523e-12
-1.09762e-12
0
-3.29285e-12
0
4.39047e-12
-4.39047e-12
-2.19523e-12
-1.31714e-11
-5.48809e-12
6.5857e-12
-1.09762e-12
-5.48809e-12
2.19523e-12
3.86361e-10
1.19421e-09
1.78253e-09
2.20841e-09
2.43013e-09
2.42573e-09
2.23255e-09
1.89668e-09
1.51471e-09
1.13274e-09
8.12237e-10
5.66371e-10
3.75385e-10
2.32695e-10
1.51471e-10
9.21999e-11
6.5857e-11
5.48809e-11
1.31714e-11
1.64643e-11
1.31714e-11
-7.68332e-12
7.68332e-12
2.63428e-11
3.62214e-11
2.08547e-11
3.84166e-11
4.17095e-11
2.85381e-11
3.51238e-11
2.85381e-11
2.63428e-11
2.19524e-11
2.41476e-11
-1.09762e-12
-3.29285e-12
-8.78094e-12
1.09762e-11
-7.68332e-12
6.58571e-12
-5.48809e-12
-9.87856e-12
-2.19524e-12
1.86595e-11
1.09762e-12
-1.09762e-12
2.19523e-12
-1.09762e-12
1.09762e-12
8.78094e-12
1.09762e-12
4.39047e-12
1.4269e-11
1.09762e-12
-2.19524e-12
1.4269e-11
1.31714e-11
2.19524e-12
2.19523e-12
0
0
-2.19523e-12
2.19524e-12
8.78094e-12
3.29285e-12
-1.09762e-12
0
-1.20738e-11
1.09762e-12
0
-1.64643e-11
-9.87856e-12
1.09762e-12
-7.68332e-12
0
1.09762e-10
4.25876e-10
6.89304e-10
8.27604e-10
9.46146e-10
9.37365e-10
8.82484e-10
7.35404e-10
6.02592e-10
4.4673e-10
3.32578e-10
2.19524e-10
1.49276e-10
1.02078e-10
7.13451e-11
4.60999e-11
3.07333e-11
4.39047e-12
-7.68332e-12
-3.62214e-11
-1.64643e-11
-1.20738e-11
-9.87856e-12
7.68332e-12
7.68332e-12
2.305e-11
2.305e-11
3.29285e-12
4.39047e-12
2.63428e-11
2.305e-11
9.87856e-12
-1.20738e-11
-3.29285e-12
-2.19523e-11
-5.48809e-12
-9.87856e-12
6.58571e-12
1.20738e-11
3.51238e-11
2.19523e-12
2.52452e-11
-1.4269e-11
-4.39047e-12
1.09762e-12
0
-1.09762e-11
-7.68332e-12
0
5.48809e-12
0
-2.19524e-12
-1.4269e-11
-8.78094e-12
0
-2.08547e-11
-4.39047e-12
-4.39047e-12
1.09762e-12
0
0
-2.19523e-12
4.39047e-12
0
5.48809e-12
0
-1.09762e-12
0
6.58571e-12
1.53666e-11
5.48809e-12
-5.48809e-12
-8.78094e-12
1.09762e-12
-4.39047e-12
6.14666e-11
1.75619e-10
2.19523e-10
2.48062e-10
2.70014e-10
2.59038e-10
2.04157e-10
1.71228e-10
1.31714e-10
7.57356e-11
5.70761e-11
3.51238e-11
1.75619e-11
2.19523e-11
8.78094e-12
1.64643e-11
4.39047e-12
-1.64643e-11
-5.48809e-12
-2.96357e-11
-4.39047e-11
-2.08547e-11
-6.5857e-12
-1.75619e-11
-7.68332e-12
9.87856e-12