/*--------------------------------*- C++ -*----------------------------------*\
  =========                 |
  \\      /  F ield         | OpenFOAM: The Open Source CFD Toolbox
   \\    /   O peration     | Website:  https://openfoam.org
    \\  /    A nd           | Version:  10
     \\/     M anipulation  |
\*---------------------------------------------------------------------------*/
FoamFile
{
    format      ascii;
    class       volScalarField;
    location    "220";
    object      T;
}
// * * * * * * * * * * * * * * * * * * * * * * * * * * * * * * * * * * * * * //

dimensions      [0 0 0 1 0 0 0];

internalField   nonuniform List<scalar> 
11250
(
249.758
167.306
138.95
126.385
119.476
115.061
111.956
109.636
107.833
106.393
105.225
104.267
103.477
102.822
102.281
101.834
101.466
101.164
100.919
100.72
100.56
100.432
100.331
100.252
100.19
100.142
100.105
100.077
100.057
100.041
100.029
100.021
100.015
100.01
100.007
100.005
100.003
100.002
100.002
100.001
100.001
100
100
100
100
100
100
100
100
100
100
100
100
100
100
100
100
100
100
100
100
100
100
100
100
100
100
100
100
100
100
100
100
100
100
331.248
247.838
201.081
173.533
155.973
143.918
135.135
128.447
123.191
118.968
115.525
112.692
110.349
108.407
106.798
105.468
104.372
103.474
102.742
102.149
101.672
101.291
100.989
100.752
100.567
100.424
100.315
100.231
100.169
100.122
100.088
100.062
100.044
100.031
100.021
100.015
100.01
100.007
100.004
100.003
100.002
100.001
100.001
100.001
100
100
100
100
100
100
100
100
100
100
100
100
100
100
100
100
100
100
100
100
100
100
100
100
100
100
100
100
100
100
100
358.656
291.761
244.076
210.788
187.084
169.641
156.374
145.992
137.689
130.939
125.391
120.799
116.986
113.815
111.182
109.001
107.202
105.726
104.521
103.545
102.759
102.131
101.633
101.242
100.937
100.701
100.52
100.383
100.279
100.202
100.145
100.103
100.073
100.051
100.035
100.024
100.016
100.011
100.007
100.005
100.003
100.002
100.001
100.001
100.001
100
100
100
100
100
100
100
100
100
100
100
100
100
100
100
100
100
100
100
100
100
100
100
100
100
100
100
100
100
100
370.297
316.547
272.79
238.619
212.132
191.419
174.98
161.733
150.918
141.999
134.591
128.413
123.253
118.945
115.355
112.374
109.911
107.885
106.23
104.887
103.806
102.941
102.255
101.715
101.294
100.968
100.719
100.529
100.386
100.279
100.2
100.142
100.1
100.07
100.049
100.033
100.023
100.015
100.01
100.007
100.004
100.003
100.002
100.001
100.001
100
100
100
100
100
100
100
100
100
100
100
100
100
100
100
100
100
100
100
100
100
100
100
100
100
100
100
100
100
100
376.315
331.441
292.08
258.989
231.679
209.239
190.746
175.422
162.648
151.951
142.964
135.405
129.05
123.716
119.255
115.539
112.459
109.923
107.847
106.16
104.799
103.71
102.846
102.166
101.635
101.224
100.908
100.669
100.488
100.353
100.253
100.18
100.127
100.089
100.062
100.042
100.029
100.019
100.013
100.009
100.006
100.004
100.002
100.002
100.001
100.001
100
100
100
100
100
100
100
100
100
100
100
100
100
100
100
100
100
100
100
100
100
100
100
100
100
100
100
100
100
379.878
340.949
305.306
273.858
246.704
223.513
203.793
187.041
172.805
160.704
150.422
141.695
134.307
128.073
122.835
118.457
114.819
111.815
109.352
107.348
105.729
104.432
103.401
102.589
101.955
101.464
101.087
100.801
100.585
100.423
100.304
100.216
100.152
100.107
100.074
100.051
100.035
100.023
100.016
100.01
100.007
100.004
100.003
100.002
100.001
100.001
100
100
100
100
100
100
100
100
100
100
100
100
100
100
100
100
100
100
100
100
100
100
100
100
100
100
100
100
100
382.177
347.322
314.586
284.769
258.184
234.802
214.41
196.721
181.431
168.256
156.938
147.249
138.989
131.981
126.066
121.104
116.969
113.546
110.734
108.441
106.586
105.099
103.916
102.983
102.253
101.688
101.254
100.924
100.675
100.489
100.351
100.25
100.176
100.123
100.085
100.059
100.04
100.027
100.018
100.012
100.008
100.005
100.003
100.002
100.001
100.001
100.001
100
100
100
100
100
100
100
100
100
100
100
100
100
100
100
100
100
100
100
100
100
100
100
100
100
100
100
100
383.742
351.755
321.234
292.842
266.943
243.66
222.949
204.672
188.644
174.665
162.538
152.074
143.093
135.432
128.938
123.47
118.899
115.106
111.983
109.432
107.366
105.707
104.386
103.342
102.526
101.894
101.407
101.037
100.758
100.549
100.394
100.281
100.198
100.138
100.096
100.066
100.045
100.03
100.02
100.013
100.009
100.006
100.004
100.002
100.002
100.001
100.001
100
100
100
100
100
100
100
100
100
100
100
100
100
100
100
100
100
100
100
100
100
100
100
100
100
100
100
100
384.847
354.922
326.078
298.861
273.633
250.58
229.759
211.13
194.597
180.029
167.282
156.202
146.635
138.434
131.452
125.553
120.606
116.492
113.097
110.32
108.066
106.254
104.809
103.668
102.774
102.08
101.546
101.14
100.833
100.604
100.434
100.309
100.218
100.153
100.106
100.073
100.05
100.033
100.022
100.015
100.01
100.006
100.004
100.003
100.002
100.001
100.001
100
100
100
100
100
100
100
100
100
100
100
100
100
100
100
100
100
100
100
100
100
100
100
100
100
100
100
100
385.645
357.228
329.654
303.382
278.749
255.97
235.155
216.329
199.457
184.465
171.249
159.688
149.652
141.009
133.623
127.362
122.097
117.707
114.078
111.104
108.687
106.74
105.187
103.958
102.995
102.247
101.671
101.233
100.901
100.653
100.469
100.334
100.236
100.165
100.115
100.079
100.054
100.036
100.024
100.016
100.011
100.007
100.004
100.003
100.002
100.001
100.001
100
100
100
100
100
100
100
100
100
100
100
100
100
100
100
100
100
100
100
100
100
100
100
100
100
100
100
100
386.231
358.929
332.319
306.794
282.666
260.158
239.408
220.482
203.39
188.095
174.527
162.595
152.19
143.191
135.474
128.913
123.381
118.759
114.93
111.787
109.229
107.166
105.518
104.214
103.19
102.395
101.782
101.315
100.962
100.697
100.501
100.357
100.252
100.177
100.122
100.084
100.057
100.039
100.026
100.017
100.011
100.007
100.005
100.003
100.002
100.001
100.001
100
100
100
100
100
100
100
100
100
100
100
100
100
100
100
100
100
100
100
100
100
100
100
100
100
100
100
100
386.665
360.197
334.319
309.38
285.668
263.405
242.745
223.779
206.545
191.037
177.21
164.994
154.299
145.017
137.033
130.226
124.474
119.658
115.662
112.375
109.698
107.536
105.807
104.436
103.36
102.524
101.879
101.387
101.015
100.736
100.529
100.377
100.266
100.187
100.129
100.089
100.061
100.041
100.028
100.018
100.012
100.008
100.005
100.003
100.002
100.001
100.001
100.001
100
100
100
100
100
100
100
100
100
100
100
100
100
100
100
100
100
100
100
100
100
100
100
100
100
100
100
386.99
361.147
335.827
311.343
287.968
265.917
245.352
226.38
209.058
193.401
179.384
166.953
156.033
146.528
138.33
131.325
125.393
120.417
116.282
112.876
110.097
107.852
106.054
104.628
103.507
102.635
101.963
101.449
101.061
100.77
100.553
100.395
100.279
100.195
100.136
100.093
100.064
100.043
100.029
100.019
100.013
100.008
100.005
100.003
100.002
100.001
100.001
100.001
100
100
100
100
100
100
100
100
100
100
100
100
100
100
100
100
100
100
100
100
100
100
100
100
100
100
100
387.233
361.862
336.965
312.835
289.727
267.854
247.379
228.42
211.046
195.285
181.129
168.538
157.445
147.765
139.399
132.234
126.157
121.051
116.801
113.297
110.435
108.119
106.264
104.791
103.632
102.73
102.035
101.503
101.1
100.799
100.574
100.41
100.29
100.203
100.141
100.097
100.066
100.045
100.03
100.02
100.013
100.009
100.006
100.004
100.002
100.001
100.001
100.001
100
100
100
100
100
100
100
100
100
100
100
100
100
100
100
100
100
100
100
100
100
100
100
100
100
100
100
387.417
362.4
337.826
313.968
291.072
269.344
248.95
230.011
212.607
196.775
182.519
169.807
158.583
148.769
140.269
132.979
126.786
121.575
117.232
113.647
110.716
108.343
106.44
104.928
103.738
102.811
102.095
101.548
101.134
100.823
100.592
100.422
100.299
100.209
100.145
100.1
100.068
100.046
100.031
100.021
100.014
100.009
100.006
100.004
100.002
100.001
100.001
100.001
100
100
100
100
100
100
100
100
100
100
100
100
100
100
100
100
100
100
100
100
100
100
100
100
100
100
100
387.555
362.805
338.476
314.828
292.096
270.485
250.16
231.245
213.825
197.946
183.617
170.816
159.492
149.574
140.971
133.582
127.297
122.002
117.585
113.935
110.948
108.528
106.586
105.041
103.826
102.878
102.146
101.586
101.162
100.844
100.607
100.433
100.306
100.215
100.149
100.103
100.07
100.047
100.032
100.021
100.014
100.009
100.006
100.004
100.002
100.002
100.001
100.001
100
100
100
100
100
100
100
100
100
100
100
100
100
100
100
100
100
100
100
100
100
100
100
100
100
100
100
387.658
363.111
338.966
315.478
292.875
271.356
251.088
232.196
214.769
198.858
184.477
171.61
160.211
150.214
141.532
134.066
127.708
122.347
117.871
114.169
111.138
108.68
106.705
105.135
103.898
102.933
102.188
101.618
101.185
100.861
100.62
100.442
100.313
100.219
100.152
100.105
100.072
100.048
100.032
100.022
100.014
100.009
100.006
100.004
100.002
100.002
100.001
100.001
100
100
100
100
100
100
100
100
100
100
100
100
100
100
100
100
100
100
100
100
100
100
100
100
100
100
100
387.736
363.34
339.335
315.968
293.463
272.018
251.796
232.925
215.496
199.563
185.145
172.23
160.776
150.719
141.976
134.45
128.036
122.624
118.101
114.358
111.291
108.802
106.802
105.211
103.957
102.979
102.222
101.643
101.205
100.875
100.63
100.45
100.318
100.223
100.155
100.107
100.073
100.049
100.033
100.022
100.014
100.009
100.006
100.004
100.002
100.002
100.001
100.001
100
100
100
100
100
100
100
100
100
100
100
100
100
100
100
100
100
100
100
100
100
100
100
100
100
100
100
387.794
363.511
339.611
316.336
293.907
272.518
252.333
233.48
216.052
200.105
185.661
172.71
161.215
151.113
142.324
134.753
128.295
122.843
118.283
114.508
111.413
108.9
106.88
105.272
104.005
103.015
102.25
101.664
101.22
100.887
100.639
100.456
100.322
100.226
100.157
100.108
100.074
100.05
100.034
100.022
100.015
100.01
100.006
100.004
100.003
100.002
100.001
100.001
100
100
100
100
100
100
100
100
100
100
100
100
100
100
100
100
100
100
100
100
100
100
100
100
100
100
100
387.837
363.639
339.818
316.612
294.24
272.894
252.738
233.901
216.475
200.518
186.056
173.08
161.553
151.418
142.594
134.988
128.498
123.014
118.427
114.626
111.509
108.978
106.942
105.321
104.043
103.044
102.272
101.681
101.233
100.896
100.645
100.461
100.326
100.229
100.159
100.109
100.075
100.051
100.034
100.023
100.015
100.01
100.006
100.004
100.003
100.002
100.001
100.001
100
100
100
100
100
100
100
100
100
100
100
100
100
100
100
100
100
100
100
100
100
100
100
100
100
100
100
387.869
363.734
339.971
316.817
294.488
273.175
253.042
234.217
216.793
200.831
186.356
173.361
161.812
151.652
142.802
135.17
128.655
123.148
118.538
114.719
111.585
109.039
106.991
105.36
104.073
103.068
102.29
101.695
101.243
100.903
100.651
100.465
100.329
100.231
100.16
100.11
100.075
100.051
100.034
100.023
100.015
100.01
100.006
100.004
100.003
100.002
100.001
100.001
100
100
100
100
100
100
100
100
100
100
100
100
100
100
100
100
100
100
100
100
100
100
100
100
100
100
100
387.893
363.804
340.085
316.969
294.672
273.385
253.269
234.453
217.032
201.067
186.582
173.574
162.009
151.83
142.961
135.31
128.775
123.25
118.625
114.791
111.644
109.087
107.029
105.39
104.096
103.086
102.304
101.705
101.251
100.909
100.655
100.468
100.331
100.232
100.161
100.111
100.076
100.051
100.034
100.023
100.015
100.01
100.006
100.004
100.003
100.002
100.001
100.001
100
100
100
100
100
100
100
100
100
100
100
100
100
100
100
100
100
100
100
100
100
100
100
100
100
100
100
387.911
363.855
340.168
317.081
294.808
273.539
253.436
234.628
217.21
201.242
186.751
173.733
162.156
151.964
143.081
135.415
128.867
123.328
118.691
114.845
111.689
109.123
107.058
105.413
104.114
103.1
102.315
101.713
101.257
100.914
100.658
100.47
100.333
100.233
100.162
100.112
100.076
100.052
100.035
100.023
100.015
100.01
100.006
100.004
100.003
100.002
100.001
100.001
100
100
100
100
100
100
100
100
100
100
100
100
100
100
100
100
100
100
100
100
100
100
100
100
100
100
100
387.923
363.893
340.229
317.162
294.907
273.652
253.56
234.758
217.341
201.372
186.877
173.852
162.267
152.065
143.171
135.495
128.936
123.387
118.74
114.887
111.723
109.151
107.081
105.431
104.128
103.111
102.323
101.719
101.261
100.917
100.661
100.472
100.334
100.234
100.163
100.112
100.077
100.052
100.035
100.023
100.015
100.01
100.006
100.004
100.003
100.002
100.001
100.001
100
100
100
100
100
100
100
100
100
100
100
100
100
100
100
100
100
100
100
100
100
100
100
100
100
100
100
387.932
363.92
340.273
317.222
294.979
273.735
253.65
234.852
217.438
201.467
186.969
173.94
162.348
152.139
143.238
135.554
128.987
123.432
118.778
114.918
111.749
109.172
107.098
105.444
104.139
103.119
102.329
101.724
101.265
100.92
100.663
100.473
100.335
100.235
100.163
100.113
100.077
100.052
100.035
100.023
100.015
100.01
100.006
100.004
100.003
100.002
100.001
100.001
100
100
100
100
100
100
100
100
100
100
100
100
100
100
100
100
100
100
100
100
100
100
100
100
100
100
100
387.939
363.94
340.305
317.265
295.032
273.795
253.715
234.921
217.508
201.537
187.037
174.004
162.408
152.194
143.287
135.597
129.026
123.464
118.806
114.941
111.768
109.188
107.11
105.454
104.147
103.125
102.334
101.728
101.268
100.922
100.664
100.475
100.336
100.236
100.164
100.113
100.077
100.052
100.035
100.023
100.015
100.01
100.006
100.004
100.003
100.002
100.001
100.001
100
100
100
100
100
100
100
100
100
100
100
100
100
100
100
100
100
100
100
100
100
100
100
100
100
100
100
387.944
363.954
340.328
317.296
295.069
273.838
253.762
234.97
217.558
201.587
187.086
174.051
162.452
152.234
143.323
135.629
129.053
123.489
118.826
114.959
111.782
109.199
107.12
105.462
104.153
103.13
102.338
101.731
101.27
100.923
100.665
100.475
100.336
100.236
100.164
100.113
100.077
100.052
100.035
100.023
100.015
100.01
100.006
100.004
100.003
100.002
100.001
100.001
100
100
100
100
100
100
100
100
100
100
100
100
100
100
100
100
100
100
100
100
100
100
100
100
100
100
100
387.947
363.964
340.344
317.318
295.096
273.869
253.796
235.006
217.595
201.624
187.121
174.084
162.483
152.263
143.349
135.653
129.074
123.506
118.841
114.971
111.793
109.208
107.126
105.467
104.157
103.133
102.34
101.733
101.271
100.924
100.666
100.476
100.337
100.236
100.164
100.113
100.077
100.052
100.035
100.023
100.015
100.01
100.007
100.004
100.003
100.002
100.001
100.001
100
100
100
100
100
100
100
100
100
100
100
100
100
100
100
100
100
100
100
100
100
100
100
100
100
100
100
387.95
363.971
340.356
317.333
295.115
273.891
253.82
235.031
217.62
201.649
187.146
174.108
162.506
152.283
143.368
135.669
129.088
123.519
118.852
114.98
111.8
109.214
107.131
105.471
104.16
103.135
102.342
101.734
101.272
100.925
100.667
100.476
100.337
100.237
100.165
100.113
100.077
100.052
100.035
100.023
100.015
100.01
100.007
100.004
100.003
100.002
100.001
100.001
100
100
100
100
100
100
100
100
100
100
100
100
100
100
100
100
100
100
100
100
100
100
100
100
100
100
100
387.951
363.976
340.364
317.344
295.129
273.906
253.836
235.049
217.639
201.668
187.164
174.125
162.521
152.298
143.381
135.681
129.099
123.528
118.86
114.987
111.806
109.218
107.135
105.474
104.162
103.137
102.343
101.735
101.273
100.926
100.667
100.477
100.337
100.237
100.165
100.113
100.078
100.052
100.035
100.023
100.015
100.01
100.007
100.004
100.003
100.002
100.001
100.001
100
100
100
100
100
100
100
100
100
100
100
100
100
100
100
100
100
100
100
100
100
100
100
100
100
100
100
387.953
363.98
340.37
317.352
295.138
273.917
253.848
235.061
217.651
201.68
187.176
174.137
162.533
152.308
143.391
135.69
129.106
123.534
118.865
114.991
111.81
109.222
107.138
105.476
104.164
103.138
102.344
101.736
101.274
100.926
100.668
100.477
100.338
100.237
100.165
100.114
100.078
100.053
100.035
100.023
100.015
100.01
100.007
100.004
100.003
100.002
100.001
100.001
100
100
100
100
100
100
100
100
100
100
100
100
100
100
100
100
100
100
100
100
100
100
100
100
100
100
100
387.953
363.982
340.374
317.357
295.144
273.924
253.856
235.07
217.66
201.689
187.185
174.146
162.541
152.316
143.397
135.696
129.112
123.539
118.869
114.995
111.812
109.224
107.139
105.477
104.165
103.139
102.345
101.736
101.274
100.927
100.668
100.477
100.338
100.237
100.165
100.114
100.078
100.053
100.035
100.023
100.015
100.01
100.007
100.004
100.003
100.002
100.001
100.001
100
100
100
100
100
100
100
100
100
100
100
100
100
100
100
100
100
100
100
100
100
100
100
100
100
100
100
387.954
363.984
340.376
317.361
295.149
273.929
253.862
235.076
217.666
201.695
187.191
174.151
162.546
152.321
143.402
135.7
129.115
123.542
118.872
114.997
111.814
109.225
107.141
105.479
104.166
103.14
102.346
101.737
101.274
100.927
100.668
100.477
100.338
100.237
100.165
100.114
100.078
100.053
100.035
100.023
100.015
100.01
100.007
100.004
100.003
100.002
100.001
100.001
100
100
100
100
100
100
100
100
100
100
100
100
100
100
100
100
100
100
100
100
100
100
100
100
100
100
100
387.954
363.985
340.378
317.363
295.152
273.933
253.866
235.08
217.671
201.7
187.195
174.155
162.55
152.324
143.405
135.703
129.118
123.544
118.874
114.999
111.815
109.227
107.142
105.479
104.167
103.14
102.346
101.737
101.275
100.927
100.668
100.477
100.338
100.237
100.165
100.114
100.078
100.053
100.035
100.023
100.015
100.01
100.007
100.004
100.003
100.002
100.001
100.001
100
100
100
100
100
100
100
100
100
100
100
100
100
100
100
100
100
100
100
100
100
100
100
100
100
100
100
387.955
363.986
340.379
317.365
295.154
273.935
253.868
235.083
217.673
201.702
187.198
174.158
162.552
152.327
143.407
135.704
129.119
123.546
118.875
115
111.816
109.227
107.142
105.48
104.167
103.141
102.346
101.737
101.275
100.927
100.668
100.477
100.338
100.237
100.165
100.114
100.078
100.053
100.035
100.023
100.015
100.01
100.007
100.004
100.003
100.002
100.001
100.001
100
100
100
100
100
100
100
100
100
100
100
100
100
100
100
100
100
100
100
100
100
100
100
100
100
100
100
387.955
363.986
340.38
317.366
295.155
273.937
253.87
235.084
217.675
201.704
187.2
174.16
162.554
152.328
143.408
135.706
129.121
123.547
118.876
115
111.817
109.228
107.143
105.48
104.167
103.141
102.346
101.737
101.275
100.927
100.668
100.477
100.338
100.237
100.165
100.114
100.078
100.053
100.035
100.023
100.015
100.01
100.007
100.004
100.003
100.002
100.001
100.001
100
100
100
100
100
100
100
100
100
100
100
100
100
100
100
100
100
100
100
100
100
100
100
100
100
100
100
387.955
363.987
340.381
317.367
295.156
273.938
253.871
235.086
217.677
201.706
187.201
174.161
162.555
152.329
143.409
135.707
129.121
123.547
118.876
115.001
111.817
109.228
107.143
105.48
104.168
103.141
102.347
101.737
101.275
100.927
100.668
100.477
100.338
100.237
100.165
100.114
100.078
100.053
100.035
100.023
100.015
100.01
100.007
100.004
100.003
100.002
100.001
100.001
100
100
100
100
100
100
100
100
100
100
100
100
100
100
100
100
100
100
100
100
100
100
100
100
100
100
100
387.955
363.987
340.381
317.367
295.157
273.938
253.872
235.086
217.677
201.706
187.202
174.162
162.556
152.33
143.41
135.707
129.122
123.548
118.877
115.001
111.818
109.228
107.143
105.48
104.168
103.141
102.347
101.737
101.275
100.927
100.668
100.477
100.338
100.237
100.165
100.114
100.078
100.053
100.035
100.023
100.015
100.01
100.007
100.004
100.003
100.002
100.001
100.001
100
100
100
100
100
100
100
100
100
100
100
100
100
100
100
100
100
100
100
100
100
100
100
100
100
100
100
387.955
363.987
340.381
317.368
295.157
273.939
253.872
235.087
217.678
201.707
187.203
174.162
162.556
152.33
143.41
135.708
129.122
123.548
118.877
115.001
111.818
109.229
107.143
105.481
104.168
103.141
102.347
101.737
101.275
100.927
100.668
100.477
100.338
100.237
100.165
100.114
100.078
100.053
100.035
100.023
100.015
100.01
100.007
100.004
100.003
100.002
100.001
100.001
100
100
100
100
100
100
100
100
100
100
100
100
100
100
100
100
100
100
100
100
100
100
100
100
100
100
100
387.955
363.987
340.382
317.368
295.158
273.939
253.873
235.087
217.678
201.707
187.203
174.163
162.557
152.331
143.411
135.708
129.122
123.548
118.877
115.002
111.818
109.229
107.143
105.481
104.168
103.141
102.347
101.738
101.275
100.927
100.668
100.477
100.338
100.237
100.165
100.114
100.078
100.053
100.035
100.023
100.015
100.01
100.007
100.004
100.003
100.002
100.001
100.001
100
100
100
100
100
100
100
100
100
100
100
100
100
100
100
100
100
100
100
100
100
100
100
100
100
100
100
387.955
363.987
340.382
317.368
295.158
273.939
253.873
235.088
217.679
201.708
187.203
174.163
162.557
152.331
143.411
135.708
129.123
123.548
118.877
115.002
111.818
109.229
107.143
105.481
104.168
103.141
102.347
101.738
101.275
100.927
100.668
100.477
100.338
100.237
100.165
100.114
100.078
100.053
100.035
100.023
100.015
100.01
100.007
100.004
100.003
100.002
100.001
100.001
100
100
100
100
100
100
100
100
100
100
100
100
100
100
100
100
100
100
100
100
100
100
100
100
100
100
100
387.955
363.987
340.382
317.368
295.158
273.939
253.873
235.088
217.679
201.708
187.203
174.163
162.557
152.331
143.411
135.708
129.123
123.548
118.877
115.002
111.818
109.229
107.143
105.481
104.168
103.141
102.347
101.738
101.275
100.927
100.668
100.477
100.338
100.237
100.165
100.114
100.078
100.053
100.035
100.023
100.015
100.01
100.007
100.004
100.003
100.002
100.001
100.001
100
100
100
100
100
100
100
100
100
100
100
100
100
100
100
100
100
100
100
100
100
100
100
100
100
100
100
387.955
363.987
340.382
317.368
295.158
273.939
253.873
235.088
217.679
201.708
187.203
174.163
162.557
152.331
143.411
135.708
129.123
123.549
118.877
115.002
111.818
109.229
107.143
105.481
104.168
103.141
102.347
101.738
101.275
100.927
100.668
100.477
100.338
100.237
100.165
100.114
100.078
100.053
100.035
100.023
100.015
100.01
100.007
100.004
100.003
100.002
100.001
100.001
100
100
100
100
100
100
100
100
100
100
100
100
100
100
100
100
100
100
100
100
100
100
100
100
100
100
100
387.955
363.987
340.382
317.368
295.158
273.94
253.873
235.088
217.679
201.708
187.203
174.163
162.557
152.331
143.411
135.708
129.123
123.549
118.877
115.002
111.818
109.229
107.143
105.481
104.168
103.141
102.347
101.738
101.275
100.927
100.668
100.477
100.338
100.237
100.165
100.114
100.078
100.053
100.035
100.023
100.015
100.01
100.007
100.004
100.003
100.002
100.001
100.001
100
100
100
100
100
100
100
100
100
100
100
100
100
100
100
100
100
100
100
100
100
100
100
100
100
100
100
387.955
363.987
340.382
317.368
295.158
273.94
253.873
235.088
217.679
201.708
187.203
174.163
162.557
152.331
143.411
135.708
129.123
123.549
118.877
115.002
111.818
109.229
107.144
105.481
104.168
103.141
102.347
101.738
101.275
100.927
100.668
100.477
100.338
100.237
100.165
100.114
100.078
100.053
100.035
100.023
100.015
100.01
100.007
100.004
100.003
100.002
100.001
100.001
100
100
100
100
100
100
100
100
100
100
100
100
100
100
100
100
100
100
100
100
100
100
100
100
100
100
100
387.955
363.987
340.382
317.368
295.158
273.94
253.873
235.088
217.679
201.708
187.203
174.163
162.557
152.331
143.411
135.708
129.123
123.549
118.877
115.002
111.818
109.229
107.144
105.481
104.168
103.141
102.347
101.738
101.275
100.927
100.668
100.477
100.338
100.237
100.165
100.114
100.078
100.053
100.035
100.023
100.015
100.01
100.007
100.004
100.003
100.002
100.001
100.001
100
100
100
100
100
100
100
100
100
100
100
100
100
100
100
100
100
100
100
100
100
100
100
100
100
100
100
387.955
363.987
340.382
317.368
295.158
273.94
253.873
235.088
217.679
201.708
187.204
174.163
162.557
152.331
143.411
135.708
129.123
123.549
118.877
115.002
111.818
109.229
107.144
105.481
104.168
103.141
102.347
101.738
101.275
100.927
100.668
100.477
100.338
100.237
100.165
100.114
100.078
100.053
100.035
100.023
100.015
100.01
100.007
100.004
100.003
100.002
100.001
100.001
100
100
100
100
100
100
100
100
100
100
100
100
100
100
100
100
100
100
100
100
100
100
100
100
100
100
100
387.955
363.987
340.382
317.368
295.158
273.94
253.873
235.088
217.679
201.708
187.204
174.163
162.557
152.331
143.411
135.708
129.123
123.549
118.877
115.002
111.818
109.229
107.144
105.481
104.168
103.141
102.347
101.738
101.275
100.927
100.668
100.477
100.338
100.237
100.165
100.114
100.078
100.053
100.035
100.023
100.015
100.01
100.007
100.004
100.003
100.002
100.001
100.001
100
100
100
100
100
100
100
100
100
100
100
100
100
100
100
100
100
100
100
100
100
100
100
100
100
100
100
387.955
363.987
340.382
317.368
295.158
273.94
253.873
235.088
217.679
201.708
187.204
174.163
162.557
152.331
143.411
135.708
129.123
123.549
118.877
115.002
111.818
109.229
107.144
105.481
104.168
103.141
102.347
101.738
101.275
100.927
100.668
100.477
100.338
100.237
100.165
100.114
100.078
100.053
100.035
100.023
100.015
100.01
100.007
100.004
100.003
100.002
100.001
100.001
100
100
100
100
100
100
100
100
100
100
100
100
100
100
100
100
100
100
100
100
100
100
100
100
100
100
100
387.955
363.987
340.382
317.368
295.158
273.94
253.873
235.088
217.679
201.708
187.204
174.163
162.557
152.331
143.411
135.708
129.123
123.549
118.877
115.002
111.818
109.229
107.144
105.481
104.168
103.141
102.347
101.738
101.275
100.927
100.668
100.477
100.338
100.237
100.165
100.114
100.078
100.053
100.035
100.023
100.015
100.01
100.007
100.004
100.003
100.002
100.001
100.001
100
100
100
100
100
100
100
100
100
100
100
100
100
100
100
100
100
100
100
100
100
100
100
100
100
100
100
387.955
363.987
340.382
317.368
295.158
273.94
253.873
235.088
217.679
201.708
187.204
174.163
162.557
152.331
143.411
135.708
129.123
123.549
118.877
115.002
111.818
109.229
107.144
105.481
104.168
103.141
102.347
101.738
101.275
100.927
100.668
100.477
100.338
100.237
100.165
100.114
100.078
100.053
100.035
100.023
100.015
100.01
100.007
100.004
100.003
100.002
100.001
100.001
100
100
100
100
100
100
100
100
100
100
100
100
100
100
100
100
100
100
100
100
100
100
100
100
100
100
100
387.955
363.987
340.382
317.368
295.158
273.94
253.873
235.088
217.679
201.708
187.204
174.163
162.557
152.331
143.411
135.708
129.123
123.549
118.877
115.002
111.818
109.229
107.144
105.481
104.168
103.141
102.347
101.738
101.275
100.927
100.668
100.477
100.338
100.237
100.165
100.114
100.078
100.053
100.035
100.023
100.015
100.01
100.007
100.004
100.003
100.002
100.001
100.001
100
100
100
100
100
100
100
100
100
100
100
100
100
100
100
100
100
100
100
100
100
100
100
100
100
100
100
387.955
363.987
340.382
317.368
295.158
273.94
253.873
235.088
217.679
201.708
187.204
174.163
162.557
152.331
143.411
135.708
129.123
123.549
118.877
115.002
111.818
109.229
107.144
105.481
104.168
103.141
102.347
101.738
101.275
100.927
100.668
100.477
100.338
100.237
100.165
100.114
100.078
100.053
100.035
100.023
100.015
100.01
100.007
100.004
100.003
100.002
100.001
100.001
100
100
100
100
100
100
100
100
100
100
100
100
100
100
100
100
100
100
100
100
100
100
100
100
100
100
100
387.955
363.987
340.382
317.368
295.158
273.94
253.873
235.088
217.679
201.708
187.204
174.163
162.557
152.331
143.411
135.708
129.123
123.549
118.877
115.002
111.818
109.229
107.144
105.481
104.168
103.141
102.347
101.738
101.275
100.927
100.668
100.477
100.338
100.237
100.165
100.114
100.078
100.053
100.035
100.023
100.015
100.01
100.007
100.004
100.003
100.002
100.001
100.001
100
100
100
100
100
100
100
100
100
100
100
100
100
100
100
100
100
100
100
100
100
100
100
100
100
100
100
387.955
363.987
340.382
317.368
295.158
273.94
253.873
235.088
217.679
201.708
187.204
174.163
162.557
152.331
143.411
135.708
129.123
123.549
118.877
115.002
111.818
109.229
107.144
105.481
104.168
103.141
102.347
101.738
101.275
100.927
100.668
100.477
100.338
100.237
100.165
100.114
100.078
100.053
100.035
100.023
100.015
100.01
100.007
100.004
100.003
100.002
100.001
100.001
100
100
100
100
100
100
100
100
100
100
100
100
100
100
100
100
100
100
100
100
100
100
100
100
100
100
100
387.955
363.987
340.382
317.368
295.158
273.94
253.873
235.088
217.679
201.708
187.204
174.163
162.557
152.331
143.411
135.708
129.123
123.549
118.877
115.002
111.818
109.229
107.144
105.481
104.168
103.141
102.347
101.738
101.275
100.927
100.668
100.477
100.338
100.237
100.165
100.114
100.078
100.053
100.035
100.023
100.015
100.01
100.007
100.004
100.003
100.002
100.001
100.001
100
100
100
100
100
100
100
100
100
100
100
100
100
100
100
100
100
100
100
100
100
100
100
100
100
100
100
387.955
363.987
340.382
317.368
295.158
273.94
253.873
235.088
217.679
201.708
187.204
174.163
162.557
152.331
143.411
135.708
129.123
123.549
118.877
115.002
111.818
109.229
107.144
105.481
104.168
103.141
102.347
101.738
101.275
100.927
100.668
100.477
100.338
100.237
100.165
100.114
100.078
100.053
100.035
100.023
100.015
100.01
100.007
100.004
100.003
100.002
100.001
100.001
100
100
100
100
100
100
100
100
100
100
100
100
100
100
100
100
100
100
100
100
100
100
100
100
100
100
100
387.955
363.987
340.382
317.368
295.158
273.94
253.873
235.088
217.679
201.708
187.204
174.163
162.557
152.331
143.411
135.708
129.123
123.549
118.877
115.002
111.818
109.229
107.144
105.481
104.168
103.141
102.347
101.738
101.275
100.927
100.668
100.477
100.338
100.237
100.165
100.114
100.078
100.053
100.035
100.023
100.015
100.01
100.007
100.004
100.003
100.002
100.001
100.001
100
100
100
100
100
100
100
100
100
100
100
100
100
100
100
100
100
100
100
100
100
100
100
100
100
100
100
387.955
363.987
340.382
317.368
295.158
273.94
253.873
235.088
217.679
201.708
187.204
174.163
162.557
152.331
143.411
135.708
129.123
123.549
118.877
115.002
111.818
109.229
107.144
105.481
104.168
103.141
102.347
101.738
101.275
100.927
100.668
100.477
100.338
100.237
100.165
100.114
100.078
100.053
100.035
100.023
100.015
100.01
100.007
100.004
100.003
100.002
100.001
100.001
100
100
100
100
100
100
100
100
100
100
100
100
100
100
100
100
100
100
100
100
100
100
100
100
100
100
100
387.955
363.987
340.382
317.368
295.158
273.94
253.873
235.088
217.679
201.708
187.204
174.163
162.557
152.331
143.411
135.708
129.123
123.549
118.877
115.002
111.818
109.229
107.144
105.481
104.168
103.141
102.347
101.738
101.275
100.927
100.668
100.477
100.338
100.237
100.165
100.114
100.078
100.053
100.035
100.023
100.015
100.01
100.007
100.004
100.003
100.002
100.001
100.001
100
100
100
100
100
100
100
100
100
100
100
100
100
100
100
100
100
100
100
100
100
100
100
100
100
100
100
387.955
363.987
340.382
317.368
295.158
273.94
253.873
235.088
217.679
201.708
187.204
174.163
162.557
152.331
143.411
135.708