/*--------------------------------*- C++ -*----------------------------------*\
  =========                 |
  \\      /  F ield         | OpenFOAM: The Open Source CFD Toolbox
   \\    /   O peration     | Website:  https://openfoam.org
    \\  /    A nd           | Version:  10
     \\/     M anipulation  |
\*---------------------------------------------------------------------------*/
FoamFile
{
    format      ascii;
    class       volScalarField;
    location    "259";
    object      gradTx;
}
// * * * * * * * * * * * * * * * * * * * * * * * * * * * * * * * * * * * * * //

dimensions      [0 -1 0 1 0 0 0];

internalField   nonuniform List<scalar> 
11250
(
14293.2
8084.16
5277.72
3783.06
2874.08
2263.88
1824.21
1491.09
1229.57
1019.03
846.545
703.546
584.085
483.846
399.576
328.732
269.268
219.494
177.984
143.523
115.059
91.6801
72.5939
57.1109
44.6341
34.6488
26.7137
20.4533
15.5503
11.7389
8.79834
6.54692
4.8363
3.5466
2.58177
1.86559
1.33812
0.95267
0.673213
0.472189
0.328721
0.227132
0.155764
0.10602
0.0716196
0.0480175
0.031951
0.0210999
0.0138288
0.00899481
0.0058062
0.00371945
0.00236453
0.00149169
0.00093383
0.000580099
0.000357574
0.000218698
0.000132715
7.99047e-05
4.77291e-05
2.82833e-05
1.66262e-05
9.69491e-06
5.60739e-06
3.21674e-06
1.83014e-06
1.03257e-06
5.77639e-07
3.20257e-07
1.75763e-07
9.50789e-08
4.9867e-08
2.37963e-08
6.99621e-09
4089.09
4683.15
3968.52
3200.91
2579.65
2098.46
1723.39
1425.73
1185.17
987.789
823.963
686.887
571.604
474.387
392.346
323.174
264.978
216.175
175.415
141.535
113.523
90.4958
71.6834
56.4134
44.102
34.2446
26.4082
20.2235
15.3784
11.6111
8.70387
6.47751
4.78562
3.50983
2.55527
1.84661
1.32462
0.94314
0.666529
0.467534
0.3255
0.224921
0.154256
0.104999
0.0709334
0.0475596
0.0316477
0.0209006
0.0136987
0.0089105
0.00575199
0.00368486
0.00234261
0.00147791
0.000925238
0.00057478
0.000354307
0.000216707
0.000131511
7.91828e-05
4.72996e-05
2.80299e-05
1.64778e-05
9.60878e-06
5.5578e-06
3.18841e-06
1.81407e-06
1.02356e-06
5.72635e-07
3.17513e-07
1.74254e-07
9.42799e-08
4.94938e-08
2.36098e-08
6.9545e-09
1469.66
2592.37
2714.87
2475.88
2149.47
1832
1550.83
1309.44
1104.12
929.743
781.477
655.254
547.74
456.204
378.391
312.408
256.647
209.717
170.407
137.654
110.52
88.1782
69.9
55.0461
43.058
33.4512
25.8081
19.7721
15.0406
11.3598
8.51805
6.34093
4.68587
3.43745
2.50309
1.80924
1.29804
0.924362
0.653355
0.458356
0.319152
0.22056
0.151282
0.102985
0.0695798
0.0466563
0.0310493
0.020507
0.0134418
0.00874406
0.00564495
0.00361654
0.00229933
0.0014507
0.000908263
0.000564271
0.000347852
0.000212772
0.000129132
7.77555e-05
4.64502e-05
2.75285e-05
1.61842e-05
9.43828e-06
5.45958e-06
3.13235e-06
1.78233e-06
1.00573e-06
5.62695e-07
3.12045e-07
1.71306e-07
9.26894e-08
4.86453e-08
2.31949e-08
6.84145e-09
667.346
1503.32
1825.24
1841.68
1714.61
1534.22
1344.08
1163.13
998.564
852.222
723.676
611.616
514.467
430.641
358.642
297.095
244.745
200.459
163.207
132.061
106.184
84.8255
67.3165
53.0629
41.5422
32.298
24.9352
19.1148
14.5486
10.9935
8.24704
6.14165
4.54027
3.33175
2.42686
1.75464
1.25919
0.896908
0.63409
0.444931
0.309863
0.214178
0.146929
0.100037
0.0675979
0.0453335
0.0301729
0.0199306
0.0130655
0.0085002
0.0054881
0.00351641
0.0022359
0.00141082
0.000883375
0.000548862
0.000338385
0.000207001
0.000125642
7.56613e-05
4.52038e-05
2.67926e-05
1.57533e-05
9.18802e-06
5.31545e-06
3.05001e-06
1.73569e-06
9.79528e-07
5.48108e-07
3.03996e-07
1.66894e-07
9.03153e-08
4.73995e-08
2.26109e-08
6.64607e-09
364.253
929.83
1243.52
1354.34
1337.2
1251.06
1133.57
1006.36
881.034
763.372
655.946
559.601
474.272
399.432
334.327
278.11
229.908
188.864
154.154
125.006
100.699
80.5754
64.0348
50.5393
39.6104
30.8264
23.8201
18.2744
13.9187
10.5243
7.89964
5.88604
4.35339
3.19602
2.32893
1.68445
1.20923
0.861596
0.609302
0.427653
0.297904
0.20596
0.141322
0.0962392
0.0650439
0.0436286
0.029043
0.0191874
0.0125802
0.00818564
0.00528575
0.00338721
0.00215403
0.00135933
0.000851246
0.000528965
0.000326159
0.000199547
0.000121133
7.29556e-05
4.3593e-05
2.58415e-05
1.51962e-05
8.86441e-06
5.12902e-06
2.9435e-06
1.67536e-06
9.45647e-07
5.29258e-07
2.93584e-07
1.61205e-07
8.72342e-08
4.57827e-08
2.18558e-08
6.43862e-09
224.573
609.665
867.052
998.17
1032.8
1003.94
938.033
853.425
761.883
670.534
583.471
502.88
429.775
364.46
306.81
256.451
212.867
175.472
143.651
116.788
94.2893
75.5935
60.1786
47.5677
37.3314
29.0875
22.5004
17.2785
13.1716
9.96721
7.48677
5.58201
4.13096
3.03435
2.21222
1.60077
1.14964
0.819449
0.579703
0.407014
0.283614
0.196137
0.134618
0.0916967
0.0619884
0.0415883
0.0276906
0.0182975
0.011999
0.00780889
0.00504334
0.0032324
0.00205591
0.00129762
0.000812725
0.000505106
0.000311495
0.000190605
0.000115722
6.97081e-05
4.16593e-05
2.46993e-05
1.45271e-05
8.4756e-06
4.90498e-06
2.81549e-06
1.60283e-06
9.04909e-07
5.06582e-07
2.81086e-07
1.54414e-07
8.35781e-08
4.3863e-08
2.09382e-08
6.1741e-09
149.412
418.586
619.113
741.581
795.718
798.371
766.234
712.894
648.328
579.397
510.593
444.718
383.415
327.544
277.448
233.132
194.383
160.855
132.125
107.729
87.1964
70.0627
55.8851
44.2508
34.7821
27.1387
21.0189
16.1589
12.3305
9.33925
7.0209
5.23862
3.87951
2.85146
2.08008
1.50596
1.08208
0.771647
0.546117
0.383582
0.267384
0.184976
0.126998
0.0865318
0.0585131
0.039267
0.0261515
0.0172845
0.0113372
0.00737977
0.00476716
0.003056
0.00194408
0.00122726
0.000768799
0.000477892
0.000294765
0.0001804
0.000109547
6.60003e-05
3.9451e-05
2.33946e-05
1.37625e-05
8.0312e-06
4.64884e-06
2.66908e-06
1.51984e-06
8.58275e-07
4.80602e-07
2.66767e-07
1.46607e-07
7.93863e-08
4.16908e-08
1.9891e-08
5.8525e-09
104.342
297.469
451.381
556.257
613.764
631.853
620.422
588.788
544.637
493.819
440.549
387.726
337.249
290.285
247.479
209.105
175.185
145.571
120.002
98.1544
79.6674
64.1701
51.2962
40.6958
32.0429
25.0401
19.4206
14.9489
11.4202
8.65865
6.51537
4.86559
3.60609
2.65239
1.93615
1.40261
1.00839
0.719469
0.509435
0.357978
0.24964
0.172768
0.118659
0.0808777
0.0547073
0.036724
0.0244648
0.0161741
0.0106116
0.00690909
0.00446415
0.00286239
0.00182131
0.00115
0.000720551
0.000447992
0.000276379
0.000169183
0.000102756
6.1922e-05
3.70211e-05
2.19585e-05
1.29206e-05
7.5417e-06
4.36654e-06
2.50764e-06
1.42832e-06
8.06814e-07
4.5191e-07
2.50904e-07
1.37907e-07
7.4717e-08
3.92717e-08
1.87407e-08
5.51114e-09
75.2449
216.801
334.71
421.063
474.658
498.872
499.318
482.094
452.788
416.045
375.486
333.794
292.868
253.985
217.947
185.198
155.925
130.128
107.68
88.3703
71.9386
58.0971
46.5502
37.0079
29.1938
22.8522
17.7506
13.6823
10.4656
7.94394
5.98377
4.47284
3.31788
2.44236
1.78415
1.29337
0.930435
0.664237
0.47058
0.330841
0.230824
0.159815
0.109808
0.0748732
0.0506638
0.0340211
0.0226714
0.0149929
0.00983944
0.00640811
0.00414153
0.00265619
0.00169052
0.00106767
0.000669118
0.000416109
0.000256767
0.000157213
9.55079e-05
5.75675e-05
3.44258e-05
2.04241e-05
1.20208e-05
7.01827e-06
4.06456e-06
2.33486e-06
1.33031e-06
7.51688e-07
4.21161e-07
2.33891e-07
1.28597e-07
6.97108e-08
3.66418e-08
1.75169e-08
5.17088e-09
55.469
160.936
251.484
321.208
368.133
393.408
400.091
392.052
373.209
347.086
316.624
284.144
251.39
219.617
189.672
162.088
137.15
114.965
95.5048
78.6508
64.2242
52.01
41.7759
33.2858
26.3101
20.632
16.0522
12.3914
9.49102
7.21303
5.43933
4.07006
3.02197
2.22647
1.62774
1.18086
0.850083
0.60726
0.43047
0.302808
0.211374
0.146419
0.100648
0.0686564
0.0464755
0.0312202
0.0208122
0.0137679
0.00903835
0.00588814
0.00380656
0.00244202
0.00155463
0.000982097
0.000615643
0.000382949
0.000236363
0.000144756
8.79617e-05
5.30322e-05
3.17218e-05
1.88248e-05
1.10825e-05
6.47225e-06
3.74945e-06
2.15448e-06
1.2279e-06
6.94059e-07
3.89006e-07
2.16118e-07
1.18883e-07
6.44356e-08
3.38626e-08
1.62085e-08
4.7933e-09
41.5231
121.058
190.831
246.538
286.223
310.006
319.478
317.043
305.382
287.09
264.469
239.437
213.512
187.84
163.246
140.283
119.291
100.437
83.7656
69.2271
56.708
46.0538
37.0864
29.6176
23.4595
18.4314
14.3648
11.1062
8.51877
6.48261
4.89438
3.66632
2.72496
2.00952
1.4704
1.06757
0.769095
0.549784
0.389975
0.274486
0.19171
0.132867
0.0913769
0.0623605
0.0422316
0.0283808
0.0189265
0.012525
0.00822517
0.00536011
0.00346627
0.00222438
0.00141647
0.000895069
0.000561239
0.000349201
0.00021559
0.000132068
8.02729e-05
4.84094e-05
2.89644e-05
1.71932e-05
1.01248e-05
5.91473e-06
3.42753e-06
1.97013e-06
1.12317e-06
6.35072e-07
3.56075e-07
1.97908e-07
1.08876e-07
5.90211e-08
3.10395e-08
1.4831e-08
4.36962e-09
31.4185
91.9209
145.849
190.081
222.934
244.098
254.345
255.14
248.29
235.669
219.03
199.911
179.581
159.043
139.05
120.137
102.656
86.8096
72.6853
60.2829
49.5392
40.3482
32.5767
26.0778
20.7002
16.2954
12.7228
9.85274
7.56864
5.76748
4.35994
3.26978
2.43283
1.79587
1.31527
0.955751
0.689082
0.492948
0.349899
0.246435
0.17222
0.119425
0.0821756
0.0561083
0.0380149
0.025558
0.017051
0.0112882
0.00741564
0.00483423
0.00312722
0.00200743
0.00127871
0.000808255
0.000506948
0.000315509
0.000194843
0.000119391
7.25877e-05
4.37869e-05
2.62061e-05
1.55603e-05
9.16592e-06
5.3562e-06
3.10481e-06
1.78523e-06
1.01812e-06
5.75871e-07
3.23007e-07
1.79584e-07
9.88141e-08
5.35989e-08
2.81934e-08
1.34568e-08
3.97338e-09
23.9481
70.2506
112.022
146.997
173.808
192.006
201.914
204.413
200.705
192.125
179.988
165.495
149.68
133.391
117.288
101.86
87.4483
74.2653
62.4229
51.9537
42.8308
34.9856
28.3216
22.7261
18.0793
14.2607
11.1547
8.65293
6.65726
5.08021
3.84545
2.88742
2.15075
1.58929
1.16509
0.847378
0.611454
0.437753
0.310945
0.219147
0.153247
0.106331
0.0732054
0.0500094
0.0338992
0.0228014
0.0152184
0.010079
0.00662386
0.00431965
0.00279531
0.00179497
0.00114374
0.000723161
0.000453712
0.000282458
0.000174482
0.000106945
6.50393e-05
3.92446e-05
2.34943e-05
1.39542e-05
8.22231e-06
4.80627e-06
2.78694e-06
1.60301e-06
9.14537e-07
5.17447e-07
2.90348e-07
1.61479e-07
8.88938e-08
4.82205e-08
2.53769e-08
1.21506e-08
3.60787e-09
18.342
53.9156
86.3099
113.873
135.529
150.817
159.827
163.076
161.361
155.623
146.835
135.92
123.703
110.882
98.0189
85.5455
73.7736
62.911
53.0789
44.3292
36.6605
30.0319
24.3756
19.607
15.6325
12.3559
9.68275
7.52406
5.79792
4.43092
3.3585
2.52495
1.88293
1.39288
1.02213
0.744094
0.53739
0.38504
0.273708
0.193039
0.135079
0.0937824
0.0646037
0.0441572
0.0299475
0.020153
0.0134569
0.00891618
0.005862
0.00382427
0.00247564
0.00159024
0.00101362
0.000641096
0.000402347
0.000250556
0.000154821
9.49218e-05
5.77437e-05
3.48525e-05
2.08709e-05
1.23998e-05
7.30858e-06
4.2735e-06
2.47882e-06
1.42624e-06
8.13951e-07
4.60707e-07
2.58587e-07
1.43854e-07
7.92348e-08
4.30398e-08
2.2679e-08
1.08664e-08
3.21273e-09
14.0884
41.4791
66.6077
88.2637
105.614
118.242
126.123
129.552
129.054
125.288
118.967
110.794
101.415
91.3929
81.1957
71.1927
61.6598
52.7894
44.7019
37.4586
31.0742
25.528
20.7743
16.7504
13.3846
10.6008
8.32301
6.47873
5.00045
3.82717
2.90488
2.18671
1.63265
1.20907
0.888161
0.647186
0.467822
0.335475
0.238661
0.168444
0.117949
0.0819425
0.0564816
0.0386275
0.0262111
0.0176474
0.0117893
0.00781476
0.00514001
0.00335458
0.0021724
0.00139595
0.000890083
0.000563143
0.000353535
0.000220226
0.00013612
8.34804e-05
5.07982e-05
3.06692e-05
1.83711e-05
1.09178e-05
6.437e-06
3.76501e-06
2.18457e-06
1.25734e-06
7.17799e-07
4.0644e-07
2.28207e-07
1.27018e-07
6.99962e-08
3.8039e-08
2.00469e-08
9.61184e-09
2.83295e-09
10.8352
31.9427
51.4231
68.3859
82.1919
92.4874
99.1964
102.481
102.686
100.27
95.7539
89.6651
82.5045
74.7199
66.6926
58.7316
51.0743
43.8921
37.2981
31.3561
26.0901
21.4932
17.5358
14.1729
11.3499
9.00759
7.08552
5.52511
4.27135
3.27407
2.48856
1.87575
1.40218
1.03957
0.764455
0.557593
0.40343
0.289549
0.206155
0.145612
0.102033
0.0709323
0.0489228
0.0334776
0.0227291
0.0153109
0.0102334
0.00678648
0.0044656
0.00291561
0.00188885
0.00121419
0.000774456
0.000490149
0.000307808
0.0001918
0.000118585
7.27476e-05
4.42798e-05
2.67414e-05
1.60229e-05
9.52494e-06
5.6174e-06
3.28658e-06
1.90754e-06
1.09825e-06
6.27197e-07
3.55248e-07
1.99556e-07
1.11128e-07
6.12701e-08
3.3282e-08
1.75399e-08
8.41104e-09
2.49159e-09
8.33372
24.5943
39.675
52.9186
63.8375
72.1417
77.739
80.7132
81.2876
79.7833
76.5764
72.0618
66.6231
60.6118
54.3341
48.0434
41.9398
36.1715
30.8405
26.0083
21.7034
17.9278
14.6637
11.8793
9.53388
7.58162
5.97503
4.66732
3.61408
2.77446
2.11179
1.59386
1.19292
0.885444
0.651816
0.475912
0.344656
0.247584
0.176421
0.124707
0.0874482
0.0608343
0.0419849
0.0287473
0.0195285
0.0131619
0.00880143
0.00583956
0.0038442
0.00251094
0.00162732
0.00104646
0.000667704
0.000422727
0.000265552
0.00016552
0.000102367
6.28159e-05
3.82452e-05
2.31033e-05
1.38467e-05
8.23357e-06
4.85717e-06
2.84258e-06
1.6503e-06
9.50419e-07
5.42944e-07
3.07638e-07
1.72862e-07
9.62742e-08
5.30929e-08
2.88794e-08
1.52152e-08
7.26842e-09
2.13926e-09
6.40357
18.9147
30.5652
40.8687
49.455
56.0918
60.6878
63.2811
64.0166
63.1171
60.8545
57.5218
53.4109
48.7948
43.9157
38.9789
34.1493
29.5524
25.2773
21.3806
17.8917
14.8179
12.1497
9.86518
7.9343
6.32215
4.99171
3.90598
3.02944
2.32917
1.77536
1.34172
1.00545
0.747158
0.550615
0.402431
0.291719
0.209744
0.149583
0.105819
0.0742586
0.0516947
0.0357005
0.0244593
0.0166252
0.0112111
0.00750074
0.00497895
0.00327912
0.00214274
0.00138924
0.000893692
0.000570429
0.000361261
0.00022701
0.000141539
8.75604e-05
5.37451e-05
3.27312e-05
1.97775e-05
1.18565e-05
7.05193e-06
4.16115e-06
2.4359e-06
1.41457e-06
8.14891e-07
4.6566e-07
2.63945e-07
1.48346e-07
8.26528e-08
4.56071e-08
2.48105e-08
1.30814e-08
6.23227e-09
1.82534e-09
4.91159
14.5184
23.4949
31.4805
38.1954
43.4561
47.1805
49.381
50.151
49.6451
48.0591
45.6095
42.5166
38.9906
35.2213
31.3723
27.5777
23.9418
20.5403
17.4234
14.6194
12.1383
9.97621
8.11839
6.54302
5.22374
4.132
3.2388
2.51602
1.93734
1.47878
1.11906
0.839631
0.624664
0.460847
0.337167
0.244645
0.176058
0.125666
0.0889705
0.062482
0.0435272
0.0300799
0.0206213
0.0140246
0.00946266
0.00633419
0.00420662
0.00277172
0.00181194
0.00117523
0.0007563
0.000482901
0.000305928
0.000192299
0.000119931
7.42137e-05
4.55647e-05
2.77563e-05
1.67755e-05
1.00592e-05
5.98434e-06
3.532e-06
2.0681e-06
1.20126e-06
6.9218e-07
3.95626e-07
2.24285e-07
1.26118e-07
7.03057e-08
3.88172e-08
2.10896e-08
1.11222e-08
5.32564e-09
1.55642e-09
3.75781
11.1148
18.0089
24.1728
29.3955
33.5339
36.5179
38.3464
39.0789
38.8227
37.7184
35.9254
33.609
30.9296
28.0345
25.0528
22.0918
19.2368
16.5509
14.0775
11.8422
9.85635
8.11922
6.62145
5.34738
4.27732
3.38945
2.66124
2.07063
1.59676
1.22052
0.924836
0.694766
0.51749
0.382196
0.279913
0.203299
0.146436
0.104613
0.0741245
0.0520955
0.0363174
0.0251144
0.017228
0.0117237
0.00791458
0.00530066
0.00352195
0.00232164
0.00151835
0.000985197
0.000634238
0.000405102
0.000256722
0.000161417
0.000100699
6.2329e-05
3.82773e-05
2.33225e-05
1.40989e-05
8.45606e-06
5.03166e-06
2.97033e-06
1.73957e-06
1.01064e-06
5.8246e-07
3.32974e-07
1.8882e-07
1.0619e-07
5.92121e-08
3.26706e-08
1.77616e-08
9.38024e-09
4.49584e-09
1.32482e-09
2.86618
8.48209
13.7576
18.4946
22.5344
25.7667
28.1334
29.627
30.2852
30.1823
29.4189
28.1119
26.3848
24.359
22.1481
19.8526
17.5576
15.3316
13.2265
11.2788
9.51114
7.93454
6.55049
5.35322
4.33168
3.4713
2.75555
2.16711
1.68879
1.30421
0.998286
0.757427
0.569702
0.424829
0.314104
0.230279
0.167413
0.120698
0.0862995
0.0611981
0.0430435
0.0300285
0.0207794
0.0142633
0.00971202
0.00656012
0.00439582
0.00292215
0.00192712
0.00126087
0.000818443
0.000527077
0.000336768
0.000213483
0.000134268
8.37843e-05
5.18719e-05
3.18626e-05
1.94181e-05
1.17409e-05
7.04314e-06
4.1917e-06
2.4749e-06
1.44965e-06
8.42363e-07
4.85565e-07
2.77653e-07
1.57509e-07
8.85887e-08
4.94038e-08
2.72549e-08
1.4842e-08
7.8337e-09
3.73739e-09
1.12067e-09
2.17826
6.44922
10.4698
14.0933
17.2009
19.7081
21.568
22.7707
23.3396
23.3262
22.8025
21.8538
20.5718
19.048
17.369
15.6126
13.8455
12.122
10.4841
8.96201
7.57502
6.33336
5.23963
4.29053
3.47837
2.7925
2.22049
1.74913
1.36514
1.05579
0.809234
0.614779
0.462971
0.345636
0.255828
0.187748
0.136625
0.0985906
0.0705535
0.0500726
0.0352453
0.0246059
0.0170385
0.0117029
0.00797335
0.00538871
0.00361274
0.00240275
0.00158529
0.00103765
0.000673805
0.000434082
0.000277439
0.000175925
0.000110676
6.90796e-05
4.27776e-05
2.62817e-05
1.60198e-05
9.68787e-06
5.81245e-06
3.45975e-06
2.04302e-06
1.19683e-06
6.95537e-07
4.00987e-07
2.29341e-07
1.30091e-07
7.31979e-08
4.08204e-08
2.25593e-08
1.22758e-08
6.4518e-09
3.09528e-09
8.98949e-10
1.64879
4.88355
7.93428
10.6925
13.0696
15.0013
16.4504
17.4067
17.8846
17.9197
17.5633
16.8775
15.9302
14.7898
13.522
12.1862
10.8344
9.50913
8.24392
7.06322
5.98326
5.01307
4.15571
3.4095
2.76917
2.22701
1.77377
1.39943
1.09383
0.847157
0.650193
0.494581
0.3729
0.278709
0.206513
0.15171
0.110506
0.0798153
0.0571664
0.0406045
0.0286026
0.0199828
0.0138465
0.00951651
0.00648755
0.00438696
0.00294265
0.00195802
0.00129244
0.000846303
0.000549759
0.000354289
0.00022651
0.000143671
9.04073e-05
5.64413e-05
3.49582e-05
2.14814e-05
1.30959e-05
7.92073e-06
4.75281e-06
2.82931e-06
1.6709e-06
9.7893e-07
5.6896e-07
3.28045e-07
1.87594e-07
1.06394e-07
5.98652e-08
3.3406e-08
1.84553e-08
1.00377e-08
5.29491e-09
2.54208e-09
7.38697e-10
1.24253
3.68155
5.98549
8.07439
9.88226
11.3606
12.4805
13.2324
13.625
13.6828
13.4424
12.9488
12.252
11.4029
10.4509
9.44122
8.41372
7.4016
6.43117
5.52203
4.68748
3.93529
3.26854
2.68657
2.18585
1.76085
1.40473
1.10996
0.868836
0.673827
0.51784
0.394394
0.297713
0.222762
0.165234
0.121508
0.0885905
0.064044
0.0459095
0.0326351
0.0230062
0.0160844
0.0111527
0.00766991
0.00523176
0.00353972
0.00237555
0.00158142
0.00104431
0.000684093
0.000444548
0.00028658
0.000183275
0.000116278
7.31865e-05
4.56995e-05
2.83099e-05
1.73987e-05
1.06082e-05
6.41678e-06
3.85069e-06
2.29245e-06
1.35392e-06
7.93267e-07
4.61089e-07
2.65835e-07
1.5201e-07
8.62266e-08
4.85092e-08
2.70585e-08
1.49386e-08
8.13444e-09
4.31693e-09
2.08218e-09
6.32228e-10
0.931967
2.7622
4.49352
6.0671
7.43407
8.55808
9.41671
10.0018
10.3184
10.3834
10.2228
9.86917
9.35898
8.73002
8.01916
7.26062
6.48467
5.71689
4.97778
4.28282
3.64273
3.06402
2.54956
2.0993
1.71093
1.3805
1.103
0.872833
0.684185
0.531333
0.408855
0.311768
0.235614
0.176491
0.131049
0.0964647
0.070398
0.0509376
0.036545
0.025999
0.0183418
0.0128324
0.00890375
0.00612707
0.0041818
0.00283086
0.00190078
0.00126594
0.00083633
0.000548065
0.000356275
0.000229746
0.000146969
9.32658e-05
5.87148e-05
3.66694e-05
2.27193e-05
1.39644e-05
8.51505e-06
5.15099e-06
3.09121e-06
1.84035e-06
1.08694e-06
6.36842e-07
3.70134e-07
2.1339e-07
1.22048e-07
6.92421e-08
3.8949e-08
2.17153e-08
1.20134e-08
6.56814e-09
3.48274e-09
1.67935e-09
4.95025e-10
0.695536
2.06201
3.35625
4.53512
5.5626
6.41156
7.0649
7.51582
7.76722
7.83061
7.72442
7.47215
7.10038
6.63693
6.10917
5.54273
4.9605
4.38198
3.82297
3.29555
2.80825
2.36638
1.9725
1.62688
1.32805
1.07323
0.85878
0.680546
0.534186
0.415386
0.320033
0.244328
0.184857
0.13862
0.103034
0.0759169
0.0554539
0.0401598
0.0288365
0.0205311
0.0144951
0.0101482
0.00704594
0.0048516
0.00331317
0.00224403
0.00150749
0.00100446
0.000663859
0.000435202
0.000283002
0.000182549
0.000116806
7.41412e-05
4.66835e-05
2.91598e-05
1.80686e-05
1.11068e-05
6.77296e-06
4.09726e-06
2.45886e-06
1.46384e-06
8.64533e-07
5.06469e-07
2.94337e-07
1.69693e-07
9.7036e-08
5.5051e-08
3.09846e-08
1.72765e-08
9.54049e-09
5.21698e-09
2.74953e-09
1.31056e-09
3.92947e-10
0.516367
1.53121
2.49346
3.37164
4.13927
4.77627
5.26971
5.61408
5.81095
5.86817
5.79879
5.61966
5.35007
5.01038
4.62081
4.2004
3.76632
3.33333
2.91347
2.51607
2.14781
1.81296
1.5137
1.25048
1.02237
0.827436
0.663047
0.52616
0.413549
0.321985
0.248373
0.189839
0.143789
0.107938
0.0803093
0.0592297
0.0433041
0.0313879
0.0225564
0.0160722
0.0113554
0.00795554
0.00552712
0.00380809
0.00260202
0.00176328
0.0011851
0.000789996
0.000522323
0.000342538
0.000222815
0.000143765
9.20115e-05
5.84144e-05
3.67868e-05
2.29808e-05
1.4241e-05
8.75439e-06
5.33854e-06
3.22945e-06
1.93799e-06
1.15367e-06
6.81262e-07
3.99059e-07
2.319e-07
1.33669e-07
7.64172e-08
4.3335e-08
2.43836e-08
1.35852e-08
7.49453e-09
4.05789e-09
2.14584e-09
1.04383e-09
3.3148e-10
0.381262
1.13081
1.84223
2.4926
3.06259
3.5374
3.90734
4.16805
4.32031
4.36949
4.32475
4.19815
4.00363
3.756
3.47008
3.15998
2.83844
2.51652
2.20336
1.90605
1.62978
1.37792
1.15229
0.953372
0.780616
0.632681
0.507684
0.403406
0.317472
0.247483
0.191128
0.146249
0.110893
0.0833292
0.0620606
0.0458139
0.0335253
0.0243206
0.0174917
0.0124729
0.00881871
0.00618255
0.00429806
0.00296304
0.00202572
0.00137345
0.000923528
0.00061589
0.000407365
0.00026724
0.000173886
0.000112224
7.184e-05
4.56161e-05
2.87308e-05
1.79497e-05
1.11239e-05
6.83827e-06
4.16996e-06
2.5224e-06
1.51353e-06
9.00902e-07
5.31918e-07
3.11569e-07
1.81004e-07
1.04296e-07
5.96182e-08
3.38066e-08
1.90151e-08
1.06085e-08
5.84152e-09
3.14577e-09
1.66618e-09
8.11139e-10
2.35988e-10
0.279918
0.830391
1.35331
1.83211
2.25271
2.60427
2.87961
3.07534
3.19178
3.23256
3.20414
3.1151
2.97545
2.79592
2.58732
2.35999
2.12335
1.88562
1.65364
1.4328
1.22705
1.03902
0.870181
0.721012
0.591195
0.479813
0.385527
0.306732
0.241688
0.18863
0.145842
0.111719
0.084799
0.0637852
0.0475505
0.0351345
0.0257329
0.0186832
0.0134477
0.00959641
0.00678974
0.00476325
0.00331344
0.00228558
0.00156341
0.00106052
0.000713434
0.000475976
0.000314937
0.000206672
0.000134514
8.68336e-05
5.55971e-05
3.53076e-05
2.22403e-05
1.38956e-05
8.61162e-06
5.29376e-06
3.22791e-06
1.95235e-06
1.17131e-06
6.97085e-07
4.11519e-07
2.40987e-07
1.39959e-07
8.06178e-08
4.6067e-08
2.61332e-08
1.46828e-08
8.19152e-09
4.49694e-09
2.4422e-09
1.2897e-09
5.99299e-10
1.64643e-10
0.20432
0.606228
0.988325
1.33866
1.64707
1.90564
2.1091
2.25484
2.34294
2.37587
2.35813
2.29581
2.19607
2.06664
1.91535
1.74973
1.5767
1.40232
1.23167
1.06879
0.916662
0.777323
0.651935
0.540927
0.444131
0.360928
0.290372
0.231308
0.182475
0.142578
0.110358
0.0846266
0.0643002
0.0484134
0.0361248
0.026716
0.0195838
0.0142302
0.0102505
0.00732017
0.00518281
0.00363829
0.00253242
0.00174783
0.0011962
0.000811821
0.000546367
0.000364659
0.000241367
0.000158441
0.000103149
6.66007e-05
4.26497e-05
2.70884e-05
1.70644e-05
1.0662e-05
6.60753e-06
4.06154e-06
2.4763e-06
1.49753e-06
8.98278e-07
5.34457e-07
3.15437e-07
1.84653e-07
1.0721e-07
6.17388e-08
3.52621e-08
1.99657e-08
1.11968e-08
6.25203e-09
3.44542e-09
1.89449e-09
9.87856e-10
4.64292e-10
1.32812e-10
0.14825
0.439933
0.717437
0.972193
1.19688
1.3858
1.53505
1.64271
1.70871
1.73472
1.72387
1.68048
1.60962
1.51684
1.40777
1.28787
1.16217
1.03512
0.910453
0.791165
0.679501
0.577003
0.48458
0.402597
0.33098
0.269311
0.216927
0.173006
0.136637
0.10688
0.082815
0.0635707
0.0483493
0.0364379
0.0272137
0.0201433
0.014778
0.0107467
0.00774703
0.00553633
0.00392246
0.00275528
0.00191894
0.00132515
0.000907381
0.000616098
0.000414818
0.000276965
0.000183383
0.000120413
7.84108e-05
5.06375e-05
3.24318e-05
2.06007e-05
1.2978e-05
8.10879e-06
5.02498e-06
3.08847e-06
1.88275e-06
1.13838e-06
6.82703e-07
4.06088e-07
2.39575e-07
1.4019e-07
8.13708e-08
4.68266e-08
2.67402e-08
1.5123e-08
8.48678e-09
4.72854e-09
2.61672e-09
1.41373e-09
7.11256e-10
3.41359e-10
1.10859e-10
0.106912
0.317307
0.517603
0.701689
0.864329
1.00141
1.11013
1.18903
1.238
1.25817
1.25171
1.22165
1.17158
1.10546
1.0273
0.941051
0.850336
0.758388
0.667941
0.581198
0.499825
0.42498
0.357363
0.297274
0.244692
0.199337
0.160751
0.128349
0.101478
0.0794625
0.0616338
0.0473583
0.0360532
0.027196
0.0203293
0.0150603
0.0110578
0.00804751
0.0058055
0.00415172
0.00294341
0.00206883
0.00144169
0.000996114
0.000682415
0.000463558
0.00031224
0.000208551
0.000138129
9.07228e-05
5.90899e-05
3.81666e-05
2.44475e-05
1.55301e-05
9.78381e-06
6.11285e-06
3.78779e-06
2.32778e-06
1.41878e-06
8.57666e-07
5.14213e-07
3.05774e-07
1.8032e-07
1.05448e-07
6.11735e-08
3.51896e-08
2.00798e-08
1.13746e-08
6.39472e-09
3.53323e-09
1.94717e-09
1.04054e-09
5.30149e-10
2.42573e-10
7.02475e-11
0.0766217
0.227437
0.371099
0.503269
0.620223
0.719026
0.79765
0.855027
0.891033
0.906422
0.902702
0.881982
0.8468
0.799946
0.744291
0.682639
0.617603
0.55151
0.486344
0.423713
0.364841
0.310589
0.261488
0.217778
0.179465
0.146367
0.118166
0.094449
0.0747541
0.0585959
0.0454938
0.03499
0.0266619
0.0201298
0.0150601
0.0111659
0.00820482
0.00597568
0.00431395
0.00308715
0.00219006
0.00154026
0.00107395
0.000742414
0.000508854
0.000345811
0.00023302
0.000155692
0.00010315
6.77654e-05
4.41461e-05
2.85185e-05
1.82693e-05
1.16059e-05
7.31156e-06
4.56791e-06
2.83014e-06
1.73899e-06
1.05971e-06
6.40435e-07
3.83862e-07
2.28178e-07
1.34521e-07
7.86355e-08
4.55961e-08
2.62353e-08
1.4955e-08
8.46922e-09
4.75159e-09
2.64306e-09
1.44117e-09
7.86992e-10
4.18192e-10
2.04157e-10
2.74404e-11
0.0545668
0.16199
0.264373
0.358654
0.442199
0.512925
0.569381
0.610786
0.637026
0.648604
0.646556
0.632352
0.607767
0.574766
0.535378
0.491593
0.445275
0.39809
0.351464
0.306562
0.264276
0.225238
0.189847
0.15829
0.130587
0.106619
0.086167
0.068944
0.0546224
0.0428576
0.0333062
0.0256399
0.0195546
0.0147764
0.0110641
0.00820968
0.00603717
0.00440015
0.00317875
0.00227627
0.00161582
0.00113706
0.00079325
0.000548645
0.000376218
0.00025578
0.000172419
0.000115239
7.63703e-05
5.01839e-05
3.26984e-05
2.1126e-05
1.35346e-05
8.59828e-06
5.41661e-06
3.38371e-06
2.09615e-06
1.28773e-06
7.84514e-07
4.73964e-07
2.83993e-07
1.68738e-07
9.94354e-08
5.8109e-08
3.3687e-08
1.93773e-08
1.10442e-08
6.24544e-09
3.48713e-09
1.95266e-09
1.08664e-09
6.0369e-10
3.0404e-10
1.51471e-10
3.29285e-11
0.0386112
0.114636
0.187128
0.253941
0.313224
0.363504
0.403752
0.433405
0.452364
0.460961
0.459909
0.450223
0.433142
0.410037
0.382337
0.351443
0.318675
0.285217
0.252089
0.220125
0.18997
0.162086
0.136765
0.114154
0.0942739
0.0770501
0.062333
0.0499232
0.0395908
0.0310927
0.0241853
0.0186349
0.0142244
0.0107575
0.0080613
0.00598616
0.0044053
0.00321304
0.00232272
0.00166434
0.00118215
0.000832351
0.000580982
0.000402028
0.000275803
0.000187586
0.000126495
8.4572e-05
5.60616e-05
3.68466e-05
2.40121e-05
1.55156e-05
9.94077e-06
6.31522e-06
3.97811e-06
2.48484e-06
1.53906e-06
9.45269e-07
5.75688e-07
3.47682e-07
2.0823e-07
1.23682e-07
7.28577e-08
4.25612e-08
2.4636e-08
1.41593e-08
8.08834e-09
4.55621e-09
2.54318e-09
1.40824e-09
7.84797e-10
4.37949e-10
2.22816e-10
8.8907e-11
4.17095e-11
0.0271438
0.0805969
0.131589
0.178624
0.220406
0.255905
0.284394
0.30547
0.319052
0.325361
0.324881
0.318313
0.306512
0.290435
0.271077
0.249421
0.226394
0.202833
0.179459
0.156867
0.135518
0.115745
0.0977633
0.0816825
0.0675248
0.0552421
0.0447335
0.0358613
0.0284655
0.0223755
0.0174199
0.0134335
0.0102625
0.00776744
0.00582513
0.00432884
0.00318792
0.00232672
0.00168309
0.00120676
0.000857636
0.000604194
0.000421944
0.000292114
0.000200485
0.000136412
9.20185e-05
6.15398e-05
4.0804e-05
2.68238e-05
1.7483e-05
1.12978e-05
7.2387e-06
4.59852e-06
2.89647e-06
1.80897e-06
1.12023e-06
6.87846e-07
4.18794e-07
2.5283e-07
1.5135e-07
8.98554e-08
5.29074e-08
3.08913e-08
1.78703e-08
1.02485e-08
5.8492e-09
3.30493e-09
1.86485e-09
1.02627e-09
5.43321e-10
2.89771e-10
1.55862e-10
5.48809e-11
3.40261e-11
0.0189568
0.0562926
0.0919243
0.124814
0.154062
0.178952
0.198973
0.213841
0.22349
0.228068
0.227902
0.223472
0.215367
0.204249
0.190808
0.175727
0.159654
0.143176
0.1268
0.110944
0.0959385
0.0820201
0.0693445
0.0579936
0.0479871
0.0392948
0.031849
0.0255551
0.0203026
0.0159727
0.0124456
0.00960535
0.00734378
0.00556261
0.00417473
0.00310459
0.00228791
0.00167094
0.00120948
0.0008677
0.000617019
0.000434912
0.000303874
0.00021047
0.00014451
9.8363e-05
6.63738e-05
4.44017e-05
2.94474e-05
1.93617e-05
1.2621e-05
8.15652e-06
5.22607e-06
3.31981e-06
2.09084e-06
1.30558e-06
8.08311e-07
4.96189e-07
3.02007e-07
1.82254e-07
1.09041e-07
6.4676e-08
3.80566e-08
2.21916e-08
1.28432e-08
7.35074e-09
4.17314e-09
2.36756e-09
1.35226e-09
7.60649e-10
4.14899e-10
2.08547e-10
1.17445e-10
6.36618e-11
1.97571e-11
0.0131512
0.0390561
0.0637878
0.0866312
0.106966
0.124295
0.138265
0.148674
0.155474
0.15876
0.158755
0.155783
0.15025
0.142609
0.133336
0.122903
0.111761
0.100316
0.0889221
0.0778742
0.0674028
0.0576769
0.0488078
0.0408554
0.0338362
0.0277316
0.0224964
0.0180662
0.0143649
0.0113106
0.00882003
0.0068125
0.00521246
0.00395113
0.00296743
0.00220829
0.00162846
0.00119008
0.000861938
0.000618727
0.000440215
0.000310449
0.000217015
0.000150375
0.00010329
7.03309e-05
4.7473e-05
3.17663e-05
2.10721e-05
1.38573e-05
9.03393e-06
5.83862e-06
3.74095e-06
2.37625e-06
1.49641e-06
9.34243e-07
5.7826e-07
3.54874e-07
2.1591e-07
1.30242e-07
7.78836e-08
4.61746e-08
2.7143e-08
1.58046e-08
9.1212e-09
5.2049e-09
2.95369e-09
1.67167e-09
9.40658e-10
5.30149e-10
3.01845e-10
1.48178e-10
9.43951e-11
6.5857e-11
1.97571e-11
0.00906249
0.0269155
0.0439659
0.059724
0.0737643
0.0857454
0.0954229
0.102656
0.10741
0.109745
0.109811
0.107829
0.104074
0.0988555
0.0924995
0.0853308
0.0776584
0.0697639
0.0618928
0.0542495
0.0469951
0.0402485
0.0340886
0.0285587
0.0236722
0.0194176
0.0157648
0.0126705
0.0100827
0.00794511
0.00620034
0.00479266
0.00366968
0.00278364
0.00209204
0.00155787
0.00114956
0.000840611
0.000609184
0.000437535
0.000311464
0.000219759
0.00015369
0.000106541
7.32091e-05
4.98658e-05
3.36692e-05
2.25352e-05
1.49518e-05
9.83394e-06
6.41164e-06
4.144e-06
2.65512e-06
1.68641e-06
1.06185e-06
6.62815e-07
4.10159e-07
2.51626e-07
1.53013e-07
9.22438e-08
5.51443e-08
3.26662e-08
1.91754e-08
1.11584e-08
6.41338e-09
3.65507e-09
2.06133e-09
1.16128e-09
6.25642e-10
3.29285e-10
1.81107e-10
1.11957e-10
7.13451e-11
3.62214e-11
2.08547e-11
0.00620273
0.0184233
0.0300982
0.0408942
0.0505214
0.0587467
0.0654025
0.0703916
0.0736875
0.0753306
0.0754206
0.0741062
0.0715732
0.0680319
0.0637039
0.0588108
0.0535639
0.0481564
0.042757
0.0375068
0.0325175
0.0278718
0.0236251
0.0198085
0.0164322
0.0134895
0.0109605
0.00881595
0.0070207
0.00553637
0.00432371
0.00334446
0.00256259
0.00194517
0.00146284
0.00109002
0.000804824
0.000588872
0.000426991
0.000306843
0.00021854
0.000154268
0.000107936
7.48538e-05
5.14546e-05
3.50594e-05