/*--------------------------------*- C++ -*----------------------------------*\
  =========                 |
  \\      /  F ield         | OpenFOAM: The Open Source CFD Toolbox
   \\    /   O peration     | Website:  https://openfoam.org
    \\  /    A nd           | Version:  10
     \\/     M anipulation  |
\*---------------------------------------------------------------------------*/
FoamFile
{
    format      ascii;
    class       volScalarField;
    location    "497";
    object      gradTx;
}
// * * * * * * * * * * * * * * * * * * * * * * * * * * * * * * * * * * * * * //

dimensions      [0 -1 0 1 0 0 0];

internalField   nonuniform List<scalar> 
11250
(
14307.9
8128.1
5350
3882.28
2998.34
2410.86
1991.24
1675.22
1427.65
1227.84
1062.84
924.172
806.032
704.321
616.052
538.989
471.414
411.979
359.604
313.401
272.634
236.676
204.989
177.105
152.61
131.137
112.358
95.9775
81.7298
69.3742
58.6931
49.4901
41.5874
34.8253
29.0598
24.1621
20.0172
16.5226
13.5878
11.1326
9.08682
7.3889
5.98537
4.82985
3.8824
3.10872
2.47954
1.96997
1.55898
1.22888
0.964853
0.754552
0.587745
0.455992
0.352362
0.271195
0.207889
0.158721
0.120695
0.0914091
0.0689497
0.0517977
0.0387536
0.0288746
0.021423
0.0158244
0.0116331
0.00850496
0.00617489
0.00443909
0.0031408
0.0021589
0.00139865
0.000784237
0.000252487
4103.74
4726.8
4040.33
3299.47
2703.1
2244.49
1889.33
1608.66
1381.97
1195.25
1038.87
906.095
792.128
693.453
607.443
532.095
465.844
407.447
355.894
310.351
270.117
234.593
203.263
175.671
151.419
130.147
111.535
95.2942
81.1629
68.9043
58.3043
49.1689
41.3226
34.6074
28.8809
24.0156
19.8976
16.4252
13.5087
11.0686
9.0351
7.34728
5.95197
4.80315
3.86112
3.09182
2.46615
1.95941
1.55068
1.22238
0.959783
0.75061
0.584692
0.453635
0.35055
0.269807
0.20683
0.157916
0.120085
0.090949
0.068604
0.0515389
0.0385607
0.0287313
0.0213171
0.0157463
0.0115759
0.00846324
0.00614468
0.00441742
0.00312551
0.00214841
0.00139187
0.000780437
0.000251266
1484.11
2635.45
2785.75
2573.17
2271.32
1976.14
1714.63
1490.01
1298.39
1134.54
993.623
871.656
765.449
672.48
590.757
518.687
454.981
398.587
348.628
304.367
265.172
230.496
199.862
172.846
149.069
128.193
109.91
93.9443
80.0422
67.9752
57.5352
48.5333
40.7984
34.176
28.5267
23.7256
19.6606
16.2322
13.3519
10.9416
8.93255
7.26473
5.88574
4.75018
3.8189
3.05828
2.43961
1.93847
1.53422
1.20949
0.94972
0.742785
0.57863
0.448956
0.346952
0.267051
0.204726
0.156317
0.118874
0.0900353
0.0679173
0.0510249
0.0381774
0.0284467
0.0211065
0.0155913
0.0114622
0.00838035
0.00608465
0.00437436
0.00309511
0.00212755
0.00137838
0.00077288
0.000248835
681.521
1545.57
1894.74
1937.08
1834.1
1675.58
1504.72
1340.22
1189.09
1053.08
931.754
823.879
728.022
642.803
566.981
499.473
439.343
385.784
338.096
295.67
257.969
224.517
194.892
168.71
145.626
125.326
107.525
91.9602
78.394
66.6078
56.4026
47.5969
40.0258
33.5399
28.0042
23.2975
19.3108
15.9471
13.1203
10.7539
8.78101
7.14272
5.78782
4.67186
3.75646
3.00868
2.40033
1.90748
1.50986
1.19041
0.934826
0.731203
0.569656
0.44203
0.341625
0.26297
0.201612
0.153949
0.11708
0.088682
0.0669002
0.0502635
0.0376096
0.0280249
0.0207946
0.0153615
0.0112938
0.00825752
0.00599569
0.00431056
0.00305005
0.00209664
0.00135838
0.000761678
0.00024523
378.063
970.989
1311.23
1447.29
1453.62
1388.78
1290.09
1178.91
1066.69
959.102
858.725
766.471
682.416
606.233
537.418
475.407
419.637
369.569
324.701
284.569
248.747
216.843
188.498
163.379
141.18
121.619
104.436
89.3887
76.2557
64.8322
54.9307
46.3791
39.0203
32.7116
27.3235
22.7395
18.8547
15.5753
12.818
10.509
8.58313
6.98337
5.65991
4.56952
3.67486
2.94383
2.34898
1.86696
1.478
1.16544
0.915339
0.716047
0.557912
0.432963
0.334652
0.257627
0.197533
0.150847
0.114731
0.0869096
0.065568
0.049266
0.0368657
0.0274724
0.0203858
0.0150604
0.011073
0.00809656
0.0058791
0.00422693
0.002991
0.00205612
0.00133216
0.000746993
0.000240505
237.94
649.504
932.588
1088.14
1145.49
1137.26
1089.55
1020.48
941.627
860.047
779.822
703.208
631.355
564.758
503.533
447.582
396.688
350.571
308.926
271.44
237.8
207.704
180.862
156.997
135.847
117.165
100.718
86.289
73.6748
62.6868
53.1504
44.9047
37.802
31.7072
26.4976
22.0621
18.3006
15.1234
12.4505
10.2111
8.34234
6.78938
5.50414
4.44485
3.57543
2.86479
2.28638
1.81755
1.43914
1.13499
0.891564
0.697552
0.543578
0.421896
0.326139
0.251103
0.192553
0.14706
0.111862
0.0847444
0.0639404
0.0480473
0.0359568
0.0267972
0.0198863
0.0146925
0.0108032
0.00789979
0.00573657
0.00412468
0.0029188
0.00200657
0.00130011
0.000729036
0.000234726
162.267
456.899
682.139
828.108
904.103
926.597
911.974
873.583
821.238
761.719
699.509
637.479
577.399
520.316
466.802
417.128
371.364
329.463
291.297
256.694
225.452
197.357
172.19
149.729
129.759
112.068
96.456
82.7296
70.7067
60.2161
51.0978
43.2031
36.3945
30.5459
25.5418
21.2776
17.6585
14.5994
12.0242
9.86521
8.0627
6.564
5.32309
4.29991
3.45978
2.77284
2.21352
1.76003
1.39389
1.09953
0.863866
0.676002
0.526873
0.408995
0.316214
0.243496
0.186745
0.142642
0.108515
0.0822182
0.0620412
0.046625
0.0348959
0.026009
0.0193032
0.0142629
0.0104882
0.00767002
0.00557012
0.00400527
0.00283447
0.0019487
0.00126266
0.000708061
0.000227976
116.625
334.077
511.605
638.938
717.336
754.392
759.706
742.37
709.912
668.106
621.159
572.031
522.746
474.647
428.597
385.123
344.519
306.92
272.349
240.757
212.043
186.075
162.7
141.751
123.056
106.444
91.7429
78.7858
67.4125
57.4698
48.8131
41.3066
34.8241
29.2488
24.4734
20.3999
16.9396
14.0122
11.5461
9.47724
7.74882
6.3109
5.11968
4.13698
3.32973
2.6694
2.13154
1.69529
1.34294
1.05958
0.832663
0.651718
0.508045
0.394451
0.305022
0.234917
0.180193
0.137658
0.104738
0.0793673
0.0598975
0.0450195
0.0336982
0.0251191
0.0186446
0.0137777
0.0101324
0.00741047
0.00538208
0.00387036
0.00273919
0.00188331
0.00122035
0.000684356
0.000220348
86.906
251.558
391.888
499.566
573
615.23
631.586
627.951
609.765
581.599
547.065
508.905
469.135
429.199
390.105
352.537
316.938
283.577
252.596
224.046
197.911
174.132
152.614
133.242
115.887
100.412
86.6758
74.5369
63.8567
54.5003
46.3388
39.25
33.119
27.8389
23.3107
19.4439
16.1559
13.3717
11.0243
9.05338
7.4057
6.03406
4.89708
3.95861
3.18729
2.55606
2.04167
1.62428
1.28705
1.01575
0.798412
0.625054
0.487366
0.378474
0.292725
0.225488
0.172991
0.132179
0.100585
0.0762316
0.0575394
0.0432531
0.0323802
0.0241397
0.0179198
0.0132435
0.0097406
0.00712467
0.00517501
0.00372178
0.00263424
0.00181127
0.00117374
0.000658241
0.000211944
66.4697
193.724
305.426
395.271
460.918
503.198
524.902
529.698
521.364
503.353
478.599
449.477
417.841
385.1
352.298
320.19
289.307
260.005
232.509
206.949
183.376
161.79
142.148
124.381
108.397
94.0916
81.3526
70.063
60.1048
51.3613
43.719
37.0691
31.3084
26.3398
22.0732
18.4253
15.32
12.6879
10.4667
8.60023
7.03862
5.73771
4.65864
3.76744
3.03456
2.43447
1.94522
1.54805
1.22702
0.96865
0.761599
0.596388
0.465127
0.361287
0.279493
0.215339
0.165238
0.126278
0.0961118
0.0728538
0.0549987
0.0413495
0.0309597
0.0230839
0.0171383
0.0126676
0.00931811
0.00681642
0.00495164
0.00356148
0.00252101
0.00173355
0.00112344
0.00063006
0.000202874
51.8353
151.794
241.399
315.971
373.213
412.946
436.512
446.125
444.335
433.67
416.425
394.567
369.716
343.165
315.919
288.741
262.197
236.691
212.503
189.814
168.729
149.292
131.505
115.335
100.724
87.5977
75.8686
65.4427
56.2216
48.1059
40.9972
34.7997
29.4214
24.7754
20.7802
17.3598
14.4448
11.9713
9.88185
8.1245
6.65297
5.42615
4.40781
3.56621
2.8737
2.30634
1.84353
1.46765
1.16368
0.918937
0.722728
0.566108
0.441629
0.343122
0.265503
0.204607
0.157037
0.120035
0.0913779
0.0692783
0.0523087
0.0393338
0.0294551
0.0219655
0.0163103
0.0120573
0.00887035
0.00648968
0.00471484
0.00339153
0.00240094
0.00165112
0.00107009
0.000600172
0.000193255
41.0246
120.554
192.957
254.767
303.981
340.013
363.402
375.437
377.803
372.309
360.704
344.568
325.267
303.938
281.502
258.688
236.058
214.034
192.923
172.941
154.225
136.856
120.868
106.259
92.9985
81.0382
70.3135
60.7505
52.269
44.7855
38.2157
32.4764
27.4867
23.1692
19.4508
16.2631
13.5429
11.2321
9.278
7.6329
6.25413
5.1037
4.14804
3.35768
2.7069
2.17341
1.73799
1.38415
1.09787
0.867264
0.682307
0.534609
0.417176
0.324212
0.250936
0.193429
0.148492
0.113529
0.0864433
0.0655504
0.0495034
0.0372311
0.0278854
0.0207984
0.0154462
0.0114202
0.00840285
0.00614849
0.00446753
0.00321401
0.00227551
0.00156501
0.00101436
0.000568941
0.000183204
32.8409
96.7574
155.634
206.885
248.849
280.821
302.909
315.829
320.673
318.715
311.263
299.56
284.726
267.732
249.394
230.381
211.226
192.344
174.05
156.575
140.08
124.668
110.397
97.288
85.3356
74.511
64.7697
56.0555
48.3045
41.4478
35.4143
30.1324
25.5315
21.5435
18.1034
15.1501
12.6266
10.4803
8.66323
7.13196
5.84737
4.77458
3.8827
3.14454
2.53631
2.03738
1.62991
1.29861
1.03042
0.814277
0.640841
0.502283
0.392072
0.304791
0.23597
0.181941
0.139708
0.106839
0.0813677
0.0617149
0.0466165
0.0350668
0.0262694
0.0195965
0.0145561
0.0107639
0.00792118
0.00579689
0.00421263
0.00303102
0.0021462
0.00147622
0.000956885
0.000536736
0.000172838
26.5237
78.3031
126.437
168.978
204.581
232.551
252.781
265.635
271.808
272.186
267.734
259.413
248.127
234.685
219.794
204.047
187.933
171.847
156.096
140.913
126.469
112.882
100.226
88.5404
77.8363
68.1023
59.3103
51.4196
44.3803
38.1368
32.6296
27.7979
23.5809
19.9191
16.7553
14.035
11.7074
9.72525
8.04521
6.62788
5.43769
4.44283
3.61504
2.92937
2.36398
1.89987
1.5206
1.21205
0.962128
0.760603
0.598818
0.469509
0.36661
0.285086
0.22078
0.170277
0.130786
0.100042
0.0762095
0.057816
0.0436811
0.0328656
0.0246253
0.0183736
0.0136502
0.0100958
0.00743076
0.00543885
0.00395303
0.00284462
0.00201446
0.00138575
0.000898319
0.000503915
0.000162275
21.5697
63.7797
103.302
138.658
168.769
193.003
211.156
223.385
230.12
231.969
229.638
223.864
215.363
204.802
192.776
179.805
166.325
152.697
139.213
126.099
113.527
101.621
90.4661
80.1127
70.585
61.8852
53.9984
46.8966
40.5423
34.891
29.8941
25.5004
21.6579
18.3151
15.422
12.9307
10.796
8.97573
7.43104
6.12643
5.02978
4.11223
3.34808
2.7146
2.19186
1.76244
1.41129
1.12542
0.893752
0.706837
0.556704
0.436648
0.341069
0.265313
0.205531
0.158563
0.121824
0.0932111
0.0710245
0.0538956
0.0407287
0.0306511
0.022971
0.0171428
0.0127383
0.00942303
0.00693683
0.00507818
0.00369146
0.00265678
0.00188168
0.00129456
0.000839281
0.000470827
0.000151624
17.6349
52.2117
84.7759
114.194
139.604
160.458
176.516
187.815
194.612
197.322
196.457
192.574
186.239
177.991
168.328
157.693
146.47
134.984
123.5
112.234
101.351
90.9777
81.2016
72.0815
63.6503
55.9201
48.8866
42.5321
36.8295
31.744
27.2362
23.2637
19.7824
16.7482
14.1177
11.8489
9.90195
8.23958
6.82715
5.63287
4.62789
3.78621
3.08461
2.50248
2.02172
1.62651
1.30309
1.03964
0.825998
0.653531
0.514928
0.404037
0.315711
0.245672
0.190379
0.146919
0.112912
0.0864166
0.0658652
0.0499935
0.0377892
0.0284456
0.0213229
0.0159163
0.0118294
0.00875238
0.00644433
0.00471847
0.00343055
0.00246938
0.0017492
0.00120355
0.000780355
0.0004378
0.000140993
14.4768
42.9065
69.8094
94.3091
115.718
133.57
147.625
157.855
164.405
167.552
167.667
165.171
160.504
154.1
146.369
137.686
128.383
118.744
109.01
99.3787
90.0069
81.0157
72.4942
64.5043
57.0846
50.2543
44.0168
38.363
33.2739
28.7233
24.6797
21.1081
17.9717
15.2329
12.8543
10.7995
9.03358
7.52372
6.23922
5.15185
4.23583
3.46787
2.82711
2.295
1.85519
1.49335
1.19704
0.955499
0.759504
0.601188
0.473886
0.371982
0.290774
0.226349
0.175465
0.135454
0.104133
0.0797217
0.0607796
0.0461459
0.03489
0.0262697
0.0196965
0.0147056
0.0109319
0.00809003
0.00595782
0.00436306
0.00317271
0.00228415
0.00161822
0.00111357
0.000722087
0.000405139
0.00013048
11.9207
35.3613
57.6307
78.0467
96.0597
111.28
123.484
132.608
138.727
142.026
142.769
141.273
137.879
132.935
126.775
119.712
112.029
103.973
95.7581
87.562
79.5294
71.7747
64.3843
57.4208
50.9257
44.9227
39.421
34.4178
29.901
25.8512
22.2437
19.0501
16.2399
13.7811
11.642
9.79109
8.19802
6.83403
5.67213
4.68737
3.85686
3.15987
2.57776
2.09391
1.69366
1.3641
1.09403
0.873719
0.694836
0.550253
0.433925
0.340756
0.26647
0.207508
0.160917
0.124266
0.0955628
0.0731832
0.0558112
0.0423857
0.0320556
0.0241419
0.0181056
0.013521
0.0100536
0.00744163
0.00548144
0.00401498
0.00292012
0.00210266
0.00148987
0.00102538
0.000664971
0.000373121
0.000120172
9.83754
29.2032
47.6622
64.68
79.8169
92.7492
103.277
111.323
116.917
120.178
121.297
120.509
118.08
114.284
109.394
103.667
97.3436
90.6358
83.73
76.7844
69.9302
63.2728
56.8942
50.8551
45.1978
39.9489
35.1213
30.7171
26.7294
23.1444
19.9431
17.1027
14.5981
12.4025
10.489
8.83061
7.40107
6.17537
5.12992
4.24277
3.49374
2.86446
2.33838
1.90071
1.53834
1.23973
0.994828
0.794914
0.632481
0.50111
0.39535
0.310596
0.242985
0.189292
0.146846
0.11344
0.0872665
0.0668513
0.0509981
0.0387417
0.029308
0.0220785
0.0165624
0.0123716
0.00920108
0.00681215
0.00501884
0.00367689
0.00267473
0.0019263
0.00136513
0.000939661
0.000609446
0.000341991
0.000110151
8.1306
24.1509
39.4641
53.6488
66.3527
77.3088
86.3427
93.3728
98.4026
101.508
102.825
102.528
100.822
97.925
94.0556
89.4271
84.2387
78.6721
72.888
67.0252
61.2009
55.5105
50.0301
44.8172
39.9135
35.3465
31.1316
27.2742
23.7716
20.6144
17.7883
15.2752
13.0546
11.1043
9.40155
7.92337
6.64727
5.55158
4.6158
3.82073
3.14868
2.58347
2.11048
1.71661
1.39021
1.12102
0.900083
0.719596
0.572846
0.454083
0.358414
0.281702
0.220473
0.171824
0.133345
0.103048
0.0792999
0.0607686
0.0463725
0.0352386
0.0266656
0.0200935
0.0150773
0.0112652
0.00838025
0.00620589
0.00457319
0.0033511
0.00243823
0.00175629
0.00124485
0.000856993
0.000555893
0.000311965
0.000100484
6.72583
19.9887
32.6966
44.5159
55.1638
64.4206
72.1367
78.2335
82.699
85.5798
86.971
87.0041
85.836
83.6379
80.5864
76.8555
72.6109
68.0057
63.1776
58.2471
53.3173
48.4737
43.7853
39.3059
35.075
31.1201
27.4579
24.0961
21.0348
18.2683
15.786
13.5737
11.6149
9.89141
8.38397
7.07321
5.93993
4.96549
4.13215
3.42326
2.82337
2.3183
1.89521
1.54255
1.25005
1.00862
0.810299
0.648172
0.516258
0.40943
0.323322
0.254236
0.199062
0.155201
0.120492
0.0931502
0.0717088
0.0549702
0.0419615
0.0318966
0.0241439
0.0181985
0.0136592
0.0102083
0.00759593
0.00562642
0.00414713
0.00303956
0.002212
0.00159364
0.00112976
0.000777874
0.000504631
0.000283221
9.12295e-05
5.56589
16.5489
27.0941
36.9363
45.8481
53.6493
60.2131
65.4668
69.3905
72.011
73.3949
73.64
72.8669
71.2102
68.8112
65.8116
62.3484
58.5497
54.5325
50.4005
46.2434
42.1369
38.1428
34.3102
30.6761
27.2669
24.0998
21.1838
18.5212
16.1088
13.9392
12.0015
10.2823
8.76682
7.43901
6.28257
5.2812
4.41898
3.68064
3.05178
2.519
2.06994
1.6934
1.37924
1.11843
0.902976
0.725856
0.580949
0.462962
0.367349
0.290231
0.228321
0.17885
0.139501
0.108347
0.0837927
0.0645289
0.0494836
0.037786
0.0287319
0.0217551
0.0164028
0.0123148
0.00920606
0.00685197
0.00507662
0.00374277
0.0027438
0.00199719
0.00143916
0.00102043
0.000702702
0.00045592
0.000255905
8.24341e-05
4.60571
13.6994
22.4462
30.6347
38.0819
44.6403
50.2029
54.7051
58.1231
60.4707
61.7944
62.1668
61.6803
60.4405
58.5602
56.1546
53.336
50.2113
46.879
43.4276
39.9347
36.4662
33.0772
29.8116
26.7036
23.7779
21.0514
18.5338
16.2288
14.1353
12.2482
10.5592
9.0577
7.73164
6.56784
5.55262
4.67222
3.91309
3.26218
2.70711
2.23629
1.83904
1.50559
1.22712
0.995727
0.804413
0.64701
0.518137
0.41313
0.327977
0.259252
0.204046
0.159906
0.124778
0.0969516
0.0750095
0.0577866
0.0443292
0.0338617
0.0257563
0.0195082
0.0147132
0.0110495
0.00826246
0.0061513
0.00455865
0.00336171
0.00246502
0.00179466
0.00129348
0.000917296
0.000631782
0.000409958
0.000230127
7.41338e-05
3.80947
11.3349
18.5846
25.3896
31.6024
37.1024
41.8002
45.6392
48.5947
50.6723
51.904
52.3434
52.0615
51.1411
49.672
47.7471
45.4587
42.8952
40.1392
37.2655
34.3407
31.4219
28.5574
25.7862
23.1392
20.6392
18.3024
16.1385
14.1523
12.344
10.7103
9.2451
7.94005
6.78539
5.7703
4.88342
4.11316
3.44809
2.87708
2.38956
1.97555
1.62586
1.33203
1.08641
0.882138
0.713098
0.573907
0.459858
0.366862
0.291398
0.230452
0.181465
0.142275
0.111069
0.0863352
0.0668224
0.0514989
0.0395203
0.0301989
0.022978
0.0174095
0.0131344
0.00986676
0.00738013
0.00549592
0.00407402
0.00300508
0.00220404
0.00160501
0.00115703
0.000820682
0.00056533
0.000366886
0.000205967
6.63541e-05
3.14842
9.37083
15.3734
21.021
26.1945
30.7957
34.7501
38.0086
40.5477
42.3677
43.4902
43.955
43.8164
43.1392
41.9949
40.4583
38.6046
36.5069
34.2339
31.8486
29.4077
26.9602
24.5481
22.2057
19.9604
17.8332
15.839
13.9874
12.2835
10.7287
9.32095
8.05581
6.92685
5.92622
5.04508
4.27403
3.6034
3.02356
2.52509
2.09897
1.73671
1.43039
1.17274
0.957159
0.777702
0.629072
0.506589
0.406151
0.324195
0.257643
0.20386
0.160603
0.125976
0.0983881
0.0765107
0.0592424
0.0456748
0.0350639
0.0268031
0.0204012
0.0154622
0.011669
0.00876858
0.00656062
0.004887
0.00362361
0.00267353
0.00196134
0.0014286
0.00103007
0.000730772
0.000503478
0.000326788
0.000183474
5.91105e-05
2.59929
7.73848
12.7021
17.3819
21.6816
25.5212
28.839
31.5933
33.762
35.3424
36.3489
36.8111
36.7703
36.2772
35.3886
34.1647
32.6666
30.9543
29.0848
27.111
25.0805
23.0353
21.0115
19.0391
17.1422
15.3396
13.6449
12.0673
10.6121
9.28124
8.07369
6.98634
6.01424
5.15115
4.3899
3.72274
3.14164
2.63853
2.20547
1.83482
1.51936
1.25233
1.0275
0.839203
0.682315
0.552264
0.445006
0.356985
0.285107
0.2267
0.179467
0.141455
0.111008
0.0867366
0.0674789
0.0522704
0.0403154
0.0309612
0.0236756
0.018027
0.0136673
0.0103177
0.00775556
0.00580441
0.00432492
0.00320771
0.00236729
0.00173711
0.00126557
0.00091272
0.000647642
0.00044628
0.000289702
0.000162667
5.24098e-05
2.14308
6.38178
10.4801
14.3511
17.9172
21.1132
23.8882
26.2068
28.0493
29.4113
30.302
30.7434
30.7669
30.4123
29.7245
28.7518
27.5438
26.1496
24.6161
22.9875
21.3038
19.6007
17.9088
16.2541
14.6578
13.1363
11.7022
10.3638
9.12631
7.99208
6.96089
6.03056
5.19736
4.45634
3.80172
3.22716
2.72601
2.29153
1.91709
1.59623
1.32284
1.09118
0.89593
0.73225
0.595751
0.482506
0.389032
0.312264
0.24953
0.198516
0.157236
0.123993
0.0973502
0.0760993
0.0592289
0.0458988
0.0354152
0.0272084
0.0208135
0.0158533
0.0120234
0.00907961
0.00682706
0.00511104
0.00380938
0.00282613
0.00208623
0.00153126
0.00111586
0.000804926
0.000571268
0.000393719
0.000255618
0.000143543
4.62504e-05
1.76419
5.25459
8.63263
11.8285
14.7796
17.433
19.7468
21.6912
23.2489
24.4146
25.1943
25.6039
25.6676
25.4163
24.8857
24.1144
23.1424
22.0099
20.7554
19.4156
18.0239
16.6102
15.2008
13.8178
12.4795
11.2005
9.9917
8.86093
7.81311
6.85067
5.97395
5.18152
4.47058
3.83726
3.27692
2.78439
2.3542
1.98076
1.65852
1.38207
1.14626
0.946235
0.777483
0.635881
0.517688
0.419548
0.338475
0.271842
0.21735
0.173007
0.137102
0.108168
0.0849662
0.0664488
0.0517403
0.0401123
0.0309628
0.0237969
0.0182106
0.0138756
0.0105271
0.0079523
0.00598132
0.00447924
0.00333947
0.0024782
0.00182989
0.00134345
0.000979231
0.000706529
0.000501535
0.000345719
0.000224485
0.000126073
4.06236e-05
1.44972
4.31876
7.09782
9.73086
12.1674
14.3645
16.2878
17.9123
19.2231
20.2147
20.8906
21.2627
21.3492
21.1745
20.7665
20.1562
19.3759
18.4582
17.4347
16.3357
15.1888
14.0194
12.8493
11.6976
10.5798
9.50876
8.49401
7.54258
6.65904
5.84586
5.10369
4.43168
3.82777
3.28893
2.81147
2.39118
2.0236
1.70411
1.42808
1.19101
0.988568
0.816666
0.671502
0.549579
0.447722
0.363074
0.293092
0.235529
0.188421
0.150061
0.118979
0.0939162
0.0738061
0.0577471
0.0449844
0.0348894
0.0269421
0.0207148
0.0158579
0.0120873
0.00917355
0.00693212
0.00521566
0.00390706
0.00291375
0.00216289
0.0015975
0.00117314
0.000855304
0.000617253
0.000438251
0.000302149
0.000196223
0.000110211
3.55144e-05
1.18898
3.54262
5.82421
7.98874
9.99561
11.8099
13.4036
14.7559
15.8541
16.6928
17.274
17.6062
17.7036
17.5848
17.2723
16.7905
16.1655
15.4236
14.5908
13.6918
12.7497
11.7854
10.8174
9.86166
8.93162
8.03814
7.18964
6.39234
5.6504
4.96622
4.34065
3.77323
3.26247
2.80606
2.40103
2.04402
1.73137
1.45928
1.22392
1.02156
0.848574
0.701532
0.577242
0.472755
0.385388
0.312721
0.252596
0.203104
0.162572
0.129544
0.102764
0.081157
0.0638092
0.0499482
0.0389262
0.0302034
0.023333
0.0179469
0.0137441
0.01048
0.00795644
0.00601441
0.00452665
0.00339198
0.00253038
0.00187886
0.00138809
0.00101963
0.000743566
0.000536737
0.000381164
0.000262838
0.000170717
9.58957e-05
3.0903e-05
0.973083
2.89978
4.7688
6.54405
8.19281
9.68687
11.0033
12.1251
13.0412
13.7468
14.2428
14.5354
14.6353
14.5572
14.3186
13.9392
13.4396
12.8414
12.1655
11.4323
10.6608
9.86818
9.07004
8.2798
7.50878
6.76627
6.05955
5.39408
4.77359
4.20034
3.67527
3.19822
2.76813
2.38322
2.04117
1.73926
1.47453
1.24385
1.0441
0.872157
0.725016
0.599822
0.493897
0.404769
0.330179
0.268089
0.216675
0.174322
0.139611
0.111306
0.0883418
0.0698018
0.0549073
0.0429996
0.0335256
0.0260241
0.0201125
0.0154759
0.0118563
0.00904377
0.00686848
0.00519376
0.00391028
0.00293103
0.00218717
0.00162449
0.0012005
0.000882065
0.00064341
0.000464548
0.000329968
0.000227576
0.000147836
8.30511e-05
2.67652e-05
0.79459
2.3682
3.89567
5.34805
6.69907
7.92592
9.00997
9.93716
10.6983
11.2889
11.7094
11.964
12.0612
12.0121
11.8307
11.5325
11.1342
10.6529
10.1059
9.50963
8.87966
8.23034
7.5745
6.92338
6.28652
5.67179
5.08545
4.5322
4.01538
3.53705
3.09818
2.6988
2.3382
2.015
1.7274
1.47322
1.25006
1.05538
0.886606
0.741171
0.616589
0.510483
0.420626
0.344949
0.281564
0.228757
0.184996
0.14892
0.119332
0.0951897
0.0755889
0.0597547
0.0470263
0.0368445
0.0287394
0.0223182
0.0172555
0.0132827
0.0101799
0.00776793
0.0059016
0.00446415
0.00336207
0.00252091
0.00188171
0.00139802
0.00103343
0.000759511
0.000554154
0.000400198
0.00028432
0.000196129
0.000127426
7.15928e-05
2.30737e-05
0.647288
1.92942
3.17467
4.35987
5.46391
6.46842
7.35827
8.12196
8.75178
9.24386
9.59801
9.81745
9.90845
9.87982
9.74242
9.5086
9.19173
8.80559
8.36403
7.88049
7.36771
6.83747
6.30038
5.76577
5.24163
4.7346
4.24998
3.79185
3.36309
2.96559
2.60028
2.26734
1.96628
1.69608
1.45531
1.24225
1.05496
0.891396
0.749434
0.626976
0.521971
0.432453
0.356573
0.292613
0.238996
0.194291
0.157216
0.126629
0.101526
0.0810282
0.0643761
0.0509156
0.040089
0.0314235
0.0245216
0.0190509
0.0147354
0.0113473
0.00869992
0.00664101
0.00504722
0.00381918
0.00287727
0.00215809
0.00161138
0.00119753
0.000885475
0.000650948
0.000475065
0.000343162
0.000243851
0.000168244
0.000109325
6.14295e-05
1.97992e-05
0.525969
1.56798
2.58054
3.54512
4.44482
5.26485
5.99297
6.61978
7.13891
7.54697
7.84355
8.03096
8.11396
8.09939
7.99577
7.81289
7.56138
7.25233
6.89687
6.5059
6.0898
5.6582
5.21983
4.78242
4.35261
3.93595
3.53694
3.15904
2.80476
2.47576
2.17294
1.89654
1.64625
1.42131
1.22062
1.0428
0.886315
0.749491
0.630614
0.527965
0.439857
0.364675
0.30089
0.247078
0.20193
0.164258
0.132991
0.107177
0.0859767
0.0686543
0.0545727
0.0431831
0.0340167
0.0266759
0.0208259
0.0161865
0.0125249
0.00964891
0.00740058
0.00565124
0.00429651
0.00325224
0.00245096
0.00183892
0.00137349
0.00102104
0.000755189
0.00055532
0.000405378
0.000292894
0.000208175
0.000143656
9.33619e-05
5.24653e-05
1.69109e-05
0.426269
1.27089
2.09204
2.87491
3.60599
4.27339
4.86726
5.37994
5.80616
6.14305
6.39006
6.54884
6.623
6.61784
6.54004
6.39734
6.1982
5.95147
5.66611
5.35092
5.01431
4.66413
4.30755
3.95091
3.59972
3.25859
2.93131
2.62079
2.32921
2.058
1.808
1.57949
1.37228
1.18581
1.01924
0.871486
0.741301
0.627351
0.528244
0.44258
0.368982
0.306123
0.252745
0.207676
0.169833
0.13823
0.111982
0.0902966
0.0724741
0.0579022
0.046049
0.036456
0.0287309
0.022541
0.0176054
0.0136892
0.0105969
0.00816678
0.00626619
0.00478676
0.00364055
0.00275665
0.00207817
0.00155972
0.00116531
0.000866538
0.000641098
0.000471552
0.000344317
0.000248835
0.000176898
0.000122095
7.93617e-05
4.46025e-05
1.43773e-05
0.344528
1.02729
1.69135
2.32495
2.91726
3.45878
3.94157
4.35943
4.70804
4.98497
5.18962
5.32316
5.38833
5.38923
5.3311
5.22003
5.06274
4.86628
4.63783
4.38447
4.11301
3.82982
3.54074
3.25097
2.96504
2.68679
2.41935
2.16519
1.92614
1.70347
1.49791
1.30977
1.13893
0.985016
0.847353
0.725096
0.617262
0.522774
0.440512
0.369338
0.308133
0.255811
0.211343
0.173765
0.142187
0.115797
0.093862
0.0757269
0.0608124
0.0486102
0.0386783
0.0306354
0.024155
0.0189594
0.0148145
0.0115239
0.00892434
0.00688049
0.00528124
0.00403583
0.00307053
0.00232582
0.00175395
0.00131681
0.000984129
0.000732027
0.000541737
0.000398576
0.000291107
0.000210431
0.000149629
0.000103293
6.71505e-05
3.77436e-05
1.21671e-05
0.277679
0.828034
1.36354
1.87482
2.35326
2.79127
3.18247
3.52186
3.80591
4.03258
4.20129
4.31285
4.36934
4.37393
4.33071
4.24448
4.12054
3.96452
3.78215
3.5791
3.36087
3.1326
2.89903
2.66441
2.43246
2.20632
1.9886
1.78137
1.58616
1.40406
1.23573
1.08145
0.941189
0.814665
0.701372
0.600647
0.511709
0.433699
0.365716
0.306841
0.256165
0.212807
0.175926
0.144734
0.118503
0.0965645
0.0783163
0.063219
0.0507945
0.0406231
0.032339
0.0256265
0.0202149
0.0158738
0.0124088
0.00965665
0.0074813
0.00577018
0.00443068
0.00338708
0.00257786
0.00195331
0.00147352
0.00110662
0.0008273
0.000615556
0.000455672
0.000335347
0.000244989
0.000177136
0.000125982
8.69855e-05
5.65574e-05
3.17929e-05
1.02494e-05
0.223153
0.665494
1.09606
1.5074
1.89268
2.24584
2.56177
2.83646
3.06704
3.2518
3.39021
3.48282
3.53122
3.53784
3.50587
3.43909
3.34169
3.21811
3.07294
2.91071
2.73581
2.55242
2.36434
2.17504
1.98754
1.80444
1.62786
1.45953
1.30074
1.15241
1.01511
0.889118
0.774437
0.670864
0.578019
0.495384
0.422344
0.358216
0.302276
0.253786
0.212013
0.17624
0.145788
0.120012
0.0983188
0.0801626
0.0650498
0.0525379
0.0422345
0.033794
0.0269156
0.0213389
0.0168404
0.0132298
0.0103464
0.00805496
0.00624292
0.00481691
0.0037001
0.00282961
0.00215433
0.00163295
0.00123226
0.000925728
0.000692278
0.000515245
0.000381525
0.000280856
0.000205233
0.000148427
0.000105586
7.29168e-05
4.74172e-05
2.66578e-05
8.59439e-06
0.178802
0.533268
0.878415
1.20835
1.51763
1.80146
2.05575
2.2773
2.46376
2.61375
2.72676
2.8032
2.84423
2.85176
2.82825
2.77667
2.70031
2.60271
2.48748
2.35825
2.21853
2.07167
1.92074
1.76854
1.61752
1.4698
1.32713
1.19092
1.06226
0.941909
0.830371
0.727892
0.634506
0.550072
0.474301
0.406794
0.347065
0.294573
0.248741
0.208978
0.174692
0.145308
0.120273
0.0990674
0.0812068
0.0662475
0.0537872
0.0434645
0.0349583
0.0279858
0.0223003
0.017688
0.0139654
0.0109761
0.00858747
0.00668835
0.0051858
0.0040028
0.00307589
0.0023531
0.00179217
0.0013589
0.00102579
0.000770866
0.000576647
0.000429311
0.000317984
0.000234144
0.000171143
0.000123802
8.80882e-05
6.08443e-05
3.95726e-05
2.22499e-05
7.17372e-06
0.14283
0.426013
0.701838
0.965645
1.21314
1.4405
1.64449
1.82254
1.97277
2.09403
2.18589
2.24862
2.2831
2.29078
2.2736
2.23386
2.17416
2.09728
2.00609
1.90347
1.79221
1.67499
1.55429
1.43234
1.31114
1.19241
1.07756
0.967764
0.863913
0.766651
0.676401
0.593384
0.517649
0.449099
0.38752
0.332601
0.283964
0.241179
0.20379
0.171323
0.143306
0.119274
0.0987836
0.0814139
0.0667736
0.054503
0.0442752
0.0357965
0.0288054
0.0230714
0.018393
0.0145956
0.0115289
0.00906503
0.00709528
0.00552841
0.00428813
0.00331118
0.00254537
0.00194795
0.00148411
0.0011257
0.000850031
0.000638988
0.000478142
0.00035608
0.000263818
0.000194312
0.000142066
0.000102793
7.31551e-05
5.05393e-05
3.28752e-05
1.84863e-05
5.96057e-06
0.113741
0.339272
0.559007
0.769273
0.966679
1.1482
1.31129
1.45387
1.57445
1.67209
1.74643
1.79763
1.82636
1.83374
1.82127
1.79074
1.74419
1.6838
1.61185
1.5306
1.4423
1.34905
1.25285
1.15549
1.05857
0.96348
0.871378
0.78321
0.699709
0.621413
0.548677
0.481696
0.420524
0.3651
0.315261
0.27077
0.23133
0.196606
0.166234
0.139839
0.117042
0.097473
0.0807749
0.0666095
0.0546617
0.0446408
0.0362827
0.0293495
0.0236292
0.0189346
0.0151021
0.0119895
0.00947463
0.00745294
0.0058359
0.00454897
0.00352981
0.00272666
0.0020968
0.00160524
0.00122343
0.000928282
0.000701189
0.000527266
0.000394663
0.000293999
0.000217884
0.000160524
0.000117392
8.49604e-05
6.04774e-05
4.17887e-05
2.71872e-05
1.52894e-05
4.93006e-06
0.0902899
0.269337
0.44383
0.610881
0.767819
0.912266
1.04219
1.15597
1.25239
1.33071
1.3906
1.43217
1.45594
1.46274
1.45375
1.43036
1.39416
1.34686
1.29026
1.22614
1.15628
1.08235
1.00594
0.928483
0.851261
0.775386
0.7018
0.631268
0.564389
0.501606
0.443217
0.389391
0.340182
0.295552
0.255382
0.219488
0.187641
0.159578
0.135011
0.113643
0.0951733
0.079307
0.0657584
0.0542566
0.0445486
0.0364009
0.0296007
0.0239563
0.0192965
0.0154701
0.0123445
0.00980465
0.0077514
0.00609999
0.00477846
0.00372619
0.00289249
0.00223519
0.00171949
0.00131685
0.00100398
0.000762026
0.000575792
0.000433108
0.000324284
0.000241641
0.000179132
0.00013201
9.65642e-05
6.99032e-05
4.977e-05
3.43965e-05
2.23813e-05
1.2588e-05
4.05923e-06
0.0714433
0.213129
0.351245
0.483528
0.607881
0.722433
0.825585
0.916048
0.992866
1.05543
1.10347
1.13707
1.15658
1.16268
1.15624
1.13837
1.1103
1.07336
1.02897
0.978534
0.923442
0.86503
0.804549
0.743144
0.681836
0.621518
0.562944
0.506734
0.453375
0.403228
0.356541
0.313458
0.274033
0.238242
0.205996
0.177159
0.15155
0.128965
0.109177
0.0919527
0.0770534
0.0642445
0.0532988
0.0440002
0.0361465
0.0295507
0.0240424
0.0194674
0.0156883
0.0125832
0.0100454
0.00798209
0.00631322
0.00497027
0.00389506
0.00303853
0.00235958
0.00182406
0.00140372
0.0010754
0.000820177
0.000622725
0.000470686
0.000354159
0.000265251
0.000197711
0.000146607
0.00010807
7.90724e-05
5.72543e-05
4.07729e-05
2.81838e-05
1.83415e-05
1.0317e-05
3.3271e-06
0.0563459
0.168099
0.277063
0.381466
0.479668
0.570202
0.651811
0.723479
0.78445
0.834233
0.87261
0.899619
0.915543
0.920879
0.916317
0.9027
0.88099
0.852234
0.817525
0.777975
0.734675
0.688678
0.640972
0.592465
0.543969
0.496194
0.449745
0.405119
0.362709
0.322811
0.285628
0.251282
0.219822
0.191235
0.165458
0.142385
0.121878
0.103777
0.0879063
0.0740807
0.0621126
0.0518161
0.0430113
0.0355263
0.0292002
0.0238841
0.0194416
0.0157497
0.0126982
0.0101895
0.00813812
0.00646938
0.00511894
0.00403169
0.00316079
0.00246668
0.00191624
0.00148188
0.0011408
0.000874278
0.000667012
0.0005066
0.000383036
0.000288297
0.000215988