/*--------------------------------*- C++ -*----------------------------------*\
  =========                 |
  \\      /  F ield         | OpenFOAM: The Open Source CFD Toolbox
   \\    /   O peration     | Website:  https://openfoam.org
    \\  /    A nd           | Version:  10
     \\/     M anipulation  |
\*---------------------------------------------------------------------------*/
FoamFile
{
    format      ascii;
    class       volScalarField;
    location    "119";
    object      gradTz;
}
// * * * * * * * * * * * * * * * * * * * * * * * * * * * * * * * * * * * * * //

dimensions      [0 -1 0 1 0 0 0];

internalField   nonuniform List<scalar> 
11250
(
-14390.7
-4184.6
-1561.3
-753.458
-443.495
-295.968
-212.375
-158.674
-121.097
-93.2895
-71.9864
-55.3512
-42.2569
-31.9488
-23.8783
-17.6184
-12.8211
-9.19544
-6.49649
-4.5194
-3.095
-2.08613
-1.38378
-0.903249
-0.580161
-0.366687
-0.22808
-0.139642
-0.0841814
-0.0499818
-0.0292249
-0.016809
-0.00948234
-0.00521983
-0.00278426
-0.00142762
-0.000698299
-0.000323774
-0.000141659
-5.8327e-05
-2.25739e-05
-8.21242e-06
-2.81089e-06
-9.06464e-07
-2.75907e-07
-7.94159e-08
-2.16692e-08
-5.60663e-09
-1.37531e-09
-3.2709e-10
-8.45165e-11
-1.09762e-11
0
-1.4269e-11
0
0
0
0
0
0
0
0
-2.08547e-11
-1.09762e-12
2.19523e-11
1.09762e-12
-1.09762e-12
0
1.09762e-12
-1.09762e-12
0
-5.48809e-12
-1.09762e-12
6.5857e-12
0
-8375.66
-4968.68
-2866.34
-1760.78
-1166.77
-823.157
-606.887
-459.979
-353.974
-274.106
-212.238
-163.579
-125.094
-94.6976
-70.8436
-52.31
-38.0888
-27.3303
-19.3159
-13.4416
-9.20759
-6.20755
-4.11839
-2.68867
-1.72718
-1.09178
-0.679154
-0.415836
-0.250686
-0.148839
-0.0870272
-0.0500601
-0.0282504
-0.015563
-0.00831143
-0.00426868
-0.00209211
-0.000972166
-0.000426329
-0.000175944
-6.82493e-05
-2.48834e-05
-8.53467e-06
-2.75772e-06
-8.40946e-07
-2.42498e-07
-6.62829e-08
-1.71887e-08
-4.24119e-09
-1.00981e-09
-2.27207e-10
-4.17095e-11
0
0
0
0
-2.19523e-12
0
5.48809e-12
-1.09762e-12
-3.29285e-12
1.09762e-12
1.09762e-12
8.78094e-12
-1.09762e-12
-1.20738e-11
1.09762e-12
2.19523e-12
-1.09762e-12
-4.39047e-12
1.09762e-12
4.39047e-12
0
-8.78094e-12
8.78094e-12
-5760.18
-4441.13
-3168.36
-2251.44
-1635.81
-1220.59
-931.001
-720.629
-562.059
-439.134
-342.102
-264.814
-203.151
-154.15
-115.528
-85.4236
-62.2689
-44.7205
-31.6295
-22.0237
-15.0939
-10.1803
-6.75653
-4.41233
-2.8352
-1.79258
-1.1153
-0.68296
-0.411739
-0.244458
-0.142938
-0.0822403
-0.0464428
-0.0256207
-0.0137127
-0.00706357
-0.00347421
-0.00162076
-0.000713687
-0.000295755
-0.00011519
-4.21619e-05
-1.45148e-05
-4.70663e-06
-1.4401e-06
-4.16604e-07
-1.14177e-07
-2.97004e-08
-7.35953e-09
-1.76387e-09
-4.10509e-10
-6.47594e-11
7.68332e-12
-1.31714e-11
-1.53666e-11
-2.19523e-12
6.58571e-12
9.87856e-12
0
5.48809e-12
0
0
1.09762e-12
5.48809e-12
-1.09762e-12
-5.48809e-12
0
0
0
-1.09762e-11
0
1.20738e-11
1.09762e-12
-1.09762e-12
-1.09762e-12
-4451.55
-3855.77
-3104.31
-2432.39
-1898.14
-1488.39
-1174.2
-929.886
-736.714
-581.909
-456.866
-355.656
-273.989
-208.566
-156.695
-116.088
-84.7526
-60.944
-43.1481
-30.0697
-20.6229
-13.9177
-9.24177
-6.03797
-3.88126
-2.45476
-1.52768
-0.935658
-0.564138
-0.334952
-0.195868
-0.112734
-0.0637229
-0.0352166
-0.0189014
-0.00977282
-0.0048284
-0.00226377
-0.00100206
-0.000417465
-0.000163445
-6.01293e-05
-2.0802e-05
-6.77709e-06
-2.08294e-06
-6.05173e-07
-1.66558e-07
-4.35063e-08
-1.08313e-08
-2.57062e-09
-5.71859e-10
-1.10859e-10
-7.68332e-12
-1.09762e-11
-1.09762e-11
0
3.29285e-12
1.09762e-12
-2.19523e-12
0
-1.09762e-12
0
-1.20738e-11
-1.09762e-12
1.4269e-11
1.09762e-12
0
0
-2.19524e-12
0
8.78094e-12
1.09762e-12
-9.87856e-12
0
0
-3721.9
-3410.25
-2946.65
-2464.08
-2027.34
-1655.15
-1345.18
-1088.56
-876.049
-699.924
-554.18
-434.148
-336.069
-256.772
-193.474
-143.668
-105.083
-75.6778
-53.6466
-37.425
-25.69
-17.3503
-11.5285
-7.53609
-4.84657
-3.06653
-1.90904
-1.16953
-0.70526
-0.418788
-0.244936
-0.141041
-0.0798082
-0.0441921
-0.02379
-0.0123501
-0.00613154
-0.00289053
-0.00128699
-0.000539391
-0.000212456
-7.86263e-05
-2.73601e-05
-8.96433e-06
-2.77042e-06
-8.09213e-07
-2.23858e-07
-5.87851e-08
-1.46927e-08
-3.5014e-09
-7.94675e-10
-1.62447e-10
-2.19523e-11
0
0
0
-5.48809e-12
0
1.20738e-11
0
-8.78094e-12
0
2.19523e-12
1.09762e-12
5.48809e-12
-2.19523e-12
-4.39047e-12
1.09762e-12
2.19523e-12
-5.48809e-12
-2.19523e-12
4.39047e-12
0
-5.48809e-12
5.48809e-12
-3282.84
-3096.8
-2790.3
-2435.38
-2081.15
-1752.8
-1459.87
-1203.84
-982.817
-793.836
-633.794
-499.713
-388.756
-298.196
-225.39
-167.789
-122.977
-88.714
-62.9759
-43.985
-30.223
-20.4291
-13.5841
-8.88547
-5.7175
-3.61928
-2.25404
-1.38131
-0.833172
-0.49484
-0.289491
-0.166782
-0.0944725
-0.0524106
-0.0282966
-0.0147484
-0.00735874
-0.00348903
-0.00156326
-0.000659538
-0.000261555
-9.7464e-05
-3.41481e-05
-1.12644e-05
-3.50446e-06
-1.03032e-06
-2.86846e-07
-7.5762e-08
-1.90305e-08
-4.56499e-09
-1.05371e-09
-2.31597e-10
-3.40261e-11
0
2.19524e-12
0
-5.48809e-12
-6.58571e-12
6.5857e-12
4.39047e-12
-1.09762e-12
0
4.39047e-12
0
-5.48809e-12
1.09762e-12
0
0
0
-1.09762e-11
-2.19523e-12
4.39047e-12
1.09762e-12
4.39047e-12
3.29285e-12
-3004.82
-2880.2
-2661.44
-2388.74
-2096.19
-1806.87
-1534.18
-1284.95
-1062.08
-866.261
-696.955
-552.863
-432.192
-332.803
-252.338
-188.332
-138.325
-99.9614
-71.0646
-49.6961
-34.1835
-23.1272
-15.3902
-10.0737
-6.48595
-4.10783
-2.55943
-1.56903
-0.94668
-0.562399
-0.329108
-0.189696
-0.10755
-0.0597648
-0.0323546
-0.0169295
-0.00849022
-0.00405028
-0.00182738
-0.000776786
-0.000310488
-0.000116634
-4.11977e-05
-1.36999e-05
-4.29623e-06
-1.27298e-06
-3.5713e-07
-9.50657e-08
-2.40521e-08
-5.79103e-09
-1.33251e-09
-2.83185e-10
-5.04904e-11
-1.09762e-12
4.39047e-12
0
-2.19524e-12
0
2.19523e-12
2.19524e-12
0
1.09762e-12
-1.09762e-12
-1.09762e-12
1.09762e-12
-1.09762e-12
0
0
0
0
0
-4.39047e-12
-1.09762e-12
0
5.48809e-12
-2822.87
-2730.79
-2562.61
-2342.23
-2093.3
-1834.98
-1581.05
-1340.65
-1119.46
-920.683
-745.756
-594.823
-467.07
-360.973
-274.518
-205.394
-151.17
-109.433
-77.9125
-54.5532
-37.5647
-25.4384
-16.9418
-11.0971
-7.14921
-4.53032
-2.82398
-1.7319
-1.0453
-0.621164
-0.363591
-0.209646
-0.118942
-0.0661884
-0.0359226
-0.0188707
-0.00951528
-0.00457023
-0.00207829
-0.000891128
-0.000359463
-0.000136304
-4.86007e-05
-1.6313e-05
-5.16249e-06
-1.54324e-06
-4.36665e-07
-1.17179e-07
-2.98815e-08
-7.24428e-09
-1.6607e-09
-3.74288e-10
-7.68332e-11
0
-7.68332e-12
0
-5.48809e-12
0
8.78094e-12
0
2.19523e-12
0
3.29285e-12
0
0
-1.09762e-12
0
-1.20738e-11
0
1.31714e-11
1.09762e-12
-8.78094e-12
-8.78094e-12
4.39047e-12
1.09762e-11
-2701.34
-2627.55
-2489.44
-2302.41
-2083.49
-1848.36
-1609.96
-1378.19
-1160.18
-960.7
-782.61
-627.178
-494.415
-383.359
-292.341
-219.233
-161.668
-117.226
-83.5781
-58.5909
-40.3872
-27.3745
-18.2457
-11.9594
-7.70942
-4.88792
-3.04833
-1.87027
-1.12922
-0.671215
-0.392964
-0.226625
-0.128633
-0.0716629
-0.0389872
-0.020564
-0.0104302
-0.00504746
-0.00231563
-0.00100256
-0.000408543
-0.000156521
-5.63836e-05
-1.91151e-05
-6.10779e-06
-1.84269e-06
-5.25939e-07
-1.42319e-07
-3.66088e-08
-8.93461e-09
-2.06681e-09
-4.54414e-10
-8.8907e-11
-1.53666e-11
5.48809e-12
2.305e-11
-5.48809e-12
-2.41476e-11
0
1.09762e-12
1.09762e-12
-1.09762e-12
0
0
1.09762e-12
6.58571e-12
-1.09762e-12
-6.5857e-12
1.09762e-12
-1.09762e-12
0
1.09762e-12
0
-1.09762e-12
0
-2619.18
-2556.15
-2436.38
-2270.72
-2072.15
-1853.78
-1627.46
-1403.13
-1188.59
-989.584
-809.888
-651.604
-515.392
-400.759
-306.347
-230.208
-170.059
-123.496
-88.1625
-61.8742
-42.6921
-28.9616
-19.318
-12.6706
-8.17258
-5.18425
-3.23463
-1.98541
-1.19916
-0.712963
-0.41745
-0.240753
-0.13668
-0.0762153
-0.0415575
-0.0220099
-0.011232
-0.00547862
-0.00253676
-0.00110941
-0.000456813
-0.000176843
-6.43528e-05
-2.20296e-05
-7.10399e-06
-2.16183e-06
-6.22047e-07
-1.69584e-07
-4.39157e-08
-1.08093e-08
-2.51684e-09
-5.77347e-10
-1.1964e-10
-1.09762e-12
3.29285e-12
1.4269e-11
0
-1.75619e-11
0
3.29285e-12
0
9.87856e-12
0
-9.87856e-12
0
1.64643e-11
1.09762e-12
-1.64643e-11
-1.09762e-12
2.19524e-12
5.48809e-12
-2.19524e-12
-5.48809e-12
0
0
-2563.32
-2506.81
-2398.46
-2246.57
-2061.7
-1855.16
-1637.85
-1419.49
-1208.15
-1010.1
-829.72
-669.694
-531.163
-414.006
-317.123
-238.727
-176.622
-128.433
-91.7931
-64.4874
-44.5347
-30.2351
-20.1813
-13.2449
-8.5476
-5.42476
-3.38619
-2.07927
-1.25627
-0.747076
-0.437437
-0.25225
-0.143206
-0.0799069
-0.0436571
-0.0232111
-0.0119145
-0.00585576
-0.00273537
-0.00120763
-0.000502074
-0.000196211
-7.20495e-05
-2.48752e-05
-8.08548e-06
-2.47863e-06
-7.18043e-07
-1.96976e-07
-5.12807e-08
-1.26961e-08
-2.98552e-09
-6.66254e-10
-1.29519e-10
-1.4269e-11
-3.29285e-12
2.19523e-12
-1.09762e-12
-2.19523e-12
-2.19523e-12
1.09762e-12
1.09762e-12
0
-1.09762e-12
-1.09762e-12
1.09762e-12
1.09762e-12
1.09762e-12
-1.09762e-12
0
0
1.09762e-12
-6.5857e-12
0
5.48809e-12
0
-2525.28
-2472.83
-2371.67
-2228.7
-2053
-1854.67
-1643.89
-1430.11
-1221.45
-1024.46
-843.905
-682.856
-542.8
-423.896
-325.249
-245.208
-181.652
-132.241
-94.6094
-66.5246
-45.9773
-31.2361
-20.8622
-13.6992
-8.84509
-5.61605
-3.50702
-2.15426
-1.30197
-0.774388
-0.453413
-0.261403
-0.148375
-0.0828206
-0.0453186
-0.024172
-0.01247
-0.00616881
-0.00290334
-0.00129206
-0.0005415
-0.000213266
-7.88867e-05
-2.74211e-05
-8.96872e-06
-2.76508e-06
-8.05178e-07
-2.21915e-07
-5.7997e-08
-1.44139e-08
-3.41359e-09
-7.51868e-10
-1.59155e-10
-2.96357e-11
0
-2.19523e-12
0
-1.09762e-12
-1.09762e-12
3.29285e-12
1.4269e-11
-2.19523e-12
-1.31714e-11
0
-9.87856e-12
-2.08547e-11
8.78094e-12
2.19523e-11
0
0
0
0
-2.19524e-12
-3.29285e-12
5.48809e-12
-2499.44
-2449.52
-2352.94
-2215.78
-2046.17
-1853.48
-1647.34
-1436.93
-1230.39
-1034.38
-853.898
-692.274
-551.236
-431.145
-331.261
-250.042
-185.432
-135.12
-96.7504
-68.0808
-47.0842
-32.007
-21.3884
-14.0514
-9.07641
-5.7652
-3.60149
-2.21302
-1.33784
-0.795821
-0.465921
-0.268532
-0.152369
-0.085053
-0.046585
-0.0249049
-0.0128962
-0.00641128
-0.00303473
-0.00135871
-0.000572867
-0.000226923
-8.43911e-05
-2.94799e-05
-9.68556e-06
-2.99825e-06
-8.76287e-07
-2.42324e-07
-6.35378e-08
-1.582e-08
-3.74617e-09
-8.57239e-10
-1.95376e-10
-3.40261e-11
-6.58571e-12
0
0
0
0
2.19524e-12
-2.19524e-12
6.5857e-12
0
-1.86595e-11
-4.39047e-12
9.87856e-12
3.29285e-12
3.29285e-12
1.09762e-12
0
-1.09762e-12
0
0
1.09762e-12
-1.09762e-12
-2481.95
-2433.65
-2340
-2206.6
-2041.04
-1852.16
-1649.25
-1441.28
-1236.34
-1041.14
-860.838
-698.909
-557.25
-436.366
-335.63
-253.581
-188.217
-137.255
-98.3465
-69.2465
-47.9168
-32.5892
-21.7872
-14.3191
-9.25279
-5.87926
-3.67393
-2.25819
-1.36545
-0.812314
-0.475515
-0.273963
-0.155378
-0.0867108
-0.047511
-0.0254342
-0.013202
-0.00658488
-0.00312891
-0.00140661
-0.000595481
-0.000236799
-8.83829e-05
-3.09767e-05
-1.02079e-05
-3.16854e-06
-9.28308e-07
-2.57257e-07
-6.75814e-08
-1.68517e-08
-4.00521e-09
-9.3078e-10
-2.20621e-10
-4.17095e-11
0
-1.09762e-12
-8.78094e-12
-8.78094e-12
4.39047e-12
8.78094e-12
4.39047e-12
0
-1.20738e-11
-1.09762e-12
1.31714e-11
2.19523e-12
-2.19523e-12
-1.09762e-12
1.09762e-12
-1.09762e-12
-4.39047e-12
-7.68332e-12
3.29285e-12
1.31714e-11
-3.29285e-12
-2470.2
-2422.92
-2331.15
-2200.19
-2037.3
-1850.98
-1650.28
-1444.03
-1240.25
-1045.7
-865.59
-703.512
-561.469
-440.062
-338.748
-256.126
-190.233
-138.808
-99.5141
-70.1031
-48.5311
-33.0202
-22.0834
-14.5187
-9.3847
-5.96484
-3.72845
-2.29228
-1.38632
-0.82477
-0.482733
-0.278015
-0.157592
-0.0879057
-0.0481616
-0.0257965
-0.0134069
-0.00669958
-0.00319067
-0.00143791
-0.000610237
-0.000243244
-9.09904e-05
-3.19556e-05
-1.05501e-05
-3.28021e-06
-9.62468e-07
-2.67115e-07
-7.02596e-08
-1.75235e-08
-4.16436e-09
-9.5822e-10
-2.10743e-10
-4.93928e-11
-1.53666e-11
5.48809e-12
0
-5.48809e-12
1.09762e-12
0
-2.19524e-12
0
1.09762e-12
0
4.39047e-12
0
-4.39047e-12
-1.09762e-12
0
-4.39047e-12
4.39047e-12
5.48809e-12
-4.39047e-12
1.09762e-12
-1.09762e-12
-2462.36
-2415.73
-2325.17
-2195.79
-2034.63
-1850.01
-1650.81
-1445.75
-1242.8
-1048.73
-868.802
-706.66
-564.382
-442.636
-340.936
-257.924
-191.666
-139.919
-100.352
-70.7208
-48.9758
-33.3335
-22.2994
-14.6647
-9.48149
-6.02786
-3.76873
-2.31754
-1.40181
-0.834011
-0.488066
-0.280981
-0.159188
-0.0887455
-0.0486035
-0.0260332
-0.013536
-0.00676994
-0.00322787
-0.00145657
-0.000618985
-0.000247055
-9.25301e-05
-3.25335e-05
-1.07521e-05
-3.34622e-06
-9.82713e-07
-2.72958e-07
-7.1838e-08
-1.79515e-08
-4.29498e-09
-9.9993e-10
-1.99766e-10
-2.74404e-11
-2.19524e-12
1.53666e-11
-1.09762e-12
0
5.48809e-12
1.09762e-12
-8.78094e-12
-1.09762e-12
5.48809e-12
8.78094e-12
0
-8.78094e-12
0
-4.39047e-12
0
-6.58571e-12
-1.09762e-12
9.87856e-12
9.87856e-12
1.09762e-12
-8.78094e-12
-2457.18
-2410.96
-2321.17
-2192.8
-2032.78
-1849.28
-1651.07
-1446.81
-1244.44
-1050.73
-870.942
-708.781
-566.362
-444.401
-342.447
-259.173
-192.667
-140.698
-100.944
-71.1582
-49.292
-33.5569
-22.454
-14.7695
-9.55121
-6.0734
-3.79795
-2.33592
-1.4131
-0.840743
-0.491935
-0.283114
-0.160316
-0.089324
-0.0488963
-0.0261826
-0.0136136
-0.00681049
-0.00324869
-0.00146681
-0.000623731
-0.000249108
-9.3357e-05
-3.28434e-05
-1.08604e-05
-3.38162e-06
-9.93557e-07
-2.76084e-07
-7.27139e-08
-1.81798e-08
-4.34327e-09
-1.00432e-09
-2.06352e-10
-1.97571e-11
-5.48809e-12
-1.09762e-12
6.5857e-12
8.78094e-12
-1.09762e-12
-8.78094e-12
0
0
-2.19523e-12
4.39047e-12
2.19523e-12
-5.48809e-12
-2.19523e-12
0
2.19523e-12
-6.5857e-12
-4.39047e-12
6.5857e-12
4.39047e-12
8.78094e-12
-7.68332e-12
-2453.79
-2407.83
-2318.53
-2190.81
-2031.51
-1848.74
-1651.19
-1447.47
-1245.49
-1052.02
-872.351
-710.19
-567.689
-445.591
-343.472
-260.026
-193.354
-141.236
-101.353
-71.4624
-49.5126
-33.7134
-22.5626
-14.8434
-9.60052
-6.10572
-3.81875
-2.34904
-1.42116
-0.845546
-0.494683
-0.284615
-0.161098
-0.089715
-0.0490867
-0.0262748
-0.0136587
-0.0068328
-0.00325965
-0.00147204
-0.000626111
-0.000250126
-9.37639e-05
-3.29953e-05
-1.09134e-05
-3.3989e-06
-9.98867e-07
-2.77609e-07
-7.31408e-08
-1.83039e-08
-4.34657e-09
-9.69196e-10
-2.15133e-10
-5.48809e-11
-6.58571e-12
0
-1.09762e-12
0
-1.09762e-12
0
0
1.09762e-12
-1.09762e-12
0
0
0
-1.09762e-12
0
1.09762e-12
-1.4269e-11
4.39047e-12
9.87856e-12
-3.29285e-12
4.39047e-12
-1.09762e-12
-2451.59
-2405.81
-2316.8
-2189.5
-2030.66
-1848.35
-1651.23
-1447.87
-1246.16
-1052.85
-873.266
-711.113
-568.564
-446.382
-344.157
-260.598
-193.817
-141.6
-101.632
-71.6703
-49.6639
-33.8211
-22.6376
-14.8946
-9.63478
-6.12824
-3.83327
-2.3582
-1.42679
-0.848889
-0.496584
-0.285644
-0.161626
-0.0899732
-0.0492082
-0.0263308
-0.0136845
-0.00684472
-0.00326519
-0.00147457
-0.000627229
-0.000250595
-9.39493e-05
-3.3064e-05
-1.09372e-05
-3.40668e-06
-1.00125e-06
-2.7828e-07
-7.33187e-08
-1.83588e-08
-4.35864e-09
-9.72489e-10
-2.19523e-10
-5.1588e-11
0
1.09762e-12
-1.09762e-12
0
1.09762e-12
0
-3.29285e-12
0
3.29285e-12
0
1.09762e-12
8.78094e-12
0
-9.87856e-12
0
0
9.87856e-12
3.29285e-12
-1.4269e-11
-2.19523e-12
3.29285e-12
-2450.19
-2404.5
-2315.7
-2188.64
-2030.1
-1848.09
-1651.24
-1448.11
-1246.57
-1053.38
-873.852
-711.709
-569.134
-446.899
-344.608
-260.977
-194.125
-141.843
-101.818
-71.8098
-49.7659
-33.8939
-22.6885
-14.9294
-9.65818
-6.14365
-3.84322
-2.36448
-1.43063
-0.851153
-0.49786
-0.286327
-0.161972
-0.0901386
-0.0492837
-0.0263641
-0.0136989
-0.00685099
-0.00326791
-0.00147575
-0.000627727
-0.000250798
-9.40281e-05
-3.30928e-05
-1.09472e-05
-3.40992e-06
-1.00224e-06
-2.78584e-07
-7.34207e-08
-1.83752e-08
-4.34986e-09
-9.74684e-10
-2.12938e-10
-5.1588e-11
-1.09762e-12
-2.19523e-12
1.09762e-12
-1.09762e-12
2.19523e-12
-2.19523e-12
-1.09762e-11
3.29285e-12
7.68332e-12
-8.78094e-12
-1.09762e-11
9.87856e-12
9.87856e-12
5.48809e-12
-1.09762e-12
-4.39047e-12
0
-1.09762e-12
0
0
1.09762e-12
-2449.3
-2403.68
-2314.99
-2188.1
-2029.74
-1847.91
-1651.24
-1448.25
-1246.83
-1053.71
-874.222
-712.089
-569.499
-447.232
-344.899
-261.223
-194.326
-142.002
-101.941
-71.9019
-49.8334
-33.9423
-22.7224
-14.9528
-9.6739
-6.15403
-3.84992
-2.36868
-1.43319
-0.852643
-0.498689
-0.286763
-0.162189
-0.0902406
-0.0493291
-0.0263834
-0.0137069
-0.00685424
-0.00326924
-0.00147629
-0.000627942
-0.000250883
-9.40599e-05
-3.31043e-05
-1.09511e-05
-3.41116e-06
-1.00261e-06
-2.78704e-07
-7.34482e-08
-1.83544e-08
-4.34876e-09
-9.85661e-10
-2.18426e-10
-5.26856e-11
-2.19524e-12
1.86595e-11
-4.39047e-12
-1.75619e-11
1.09762e-12
0
-1.09762e-11
-1.09762e-12
1.31714e-11
0
-2.19523e-12
0
1.09762e-12
-1.09762e-12
0
-2.19524e-12
-2.19523e-12
6.58571e-12
-3.29285e-12
-7.68332e-12
8.78094e-12
-2448.75
-2403.16
-2314.55
-2187.75
-2029.5
-1847.8
-1651.23
-1448.33
-1246.98
-1053.92
-874.454
-712.327
-569.729
-447.444
-345.085
-261.38
-194.454
-142.104
-102.02
-71.9615
-49.8773
-33.9738
-22.7447
-14.9681
-9.6843
-6.16092
-3.85437
-2.37146
-1.43486
-0.853604
-0.499213
-0.287034
-0.162321
-0.0903013
-0.0493554
-0.0263943
-0.0137112
-0.00685591
-0.00326987
-0.00147653
-0.000628033
-0.000250916
-9.40722e-05
-3.31086e-05
-1.09525e-05
-3.41162e-06
-1.00278e-06
-2.78725e-07
-7.34229e-08
-1.83642e-08
-4.35644e-09
-9.97734e-10
-2.20621e-10
-4.06118e-11
-9.87856e-12
9.87856e-12
0
-9.87856e-12
0
0
0
0
-1.64643e-11
0
1.64643e-11
0
1.09762e-12
0
0
-1.31714e-11
0
1.20738e-11
-3.29285e-12
1.09762e-12
2.19524e-12
-2448.41
-2402.85
-2314.27
-2187.54
-2029.36
-1847.72
-1651.22
-1448.38
-1247.08
-1054.04
-874.596
-712.475
-569.873
-447.576
-345.202
-261.479
-194.536
-142.169
-102.07
-71.9995
-49.9052
-33.9939
-22.7589
-14.978
-9.69107
-6.16544
-3.8573
-2.37328
-1.43594
-0.854215
-0.49954
-0.287199
-0.162399
-0.0903364
-0.0493703
-0.0264002
-0.0137135
-0.00685675
-0.00327017
-0.00147664
-0.000628071
-0.00025093
-9.40768e-05
-3.31102e-05
-1.0953e-05
-3.41178e-06
-1.0028e-06
-2.78744e-07
-7.34361e-08
-1.83642e-08
-4.35644e-09
-9.86758e-10
-2.16231e-10
-4.60999e-11
-1.31714e-11
-1.09762e-12
-7.68332e-12
-1.09762e-12
7.68332e-12
1.09762e-12
0
0
0
-1.09762e-12
-4.39047e-12
1.20738e-11
4.39047e-12
-1.09762e-11
-2.19523e-12
-1.09762e-12
2.19523e-12
0
0
-1.09762e-11
1.20738e-11
-2448.2
-2402.65
-2314.11
-2187.41
-2029.27
-1847.67
-1651.21
-1448.41
-1247.13
-1054.12
-874.682
-712.566
-569.961
-447.657
-345.274
-261.541
-194.587
-142.21
-102.102
-72.0231
-49.9226
-34.0065
-22.7679
-14.9843
-9.69543
-6.16838
-3.85921
-2.37448
-1.43664
-0.854604
-0.499743
-0.287299
-0.162445
-0.0903564
-0.0493785
-0.0264034
-0.0137147
-0.00685717
-0.00327032
-0.00147668
-0.000628087
-0.000250935
-9.40785e-05
-3.31107e-05
-1.09532e-05
-3.41182e-06
-1.00283e-06
-2.78755e-07
-7.34306e-08
-1.83785e-08
-4.3751e-09
-9.8127e-10
-2.17328e-10
-5.26856e-11
2.19524e-12
2.19523e-12
7.68332e-12
1.09762e-12
-1.20738e-11
0
-1.09762e-12
-1.09762e-12
-2.19524e-12
0
1.75619e-11
0
-1.4269e-11
0
1.09762e-12
-5.48809e-12
-2.19523e-12
6.58571e-12
-1.09762e-12
-1.09762e-12
2.19524e-12
-2448.07
-2402.54
-2314.01
-2187.33
-2029.21
-1847.65
-1651.21
-1448.43
-1247.17
-1054.16
-874.734
-712.62
-570.014
-447.707
-345.318
-261.579
-194.618
-142.235
-102.121
-72.0376
-49.9333
-34.0142
-22.7734
-14.9882
-9.69819
-6.17027
-3.86046
-2.37525
-1.4371
-0.854853
-0.49987
-0.28736
-0.162473
-0.0903679
-0.049383
-0.0264051
-0.0137153
-0.00685737
-0.00327039
-0.00147671
-0.000628094
-0.000250937
-9.40792e-05
-3.31109e-05
-1.09532e-05
-3.41185e-06
-1.00283e-06
-2.78758e-07
-7.34284e-08
-1.83873e-08
-4.39157e-09
-9.88953e-10
-2.06352e-10
-4.50023e-11
5.48809e-12
1.53666e-11
-2.19524e-12
-3.29285e-12
-5.48809e-12
2.19524e-12
1.09762e-12
-3.29285e-12
4.39047e-12
4.39047e-12
-4.39047e-12
-2.19524e-12
0
0
0
0
0
0
1.09762e-12
1.09762e-12
-2.19524e-12
-2448
-2402.47
-2313.95
-2187.28
-2029.18
-1847.63
-1651.21
-1448.44
-1247.18
-1054.19
-874.765
-712.652
-570.046
-447.737
-345.345
-261.601
-194.637
-142.25
-102.133
-72.0463
-49.9396
-34.0188
-22.7767
-14.9906
-9.69989
-6.17147
-3.86126
-2.37576
-1.43739
-0.855013
-0.49995
-0.287397
-0.162489
-0.0903745
-0.0493856
-0.0264061
-0.0137156
-0.00685748
-0.00327042
-0.00147672
-0.000628097
-0.000250938
-9.40794e-05
-3.3111e-05
-1.09532e-05
-3.41186e-06
-1.00285e-06
-2.78738e-07
-7.3424e-08
-1.8384e-08
-4.39376e-09
-1.01091e-09
-2.08547e-10
-2.85381e-11
-2.19523e-12
0
8.78094e-12
-2.19523e-12
-5.48809e-12
1.09762e-12
-2.19523e-12
0
2.19523e-12
-2.19523e-12
-2.19523e-12
4.39047e-12
1.09762e-12
-3.29285e-12
0
0
2.19523e-12
0
-2.19523e-12
-5.48809e-12
5.48809e-12
-2447.96
-2402.43
-2313.91
-2187.25
-2029.16
-1847.62
-1651.2
-1448.44
-1247.2
-1054.21
-874.783
-712.671
-570.065
-447.754
-345.36
-261.615
-194.648
-142.259
-102.139
-72.0514
-49.9433
-34.0214
-22.7786
-14.992
-9.70091
-6.17221
-3.86176
-2.37608
-1.43758
-0.855114
-0.500001
-0.28742
-0.162499
-0.0903785
-0.049387
-0.0264066
-0.0137158
-0.00685753
-0.00327043
-0.00147672
-0.000628098
-0.000250938
-9.40795e-05
-3.3111e-05
-1.09533e-05
-3.41186e-06
-1.00282e-06
-2.78749e-07
-7.3457e-08
-1.83972e-08
-4.38388e-09
-9.92246e-10
-2.15133e-10
-3.62214e-11
-2.19524e-12
2.19523e-12
0
-1.09762e-12
0
0
-2.19524e-12
0
-4.39047e-12
-1.09762e-12
5.48809e-12
1.09762e-12
0
2.19523e-12
-1.09762e-12
-6.58571e-12
0
2.19524e-12
-1.4269e-11
4.39047e-12
1.31714e-11
-2447.93
-2402.4
-2313.89
-2187.24
-2029.15
-1847.61
-1651.2
-1448.45
-1247.2
-1054.22
-874.794
-712.683
-570.076
-447.764
-345.37
-261.623
-194.654
-142.264
-102.143
-72.0542
-49.9453
-34.0228
-22.7796
-14.9928
-9.7015
-6.17264
-3.86206
-2.37627
-1.4377
-0.855176
-0.500031
-0.287434
-0.162505
-0.0903808
-0.0493879
-0.0264069
-0.0137159
-0.00685756
-0.00327044
-0.00147672
-0.000628099
-0.000250939
-9.40795e-05
-3.3111e-05
-1.09533e-05
-3.41183e-06
-1.00281e-06
-2.7875e-07
-7.34591e-08
-1.84279e-08
-4.39047e-09
-9.88953e-10
-2.16231e-10
-3.07333e-11
0
2.19523e-12
0
1.09762e-12
0
-2.19524e-12
0
-5.48809e-12
-1.75619e-11
4.39047e-12
1.86595e-11
0
-1.09762e-12
1.09762e-12
0
0
0
0
0
8.78094e-12
-8.78094e-12
-2447.92
-2402.39
-2313.88
-2187.23
-2029.14
-1847.61
-1651.2
-1448.45
-1247.21
-1054.22
-874.8
-712.689
-570.082
-447.77
-345.375
-261.627
-194.658
-142.267
-102.145
-72.0558
-49.9464
-34.0236
-22.7802
-14.9932
-9.70182
-6.17288
-3.86223
-2.37638
-1.43776
-0.855212
-0.500049
-0.287442
-0.162508
-0.0903821
-0.0493883
-0.026407
-0.0137159
-0.00685758
-0.00327045
-0.00147672
-0.000628099
-0.000250939
-9.40796e-05
-3.3111e-05
-1.09532e-05
-3.41184e-06
-1.00283e-06
-2.78758e-07
-7.34723e-08
-1.84235e-08
-4.38388e-09
-9.84563e-10
-2.10743e-10
-3.95142e-11
-5.48809e-12
0
0
0
-1.09762e-12
0
1.09762e-12
-1.09762e-12
0
1.09762e-12
-3.29285e-12
0
3.29285e-12
9.87856e-12
3.29285e-12
-8.78094e-12
-2.41476e-11
-1.09762e-12
1.64643e-11
2.19523e-12
2.19523e-12
-2447.91
-2402.38
-2313.87
-2187.22
-2029.14
-1847.61
-1651.2
-1448.45
-1247.21
-1054.22
-874.804
-712.693
-570.086
-447.773
-345.378
-261.63
-194.66
-142.268
-102.147
-72.0566
-49.947
-34.024
-22.7804
-14.9934
-9.70198
-6.173
-3.86232
-2.37644
-1.4378
-0.855231
-0.500059
-0.287447
-0.16251
-0.0903827
-0.0493886
-0.0264071
-0.013716
-0.00685758
-0.00327045
-0.00147672
-0.0006281
-0.000250939
-9.40796e-05
-3.3111e-05
-1.09533e-05
-3.41183e-06
-1.00284e-06
-2.7875e-07
-7.34394e-08
-1.84158e-08
-4.39376e-09
-9.8127e-10
-2.09645e-10
-5.37833e-11
-4.39047e-12
1.20738e-11
-1.09762e-12
-9.87856e-12
0
-1.09762e-12
1.09762e-12
0
0
0
0
0
9.87856e-12
2.19523e-12
-9.87856e-12
-6.58571e-12
-1.09762e-12
5.48809e-12
0
0
0
-2447.9
-2402.38
-2313.87
-2187.22
-2029.14
-1847.6
-1651.2
-1448.45
-1247.21
-1054.23
-874.806
-712.695
-570.088
-447.775
-345.379
-261.631
-194.661
-142.269
-102.147
-72.057
-49.9472
-34.0242
-22.7806
-14.9935
-9.70206
-6.17306
-3.86237
-2.37647
-1.43782
-0.855241
-0.500064
-0.287449
-0.162511
-0.0903831
-0.0493887
-0.0264071
-0.013716
-0.00685759
-0.00327045
-0.00147673
-0.0006281
-0.000250939
-9.40796e-05
-3.3111e-05
-1.09533e-05
-3.41184e-06
-1.00282e-06
-2.78752e-07
-7.34526e-08
-1.83961e-08
-4.39267e-09
-9.96637e-10
-1.93181e-10
-2.85381e-11
-2.19524e-12
8.78094e-12
-1.31714e-11
-9.87856e-12
1.20738e-11
-1.09762e-12
-4.39047e-12
-3.29285e-12
4.39047e-12
3.29285e-12
0
0
1.09762e-12
-1.09762e-12
7.68332e-12
1.09762e-12
-4.39047e-12
0
-2.19524e-12
0
-2.19524e-12
-2447.9
-2402.37
-2313.87
-2187.22
-2029.14
-1847.6
-1651.2
-1448.45
-1247.21
-1054.23
-874.807
-712.696
-570.089
-447.776
-345.38
-261.631
-194.662
-142.269
-102.148
-72.0572
-49.9474
-34.0243
-22.7806
-14.9935
-9.70209
-6.17309
-3.86239
-2.37649
-1.43782
-0.855246
-0.500066
-0.28745
-0.162511
-0.0903833
-0.0493888
-0.0264072
-0.013716
-0.00685759
-0.00327045
-0.00147673
-0.0006281
-0.000250939
-9.40796e-05
-3.3111e-05
-1.09533e-05
-3.41185e-06
-1.00282e-06
-2.78734e-07
-7.34449e-08
-1.84027e-08
-4.39267e-09
-9.88953e-10
-1.89888e-10
-2.305e-11
-2.19523e-12
0
-1.75619e-11
-9.87856e-12
5.48809e-12
5.48809e-12
1.20738e-11
4.39047e-12
-2.19523e-12
0
-7.68332e-12
0
1.4269e-11
0
-4.39047e-12
-7.68332e-12
-1.09762e-12
-1.09762e-12
0
1.64643e-11
-6.5857e-12
-2447.9
-2402.37
-2313.86
-2187.22
-2029.14
-1847.6
-1651.2
-1448.45
-1247.21
-1054.23
-874.808
-712.697
-570.089
-447.777
-345.38
-261.632
-194.662
-142.27
-102.148
-72.0573
-49.9474
-34.0243
-22.7806
-14.9936
-9.70211
-6.1731
-3.8624
-2.37649
-1.43783
-0.855248
-0.500067
-0.28745
-0.162511
-0.0903833
-0.0493888
-0.0264072
-0.013716
-0.00685759
-0.00327045
-0.00147673
-0.0006281
-0.000250939
-9.40795e-05
-3.3111e-05
-1.09533e-05
-3.41184e-06
-1.00282e-06
-2.78747e-07
-7.34635e-08
-1.84158e-08
-4.36193e-09
-9.72489e-10
-2.12938e-10
-3.62214e-11
6.58571e-12
3.29285e-12
-1.09762e-11
-9.87856e-12
1.09762e-12
-5.48809e-12
1.09762e-12
1.31714e-11
-5.48809e-12
-1.09762e-12
6.5857e-12
0
1.09762e-12
0
-1.09762e-12
-1.31714e-11
0
6.58571e-12
-4.39047e-12
6.5857e-12
4.39047e-12
-2447.9
-2402.37
-2313.86
-2187.22
-2029.14
-1847.6
-1651.2
-1448.45
-1247.21
-1054.23
-874.808
-712.697
-570.089
-447.777
-345.381
-261.632
-194.662
-142.27
-102.148
-72.0574
-49.9475
-34.0243
-22.7806
-14.9936
-9.70211
-6.17311
-3.8624
-2.37649
-1.43783
-0.855248
-0.500067
-0.28745
-0.162511
-0.0903834
-0.0493888
-0.0264072
-0.013716
-0.00685759
-0.00327045
-0.00147673
-0.0006281
-0.000250939
-9.40796e-05
-3.3111e-05
-1.09533e-05
-3.41184e-06
-1.00282e-06
-2.78766e-07
-7.34449e-08
-1.83862e-08
-4.3751e-09
-9.93344e-10
-2.18426e-10
-2.96357e-11
1.20738e-11
1.09762e-12
-1.75619e-11
8.78094e-12
1.31714e-11
-8.78094e-12
2.19524e-12
0
-2.19524e-12
-1.09762e-12
1.09762e-12
-3.29285e-12
4.39047e-12
4.39047e-12
1.09762e-12
-2.19524e-12
-5.48809e-12
1.09762e-12
1.09762e-12
-1.09762e-12
0
-2447.9
-2402.37
-2313.86
-2187.22
-2029.14
-1847.6
-1651.2
-1448.45
-1247.21
-1054.23
-874.808
-712.697
-570.09
-447.777
-345.381
-261.632
-194.662
-142.27
-102.148
-72.0574
-49.9475
-34.0243
-22.7806
-14.9936
-9.70211
-6.17311
-3.8624
-2.37649
-1.43783
-0.855249
-0.500067
-0.28745
-0.162511
-0.0903834
-0.0493888
-0.0264072
-0.013716
-0.00685759
-0.00327045
-0.00147673
-0.0006281
-0.000250939
-9.40796e-05
-3.3111e-05
-1.09533e-05
-3.41185e-06
-1.00283e-06
-2.78773e-07
-7.34679e-08
-1.83785e-08
-4.36303e-09
-9.87856e-10
-2.17328e-10
-3.40261e-11
-1.20738e-11
-1.09762e-12
9.87856e-12
0
3.29285e-12
-1.09762e-12
-2.19523e-12
-1.09762e-12
-5.48809e-12
-2.19523e-12
7.68332e-12
4.39047e-12
1.31714e-11
0
-1.31714e-11
8.78094e-12
1.31714e-11
-1.09762e-11
-1.09762e-11
-1.09762e-12
1.09762e-12
-2447.9
-2402.37
-2313.86
-2187.22
-2029.14
-1847.6
-1651.2
-1448.45
-1247.21
-1054.23
-874.808
-712.697
-570.09
-447.777
-345.381
-261.632
-194.662
-142.27
-102.148
-72.0574
-49.9475
-34.0243
-22.7806
-14.9936
-9.70211
-6.17311
-3.8624
-2.37649
-1.43783
-0.855249
-0.500067
-0.28745
-0.162511
-0.0903834
-0.0493888
-0.0264072
-0.013716
-0.00685759
-0.00327045
-0.00147673
-0.0006281
-0.000250939
-9.40795e-05
-3.3111e-05
-1.09533e-05
-3.41185e-06
-1.00283e-06
-2.78781e-07
-7.34723e-08
-1.83785e-08
-4.35644e-09
-9.8127e-10
-2.1184e-10
-5.48809e-11
-7.68332e-12
4.39047e-12
-8.78094e-12
-5.48809e-12
0
0
0
0
0
-3.29285e-12
0
4.39047e-12
0
-1.09762e-12
-8.78094e-12
-6.58571e-12
1.53666e-11
5.48809e-12
-8.78094e-12
0
3.29285e-12
-2447.9
-2402.37
-2313.86
-2187.22
-2029.14
-1847.6
-1651.2
-1448.45
-1247.21
-1054.23
-874.808
-712.697
-570.09
-447.777
-345.381
-261.632
-194.662
-142.27
-102.148
-72.0574
-49.9475
-34.0243
-22.7806
-14.9936
-9.70211
-6.17311
-3.8624
-2.3765
-1.43783
-0.855249
-0.500067
-0.28745
-0.162511
-0.0903834
-0.0493888
-0.0264072
-0.013716
-0.00685759
-0.00327045
-0.00147673
-0.0006281
-0.000250939
-9.40795e-05
-3.3111e-05
-1.09533e-05
-3.41188e-06
-1.00287e-06
-2.78759e-07
-7.34537e-08
-1.83785e-08
-4.34217e-09
-9.84563e-10
-2.41476e-10
-6.91499e-11
-5.48809e-12
1.53666e-11
0
-1.31714e-11
0
-1.09762e-12
-3.29285e-12
-1.09762e-12
4.39047e-12
0
0
0
0
1.09762e-12
-1.09762e-12
-7.68332e-12
1.09762e-12
7.68332e-12
-8.78094e-12
0
7.68332e-12
-2447.9
-2402.37
-2313.86
-2187.22
-2029.14
-1847.6
-1651.2
-1448.45
-1247.21
-1054.23
-874.808
-712.697
-570.09
-447.777
-345.381
-261.632
-194.662
-142.27
-102.148
-72.0574
-49.9475
-34.0243
-22.7806
-14.9936
-9.70211
-6.17311
-3.8624
-2.3765
-1.43783
-0.855249
-0.500067
-0.28745
-0.162511
-0.0903834
-0.0493888
-0.0264072
-0.013716
-0.00685759
-0.00327045
-0.00147673
-0.0006281
-0.000250939
-9.40795e-05
-3.31109e-05
-1.09533e-05
-3.41189e-06
-1.00285e-06
-2.78758e-07
-7.3457e-08
-1.83884e-08
-4.35864e-09
-9.84563e-10
-2.40378e-10
-5.70761e-11
-1.53666e-11
0
4.39047e-12
0
5.48809e-12
0
-2.19523e-12
5.48809e-12
2.19523e-12
-4.39047e-12
0
-1.09762e-12
0
7.68332e-12
7.68332e-12
-6.5857e-12
-9.87856e-12
-7.68332e-12
-2.19523e-12
3.29285e-12
7.68332e-12
-2447.9
-2402.37
-2313.86
-2187.22
-2029.14
-1847.6
-1651.2
-1448.45
-1247.21
-1054.23
-874.808
-712.697
-570.09
-447.777
-345.381
-261.632
-194.662
-142.27
-102.148
-72.0574
-49.9475
-34.0243
-22.7806
-14.9936
-9.70211
-6.17311
-3.8624
-2.3765
-1.43783
-0.855249
-0.500067
-0.28745
-0.162511
-0.0903834
-0.0493888
-0.0264072
-0.013716
-0.00685759
-0.00327045
-0.00147673
-0.0006281
-0.000250939
-9.40795e-05
-3.3111e-05
-1.09533e-05
-3.41188e-06
-1.00284e-06
-2.78763e-07
-7.34602e-08
-1.83917e-08
-4.36742e-09
-9.84563e-10
-2.41476e-10
-5.70761e-11
0
-1.09762e-12
-1.09762e-12
1.09762e-12
1.09762e-12
0
-1.09762e-12
1.09762e-12
-1.09762e-12
0