/*--------------------------------*- C++ -*----------------------------------*\
  =========                 |
  \\      /  F ield         | OpenFOAM: The Open Source CFD Toolbox
   \\    /   O peration     | Website:  https://openfoam.org
    \\  /    A nd           | Version:  10
     \\/     M anipulation  |
\*---------------------------------------------------------------------------*/
FoamFile
{
    format      ascii;
    class       volScalarField;
    location    "71";
    object      gradTx;
}
// * * * * * * * * * * * * * * * * * * * * * * * * * * * * * * * * * * * * * //

dimensions      [0 -1 0 1 0 0 0];

internalField   nonuniform List<scalar> 
11250
(
14211.3
7843.55
4892.61
3275.45
2271.42
1596.4
1122.18
782.544
538.501
364.396
241.898
157.268
100.022
62.1786
37.7609
22.3945
12.9671
7.33004
4.04503
2.17927
1.14637
0.588874
0.295453
0.144815
0.0693587
0.0324681
0.0148592
0.00665023
0.00291139
0.00124712
0.000522862
0.000214614
8.62676e-05
3.39685e-05
1.31059e-05
4.95612e-06
1.83747e-06
6.6804e-07
2.38251e-07
8.33586e-08
2.86237e-08
9.6755e-09
3.18748e-09
1.0131e-09
2.90869e-10
9.00046e-11
0
-4.39047e-12
2.19524e-12
0
1.09762e-12
0
1.4269e-11
0
1.09762e-12
0
1.09762e-12
-2.19524e-12
0
2.19524e-12
0
1.09762e-12
0
-2.19524e-11
9.87856e-12
-1.09762e-12
-1.09762e-12
0
1.09762e-12
0
-5.48809e-12
0
-7.68332e-12
0
-9.87856e-12
4008.87
4447.31
3591.01
2703.24
1988.7
1443.8
1034.66
730.39
506.752
344.893
229.914
149.948
95.598
59.5423
36.2153
21.5047
12.4648
7.05216
3.89453
2.0995
1.105
0.567894
0.285045
0.139765
0.0669618
0.0313553
0.0143537
0.00642556
0.00281365
0.0012055
0.000505508
0.000207527
8.34326e-05
3.28574e-05
1.26791e-05
4.79539e-06
1.77809e-06
6.46544e-07
2.30597e-07
8.07056e-08
2.77115e-08
9.34512e-09
3.09309e-09
9.88953e-10
3.12821e-10
8.34189e-11
1.64643e-11
1.09762e-12
-2.19523e-12
0
-1.75619e-11
0
-1.4269e-11
8.78094e-12
-1.31714e-11
-6.5857e-12
-1.4269e-11
0
-4.39047e-12
0
0
-1.09762e-12
0
2.41476e-11
5.48809e-12
0
-1.09762e-12
1.09762e-12
-1.09762e-12
0
-8.78094e-12
0
8.78094e-12
2.19523e-12
0
1392.58
2365.75
2352.06
1997.46
1581.17
1202.15
887.859
639.689
450.224
309.612
207.992
136.451
87.3924
54.6298
33.325
19.8361
11.5205
6.52886
3.61066
1.94885
1.02679
0.528181
0.265325
0.130189
0.0624133
0.029242
0.0133932
0.00599836
0.0026277
0.00112627
0.000472453
0.000194022
7.80274e-05
3.07376e-05
1.18644e-05
4.48842e-06
1.66468e-06
6.05462e-07
2.15988e-07
7.56028e-08
2.59674e-08
8.75021e-09
2.901e-09
9.5383e-10
3.21602e-10
9.65903e-11
3.95142e-11
1.20738e-11
0
0
1.09762e-12
-1.09762e-12
4.39047e-12
8.78094e-12
0
-2.19523e-12
0
4.39047e-12
0
-2.19524e-12
0
0
0
-1.4269e-11
-1.09762e-11
2.19524e-12
3.29285e-12
2.19523e-12
0
0
3.29285e-12
8.78094e-12
0
-1.09762e-12
8.78094e-12
594.731
1289.8
1483.28
1390.59
1178.48
939.635
717.724
529.798
379.581
264.539
179.536
118.721
76.5166
48.0735
29.4466
17.5872
10.2435
5.81905
3.22469
1.74358
0.920038
0.473898
0.238335
0.117067
0.0561744
0.0263408
0.0120734
0.00541095
0.00237184
0.00101718
0.000426916
0.000175407
7.05729e-05
2.78128e-05
1.07397e-05
4.06447e-06
1.508e-06
5.48653e-07
1.95813e-07
6.85715e-08
2.35658e-08
7.9237e-09
2.62221e-09
8.71508e-10
2.86478e-10
8.67118e-11
3.40261e-11
-1.09762e-12
0
0
1.53666e-11
0
1.09762e-12
-8.78094e-12
1.31714e-11
5.48809e-12
1.4269e-11
-4.39047e-12
5.48809e-12
6.58571e-12
0
-2.19523e-12
0
-1.09762e-12
-4.39047e-12
3.29285e-12
0
1.09762e-12
0
2.19524e-12
5.48809e-12
0
-1.09762e-12
-1.09762e-12
-5.48809e-12
297.142
732.454
927.318
936.989
840.826
700.074
552.536
418.142
305.361
215.994
148.308
98.9856
64.2757
40.6299
25.0128
15.0019
8.76859
4.99619
2.77583
1.50422
0.795275
0.41033
0.206675
0.101651
0.0488351
0.0229238
0.0105174
0.00471771
0.00206963
0.000888229
0.000373047
0.00015337
6.17428e-05
2.43462e-05
9.40595e-06
3.56143e-06
1.32196e-06
4.81161e-07
1.718e-07
6.01879e-08
2.0689e-08
6.9545e-09
2.31048e-09
7.49673e-10
2.38183e-10
5.59785e-11
-4.39047e-12
-6.5857e-12
1.09762e-12
3.29285e-12
8.78094e-12
1.09762e-12
-5.48809e-12
-9.87856e-12
0
5.48809e-12
1.09762e-12
-8.78094e-12
-5.48809e-12
0
0
0
0
1.86595e-11
0
-1.09762e-12
-1.09762e-12
-3.29285e-12
0
-1.09762e-12
-9.87856e-12
-1.20738e-11
-7.68332e-12
-1.09762e-12
-1.09762e-12
163.695
430.58
580.021
619.077
581.524
502.467
408.523
316.562
235.59
169.187
117.6
79.2767
51.9011
33.0311
20.4504
12.3243
7.23288
4.13554
2.30457
1.25211
0.6635
0.343029
0.173085
0.0852651
0.0410215
0.0192807
0.00885624
0.00397679
0.00174628
0.000750124
0.000315304
0.000129729
5.22628e-05
2.06219e-05
7.97205e-06
3.02029e-06
1.12172e-06
4.08503e-07
1.45916e-07
5.11215e-08
1.75619e-08
5.92165e-09
1.95156e-09
6.15763e-10
1.844e-10
6.47594e-11
1.09762e-11
3.29285e-12
-2.19524e-12
-2.19523e-12
-6.58571e-12
-1.09762e-12
0
-3.29285e-12
-1.09762e-12
0
-1.09762e-12
2.19524e-12
1.09762e-12
-6.58571e-12
1.09762e-12
2.19523e-12
1.09762e-12
0
-1.09762e-12
-4.39047e-12
0
0
0
-2.19524e-12
4.39047e-12
1.09762e-12
-4.39047e-12
0
0
95.1704
258.982
363.168
403.276
392.574
349.796
291.851
231.072
175.055
127.578
89.7659
61.1305
40.3624
25.8719
16.1152
9.76202
5.7546
3.30294
1.84674
1.00629
0.534607
0.27702
0.140061
0.0691215
0.0333088
0.0156787
0.00721132
0.00324211
0.00142526
0.000612859
0.000257852
0.000106185
4.28133e-05
1.69064e-05
6.5405e-06
2.47966e-06
9.21526e-07
3.35806e-07
1.20006e-07
4.20673e-08
1.44622e-08
4.89976e-09
1.60691e-09
4.9283e-10
1.29519e-10
5.1588e-11
3.29285e-11
2.19524e-12
-1.09762e-12
-4.39047e-12
-9.87856e-12
0
0
-1.09762e-12
0
-9.87856e-12
-1.09762e-12
-7.68332e-12
4.39047e-12
-4.39047e-12
0
-2.19523e-12
1.09762e-12
-5.48809e-12
2.19523e-12
2.19524e-12
0
0
-1.20738e-11
1.09762e-12
1.31714e-11
2.19524e-12
0
-7.68332e-12
0
56.8348
157.637
227.007
259.41
259.595
237.181
202.303
163.249
125.7
92.8827
66.1244
45.4813
30.2855
19.554
12.256
7.46424
4.42063
2.54761
1.4295
0.781385
0.416276
0.216237
0.109571
0.054182
0.0261565
0.0123321
0.00568048
0.00255733
0.00112563
0.000484577
0.000204097
8.41324e-05
3.39535e-05
1.34195e-05
5.19586e-06
1.9714e-06
7.3318e-07
2.67359e-07
9.55981e-08
3.35201e-08
1.15436e-08
3.89764e-09
1.2886e-09
4.0063e-10
9.98832e-11
1.86595e-11
3.29285e-12
2.41476e-11
1.09762e-12
-3.29285e-12
5.48809e-12
0
0
4.39047e-12
1.09762e-12
4.39047e-12
2.305e-11
3.29285e-12
-3.29285e-12
0
0
0
-3.29285e-12
0
0
0
7.68332e-12
-1.09762e-12
0
1.09762e-12
-1.09762e-12
0
6.5857e-12
0
4.39047e-12
34.3053
96.2588
141.154
164.725
168.403
157.02
136.438
111.936
87.4525
65.4449
47.1062
32.7103
21.9619
14.2816
9.00732
5.5156
3.28216
1.89945
1.06976
0.586667
0.313458
0.163254
0.0829186
0.0410898
0.0198745
0.0093867
0.00433071
0.00195255
0.000860597
0.000370949
0.000156422
6.45502e-05
2.60774e-05
1.03166e-05
3.9981e-06
1.51826e-06
5.65143e-07
2.06257e-07
7.38093e-08
2.58873e-08
8.90826e-09
2.98442e-09
9.77977e-10
3.32578e-10
1.11957e-10
3.40261e-11
2.19523e-12
9.87856e-12
0
-1.20738e-11
-2.19524e-12
0
-1.09762e-12
-3.29285e-12
0
8.78094e-12
1.4269e-11
1.4269e-11
-4.39047e-12
4.39047e-12
-1.09762e-12
2.19523e-12
8.78094e-12
0
-1.09762e-12
0
1.4269e-11
2.19523e-12
1.31714e-11
-1.09762e-12
2.19523e-12
5.48809e-12
6.58571e-12
8.78094e-12
2.19524e-12
20.7215
58.5863
87.0153
103.145
107.217
101.626
89.6868
74.6372
59.0661
44.7114
32.5106
22.7779
15.414
10.0933
6.40469
3.94306
2.3576
1.37017
0.774582
0.42622
0.228419
0.119288
0.0607365
0.0301647
0.0146198
0.00691773
0.00319705
0.00144368
0.000637237
0.000275043
0.000116126
4.7978e-05
1.94039e-05
7.68447e-06
2.98101e-06
1.13311e-06
4.22168e-07
1.54205e-07
5.52277e-08
1.94015e-08
6.67132e-09
2.24792e-09
7.72723e-10
2.78795e-10
1.25128e-10
5.26856e-11
1.86595e-11
-1.75619e-11
1.09762e-12
4.39047e-12
-2.19524e-12
-1.09762e-12
0
0
0
-5.48809e-12
-1.97571e-11
-1.09762e-12
2.19523e-12
-1.09762e-12
-1.09762e-12
0
1.09762e-12
-1.09762e-12
-1.09762e-12
-1.09762e-12
-6.58571e-12
0
-1.09762e-12
0
1.09762e-12
0
-6.58571e-12
0
1.09762e-12
12.4448
35.3712
53.0253
63.6024
66.9833
64.3435
57.5255
48.4611
38.7858
29.6624
21.7685
15.3785
10.4841
6.91056
4.41098
2.72992
1.63992
0.957083
0.543099
0.29986
0.161192
0.0844138
0.0430884
0.0214489
0.0104174
0.00493878
0.00228653
0.00103422
0.000457198
0.000197615
8.35463e-05
3.45607e-05
1.3994e-05
5.54818e-06
2.15458e-06
8.19818e-07
3.05741e-07
1.11784e-07
4.00894e-08
1.41263e-08
4.88879e-09
1.6585e-09
5.79542e-10
2.15133e-10
9.54927e-11
2.63428e-11
1.20738e-11
-1.86595e-11
-1.09762e-12
1.20738e-11
2.19523e-12
0
2.19523e-12
4.39047e-12
2.19523e-12
1.09762e-12
-1.4269e-11
0
4.39047e-12
-1.09762e-12
3.29285e-12
1.4269e-11
-8.78094e-12
0
0
-9.87856e-12
-3.7319e-11
-1.09762e-12
0
0
-3.29285e-12
-5.48809e-12
0
-2.19523e-12
-3.29285e-12
7.39871
21.1094
31.866
38.5728
41.0472
39.8613
36.0264
30.6687
24.7885
19.1314
14.158
10.0784
6.91832
4.58864
2.94537
1.8321
1.10561
0.647912
0.36903
0.204439
0.110236
0.0578898
0.0296248
0.0147814
0.00719449
0.00341758
0.00158515
0.000718199
0.000317997
0.000137652
5.82763e-05
2.41388e-05
9.78613e-06
3.88447e-06
1.51016e-06
5.75232e-07
2.14761e-07
7.86487e-08
2.82637e-08
9.96088e-09
3.46189e-09
1.18323e-09
3.95142e-10
1.36105e-10
3.18309e-11
1.4269e-11
7.68332e-12
6.58571e-12
1.09762e-12
2.19523e-12
4.39047e-12
4.39047e-12
0
1.09762e-12
-1.09762e-12
-1.09762e-12
-3.29285e-12
0
-1.09762e-12
2.19524e-12
0
-1.09762e-12
5.48809e-12
0
-1.09762e-11
-5.48809e-12
-2.19524e-12
-1.09762e-12
0
1.09762e-12
0
0
4.39047e-12
0
1.09762e-12
4.34084
12.4206
18.8499
22.9813
24.6604
24.1632
22.0385
18.9298
15.4322
12.0071
8.95284
6.41754
4.43345
2.95768
1.90857
1.19292
0.723049
0.425418
0.243187
0.135171
0.0731069
0.0384986
0.0197518
0.00987839
0.00481851
0.00229353
0.00106578
0.00048372
0.000214525
9.30034e-05
3.94304e-05
1.63547e-05
6.63886e-06
2.63842e-06
1.02693e-06
3.9161e-07
1.46396e-07
5.369e-08
1.93247e-08
6.80852e-09
2.35219e-09
8.05651e-10
2.42573e-10
5.04904e-11
-6.58571e-12
-1.09762e-11
-1.20738e-11
1.09762e-11
0
1.09762e-12
0
1.09762e-12
0
0
-1.09762e-12
0
1.09762e-12
-8.78094e-12
-7.68332e-12
-3.29285e-12
-1.09762e-12
-1.4269e-11
1.09762e-12
-1.20738e-11
-1.09762e-12
1.09762e-11
2.305e-11
-2.19523e-12
0
0
-1.09762e-12
-4.39047e-12
-8.78094e-12
1.09762e-12
6.58571e-12
2.50767
7.19126
10.9594
13.4379
14.5179
14.3311
13.1717
11.401
9.36441
7.33837
5.50878
3.97378
2.76134
1.85215
1.20114
0.754187
0.459044
0.271126
0.155534
0.0867314
0.0470482
0.024844
0.0127786
0.00640588
0.00313148
0.00149354
0.00069534
0.000316148
0.00014044
6.098e-05
2.58915e-05
1.0754e-05
4.37115e-06
1.73936e-06
6.77814e-07
2.5878e-07
9.68472e-08
3.55332e-08
1.27905e-08
4.52109e-09
1.5674e-09
5.29052e-10
1.59155e-10
3.07333e-11
-1.53666e-11
-3.95142e-11
-2.74404e-11
-3.29285e-12
0
-1.09762e-12
0
-2.19523e-12
-1.09762e-12
1.09762e-12
0
0
4.39047e-12
0
1.09762e-12
0
-1.09762e-12
-1.09762e-12
-6.5857e-12
0
1.20738e-11
8.78094e-12
2.19523e-12
0
-1.09762e-12
-2.19523e-12
-6.5857e-12
4.39047e-12
0
0
0
1.42407
4.09099
6.25545
7.70574
8.37156
8.31515
7.69249
6.70259
5.54138
4.37008
3.30046
2.39446
1.67284
1.12767
0.73471
0.463309
0.283122
0.167836
0.0966085
0.0540416
0.0294006
0.0155669
0.00802685
0.00403319
0.00197586
0.000944281
0.000440454
0.000200615
8.92667e-05
3.88212e-05
1.65077e-05
6.86618e-06
2.79464e-06
1.11348e-06
4.34451e-07
1.66054e-07
6.21723e-08
2.28348e-08
8.20579e-09
2.901e-09
1.01969e-09
3.64409e-10
1.28421e-10
5.59785e-11
1.31714e-11
-5.48809e-12
1.4269e-11
2.19524e-12
-4.39047e-12
-1.09762e-12
0
-3.29285e-12
-8.78094e-12
0
-1.4269e-11
-1.09762e-12
0
7.68332e-12
8.78094e-12
6.58571e-12
1.09762e-12
-4.39047e-12
0
1.31714e-11
9.87856e-12
0
-1.09762e-12
2.19523e-12
-4.39047e-12
0
-7.68332e-12
3.29285e-12
8.78094e-12
9.87856e-12
-3.29285e-12
0.794006
2.28421
3.50223
4.3306
4.72663
4.71933
4.39029
3.84727
3.199
2.53702
1.92648
1.40491
0.986334
0.66797
0.437089
0.276743
0.169751
0.100982
0.058316
0.0327201
0.017851
0.00947648
0.00489838
0.00246687
0.00121111
0.000579957
0.000271027
0.000123664
5.51185e-05
2.40085e-05
1.02244e-05
4.2588e-06
1.73578e-06
6.9249e-07
2.70544e-07
1.0354e-07
3.8815e-08
1.42548e-08
5.14453e-09
1.83522e-09
6.56375e-10
2.42573e-10
9.87856e-11
4.50023e-11
4.28071e-11
3.51238e-11
2.41476e-11
1.31714e-11
-1.09762e-12
0
1.09762e-12
-1.09762e-12
0
-2.19524e-12
0
-4.39047e-12
-4.39047e-12
0
8.78094e-12
-1.09762e-12
0
1.09762e-12
0
-2.19524e-12
5.48809e-12
-4.39047e-12
-1.09762e-12
-1.09762e-12
0
1.09762e-12
-4.39047e-12
-7.68332e-12
-2.19524e-12
2.19523e-12
5.48809e-12
0.434268
1.25076
1.922
2.38411
2.61227
2.61979
2.44881
2.15661
1.80225
1.43645
1.09608
0.803086
0.56635
0.385181
0.253059
0.160831
0.0990024
0.0590907
0.0342302
0.0192618
0.0105372
0.00560808
0.00290572
0.00146662
0.00072155
0.000346209
0.000162093
7.40903e-05
3.3078e-05
1.4431e-05
6.15491e-06
2.56743e-06
1.04787e-06
4.18614e-07
1.63767e-07
6.27497e-08
2.35549e-08
8.65691e-09
3.13919e-09
1.12286e-09
3.98435e-10
1.28421e-10
6.36618e-11
3.7319e-11
1.75619e-11
4.06118e-11
9.87856e-12
8.78094e-12
6.5857e-12
0
-1.09762e-12
4.39047e-12
8.78094e-12
0
1.4269e-11
2.19523e-12
1.09762e-12
3.29285e-12
0
-2.19523e-12
-2.19523e-12
5.48809e-12
1.09762e-12
0
-9.87856e-12
-1.09762e-12
0
-3.29285e-12
4.39047e-12
-1.09762e-12
-3.29285e-12
5.48809e-12
-3.29285e-12
-9.87856e-12
-1.09762e-12
0.232833
0.671244
1.0334
1.28526
1.4129
1.42235
1.33501
1.18082
0.991178
0.793506
0.608134
0.44747
0.316858
0.216345
0.142666
0.0909917
0.0561985
0.0336482
0.0195495
0.0110314
0.00605055
0.00322812
0.00167646
0.000848019
0.000418067
0.000200984
9.42727e-05
4.3166e-05
1.93037e-05
8.43499e-06
3.603e-06
1.5051e-06
6.15144e-07
2.46086e-07
9.63895e-08
3.69721e-08
1.38925e-08
5.12148e-09
1.83741e-09
6.58571e-10
2.31597e-10
1.02078e-10
3.62214e-11
1.64643e-11
-9.87856e-12
5.48809e-12
2.19523e-12
-1.64643e-11
1.09762e-12
0
0
0
0
-1.09762e-12
-2.19524e-12
5.48809e-12
-1.09762e-12
-2.19524e-12
-9.87856e-12
0
0
-4.39047e-12
0
2.19524e-12
-4.39047e-12
1.09762e-12
8.78094e-12
4.39047e-12
0
0
9.87856e-12
1.20738e-11
5.48809e-12
-5.48809e-12
-4.39047e-12
0.122313
0.35291
0.544167
0.678318
0.747786
0.755241
0.711413
0.631642
0.53228
0.427815
0.329163
0.243136
0.172812
0.118419
0.0783602
0.0501426
0.0310662
0.0186558
0.0108695
0.00614971
0.00338149
0.00180839
0.000941259
0.000477135
0.000235697
0.000113526
5.33465e-05
2.44686e-05
1.09603e-05
4.79674e-06
2.05203e-06
8.58465e-07
3.51346e-07
1.40754e-07
5.51871e-08
2.12071e-08
7.99175e-09
2.95259e-09
1.07018e-09
4.01728e-10
1.50374e-10
8.78094e-11
2.305e-11
3.29285e-12
2.63428e-11
2.19524e-12
5.48809e-12
-4.39047e-12
6.58571e-12
1.09762e-12
0
0
0
0
1.09762e-12
-2.19523e-12
-1.09762e-12
-1.09762e-12
-1.09762e-12
2.19524e-12
-1.09762e-12
-8.78094e-12
-1.09762e-12
0
-8.78094e-12
-9.87856e-12
0
2.19523e-12
4.39047e-12
1.09762e-12
1.31714e-11
-4.39047e-12
3.29285e-12
-1.09762e-12
-1.09762e-12
0.0629364
0.181715
0.280571
0.350413
0.387237
0.392206
0.370605
0.330152
0.279186
0.225189
0.173876
0.128884
0.0919199
0.0631973
0.0419531
0.0269283
0.0167327
0.0100764
0.00588649
0.00333889
0.00184034
0.000986444
0.000514552
0.000261369
0.000129365
6.24261e-05
2.93864e-05
1.35016e-05
6.05758e-06
2.65519e-06
1.13757e-06
4.7659e-07
1.95339e-07
7.83666e-08
3.07761e-08
1.18422e-08
4.4673e-09
1.64533e-09
6.24544e-10
2.39281e-10
9.65903e-11
4.82952e-11
2.19523e-11
9.87856e-12
8.78094e-12
-3.29285e-12
7.68332e-12
1.09762e-11
-2.19523e-12
-8.78094e-12
0
-1.09762e-12
0
1.09762e-12
3.29285e-12
3.29285e-12
1.86595e-11
0
2.19523e-12
0
0
-6.5857e-12
-1.09762e-12
3.29285e-12
0
-1.09762e-12
-7.68332e-12
0
0
1.09762e-12
-4.39047e-12
-8.78094e-12
0
0
-5.48809e-12
0.0317126
0.0916177
0.141622
0.17717
0.196202
0.199211
0.188759
0.168654
0.143062
0.11576
0.0896687
0.0666779
0.0477041
0.0328984
0.0219043
0.0141
0.0087856
0.00530467
0.00310674
0.00176643
0.000975866
0.000524222
0.000274018
0.000139466
6.91599e-05
3.34343e-05
1.57662e-05
7.25583e-06
3.26057e-06
1.43137e-06
6.14116e-07
2.57645e-07
1.05758e-07
4.25019e-08
1.67299e-08
6.44082e-09
2.42244e-09
8.86875e-10
3.39164e-10
1.28421e-10
7.57356e-11
3.07333e-11
3.40261e-11
1.4269e-11
-1.53666e-11
-9.87856e-12
-1.97571e-11
-1.75619e-11
-4.39047e-12
0
0
2.19524e-12
-1.09762e-12
2.19524e-12
-1.09762e-12
-1.09762e-12
9.87856e-12
0
0
-2.19524e-12
3.29285e-12
8.78094e-12
0
-1.86595e-11
8.78094e-12
1.09762e-11
0
1.09762e-12
-4.39047e-12
0
-1.20738e-11
0
0
-3.29285e-12
2.19524e-12
0.0156461
0.045225
0.0699786
0.0876707
0.0972673
0.0989739
0.0940098
0.0842187
0.0716376
0.0581323
0.0451608
0.0336794
0.0241651
0.0167122
0.011158
0.00720175
0.00449897
0.00272321
0.00159869
0.000911072
0.000504429
0.000271543
0.000142225
7.25271e-05
3.60318e-05
1.74499e-05
8.24255e-06
3.79951e-06
1.71007e-06
7.51835e-07
3.23041e-07
1.35723e-07
5.57974e-08
2.24649e-08
8.87204e-09
3.43225e-09
1.31275e-09
5.00514e-10
1.85497e-10
6.14666e-11
3.84166e-11
-2.19524e-12
9.87856e-12
4.39047e-12
-4.39047e-12
-1.09762e-12
-1.53666e-11
-1.20738e-11
0
7.68332e-12
0
1.09762e-12
0
1.09762e-12
-1.09762e-12
-2.19523e-12
-1.86595e-11
-7.68332e-12
-1.09762e-12
0
-1.09762e-12
1.09762e-11
1.09762e-12
-2.19524e-12
-1.09762e-12
-4.39047e-12
9.87856e-12
-1.09762e-12
2.19524e-12
-2.19524e-12
3.29285e-12
0
-2.19524e-12
3.29285e-12
-8.78094e-12
0.00755792
0.0218559
0.0338484
0.0424599
0.0471842
0.0481044
0.0457908
0.0411186
0.0350634
0.0285269
0.0222201
0.0166151
0.011953
0.00828817
0.00554784
0.00358972
0.00224797
0.00136388
0.0008025
0.000458332
0.000254295
0.000137168
7.19829e-05
3.67758e-05
1.83031e-05
8.87922e-06
4.20109e-06
1.93962e-06
8.74323e-07
3.84974e-07
1.65659e-07
6.96932e-08
2.86961e-08
1.15601e-08
4.58036e-09
1.78802e-09
7.11256e-10
2.86478e-10
1.07567e-10
4.06118e-11
-7.68332e-12
-1.20738e-11
-1.31714e-11
-1.97571e-11
-5.48809e-12
-2.19523e-12
8.78094e-12
0
-1.09762e-12
2.19523e-12
1.09762e-12
-2.19523e-12
7.68332e-12
-3.29285e-12
-2.19523e-12
5.48809e-12
-7.68332e-12
1.20738e-11
1.09762e-12
0
1.09762e-12
-2.19523e-12
-1.09762e-12
1.31714e-11
0
1.31714e-11
0
-2.19523e-12
0
1.09762e-12
4.39047e-12
-2.19523e-12
0
2.19523e-12
-1.09762e-12
0.00357454
0.0103409
0.0160274
0.0201277
0.0223994
0.0228753
0.0218174
0.0196328
0.0167794
0.0136835
0.0106841
0.00800853
0.00577546
0.00401439
0.00269353
0.00174692
0.00109646
0.00066672
0.000393137
0.000224999
0.000125086
6.76024e-05
3.55426e-05
1.81912e-05
9.06931e-06
4.40706e-06
2.08849e-06
9.65746e-07
4.36003e-07
1.92262e-07
8.28537e-08
3.48998e-08
1.43667e-08
5.79432e-09
2.29951e-09
9.05534e-10
3.64409e-10
1.58057e-10
6.36618e-11
3.95142e-11
-2.19523e-12
1.09762e-12
-1.75619e-11
-1.64643e-11
8.78094e-12
6.58571e-12
5.48809e-12
-9.87856e-12
-2.19524e-12
2.19523e-12
-7.68332e-12
-7.68332e-12
-1.09762e-12
0
-1.31714e-11
6.5857e-12
1.09762e-12
1.09762e-11
0
-1.09762e-12
1.09762e-12
0
-1.09762e-12
4.39047e-12
3.29285e-12
4.39047e-12
-9.87856e-12
0
-1.09762e-12
1.09762e-12
1.09762e-12
1.09762e-12
0
1.09762e-12
1.31714e-11
0.00165532
0.00479045
0.00742983
0.0093399
0.0104074
0.0106448
0.0101702
0.00916937
0.00785277
0.00641762
0.00502193
0.00377278
0.00272693
0.0018997
0.00127748
0.000830344
0.000522288
0.000318251
0.000188042
0.000107833
6.00636e-05
3.25214e-05
1.71291e-05
8.78209e-06
4.3857e-06
2.13462e-06
1.01318e-06
4.69225e-07
2.12128e-07
9.36718e-08
4.04274e-08
1.70647e-08
7.03134e-09
2.83405e-09
1.1536e-09
4.75268e-10
1.98669e-10
8.8907e-11
5.92713e-11
5.04904e-11
3.84166e-11
2.19524e-11
-4.39047e-12
0
4.39047e-12
1.20738e-11
-4.39047e-12
8.78094e-12
0
-1.09762e-12
-1.09762e-12
-3.29285e-12
-7.68332e-12
1.09762e-12
1.09762e-12
-4.39047e-12
0
-3.29285e-12
-2.19523e-12
2.19524e-12
-1.09762e-12
2.19523e-12
0
6.58571e-12
-2.19523e-12
-1.31714e-11
2.19524e-12
1.09762e-12
0
-1.09762e-12
7.68332e-12
3.29285e-12
0
3.29285e-12
-4.39047e-12
0.000750639
0.00217301
0.00337233
0.0042431
0.0047335
0.00484817
0.00463931
0.00419002
0.00359507
0.00294381
0.00230827
0.0017377
0.00125863
0.000878653
0.000592094
0.000385646
0.000243063
0.000148402
8.7855e-05
5.04755e-05
2.81668e-05
1.5278e-05
8.06085e-06
4.13973e-06
2.0707e-06
1.00941e-06
4.79862e-07
2.22583e-07
1.00765e-07
4.45644e-08
1.92731e-08
8.1564e-09
3.38725e-09
1.38519e-09
5.8064e-10
2.32695e-10
9.32975e-11
2.305e-11
2.41476e-11
1.20738e-11
3.29285e-11
3.18309e-11
2.85381e-11
2.305e-11
7.68332e-12
2.08547e-11
1.31714e-11
2.85381e-11
1.09762e-12
-2.19523e-12
7.68332e-12
6.5857e-12
2.19523e-12
-2.19523e-12
1.4269e-11
-6.5857e-12
-1.09762e-12
-3.29285e-12
1.09762e-12
2.19523e-12
-1.09762e-12
-2.19523e-12
2.19523e-12
-1.20738e-11
-3.29285e-12
-1.09762e-12
0
1.09762e-12
1.09762e-12
0
-7.68332e-12
0
-4.39047e-12
-1.4269e-11
-1.09762e-12
0.000333364
0.000965325
0.00149893
0.00188749
0.00210783
0.00216159
0.00207142
0.00187377
0.00161046
0.00132109
0.00103782
0.000782785
0.000568079
0.000397354
0.000268287
0.000175081
0.00011056
6.76294e-05
4.01108e-05
2.30864e-05
1.29055e-05
7.01206e-06
3.70581e-06
1.90623e-06
9.54955e-07
4.66223e-07
2.21954e-07
1.03103e-07
4.6775e-08
2.07252e-08
8.97083e-09
3.80544e-09
1.58825e-09
6.70644e-10
2.5794e-10
8.56142e-11
1.53666e-11
-2.08547e-11
-2.74404e-11
-2.41476e-11
-1.64643e-11
-2.19524e-12
1.75619e-11
1.53666e-11
7.68332e-12
4.39047e-12
3.40261e-11
2.305e-11
1.09762e-11
0
-1.09762e-12
3.29285e-12
-6.5857e-12
0
-2.19524e-12
0
0
-7.68332e-12
4.39047e-12
-3.29285e-12
0
-1.09762e-12
-5.48809e-12
-2.08547e-11
2.19523e-12
0
-2.19524e-12
-3.29285e-12
1.09762e-12
-1.09762e-12
1.09762e-12
-2.19524e-12
0
0
1.31714e-11
0.000145014
0.000420028
0.000652535
0.000822287
0.000919145
0.000943659
0.000905475
0.000820264
0.000706098
0.000580188
0.000456571
0.000344988
0.000250818
0.000175761
0.000118889
7.77271e-05
4.91721e-05
3.01322e-05
1.79027e-05
1.03219e-05
5.77974e-06
3.14552e-06
1.66502e-06
8.57778e-07
4.30358e-07
2.10408e-07
1.00293e-07
4.66334e-08
2.11752e-08
9.40987e-09
4.08314e-09
1.72875e-09
7.12354e-10
2.79892e-10
8.56142e-11
2.96357e-11
-2.63428e-11
-9.87856e-12
-3.51238e-11
-2.52452e-11
-3.7319e-11
-3.18309e-11
-2.74404e-11
-9.87856e-12
1.09762e-11
1.31714e-11
2.19523e-11
5.48809e-12
1.53666e-11
-2.19523e-12
-1.09762e-12
1.09762e-12
0
3.29285e-12
0
-1.09762e-12
0
0
-1.09762e-12
0
0
3.29285e-12
-1.09762e-12
7.68332e-12
0
-1.09762e-12
0
0
6.58571e-12
4.39047e-12
6.5857e-12
-1.97571e-11
2.19524e-12
1.09762e-11
0
6.17995e-05
0.000179041
0.000278276
0.000350901
0.000392573
0.000403461
0.000387599
0.000351591
0.000303093
0.000249429
0.000196601
0.0001488
0.000108366
7.60684e-05
5.15433e-05
3.37563e-05
2.13918e-05
1.31309e-05
7.81465e-06
4.51303e-06
2.53116e-06
1.37972e-06
7.31439e-07
3.77387e-07
1.89612e-07
9.28123e-08
4.42944e-08
2.06089e-08
9.35719e-09
4.16107e-09
1.80339e-09
7.63942e-10
3.06235e-10
9.65903e-11
1.09762e-11
-1.75619e-11
-4.50023e-11
-1.4269e-11
-2.41476e-11
-2.52452e-11
-2.41476e-11
-2.74404e-11
-3.07333e-11
-8.78094e-12
-6.5857e-12
2.19523e-12
5.48809e-12
-1.4269e-11
-2.19523e-12
0
2.19523e-12
0
2.08547e-11
0
0
0
8.78094e-12
0
-1.09762e-12
-2.19523e-12
-1.09762e-12
1.09762e-12
4.39047e-12
1.86595e-11
1.09762e-12
0
-1.09762e-12
1.31714e-11
0
1.09762e-12
-7.68332e-12
0
0
0
-7.68332e-12
2.5806e-05
7.47795e-05
0.000116275
0.00014671
0.000164262
0.00016898
0.000162515
0.000147599
0.00012741
0.000105001
8.28866e-05
6.28313e-05
4.5831e-05
3.22236e-05
2.18701e-05
1.43464e-05
9.10635e-06
5.5988e-06
3.3374e-06
1.93042e-06
1.08437e-06
5.91966e-07
3.14296e-07
1.62395e-07
8.17143e-08
4.00543e-08
1.91282e-08
8.90497e-09
4.04692e-09
1.77485e-09
7.54063e-10
3.10626e-10
1.1525e-10
2.85381e-11
-1.53666e-11
-2.52452e-11
-3.40261e-11
-2.74404e-11
-1.53666e-11
-1.53666e-11
-2.52452e-11
-1.31714e-11
-1.64643e-11
-2.41476e-11
-3.40261e-11
-3.29285e-11
-2.08547e-11
-1.86595e-11
-1.64643e-11
2.19523e-12
-2.19524e-12
-1.31714e-11
-1.09762e-12
-2.19524e-12
1.09762e-12
3.29285e-12
7.68332e-12
-1.20738e-11
-1.09762e-12
2.19524e-12
-1.09762e-12
-5.48809e-12
-3.29285e-12
0
0
2.19524e-12
1.09762e-12
0
-8.78094e-12
4.39047e-12
1.09762e-12
2.41476e-11
2.19524e-12
4.39047e-12
0
1.0561e-05
3.06096e-05
4.76132e-05
6.01098e-05
6.73504e-05
6.93457e-05
6.6761e-05
6.07027e-05
5.2465e-05
4.32952e-05
3.42247e-05
2.59816e-05
1.89802e-05
1.33654e-05
9.08513e-06
5.96895e-06
3.79464e-06
2.33665e-06
1.39501e-06
8.08115e-07
4.54627e-07
2.48562e-07
1.32155e-07
6.83651e-08
3.44586e-08
1.69242e-08
8.10481e-09
3.78568e-09
1.71448e-09
7.49673e-10
3.19407e-10
1.05371e-10
3.84166e-11
-1.09762e-12
-3.62214e-11
-1.53666e-11
-5.48809e-12
-2.41476e-11
-7.68332e-12
-1.09762e-11
-3.29285e-11
-1.64643e-11
-1.09762e-11
-2.305e-11
-2.08547e-11
-3.07333e-11
-4.28071e-11
-8.78094e-12
-7.68332e-12
-1.09762e-12
-4.39047e-12
-5.48809e-12
-1.4269e-11
2.19524e-12
2.19524e-12
0
-8.78094e-12
-1.64643e-11
-8.78094e-12
-1.20738e-11
-3.29285e-12
-1.09762e-12
1.09762e-12
-2.19524e-12
-1.09762e-12
-1.09762e-11
1.09762e-12
-6.5857e-12
-1.09762e-12
-1.09762e-12
-2.19523e-12
0
-9.87856e-12
0
5.48809e-12
4.23678e-06
1.22819e-05
1.91113e-05
2.41399e-05
2.7066e-05
2.78907e-05
2.68767e-05
2.44638e-05
2.11686e-05
1.74906e-05
1.38445e-05
1.05245e-05
7.69937e-06
5.42956e-06
3.6962e-06
2.43201e-06
1.54841e-06
9.54905e-07
5.70909e-07
3.31224e-07
1.86621e-07
1.02195e-07
5.44243e-08
2.82143e-08
1.42372e-08
7.0017e-09
3.38615e-09
1.59594e-09
7.45282e-10
3.25992e-10
1.29519e-10
2.19523e-11
-1.64643e-11
-2.19523e-12
-1.97571e-11
-2.63428e-11
-9.87856e-12
-3.62214e-11
-3.40261e-11
-2.52452e-11
-7.68332e-12
-6.5857e-12
1.4269e-11
1.64643e-11
-3.29285e-12
-5.48809e-12
-1.20738e-11
-6.5857e-12
1.09762e-12
-4.39047e-12
1.09762e-12
1.31714e-11
1.09762e-12
0
-3.29285e-12
6.5857e-12
-7.68332e-12
7.68332e-12
-8.78094e-12
-2.19523e-12
-1.31714e-11
5.48809e-12
4.39047e-12
-7.68332e-12
1.09762e-12
-1.09762e-12
-1.09762e-12
1.09762e-12
2.19523e-12
-8.78094e-12
-1.31714e-11
-4.39047e-12
-6.5857e-12
-7.68332e-12
-1.09762e-12
1.66647e-06
4.83176e-06
7.52091e-06
9.50449e-06
1.06633e-05
1.09967e-05
1.06063e-05
9.66379e-06
8.37127e-06
6.92494e-06
5.48819e-06
4.17753e-06
3.06027e-06
2.16109e-06
1.47324e-06
9.70733e-07
6.18934e-07
3.82223e-07
2.28839e-07
1.32965e-07
7.502e-08
4.11343e-08
2.19502e-08
1.14108e-08
5.77457e-09
2.86149e-09
1.383e-09
6.50887e-10
3.21602e-10
1.33909e-10
5.81737e-11
1.20738e-11
-1.86595e-11
-2.19524e-12
-1.4269e-11
-3.29285e-11
-2.52452e-11
-3.51238e-11
-3.84166e-11
-2.41476e-11
-5.48809e-12
1.09762e-12
9.87856e-12
-1.09762e-12
1.09762e-11
-1.09762e-12
1.4269e-11
-4.39047e-12
-1.09762e-12
1.09762e-12
0
1.09762e-12
-1.09762e-12
-1.31714e-11
-1.09762e-12
4.39047e-12
0
4.39047e-12
1.86595e-11
1.31714e-11
4.39047e-12
2.19523e-12
0
2.19524e-12
0
1.09762e-11
-2.19524e-12
0
0
5.48809e-12
8.78094e-12
0
9.87856e-12
2.19523e-12
-6.58571e-12
6.42879e-07
1.86422e-06
2.90276e-06
3.66994e-06
4.11983e-06
4.25168e-06
4.1042e-06
3.743e-06
3.24573e-06
2.68795e-06
2.13281e-06
1.62549e-06
1.19228e-06
8.43087e-07
5.7551e-07
3.79732e-07
2.42442e-07
1.4992e-07
8.98927e-08
5.22729e-08
2.95402e-08
1.62382e-08
8.6602e-09
4.50243e-09
2.29073e-09
1.17226e-09
5.77347e-10
2.85381e-10
1.47081e-10
7.68332e-11
5.37833e-11
3.84166e-11
3.7319e-11
-1.09762e-12
8.78094e-12
-6.58571e-12
1.31714e-11
1.4269e-11
2.08547e-11
-1.09762e-12
1.86595e-11
1.09762e-11
1.09762e-11
-3.29285e-12
1.86595e-11
1.31714e-11
4.39047e-12
7.68332e-12
-2.19524e-12
-4.39047e-12
1.09762e-12
3.29285e-12
0
-2.19524e-12
2.19524e-12
-2.305e-11
-1.09762e-12
0
7.68332e-12
1.09762e-12
1.4269e-11
-2.19523e-12
-1.09762e-12
-1.09762e-12
-4.39047e-12
1.09762e-12
-1.09762e-12
1.20738e-11
0
0
2.08547e-11
9.87856e-12
6.58571e-12
4.39047e-12
0
2.43254e-07
7.05456e-07
1.09883e-06
1.38983e-06
1.56108e-06
1.61219e-06
1.55749e-06
1.42168e-06
1.23402e-06
1.02303e-06
8.1264e-07
6.20089e-07
4.55372e-07
3.22399e-07
2.20368e-07
1.45611e-07
9.30999e-08
5.76809e-08
3.4632e-08
2.01643e-08
1.14196e-08
6.28715e-09
3.362e-09
1.75399e-09
9.08827e-10
4.74171e-10
2.56842e-10
1.67935e-10
9.32975e-11
7.57356e-11
5.04904e-11
5.37833e-11
4.50023e-11
1.4269e-11
4.28071e-11
1.53666e-11
1.97571e-11
3.7319e-11
1.86595e-11
-3.29285e-12
3.95142e-11
9.87856e-12
3.07333e-11
4.71976e-11
3.51238e-11
4.06118e-11
2.52452e-11
3.84166e-11
4.39047e-12
-6.5857e-12
4.39047e-12
6.5857e-12
1.53666e-11
2.08547e-11
1.09762e-12
5.48809e-12
4.39047e-12
1.4269e-11
-1.09762e-11
0
0
-2.19523e-12
-1.09762e-12
0
-3.29285e-12
0
4.39047e-12
-4.39047e-12
-2.19523e-12
-1.31714e-11
-5.48809e-12
6.5857e-12
-1.09762e-12
-5.48809e-12
2.19523e-12
9.02505e-08
2.61852e-07
4.07919e-07
5.16192e-07
5.80179e-07
5.99606e-07
5.79731e-07
5.29642e-07
4.60159e-07
3.81861e-07
3.0366e-07
2.31977e-07
1.70565e-07
1.20906e-07
8.27582e-08
5.47514e-08
3.50634e-08
2.17614e-08
1.30584e-08
7.62515e-09
4.31912e-09
2.36537e-09
1.28202e-09
6.89304e-10
3.72092e-10
1.93181e-10
1.21836e-10
8.34189e-11
5.04904e-11
4.50023e-11
3.07333e-11
3.18309e-11
2.41476e-11
2.63428e-11
6.5857e-12
0
-6.58571e-12
1.4269e-11
-5.48809e-12
1.20738e-11
4.39047e-12
5.48809e-12
1.64643e-11
4.60999e-11
3.84166e-11
3.62214e-11
2.19523e-11
1.20738e-11
0
8.78094e-12
1.09762e-12
4.39047e-12
1.4269e-11
1.09762e-12
-2.19524e-12
1.4269e-11
1.31714e-11
2.19524e-12
2.19523e-12
0
0
-2.19523e-12
2.19524e-12
8.78094e-12
3.29285e-12
-1.09762e-12
0
-1.20738e-11
1.09762e-12
0
-1.64643e-11
-9.87856e-12
1.09762e-12
-7.68332e-12
0
3.28714e-08
9.54752e-08
1.48802e-07
1.88367e-07
2.11869e-07
2.19084e-07
2.11998e-07
1.93815e-07
1.68552e-07
1.39996e-07
1.11462e-07
8.52245e-08
6.27365e-08
4.45369e-08
3.05247e-08
2.02214e-08
1.29694e-08
8.03566e-09
4.82513e-09
2.79124e-09
1.58167e-09
8.68215e-10
4.60999e-10
2.54647e-10
1.30616e-10
8.34189e-11
5.26856e-11
1.75619e-11
1.64643e-11
2.96357e-11
2.74404e-11
1.31714e-11
-1.09762e-11
0
-1.64643e-11
3.29285e-12
-8.78094e-12
6.58571e-12
1.4269e-11
3.7319e-11
6.5857e-12
9.87856e-12
-2.08547e-11
6.5857e-12
2.41476e-11
1.53666e-11
-7.68332e-12
-4.39047e-12
-1.09762e-12
5.48809e-12
0
-2.19524e-12
-1.4269e-11
-8.78094e-12
0
-2.08547e-11
-4.39047e-12
-4.39047e-12
1.09762e-12
0
0
-2.19523e-12
4.39047e-12
0
5.48809e-12
0
-1.09762e-12
0
6.58571e-12
1.53666e-11
5.48809e-12
-5.48809e-12
-8.78094e-12
1.09762e-12
-4.39047e-12
1.1784e-08
3.42193e-08
5.32827e-08
6.7453e-08
7.58871e-08
7.85126e-08
7.59859e-08
6.95231e-08
6.05073e-08
5.02698e-08
4.0063e-08
3.06597e-08
2.25956e-08
1.60669e-08
1.10146e-08
7.31233e-09
4.68353e-09
2.89332e-09
1.75399e-09
9.96637e-10
5.43321e-10
2.98552e-10
1.6574e-10
6.80523e-11
3.7319e-11
3.18309e-11
8.78094e-12
0