/*--------------------------------*- C++ -*----------------------------------*\
  =========                 |
  \\      /  F ield         | OpenFOAM: The Open Source CFD Toolbox
   \\    /   O peration     | Website:  https://openfoam.org
    \\  /    A nd           | Version:  10
     \\/     M anipulation  |
\*---------------------------------------------------------------------------*/
FoamFile
{
    format      ascii;
    class       volScalarField;
    location    "650";
    object      T;
}
// * * * * * * * * * * * * * * * * * * * * * * * * * * * * * * * * * * * * * //

dimensions      [0 0 0 1 0 0 0];

internalField   nonuniform List<scalar> 
11250
(
249.918
167.783
139.734
127.461
120.822
116.652
113.762
111.624
109.969
108.642
107.552
106.638
105.86
105.188
104.604
104.091
103.638
103.236
102.878
102.558
102.273
102.017
101.787
101.582
101.398
101.233
101.085
100.954
100.836
100.732
100.639
100.556
100.483
100.419
100.362
100.312
100.269
100.231
100.197
100.168
100.143
100.122
100.103
100.087
100.073
100.061
100.051
100.043
100.036
100.029
100.024
100.02
100.017
100.014
100.011
100.009
100.007
100.006
100.005
100.004
100.003
100.002
100.002
100.002
100.001
100.001
100.001
100.001
100
100
100
100
100
100
100
331.727
249.266
203.429
176.754
160.004
148.681
140.541
134.399
129.585
125.7
122.49
119.789
117.483
115.49
113.751
112.224
110.874
109.675
108.607
107.653
106.799
106.034
105.349
104.734
104.184
103.691
103.25
102.856
102.504
102.191
101.913
101.666
101.448
101.255
101.085
100.936
100.805
100.691
100.591
100.504
100.429
100.364
100.308
100.26
100.219
100.183
100.154
100.128
100.106
100.088
100.073
100.06
100.049
100.041
100.033
100.027
100.022
100.018
100.014
100.012
100.009
100.007
100.006
100.005
100.004
100.003
100.002
100.002
100.001
100.001
100.001
100.001
100
100
100
359.452
294.131
247.972
216.132
193.772
177.544
165.343
155.868
148.299
142.109
136.949
132.576
128.824
125.569
122.722
120.214
117.993
116.018
114.256
112.681
111.27
110.005
108.871
107.853
106.941
106.124
105.393
104.74
104.157
103.638
103.176
102.767
102.404
102.084
101.802
101.554
101.337
101.147
100.982
100.838
100.713
100.605
100.512
100.432
100.363
100.305
100.255
100.213
100.177
100.147
100.121
100.1
100.082
100.067
100.055
100.045
100.036
100.029
100.024
100.019
100.015
100.012
100.01
100.008
100.006
100.005
100.004
100.003
100.002
100.002
100.001
100.001
100.001
100
100
371.403
319.842
278.207
246.051
221.432
202.409
187.454
175.468
165.675
157.536
150.667
144.795
139.721
135.296
131.409
127.974
124.924
122.206
119.777
117.601
115.651
113.9
112.329
110.918
109.653
108.519
107.504
106.596
105.786
105.064
104.422
103.853
103.348
102.903
102.51
102.165
101.863
101.598
101.368
101.167
100.993
100.843
100.713
100.602
100.507
100.425
100.356
100.297
100.247
100.205
100.169
100.139
100.115
100.094
100.077
100.062
100.051
100.041
100.033
100.027
100.021
100.017
100.014
100.011
100.009
100.007
100.005
100.004
100.003
100.002
100.002
100.001
100.001
100.001
100
377.724
335.64
298.983
268.46
243.532
223.245
206.645
192.926
181.457
171.754
163.456
156.288
150.043
144.562
139.723
135.429
131.604
128.186
125.124
122.376
119.909
117.691
115.699
113.909
112.301
110.86
109.568
108.413
107.382
106.462
105.644
104.918
104.275
103.707
103.206
102.766
102.38
102.042
101.747
101.491
101.269
101.077
100.912
100.769
100.647
100.543
100.455
100.379
100.315
100.262
100.216
100.178
100.147
100.12
100.098
100.08
100.065
100.053
100.042
100.034
100.027
100.022
100.017
100.014
100.011
100.009
100.007
100.005
100.004
100.003
100.002
100.002
100.001
100.001
100
381.581
346.024
313.651
285.307
261.032
240.446
223.014
208.204
195.546
184.65
175.2
166.948
159.695
153.285
147.593
142.518
137.98
133.912
130.258
126.972
124.016
121.355
118.961
116.807
114.871
113.134
111.576
110.182
108.936
107.825
106.836
105.958
105.18
104.492
103.886
103.353
102.885
102.476
102.119
101.809
101.54
101.307
101.106
100.934
100.786
100.659
100.552
100.46
100.383
100.317
100.263
100.216
100.178
100.146
100.119
100.097
100.079
100.064
100.051
100.041
100.033
100.027
100.021
100.017
100.013
100.01
100.008
100.006
100.005
100.004
100.003
100.002
100.001
100.001
100
384.164
353.243
324.321
298.125
274.898
254.555
236.834
221.413
207.965
196.197
185.853
176.72
168.621
161.41
154.967
149.195
144.012
139.349
135.148
131.362
127.948
124.87
122.096
119.597
117.349
115.329
113.517
111.893
110.441
109.146
107.992
106.967
106.059
105.255
104.547
103.924
103.377
102.898
102.481
102.118
101.803
101.531
101.296
101.094
100.92
100.772
100.646
100.539
100.449
100.372
100.308
100.254
100.209
100.171
100.14
100.114
100.092
100.075
100.06
100.049
100.039
100.031
100.025
100.02
100.016
100.012
100.01
100.007
100.006
100.004
100.003
100.002
100.002
100.001
100
386.001
358.485
332.299
308.023
285.943
266.115
248.441
232.743
218.812
206.435
195.419
185.589
176.794
168.906
161.815
155.429
149.67
144.469
139.771
135.525
131.687
128.22
125.09
122.267
119.724
117.436
115.382
113.539
111.891
110.419
109.108
107.942
106.908
105.993
105.187
104.477
103.853
103.308
102.832
102.418
102.059
101.748
101.48
101.249
101.051
100.882
100.738
100.616
100.513
100.425
100.352
100.29
100.238
100.195
100.16
100.13
100.106
100.086
100.069
100.056
100.045
100.036
100.028
100.023
100.018
100.014
100.011
100.009
100.007
100.005
100.004
100.003
100.002
100.001
100
387.364
362.421
338.409
315.779
294.807
275.606
258.171
242.419
228.225
215.446
203.94
193.571
184.216
175.765
168.122
161.204
154.937
149.257
144.109
139.443
135.217
131.391
127.931
124.805
121.986
119.446
117.163
115.114
113.28
111.64
110.178
108.878
107.725
106.704
105.802
105.009
104.313
103.703
103.171
102.708
102.306
101.958
101.658
101.399
101.178
100.989
100.828
100.691
100.575
100.477
100.394
100.325
100.267
100.219
100.179
100.146
100.118
100.096
100.077
100.062
100.05
100.04
100.032
100.025
100.02
100.016
100.012
100.01
100.007
100.006
100.004
100.003
100.002
100.001
100
388.406
365.454
343.181
321.941
301.978
283.426
266.328
250.661
236.359
223.333
211.482
200.706
190.908
181.996
173.89
166.515
159.806
153.702
148.152
143.108
138.528
134.374
130.609
127.204
124.127
121.353
118.856
116.613
114.602
112.805
111.201
109.773
108.506
107.384
106.393
105.52
104.754
104.082
103.496
102.986
102.543
102.16
101.829
101.544
101.3
101.092
100.914
100.762
100.634
100.526
100.435
100.359
100.295
100.242
100.198
100.161
100.131
100.106
100.086
100.069
100.055
100.044
100.035
100.028
100.022
100.017
100.014
100.011
100.008
100.006
100.005
100.003
100.002
100.001
100
389.22
367.839
346.97
326.896
307.827
289.898
273.176
257.675
243.37
230.209
218.126
207.05
196.906
187.622
179.131
171.369
164.277
157.803
151.897
146.515
141.616
137.163
133.121
129.457
126.144
123.151
120.455
118.031
115.856
113.91
112.172
110.624
109.249
108.032
106.956
106.007
105.175
104.445
103.808
103.252
102.77
102.353
101.993
101.683
101.417
101.19
100.996
100.831
100.692
100.574
100.475
100.392
100.322
100.264
100.216
100.176
100.143
100.116
100.093
100.075
100.06
100.048
100.038
100.031
100.024
100.019
100.015
100.012
100.009
100.007
100.005
100.004
100.002
100.001
100
389.869
369.744
350.018
330.921
312.631
295.278
278.937
263.645
249.402
236.186
223.956
212.663
202.255
192.674
183.867
175.779
168.36
161.564
155.346
149.664
144.479
139.757
135.462
131.564
128.032
124.839
121.959
119.366
117.038
114.953
113.09
111.43
109.954
108.646
107.49
106.471
105.575
104.79
104.104
103.506
102.987
102.538
102.15
101.816
101.529
101.284
101.075
100.897
100.747
100.62
100.513
100.423
100.348
100.285
100.233
100.19
100.154
100.125
100.101
100.081
100.065
100.052
100.042
100.033
100.026
100.021
100.016
100.013
100.01
100.007
100.006
100.004
100.003
100.002
100.001
390.392
371.285
352.499
334.22
316.604
299.769
283.795
268.728
254.588
241.37
229.056
217.613
207.005
197.189
188.124
179.765
172.069
164.995
158.504
152.558
147.119
142.155
137.633
133.521
129.791
126.414
123.364
120.617
118.147
115.933
113.954
112.188
110.618
109.226
107.994
106.908
105.954
105.116
104.385
103.747
103.193
102.713
102.298
101.942
101.635
101.373
101.15
100.96
100.799
100.663
100.549
100.453
100.372
100.305
100.249
100.203
100.165
100.134
100.108
100.087
100.07
100.056
100.044
100.035
100.028
100.022
100.017
100.013
100.01
100.008
100.006
100.004
100.003
100.002
100.001
390.819
372.545
354.534
336.943
319.907
303.533
287.9
273.061
259.044
245.861
233.506
221.963
211.207
201.208
191.935
183.351
175.421
168.11
161.382
155.204
149.541
144.362
139.636
135.331
131.421
127.877
124.672
121.782
119.182
116.85
114.762
112.899
111.242
109.771
108.469
107.321
106.31
105.424
104.65
103.974
103.387
102.878
102.439
102.061
101.736
101.458
101.221
101.02
100.849
100.704
100.583
100.481
100.396
100.324
100.265
100.216
100.176
100.142
100.115
100.092
100.074
100.059
100.047
100.038
100.03
100.023
100.018
100.014
100.011
100.008
100.006
100.005
100.003
100.002
100.001
391.17
373.583
356.217
339.206
322.667
306.699
291.376
276.756
262.873
249.747
237.383
225.776
214.913
204.773
195.332
186.563
178.437
170.924
163.992
157.612
151.752
146.383
141.474
136.998
132.925
129.229
125.884
122.864
120.144
117.702
115.515
113.563
111.824
110.28
108.913
107.707
106.645
105.713
104.898
104.188
103.57
103.034
102.572
102.173
101.831
101.538
101.288
101.076
100.896
100.743
100.615
100.508
100.418
100.342
100.28
100.228
100.185
100.15
100.121
100.098
100.078
100.063
100.05
100.04
100.031
100.025
100.019
100.015
100.012
100.009
100.007
100.005
100.003
100.002
100.001
391.46
374.445
357.618
341.095
324.983
309.369
294.326
279.911
266.162
253.105
240.754
229.112
218.172
207.924
198.35
189.43
181.141
173.456
166.349
159.794
153.762
148.224
143.154
138.524
134.306
130.473
127
123.862
121.034
118.492
116.214
114.179
112.365
110.754
109.327
108.067
106.957
105.983
105.131
104.388
103.741
103.18
102.696
102.278
101.92
101.613
101.351
101.129
100.94
100.78
100.646
100.533
100.438
100.359
100.294
100.24
100.195
100.158
100.127
100.103
100.082
100.066
100.052
100.042
100.033
100.026
100.02
100.016
100.012
100.009
100.007
100.005
100.003
100.002
100.001
391.703
375.163
358.788
342.68
326.932
311.627
296.834
282.606
268.987
256.006
243.682
232.023
221.032
210.702
201.023
191.98
183.554
175.725
168.469
161.762
155.58
149.895
144.683
139.916
135.567
131.612
128.025
124.78
121.853
119.221
116.86
114.749
112.867
111.194
109.711
108.402
107.248
106.235
105.348
104.574
103.901
103.317
102.812
102.377
102.003
101.683
101.41
101.178
100.981
100.815
100.674
100.556
100.458
100.375
100.307
100.25
100.203
100.165
100.133
100.107
100.086
100.069
100.055
100.044
100.034
100.027
100.021
100.017
100.013
100.01
100.007
100.005
100.004
100.002
100.001
391.905
375.765
359.77
344.013
328.578
313.541
298.968
284.911
271.414
258.51
246.22
234.56
223.535
213.144
203.382
194.24
185.701
177.751
170.368
163.531
157.219
151.405
146.067
141.179
136.716
132.651
128.961
125.62
122.604
119.889
117.453
115.273
113.329
111.6
110.066
108.711
107.517
106.468
105.549
104.747
104.049
103.443
102.92
102.469
102.081
101.749
101.465
101.224
101.02
100.847
100.701
100.578
100.476
100.39
100.319
100.26
100.212
100.171
100.138
100.111
100.089
100.072
100.057
100.045
100.036
100.028
100.022
100.017
100.013
100.01
100.008
100.005
100.004
100.002
100.001
392.075
376.271
360.597
345.137
329.97
315.166
300.786
286.882
273.499
260.669
248.42
236.767
225.721
215.286
205.46
196.236
187.605
179.553
172.062
165.115
158.689
152.764
147.317
142.322
137.756
133.595
129.812
126.385
123.289
120.501
117.996
115.754
113.753
111.972
110.393
108.996
107.765
106.683
105.735
104.907
104.186
103.561
103.02
102.554
102.153
101.81
101.517
101.267
101.055
100.877
100.726
100.599
100.493
100.404
100.331
100.27
100.219
100.178
100.143
100.116
100.093
100.074
100.059
100.047
100.037
100.029
100.023
100.018
100.014
100.011
100.008
100.006
100.004
100.002
100.001
392.219
376.697
361.294
346.088
331.15
316.546
302.336
288.569
275.289
262.531
250.322
238.683
227.627
217.159
207.284
197.996
189.289
181.151
173.569
166.527
160.005
153.983
148.439
143.351
138.695
134.448
130.584
127.08
123.912
121.057
118.492
116.193
114.141
112.314
110.692
109.257
107.992
106.88
105.905
105.054
104.312
103.669
103.112
102.632
102.219
101.866
101.564
101.307
101.089
100.904
100.749
100.618
100.509
100.417
100.341
100.278
100.226
100.183
100.148
100.119
100.096
100.077
100.061
100.049
100.038
100.03
100.024
100.019
100.014
100.011
100.008
100.006
100.004
100.002
100.001
392.34
377.057
361.884
346.894
332.152
317.721
303.658
290.012
276.825
264.134
251.967
240.345
229.285
218.795
208.881
199.542
190.772
182.564
174.905
167.782
161.177
155.071
149.444
144.275
139.54
135.216
131.28
127.708
124.477
121.562
118.941
116.593
114.494
112.625
110.965
109.496
108.2
107.061
106.062
105.189
104.428
103.768
103.197
102.704
102.281
101.918
101.607
101.343
101.119
100.93
100.77
100.636
100.523
100.429
100.351
100.286
100.233
100.189
100.152
100.123
100.099
100.079
100.063
100.05
100.04
100.031
100.024
100.019
100.015
100.011
100.008
100.006
100.004
100.002
100.001
392.442
377.361
362.384
347.576
333.002
318.721
304.786
291.246
278.143
265.514
253.386
241.784
230.725
220.221
210.277
200.896
192.076
183.809
176.086
168.894
162.218
156.04
150.341
145.1
140.296
135.905
131.906
128.274
124.985
122.018
119.348
116.954
114.814
112.907
111.213
109.713
108.39
107.225
106.204
105.312
104.534
103.859
103.275
102.77
102.337
101.965
101.647
101.377
101.147
100.953
100.789
100.652
100.537
100.44
100.36
100.294
100.239
100.194
100.156
100.126
100.101
100.081
100.065
100.051
100.041
100.032
100.025
100.02
100.015
100.012
100.009
100.006
100.004
100.002
100.001
392.529
377.619
362.807
348.156
333.725
319.572
305.749
292.302
279.274
266.699
254.61
243.028
231.974
221.46
211.494
202.081
193.219
184.903
177.126
169.876
163.139
156.899
151.138
145.835
140.971
136.522
132.466
128.781
125.442
122.428
119.714
117.28
115.103
113.162
111.438
109.91
108.562
107.375
106.334
105.424
104.631
103.942
103.345
102.831
102.388
102.008
101.684
101.408
101.173
100.975
100.807
100.667
100.549
100.45
100.368
100.301
100.244
100.198
100.16
100.129
100.103
100.083
100.066
100.053
100.042
100.033
100.026
100.02
100.015
100.012
100.009
100.006
100.004
100.002
100.001
392.602
377.838
363.166
348.647
334.339
320.297
306.57
293.204
280.242
267.718
255.663
244.102
233.054
222.534
212.553
203.113
194.217
185.862
178.039
170.74
163.952
157.659
151.844
146.488
141.571
137.071
132.966
129.234
125.851
122.795
120.043
117.573
115.363
113.392
111.64
110.088
108.717
107.51
106.451
105.525
104.718
104.017
103.41
102.885
102.434
102.048
101.717
101.436
101.197
100.994
100.824
100.68
100.56
100.46
100.376
100.307
100.249
100.202
100.163
100.132
100.106
100.085
100.067
100.054
100.042
100.033
100.026
100.02
100.016
100.012
100.009
100.007
100.004
100.003
100.001
392.664
378.023
363.471
349.065
334.862
320.914
307.27
293.975
281.071
268.592
256.568
245.027
233.987
223.465
213.471
204.012
195.088
186.699
178.839
171.499
164.666
158.328
152.467
147.065
142.102
137.558
133.41
129.637
126.216
123.123
120.337
117.835
115.596
113.599
111.822
110.248
108.857
107.632
106.557
105.617
104.797
104.085
103.468
102.935
102.476
102.083
101.747
101.461
101.218
101.012
100.838
100.692
100.57
100.468
100.383
100.312
100.254
100.206
100.166
100.134
100.108
100.086
100.069
100.055
100.043
100.034
100.027
100.021
100.016
100.012
100.009
100.007
100.004
100.003
100.001
392.717
378.18
363.729
349.419
335.306
321.439
307.867
294.634
281.78
269.34
257.346
245.823
234.792
224.269
214.266
204.791
195.846
187.429
179.537
172.162
165.293
158.916
153.015
147.573
142.571
137.989
133.804
129.995
126.54
123.415
120.599
118.069
115.804
113.783
111.985
110.391
108.982
107.741
106.652
105.699
104.868
104.146
103.52
102.98
102.514
102.116
101.774
101.484
101.237
101.028
100.852
100.704
100.579
100.476
100.389
100.318
100.258
100.209
100.169
100.136
100.109
100.088
100.07
100.056
100.044
100.035
100.027
100.021
100.016
100.013
100.009
100.007
100.005
100.003
100.001
392.762
378.313
363.948
349.72
335.683
321.885
308.375
295.195
282.385
269.981
258.012
246.506
235.484
224.962
214.954
205.466
196.502
188.064
180.146
172.741
165.84
159.43
153.496
148.02
142.984
138.368
134.151
130.311
126.826
123.674
120.831
118.277
115.989
113.947
112.13
110.519
109.094
107.839
106.737
105.773
104.932
104.201
103.567
103.02
102.549
102.145
101.799
101.505
101.254
101.043
100.864
100.714
100.588
100.482
100.395
100.322
100.262
100.212
100.172
100.138
100.111
100.089
100.071
100.056
100.045
100.035
100.028
100.022
100.017
100.013
100.01
100.007
100.005
100.003
100.001
392.8
378.426
364.133
349.975
336.003
322.264
308.807
295.673
282.901
270.528
258.583
247.092
236.079
225.559
215.546
206.048
197.071
188.614
180.674
173.245
166.318
159.88
153.916
148.411
143.347
138.702
134.457
130.59
127.079
123.902
121.037
118.461
116.154
114.093
112.259
110.632
109.194
107.926
106.813
105.839
104.989
104.25
103.609
103.056
102.579
102.171
101.821
101.523
101.27
101.056
100.875
100.723
100.595
100.489
100.4
100.326
100.265
100.215
100.174
100.14
100.113
100.09
100.072
100.057
100.045
100.036
100.028
100.022
100.017
100.013
100.01
100.007
100.005
100.003
100.001
392.832
378.521
364.291
350.191
336.274
322.586
309.174
296.08
283.341
270.995
259.07
247.594
236.588
226.071
216.055
206.55
197.561
189.089
181.131
173.682
166.732
160.271
154.283
148.753
143.663
138.994
134.725
130.835
127.301
124.103
121.218
118.623
116.298
114.222
112.373
110.733
109.282
108.004
106.881
105.897
105.039
104.293
103.646
103.088
102.607
102.194
101.841
101.54
101.284
101.067
100.885
100.731
100.602
100.494
100.405
100.33
100.268
100.218
100.176
100.142
100.114
100.091
100.073
100.058
100.046
100.036
100.028
100.022
100.017
100.013
100.01
100.007
100.005
100.003
100.001
392.859
378.602
364.424
350.374
336.504
322.859
309.486
296.425
283.716
271.392
259.486
248.022
237.024
226.51
216.493
206.982
197.984
189.499
181.526
174.06
167.091
160.61
154.601
149.05
143.939
139.249
134.959
131.049
127.496
124.279
121.377
118.766
116.426
114.335
112.473
110.821
109.36
108.072
106.94
105.949
105.084
104.332
103.68
103.116
102.631
102.214
101.858
101.554
101.296
101.078
100.893
100.738
100.608
100.499
100.409
100.333
100.271
100.22
100.178
100.143
100.115
100.092
100.074
100.058
100.046
100.037
100.029
100.022
100.017
100.013
100.01
100.007
100.005
100.003
100.001
392.882
378.67
364.536
350.529
336.698
323.09
309.75
296.718
284.034
271.731
259.84
248.387
237.397
226.885
216.867
207.352
198.346
189.851
181.866
174.386
167.402
160.903
154.877
149.308
144.179
139.47
135.163
131.235
127.666
124.434
121.516
118.891
116.538
114.435
112.562
110.899
109.429
108.132
106.993
105.995
105.124
104.366
103.709
103.141
102.652
102.233
101.874
101.567
101.307
101.087
100.901
100.744
100.613
100.504
100.412
100.336
100.274
100.222
100.179
100.145
100.116
100.093
100.074
100.059
100.047
100.037
100.029
100.023
100.017
100.013
100.01
100.007
100.005
100.003
100.001
392.901
378.728
364.631
350.66
336.863
323.286
309.974
296.967
284.303
272.018
260.14
248.698
237.714
227.205
217.187
207.668
198.657
190.154
182.159
174.666
167.669
161.156
155.116
149.531
144.386
139.663
135.34
131.397
127.814
124.568
121.637
119
116.635
114.522
112.639
110.968
109.489
108.185
107.039
106.035
105.159
104.396
103.735
103.163
102.671
102.249
101.887
101.579
101.317
101.095
100.908
100.75
100.618
100.507
100.415
100.339
100.276
100.224
100.181
100.146
100.117
100.094
100.075
100.059
100.047
100.037
100.029
100.023
100.018
100.013
100.01
100.007
100.005
100.003
100.001
392.917
378.777
364.711
350.77
337.001
323.451
310.163
297.177
284.531
272.261
260.396
248.962
237.983
227.478
217.459
207.939
198.922
190.413
182.409
174.907
167.898
161.374
155.321
149.724
144.566
139.829
135.493
131.538
127.942
124.684
121.743
119.095
116.72
114.598
112.707
111.028
109.542
108.231
107.079
106.07
105.189
104.423
103.758
103.183
102.688
102.263
101.899
101.589
101.326
101.102
100.914
100.755
100.622
100.511
100.418
100.341
100.278
100.225
100.182
100.147
100.118
100.094
100.075
100.06
100.047
100.037
100.029
100.023
100.018
100.014
100.01
100.007
100.005
100.003
100.001
392.931
378.817
364.779
350.863
337.118
323.59
310.322
297.354
284.724
272.467
260.612
249.186
238.212
227.709
217.691
208.169
199.149
190.634
182.623
175.112
168.095
161.561
155.497
149.889
144.72
139.972
135.625
131.659
128.053
124.785
121.834
119.177
116.794
114.664
112.765
111.08
109.588
108.271
107.115
106.101
105.216
104.446
103.778
103.2
102.703
102.275
101.91
101.598
101.333
101.109
100.919
100.76
100.626
100.514
100.421
100.343
100.279
100.227
100.183
100.148
100.119
100.095
100.076
100.06
100.048
100.038
100.03
100.023
100.018
100.014
100.01
100.007
100.005
100.003
100.001
392.942
378.852
364.835
350.941
337.217
323.707
310.456
297.503
284.887
272.64
260.794
249.375
238.406
227.905
217.888
208.364
199.341
190.821
182.805
175.288
168.263
161.72
155.648
150.031
144.852
140.095
135.739
131.764
128.149
124.872
121.913
119.249
116.858
114.721
112.816
111.125
109.627
108.306
107.145
106.128
105.239
104.466
103.795
103.215
102.715
102.286
101.919
101.606
101.34
101.114
100.924
100.763
100.629
100.517
100.423
100.345
100.281
100.228
100.184
100.148
100.119
100.096
100.076
100.061
100.048
100.038
100.03
100.023
100.018
100.014
100.01
100.007
100.005
100.003
100.001
392.952
378.881
364.883
351.007
337.299
323.806
310.569
297.629
285.024
272.786
260.948
249.535
238.569
228.071
218.054
208.529
199.504
190.981
182.96
175.437
168.406
161.857
155.777
150.152
144.965
140.2
135.836
131.853
128.231
124.947
121.981
119.31
116.913
114.77
112.86
111.164
109.662
108.337
107.172
106.151
105.259
104.483
103.81
103.228
102.726
102.296
101.927
101.613
101.345
101.119
100.928
100.767
100.632
100.519
100.425
100.347
100.282
100.229
100.185
100.149
100.12
100.096
100.077
100.061
100.048
100.038
100.03
100.023
100.018
100.014
100.01
100.007
100.005
100.003
100.001
392.96
378.905
364.923
351.062
337.368
323.888
310.664
297.735
285.139
272.909
261.077
249.669
238.707
228.211
218.194
208.669
199.642
191.116
183.091
175.564
168.528
161.972
155.886
150.255
145.062
140.29
135.919
131.93
128.301
125.011
122.039
119.362
116.961
114.813
112.898
111.197
109.691
108.363
107.195
106.171
105.277
104.498
103.823
103.239
102.736
102.304
101.934
101.619
101.35
101.123
100.931
100.77
100.634
100.521
100.427
100.348
100.283
100.23
100.186
100.15
100.12
100.096
100.077
100.061
100.048
100.038
100.03
100.023
100.018
100.014
100.01
100.007
100.005
100.003
100.001
392.967
378.925
364.956
351.107
337.426
323.957
310.743
297.823
285.235
273.012
261.186
249.782
238.823
228.328
218.313
208.787
199.758
191.23
183.202
175.671
168.631
162.071
155.979
150.342
145.144
140.366
135.99
131.995
128.361
125.066
122.089
119.407
117.001
114.849
112.93
111.226
109.717
108.385
107.214
106.188
105.292
104.511
103.834
103.249
102.744
102.311
101.94
101.624
101.355
101.127
100.934
100.772
100.636
100.523
100.428
100.349
100.284
100.231
100.187
100.15
100.121
100.097
100.077
100.061
100.049
100.038
100.03
100.024
100.018
100.014
100.01
100.007
100.005
100.003
100.001
392.972
378.942
364.984
351.146
337.475
324.015
310.809
297.897
285.316
273.099
261.277
249.876
238.92
228.427
218.412
208.886
199.856
191.326
183.296
175.762
168.718
162.153
156.058
150.417
145.214
140.431
136.05
132.051
128.412
125.113
122.131
119.446
117.036
114.88
112.958
111.251
109.739
108.405
107.231
106.203
105.305
104.522
103.844
103.257
102.751
102.317
101.945
101.628
101.358
101.13
100.937
100.774
100.638
100.524
100.429
100.35
100.285
100.231
100.187
100.151
100.121
100.097
100.077
100.062
100.049
100.039
100.03
100.024
100.018
100.014
100.01
100.008
100.005
100.003
100.001
392.977
378.956
365.007
351.178
337.515
324.063
310.864
297.959
285.383
273.171
261.353
249.955
239.002
228.51
218.495
208.969
199.939
191.407
183.375
175.838
168.791
162.223
156.124
150.479
145.272
140.486
136.101
132.098
128.455
125.152
122.167
119.478
117.065
114.906
112.982
111.272
109.757
108.421
107.246
106.216
105.316
104.532
103.852
103.264
102.758
102.322
101.95
101.632
101.362
101.133
100.939
100.776
100.64
100.526
100.43
100.351
100.286
100.232
100.188
100.151
100.121
100.097
100.078
100.062
100.049
100.039
100.03
100.024
100.018
100.014
100.01
100.008
100.005
100.003
100.001
392.981
378.967
365.026
351.204
337.548
324.103
310.91
298.01
285.439
273.231
261.416
250.021
239.069
228.579
218.565
209.039
200.008
191.475
183.441
175.902
168.852
162.282
156.18
150.532
145.322
140.532
136.144
132.138
128.492
125.186
122.197
119.506
117.09
114.929
113.002
111.289
109.773
108.435
107.258
106.226
105.325
104.54
103.859
103.27
102.763
102.327
101.954
101.635
101.364
101.135
100.941
100.778
100.641
100.527
100.431
100.352
100.287
100.232
100.188
100.152
100.122
100.098
100.078
100.062
100.049
100.039
100.03
100.024
100.018
100.014
100.01
100.008
100.005
100.003
100.001
392.984
378.977
365.042
351.226
337.576
324.136
310.948
298.052
285.485
273.281
261.469
250.076
239.126
228.636
218.623
209.097
200.065
191.531
183.496
175.956
168.904
162.331
156.227
150.576
145.364
140.571
136.18
132.171
128.523
125.214
122.223
119.529
117.111
114.948
113.019
111.305
109.787
108.447
107.268
106.235
105.333
104.547
103.865
103.276
102.767
102.331
101.957
101.638
101.367
101.137
100.943
100.779
100.642
100.528
100.432
100.353
100.287
100.233
100.188
100.152
100.122
100.098
100.078
100.062
100.049
100.039
100.03
100.024
100.018
100.014
100.01
100.008
100.005
100.003
100.001
392.987
378.985
365.055
351.244
337.599
324.164
310.98
298.088
285.524
273.322
261.513
250.122
239.173
228.684
218.671
209.145
200.113
191.579
183.542
176
168.947
162.373
156.266
150.613
145.399
140.604
136.211
132.199
128.549
125.238
122.245
119.549
117.129
114.964
113.033
111.317
109.798
108.457
107.277
106.243
105.34
104.553
103.87
103.28
102.771
102.334
101.96
101.64
101.369
101.139
100.944
100.781
100.643
100.528
100.433
100.353
100.288
100.233
100.189
100.152
100.122
100.098
100.078
100.062
100.049
100.039
100.031
100.024
100.018
100.014
100.011
100.008
100.005
100.003
100.001
392.989
378.992
365.066
351.26
337.618
324.186
311.006
298.117
285.556
273.357
261.549
250.16
239.212
228.724
218.711
209.185
200.153
191.618
183.58
176.037
168.983
162.407
156.299
150.644
145.428
140.631
136.236
132.223
128.57
125.257
122.263
119.566
117.144
114.977
113.045
111.328
109.808
108.465
107.285
106.25
105.345
104.558
103.875
103.284
102.774
102.337
101.962
101.642
101.37
101.14
100.945
100.782
100.644
100.529
100.433
100.354
100.288
100.234
100.189
100.152
100.122
100.098
100.078
100.062
100.049
100.039
100.031
100.024
100.018
100.014
100.011
100.008
100.005
100.003
100.001
392.991
378.997
365.075
351.272
337.634
324.205
311.028
298.141
285.582
273.385
261.579
250.191
239.244
228.757
218.745
209.218
200.186
191.65
183.612
176.068
169.012
162.436
156.326
150.67
145.452
140.654
136.257
132.242
128.588
125.274
122.278
119.579
117.156
114.988
113.055
111.337
109.816
108.472
107.291
106.255
105.35
104.562
103.878
103.287
102.777
102.339
101.964
101.644
101.372
101.141
100.946
100.782
100.645
100.53
100.434
100.354
100.288
100.234
100.189
100.152
100.123
100.098
100.078
100.062
100.049
100.039
100.031
100.024
100.018
100.014
100.011
100.008
100.005
100.003
100.001
392.992
379.001
365.082
351.282
337.647
324.22
311.045
298.161
285.604
273.408
261.603
250.217
239.27
228.784
218.772
209.246
200.213
191.677
183.638
176.094
169.037
162.459
156.349
150.692
145.472
140.673
136.275
132.259
128.603
125.288
122.291
119.591
117.167
114.998
113.064
111.345
109.822
108.478
107.296
106.26
105.354
104.566
103.881
103.289
102.779
102.341
101.966
101.645
101.373
101.142
100.947
100.783
100.645
100.53
100.434
100.355
100.289
100.234
100.189
100.153
100.123
100.098
100.078
100.062
100.049
100.039
100.031
100.024
100.018
100.014
100.011
100.008
100.005
100.003
100.001
392.994
379.005
365.088
351.29
337.657
324.233
311.06
298.177
285.622
273.427
261.624
250.238
239.292
228.806
218.794
209.268
200.235
191.699
183.66
176.115
169.057
162.479
156.367
150.709
145.489
140.689
136.29
132.272
128.616
125.299
122.301
119.6
117.175
115.006
113.071
111.351
109.828
108.483
107.301
106.264
105.358
104.569
103.884
103.292
102.781
102.343
101.967
101.647
101.374
101.143
100.948
100.784
100.646
100.531
100.435
100.355
100.289
100.234
100.189
100.153
100.123
100.098
100.078
100.062
100.049
100.039
100.031
100.024
100.018
100.014
100.011
100.008
100.005
100.003
100.001
392.995
379.008
365.093
351.297
337.666
324.243
311.072
298.19
285.636
273.443
261.64
250.255
239.31
228.824
218.813
209.287
200.254
191.717
183.678
176.132
169.074
162.495
156.383
150.724
145.503
140.701
136.302
132.284
128.626
125.309
122.31
119.608
117.183
115.012
113.076
111.356
109.833
108.488
107.304
106.267
105.36
104.571
103.886
103.293
102.783
102.344
101.968
101.648
101.375
101.144
100.949
100.784
100.646
100.531
100.435
100.355
100.289
100.234
100.19
100.153
100.123
100.098
100.079
100.062
100.049
100.039
100.031
100.024
100.018
100.014
100.011
100.008
100.005
100.003
100.001
392.996
379.011
365.097
351.303
337.673
324.252
311.081
298.201
285.648
273.456
261.654
250.269
239.325
228.839
218.828
209.302
200.269
191.732
183.692
176.146
169.088
162.508
156.395
150.736
145.514
140.712
136.312
132.293
128.635
125.317
122.317
119.615
117.189
115.017
113.081
111.361
109.836
108.491
107.307
106.27
105.363
104.573
103.888
103.295
102.784
102.345
101.969
101.648
101.376
101.144
100.949
100.785
100.647
100.531
100.435
100.355
100.289
100.235
100.19
100.153
100.123
100.098
100.079
100.062
100.05
100.039
100.031
100.024
100.019
100.014
100.011
100.008
100.005
100.003
100.001
392.996
379.012
365.101
351.307
337.679
324.259
311.089
298.21
285.658
273.466
261.665
250.281
239.337
228.851
218.84
209.314
200.281
191.744
183.704
176.158
169.099
162.519
156.406
150.746
145.523
140.721
136.32
132.3
128.642
125.323
122.323
119.62
117.193
115.022
113.085
111.364
109.84
108.494
107.31
106.272
105.365
104.575
103.889
103.296
102.785