/*--------------------------------*- C++ -*----------------------------------*\
  =========                 |
  \\      /  F ield         | OpenFOAM: The Open Source CFD Toolbox
   \\    /   O peration     | Website:  https://openfoam.org
    \\  /    A nd           | Version:  10
     \\/     M anipulation  |
\*---------------------------------------------------------------------------*/
FoamFile
{
    format      ascii;
    class       volScalarField;
    location    "233";
    object      T;
}
// * * * * * * * * * * * * * * * * * * * * * * * * * * * * * * * * * * * * * //

dimensions      [0 0 0 1 0 0 0];

internalField   nonuniform List<scalar> 
11250
(
249.772
167.347
139.016
126.474
119.586
115.189
112.099
109.79
107.994
106.558
105.39
104.429
103.633
102.971
102.42
101.962
101.583
101.269
101.011
100.801
100.63
100.492
100.382
100.294
100.224
100.17
100.128
100.096
100.071
100.052
100.038
100.027
100.02
100.014
100.01
100.007
100.005
100.003
100.002
100.002
100.001
100.001
100
100
100
100
100
100
100
100
100
100
100
100
100
100
100
100
100
100
100
100
100
100
100
100
100
100
100
100
100
100
100
100
100
331.288
247.959
201.278
173.8
156.303
144.302
135.563
128.907
123.673
119.46
116.018
113.177
110.817
108.851
107.214
105.851
104.721
103.787
103.019
102.391
101.881
101.469
101.14
100.877
100.67
100.508
100.383
100.286
100.212
100.156
100.113
100.082
100.059
100.042
100.03
100.021
100.014
100.01
100.007
100.005
100.003
100.002
100.001
100.001
100.001
100
100
100
100
100
100
100
100
100
100
100
100
100
100
100
100
100
100
100
100
100
100
100
100
100
100
100
100
100
100
358.723
291.96
244.401
211.23
187.63
170.277
157.081
146.754
138.486
131.754
126.207
121.601
117.76
114.551
111.87
109.636
107.779
106.243
104.98
103.946
103.105
102.426
101.882
101.45
101.108
100.84
100.632
100.472
100.35
100.257
100.187
100.136
100.097
100.069
100.049
100.034
100.024
100.016
100.011
100.008
100.005
100.003
100.002
100.001
100.001
100.001
100
100
100
100
100
100
100
100
100
100
100
100
100
100
100
100
100
100
100
100
100
100
100
100
100
100
100
100
100
370.39
316.823
273.24
239.232
212.889
192.299
175.96
162.789
152.024
143.129
135.723
129.526
124.327
119.965
116.31
113.254
110.711
108.603
106.866
105.443
104.286
103.35
102.6
102.003
101.531
101.162
100.875
100.653
100.484
100.356
100.259
100.188
100.135
100.096
100.068
100.047
100.033
100.023
100.015
100.01
100.007
100.005
100.003
100.002
100.001
100.001
100.001
100
100
100
100
100
100
100
100
100
100
100
100
100
100
100
100
100
100
100
100
100
100
100
100
100
100
100
100
376.432
331.791
292.652
259.766
232.64
210.356
191.991
176.762
164.052
153.386
144.401
136.817
130.413
125.011
120.466
116.656
113.475
110.834
108.654
106.865
105.409
104.231
103.285
102.531
101.936
101.469
101.106
100.827
100.613
100.45
100.328
100.238
100.17
100.121
100.086
100.06
100.042
100.029
100.02
100.013
100.009
100.006
100.004
100.003
100.002
100.001
100.001
100
100
100
100
100
100
100
100
100
100
100
100
100
100
100
100
100
100
100
100
100
100
100
100
100
100
100
100
380.019
341.37
305.994
274.793
247.86
224.858
205.29
188.653
174.493
162.43
152.15
143.393
135.946
129.63
124.292
119.8
116.04
112.911
110.323
108.197
106.462
105.058
103.929
103.029
102.318
101.76
101.326
100.991
100.734
100.54
100.394
100.285
100.205
100.146
100.103
100.072
100.05
100.034
100.024
100.016
100.011
100.007
100.005
100.003
100.002
100.001
100.001
100.001
100
100
100
100
100
100
100
100
100
100
100
100
100
100
100
100
100
100
100
100
100
100
100
100
100
100
100
382.341
347.811
315.384
285.854
259.524
236.361
216.147
198.59
183.389
170.258
158.942
149.219
140.891
133.787
127.756
122.663
118.386
114.817
111.859
109.425
107.437
105.825
104.528
103.493
102.674
102.031
101.53
101.144
100.848
100.624
100.455
100.33
100.237
100.168
100.119
100.083
100.058
100.04
100.027
100.018
100.012
100.008
100.005
100.004
100.002
100.001
100.001
100.001
100
100
100
100
100
100
100
100
100
100
100
100
100
100
100
100
100
100
100
100
100
100
100
100
100
100
100
383.928
352.307
322.135
294.066
268.457
245.421
224.91
206.783
190.854
176.926
164.802
154.297
145.24
137.472
130.846
125.229
120.499
116.541
113.254
110.544
108.327
106.526
105.077
103.919
103.001
102.281
101.719
101.286
100.954
100.702
100.512
100.371
100.266
100.19
100.134
100.094
100.065
100.045
100.031
100.021
100.014
100.009
100.006
100.004
100.003
100.002
100.001
100.001
100
100
100
100
100
100
100
100
100
100
100
100
100
100
100
100
100
100
100
100
100
100
100
100
100
100
100
385.052
355.532
327.075
300.216
275.307
252.528
231.928
213.465
197.042
182.53
169.786
158.662
149.011
140.69
133.563
127.499
122.377
118.08
114.504
111.55
109.129
107.161
105.574
104.305
103.299
102.508
101.892
101.415
101.05
100.773
100.564
100.409
100.293
100.209
100.148
100.103
100.072
100.05
100.034
100.023
100.015
100.01
100.007
100.004
100.003
100.002
100.001
100.001
100
100
100
100
100
100
100
100
100
100
100
100
100
100
100
100
100
100
100
100
100
100
100
100
100
100
100
385.868
357.892
330.739
304.856
280.571
258.09
237.515
218.87
202.119
187.187
173.974
162.365
152.238
143.465
135.921
129.48
124.024
119.436
115.609
112.442
109.843
107.727
106.019
104.652
103.567
102.713
102.047
101.532
101.137
100.837
100.612
100.443
100.318
100.227
100.16
100.112
100.078
100.054
100.037
100.025
100.017
100.011
100.007
100.005
100.003
100.002
100.001
100.001
100.001
100
100
100
100
100
100
100
100
100
100
100
100
100
100
100
100
100
100
100
100
100
100
100
100
100
100
386.471
359.642
333.485
308.378
284.623
262.434
241.943
223.212
206.248
191.017
177.454
165.471
154.966
145.828
137.941
131.188
125.45
120.616
116.574
113.224
110.471
108.226
106.412
104.959
103.804
102.895
102.185
101.636
101.215
100.895
100.654
100.474
100.34
100.243
100.171
100.12
100.083
100.058
100.039
100.027
100.018
100.012
100.008
100.005
100.003
100.002
100.001
100.001
100.001
100
100
100
100
100
100
100
100
100
100
100
100
100
100
100
100
100
100
100
100
100
100
100
100
100
100
386.92
360.954
335.557
311.062
287.747
265.823
245.437
226.678
209.581
194.141
180.318
168.048
157.247
147.818
139.653
132.642
126.672
121.63
117.408
113.902
111.016
108.661
106.756
105.228
104.013
103.055
102.307
101.728
101.284
100.946
100.691
100.501
100.36
100.257
100.181
100.127
100.088
100.061
100.042
100.028
100.019
100.013
100.008
100.005
100.004
100.002
100.001
100.001
100.001
100
100
100
100
100
100
100
100
100
100
100
100
100
100
100
100
100
100
100
100
100
100
100
100
100
100
387.258
361.944
337.129
313.113
290.154
268.46
248.185
229.43
212.253
196.667
182.654
170.167
159.136
149.475
141.088
133.867
127.705
122.492
118.119
114.482
111.485
109.036
107.053
105.46
104.194
103.194
102.414
101.809
101.344
100.991
100.724
100.525
100.377
100.269
100.19
100.133
100.093
100.064
100.044
100.03
100.02
100.013
100.009
100.006
100.004
100.002
100.002
100.001
100.001
100
100
100
100
100
100
100
100
100
100
100
100
100
100
100
100
100
100
100
100
100
100
100
100
100
100
387.514
362.693
338.324
314.682
292.01
270.509
250.337
231.604
214.38
198.694
184.543
171.892
160.684
150.842
142.277
134.888
128.571
123.217
118.719
114.974
111.883
109.355
107.306
105.66
104.349
103.314
102.505
101.878
101.396
101.029
100.753
100.546
100.393
100.28
100.198
100.139
100.097
100.067
100.046
100.031
100.021
100.014
100.009
100.006
100.004
100.003
100.002
100.001
100.001
100
100
100
100
100
100
100
100
100
100
100
100
100
100
100
100
100
100
100
100
100
100
100
100
100
100
387.707
363.262
339.235
315.883
293.439
272.097
252.016
233.312
216.064
200.31
186.058
173.285
161.941
151.958
143.253
135.731
129.288
123.82
119.22
115.386
112.218
109.625
107.521
105.829
104.481
103.416
102.583
101.937
101.441
101.063
100.777
100.564
100.405
100.289
100.205
100.143
100.1
100.069
100.047
100.032
100.021
100.014
100.009
100.006
100.004
100.003
100.002
100.001
100.001
100
100
100
100
100
100
100
100
100
100
100
100
100
100
100
100
100
100
100
100
100
100
100
100
100
100
387.854
363.694
339.928
316.802
294.536
273.323
253.32
234.647
217.388
201.589
187.265
174.4
162.953
152.862
144.047
136.419
129.876
124.316
119.634
115.727
112.496
109.849
107.7
105.97
104.591
103.502
102.649
101.987
101.478
101.091
100.798
100.579
100.416
100.297
100.21
100.147
100.103
100.071
100.048
100.033
100.022
100.015
100.01
100.006
100.004
100.003
100.002
100.001
100.001
100
100
100
100
100
100
100
100
100
100
100
100
100
100
100
100
100
100
100
100
100
100
100
100
100
100
387.965
364.022
340.456
317.502
295.376
274.267
254.329
235.686
218.423
202.594
188.219
175.286
163.761
153.587
144.687
136.975
130.354
124.721
119.973
116.007
112.726
110.035
107.848
106.088
104.684
103.573
102.704
102.029
101.51
101.114
100.815
100.592
100.426
100.304
100.215
100.151
100.105
100.072
100.05
100.034
100.023
100.015
100.01
100.007
100.004
100.003
100.002
100.001
100.001
100
100
100
100
100
100
100
100
100
100
100
100
100
100
100
100
100
100
100
100
100
100
100
100
100
100
388.049
364.271
340.856
318.036
296.018
274.99
255.106
236.489
219.228
203.38
188.967
175.984
164.401
154.163
145.198
137.421
130.738
125.048
120.247
116.235
112.912
110.186
107.97
106.184
104.759
103.632
102.749
102.064
101.536
101.134
100.83
100.602
100.433
100.309
100.219
100.154
100.107
100.074
100.05
100.034
100.023
100.015
100.01
100.007
100.004
100.003
100.002
100.001
100.001
100
100
100
100
100
100
100
100
100
100
100
100
100
100
100
100
100
100
100
100
100
100
100
100
100
100
388.113
364.458
341.159
318.44
296.507
275.542
255.701
237.107
219.85
203.988
189.55
176.531
164.904
154.617
145.602
137.776
131.045
125.309
120.467
116.418
113.063
110.308
108.068
106.263
104.821
103.68
102.786
102.092
101.557
101.15
100.842
100.611
100.44
100.314
100.222
100.156
100.109
100.075
100.051
100.035
100.023
100.016
100.01
100.007
100.004
100.003
100.002
100.001
100.001
100
100
100
100
100
100
100
100
100
100
100
100
100
100
100
100
100
100
100
100
100
100
100
100
100
100
388.161
364.6
341.388
318.746
296.877
275.962
256.155
237.579
220.327
204.458
190
176.955
165.295
154.972
145.92
138.055
131.287
125.516
120.642
116.564
113.183
110.407
108.147
106.326
104.871
103.719
102.816
102.115
101.575
101.163
100.851
100.618
100.445
100.318
100.225
100.158
100.11
100.076
100.052
100.035
100.024
100.016
100.01
100.007
100.004
100.003
100.002
100.001
100.001
100
100
100
100
100
100
100
100
100
100
100
100
100
100
100
100
100
100
100
100
100
100
100
100
100
100
388.197
364.706
341.56
318.976
297.156
276.279
256.499
237.938
220.691
204.817
190.346
177.282
165.598
155.248
146.167
138.273
131.476
125.679
120.78
116.679
113.278
110.484
108.21
106.376
104.91
103.75
102.84
102.133
101.589
101.173
100.859
100.624
100.449
100.321
100.227
100.159
100.111
100.077
100.052
100.036
100.024
100.016
100.011
100.007
100.005
100.003
100.002
100.001
100.001
100
100
100
100
100
100
100
100
100
100
100
100
100
100
100
100
100
100
100
100
100
100
100
100
100
100
388.224
364.785
341.688
319.148
297.365
276.518
256.758
238.21
220.966
205.089
190.61
177.531
165.83
155.46
146.357
138.442
131.623
125.805
120.888
116.769
113.353
110.545
108.259
106.415
104.942
103.775
102.859
102.148
101.6
101.182
100.865
100.628
100.453
100.323
100.229
100.161
100.112
100.077
100.053
100.036
100.024
100.016
100.011
100.007
100.005
100.003
100.002
100.001
100.001
100
100
100
100
100
100
100
100
100
100
100
100
100
100
100
100
100
100
100
100
100
100
100
100
100
100
388.243
364.844
341.784
319.276
297.521
276.696
256.952
238.414
221.174
205.295
190.81
177.721
166.007
155.622
146.503
138.571
131.736
125.903
120.971
116.839
113.411
110.593
108.298
106.446
104.966
103.794
102.874
102.159
101.609
101.188
100.87
100.632
100.455
100.325
100.23
100.162
100.113
100.078
100.053
100.036
100.024
100.016
100.011
100.007
100.005
100.003
100.002
100.001
100.001
100
100
100
100
100
100
100
100
100
100
100
100
100
100
100
100
100
100
100
100
100
100
100
100
100
100
388.258
364.888
341.854
319.372
297.637
276.828
257.097
238.566
221.329
205.45
190.96
177.864
166.14
155.745
146.614
138.669
131.823
125.978
121.034
116.893
113.456
110.63
108.328
106.47
104.985
103.809
102.886
102.168
101.615
101.193
100.874
100.635
100.457
100.327
100.231
100.162
100.113
100.078
100.053
100.036
100.024
100.016
100.011
100.007
100.005
100.003
100.002
100.001
100.001
100
100
100
100
100
100
100
100
100
100
100
100
100
100
100
100
100
100
100
100
100
100
100
100
100
100
388.269
364.92
341.907
319.442
297.723
276.926
257.204
238.679
221.445
205.565
191.072
177.971
166.24
155.837
146.697
138.744
131.888
126.034
121.083
116.934
113.49
110.658
108.351
106.489
105
103.821
102.895
102.175
101.621
101.197
100.877
100.637
100.459
100.328
100.232
100.163
100.113
100.078
100.054
100.036
100.025
100.016
100.011
100.007
100.005
100.003
100.002
100.001
100.001
100
100
100
100
100
100
100
100
100
100
100
100
100
100
100
100
100
100
100
100
100
100
100
100
100
100
388.277
364.943
341.945
319.493
297.785
276.998
257.282
238.762
221.53
205.65
191.155
178.05
166.315
155.905
146.759
138.799
131.937
126.077
121.119
116.965
113.516
110.679
108.368
106.503
105.011
103.829
102.902
102.181
101.625
101.2
100.879
100.639
100.46
100.329
100.233
100.163
100.114
100.079
100.054
100.037
100.025
100.016
100.011
100.007
100.005
100.003
100.002
100.001
100.001
100
100
100
100
100
100
100
100
100
100
100
100
100
100
100
100
100
100
100
100
100
100
100
100
100
100
388.283
364.96
341.972
319.53
297.831
277.05
257.34
238.822
221.592
205.712
191.216
178.109
166.37
155.956
146.806
138.841
131.974
126.109
121.146
116.988
113.535
110.695
108.381
106.513
105.02
103.836
102.907
102.185
101.628
101.203
100.881
100.64
100.461
100.329
100.233
100.164
100.114
100.079
100.054
100.037
100.025
100.016
100.011
100.007
100.005
100.003
100.002
100.001
100.001
100
100
100
100
100
100
100
100
100
100
100
100
100
100
100
100
100
100
100
100
100
100
100
100
100
100
388.287
364.973
341.992
319.557
297.864
277.088
257.381
238.866
221.637
205.757
191.26
178.151
166.41
155.993
146.839
138.871
132
126.132
121.167
117.005
113.549
110.707
108.391
106.521
105.026
103.841
102.911
102.188
101.63
101.205
100.883
100.641
100.462
100.33
100.234
100.164
100.114
100.079
100.054
100.037
100.025
100.016
100.011
100.007
100.005
100.003
100.002
100.001
100.001
100
100
100
100
100
100
100
100
100
100
100
100
100
100
100
100
100
100
100
100
100
100
100
100
100
100
388.29
364.982
342.007
319.577
297.888
277.116
257.411
238.898
221.67
205.79
191.293
178.182
166.439
156.02
146.864
138.893
132.02
126.149
121.181
117.017
113.56
110.716
108.398
106.527
105.031
103.845
102.914
102.19
101.632
101.206
100.884
100.642
100.462
100.33
100.234
100.164
100.114
100.079
100.054
100.037
100.025
100.016
100.011
100.007
100.005
100.003
100.002
100.001
100.001
100
100
100
100
100
100
100
100
100
100
100
100
100
100
100
100
100
100
100
100
100
100
100
100
100
100
388.292
364.988
342.017
319.59
297.905
277.135
257.433
238.921
221.694
205.814
191.316
178.205
166.46
156.04
146.882
138.909
132.034
126.162
121.192
117.027
113.568
110.722
108.403
106.531
105.034
103.848
102.916
102.192
101.633
101.207
100.884
100.642
100.463
100.331
100.234
100.164
100.115
100.079
100.054
100.037
100.025
100.017
100.011
100.007
100.005
100.003
100.002
100.001
100.001
100
100
100
100
100
100
100
100
100
100
100
100
100
100
100
100
100
100
100
100
100
100
100
100
100
100
388.293
364.992
342.024
319.6
297.917
277.149
257.448
238.937
221.71
205.831
191.332
178.22
166.475
156.054
146.895
138.921
132.045
126.171
121.2
117.033
113.573
110.727
108.407
106.534
105.037
103.85
102.918
102.193
101.634
101.208
100.885
100.643
100.463
100.331
100.234
100.165
100.115
100.079
100.054
100.037
100.025
100.017
100.011
100.007
100.005
100.003
100.002
100.001
100.001
100
100
100
100
100
100
100
100
100
100
100
100
100
100
100
100
100
100
100
100
100
100
100
100
100
100
388.294
364.996
342.029
319.607
297.925
277.159
257.459
238.949
221.722
205.843
191.344
178.232
166.486
156.064
146.904
138.929
132.052
126.177
121.205
117.038
113.577
110.73
108.41
106.537
105.038
103.851
102.919
102.194
101.635
101.208
100.885
100.643
100.463
100.331
100.234
100.165
100.115
100.079
100.054
100.037
100.025
100.017
100.011
100.007
100.005
100.003
100.002
100.001
100.001
100
100
100
100
100
100
100
100
100
100
100
100
100
100
100
100
100
100
100
100
100
100
100
100
100
100
388.295
364.998
342.033
319.612
297.931
277.165
257.466
238.957
221.73
205.851
191.352
178.24
166.494
156.071
146.91
138.935
132.057
126.182
121.209
117.041
113.58
110.733
108.412
106.538
105.04
103.852
102.92
102.194
101.635
101.208
100.885
100.643
100.463
100.331
100.234
100.165
100.115
100.079
100.054
100.037
100.025
100.017
100.011
100.007
100.005
100.003
100.002
100.001
100.001
100
100
100
100
100
100
100
100
100
100
100
100
100
100
100
100
100
100
100
100
100
100
100
100
100
100
388.296
364.999
342.035
319.615
297.935
277.17
257.471
238.962
221.736
205.857
191.358
178.245
166.499
156.076
146.915
138.939
132.061
126.185
121.212
117.044
113.582
110.734
108.413
106.539
105.04
103.853
102.92
102.195
101.636
101.209
100.886
100.643
100.464
100.331
100.235
100.165
100.115
100.079
100.054
100.037
100.025
100.017
100.011
100.007
100.005
100.003
100.002
100.001
100.001
100
100
100
100
100
100
100
100
100
100
100
100
100
100
100
100
100
100
100
100
100
100
100
100
100
100
388.296
365
342.037
319.618
297.938
277.173
257.475
238.966
221.74
205.861
191.362
178.249
166.502
156.079
146.918
138.942
132.063
126.187
121.214
117.045
113.583
110.735
108.414
106.54
105.041
103.853
102.921
102.195
101.636
101.209
100.886
100.644
100.464
100.331
100.235
100.165
100.115
100.079
100.054
100.037
100.025
100.017
100.011
100.007
100.005
100.003
100.002
100.001
100.001
100
100
100
100
100
100
100
100
100
100
100
100
100
100
100
100
100
100
100
100
100
100
100
100
100
100
388.296
365.001
342.038
319.619
297.94
277.176
257.478
238.969
221.743
205.863
191.365
178.252
166.505
156.082
146.92
138.944
132.065
126.189
121.215
117.046
113.584
110.736
108.415
106.541
105.042
103.854
102.921
102.195
101.636
101.209
100.886
100.644
100.464
100.331
100.235
100.165
100.115
100.079
100.054
100.037
100.025
100.017
100.011
100.007
100.005
100.003
100.002
100.001
100.001
100
100
100
100
100
100
100
100
100
100
100
100
100
100
100
100
100
100
100
100
100
100
100
100
100
100
388.297
365.001
342.039
319.62
297.941
277.177
257.479
238.97
221.745
205.865
191.366
178.254
166.507
156.083
146.922
138.945
132.066
126.19
121.216
117.047
113.585
110.737
108.415
106.541
105.042
103.854
102.921
102.195
101.636
101.209
100.886
100.644
100.464
100.331
100.235
100.165
100.115
100.079
100.054
100.037
100.025
100.017
100.011
100.007
100.005
100.003
100.002
100.001
100.001
100
100
100
100
100
100
100
100
100
100
100
100
100
100
100
100
100
100
100
100
100
100
100
100
100
100
388.297
365.002
342.04
319.621
297.942
277.178
257.48
238.972
221.746
205.867
191.368
178.255
166.508
156.084
146.923
138.946
132.067
126.19
121.217
117.048
113.586
110.737
108.416
106.541
105.042
103.854
102.921
102.195
101.636
101.209
100.886
100.644
100.464
100.331
100.235
100.165
100.115
100.079
100.054
100.037
100.025
100.017
100.011
100.007
100.005
100.003
100.002
100.001
100.001
100
100
100
100
100
100
100
100
100
100
100
100
100
100
100
100
100
100
100
100
100
100
100
100
100
100
388.297
365.002
342.04
319.621
297.943
277.179
257.481
238.972
221.747
205.867
191.368
178.256
166.509
156.085
146.923
138.947
132.068
126.191
121.217
117.048
113.586
110.737
108.416
106.542
105.042
103.854
102.921
102.196
101.636
101.209
100.886
100.644
100.464
100.331
100.235
100.165
100.115
100.079
100.054
100.037
100.025
100.017
100.011
100.007
100.005
100.003
100.002
100.001
100.001
100
100
100
100
100
100
100
100
100
100
100
100
100
100
100
100
100
100
100
100
100
100
100
100
100
100
388.297
365.002
342.04
319.622
297.943
277.179
257.482
238.973
221.747
205.868
191.369
178.256
166.509
156.086
146.924
138.947
132.068
126.191
121.218
117.048
113.586
110.738
108.416
106.542
105.042
103.854
102.921
102.196
101.636
101.209
100.886
100.644
100.464
100.331
100.235
100.165
100.115
100.079
100.054
100.037
100.025
100.017
100.011
100.007
100.005
100.003
100.002
100.001
100.001
100
100
100
100
100
100
100
100
100
100
100
100
100
100
100
100
100
100
100
100
100
100
100
100
100
100
388.297
365.002
342.04
319.622
297.943
277.18
257.482
238.973
221.748
205.868
191.369
178.256
166.509
156.086
146.924
138.947
132.068
126.191
121.218
117.049
113.586
110.738
108.416
106.542
105.042
103.854
102.921
102.196
101.636
101.209
100.886
100.644
100.464
100.331
100.235
100.165
100.115
100.079
100.054
100.037
100.025
100.017
100.011
100.007
100.005
100.003
100.002
100.001
100.001
100
100
100
100
100
100
100
100
100
100
100
100
100
100
100
100
100
100
100
100
100
100
100
100
100
100
388.297
365.002
342.04
319.622
297.943
277.18
257.482
238.974
221.748
205.869
191.37
178.257
166.51
156.086
146.924
138.948
132.068
126.191
121.218
117.049
113.586
110.738
108.416
106.542
105.042
103.854
102.921
102.196
101.636
101.209
100.886
100.644
100.464
100.331
100.235
100.165
100.115
100.079
100.054
100.037
100.025
100.017
100.011
100.007
100.005
100.003
100.002
100.001
100.001
100
100
100
100
100
100
100
100
100
100
100
100
100
100
100
100
100
100
100
100
100
100
100
100
100
100
388.297
365.002
342.04
319.622
297.944
277.18
257.482
238.974
221.748
205.869
191.37
178.257
166.51
156.086
146.924
138.948
132.069
126.192
121.218
117.049
113.586
110.738
108.416
106.542
105.042
103.854
102.921
102.196
101.636
101.209
100.886
100.644
100.464
100.331
100.235
100.165
100.115
100.079
100.054
100.037
100.025
100.017
100.011
100.007
100.005
100.003
100.002
100.001
100.001
100
100
100
100
100
100
100
100
100
100
100
100
100
100
100
100
100
100
100
100
100
100
100
100
100
100
388.297
365.002
342.04
319.622
297.944
277.18
257.482
238.974
221.748
205.869
191.37
178.257
166.51
156.086
146.925
138.948
132.069
126.192
121.218
117.049
113.586
110.738
108.416
106.542
105.042
103.854
102.921
102.196
101.636
101.209
100.886
100.644
100.464
100.331
100.235
100.165
100.115
100.079
100.054
100.037
100.025
100.017
100.011
100.007
100.005
100.003
100.002
100.001
100.001
100
100
100
100
100
100
100
100
100
100
100
100
100
100
100
100
100
100
100
100
100
100
100
100
100
100
388.297
365.002
342.04
319.622
297.944
277.18
257.482
238.974
221.748
205.869
191.37
178.257
166.51
156.086
146.925
138.948
132.069
126.192
121.218
117.049
113.586
110.738
108.416
106.542
105.042
103.854
102.921
102.196
101.636
101.209
100.886
100.644
100.464
100.331
100.235
100.165
100.115
100.079
100.054
100.037
100.025
100.017
100.011
100.007
100.005
100.003
100.002
100.001
100.001
100
100
100
100
100
100
100
100
100
100
100
100
100
100
100
100
100
100
100
100
100
100
100
100
100
100
388.297
365.002
342.041
319.622
297.944
277.18
257.482
238.974
221.748
205.869
191.37
178.257
166.51
156.086
146.925
138.948
132.069
126.192
121.218
117.049
113.586
110.738
108.416
106.542
105.042
103.854
102.921
102.196
101.636
101.209
100.886
100.644
100.464
100.331
100.235
100.165
100.115
100.079
100.054
100.037
100.025
100.017
100.011
100.007
100.005
100.003
100.002
100.001
100.001
100
100
100
100
100
100
100
100
100
100
100
100
100
100
100
100
100
100
100
100
100
100
100
100
100
100
388.297
365.002
342.041
319.622
297.944
277.18
257.482
238.974
221.748
205.869
191.37
178.257
166.51
156.086
146.925
138.948
132.069
126.192
121.218
117.049
113.586
110.738
108.416
106.542
105.043
103.854
102.921
102.196
101.636
101.209
100.886
100.644
100.464
100.331
100.235
100.165
100.115
100.079
100.054
100.037
100.025
100.017
100.011
100.007
100.005
100.003
100.002
100.001
100.001
100
100
100
100
100
100
100
100
100
100
100
100
100
100
100
100
100
100
100
100
100
100
100
100
100
100
388.297
365.002
342.041
319.622
297.944
277.18
257.483
238.974
221.748
205.869
191.37
178.257
166.51
156.086
146.925
138.948
132.069
126.192
121.218
117.049
113.586
110.738
108.416
106.542
105.043
103.854
102.921
102.196
101.636
101.209
100.886
100.644
100.464
100.331
100.235
100.165
100.115
100.079
100.054
100.037
100.025
100.017
100.011
100.007
100.005
100.003
100.002
100.001
100.001
100
100
100
100
100
100
100
100
100
100
100
100
100
100
100
100
100
100
100
100
100
100
100
100
100
100
388.297
365.002
342.041
319.622
297.944
277.18
257.483
238.974
221.748
205.869
191.37
178.257
166.51
156.086
146.925
138.948
132.069
126.192
121.218
117.049
113.586
110.738
108.416
106.542
105.043
103.854
102.921
102.196
101.636
101.209
100.886
100.644
100.464
100.331
100.235
100.165
100.115
100.079
100.054
100.037
100.025
100.017
100.011
100.007
100.005
100.003
100.002
100.001
100.001
100
100
100
100
100
100
100
100
100
100
100
100
100
100
100
100
100
100
100
100
100
100
100
100
100
100
388.297
365.002
342.041
319.622
297.944
277.18
257.483
238.974
221.748
205.869
191.37
178.257
166.51
156.086
146.925
138.948
132.069
126.192
121.218
117.049
113.586
110.738
108.416
106.542
105.043
103.854
102.921
102.196
101.636
101.209
100.886
100.644
100.464
100.331
100.235
100.165
100.115
100.079
100.054
100.037
100.025
100.017
100.011
100.007
100.005
100.003
100.002
100.001
100.001
100
100
100
100
100
100
100
100
100
100
100
100
100
100
100
100
100
100
100
100
100
100
100
100
100
100
388.297
365.002
342.041
319.622
297.944
277.18
257.483
238.974
221.748
205.869
191.37
178.257
166.51
156.086
146.925
138.948
132.069
126.192
121.218
117.049
113.586
110.738
108.416
106.542
105.043
103.854
102.921
102.196
101.636
101.209
100.886
100.644
100.464
100.331
100.235
100.165
100.115
100.079
100.054
100.037
100.025
100.017
100.011
100.007
100.005
100.003
100.002
100.001
100.001
100
100
100
100
100
100
100
100
100
100
100
100
100
100
100
100
100
100
100
100
100
100
100
100
100
100
388.297
365.002
342.041
319.622
297.944
277.18
257.483
238.974
221.748
205.869
191.37
178.257
166.51
156.086
146.925
138.948
132.069
126.192
121.218
117.049
113.586
110.738
108.416
106.542
105.043
103.854
102.921
102.196
101.636
101.209
100.886
100.644
100.464
100.331
100.235
100.165
100.115
100.079
100.054
100.037
100.025
100.017
100.011
100.007
100.005
100.003
100.002
100.001
100.001
100
100
100
100
100
100
100
100
100
100
100
100
100
100
100
100
100
100
100
100
100
100
100
100
100
100
388.297
365.002
342.041
319.622
297.944
277.18
257.483
238.974
221.748
205.869
191.37
178.257
166.51
156.086
146.925
138.948
132.069
126.192
121.218
117.049
113.586
110.738
108.416
106.542
105.043
103.854
102.921
102.196
101.636
101.209
100.886
100.644
100.464
100.331
100.235
100.165
100.115
100.079
100.054
100.037
100.025
100.017
100.011
100.007
100.005
100.003
100.002
100.001
100.001
100
100
100
100
100
100
100
100
100
100
100
100
100
100
100
100
100
100
100
100
100
100
100
100
100
100
388.297
365.002
342.041
319.622
297.944
277.18
257.483
238.974
221.748
205.869
191.37
178.257
166.51
156.086
146.925
138.948
132.069
126.192
121.218
117.049
113.586
110.738
108.416
106.542
105.043
103.854
102.921
102.196
101.636
101.209
100.886
100.644
100.464
100.331
100.235
100.165
100.115
100.079
100.054
100.037
100.025
100.017
100.011
100.007
100.005
100.003
100.002
100.001
100.001
100
100
100
100
100
100
100
100
100
100
100
100
100
100
100
100
100
100
100
100
100
100
100
100
100
100
388.297
365.002
342.041
319.622
297.944
277.18
257.483
238.974
221.748
205.869
191.37
178.257
166.51
156.086
146.925
138.948
132.069
126.192
121.218
117.049
113.586
110.738
108.416
106.542
105.043
103.854
102.921
102.196
101.636
101.209
100.886
100.644
100.464
100.331
100.235
100.165
100.115
100.079
100.054
100.037
100.025
100.017
100.011
100.007
100.005
100.003
100.002
100.001
100.001
100
100
100
100
100
100
100
100
100
100
100
100
100
100
100
100
100
100
100
100
100
100
100
100
100
100
388.297
365.002
342.041
319.622
297.944
277.18
257.483
238.974
221.748
205.869
191.37
178.257
166.51
156.086
146.925
138.948
132.069
126.192
121.218
117.049
113.586
110.738
108.416
106.542
105.043
103.854
102.921
102.196
101.636
101.209
100.886
100.644
100.464
100.331
100.235
100.165
100.115
100.079
100.054
100.037
100.025
100.017
100.011
100.007
100.005
100.003
100.002
100.001
100.001
100
100
100
100
100
100
100
100
100
100
100
100
100
100
100
100
100
100
100
100
100
100
100
100
100
100
388.297
365.002
342.041
319.622
297.944
277.18
257.483
238.974
221.748
205.869
191.37
178.257
166.51
156.086
146.925
138.948
132.069
126.192
121.218
117.049
113.586
110.738
108.416
106.542
105.043
103.854
102.921
102.196
101.636
101.209
100.886
100.644
100.464
100.331
100.235
100.165
100.115
100.079
100.054
100.037
100.025
100.017
100.011
100.007
100.005
100.003
100.002
100.001
100.001
100
100
100
100
100
100
100
100
100
100
100
100
100
100
100
100
100
100
100
100
100
100
100
100
100
100
388.297
365.002
342.041
319.622
297.944
277.18
257.483
238.974
221.748
205.869
191.37
178.257
166.51
156.086
146.925
138.948
132.069
126.192
121.218
117.049
113.586
110.738
108.416
106.542
105.043
103.854
102.921
102.196
101.636
101.209
100.886
100.644
100.464
100.331
100.235
100.165
100.115
100.079
100.054
100.037
100.025
100.017
100.011
100.007
100.005
100.003
100.002
100.001
100.001
100
100
100
100
100
100
100
100
100
100
100
100
100
100
100
100
100
100
100
100
100
100
100
100
100
100
388.297
365.002
342.041
319.622
297.944
277.18
257.483
238.974
221.748
205.869
191.37
178.257
166.51
156.086
146.925
138.948
132.069
126.192
121.218
117.049
113.586
110.738
108.416
106.542
105.043
103.854
102.921
102.196
101.636
101.209
100.886
100.644
100.464
100.331
100.235
100.165
100.115
100.079
100.054
100.037
100.025
100.017
100.011
100.007
100.005
100.003
100.002
100.001
100.001
100
100
100
100
100
100
100
100
100
100
100
100
100
100
100
100
100
100
100
100
100
100
100
100
100
100
388.297
365.002
342.041
319.622
297.944
277.18
257.483
238.974
221.748
205.869
191.37
178.257
166.51
156.086
146.925
138.948
132.069
126.192
121.218
117.049
113.586
110.738
108.416
106.542
105.043
103.854
102.921
102.196
101.636
101.209
100.886
100.644
100.464
100.331
100.235
100.165
100.115
100.079
100.054
100.037
100.025
100.017
100.011
100.007
100.005
100.003
100.002
100.001
100.001
100
100
100
100
100
100
100
100
100
100