/*--------------------------------*- C++ -*----------------------------------*\
  =========                 |
  \\      /  F ield         | OpenFOAM: The Open Source CFD Toolbox
   \\    /   O peration     | Website:  https://openfoam.org
    \\  /    A nd           | Version:  10
     \\/     M anipulation  |
\*---------------------------------------------------------------------------*/
FoamFile
{
    format      ascii;
    class       volScalarField;
    location    "410";
    object      T;
}
// * * * * * * * * * * * * * * * * * * * * * * * * * * * * * * * * * * * * * //

dimensions      [0 0 0 1 0 0 0];

internalField   nonuniform List<scalar> 
11250
(
249.87
167.64
139.498
127.135
120.41
116.159
113.195
110.99
109.275
107.897
106.764
105.816
105.012
104.323
103.73
103.217
102.77
102.382
102.043
101.749
101.493
101.27
101.077
100.911
100.767
100.644
100.538
100.448
100.372
100.307
100.252
100.207
100.169
100.137
100.111
100.089
100.071
100.057
100.045
100.036
100.028
100.022
100.017
100.013
100.01
100.008
100.006
100.005
100.003
100.003
100.002
100.001
100.001
100.001
100.001
100
100
100
100
100
100
100
100
100
100
100
100
100
100
100
100
100
100
100
100
331.583
248.838
202.722
175.776
158.768
147.204
138.842
132.498
127.506
123.467
120.128
117.325
114.942
112.898
111.135
109.605
108.275
107.117
106.107
105.228
104.463
103.798
103.222
102.724
102.295
101.926
101.61
101.341
101.112
100.919
100.756
100.619
100.505
100.41
100.331
100.266
100.213
100.17
100.135
100.107
100.084
100.066
100.051
100.04
100.031
100.024
100.018
100.014
100.01
100.008
100.006
100.004
100.003
100.002
100.002
100.001
100.001
100.001
100
100
100
100
100
100
100
100
100
100
100
100
100
100
100
100
100
359.213
293.419
246.795
214.507
191.72
175.09
162.52
152.709
144.843
138.398
133.024
128.481
124.602
121.263
118.373
115.862
113.675
111.767
110.102
108.651
107.388
106.289
105.337
104.513
103.802
103.192
102.669
102.223
101.844
101.523
101.253
101.026
100.837
100.68
100.549
100.442
100.354
100.282
100.224
100.177
100.139
100.109
100.085
100.066
100.051
100.039
100.03
100.023
100.017
100.013
100.01
100.007
100.005
100.004
100.003
100.002
100.002
100.001
100.001
100.001
100
100
100
100
100
100
100
100
100
100
100
100
100
100
100
371.07
318.85
276.568
243.786
218.571
198.989
183.518
171.065
160.859
152.362
145.196
139.087
133.836
129.294
125.348
121.908
118.905
116.28
113.986
111.984
110.239
108.72
107.402
106.261
105.277
104.431
103.706
103.087
102.561
102.116
101.741
101.426
101.163
100.945
100.764
100.615
100.492
100.393
100.312
100.246
100.194
100.152
100.118
100.092
100.071
100.054
100.041
100.032
100.024
100.018
100.014
100.01
100.007
100.006
100.004
100.003
100.002
100.002
100.001
100.001
100.001
100
100
100
100
100
100
100
100
100
100
100
100
100
100
377.299
334.371
296.888
265.565
239.875
218.873
201.614
187.298
175.3
165.142
156.463
148.991
142.521
136.89
131.975
127.675
123.909
120.61
117.722
115.196
112.99
111.07
109.401
107.955
106.707
105.633
104.713
103.927
103.259
102.693
102.216
101.816
101.481
101.203
100.973
100.783
100.627
100.5
100.397
100.314
100.247
100.193
100.151
100.117
100.09
100.069
100.053
100.04
100.03
100.023
100.017
100.013
100.01
100.007
100.005
100.004
100.003
100.002
100.001
100.001
100.001
100.001
100
100
100
100
100
100
100
100
100
100
100
100
100
381.066
344.485
311.109
281.794
256.595
235.141
216.909
201.375
188.076
176.626
166.715
158.095
150.568
143.976
138.191
133.109
128.643
124.719
121.276
118.259
115.62
113.319
111.318
109.582
108.082
106.791
105.684
104.737
103.932
103.251
102.675
102.192
101.789
101.453
101.175
100.946
100.758
100.605
100.48
100.379
100.298
100.234
100.182
100.141
100.109
100.084
100.064
100.049
100.037
100.028
100.021
100.016
100.012
100.009
100.006
100.005
100.003
100.002
100.002
100.001
100.001
100.001
100
100
100
100
100
100
100
100
100
100
100
100
100
383.56
351.44
321.342
294.009
269.7
248.34
229.682
213.411
199.212
186.796
175.911
166.347
157.926
150.502
143.951
138.17
133.071
128.577
124.624
121.152
118.111
115.454
113.14
111.131
109.394
107.897
106.611
105.513
104.578
103.785
103.116
102.554
102.084
101.694
101.37
101.103
100.884
100.705
100.56
100.443
100.348
100.273
100.212
100.165
100.127
100.098
100.075
100.057
100.043
100.032
100.024
100.018
100.013
100.01
100.007
100.005
100.004
100.003
100.002
100.001
100.001
100.001
100.001
100
100
100
100
100
100
100
100
100
100
100
100
385.311
356.425
328.896
303.321
280.004
259.015
240.271
223.603
208.813
195.696
184.061
173.739
164.577
156.445
149.23
142.834
137.17
132.164
127.747
123.859
120.447
117.461
114.857
112.594
110.634
108.944
107.491
106.249
105.191
104.293
103.536
102.899
102.366
101.923
101.556
101.253
101.004
100.801
100.636
100.503
100.396
100.31
100.242
100.187
100.145
100.111
100.085
100.065
100.049
100.037
100.028
100.021
100.015
100.011
100.008
100.006
100.004
100.003
100.002
100.002
100.001
100.001
100.001
100
100
100
100
100
100
100
100
100
100
100
100
386.591
360.113
334.595
310.511
288.152
267.65
249.015
232.177
217.02
203.411
191.213
180.292
170.525
161.801
154.019
147.089
140.929
135.466
130.633
126.37
122.62
119.333
116.462
113.964
111.797
109.927
108.319
106.943
105.769
104.773
103.932
103.225
102.633
102.14
101.732
101.395
101.118
100.893
100.709
100.561
100.441
100.345
100.269
100.209
100.161
100.124
100.095
100.072
100.055
100.041
100.031
100.023
100.017
100.013
100.009
100.007
100.005
100.004
100.003
100.002
100.001
100.001
100.001
100
100
100
100
100
100
100
100
100
100
100
100
387.553
362.906
338.972
316.127
294.634
274.646
256.224
239.358
223.994
210.051
197.436
186.051
175.798
166.585
158.325
150.936
144.345
138.48
133.278
128.678
124.624
121.064
117.95
115.236
112.88
110.845
109.092
107.591
106.311
105.223
104.305
103.532
102.884
102.345
101.898
101.529
101.226
100.979
100.778
100.615
100.484
100.379
100.296
100.229
100.177
100.136
100.104
100.079
100.06
100.045
100.034
100.025
100.019
100.014
100.01
100.007
100.005
100.004
100.003
100.002
100.001
100.001
100.001
100.001
100
100
100
100
100
100
100
100
100
100
100
388.291
365.062
342.382
320.558
299.821
280.328
262.162
245.354
229.891
215.731
202.815
191.074
180.434
170.822
162.162
154.385
147.423
141.209
135.682
130.783
126.457
122.652
119.318
116.409
113.881
111.693
109.809
108.194
106.814
105.643
104.652
103.817
103.119
102.536
102.053
101.655
101.327
101.06
100.842
100.666
100.524
100.411
100.32
100.248
100.192
100.147
100.113
100.086
100.065
100.049
100.037
100.027
100.02
100.015
100.011
100.008
100.006
100.004
100.003
100.002
100.002
100.001
100.001
100.001
100
100
100
100
100
100
100
100
100
100
100
388.866
366.748
345.069
324.083
303.994
284.952
267.054
250.352
234.86
220.565
207.436
195.426
184.483
174.547
165.558
157.454
150.174
143.658
137.848
132.687
128.121
124.098
120.567
117.482
114.798
112.473
110.469
108.749
107.279
106.03
104.973
104.082
103.336
102.714
102.198
101.772
101.421
101.135
100.902
100.714
100.562
100.44
100.343
100.266
100.206
100.158
100.121
100.092
100.07
100.053
100.039
100.029
100.022
100.016
100.012
100.009
100.006
100.005
100.003
100.002
100.002
100.001
100.001
100.001
100
100
100
100
100
100
100
100
100
100
100
389.319
368.081
347.205
326.907
307.367
288.726
271.086
254.511
239.035
224.664
211.387
199.177
187.996
177.801
168.541
160.164
152.616
145.842
139.787
134.398
129.621
125.404
121.698
118.456
115.633
113.184
111.072
109.257
107.705
106.385
105.268
104.326
103.537
102.878
102.331
101.879
101.508
101.205
100.958
100.758
100.597
100.467
100.365
100.283
100.219
100.168
100.129
100.098
100.074
100.056
100.042
100.031
100.023
100.017
100.013
100.009
100.007
100.005
100.004
100.003
100.002
100.001
100.001
100.001
100
100
100
100
100
100
100
100
100
100
100
389.68
369.144
348.916
329.181
310.102
291.811
274.409
257.969
242.534
228.127
214.75
202.392
191.028
180.625
171.145
162.542
154.769
147.775
141.511
135.923
130.962
126.576
122.716
119.335
116.387
113.829
111.619
109.719
108.093
106.71
105.537
104.549
103.72
103.028
102.453
101.978
101.588
101.269
101.009
100.798
100.629
100.493
100.384
100.298
100.231
100.177
100.136
100.103
100.078
100.059
100.044
100.033
100.025
100.018
100.013
100.01
100.007
100.005
100.004
100.003
100.002
100.001
100.001
100.001
100
100
100
100
100
100
100
100
100
100
100
389.969
369.997
350.292
331.02
312.327
294.337
277.149
260.84
245.46
231.043
217.601
205.135
193.63
183.064
173.405
164.615
156.654
149.475
143.032
137.274
132.154
127.62
123.626
120.123
117.065
114.408
112.111
110.136
108.444
107.003
105.782
104.751
103.887
103.165
102.565
102.069
101.661
101.327
101.055
100.835
100.658
100.516
100.402
100.312
100.241
100.186
100.142
100.108
100.082
100.062
100.046
100.035
100.026
100.019
100.014
100.01
100.007
100.005
100.004
100.003
100.002
100.001
100.001
100.001
100
100
100
100
100
100
100
100
100
100
100
390.201
370.684
351.405
332.512
314.14
296.407
279.408
263.221
247.903
233.492
220.011
207.466
195.854
185.158
175.355
166.413
158.295
150.961
144.366
138.463
133.206
128.545
124.433
120.823
117.669
114.926
112.553
110.51
108.759
107.267
106.002
104.934
104.037
103.288
102.665
102.151
101.727
101.38
101.098
100.869
100.685
100.537
100.419
100.325
100.251
100.193
100.148
100.113
100.085
100.064
100.048
100.036
100.027
100.02
100.015
100.011
100.008
100.006
100.004
100.003
100.002
100.001
100.001
100.001
100.001
100
100
100
100
100
100
100
100
100
100
390.389
371.239
352.306
333.725
315.621
298.104
281.269
265.194
249.937
235.543
222.039
209.439
197.745
186.948
177.029
167.963
159.716
152.252
145.529
139.503
134.129
129.358
125.145
121.442
118.204
115.385
112.945
110.843
109.041
107.503
106.199
105.098
104.172
103.399
102.756
102.224
101.786
101.428
101.136
100.9
100.709
100.556
100.434
100.337
100.26
100.2
100.153
100.117
100.089
100.067
100.05
100.037
100.028
100.021
100.015
100.011
100.008
100.006
100.004
100.003
100.002
100.002
100.001
100.001
100.001
100
100
100
100
100
100
100
100
100
100
390.541
371.69
353.038
334.712
316.83
299.496
282.802
266.826
251.628
237.256
223.741
211.102
199.347
188.471
178.459
169.292
160.939
153.367
146.537
140.407
134.934
130.07
125.769
121.986
118.675
115.791
113.292
111.138
109.29
107.713
106.374
105.243
104.293
103.498
102.837
102.29
101.84
101.471
101.171
100.927
100.731
100.573
100.447
100.347
100.269
100.207
100.158
100.12
100.091
100.069
100.052
100.039
100.029
100.021
100.016
100.011
100.008
100.006
100.004
100.003
100.002
100.002
100.001
100.001
100.001
100
100
100
100
100
100
100
100
100
100
390.664
372.055
353.633
335.517
317.817
300.637
284.063
268.174
253.031
238.683
225.165
212.5
200.698
189.76
179.675
170.426
161.986
154.325
147.406
141.189
135.631
130.687
126.313
122.461
119.087
116.147
113.597
111.397
109.51
107.898
106.529
105.372
104.4
103.586
102.909
102.349
101.887
101.509
101.201
100.951
100.75
100.588
100.459
100.357
100.276
100.212
100.162
100.124
100.094
100.071
100.053
100.04
100.03
100.022
100.016
100.012
100.009
100.006
100.004
100.003
100.002
100.002
100.001
100.001
100.001
100
100
100
100
100
100
100
100
100
100
390.764
372.352
354.117
336.172
318.624
301.571
285.1
269.285
254.192
239.868
226.352
213.67
201.834
190.847
180.704
171.389
162.878
155.144
148.151
141.861
136.232
131.221
126.783
122.873
119.446
116.456
113.863
111.625
109.702
108.061
106.665
105.486
104.494
103.664
102.973
102.401
101.929
101.543
101.228
100.973
100.767
100.602
100.47
100.365
100.282
100.217
100.166
100.127
100.096
100.072
100.054
100.041
100.03
100.022
100.016
100.012
100.009
100.006
100.005
100.003
100.002
100.002
100.001
100.001
100.001
100
100
100
100
100
100
100
100
100
100
390.845
372.593
354.511
336.706
319.283
302.336
285.95
270.2
255.15
240.85
227.339
214.645
202.784
191.761
181.571
172.203
163.635
155.84
148.786
142.435
136.747
131.68
127.189
123.229
119.756
116.725
114.094
111.822
109.87
108.202
106.784
105.585
104.576
103.731
103.028
102.446
101.966
101.573
101.252
100.992
100.782
100.614
100.479
100.372
100.288
100.222
100.17
100.129
100.098
100.074
100.056
100.042
100.031
100.023
100.017
100.012
100.009
100.007
100.005
100.003
100.002
100.002
100.001
100.001
100.001
100
100
100
100
100
100
100
100
100
100
390.911
372.789
354.831
337.141
319.82
302.961
286.647
270.952
255.939
241.661
228.157
215.456
203.576
192.524
182.298
172.888
164.273
156.429
149.324
142.923
137.186
132.072
127.536
123.534
120.022
116.956
114.293
111.992
110.015
108.325
106.887
105.671
104.648
103.791
103.077
102.486
101.999
101.599
101.273
101.009
100.796
100.624
100.488
100.379
100.293
100.226
100.173
100.132
100.1
100.075
100.057
100.042
100.031
100.023
100.017
100.013
100.009
100.007
100.005
100.003
100.002
100.002
100.001
100.001
100.001
100
100
100
100
100
100
100
100
100
100
390.965
372.948
355.09
337.494
320.257
303.47
287.216
271.568
256.588
242.329
228.833
216.128
204.234
193.16
182.906
173.461
164.809
156.925
149.779
143.336
137.559
132.405
127.831
123.795
120.25
117.154
114.464
112.139
110.14
108.431
106.976
105.746
104.71
103.842
103.119
102.52
102.027
101.622
101.291
101.024
100.807
100.634
100.495
100.385
100.297
100.229
100.175
100.134
100.101
100.076
100.057
100.043
100.032
100.024
100.017
100.013
100.009
100.007
100.005
100.003
100.003
100.002
100.001
100.001
100.001
100
100
100
100
100
100
100
100
100
100
391.008
373.077
355.301
337.781
320.613
303.885
287.681
272.071
257.119
242.878
229.389
216.682
204.779
193.688
183.411
173.939
165.257
157.34
150.161
143.684
137.873
132.686
128.082
124.015
120.444
117.322
114.61
112.264
110.247
108.521
107.053
105.81
104.763
103.886
103.156
102.55
102.051
101.641
101.307
101.036
100.817
100.642
100.501
100.389
100.301
100.232
100.178
100.135
100.103
100.078
100.058
100.044
100.032
100.024
100.018
100.013
100.009
100.007
100.005
100.004
100.003
100.002
100.001
100.001
100.001
100
100
100
100
100
100
100
100
100
100
391.043
373.181
355.471
338.013
320.901
304.222
288.058
272.481
257.553
243.327
229.845
217.138
205.227
194.124
183.829
174.336
165.629
157.686
150.48
143.975
138.137
132.923
128.293
124.202
120.607
117.465
114.733
112.371
110.338
108.599
107.118
105.864
104.809
103.924
103.187
102.576
102.072
101.658
101.321
101.047
100.826
100.648
100.506
100.394
100.305
100.234
100.18
100.137
100.104
100.078
100.059
100.044
100.033
100.024
100.018
100.013
100.01
100.007
100.005
100.004
100.003
100.002
100.001
100.001
100.001
100
100
100
100
100
100
100
100
100
100
391.072
373.265
355.609
338.201
321.134
304.496
288.365
272.815
257.907
243.694
230.218
217.512
205.596
194.483
184.174
174.664
165.938
157.974
150.745
144.218
138.357
133.121
128.469
124.358
120.745
117.585
114.838
112.46
110.415
108.664
107.173
105.911
104.847
103.956
103.213
102.597
102.089
101.673
101.332
101.056
100.833
100.654
100.511
100.397
100.307
100.237
100.181
100.138
100.105
100.079
100.059
100.044
100.033
100.024
100.018
100.013
100.01
100.007
100.005
100.004
100.003
100.002
100.001
100.001
100.001
100
100
100
100
100
100
100
100
100
100
391.094
373.333
355.72
338.353
321.323
304.717
288.614
273.085
258.194
243.992
230.522
217.817
205.897
194.777
184.458
174.934
166.192
158.211
150.964
144.419
138.539
133.286
128.617
124.489
120.86
117.686
114.925
112.536
110.48
108.719
107.22
105.95
104.88
103.983
103.236
102.616
102.104
101.685
101.342
101.064
100.84
100.659
100.515
100.4
100.31
100.239
100.183
100.139
100.106
100.08
100.06
100.045
100.033
100.025
100.018
100.013
100.01
100.007
100.005
100.004
100.003
100.002
100.001
100.001
100.001
100
100
100
100
100
100
100
100
100
100
391.113
373.387
355.81
338.475
321.475
304.895
288.814
273.304
258.426
244.234
230.769
218.065
206.143
195.017
184.689
175.155
166.401
158.407
151.145
144.585
138.691
133.422
128.739
124.598
120.956
117.77
114.998
112.599
110.534
108.765
107.259
105.983
104.908
104.006
103.255
102.631
102.117
101.695
101.351
101.071
100.845
100.664
100.518
100.403
100.312
100.24
100.184
100.14
100.106
100.08
100.06
100.045
100.034
100.025
100.018
100.013
100.01
100.007
100.005
100.004
100.003
100.002
100.001
100.001
100.001
100
100
100
100
100
100
100
100
100
100
391.127
373.431
355.881
338.573
321.596
305.038
288.975
273.48
258.614
244.429
230.969
218.266
206.342
195.212
184.878
175.336
166.572
158.567
151.294
144.722
138.815
133.535
128.84
124.688
121.035
117.84
115.059
112.651
110.579
108.804
107.292
106.011
104.931
104.025
103.271
102.644
102.128
101.704
101.358
101.077
100.85
100.667
100.521
100.405
100.314
100.242
100.185
100.141
100.107
100.081
100.061
100.045
100.034
100.025
100.018
100.013
100.01
100.007
100.005
100.004
100.003
100.002
100.001
100.001
100.001
100
100
100
100
100
100
100
100
100
100
391.139
373.466
355.938
338.651
321.694
305.152
289.105
273.621
258.764
244.586
231.13
218.428
206.504
195.37
185.031
175.482
166.711
158.697
151.415
144.833
138.917
133.627
128.923
124.761
121.101
117.897
115.109
112.695
110.616
108.836
107.319
106.033
104.95
104.041
103.284
102.655
102.137
101.711
101.364
101.081
100.853
100.67
100.524
100.407
100.315
100.243
100.186
100.142
100.108
100.081
100.061
100.046
100.034
100.025
100.019
100.014
100.01
100.007
100.005
100.004
100.003
100.002
100.001
100.001
100.001
100
100
100
100
100
100
100
100
100
100
391.148
373.494
355.984
338.713
321.772
305.244
289.208
273.734
258.885
244.712
231.259
218.558
206.633
195.497
185.155
175.601
166.823
158.803
151.513
144.924
139
133.702
128.99
124.822
121.154
117.944
115.15
112.73
110.647
108.862
107.341
106.052
104.966
104.055
103.295
102.664
102.144
101.717
101.368
101.085
100.856
100.673
100.526
100.409
100.316
100.244
100.187
100.142
100.108
100.082
100.061
100.046
100.034
100.025
100.019
100.014
100.01
100.007
100.005
100.004
100.003
100.002
100.001
100.001
100.001
100
100
100
100
100
100
100
100
100
100
391.156
373.516
356.02
338.763
321.834
305.317
289.29
273.825
258.981
244.813
231.362
218.663
206.737
195.6
185.254
175.696
166.914
158.888
151.593
144.997
139.067
133.763
129.045
124.871
121.198
117.983
115.183
112.76
110.672
108.883
107.359
106.068
104.979
104.066
103.304
102.672
102.15
101.722
101.372
101.089
100.859
100.675
100.527
100.41
100.317
100.244
100.187
100.143
100.108
100.082
100.061
100.046
100.034
100.025
100.019
100.014
100.01
100.007
100.005
100.004
100.003
100.002
100.001
100.001
100.001
100
100
100
100
100
100
100
100
100
100
391.162
373.533
356.049
338.802
321.883
305.375
289.356
273.896
259.058
244.893
231.445
218.746
206.821
195.682
185.334
175.773
166.987
158.957
151.657
145.057
139.121
133.812
129.09
124.911
121.233
118.014
115.211
112.783
110.692
108.901
107.374
106.08
104.989
104.074
103.311
102.678
102.155
101.726
101.376
101.091
100.861
100.676
100.529
100.411
100.318
100.245
100.188
100.143
100.109
100.082
100.062
100.046
100.034
100.025
100.019
100.014
100.01
100.007
100.005
100.004
100.003
100.002
100.001
100.001
100.001
100
100
100
100
100
100
100
100
100
100
391.166
373.547
356.072
338.833
321.922
305.42
289.408
273.953
259.119
244.957
231.51
218.813
206.887
195.747
185.397
175.834
167.045
159.012
151.708
145.104
139.165
133.852
129.126
124.943
121.262
118.039
115.233
112.803
110.709
108.915
107.387
106.091
104.998
104.082
103.317
102.683
102.159
101.73
101.379
101.093
100.863
100.678
100.53
100.412
100.319
100.246
100.188
100.144
100.109
100.082
100.062
100.046
100.034
100.025
100.019
100.014
100.01
100.007
100.005
100.004
100.003
100.002
100.001
100.001
100.001
100
100
100
100
100
100
100
100
100
100
391.17
373.558
356.09
338.858
321.952
305.456
289.448
273.998
259.166
245.007
231.562
218.865
206.939
195.798
185.448
175.883
167.091
159.055
151.749
145.142
139.2
133.884
129.154
124.969
121.285
118.059
115.251
112.818
110.722
108.927
107.396
106.099
105.005
104.088
103.322
102.687
102.163
101.732
101.381
101.095
100.864
100.679
100.531
100.413
100.319
100.246
100.189
100.144
100.109
100.082
100.062
100.046
100.034
100.025
100.019
100.014
100.01
100.007
100.005
100.004
100.003
100.002
100.001
100.001
100.001
100
100
100
100
100
100
100
100
100
100
391.173
373.566
356.104
338.877
321.976
305.485
289.48
274.033
259.204
245.046
231.603
218.906
206.981
195.839
185.487
175.921
167.128
159.09
151.781
145.172
139.227
133.909
129.177
124.989
121.303
118.075
115.265
112.83
110.733
108.936
107.404
106.106
105.011
104.092
103.326
102.69
102.165
101.734
101.383
101.097
100.866
100.68
100.531
100.413
100.32
100.246
100.189
100.144
100.109
100.083
100.062
100.046
100.034
100.026
100.019
100.014
100.01
100.007
100.005
100.004
100.003
100.002
100.001
100.001
100.001
100
100
100
100
100
100
100
100
100
100
391.175
373.573
356.114
338.892
321.995
305.507
289.505
274.06
259.234
245.077
231.635
218.939
207.013
195.871
185.519
175.951
167.157
159.117
151.807
145.196
139.249
133.929
129.195
125.006
121.317
118.088
115.276
112.84
110.742
108.943
107.411
106.111
105.015
104.096
103.329
102.693
102.168
101.736
101.384
101.098
100.867
100.681
100.532
100.414
100.32
100.247
100.189
100.144
100.109
100.083
100.062
100.046
100.035
100.026
100.019
100.014
100.01
100.007
100.005
100.004
100.003
100.002
100.001
100.001
100.001
100
100
100
100
100
100
100
100
100
100
391.177
373.578
356.123
338.904
322.009
305.524
289.525
274.082
259.257
245.102
231.66
218.964
207.038
195.897
185.543
175.975
167.18
159.139
151.827
145.215
139.267
133.945
129.21
125.018
121.329
118.098
115.285
112.848
110.749
108.949
107.416
106.115
105.019
104.099
103.332
102.695
102.169
101.738
101.385
101.099
100.867
100.681
100.532
100.414
100.321
100.247
100.189
100.144
100.11
100.083
100.062
100.046
100.035
100.026
100.019
100.014
100.01
100.007
100.005
100.004
100.003
100.002
100.001
100.001
100.001
100
100
100
100
100
100
100
100
100
100
391.178
373.582
356.13
338.913
322.021
305.537
289.54
274.099
259.275
245.12
231.679
218.984
207.058
195.916
185.563
175.994
167.197
159.156
151.843
145.229
139.28
133.957
129.221
125.029
121.338
118.107
115.292
112.854
110.754
108.954
107.42
106.119
105.022
104.102
103.334
102.697
102.171
101.739
101.386
101.099
100.868
100.682
100.533
100.414
100.321
100.247
100.189
100.144
100.11
100.083
100.062
100.047
100.035
100.026
100.019
100.014
100.01
100.007
100.005
100.004
100.003
100.002
100.001
100.001
100.001
100
100
100
100
100
100
100
100
100
100
391.179
373.585
356.135
338.92
322.029
305.548
289.552
274.111
259.288
245.135
231.694
218.999
207.074
195.931
185.577
176.008
167.211
159.169
151.855
145.241
139.291
133.967
129.23
125.037
121.345
118.113
115.298
112.859
110.758
108.958
107.423
106.121
105.024
104.103
103.335
102.698
102.172
101.74
101.387
101.1
100.868
100.682
100.533
100.415
100.321
100.247
100.189
100.145
100.11
100.083
100.062
100.047
100.035
100.026
100.019
100.014
100.01
100.007
100.005
100.004
100.003
100.002
100.001
100.001
100.001
100
100
100
100
100
100
100
100
100
100
391.18
373.588
356.139
338.925
322.036
305.556
289.561
274.121
259.299
245.146
231.706
219.011
207.085
195.943
185.589
176.019
167.222
159.179
151.865
145.25
139.299
133.975
129.237
125.043
121.351
118.118
115.302
112.863
110.761
108.96
107.425
106.124
105.026
104.105
103.337
102.699
102.173
101.74
101.387
101.101
100.869
100.682
100.533
100.415
100.321
100.247
100.19
100.145
100.11
100.083
100.062
100.047
100.035
100.026
100.019
100.014
100.01
100.007
100.005
100.004
100.003
100.002
100.001
100.001
100.001
100
100
100
100
100
100
100
100
100
100
391.181
373.59
356.142
338.929
322.041
305.562
289.568
274.129
259.307
245.155
231.715
219.02
207.095
195.952
185.598
176.028
167.23
159.187
151.872
145.257
139.305
133.981
129.242
125.048
121.355
118.122
115.305
112.866
110.764
108.963
107.427
106.125
105.027
104.106
103.338
102.7
102.173
101.741
101.388
101.101
100.869
100.683
100.534
100.415
100.321
100.247
100.19
100.145
100.11
100.083
100.062
100.047
100.035
100.026
100.019
100.014
100.01
100.007
100.005
100.004
100.003
100.002
100.001
100.001
100.001
100
100
100
100
100
100
100
100
100
100
391.181
373.591
356.144
338.932
322.045
305.566
289.573
274.135
259.313
245.161
231.721
219.027
207.102
195.959
185.605
176.034
167.237
159.193
151.878
145.262
139.31
133.985
129.246
125.051
121.358
118.125
115.308
112.868
110.766
108.964
107.429
106.126
105.028
104.107
103.338
102.7
102.174
101.741
101.388
101.101
100.869
100.683
100.534
100.415
100.321
100.248
100.19
100.145
100.11
100.083
100.062
100.047
100.035
100.026
100.019
100.014
100.01
100.007
100.005
100.004
100.003
100.002
100.001
100.001
100.001
100
100
100
100
100
100
100
100
100
100
391.181
373.592
356.146
338.935
322.048
305.57
289.577
274.139
259.318
245.166
231.727
219.032
207.107
195.964
185.61
176.039
167.241
159.197
151.882
145.266
139.314
133.989
129.249
125.054
121.361
118.127
115.31
112.87
110.768
108.966
107.43
106.127
105.029
104.108
103.339
102.701
102.174
101.742
101.388
101.101
100.869
100.683
100.534
100.415
100.321
100.248
100.19
100.145
100.11
100.083
100.062
100.047
100.035
100.026
100.019
100.014
100.01
100.007
100.005
100.004
100.003
100.002
100.001
100.001
100.001
100
100
100
100
100
100
100
100
100
100
391.182
373.593
356.147
338.936
322.05
305.572
289.58
274.143
259.322
245.17
231.731
219.036
207.111
195.968
185.614
176.043
167.245
159.201
151.886
145.269
139.317
133.991
129.252
125.056
121.363
118.129
115.312
112.871
110.769
108.967
107.431
106.128
105.03
104.108
103.339
102.701
102.174
101.742
101.389
101.102
100.87
100.683
100.534
100.415
100.321
100.248
100.19
100.145
100.11
100.083
100.062
100.047
100.035
100.026
100.019
100.014
100.01
100.007
100.005
100.004
100.003
100.002
100.001
100.001
100.001
100
100
100
100
100
100
100
100
100
100
391.182
373.593
356.148
338.938
322.052
305.574
289.582
274.145
259.324
245.173
231.734
219.039
207.114
195.971
185.617
176.046
167.248
159.204
151.888
145.271
139.319
133.993
129.253
125.058
121.364
118.13
115.313
112.872
110.77
108.968
107.431
106.129
105.03
104.109
103.34
102.702
102.175
101.742
101.389
101.102
100.87
100.683
100.534
100.415
100.322
100.248
100.19
100.145
100.11
100.083
100.062
100.047
100.035
100.026
100.019
100.014
100.01
100.007
100.005
100.004
100.003
100.002
100.001
100.001
100.001
100
100
100
100
100
100
100
100
100
100
391.182
373.594
356.149
338.939
322.053
305.576
289.584
274.147
259.327
245.175
231.736
219.042
207.116
195.974
185.619
176.048
167.25
159.206
151.89
145.273
139.321
133.995
129.255
125.059
121.365
118.131
115.314
112.873
110.77
108.968
107.432
106.129
105.031
104.109
103.34
102.702
102.175
101.742
101.389
101.102
100.87
100.683
100.534
100.415
100.322
100.248
100.19
100.145
100.11
100.083
100.062
100.047
100.035
100.026
100.019
100.014
100.01
100.007
100.005
100.004
100.003
100.002
100.001
100.001
100.001
100
100
100
100
100
100
100
100
100
100
391.182
373.594
356.149
338.94
322.054
305.577
289.585
274.148
259.328
245.177
231.737
219.043
207.118
195.975
185.621
176.05
167.252
159.207
151.891
145.275
139.322
133.996
129.256
125.06
121.366
118.132
115.314
112.874
110.771
108.969
107.432
106.129
105.031
104.109
103.34
102.702
102.175
101.742
101.389
101.102
100.87
100.683
100.534
100.415
100.322
100.248
100.19
100.145
100.11
100.083
100.062
100.047
100.035
100.026
100.019
100.014
100.01
100.007
100.005
100.004
100.003
100.002
100.001
100.001
100.001
100
100
100
100
100
100
100
100
100
100
391.182
373.594
356.15
338.94
322.055
305.578
289.586
274.149
259.329
245.178
231.739
219.045
207.119
195.977
185.622
176.051
167.253
159.208
151.892
145.276
139.323
133.997
129.257
125.061
121.367
118.132
115.315
112.874
110.771
108.969
107.432
106.13
105.031
104.109
103.34
102.702
102.175
101.742
101.389
101.102
100.87
100.683
100.534
100.415
100.322
100.248
100.19
100.145
100.11
100.083
100.062
100.047
100.035
100.026
100.019
100.014
100.01
100.007
100.005
100.004
100.003
100.002
100.001
100.001
100.001
100
100
100
100
100
100
100
100
100
100
391.182
373.595
356.15
338.941
322.056
305.579
289.587
274.15
259.33
245.179
231.74
219.045
207.12
195.978
185.623
176.052
167.254
159.209
151.893
145.276
139.324
133.997
129.257
125.061
121.367
118.133
115.315
112.875
110.772
108.969
107.433
106.13
105.031
104.11
103.34
102.702
102.175
101.743
101.389
101.102
100.87
100.683
100.534
100.416
100.322
100.248
100.19
100.145
100.11
100.083
100.062
100.047
100.035
100.026
100.019
100.014
100.01
100.007
100.005
100.004
100.003
100.002
100.001
100.001
100.001
100
100
100
100
100
100
100
100
100
100
391.182
373.595
356.15
338.941
322.056
305.579
289.587
274.151
259.331
245.179
231.74
219.046
207.121
195.978
185.623
176.053
167.254
159.21
151.894
145.277
139.324
133.998
129.258
125.062
121.368
118.133
115.316
112.875
110.772
108.969
107.433
106.13
105.031
104.11
103.341
102.702
102.175
101.743
101.389
101.102
100.87
100.683
100.534
100.416
100.322
100.248
100.19
100.145
100.11
100.083
100.062
100.047
100.035
100.026
100.019
100.014
100.01
100.007
100.005
100.004
100.003
100.002
100.001
100.001
100.001
100
100
100
100
100
100
100
100
100
100
391.182
373.595
356.15
338.941
322.056
305.579
289.588
274.151
259.331
245.18
231.741
219.047
207.121
195.979
185.624
176.053
167.255
159.21
151.894
145.277
139.324
133.998
129.258
125.062
121.368
118.133
115.316
112.875
110.772
108.969
107.433
106.13
105.031
104.11
103.341
102.702
102.175
101.743
101.389
101.102
100.87
100.683
100.534
100.416
100.322
100.248
100.19
100.145
100.11
100.083
100.062
100.047
100.035
100.026
100.019
100.014
100.01
100.007
100.005
100.004
100.003
100.002
100.001
100.001
100.001
100
100
100
100
100
100
100
100
100
100
391.182
373.595
356.15
338.941
322.056
305.58
289.588
274.151
259.331
245.18
231.741
219.047
207.122
195.979
185.624
176.054
167.255
159.21
151.895
145.278
139.325
133.998
129.258
125.062
121.368
118.133
115.316
112.875
110.772
108.97
107.433
106.13
105.031
104.11
103.341
102.702
102.175
101.743
101.389
101.102
100.87
100.683
100.534
100.416
100.322
100.248
100.19
100.145
100.11
100.083
100.062
100.047
100.035
100.026
100.019
100.014
100.01
100.007
100.005
100.004
100.003
100.002
100.001
100.001
100.001
100
100
100
100
100
100
100
100
100
100
391.182
373.595
356.15
338.941
322.057
305.58
289.588
274.152
259.332
245.181
231.741
219.047
207.122
195.979
185.625
176.054
167.255
159.211
151.895
145.278
139.325