/*--------------------------------*- C++ -*----------------------------------*\
  =========                 |
  \\      /  F ield         | OpenFOAM: The Open Source CFD Toolbox
   \\    /   O peration     | Website:  https://openfoam.org
    \\  /    A nd           | Version:  10
     \\/     M anipulation  |
\*---------------------------------------------------------------------------*/
FoamFile
{
    format      ascii;
    class       volScalarField;
    location    "350";
    object      gradTz;
}
// * * * * * * * * * * * * * * * * * * * * * * * * * * * * * * * * * * * * * //

dimensions      [0 -1 0 1 0 0 0];

internalField   nonuniform List<scalar> 
11250
(
-14346.7
-4142.23
-1522.11
-718.778
-414.359
-273.071
-196.048
-148.897
-117.536
-95.3516
-78.8909
-66.2039
-56.1209
-47.9068
-41.082
-35.3232
-30.4064
-26.172
-22.5034
-19.313
-16.5331
-14.1101
-11.9999
-10.1657
-8.57571
-7.20217
-6.02033
-5.00795
-4.14488
-3.41286
-2.79531
-2.27721
-1.84502
-1.48659
-1.1911
-0.948967
-0.751757
-0.592122
-0.463702
-0.361033
-0.279465
-0.215064
-0.164538
-0.125145
-0.0946245
-0.0711272
-0.0531503
-0.0394832
-0.0291577
-0.0214056
-0.0156219
-0.0113338
-0.00817424
-0.00586079
-0.00417734
-0.00295993
-0.00208497
-0.00146002
-0.00101639
-0.000703407
-0.000483947
-0.000331007
-0.000225075
-0.00015215
-0.000102254
-6.83227e-05
-4.53908e-05
-2.99904e-05
-1.97171e-05
-1.29163e-05
-8.45911e-06
-5.5843e-06
-3.78745e-06
-2.74595e-06
-2.26931e-06
-8244.15
-4842.09
-2749.25
-1657.17
-1079.71
-754.735
-558.089
-430.747
-343.308
-280.238
-232.838
-195.978
-166.493
-142.357
-122.23
-105.199
-90.6255
-78.0534
-67.1462
-57.6505
-49.3694
-42.1461
-35.8518
-30.378
-25.6312
-21.5292
-17.9987
-14.9738
-12.3944
-10.2064
-8.36022
-6.81116
-5.51881
-4.44694
-3.56321
-2.83899
-2.24909
-1.77157
-1.38739
-1.08024
-0.836208
-0.643528
-0.492352
-0.374483
-0.28316
-0.21285
-0.159056
-0.118158
-0.0872593
-0.0640607
-0.0467525
-0.0339196
-0.0244641
-0.0175406
-0.0125024
-0.00885885
-0.00624024
-0.00436983
-0.00304207
-0.00210532
-0.00144848
-0.000990731
-0.000673672
-0.000455404
-0.00030606
-0.000204501
-0.000135863
-8.97672e-05
-5.90175e-05
-3.86614e-05
-2.53202e-05
-1.67152e-05
-1.13369e-05
-8.21954e-06
-6.79281e-06
-5542.82
-4231.9
-2974.83
-2080.16
-1491.88
-1107.43
-850.272
-672.23
-544.341
-449.179
-376.064
-318.286
-271.512
-232.876
-200.431
-172.829
-149.11
-128.579
-110.72
-95.1387
-81.5274
-69.6381
-59.2661
-50.2378
-42.4024
-35.627
-29.7925
-24.791
-20.5247
-16.9043
-13.8488
-11.2843
-9.14435
-7.36914
-5.90527
-4.70545
-3.72804
-2.93673
-2.30004
-1.79095
-1.38644
-1.06703
-0.816405
-0.620986
-0.46957
-0.352986
-0.263785
-0.195965
-0.144723
-0.106251
-0.0775455
-0.0562617
-0.0405791
-0.0290955
-0.0207388
-0.0146953
-0.0103516
-0.00724904
-0.00504653
-0.0034926
-0.00240298
-0.00164361
-0.00111763
-0.000755528
-0.000507769
-0.000339281
-0.000225409
-0.000148933
-9.79173e-05
-6.41448e-05
-4.20103e-05
-2.77335e-05
-1.88101e-05
-1.3638e-05
-1.12709e-05
-4150.98
-3566.43
-2836.67
-2195.48
-1699.03
-1331.8
-1062.42
-862.788
-712.03
-595.613
-503.652
-429.439
-368.389
-317.331
-274.039
-236.927
-204.847
-176.946
-152.583
-131.264
-112.593
-96.2519
-81.9726
-69.5261
-58.7121
-49.3522
-41.2856
-34.3661
-28.4603
-23.4462
-19.2126
-15.658
-12.691
-10.2289
-8.19816
-6.53334
-5.17687
-4.07848
-3.19457
-2.48772
-1.92599
-1.4824
-1.13429
-0.862836
-0.652489
-0.490518
-0.366582
-0.272345
-0.201141
-0.147676
-0.107784
-0.0782035
-0.0564067
-0.0404453
-0.0288296
-0.0204289
-0.014391
-0.0100779
-0.00701609
-0.0048558
-0.00334096
-0.00228523
-0.00155395
-0.00105051
-0.000706029
-0.000471763
-0.000313431
-0.000207095
-0.000136158
-8.91975e-05
-5.8419e-05
-3.85665e-05
-2.6158e-05
-1.89657e-05
-1.5674e-05
-3341.7
-3044.24
-2608.04
-2164.3
-1775.32
-1456.87
-1203.53
-1003.4
-844.52
-716.953
-613.073
-527.222
-455.267
-394.197
-341.811
-296.487
-257.017
-222.488
-192.195
-165.583
-142.206
-121.693
-103.73
-88.0467
-74.4003
-62.5745
-52.3724
-43.6134
-36.1321
-29.7764
-24.4069
-19.8966
-16.1302
-13.0037
-10.424
-8.30864
-6.58462
-5.18827
-4.06438
-3.16545
-2.45096
-1.88664
-1.44374
-1.09832
-0.830634
-0.624487
-0.466734
-0.346774
-0.256125
-0.188056
-0.137263
-0.0995969
-0.0718407
-0.0515141
-0.0367211
-0.0260219
-0.0183315
-0.0128379
-0.00893782
-0.00618601
-0.00425632
-0.00291141
-0.00197981
-0.00133843
-0.000899558
-0.000601092
-0.000399363
-0.000263879
-0.000173496
-0.000113659
-7.44416e-05
-4.91451e-05
-3.33337e-05
-2.41689e-05
-1.99745e-05
-2827.35
-2658.27
-2384.56
-2076.09
-1778.99
-1514.96
-1289.81
-1101.4
-944.601
-813.793
-703.928
-610.844
-531.252
-462.607
-402.959
-350.817
-305.03
-264.704
-229.132
-197.744
-170.071
-145.716
-124.337
-105.632
-89.3293
-75.1811
-62.9604
-52.4576
-43.4789
-35.8452
-29.3918
-23.9679
-19.4364
-15.673
-12.5668
-10.0187
-7.94132
-6.25836
-4.90344
-3.81949
-2.95776
-2.27704
-1.74269
-1.32589
-1.00283
-0.754015
-0.563588
-0.418767
-0.309321
-0.22713
-0.165793
-0.120306
-0.0867831
-0.062232
-0.0443633
-0.0314389
-0.0221486
-0.0155117
-0.0107998
-0.00747498
-0.00514338
-0.0035183
-0.00239258
-0.00161753
-0.00108717
-0.000726476
-0.000482681
-0.00031894
-0.000209702
-0.000137382
-8.99812e-05
-5.94056e-05
-4.0294e-05
-2.92162e-05
-2.41463e-05
-2479
-2373.93
-2192.95
-1973.78
-1747.09
-1531.91
-1337.37
-1166.14
-1017.37
-888.706
-777.356
-680.654
-596.277
-522.293
-457.135
-399.549
-348.529
-303.266
-263.103
-227.491
-195.969
-168.135
-143.635
-122.15
-103.388
-87.0789
-72.9729
-60.8355
-50.4489
-41.6106
-34.1332
-27.8446
-22.5875
-18.2194
-14.6124
-11.6523
-9.23828
-7.28193
-5.70646
-4.44573
-3.44325
-2.65117
-2.02929
-1.54413
-1.16803
-0.878317
-0.656562
-0.487894
-0.360412
-0.264666
-0.193207
-0.140208
-0.101146
-0.0725362
-0.0517118
-0.0366486
-0.0258201
-0.018084
-0.0125912
-0.00871529
-0.00599706
-0.00410241
-0.0027899
-0.00188621
-0.0012678
-0.000847205
-0.000562913
-0.000371966
-0.000244574
-0.000160232
-0.00010495
-6.929e-05
-4.69999e-05
-3.40795e-05
-2.81662e-05
-2232.13
-2161.96
-2036.15
-1875.8
-1700.73
-1525.58
-1359.33
-1206.48
-1068.49
-945.156
-835.378
-737.765
-650.897
-573.474
-504.361
-442.597
-387.375
-338.015
-293.944
-254.668
-219.756
-188.819
-161.509
-137.5
-116.491
-98.1972
-82.3502
-68.6973
-57.001
-47.0387
-38.6034
-31.5039
-25.5653
-20.6282
-16.5492
-13.2003
-10.4682
-8.25322
-6.46894
-5.04071
-3.90475
-3.00698
-2.30198
-1.75186
-1.32533
-0.996722
-0.745154
-0.553783
-0.409124
-0.300464
-0.219358
-0.159198
-0.114854
-0.0823723
-0.0587279
-0.0416235
-0.0293268
-0.0205411
-0.0143028
-0.00990047
-0.00681291
-0.00466072
-0.00316972
-0.00214309
-0.00144051
-0.000962655
-0.000639644
-0.000422683
-0.00027793
-0.000182091
-0.000119272
-7.8748e-05
-5.34171e-05
-3.87338e-05
-3.20136e-05
-2051.36
-2001.63
-1910.04
-1788.92
-1651.11
-1507.34
-1365.29
-1229.74
-1103.22
-986.74
-880.378
-783.704
-696.057
-616.708
-544.945
-480.11
-421.614
-368.936
-321.608
-279.211
-241.36
-207.699
-177.892
-151.622
-128.585
-108.487
-91.0501
-76.0072
-63.1048
-52.1041
-42.7813
-34.9288
-28.3557
-22.8879
-18.368
-14.6554
-11.6252
-9.16766
-7.1873
-5.60162
-4.34007
-3.3428
-2.55947
-1.94812
-1.47401
-1.10868
-0.828951
-0.616129
-0.455232
-0.334359
-0.244125
-0.177188
-0.127843
-0.0916951
-0.0653794
-0.0463408
-0.0326525
-0.0228719
-0.0159266
-0.0110251
-0.00758721
-0.00519068
-0.0035303
-0.00238699
-0.00160452
-0.0010723
-0.000712527
-0.000470863
-0.000309621
-0.000202862
-0.000132881
-8.77366e-05
-5.95166e-05
-4.31582e-05
-3.56712e-05
-1915.75
-1878.7
-1809.16
-1714.68
-1603.72
-1484.05
-1361.84
-1241.52
-1125.95
-1016.75
-914.73
-820.14
-732.903
-652.764
-579.387
-512.402
-451.439
-396.136
-346.146
-301.134
-260.775
-224.753
-192.759
-164.487
-139.639
-117.921
-99.0479
-82.7428
-68.741
-56.7901
-46.6527
-38.1072
-30.9489
-24.9904
-20.0622
-16.0122
-12.705
-10.0218
-7.85883
-6.12635
-4.74758
-3.65736
-2.8008
-2.13214
-1.61349
-1.21375
-0.907634
-0.674692
-0.498558
-0.366219
-0.267414
-0.194109
-0.140064
-0.100469
-0.0716406
-0.0507825
-0.0357847
-0.0250675
-0.0174566
-0.0120849
-0.008317
-0.00569025
-0.00387027
-0.00261698
-0.0017592
-0.00117573
-0.000781283
-0.00051632
-0.000339526
-0.000222463
-0.000145726
-9.62216e-05
-6.5275e-05
-4.73356e-05
-3.9125e-05
-1812.2
-1783.37
-1728.52
-1652.47
-1560.95
-1459.61
-1353.3
-1245.88
-1140.14
-1037.98
-940.601
-848.703
-762.631
-682.506
-608.302
-539.904
-477.143
-419.814
-367.687
-320.519
-278.049
-240.009
-206.12
-176.097
-149.651
-126.493
-106.335
-88.8951
-73.9004
-61.0884
-50.2102
-41.0326
-33.3391
-26.931
-21.6278
-17.2673
-13.705
-10.8135
-8.48178
-6.61349
-5.12618
-3.94979
-3.02529
-2.30342
-1.74338
-1.31166
-0.980978
-0.729304
-0.538977
-0.395954
-0.289156
-0.209912
-0.151481
-0.108668
-0.0774931
-0.0549353
-0.0387138
-0.0271213
-0.018888
-0.0130767
-0.00900009
-0.00615795
-0.0041886
-0.00283237
-0.00190409
-0.00127261
-0.000845704
-0.000558917
-0.000367552
-0.000240837
-0.000157768
-0.000104177
-7.06748e-05
-5.12535e-05
-4.23645e-05
-1732.05
-1708.75
-1663.96
-1600.9
-1523.58
-1436.14
-1342.41
-1245.65
-1148.42
-1052.69
-959.853
-870.873
-786.393
-706.809
-632.347
-563.103
-499.084
-440.227
-386.417
-337.498
-293.275
-253.53
-218.019
-186.479
-158.638
-134.212
-112.916
-94.4664
-78.5836
-64.9981
-53.4523
-43.7032
-35.5245
-28.7077
-23.0631
-18.4193
-14.6238
-11.5417
-9.05526
-7.06231
-5.47526
-4.21961
-3.23257
-2.46167
-1.86345
-1.40221
-1.04885
-0.779865
-0.576414
-0.423505
-0.30931
-0.224565
-0.162071
-0.116275
-0.0829253
-0.0587909
-0.0414341
-0.0290291
-0.0202181
-0.0139984
-0.00963506
-0.00659278
-0.00448462
-0.0030327
-0.00203887
-0.00136276
-0.000905653
-0.000598564
-0.000393642
-0.000257943
-0.000168981
-0.000111586
-7.57044e-05
-5.49032e-05
-4.53824e-05
-1669.4
-1649.91
-1612.18
-1558.44
-1491.57
-1414.69
-1330.84
-1242.74
-1152.72
-1062.66
-974.021
-887.938
-805.236
-726.512
-652.179
-582.507
-517.651
-457.673
-402.561
-352.238
-306.578
-265.409
-228.523
-195.684
-166.636
-141.105
-118.811
-99.4698
-82.7996
-68.5255
-56.383
-46.1216
-37.5068
-30.3218
-24.3686
-19.4685
-15.4615
-12.2063
-9.5792
-7.47274
-5.79474
-4.46675
-3.42255
-2.60681
-1.97365
-1.48535
-1.1112
-0.826339
-0.610841
-0.448853
-0.327859
-0.238057
-0.171825
-0.123284
-0.087932
-0.0623456
-0.0439428
-0.030789
-0.0214453
-0.0148491
-0.0102212
-0.0069943
-0.00475801
-0.00321776
-0.00216339
-0.00144607
-0.000961062
-0.000635214
-0.000417763
-0.000273761
-0.000179352
-0.000118439
-8.03575e-05
-5.82803e-05
-4.81753e-05
-1620.05
-1603.27
-1570.59
-1523.62
-1464.52
-1395.68
-1319.56
-1238.44
-1154.4
-1069.21
-984.337
-900.977
-820.078
-742.374
-668.418
-598.615
-533.241
-472.464
-416.361
-364.93
-318.104
-275.757
-237.718
-203.777
-173.694
-147.209
-124.047
-103.927
-86.5645
-71.6825
-59.0114
-48.2945
-39.2908
-31.7766
-25.5471
-20.4168
-16.2196
-12.8084
-10.0543
-7.84525
-6.08497
-4.69143
-3.5954
-2.73895
-2.07404
-1.56115
-1.16807
-0.868751
-0.642274
-0.472007
-0.344811
-0.250392
-0.180747
-0.129698
-0.0925144
-0.0656002
-0.0462404
-0.0324013
-0.0225699
-0.0156289
-0.0107587
-0.0073625
-0.00500879
-0.00338754
-0.00227766
-0.00152253
-0.00101193
-0.000668864
-0.000439914
-0.000288289
-0.000188878
-0.000124736
-8.46335e-05
-6.13842e-05
-5.07426e-05
-1580.98
-1566.15
-1537.13
-1495.15
-1441.87
-1379.18
-1309.09
-1233.56
-1154.44
-1073.36
-991.769
-910.877
-831.702
-755.068
-681.632
-611.898
-546.239
-484.912
-428.069
-375.774
-328.013
-284.702
-245.705
-210.836
-179.875
-152.573
-128.662
-107.866
-89.9001
-74.4859
-61.3502
-50.2318
-40.8842
-33.078
-26.6028
-21.2674
-16.9004
-13.3498
-10.4819
-8.18087
-6.34668
-4.89421
-3.75152
-2.85839
-2.16484
-1.62975
-1.21958
-0.907181
-0.670771
-0.493009
-0.360194
-0.26159
-0.188849
-0.135525
-0.0966794
-0.0685592
-0.04833
-0.0338681
-0.0235933
-0.0163387
-0.011248
-0.00769786
-0.00523724
-0.00354225
-0.00238181
-0.00159223
-0.0010583
-0.000699552
-0.000460118
-0.000301543
-0.00019757
-0.000130482
-8.85366e-05
-6.42179e-05
-5.30866e-05
-1549.92
-1536.51
-1510.2
-1471.94
-1423.04
-1365.06
-1299.69
-1228.62
-1153.49
-1075.85
-997.062
-918.35
-840.76
-765.175
-692.323
-622.783
-557.006
-495.317
-437.933
-384.972
-336.467
-292.375
-252.589
-216.946
-185.245
-157.249
-132.698
-111.32
-92.8328
-76.9565
-63.4157
-51.9459
-42.2964
-34.2334
-27.5414
-22.0247
-17.5074
-13.8329
-10.864
-8.48104
-6.58097
-5.0759
-3.89151
-2.96557
-2.24638
-1.6914
-1.26589
-0.941756
-0.696424
-0.511924
-0.374055
-0.271686
-0.196157
-0.140782
-0.100439
-0.0712311
-0.0502175
-0.0351934
-0.0245184
-0.0169804
-0.0116906
-0.00800122
-0.00544395
-0.00368226
-0.00247609
-0.00165533
-0.0011003
-0.000727348
-0.000478423
-0.000313553
-0.000205449
-0.000135691
-9.20754e-05
-6.67876e-05
-5.52125e-05
-1525.17
-1512.82
-1488.52
-1453.04
-1407.47
-1353.12
-1291.43
-1223.9
-1152.02
-1077.2
-1000.78
-923.959
-847.786
-773.184
-700.928
-631.655
-565.872
-503.959
-446.187
-392.72
-343.631
-298.911
-258.478
-222.196
-189.876
-161.295
-136.201
-114.326
-95.392
-79.1173
-65.2261
-53.4512
-43.5389
-35.2515
-28.3698
-22.6941
-18.0445
-14.261
-11.2029
-8.74756
-6.78919
-5.23752
-4.01615
-3.06107
-2.31909
-1.7464
-1.30724
-0.972645
-0.719355
-0.528841
-0.386458
-0.280723
-0.202701
-0.145492
-0.103808
-0.073627
-0.0519107
-0.0363827
-0.0253487
-0.0175566
-0.012088
-0.00827376
-0.00562971
-0.00380812
-0.00256085
-0.00171209
-0.00113808
-0.000752357
-0.000494895
-0.000324363
-0.000212541
-0.000140382
-9.52624e-05
-6.91022e-05
-5.71277e-05
-1505.42
-1493.86
-1471.06
-1437.69
-1394.67
-1343.12
-1284.31
-1219.58
-1150.3
-1077.81
-1003.37
-928.148
-853.215
-779.505
-707.824
-638.85
-573.131
-511.095
-453.052
-399.205
-349.661
-304.439
-263.483
-226.674
-193.841
-164.771
-139.22
-116.924
-97.6089
-80.9935
-66.8013
-54.7636
-44.624
-36.1422
-29.0956
-23.2813
-18.5163
-14.6376
-11.5014
-8.98251
-6.97293
-5.38026
-4.12633
-3.14556
-2.38346
-1.79513
-1.3439
-1.00005
-0.739709
-0.543865
-0.39748
-0.288758
-0.208523
-0.149684
-0.106808
-0.0757607
-0.0534191
-0.0374426
-0.0260889
-0.0180705
-0.0124426
-0.00851696
-0.00579551
-0.00392048
-0.00263655
-0.00176278
-0.00117184
-0.000774706
-0.000509619
-0.000334027
-0.000218883
-0.000144577
-9.81135e-05
-7.11733e-05
-5.88415e-05
-1489.65
-1478.68
-1457.03
-1425.26
-1384.18
-1334.8
-1278.23
-1215.73
-1148.54
-1077.93
-1005.12
-931.259
-857.394
-784.473
-713.325
-644.655
-579.045
-516.954
-458.727
-404.599
-354.703
-309.084
-267.706
-230.469
-197.213
-167.736
-141.803
-119.153
-99.5155
-82.6108
-68.162
-55.8995
-45.5649
-36.9158
-29.727
-23.7929
-18.9279
-14.9664
-11.7623
-9.18816
-7.13392
-5.50545
-4.22303
-3.21978
-2.44005
-1.83801
-1.37617
-1.02419
-0.757651
-0.557117
-0.407206
-0.295852
-0.213665
-0.153389
-0.10946
-0.0776479
-0.0547538
-0.0383808
-0.0267444
-0.0185257
-0.0127568
-0.0087325
-0.00594251
-0.00402013
-0.0027037
-0.00180776
-0.00120179
-0.000794544
-0.000522691
-0.00034261
-0.000224516
-0.000148304
-0.000100647
-7.3014e-05
-6.03649e-05
-1477.06
-1466.54
-1445.75
-1415.21
-1375.63
-1327.92
-1273.12
-1212.36
-1146.85
-1077.77
-1006.3
-933.559
-860.6
-788.365
-717.697
-649.32
-583.839
-521.74
-463.393
-409.059
-358.893
-312.962
-271.248
-233.663
-200.061
-170.249
-143.997
-121.052
-101.144
-83.9951
-69.3292
-56.8756
-46.375
-37.5829
-30.2723
-24.2354
-19.2844
-15.2516
-11.9888
-9.36689
-7.27397
-5.61446
-4.30733
-3.28452
-2.48946
-1.87547
-1.40439
-1.04531
-0.773358
-0.568724
-0.415729
-0.302073
-0.218176
-0.15664
-0.111789
-0.0793057
-0.0559267
-0.0392056
-0.0273208
-0.0189261
-0.0130333
-0.00892225
-0.00607195
-0.0041079
-0.00276286
-0.0018474
-0.0012282
-0.000812036
-0.000534219
-0.00035018
-0.000229486
-0.000151593
-0.000102883
-7.46391e-05
-6.171e-05
-1467.01
-1456.84
-1436.71
-1407.11
-1368.68
-1322.27
-1268.84
-1209.47
-1145.29
-1077.43
-1007.06
-935.25
-863.05
-791.404
-721.158
-653.051
-587.706
-525.629
-467.208
-412.725
-362.355
-316.18
-274.198
-236.333
-202.45
-172.363
-145.849
-122.659
-102.525
-85.1719
-70.3234
-57.7087
-47.0676
-38.1542
-30.74
-24.6154
-19.591
-15.4971
-12.1841
-9.52115
-7.39498
-5.70874
-4.38028
-3.34061
-2.5323
-1.90797
-1.42889
-1.06366
-0.787013
-0.578821
-0.423149
-0.30749
-0.222107
-0.159474
-0.11382
-0.0807522
-0.0569505
-0.0399258
-0.0278244
-0.019276
-0.0132749
-0.00908816
-0.00618516
-0.00418469
-0.00281463
-0.0018821
-0.00125132
-0.000827355
-0.000544318
-0.000356813
-0.000233841
-0.000154476
-0.000104844
-7.60643e-05
-6.28898e-05
-1459.01
-1449.09
-1429.48
-1400.59
-1363.06
-1317.66
-1265.3
-1207.02
-1143.89
-1077.02
-1007.53
-936.486
-864.918
-793.768
-723.888
-656.024
-590.812
-528.773
-470.311
-415.723
-365.199
-318.835
-276.641
-238.552
-204.441
-174.13
-147.402
-124.009
-103.688
-86.1655
-71.1646
-58.4149
-47.6556
-38.64
-31.1383
-24.9396
-19.8528
-15.7071
-12.3514
-9.65336
-7.4988
-5.78971
-4.443
-3.38887
-2.56918
-1.93597
-1.45001
-1.07949
-0.798803
-0.587545
-0.429562
-0.312175
-0.225508
-0.161928
-0.11558
-0.0820057
-0.0578381
-0.0405504
-0.0282612
-0.0195797
-0.0134848
-0.00923226
-0.00628352
-0.00425142
-0.00285964
-0.00191227
-0.00127143
-0.000840682
-0.000553106
-0.000362587
-0.000237633
-0.000156986
-0.000106551
-7.73058e-05
-6.39178e-05
-1452.65
-1442.93
-1423.7
-1395.37
-1358.52
-1313.91
-1262.39
-1204.97
-1142.67
-1076.59
-1007.81
-937.385
-866.336
-795.601
-726.033
-658.383
-593.296
-531.303
-472.822
-418.16
-367.521
-321.012
-278.651
-240.384
-206.091
-175.599
-148.695
-125.137
-104.662
-86.9987
-71.8714
-59.0094
-48.1515
-39.0504
-31.4753
-25.2142
-20.075
-15.8855
-12.4935
-9.76591
-7.58726
-5.85877
-4.49654
-3.4301
-2.60072
-1.95994
-1.46811
-1.09306
-0.808914
-0.595031
-0.435069
-0.316201
-0.228432
-0.164039
-0.117093
-0.0830847
-0.0586024
-0.0410885
-0.0286378
-0.0198415
-0.0136658
-0.00935658
-0.00636841
-0.00430903
-0.0028985
-0.00193833
-0.0012888
-0.000852199
-0.000560702
-0.000367578
-0.000240912
-0.000159158
-0.000108029
-7.83802e-05
-6.48074e-05
-1447.59
-1438.03
-1419.1
-1391.2
-1354.88
-1310.87
-1260.01
-1203.26
-1141.62
-1076.16
-1007.95
-938.034
-867.411
-797.019
-727.713
-660.247
-595.273
-533.33
-474.844
-420.132
-369.408
-322.787
-280.296
-241.889
-207.449
-176.811
-149.765
-126.072
-105.472
-87.693
-72.4614
-59.5065
-48.567
-39.3948
-31.7585
-25.4453
-20.2621
-16.036
-12.6136
-9.86107
-7.66214
-5.91727
-4.54195
-3.46509
-2.62751
-1.98031
-1.4835
-1.10461
-0.817527
-0.601411
-0.439765
-0.319636
-0.230928
-0.165841
-0.118387
-0.0840072
-0.0592562
-0.041549
-0.0289601
-0.0200658
-0.0138208
-0.00946312
-0.00644117
-0.00435843
-0.00293183
-0.00196069
-0.00130371
-0.000862085
-0.000567224
-0.000371865
-0.000243729
-0.000161023
-0.000109299
-7.93037e-05
-6.55723e-05
-1443.6
-1434.15
-1415.45
-1387.88
-1351.97
-1308.43
-1258.08
-1201.85
-1140.73
-1075.77
-1008.02
-938.5
-868.221
-798.112
-729.023
-661.715
-596.841
-534.945
-476.463
-421.719
-370.932
-324.226
-281.635
-243.116
-208.561
-177.806
-150.646
-126.843
-106.141
-88.2677
-72.9507
-59.9196
-48.9127
-39.6818
-31.9948
-25.6384
-20.4188
-16.162
-12.7144
-9.94098
-7.72508
-5.9665
-4.58018
-3.49459
-2.65011
-1.99751
-1.4965
-1.11438
-0.824814
-0.606813
-0.443744
-0.322547
-0.233045
-0.167371
-0.119485
-0.0847907
-0.0598117
-0.0419404
-0.0292342
-0.0202565
-0.0139527
-0.00955381
-0.00650314
-0.00440051
-0.00296024
-0.00197975
-0.00131642
-0.000870516
-0.000572787
-0.000375522
-0.000246133
-0.000162616
-0.000110383
-8.00924e-05
-6.62256e-05
-1440.44
-1431.08
-1412.56
-1385.24
-1349.65
-1306.48
-1256.52
-1200.7
-1139.99
-1075.42
-1008.02
-938.832
-868.831
-798.951
-730.043
-662.866
-598.078
-536.228
-477.755
-422.989
-372.157
-325.386
-282.717
-244.112
-209.465
-178.617
-151.365
-127.475
-106.69
-88.7404
-73.3539
-60.2605
-49.1985
-39.9194
-32.1908
-25.7988
-20.549
-16.267
-12.7983
-10.0076
-7.77764
-6.00765
-4.61218
-3.51929
-2.66905
-2.01194
-1.50742
-1.12258
-0.830938
-0.611356
-0.447092
-0.324998
-0.234829
-0.16866
-0.120411
-0.0854516
-0.0602806
-0.0422709
-0.0294657
-0.0204177
-0.0140642
-0.0096305
-0.00655555
-0.00443612
-0.00298428
-0.00199589
-0.00132719
-0.000877658
-0.000577501
-0.000378622
-0.000248171
-0.000163966
-0.000111302
-8.07614e-05
-6.67798e-05
-1437.95
-1428.67
-1410.28
-1383.16
-1347.81
-1304.92
-1255.27
-1199.77
-1139.38
-1075.11
-1008
-939.067
-869.289
-799.594
-730.833
-663.765
-599.05
-537.241
-478.779
-424.001
-373.136
-326.317
-283.588
-244.915
-210.196
-179.274
-151.95
-127.99
-107.138
-89.1267
-73.6841
-60.5401
-49.4333
-40.1149
-32.3523
-25.9311
-20.6565
-16.3537
-12.8678
-10.0629
-7.82125
-6.04182
-4.63876
-3.53984
-2.68482
-2.02396
-1.51652
-1.12942
-0.836051
-0.615151
-0.44989
-0.327048
-0.236321
-0.169739
-0.121187
-0.0860056
-0.0606736
-0.0425481
-0.0296599
-0.020553
-0.0141579
-0.00969493
-0.0065996
-0.00446605
-0.00300449
-0.00200946
-0.00133624
-0.000883668
-0.000581469
-0.000381232
-0.000249887
-0.000165104
-0.000112077
-8.13251e-05
-6.72469e-05
-1436.01
-1426.77
-1408.49
-1381.52
-1346.36
-1303.68
-1254.27
-1199.01
-1138.87
-1074.85
-1007.96
-939.231
-869.631
-800.085
-731.443
-664.464
-599.811
-538.037
-479.589
-424.803
-373.915
-327.06
-284.285
-245.559
-210.784
-179.804
-152.422
-128.406
-107.501
-89.4405
-73.9527
-60.7679
-49.6249
-40.2746
-32.4844
-26.0395
-20.7448
-16.425
-12.925
-10.1084
-7.85718
-6.07
-4.66071
-3.55681
-2.69786
-2.03391
-1.52405
-1.13509
-0.840292
-0.6183
-0.452213
-0.328751
-0.237561
-0.170637
-0.121832
-0.0864667
-0.061001
-0.0427791
-0.0298219
-0.0206658
-0.014236
-0.00974869
-0.00663637
-0.00449104
-0.00302138
-0.0020208
-0.00134381
-0.000888692
-0.000584787
-0.000383415
-0.000251323
-0.000166056
-0.000112725
-8.1797e-05
-6.7638e-05
-1434.48
-1425.29
-1407.09
-1380.23
-1345.21
-1302.7
-1253.48
-1198.41
-1138.46
-1074.63
-1007.92
-939.345
-869.885
-800.458
-731.912
-665.007
-600.404
-538.661
-480.225
-425.436
-374.531
-327.649
-284.839
-246.073
-211.254
-180.229
-152.801
-128.741
-107.794
-89.6938
-74.1699
-60.9525
-49.7803
-40.4044
-32.5919
-26.1278
-20.8167
-16.4832
-12.9717
-10.1456
-7.88659
-6.0931
-4.67872
-3.57075
-2.70857
-2.04208
-1.53025
-1.13976
-0.843785
-0.620896
-0.45413
-0.330157
-0.238586
-0.171378
-0.122366
-0.0868481
-0.0612719
-0.0429703
-0.029956
-0.0207593
-0.0143008
-0.00979326
-0.00666686
-0.00451178
-0.00303539
-0.00203021
-0.0013501
-0.000892865
-0.000587543
-0.000385229
-0.000252516
-0.000166847
-0.000113264
-8.21895e-05
-6.79633e-05
-1433.3
-1424.14
-1406
-1379.22
-1344.32
-1301.93
-1252.85
-1197.93
-1138.13
-1074.44
-1007.87
-939.424
-870.074
-800.741
-732.271
-665.425
-600.864
-539.147
-480.722
-425.932
-375.016
-328.114
-285.277
-246.48
-211.627
-180.567
-153.104
-129.008
-108.028
-89.897
-74.3444
-61.101
-49.9055
-40.5091
-32.6787
-26.1992
-20.875
-16.5304
-13.0096
-10.1758
-7.91052
-6.1119
-4.69339
-3.58211
-2.71731
-2.04876
-1.53532
-1.14358
-0.846644
-0.623022
-0.455701
-0.33131
-0.239426
-0.171987
-0.122804
-0.0871615
-0.0614946
-0.0431275
-0.0300663
-0.0208362
-0.0143541
-0.00982997
-0.00669198
-0.00452886
-0.00304694
-0.00203797
-0.00135528
-0.000896308
-0.000589817
-0.000386726
-0.000253501
-0.0001675
-0.000113709
-8.25138e-05
-6.8232e-05
-1432.38
-1423.24
-1405.15
-1378.44
-1343.62
-1301.33
-1252.36
-1197.55
-1137.87
-1074.29
-1007.83
-939.477
-870.214
-800.955
-732.546
-665.747
-601.22
-539.524
-481.11
-426.32
-375.396
-328.479
-285.622
-246.801
-211.922
-180.835
-153.344
-129.221
-108.215
-90.0591
-74.4838
-61.2197
-50.0058
-40.5931
-32.7484
-26.2566
-20.9219
-16.5684
-13.0401
-10.2002
-7.92986
-6.12711
-4.70526
-3.59132
-2.7244
-2.05418
-1.53944
-1.14669
-0.848969
-0.624752
-0.45698
-0.332249
-0.240111
-0.172484
-0.123161
-0.0874172
-0.0616765
-0.043256
-0.0301565
-0.0208991
-0.0143977
-0.00986001
-0.00671255
-0.00454285
-0.0030564
-0.00204433
-0.00135953
-0.000899129
-0.000591682
-0.000387953
-0.000254309
-0.000168036
-0.000114075
-8.27799e-05
-6.84527e-05
-1431.67
-1422.55
-1404.49
-1377.83
-1343.07
-1300.87
-1251.97
-1197.26
-1137.66
-1074.17
-1007.79
-939.513
-870.317
-801.116
-732.755
-665.993
-601.493
-539.815
-481.41
-426.621
-375.691
-328.764
-285.892
-247.053
-212.154
-181.045
-153.533
-129.389
-108.362
-90.1875
-74.5944
-61.3142
-50.0857
-40.6601
-32.8041
-26.3025
-20.9594
-16.5988
-13.0646
-10.2198
-7.94539
-6.13933
-4.71482
-3.59874
-2.73011
-2.05855
-1.54276
-1.14919
-0.850848
-0.626151
-0.458014
-0.333009
-0.240666
-0.172886
-0.123451
-0.0876247
-0.061824
-0.0433602
-0.0302297
-0.0209502
-0.0144331
-0.00988442
-0.00672927
-0.00455423
-0.0030641
-0.0020495
-0.00136299
-0.000901427
-0.000593201
-0.000388954
-0.000254967
-0.000168473
-0.000114372
-8.29969e-05
-6.86326e-05
-1431.12
-1422.02
-1403.98
-1377.36
-1342.66
-1300.5
-1251.67
-1197.02
-1137.5
-1074.07
-1007.75
-939.536
-870.393
-801.237
-732.913
-666.181
-601.703
-540.039
-481.641
-426.854
-375.921
-328.985
-286.103
-247.25
-212.335
-181.21
-153.681
-129.521
-108.478
-90.2888
-74.6817
-61.3888
-50.1489
-40.7131
-32.8482
-26.3389
-20.9892
-16.6231
-13.0842
-10.2354
-7.95778
-6.1491
-4.72245
-3.60466
-2.73469
-2.06205
-1.54542
-1.1512
-0.852356
-0.627274
-0.458845
-0.33362
-0.241112
-0.17321
-0.123685
-0.0877918
-0.0619429
-0.0434443
-0.0302888
-0.0209915
-0.0144617
-0.00990414
-0.00674278
-0.00456343
-0.00307032
-0.00205369
-0.00136579
-0.000903286
-0.00059443
-0.000389763
-0.0002555
-0.000168827
-0.000114614
-8.31726e-05
-6.87783e-05
-1430.7
-1421.61
-1403.59
-1377
-1342.33
-1300.23
-1251.44
-1196.84
-1137.37
-1073.99
-1007.72
-939.551
-870.448
-801.327
-733.033
-666.323
-601.863
-540.21
-481.818
-427.033
-376.097
-329.156
-286.265
-247.402
-212.476
-181.339
-153.797
-129.624
-108.569
-90.368
-74.7502
-61.4474
-50.1985
-40.7548
-32.883
-26.3677
-21.0128
-16.6422
-13.0996
-10.2478
-7.9676
-6.15684
-4.72852
-3.60938
-2.73832
-2.06484
-1.54754
-1.15281
-0.853558
-0.628171
-0.459509
-0.334108
-0.241469
-0.173469
-0.123871
-0.0879256
-0.0620382
-0.0435117
-0.0303361
-0.0210245
-0.0144847
-0.00991997
-0.00675362
-0.00457082
-0.00307532
-0.00205705
-0.00136803
-0.000904781
-0.000595418
-0.000390414
-0.000255929
-0.000169111
-0.000114808
-8.33141e-05
-6.88956e-05
-1430.38
-1421.29
-1403.3
-1376.73
-1342.09
-1300.01
-1251.26
-1196.7
-1137.27
-1073.93
-1007.7
-939.56
-870.489
-801.394
-733.122
-666.431
-601.984
-540.341
-481.954
-427.171
-376.233
-329.288
-286.391
-247.52
-212.585
-181.438
-153.887
-129.704
-108.64
-90.4298
-74.8036
-61.4931
-50.2374
-40.7875
-32.9102
-26.3902
-21.0313
-16.6573
-13.1118
-10.2575
-7.97534
-6.16295
-4.7333
-3.6131
-2.7412
-2.06705
-1.54922
-1.15408
-0.854512
-0.628882
-0.460036
-0.334496
-0.241752
-0.173674
-0.12402
-0.088032
-0.062114
-0.0435653
-0.0303738
-0.0210509
-0.0145029
-0.00993258
-0.00676227
-0.00457671
-0.00307931
-0.00205973
-0.00136983
-0.000905974
-0.000596208
-0.000390934
-0.000256272
-0.000169339
-0.000114963
-8.34272e-05
-6.89894e-05
-1430.14
-1421.06
-1403.07
-1376.52
-1341.9
-1299.85
-1251.13
-1196.6
-1137.19
-1073.88
-1007.68
-939.566
-870.518
-801.444
-733.19
-666.512
-602.076
-540.44
-482.057
-427.275
-376.337
-329.388
-286.487
-247.61
-212.669
-181.515
-153.956
-129.766
-108.695
-90.4775
-74.845
-61.5286
-50.2675
-40.8129
-32.9315
-26.4078
-21.0457
-16.669
-13.1212
-10.2651
-7.9814
-6.16774
-4.73706
-3.61602
-2.74346
-2.06878
-1.55054
-1.15507
-0.855262
-0.629442
-0.460451
-0.334801
-0.241976
-0.173837
-0.124137
-0.0881161
-0.0621739
-0.0436077
-0.0304037
-0.0210717
-0.0145174
-0.00994257
-0.00676912
-0.00458138
-0.00308247
-0.00206186
-0.00137125
-0.000906921
-0.000596834
-0.000391347
-0.000256544
-0.00016952
-0.000115086
-8.3517e-05
-6.90639e-05
-1429.95
-1420.88
-1402.9
-1376.36
-1341.76
-1299.72
-1251.02
-1196.51
-1137.13
-1073.84
-1007.66
-939.569
-870.539
-801.481
-733.24
-666.573
-602.145
-540.514
-482.135
-427.354
-376.415
-329.465
-286.56
-247.679
-212.733
-181.574
-154.009
-129.814
-108.737
-90.5143
-74.8768
-61.556
-50.2908
-40.8325
-32.9479
-26.4214
-21.0569
-16.6781
-13.1286
-10.271
-7.98612
-6.17147
-4.73998
-3.6183
-2.74522
-2.07013
-1.55157
-1.15585
-0.855849
-0.62988
-0.460776
-0.335041
-0.242151
-0.173964
-0.124229
-0.0881822
-0.062221
-0.0436411
-0.0304271
-0.0210881
-0.0145288
-0.00995044
-0.00677452
-0.00458505
-0.00308496
-0.00206354
-0.00137237
-0.000907667
-0.000597328
-0.000391673
-0.000256758
-0.000169662
-0.000115183
-8.35879e-05
-6.91227e-05
-1429.82
-1420.74
-1402.77
-1376.24
-1341.65
-1299.63
-1250.94
-1196.45
-1137.08
-1073.81
-1007.65
-939.571
-870.554
-801.508
-733.277
-666.618
-602.196
-540.57
-482.194
-427.414
-376.475
-329.523
-286.615
-247.732
-212.782
-181.618
-154.05
-129.85
-108.769
-90.5424
-74.9013
-61.577
-50.3087
-40.8476
-32.9605
-26.4318
-21.0655
-16.6852
-13.1343
-10.2756
-7.98976
-6.17435
-4.74225
-3.62007
-2.74658
-2.07118
-1.55237
-1.15646
-0.856306
-0.630221
-0.461029
-0.335228
-0.242288
-0.174064
-0.124301
-0.0882337
-0.0622577
-0.0436671
-0.0304455
-0.0211009
-0.0145377
-0.00995659
-0.00677874
-0.00458793
-0.00308691
-0.00206485
-0.00137325
-0.000908252
-0.000597715
-0.000391928
-0.000256926
-0.000169774
-0.00011526
-8.36436e-05
-6.91689e-05
-1429.71
-1420.64
-1402.68
-1376.15
-1341.57
-1299.56
-1250.89
-1196.4
-1137.05
-1073.79
-1007.64
-939.572
-870.565
-801.528
-733.304
-666.652
-602.235
-540.612
-482.238
-427.459
-376.519
-329.566
-286.657
-247.771
-212.818
-181.652
-154.08
-129.877
-108.793
-90.5639
-74.9199
-61.593
-50.3223
-40.8592
-32.9702
-26.4399
-21.0721
-16.6906
-13.1387
-10.2791
-7.99256
-6.17657
-4.74399
-3.62143
-2.74764
-2.07199
-1.55299
-1.15693
-0.856658
-0.630485
-0.461225
-0.335372
-0.242394
-0.174141
-0.124357
-0.0882737
-0.0622862
-0.0436873
-0.0304597
-0.0211109
-0.0145446
-0.00996137
-0.00678202
-0.00459017
-0.00308843
-0.00206587
-0.00137394
-0.000908707
-0.000598016
-0.000392127
-0.000257057
-0.000169861
-0.000115319
-8.36869e-05
-6.92048e-05
-1429.64
-1420.57
-1402.6
-1376.09
-1341.51
-1299.51
-1250.84
-1196.37
-1137.02
-1073.77
-1007.63
-939.572
-870.573
-801.543
-733.325
-666.677
-602.263
-540.643
-482.27
-427.492
-376.553
-329.599
-286.689
-247.801
-212.846
-181.677
-154.103
-129.898
-108.812
-90.58
-74.9339
-61.6051
-50.3327
-40.8679
-32.9775
-26.446
-21.0771
-16.6947
-13.142
-10.2818
-7.9947
-6.17827
-4.74532
-3.62247
-2.74844
-2.07261
-1.55346
-1.15729
-0.856929
-0.630688