/*--------------------------------*- C++ -*----------------------------------*\
  =========                 |
  \\      /  F ield         | OpenFOAM: The Open Source CFD Toolbox
   \\    /   O peration     | Website:  https://openfoam.org
    \\  /    A nd           | Version:  10
     \\/     M anipulation  |
\*---------------------------------------------------------------------------*/
FoamFile
{
    format      ascii;
    class       volScalarField;
    location    "483";
    object      gradTz;
}
// * * * * * * * * * * * * * * * * * * * * * * * * * * * * * * * * * * * * * //

dimensions      [0 -1 0 1 0 0 0];

internalField   nonuniform List<scalar> 
11250
(
-14340.4
-4136.08
-1516.16
-713.125
-409.09
-268.26
-191.76
-145.182
-114.43
-92.8762
-77.053
-64.9965
-55.5239
-47.8885
-41.6008
-36.3292
-31.8437
-27.9803
-24.6204
-21.6758
-19.0802
-16.7826
-14.7429
-12.9292
-11.3153
-9.87944
-8.60318
-7.47047
-6.46716
-5.58065
-4.79952
-4.11337
-3.51268
-2.98867
-2.53326
-2.13901
-1.79907
-1.50718
-1.25759
-1.04508
-0.864939
-0.712899
-0.585148
-0.478285
-0.389298
-0.31553
-0.254658
-0.204656
-0.163771
-0.130493
-0.103532
-0.0817881
-0.0643331
-0.0503853
-0.0392912
-0.0305076
-0.0235852
-0.0181547
-0.0139141
-0.010618
-0.00806771
-0.00610357
-0.00459784
-0.00344892
-0.00257639
-0.001917
-0.00142127
-0.00105073
-0.000775684
-0.000573386
-0.00042662
-0.000322553
-0.000251864
-0.000208096
-0.000187189
-8225.42
-4823.67
-2731.44
-1640.24
-1063.93
-740.329
-545.248
-419.622
-334.007
-272.826
-227.335
-192.362
-164.705
-142.302
-123.783
-108.211
-94.9293
-83.4684
-73.4856
-64.7259
-56.9966
-50.1488
-44.0656
-38.6532
-33.8348
-29.5463
-25.7332
-22.3479
-19.3487
-16.698
-14.362
-12.3097
-10.5128
-8.94506
-7.58244
-6.40271
-5.38542
-4.51183
-3.76481
-3.12874
-2.58951
-2.13439
-1.75195
-1.43203
-1.16562
-0.94477
-0.76252
-0.61281
-0.490394
-0.390753
-0.310023
-0.244916
-0.192649
-0.150883
-0.117662
-0.0913596
-0.0706301
-0.054368
-0.0416692
-0.0317984
-0.0241611
-0.018279
-0.0137698
-0.010329
-0.00771595
-0.0057412
-0.00425657
-0.00314686
-0.00232313
-0.00171727
-0.00127772
-0.000966041
-0.000754333
-0.000623252
-0.000560638
-5511.72
-4201.31
-2945.25
-2052.05
-1465.67
-1083.51
-828.948
-653.755
-528.895
-436.869
-366.924
-312.281
-268.542
-232.784
-203.01
-177.83
-156.256
-137.571
-121.246
-106.888
-94.1928
-82.9272
-72.9059
-63.9795
-56.0254
-48.9404
-42.6365
-37.0367
-32.0731
-27.6846
-23.8156
-20.4156
-17.4377
-14.8391
-12.58
-10.6238
-8.93661
-7.48757
-6.2483
-5.193
-4.29826
-3.54301
-2.90833
-2.37736
-1.93517
-1.56857
-1.26604
-1.0175
-0.814272
-0.648844
-0.514807
-0.406704
-0.319918
-0.250567
-0.195402
-0.151724
-0.1173
-0.0902943
-0.0692053
-0.0528125
-0.0401286
-0.0303597
-0.0228706
-0.0171559
-0.012816
-0.00953608
-0.00707021
-0.00522702
-0.00385882
-0.00285249
-0.00212239
-0.00160469
-0.00125303
-0.0010353
-0.000931298
-4107.68
-3523.84
-2795.48
-2156.34
-1662.54
-1298.49
-1032.73
-837.063
-690.523
-578.472
-490.925
-421.077
-364.253
-317.201
-277.628
-243.891
-214.796
-189.465
-167.24
-147.622
-130.228
-114.755
-100.964
-88.6599
-77.6806
-67.8898
-59.1698
-51.4174
-44.5408
-38.4572
-33.0911
-28.3731
-24.2394
-20.6309
-17.4928
-14.7747
-12.43
-10.4158
-8.6928
-7.22534
-5.98098
-4.93046
-4.04755
-3.30883
-2.69356
-2.18343
-1.7624
-1.4165
-1.13363
-0.90336
-0.716776
-0.566284
-0.445462
-0.348907
-0.272101
-0.211285
-0.163352
-0.125747
-0.0963804
-0.0735523
-0.0558887
-0.042284
-0.0318541
-0.0238952
-0.0178507
-0.0132826
-0.00984808
-0.00728083
-0.00537511
-0.00397341
-0.00295646
-0.00223534
-0.00174551
-0.00144222
-0.00129735
-3286.43
-2989.87
-2555.47
-2114.34
-1728.75
-1414.35
-1165.63
-970.565
-817.066
-695.072
-596.825
-516.546
-449.986
-394.03
-346.39
-305.373
-269.715
-238.466
-210.901
-186.463
-164.714
-145.31
-127.972
-112.47
-98.6128
-86.2373
-75.2013
-65.3794
-56.6591
-48.9383
-42.1234
-36.1281
-30.8726
-26.2827
-22.2896
-18.8298
-15.8442
-13.2788
-11.0838
-9.21389
-7.62796
-6.28885
-5.1632
-4.22125
-3.43661
-2.78597
-2.24892
-1.80766
-1.44676
-1.15296
-0.91487
-0.722824
-0.568631
-0.445399
-0.347366
-0.269739
-0.208553
-0.160548
-0.123058
-0.0939142
-0.0713628
-0.0539929
-0.0406759
-0.0305136
-0.0227955
-0.0169623
-0.0125767
-0.00929831
-0.00686467
-0.00507464
-0.00377591
-0.00285498
-0.00222941
-0.00184207
-0.00165705
-2760.4
-2592.42
-2320.88
-2015.58
-1722.58
-1463.46
-1243.9
-1061.62
-911.345
-787.286
-684.245
-597.91
-524.851
-462.401
-408.504
-361.578
-320.408
-284.055
-251.789
-223.033
-197.334
-174.323
-153.7
-135.216
-118.658
-103.844
-90.614
-78.824
-68.3448
-59.0578
-50.8537
-43.6312
-37.296
-31.76
-26.9417
-22.765
-19.1595
-16.0603
-13.4078
-11.1476
-9.23017
-7.61079
-6.24929
-5.10978
-4.16041
-3.37307
-2.72308
-2.18897
-1.75208
-1.39637
-1.1081
-0.875544
-0.688813
-0.539566
-0.420829
-0.326801
-0.252683
-0.194529
-0.14911
-0.113801
-0.086477
-0.0654306
-0.0492942
-0.0369799
-0.0276271
-0.0205581
-0.0152432
-0.01127
-0.00832055
-0.00615103
-0.00457694
-0.00346073
-0.00270249
-0.00223301
-0.00200875
-2400.72
-2296.93
-2118.49
-1903.03
-1681.13
-1471.69
-1283.69
-1119.63
-978.482
-857.71
-754.338
-665.526
-588.789
-522.049
-463.614
-412.127
-366.506
-325.89
-289.591
-257.059
-227.844
-201.582
-177.966
-156.74
-137.681
-120.595
-105.308
-91.6664
-79.5257
-68.7546
-59.2304
-50.8389
-43.4729
-37.0322
-31.4233
-26.5589
-22.3579
-18.7455
-15.6527
-13.0165
-10.7794
-8.8896
-7.30038
-5.97
-4.8614
-3.94184
-3.18259
-2.55859
-2.04812
-1.63245
-1.29554
-1.02372
-0.805445
-0.630968
-0.492147
-0.382206
-0.295539
-0.227533
-0.174417
-0.133121
-0.101163
-0.0765454
-0.0576701
-0.0432651
-0.0323237
-0.0240539
-0.0178357
-0.0131872
-0.0097363
-0.00719785
-0.00535603
-0.00404993
-0.00316269
-0.00261332
-0.0023509
-2142.92
-2074.21
-1951.29
-1795.17
-1625.55
-1456.94
-1298.15
-1153.46
-1024.17
-909.826
-809.14
-720.519
-642.357
-573.19
-511.739
-456.927
-407.858
-363.794
-324.129
-288.363
-256.081
-226.937
-200.635
-176.922
-155.575
-136.396
-119.204
-103.837
-90.1424
-77.9776
-67.2099
-57.714
-49.372
-42.0728
-35.7123
-30.193
-25.4241
-21.3216
-17.8078
-14.8117
-12.2684
-10.1193
-8.31161
-6.79797
-5.53638
-4.48972
-3.62537
-2.91488
-2.33357
-1.86014
-1.47637
-1.16672
-0.918021
-0.719211
-0.561015
-0.435718
-0.336937
-0.25942
-0.198871
-0.151793
-0.115358
-0.0872906
-0.0657685
-0.0493427
-0.0368659
-0.027435
-0.0203435
-0.015042
-0.0111061
-0.00821077
-0.00610997
-0.00462017
-0.00360812
-0.00298146
-0.00268212
-1951.65
-1903.56
-1815.19
-1698.8
-1567.09
-1430.63
-1296.91
-1170.49
-1053.68
-947.248
-851.047
-764.423
-686.506
-616.384
-553.183
-496.118
-444.501
-397.742
-355.338
-316.864
-281.955
-250.298
-221.62
-195.681
-172.267
-151.18
-132.242
-115.284
-100.148
-86.6865
-74.7573
-64.2267
-54.9677
-46.86
-39.7901
-33.6516
-28.345
-23.7776
-19.864
-16.5257
-13.691
-11.2949
-9.27883
-7.59029
-6.18261
-5.01448
-4.04964
-3.2564
-2.60728
-2.07854
-1.64988
-1.30395
-1.0261
-0.803946
-0.62716
-0.487126
-0.376717
-0.290067
-0.222378
-0.169745
-0.129009
-0.0976247
-0.0735583
-0.0551896
-0.0412361
-0.0306886
-0.0227571
-0.0168272
-0.0124246
-0.00918595
-0.00683589
-0.00516928
-0.00403709
-0.00333603
-0.00300114
-1806.03
-1770.78
-1704.79
-1615.5
-1511.26
-1399.63
-1286.59
-1176.32
-1071.42
-973.283
-882.446
-798.914
-722.384
-652.399
-588.445
-530.011
-476.617
-427.829
-383.259
-342.565
-305.444
-271.629
-240.878
-212.972
-187.711
-164.905
-144.381
-125.969
-109.51
-94.8517
-81.8465
-70.3542
-60.2402
-51.3767
-43.6423
-36.9225
-31.11
-26.1047
-21.8139
-18.1524
-15.0421
-12.4121
-10.1986
-8.34415
-6.79778
-5.51427
-4.4539
-3.58195
-2.86828
-2.28689
-1.81545
-1.43496
-1.12929
-0.884878
-0.690354
-0.536252
-0.414739
-0.319366
-0.244857
-0.186916
-0.142067
-0.107512
-0.0810127
-0.0607856
-0.0454195
-0.0338035
-0.025068
-0.0185368
-0.0136875
-0.0101201
-0.00753134
-0.00569541
-0.00444816
-0.00367583
-0.0033069
-1692.97
-1666.09
-1615.1
-1544.7
-1460.47
-1367.87
-1271.52
-1175.02
-1080.88
-990.74
-905.511
-825.628
-751.191
-682.098
-618.134
-559.029
-504.494
-454.245
-408.009
-365.534
-326.585
-290.944
-258.407
-228.783
-201.889
-177.551
-155.6
-135.872
-118.208
-102.454
-88.4604
-76.0809
-65.1758
-55.611
-47.2583
-39.9965
-33.7115
-28.2963
-23.652
-19.6871
-16.3177
-13.4677
-11.0682
-9.05732
-7.38007
-5.9876
-4.83694
-3.89055
-3.11581
-2.48455
-1.97259
-1.55933
-1.2273
-0.961766
-0.750407
-0.582949
-0.450891
-0.347231
-0.26624
-0.203252
-0.154493
-0.116924
-0.0881095
-0.0661141
-0.0494036
-0.0367705
-0.0272696
-0.0201658
-0.014891
-0.0110104
-0.00819425
-0.00619699
-0.0048401
-0.00399986
-0.00359848
-1603.84
-1582.64
-1542
-1485.02
-1415.54
-1337.49
-1254.47
-1169.44
-1084.7
-1001.89
-922.111
-846.051
-774.08
-706.36
-642.909
-583.657
-528.484
-477.241
-429.767
-385.896
-345.461
-308.297
-274.241
-243.132
-214.811
-189.117
-165.895
-144.985
-126.234
-109.486
-94.5899
-81.3982
-69.7664
-59.5553
-50.6314
-42.8677
-36.1441
-30.348
-25.3744
-21.1264
-17.5151
-14.4592
-11.8856
-9.72818
-7.92815
-6.43336
-5.19787
-4.18149
-3.34928
-2.67106
-2.12093
-1.67678
-1.31988
-1.03442
-0.807173
-0.627104
-0.485084
-0.373593
-0.286475
-0.218716
-0.166259
-0.125836
-0.0948312
-0.071162
-0.0531786
-0.0395823
-0.0293564
-0.02171
-0.0160321
-0.0118546
-0.00882298
-0.00667279
-0.00521194
-0.00430731
-0.00387517
-1532.76
-1515.52
-1482.2
-1434.94
-1376.42
-1309.55
-1237.11
-1161.52
-1084.8
-1008.5
-933.786
-861.471
-792.102
-726.02
-663.423
-604.401
-548.973
-497.111
-448.752
-403.812
-362.19
-323.773
-288.44
-256.062
-226.503
-199.624
-175.277
-153.316
-133.59
-115.946
-100.234
-86.304
-74.0093
-63.2068
-53.7587
-45.5332
-38.4053
-32.2571
-26.9788
-22.4685
-18.6325
-15.3854
-12.6497
-10.3557
-8.44115
-6.85085
-5.5361
-4.45426
-3.56828
-2.84609
-2.2602
-1.7871
-1.40688
-1.10272
-0.860551
-0.668637
-0.517256
-0.398404
-0.305524
-0.233277
-0.17734
-0.134232
-0.101165
-0.0759197
-0.0567373
-0.0422335
-0.0313243
-0.0231665
-0.0171085
-0.0126512
-0.00941631
-0.00712187
-0.00556296
-0.00459759
-0.00413642
-1475.55
-1461.13
-1433.12
-1393
-1342.73
-1284.48
-1220.42
-1152.53
-1082.55
-1011.92
-941.772
-872.973
-806.174
-741.84
-680.296
-621.757
-566.356
-514.163
-465.204
-419.468
-376.914
-337.48
-301.086
-267.634
-237.014
-209.103
-183.772
-160.882
-140.289
-121.844
-105.398
-90.802
-77.9066
-66.5665
-56.6406
-47.9931
-40.4947
-34.0233
-28.4647
-23.7127
-19.6694
-16.2455
-13.3599
-10.9394
-8.91865
-7.2397
-5.85131
-4.70862
-3.7726
-3.00948
-2.39026
-1.89017
-1.48819
-1.16658
-0.910478
-0.707498
-0.547369
-0.421634
-0.323365
-0.246918
-0.187724
-0.142101
-0.107103
-0.080381
-0.060075
-0.0447205
-0.0331708
-0.0245334
-0.0181189
-0.013399
-0.00997344
-0.00754362
-0.00589269
-0.00487029
-0.00438187
-1429.16
-1416.81
-1392.7
-1357.92
-1313.91
-1262.34
-1204.92
-1143.3
-1078.94
-1013.16
-947.036
-881.441
-817.079
-754.493
-694.096
-636.196
-581.016
-528.709
-479.374
-433.063
-389.792
-349.544
-312.277
-277.924
-246.4
-217.603
-191.415
-167.71
-146.351
-127.195
-110.095
-94.9011
-81.465
-69.6395
-59.2806
-50.2497
-42.4141
-35.6478
-29.833
-24.8595
-20.6262
-17.0399
-14.0163
-11.4793
-9.36067
-7.5999
-6.14348
-4.94452
-3.9622
-3.16118
-2.51108
-1.98596
-1.56378
-1.22597
-0.956934
-0.74367
-0.575408
-0.443271
-0.339987
-0.259631
-0.197404
-0.14944
-0.112642
-0.0845432
-0.0631897
-0.0470419
-0.0348946
-0.0258098
-0.0190626
-0.0140976
-0.010494
-0.00793775
-0.00620086
-0.00512521
-0.00461134
-1391.35
-1380.53
-1359.34
-1328.59
-1289.38
-1243.02
-1190.88
-1134.32
-1074.63
-1012.96
-950.324
-887.588
-825.47
-764.558
-705.325
-648.148
-593.316
-541.05
-491.509
-444.801
-400.989
-360.099
-322.121
-287.02
-254.733
-225.177
-198.25
-173.836
-151.805
-132.021
-114.34
-98.6145
-84.6949
-72.4336
-61.6851
-52.3081
-44.1672
-37.1335
-31.0858
-25.9108
-21.504
-17.7694
-14.6197
-11.976
-9.7676
-7.93174
-6.41283
-5.16214
-4.13721
-3.30127
-2.62271
-2.0745
-1.6337
-1.28093
-0.999935
-0.777165
-0.601381
-0.463321
-0.355395
-0.271419
-0.206382
-0.156248
-0.117782
-0.0884068
-0.0660815
-0.0491977
-0.0364958
-0.0269956
-0.0199395
-0.0147469
-0.0109779
-0.00830422
-0.00648747
-0.00536233
-0.00482481
-1360.39
-1350.73
-1331.75
-1304.08
-1268.58
-1226.3
-1178.36
-1125.9
-1070.05
-1011.84
-952.202
-891.977
-831.881
-772.526
-714.424
-657.997
-603.589
-551.47
-501.85
-454.882
-410.672
-369.281
-330.731
-295.013
-262.087
-231.887
-204.326
-179.298
-156.683
-136.349
-118.156
-101.959
-87.6097
-74.9597
-63.8624
-54.175
-45.7595
-38.4846
-32.2264
-26.869
-22.305
-18.4357
-15.1713
-12.4304
-10.1402
-8.23582
-6.65981
-5.36181
-4.29788
-3.42996
-2.72531
-2.15593
-1.69802
-1.33151
-1.03953
-0.80802
-0.625316
-0.481804
-0.369604
-0.282294
-0.214668
-0.162532
-0.122527
-0.0919749
-0.0687529
-0.0511897
-0.0379757
-0.0280919
-0.0207503
-0.0153474
-0.0114255
-0.0086433
-0.00675271
-0.00558181
-0.00502242
-1334.96
-1326.19
-1308.9
-1283.6
-1250.99
-1211.92
-1167.33
-1118.2
-1065.5
-1010.18
-953.094
-895.048
-836.745
-778.806
-721.767
-666.082
-612.132
-560.228
-510.62
-463.498
-419.003
-377.227
-338.221
-302
-268.542
-237.799
-209.697
-184.142
-161.02
-140.207
-121.566
-104.954
-90.2253
-77.2306
-65.8232
-55.8586
-47.1976
-39.7065
-33.2593
-27.7377
-23.0319
-19.041
-15.6728
-12.8439
-10.4796
-8.51297
-6.88509
-5.54405
-4.44462
-3.54756
-2.81912
-2.23042
-1.7569
-1.37783
-1.0758
-0.836297
-0.64726
-0.498756
-0.382641
-0.292274
-0.222274
-0.168304
-0.126887
-0.0952537
-0.0712084
-0.0530211
-0.0393366
-0.0291002
-0.0214963
-0.0159001
-0.0118376
-0.00895548
-0.00699696
-0.00578395
-0.00520444
-1314.03
-1305.93
-1289.95
-1266.5
-1236.15
-1199.62
-1157.71
-1111.27
-1061.16
-1008.24
-953.315
-897.141
-840.408
-783.736
-727.672
-672.695
-619.21
-567.56
-518.025
-470.827
-426.136
-384.07
-344.704
-308.074
-274.177
-242.979
-214.42
-188.414
-164.856
-143.628
-124.596
-107.622
-92.5594
-79.261
-67.5791
-57.3688
-48.4893
-40.8056
-34.1895
-28.5209
-23.688
-19.5879
-16.1264
-13.2183
-10.787
-8.76424
-7.08947
-5.70951
-4.57793
-3.65446
-2.90445
-2.2982
-1.8105
-1.42002
-1.10886
-0.862079
-0.667276
-0.514225
-0.394541
-0.301388
-0.229222
-0.173577
-0.130872
-0.0982515
-0.073454
-0.0546964
-0.0405819
-0.0300231
-0.0221793
-0.0164061
-0.012215
-0.00924147
-0.00722077
-0.00596922
-0.00537128
-1296.77
-1289.2
-1274.24
-1252.23
-1223.66
-1189.15
-1149.38
-1105.12
-1057.13
-1006.21
-953.095
-898.517
-843.144
-787.59
-732.407
-678.087
-625.055
-573.676
-524.254
-477.036
-432.216
-389.935
-350.288
-313.329
-279.072
-247.495
-218.55
-192.161
-168.231
-146.644
-127.275
-109.985
-94.6312
-81.0663
-69.1431
-58.7161
-49.6434
-41.7888
-35.0227
-29.2233
-24.2771
-20.0794
-16.5344
-13.5553
-11.064
-8.99085
-7.27393
-5.85894
-4.6984
-3.75114
-2.98165
-2.35957
-1.85906
-1.45826
-1.13884
-0.885466
-0.68544
-0.528268
-0.405349
-0.309668
-0.235537
-0.178372
-0.134496
-0.100979
-0.0754974
-0.0562213
-0.0417157
-0.0308636
-0.0228014
-0.0168672
-0.0125589
-0.00950218
-0.00742485
-0.00613818
-0.00552345
-1282.53
-1275.37
-1261.21
-1240.33
-1213.17
-1180.26
-1142.22
-1099.72
-1053.47
-1004.19
-952.6
-899.375
-845.17
-790.591
-736.192
-682.47
-629.865
-578.759
-529.473
-482.275
-437.377
-394.94
-355.076
-317.854
-283.302
-251.413
-222.145
-195.432
-171.184
-149.291
-129.63
-112.067
-96.4604
-82.6632
-70.5289
-59.9116
-50.669
-42.6638
-35.7651
-29.8499
-24.8031
-20.5187
-16.8995
-13.8572
-11.3124
-9.19415
-7.43955
-5.9932
-4.80672
-3.83811
-3.05116
-2.41485
-1.90281
-1.49274
-1.16587
-0.906573
-0.70184
-0.540953
-0.415115
-0.317153
-0.241248
-0.182709
-0.137775
-0.103447
-0.0773476
-0.0576024
-0.0427428
-0.0316252
-0.0233653
-0.0172852
-0.0128708
-0.00973868
-0.00761002
-0.00629152
-0.00566157
-1270.77
-1263.94
-1250.4
-1230.42
-1204.38
-1172.75
-1136.09
-1095.02
-1050.19
-1002.28
-951.949
-899.863
-846.656
-792.921
-739.21
-686.025
-633.813
-582.97
-533.83
-486.678
-441.74
-399.192
-359.162
-321.732
-286.942
-254.794
-225.257
-198.272
-173.755
-151.601
-131.691
-113.893
-98.067
-84.0683
-71.7502
-60.967
-51.5757
-43.4383
-36.4232
-30.4059
-25.2705
-20.9095
-17.2245
-14.1262
-11.5339
-9.37561
-7.58748
-6.11321
-4.90361
-3.91596
-3.1134
-2.46439
-1.94205
-1.52367
-1.19014
-0.925526
-0.716574
-0.552353
-0.423896
-0.323885
-0.246386
-0.186612
-0.140727
-0.10567
-0.0790146
-0.0588471
-0.0436688
-0.032312
-0.0238739
-0.0176623
-0.0131523
-0.00995216
-0.0077772
-0.00642999
-0.00578632
-1261.07
-1254.48
-1241.44
-1222.17
-1197.02
-1166.42
-1130.88
-1090.97
-1047.3
-1000.5
-951.224
-900.095
-847.732
-794.721
-741.609
-688.899
-637.045
-586.448
-537.457
-490.365
-445.413
-402.79
-362.635
-325.042
-290.059
-257.699
-227.939
-200.727
-175.982
-153.607
-133.484
-115.485
-99.4709
-85.2983
-72.8212
-61.8938
-52.3731
-44.1205
-37.0034
-30.8968
-25.6835
-21.2552
-17.5124
-14.3646
-11.7304
-9.53672
-7.71893
-6.21994
-4.98983
-3.98528
-3.16886
-2.50855
-1.97705
-1.55127
-1.21181
-0.942459
-0.729743
-0.562548
-0.431751
-0.32991
-0.250986
-0.190109
-0.143373
-0.107663
-0.080509
-0.0599633
-0.0444994
-0.0329282
-0.0243304
-0.0180009
-0.0134051
-0.0101439
-0.00792742
-0.00655444
-0.00589845
-1253.06
-1246.68
-1234.03
-1215.32
-1190.88
-1161.1
-1126.46
-1087.49
-1044.76
-998.89
-950.481
-900.152
-848.502
-796.108
-743.512
-691.218
-639.682
-589.312
-540.464
-493.442
-448.495
-405.823
-365.575
-327.853
-292.716
-260.184
-230.24
-202.838
-177.903
-155.341
-135.038
-116.867
-100.692
-86.3697
-73.7555
-62.7037
-53.0709
-44.7181
-37.5125
-31.328
-26.0467
-21.5595
-17.766
-14.5749
-11.9038
-9.67906
-7.83516
-6.31437
-5.06618
-4.04669
-3.21804
-2.54773
-2.00811
-1.57579
-1.23107
-0.957511
-0.741455
-0.571618
-0.438743
-0.335275
-0.255084
-0.193224
-0.145731
-0.10944
-0.0818421
-0.0609593
-0.0452407
-0.0334784
-0.0247381
-0.0183034
-0.013631
-0.0103153
-0.00806173
-0.00666574
-0.00599874
-1246.45
-1240.23
-1227.89
-1209.64
-1185.77
-1156.65
-1122.73
-1084.52
-1042.57
-997.449
-949.759
-900.094
-849.043
-797.171
-745.018
-693.084
-641.829
-591.664
-542.951
-496.001
-451.072
-408.37
-368.053
-330.232
-294.972
-262.3
-232.205
-204.645
-179.552
-156.832
-136.377
-118.06
-101.748
-87.2982
-74.5666
-63.4078
-53.6783
-45.2392
-37.9568
-31.7048
-26.3645
-21.826
-17.9883
-14.7594
-12.0561
-9.80418
-7.9374
-6.39749
-5.13343
-4.10084
-3.26141
-2.58231
-2.03555
-1.59745
-1.24809
-0.970826
-0.751819
-0.579649
-0.444936
-0.340029
-0.258716
-0.195987
-0.147823
-0.111017
-0.0830255
-0.0618438
-0.0458993
-0.0339673
-0.0251005
-0.0185723
-0.0138318
-0.0104678
-0.00818123
-0.00676479
-0.00608801
-1241.01
-1234.92
-1222.83
-1204.94
-1181.52
-1152.93
-1119.6
-1082
-1040.68
-996.176
-949.079
-899.966
-849.414
-797.984
-746.206
-694.583
-643.573
-593.59
-545.002
-498.123
-453.218
-410.5
-370.134
-332.236
-296.879
-264.094
-233.875
-206.186
-180.96
-158.109
-137.525
-119.086
-102.657
-88.0991
-75.2673
-64.0169
-54.2046
-45.6912
-38.3428
-32.0324
-26.6411
-22.0583
-18.1823
-14.9205
-12.1893
-9.9136
-8.02688
-6.47031
-5.19238
-4.14833
-3.29948
-2.61268
-2.05966
-1.61649
-1.26307
-0.982544
-0.760946
-0.586723
-0.450395
-0.344221
-0.26192
-0.198425
-0.149669
-0.112409
-0.0840707
-0.0626252
-0.0464813
-0.0343995
-0.0254209
-0.0188102
-0.0140096
-0.0106028
-0.00828704
-0.00685251
-0.00616708
-1236.54
-1230.55
-1218.66
-1201.05
-1178
-1149.83
-1116.97
-1079.88
-1039.06
-995.066
-948.455
-899.798
-849.663
-798.601
-747.142
-695.784
-644.985
-595.163
-546.687
-499.875
-454.999
-412.276
-371.875
-333.919
-298.484
-265.608
-235.289
-207.493
-182.158
-159.197
-138.506
-119.963
-103.437
-88.7866
-75.8697
-64.5413
-54.6584
-46.0814
-38.6763
-32.316
-26.8807
-22.2597
-18.3506
-15.0604
-12.305
-10.0088
-8.10482
-6.53377
-5.2438
-4.18977
-3.33273
-2.63921
-2.08074
-1.63316
-1.27617
-0.992807
-0.768942
-0.592925
-0.455181
-0.347898
-0.264732
-0.200566
-0.151291
-0.113632
-0.0849896
-0.0633124
-0.0469933
-0.0347798
-0.025703
-0.0190197
-0.0141661
-0.0107217
-0.00838028
-0.00692982
-0.00623678
-1232.86
-1226.95
-1215.22
-1197.85
-1175.09
-1147.26
-1114.78
-1078.09
-1037.69
-994.105
-947.893
-899.613
-849.822
-799.069
-747.878
-696.744
-646.127
-596.444
-548.067
-501.319
-456.473
-413.75
-373.326
-335.325
-299.83
-266.881
-236.48
-208.597
-183.171
-160.12
-139.34
-120.711
-104.101
-89.3739
-76.3851
-64.9906
-55.0477
-46.4166
-38.9632
-32.5601
-27.0873
-22.4334
-18.496
-15.1814
-12.4051
-10.0913
-8.17236
-6.58881
-5.28842
-4.22577
-3.36162
-2.66229
-2.09908
-1.64766
-1.28759
-1.00175
-0.775915
-0.598335
-0.459359
-0.351109
-0.267189
-0.202436
-0.152709
-0.114702
-0.0857933
-0.0639137
-0.0474414
-0.0351128
-0.02595
-0.0192032
-0.0143033
-0.0108259
-0.00846204
-0.00699764
-0.00629792
-1229.85
-1224.01
-1212.4
-1195.21
-1172.68
-1145.14
-1112.96
-1076.59
-1036.53
-993.281
-947.395
-899.424
-849.919
-799.421
-748.454
-697.51
-647.047
-597.485
-549.196
-502.505
-457.688
-414.97
-374.53
-336.497
-300.954
-267.947
-237.48
-209.525
-184.026
-160.9
-140.045
-121.344
-104.666
-89.8733
-76.8239
-65.3738
-55.38
-46.7032
-39.2088
-32.7693
-27.2644
-22.5826
-18.621
-15.2855
-12.4914
-10.1623
-8.23061
-6.63631
-5.32696
-4.25688
-3.38661
-2.68226
-2.11496
-1.66023
-1.29749
-1.00951
-0.781965
-0.603031
-0.462987
-0.353899
-0.269324
-0.204063
-0.153942
-0.115633
-0.0864929
-0.0644372
-0.0478318
-0.0354029
-0.0261653
-0.0193632
-0.014423
-0.0109168
-0.00853338
-0.00705683
-0.0063513
-1227.39
-1221.6
-1210.09
-1193.05
-1170.71
-1143.38
-1111.45
-1075.35
-1035.55
-992.579
-946.96
-899.241
-849.971
-799.685
-748.904
-698.119
-647.788
-598.328
-550.115
-503.475
-458.686
-415.977
-375.527
-337.468
-301.889
-268.836
-238.316
-210.303
-184.743
-161.556
-140.639
-121.878
-105.143
-90.2959
-77.1959
-65.699
-55.6625
-46.947
-39.418
-32.9477
-27.4157
-22.7101
-18.7278
-15.3746
-12.5653
-10.2233
-8.2806
-6.67711
-5.36009
-4.28364
-3.40811
-2.69946
-2.12864
-1.67107
-1.30603
-1.0162
-0.787188
-0.607087
-0.466122
-0.356311
-0.27117
-0.20547
-0.15501
-0.116439
-0.0870989
-0.0648909
-0.0481701
-0.0356545
-0.0263521
-0.019502
-0.0145268
-0.0109957
-0.00859535
-0.00710825
-0.00639767
-1225.38
-1219.63
-1208.21
-1191.28
-1169.09
-1141.94
-1110.2
-1074.31
-1034.74
-991.985
-946.582
-899.071
-849.992
-799.882
-749.255
-698.603
-648.381
-599.01
-550.862
-504.267
-459.504
-416.804
-376.348
-338.272
-302.664
-269.574
-239.011
-210.952
-185.343
-162.104
-141.138
-122.327
-105.544
-90.6521
-77.5098
-65.9738
-55.9015
-47.1535
-39.5954
-33.0991
-27.5442
-22.8186
-18.8188
-15.4505
-12.6283
-10.2753
-8.3233
-6.71198
-5.38842
-4.30654
-3.42653
-2.71419
-2.14037
-1.68036
-1.31335
-1.02195
-0.791677
-0.610575
-0.468819
-0.358386
-0.27276
-0.206682
-0.15593
-0.117134
-0.0876214
-0.0652822
-0.048462
-0.0358716
-0.0265133
-0.0196218
-0.0146165
-0.011064
-0.0086489
-0.0071527
-0.00643777
-1223.74
-1218.02
-1206.67
-1189.83
-1167.76
-1140.75
-1109.18
-1073.46
-1034.06
-991.486
-946.259
-898.915
-849.995
-800.028
-749.528
-698.986
-648.857
-599.559
-551.467
-504.911
-460.172
-417.481
-377.022
-338.933
-303.304
-270.185
-239.588
-211.491
-185.841
-162.562
-141.554
-122.702
-105.88
-90.9507
-77.7734
-66.2048
-56.1027
-47.3276
-39.745
-33.227
-27.6529
-22.9104
-18.8959
-15.5149
-12.6817
-10.3194
-8.35959
-6.74164
-5.41253
-4.32604
-3.44223
-2.72676
-2.15039
-1.6883
-1.31961
-1.02686
-0.795515
-0.613558
-0.471127
-0.360163
-0.274122
-0.20772
-0.156718
-0.11773
-0.0880696
-0.065618
-0.0487126
-0.036058
-0.0266518
-0.0197248
-0.0146936
-0.0111226
-0.00869497
-0.00719095
-0.00647228
-1222.41
-1216.72
-1205.41
-1188.66
-1166.68
-1139.78
-1108.33
-1072.75
-1033.5
-991.068
-945.983
-898.777
-849.984
-800.135
-749.74
-699.289
-649.236
-600
-551.955
-505.433
-460.715
-418.034
-377.574
-339.475
-303.829
-270.688
-240.064
-211.937
-186.255
-162.942
-141.9
-123.015
-106.16
-91.2001
-77.9938
-66.3982
-56.2713
-47.4736
-39.8707
-33.3345
-27.7443
-22.9877
-18.9609
-15.5693
-12.7269
-10.3568
-8.39029
-6.76675
-5.43296
-4.34258
-3.45554
-2.73743
-2.15889
-1.69504
-1.32494
-1.03104
-0.798781
-0.616098
-0.473093
-0.361677
-0.275283
-0.208606
-0.157391
-0.118238
-0.0884523
-0.0659048
-0.0489267
-0.0362174
-0.0267702
-0.0198129
-0.0147596
-0.0111728
-0.0087344
-0.0072237
-0.00650183
-1221.33
-1215.66
-1204.4
-1187.7
-1165.8
-1138.99
-1107.65
-1072.17
-1033.03
-990.721
-945.751
-898.655
-849.967
-800.213
-749.904
-699.528
-649.538
-600.353
-552.349
-505.855
-461.155
-418.483
-378.025
-339.919
-304.26
-271.101
-240.456
-212.304
-186.596
-163.255
-142.186
-123.274
-106.393
-91.4075
-78.1772
-66.5594
-56.4119
-47.5956
-39.9758
-33.4246
-27.821
-23.0525
-19.0155
-15.6149
-12.7649
-10.3882
-8.41613
-6.7879
-5.45018
-4.35653
-3.46678
-2.74644
-2.16607
-1.70074
-1.32944
-1.03458
-0.801547
-0.61825
-0.47476
-0.362962
-0.276268
-0.209358
-0.157962
-0.11867
-0.0887776
-0.0661486
-0.0491088
-0.0363529
-0.026871
-0.0198879
-0.0148158
-0.0112156
-0.008768
-0.00725161
-0.00652701
-1220.46
-1214.81
-1203.58
-1186.93
-1165.08
-1138.35
-1107.09
-1071.7
-1032.65
-990.434
-945.556
-898.549
-849.946
-800.27
-750.031
-699.716
-649.778
-600.636
-552.665
-506.196
-461.512
-418.847
-378.39
-340.28
-304.612
-271.439
-240.776
-212.605
-186.876
-163.514
-142.422
-123.488
-106.585
-91.579
-78.3292
-66.6931
-56.5288
-47.697
-40.0633
-33.4995
-27.8849
-23.1067
-19.061
-15.653
-12.7966
-10.4145
-8.43779
-6.80564
-5.46463
-4.36824
-3.47622
-2.75401
-2.17212
-1.70554
-1.33323
-1.03756
-0.803879
-0.620066
-0.476166
-0.364046
-0.277099
-0.209993
-0.158445
-0.119035
-0.0890526
-0.0663549
-0.0492629
-0.0364677
-0.0269563
-0.0199514
-0.0148634
-0.0112518
-0.00879649
-0.00727528
-0.00654838
-1219.76
-1214.12
-1202.91
-1186.3
-1164.51
-1137.83
-1106.63
-1071.32
-1032.34
-990.197
-945.394
-898.459
-849.923
-800.31
-750.128
-699.863
-649.968
-600.861
-552.918
-506.469
-461.798
-419.142
-378.686
-340.573
-304.897
-271.714
-241.038
-212.851
-187.105
-163.725
-142.616
-123.664
-106.743
-91.7204
-78.4546
-66.8035
-56.6254
-47.7809
-40.1358
-33.5617
-27.9379
-23.1516
-19.0989
-15.6848
-12.8231
-10.4364
-8.45585
-6.82045
-5.4767
-4.37803
-3.48412
-2.76035
-2.17718
-1.70956
-1.33641
-1.04006
-0.805835
-0.621589
-0.477346
-0.364956
-0.277798
-0.210527
-0.158851
-0.119343
-0.0892841
-0.0665285
-0.0493926
-0.0365644
-0.0270282
-0.020005
-0.0149035
-0.0112824
-0.00882053
-0.00729527
-0.00656642
-1219.2
-1213.57
-1202.38
-1185.8
-1164.04
-1137.41
-1106.26
-1071.01
-1032.09
-990.004
-945.259
-898.382
-849.901
-800.339
-750.203
-699.978
-650.118
-601.04
-553.119
-506.688
-462.029
-419.379
-378.925
-340.81
-305.129
-271.937
-241.25
-213.052
-187.292
-163.898
-142.774
-123.808
-106.873
-91.8364
-78.5576
-66.8943
-56.7049
-47.8501
-40.1956
-33.6131
-27.9817
-23.1888
-19.1303
-15.7111
-12.845
-10.4546
-8.47085
-6.83275
-5.48674
-4.38617
-3.49069
-2.76563
-2.1814
-1.71291
-1.33906
-1.04215
-0.807468
-0.622862
-0.478333
-0.365718
-0.278383
-0.210974
-0.15919
-0.1196
-0.089478
-0.066674
-0.0495014
-0.0366454
-0.0270885
-0.0200499
-0.0149372
-0.011308
-0.00884073
-0.00731205
-0.00658158
-1218.75
-1213.12
-1201.95
-1185.39
-1163.67
-1137.08
-1105.97
-1070.75
-1031.88
-989.846
-945.149
-898.318
-849.881
-800.359
-750.261
-700.068
-650.237
-601.182
-553.28
-506.862
-462.213
-419.569
-379.117
-341
-305.315
-272.117
-241.423
-213.214
-187.444
-164.039
-142.903
-123.925
-106.979
-91.9312
-78.6418
-66.9687
-56.77
-47.9068
-40.2447
-33.6553
-28.0177
-23.2194
-19.1561
-15.7328
-12.8631
-10.4696
-8.48324
-6.84292
-5.49504
-4.39291
-3.49613
-2.77
-2.18489
-1.7157
-1.34126
-1.04388
-0.808825
-0.62392
-0.479154
-0.366351
-0.27887
-0.211346
-0.159474
-0.119814
-0.0896397
-0.0667954
-0.0495922
-0.0367131
-0.0271389
-0.0200875
-0.0149654
-0.0113295
-0.00885761
-0.00732609
-0.00659425
-1218.39
-1212.77
-1201.61
-1185.07
-1163.37
-1136.81
-1105.73
-1070.55
-1031.72
-989.717
-945.058
-898.264
-849.862
-800.373
-750.304
-700.139
-650.329
-601.294
-553.407
-507.001
-462.36
-419.721
-379.271
-341.154
-305.465
-272.262
-241.561
-213.345
-187.567
-164.153
-143.008
-124.02
-107.065
-92.0082
-78.7104
-67.0293
-56.8232
-47.9532
-40.2848
-33.6898
-28.0473
-23.2445
-19.1773
-15.7506
-12.878
-10.482
-8.49343
-6.85129
-5.50188
-4.39847
-3.50062
-2.77361
-2.18778
-1.71799
-1.34308
-1.04531
-0.809948
-0.624795
-0.479833
-0.366876
-0.279273
-0.211654
-0.159708
-0.119992
-0.0897739
-0.0668962
-0.0496676
-0.0367693
-0.0271807
-0.0201187
-0.0149888
-0.0113473
-0.00887165
-0.00733778
-0.00660481
-1218.1
-1212.49
-1201.34
-1184.81
-1163.13
-1136.59
-1105.54
-1070.39
-1031.58
-989.614
-944.985
-898.22
-849.845
-800.383
-750.337
-700.193
-650.402
-601.382
-553.508
-507.112
-462.477
-419.842
-379.394
-341.276
-305.586
-272.379
-241.673
-213.451
-187.666
-164.244
-143.092
-124.097
-107.134
-92.0706
-78.766
-67.0784
-56.8664
-47.9908
-40.3174
-33.7179
-28.0713
-23.2649
-19.1946
-15.7651
-12.8901
-10.4921
-8.50178
-6.85814
-5.50748
-4.40302
-3.50431
-2.77657
-2.19015
-1.71988
-1.34457
-1.04649
-0.810872
-0.625516
-0.480393
-0.367308
-0.279605
-0.211909
-0.159902
-0.120139
-0.0898847
-0.0669794
-0.0497299
-0.0368158
-0.0272153
-0.0201445
-0.0150081
-0.0113621
-0.00888328
-0.00734745
-0.00661355
-1217.87
-1212.26
-1201.12
-1184.61
-1162.94
-1136.42
-1105.39
-1070.26
-1031.48
-989.53
-944.925
-898.183
-849.831
-800.389
-750.363
-700.235
-650.459
-601.451
-553.587
-507.199
-462.57
-419.938
-379.491
-341.373
-305.681
-272.472
-241.762
-213.535
-187.745
-164.318
-143.16
-124.159
-107.19
-92.121
-78.8109
-67.1182
-56.9013
-48.0213
-40.3439
-33.7407
-28.0908
-23.2816
-19.2087
-15.7769
-12.9
-10.5003
-8.50858
-6.86373
-5.51205
-4.40674
-3.50732
-2.779
-2.19209
-1.72143
-1.3458
-1.04746
-0.81163
-0.626107
-0.480852
-0.367663
-0.279878
-0.212118
-0.160061
-0.12026
-0.0899758
-0.0670479
-0.0497811
-0.036854
-0.0272438
-0.0201657
-0.0150241
-0.0113743
-0.00889287
-0.00735543
-0.00662076
-1217.69
-1212.09
-1200.95
-1184.45
-1162.79
-1136.28
-1105.27
-1070.15
-1031.39
-989.463
-944.877
-898.153
-849.818
-800.393
-750.382
-700.268
-650.503
-601.506
-553.65
-507.267
-462.643
-420.014
-379.569
-341.451
-305.758
-272.546
-241.833
-213.603
-187.808
-164.377
-143.214
-124.208
-107.235
-92.1614
-78.8469
-67.1501
-56.9294
-48.0459
-40.3652
-33.7591
-28.1066
-23.295
-19.2201
-15.7865
-12.908
-10.5069
-8.51409
-6.86827
-5.51577
-4.40977