/*--------------------------------*- C++ -*----------------------------------*\
  =========                 |
  \\      /  F ield         | OpenFOAM: The Open Source CFD Toolbox
   \\    /   O peration     | Website:  https://openfoam.org
    \\  /    A nd           | Version:  10
     \\/     M anipulation  |
\*---------------------------------------------------------------------------*/
FoamFile
{
    format      ascii;
    class       volScalarField;
    location    "108";
    object      gradTz;
}
// * * * * * * * * * * * * * * * * * * * * * * * * * * * * * * * * * * * * * //

dimensions      [0 -1 0 1 0 0 0];

internalField   nonuniform List<scalar> 
11250
(
-14397.5
-4190.99
-1566.93
-758.044
-446.848
-298.006
-213.122
-158.245
-119.68
-91.1152
-69.3014
-52.3936
-39.2364
-29.0349
-21.1946
-15.243
-10.7913
-7.51558
-5.14669
-3.46429
-2.29152
-1.48958
-0.951683
-0.597513
-0.368457
-0.223046
-0.132651
-0.0777641
-0.0451838
-0.0260741
-0.0147934
-0.00805121
-0.00406355
-0.00184493
-0.000740009
-0.000260758
-8.09276e-05
-2.22704e-05
-5.4793e-06
-1.21554e-06
-2.45102e-07
-4.52723e-08
-7.71625e-09
-1.22055e-09
-1.75619e-10
-1.4269e-11
-4.39047e-12
2.19524e-12
0
-1.09762e-12
0
1.31714e-11
0
-1.4269e-11
0
0
0
0
0
0
0
0
-2.08547e-11
-1.09762e-12
2.19523e-11
1.09762e-12
-1.09762e-12
0
1.09762e-12
-1.09762e-12
0
-5.48809e-12
-1.09762e-12
6.5857e-12
0
-8395.88
-4987.71
-2883.11
-1774.45
-1176.76
-829.23
-609.111
-458.702
-349.751
-267.626
-204.236
-154.765
-116.092
-86.0138
-62.8458
-45.2308
-32.0392
-22.3236
-15.293
-10.2972
-6.81318
-4.42985
-2.83064
-1.77735
-1.09609
-0.663684
-0.394885
-0.231496
-0.13427
-0.0772001
-0.043699
-0.0238659
-0.0121773
-0.00561814
-0.00229416
-0.000822621
-0.000259389
-7.23846e-05
-1.80258e-05
-4.04073e-06
-8.2211e-07
-1.52979e-07
-2.62451e-08
-4.18302e-09
-5.99299e-10
-5.92713e-11
-1.4269e-11
2.19523e-12
3.29285e-12
0
0
0
0
0
0
0
-2.19523e-12
0
5.48809e-12
-1.09762e-12
-3.29285e-12
1.09762e-12
1.09762e-12
8.78094e-12
-1.09762e-12
-1.20738e-11
1.09762e-12
2.19523e-12
-1.09762e-12
-4.39047e-12
1.09762e-12
4.39047e-12
0
-8.78094e-12
8.78094e-12
-5793.44
-4472.44
-3195.96
-2273.92
-1652.24
-1230.58
-934.66
-718.528
-555.113
-428.475
-328.939
-250.314
-188.343
-139.866
-102.372
-73.7785
-52.3172
-36.4839
-25.0114
-16.8511
-11.1554
-7.25625
-4.63807
-2.91277
-1.79671
-1.08843
-0.648049
-0.379875
-0.219732
-0.125641
-0.0708491
-0.0388928
-0.0201939
-0.009564
-0.00402052
-0.00148225
-0.000479084
-0.000136565
-3.46269e-05
-7.88096e-06
-1.62414e-06
-3.05515e-07
-5.28635e-08
-8.46483e-09
-1.25348e-09
-1.6574e-10
-1.31714e-11
0
0
-1.64643e-11
1.09762e-12
1.53666e-11
8.78094e-12
-1.31714e-11
-1.53666e-11
-2.19523e-12
6.58571e-12
9.87856e-12
0
5.48809e-12
0
0
1.09762e-12
5.48809e-12
-1.09762e-12
-5.48809e-12
0
0
0
-1.09762e-11
0
1.20738e-11
1.09762e-12
-1.09762e-12
-1.09762e-12
-4497.21
-3898.76
-3142.2
-2463.26
-1920.71
-1502.11
-1179.22
-927.001
-727.178
-567.274
-438.793
-335.746
-253.657
-188.952
-138.631
-100.098
-71.0873
-49.6334
-34.06
-22.9667
-15.2149
-9.90269
-6.33247
-3.97824
-2.45492
-1.48809
-0.886516
-0.519479
-0.2997
-0.170528
-0.0958417
-0.052905
-0.0279934
-0.0136395
-0.0059133
-0.00224343
-0.000743269
-0.000216306
-5.57946e-05
-1.28803e-05
-2.68595e-06
-5.10251e-07
-8.8986e-08
-1.43513e-08
-2.14035e-09
-2.97454e-10
-4.60999e-11
-1.09762e-12
-1.09762e-12
0
0
3.29285e-12
1.09762e-11
-4.39047e-12
-1.09762e-11
0
3.29285e-12
1.09762e-12
-2.19523e-12
0
-1.09762e-12
0
-1.20738e-11
-1.09762e-12
1.4269e-11
1.09762e-12
0
0
-2.19524e-12
0
8.78094e-12
1.09762e-12
-9.87856e-12
0
0
-3779.14
-3464.14
-2994.15
-2502.77
-2055.63
-1672.34
-1351.48
-1084.95
-864.096
-681.579
-531.525
-409.191
-310.581
-232.186
-170.83
-123.624
-87.9527
-61.4992
-42.2536
-28.5204
-18.9103
-12.3169
-7.88094
-4.9535
-3.0584
-1.85502
-1.10548
-0.647491
-0.372938
-0.211657
-0.118837
-0.0659823
-0.0354862
-0.0176964
-0.00786011
-0.00304748
-0.00102828
-0.000303786
-7.93355e-05
-1.85039e-05
-3.89215e-06
-7.44877e-07
-1.30713e-07
-2.11807e-08
-3.19955e-09
-4.45633e-10
-5.04904e-11
-5.48809e-12
-2.19523e-12
0
1.09762e-12
0
0
0
0
0
-5.48809e-12
0
1.20738e-11
0
-8.78094e-12
0
2.19523e-12
1.09762e-12
5.48809e-12
-2.19523e-12
-4.39047e-12
1.09762e-12
2.19523e-12
-5.48809e-12
-2.19523e-12
4.39047e-12
0
-5.48809e-12
5.48809e-12
-3350.67
-3160.65
-2846.59
-2481.24
-2114.68
-1773.18
-1467.34
-1199.56
-968.654
-772.099
-606.949
-470.139
-358.553
-269.06
-198.556
-144.035
-102.677
-71.912
-49.4743
-33.4317
-22.188
-14.4637
-9.26112
-5.82467
-3.59845
-2.1837
-1.30154
-0.762049
-0.438674
-0.248906
-0.139946
-0.078134
-0.042479
-0.0214781
-0.00967265
-0.0037972
-0.00129521
-0.000386283
-0.00010173
-2.39076e-05
-5.06397e-06
-9.75448e-07
-1.72236e-07
-2.80979e-08
-4.25546e-09
-6.05885e-10
-7.24428e-11
4.39047e-12
4.39047e-12
8.78094e-12
-3.29285e-12
-9.87856e-12
0
0
2.19524e-12
0
-5.48809e-12
-6.58571e-12
6.5857e-12
4.39047e-12
-1.09762e-12
0
4.39047e-12
0
-5.48809e-12
1.09762e-12
0
0
0
-1.09762e-11
-2.19523e-12
4.39047e-12
1.09762e-12
4.39047e-12
3.29285e-12
-3082.14
-2952.99
-2725.61
-2441.02
-2134.41
-1830.1
-1542.69
-1280.07
-1045.93
-841.482
-666.352
-519.149
-397.76
-299.587
-221.745
-161.251
-115.183
-80.8061
-55.6712
-37.6635
-25.022
-16.3256
-10.4615
-6.58424
-4.0702
-2.47106
-1.47301
-0.862407
-0.496558
-0.282003
-0.15888
-0.0890333
-0.0486572
-0.0247623
-0.0112369
-0.00444894
-0.00153146
-0.00046114
-0.000122646
-2.91126e-05
-6.22872e-06
-1.21193e-06
-2.16147e-07
-3.55782e-08
-5.43321e-09
-7.71625e-10
-9.7688e-11
-6.58571e-12
-3.29285e-12
-5.48809e-12
1.09762e-12
7.68332e-12
-3.29285e-12
-1.09762e-12
4.39047e-12
0
-2.19524e-12
0
2.19523e-12
2.19524e-12
0
1.09762e-12
-1.09762e-12
-1.09762e-12
1.09762e-12
-1.09762e-12
0
0
0
0
0
-4.39047e-12
-1.09762e-12
0
5.48809e-12
-2908.55
-2811.44
-2633.71
-2400.16
-2135.66
-1860.73
-1590.48
-1335.24
-1101.57
-893.23
-711.849
-557.469
-428.92
-324.168
-240.619
-175.387
-125.526
-88.2073
-60.8548
-41.2193
-27.4125
-17.9015
-11.4805
-7.23055
-4.47232
-2.71636
-1.6197
-0.948566
-0.546467
-0.310629
-0.175191
-0.0982418
-0.0537548
-0.0274818
-0.0125884
-0.00505185
-0.00176753
-0.000541785
-0.000146781
-3.54947e-05
-7.7346e-06
-1.53204e-06
-2.78029e-07
-4.6562e-08
-7.20696e-09
-1.01859e-09
-1.37202e-10
-1.53666e-11
-1.09762e-12
0
1.09762e-12
-1.09762e-12
-1.09762e-12
1.09762e-12
-7.68332e-12
0
-5.48809e-12
0
8.78094e-12
0
2.19523e-12
0
3.29285e-12
0
0
-1.09762e-12
0
-1.20738e-11
0
1.31714e-11
1.09762e-12
-8.78094e-12
-8.78094e-12
4.39047e-12
1.09762e-11
-2794.22
-2714.98
-2566.52
-2365.2
-2129.4
-1876.27
-1620.19
-1372.33
-1140.79
-930.94
-745.855
-586.685
-453.06
-343.461
-255.592
-186.702
-133.867
-94.2138
-65.0846
-44.1347
-29.3807
-19.2036
-12.3247
-7.76716
-4.80674
-2.9208
-1.74241
-1.02097
-0.588493
-0.334615
-0.188573
-0.105502
-0.0577189
-0.0297604
-0.0138913
-0.00572233
-0.00206231
-0.000651631
-0.000181829
-4.52126e-05
-1.01108e-05
-2.05107e-06
-3.80427e-07
-6.49833e-08
-1.02726e-08
-1.49276e-09
-1.87693e-10
-1.09762e-11
-7.68332e-12
-1.09762e-12
5.48809e-12
2.19524e-12
0
0
5.48809e-12
2.305e-11
-5.48809e-12
-2.41476e-11
0
1.09762e-12
1.09762e-12
-1.09762e-12
0
0
1.09762e-12
6.58571e-12
-1.09762e-12
-6.5857e-12
1.09762e-12
-1.09762e-12
0
1.09762e-12
0
-1.09762e-12
0
-2718.15
-2649.32
-2518.51
-2337.63
-2121.08
-1883.52
-1638.36
-1396.89
-1167.94
-957.875
-770.725
-608.458
-471.326
-358.245
-267.188
-195.542
-140.432
-98.9723
-68.4544
-46.4689
-30.9632
-20.254
-13.0077
-8.20216
-5.07831
-3.08726
-1.84283
-1.08059
-0.623166
-0.354158
-0.199015
-0.110801
-0.0606377
-0.0317449
-0.015272
-0.00653544
-0.00244996
-0.000803268
-0.00023169
-5.93092e-05
-1.36023e-05
-2.82045e-06
-5.33139e-07
-9.25665e-08
-1.48431e-08
-2.20511e-09
-3.05138e-10
-2.52452e-11
-1.31714e-11
-2.19523e-12
1.31714e-11
1.09762e-12
-4.39047e-12
1.09762e-12
3.29285e-12
1.4269e-11
0
-1.75619e-11
0
3.29285e-12
0
9.87856e-12
0
-9.87856e-12
0
1.64643e-11
1.09762e-12
-1.64643e-11
-1.09762e-12
2.19524e-12
5.48809e-12
-2.19524e-12
-5.48809e-12
0
0
-2667.33
-2604.73
-2484.77
-2316.9
-2113.12
-1886.42
-1649.31
-1412.93
-1186.45
-976.774
-788.562
-624.348
-484.849
-369.322
-275.964
-202.291
-145.482
-102.656
-71.0776
-48.2949
-32.2063
-21.082
-13.5475
-8.54674
-5.29384
-3.21969
-1.92313
-1.12868
-0.651367
-0.369949
-0.207081
-0.114578
-0.0627477
-0.0334546
-0.0166432
-0.00740383
-0.00287918
-0.000974424
-0.000288589
-7.5502e-05
-1.76297e-05
-3.71026e-06
-7.10073e-07
-1.24571e-07
-2.01665e-08
-3.03821e-09
-4.33559e-10
-4.93928e-11
1.09762e-12
-3.29285e-12
0
3.29285e-12
2.19523e-12
1.09762e-12
0
2.19523e-12
-1.09762e-12
-2.19523e-12
-2.19523e-12
1.09762e-12
1.09762e-12
0
-1.09762e-12
-1.09762e-12
1.09762e-12
1.09762e-12
1.09762e-12
-1.09762e-12
0
0
1.09762e-12
-6.5857e-12
0
5.48809e-12
0
-2633.41
-2574.61
-2461.39
-2301.81
-2106.46
-1887.17
-1655.81
-1423.29
-1198.89
-989.821
-801.124
-635.72
-494.656
-377.446
-282.463
-207.33
-149.28
-105.443
-73.074
-49.6915
-33.1612
-21.7203
-13.9648
-8.81388
-5.46133
-3.32282
-1.98587
-1.16654
-0.673843
-0.382614
-0.213438
-0.117408
-0.0642809
-0.0347598
-0.0177385
-0.00811394
-0.00323453
-0.00111716
-0.000336271
-8.912e-05
-2.10263e-05
-4.46253e-06
-8.59983e-07
-1.5174e-07
-2.47008e-08
-3.74507e-09
-5.33442e-10
-6.0369e-11
4.39047e-12
1.09762e-12
0
0
0
1.09762e-12
1.09762e-12
-2.19523e-12
0
-1.09762e-12
-1.09762e-12
3.29285e-12
1.4269e-11
-2.19523e-12
-1.31714e-11
0
-9.87856e-12
-2.08547e-11
8.78094e-12
2.19523e-11
0
0
0
0
-2.19524e-12
-3.29285e-12
5.48809e-12
-2610.84
-2554.39
-2445.39
-2291.1
-2101.26
-1886.97
-1659.62
-1429.92
-1207.15
-998.693
-809.823
-643.711
-501.632
-383.286
-287.177
-211.014
-152.076
-107.508
-74.5604
-50.7361
-33.8786
-22.2017
-14.2808
-9.01699
-5.58921
-3.40176
-2.03389
-1.19551
-0.691073
-0.392331
-0.218297
-0.119531
-0.0653461
-0.0355951
-0.0184222
-0.00855565
-0.00345596
-0.00120636
-0.000366162
-9.76837e-05
-2.31689e-05
-4.9385e-06
-9.55126e-07
-1.69055e-07
-2.75787e-08
-4.17424e-09
-5.87225e-10
-7.35404e-11
-1.20738e-11
0
2.19524e-12
1.09762e-12
-2.19523e-12
-1.09762e-12
0
0
0
0
0
2.19524e-12
-2.19524e-12
6.5857e-12
0
-1.86595e-11
-4.39047e-12
9.87856e-12
3.29285e-12
3.29285e-12
1.09762e-12
0
-1.09762e-12
0
0
1.09762e-12
-1.09762e-12
-2595.92
-2540.93
-2434.58
-2283.66
-2097.39
-1886.42
-1661.82
-1434.11
-1212.56
-1004.64
-815.749
-649.228
-506.503
-387.403
-290.529
-213.654
-154.092
-109.005
-75.6436
-51.5007
-34.4058
-22.5571
-14.5151
-9.16833
-5.68503
-3.46119
-2.07004
-1.21712
-0.703686
-0.399274
-0.221701
-0.12099
-0.0660129
-0.0360442
-0.0187644
-0.00877231
-0.00356408
-0.00124994
-0.000380802
-0.000101891
-2.42252e-05
-5.17401e-06
-1.0024e-06
-1.77664e-07
-2.90133e-08
-4.39706e-09
-6.0808e-10
-5.92713e-11
-3.29285e-12
0
1.09762e-12
0
-2.19523e-12
1.09762e-12
0
-1.09762e-12
-8.78094e-12
-8.78094e-12
4.39047e-12
8.78094e-12
4.39047e-12
0
-1.20738e-11
-1.09762e-12
1.31714e-11
2.19523e-12
-2.19523e-12
-1.09762e-12
1.09762e-12
-1.09762e-12
-4.39047e-12
-7.68332e-12
3.29285e-12
1.31714e-11
-3.29285e-12
-2586.13
-2532.06
-2427.36
-2278.59
-2094.62
-1885.83
-1663.06
-1436.73
-1216.07
-1008.57
-819.724
-652.973
-509.844
-390.252
-292.867
-215.508
-155.517
-110.07
-76.4172
-52.0488
-34.785
-22.8135
-14.6848
-9.27839
-5.75512
-3.50508
-2.09701
-1.23321
-0.712834
-0.404087
-0.223958
-0.121918
-0.0663952
-0.036256
-0.018908
-0.00885963
-0.00360716
-0.00126727
-0.000386633
-0.000103572
-2.46486e-05
-5.26878e-06
-1.02148e-06
-1.81177e-07
-2.96258e-08
-4.47718e-09
-6.00397e-10
-6.0369e-11
-6.58571e-12
0
0
0
2.19523e-12
0
-2.19524e-12
5.48809e-12
0
-5.48809e-12
1.09762e-12
0
-2.19524e-12
0
1.09762e-12
0
4.39047e-12
0
-4.39047e-12
-1.09762e-12
0
-4.39047e-12
4.39047e-12
5.48809e-12
-4.39047e-12
1.09762e-12
-1.09762e-12
-2579.78
-2526.27
-2422.61
-2275.19
-2092.69
-1885.32
-1663.76
-1438.36
-1218.31
-1011.13
-822.348
-655.474
-512.096
-392.189
-294.467
-216.786
-156.505
-110.811
-76.9587
-52.4338
-35.052
-22.9946
-14.8049
-9.35643
-5.80503
-3.53674
-2.11691
-1.24533
-0.719686
-0.407567
-0.225508
-0.122522
-0.0666168
-0.0363528
-0.018962
-0.00888994
-0.00362172
-0.00127308
-0.000388585
-0.000104135
-2.47911e-05
-5.3008e-06
-1.02796e-06
-1.82361e-07
-2.983e-08
-4.50023e-09
-6.16861e-10
-8.34189e-11
-3.29285e-12
6.5857e-12
-3.29285e-12
-9.87856e-12
3.29285e-12
-5.48809e-12
-2.19524e-12
1.53666e-11
-1.09762e-12
0
5.48809e-12
1.09762e-12
-8.78094e-12
-1.09762e-12
5.48809e-12
8.78094e-12
0
-8.78094e-12
0
-4.39047e-12
0
-6.58571e-12
-1.09762e-12
9.87856e-12
9.87856e-12
1.09762e-12
-8.78094e-12
-2575.69
-2522.53
-2419.52
-2272.94
-2091.38
-1884.91
-1664.14
-1439.36
-1219.73
-1012.77
-824.055
-657.116
-513.589
-393.482
-295.543
-217.649
-157.177
-111.318
-77.3301
-52.6988
-35.2364
-23.1199
-14.8883
-9.41065
-5.83976
-3.559
-2.1313
-1.25437
-0.724883
-0.410178
-0.226636
-0.122942
-0.0667578
-0.0364017
-0.0189825
-0.00889967
-0.00362608
-0.00127478
-0.000389151
-0.000104299
-2.48324e-05
-5.31011e-06
-1.02985e-06
-1.82712e-07
-2.98771e-08
-4.53097e-09
-6.22349e-10
-7.24428e-11
-1.64643e-11
0
1.09762e-12
0
-1.09762e-12
1.09762e-12
-4.39047e-12
-1.09762e-12
6.5857e-12
8.78094e-12
-1.09762e-12
-8.78094e-12
0
0
-2.19523e-12
4.39047e-12
2.19523e-12
-5.48809e-12
-2.19523e-12
0
2.19523e-12
-6.5857e-12
-4.39047e-12
6.5857e-12
4.39047e-12
8.78094e-12
-7.68332e-12
-2573.1
-2520.15
-2417.55
-2271.49
-2090.51
-1884.61
-1664.35
-1439.97
-1220.61
-1013.81
-825.148
-658.178
-514.561
-394.33
-296.253
-218.222
-157.624
-111.657
-77.58
-52.8778
-35.3615
-23.2053
-14.9453
-9.4479
-5.8637
-3.57442
-2.14133
-1.26073
-0.728546
-0.412003
-0.227411
-0.123224
-0.0668479
-0.0364288
-0.0189912
-0.00890287
-0.00362732
-0.00127523
-0.000389297
-0.000104341
-2.4843e-05
-5.31249e-06
-1.03032e-06
-1.82809e-07
-2.98837e-08
-4.51779e-09
-6.42106e-10
-7.57356e-11
-9.87856e-12
-1.09762e-12
1.09762e-12
0
-1.09762e-12
0
2.19524e-12
0
-1.09762e-12
0
-1.09762e-12
0
0
1.09762e-12
-1.09762e-12
0
0
0
-1.09762e-12
0
1.09762e-12
-1.4269e-11
4.39047e-12
9.87856e-12
-3.29285e-12
4.39047e-12
-1.09762e-12
-2571.47
-2518.66
-2416.29
-2270.56
-2089.94
-1884.4
-1664.46
-1440.33
-1221.16
-1014.46
-825.838
-658.854
-515.183
-394.876
-296.713
-218.595
-157.917
-111.88
-77.745
-52.9969
-35.4451
-23.2627
-14.9838
-9.47314
-5.88
-3.58485
-2.14795
-1.26479
-0.730815
-0.413107
-0.227871
-0.123388
-0.0668991
-0.0364432
-0.0189951
-0.008904
-0.00362768
-0.00127535
-0.000389333
-0.00010435
-2.48454e-05
-5.31303e-06
-1.03046e-06
-1.82841e-07
-2.98936e-08
-4.51999e-09
-6.38813e-10
-7.13451e-11
0
-1.09762e-12
1.09762e-12
0
-1.09762e-12
-1.09762e-12
0
1.09762e-12
-1.09762e-12
0
1.09762e-12
0
-3.29285e-12
0
3.29285e-12
0
1.09762e-12
8.78094e-12
0
-9.87856e-12
0
0
9.87856e-12
3.29285e-12
-1.4269e-11
-2.19523e-12
3.29285e-12
-2570.46
-2517.73
-2415.51
-2269.98
-2089.58
-1884.25
-1664.51
-1440.54
-1221.49
-1014.86
-826.268
-659.277
-515.576
-395.223
-297.006
-218.834
-158.104
-112.024
-77.8521
-53.0747
-35.5003
-23.3007
-15.0091
-9.4898
-5.89084
-3.59173
-2.15213
-1.26718
-0.732067
-0.413687
-0.228104
-0.12347
-0.0669238
-0.0364499
-0.0189968
-0.00890443
-0.00362779
-0.00127538
-0.000389341
-0.000104352
-2.48459e-05
-5.31316e-06
-1.0305e-06
-1.82816e-07
-2.98793e-08
-4.52109e-09
-6.50887e-10
-8.34189e-11
0
-8.78094e-12
0
0
0
1.09762e-12
1.09762e-12
-2.19523e-12
1.09762e-12
-1.09762e-12
2.19523e-12
-2.19523e-12
-1.09762e-11
3.29285e-12
7.68332e-12
-8.78094e-12
-1.09762e-11
9.87856e-12
9.87856e-12
5.48809e-12
-1.09762e-12
-4.39047e-12
0
-1.09762e-12
0
0
1.09762e-12
-2569.85
-2517.16
-2415.03
-2269.62
-2089.35
-1884.16
-1664.54
-1440.67
-1221.69
-1015.11
-826.531
-659.539
-515.821
-395.439
-297.189
-218.983
-158.222
-112.115
-77.9201
-53.1244
-35.5356
-23.325
-15.0254
-9.50061
-5.898
-3.59626
-2.15475
-1.26856
-0.732724
-0.413967
-0.22821
-0.123505
-0.0669343
-0.0364527
-0.0189975
-0.00890458
-0.00362782
-0.00127538
-0.000389343
-0.000104353
-2.4846e-05
-5.31318e-06
-1.03049e-06
-1.82844e-07
-2.99035e-08
-4.51889e-09
-6.21252e-10
-8.12237e-11
-1.86595e-11
1.09762e-12
7.68332e-12
0
0
1.09762e-12
2.19524e-12
1.86595e-11
-4.39047e-12
-1.75619e-11
1.09762e-12
0
-1.09762e-11
-1.09762e-12
1.31714e-11
0
-2.19523e-12
0
1.09762e-12
-1.09762e-12
0
-2.19524e-12
-2.19523e-12
6.58571e-12
-3.29285e-12
-7.68332e-12
8.78094e-12
-2569.48
-2516.82
-2414.74
-2269.4
-2089.21
-1884.1
-1664.55
-1440.74
-1221.81
-1015.26
-826.691
-659.699
-515.97
-395.573
-297.302
-219.075
-158.295
-112.171
-77.962
-53.155
-35.5574
-23.3401
-15.0357
-9.50766
-5.90277
-3.59925
-2.15641
-1.26936
-0.73307
-0.414101
-0.228256
-0.12352
-0.0669384
-0.0364537
-0.0189978
-0.00890463
-0.00362783
-0.00127539
-0.000389343
-0.000104353
-2.48461e-05
-5.31319e-06
-1.03049e-06
-1.82856e-07
-2.99024e-08
-4.52548e-09
-6.47594e-10
-6.58571e-11
2.19524e-12
-2.19523e-12
2.19524e-12
0
1.09762e-12
0
-3.29285e-12
9.87856e-12
0
-9.87856e-12
0
0
0
0
-1.64643e-11
0
1.64643e-11
0
1.09762e-12
0
0
-1.31714e-11
0
1.20738e-11
-3.29285e-12
1.09762e-12
2.19524e-12
-2569.26
-2516.62
-2414.57
-2269.26
-2089.12
-1884.06
-1664.56
-1440.79
-1221.87
-1015.34
-826.786
-659.794
-516.06
-395.653
-297.371
-219.131
-158.34
-112.204
-77.9873
-53.1734
-35.5704
-23.3493
-15.0422
-9.51234
-5.90602
-3.60126
-2.15747
-1.26984
-0.73326
-0.414167
-0.228277
-0.123526
-0.06694
-0.0364541
-0.0189978
-0.00890465
-0.00362784
-0.00127539
-0.000389343
-0.000104353
-2.48461e-05
-5.31318e-06
-1.03049e-06
-1.8285e-07
-2.9898e-08
-4.52548e-09
-6.34423e-10
-6.91499e-11
-1.09762e-12
0
1.09762e-12
0
-1.09762e-12
1.09762e-12
0
-1.09762e-12
-7.68332e-12
-1.09762e-12
7.68332e-12
1.09762e-12
0
0
0
-1.09762e-12
-4.39047e-12
1.20738e-11
4.39047e-12
-1.09762e-11
-2.19523e-12
-1.09762e-12
2.19523e-12
0
0
-1.09762e-11
1.20738e-11
-2569.13
-2516.5
-2414.47
-2269.19
-2089.07
-1884.04
-1664.56
-1440.81
-1221.91
-1015.39
-826.841
-659.849
-516.113
-395.701
-297.412
-219.165
-158.367
-112.225
-78.0024
-53.1841
-35.5779
-23.3544
-15.0461
-9.5155
-5.90839
-3.60274
-2.15822
-1.27017
-0.733376
-0.414204
-0.228288
-0.123528
-0.0669406
-0.0364542
-0.0189979
-0.00890466
-0.00362784
-0.00127539
-0.000389343
-0.000104353
-2.48461e-05
-5.31319e-06
-1.03049e-06
-1.8284e-07
-2.98903e-08
-4.5156e-09
-6.43204e-10
-7.57356e-11
2.19524e-12
0
0
5.48809e-12
0
-7.68332e-12
3.29285e-12
2.19523e-12
7.68332e-12
1.09762e-12
-1.20738e-11
0
-1.09762e-12
-1.09762e-12
-2.19524e-12
0
1.75619e-11
0
-1.4269e-11
0
1.09762e-12
-5.48809e-12
-2.19523e-12
6.58571e-12
-1.09762e-12
-1.09762e-12
2.19524e-12
-2569.06
-2516.43
-2414.41
-2269.14
-2089.04
-1884.03
-1664.56
-1440.82
-1221.94
-1015.42
-826.872
-659.881
-516.143
-395.728
-297.436
-219.186
-158.383
-112.238
-78.0113
-53.1901
-35.5817
-23.357
-15.0483
-9.51764
-5.91016
-3.60388
-2.1588
-1.2704
-0.733459
-0.414229
-0.228294
-0.12353
-0.066941
-0.0364543
-0.0189979
-0.00890466
-0.00362784
-0.00127539
-0.000389343
-0.000104353
-2.48461e-05
-5.31319e-06
-1.03049e-06
-1.82827e-07
-2.98771e-08
-4.52218e-09
-6.45399e-10
-8.23213e-11
5.48809e-12
-5.48809e-12
-8.78094e-12
5.48809e-12
8.78094e-12
-1.31714e-11
6.58571e-12
1.53666e-11
-2.19524e-12
-3.29285e-12
-5.48809e-12
2.19524e-12
1.09762e-12
-3.29285e-12
4.39047e-12
4.39047e-12
-4.39047e-12
-2.19524e-12
0
0
0
0
0
0
1.09762e-12
1.09762e-12
-2.19524e-12
-2569.02
-2516.39
-2414.38
-2269.11
-2089.03
-1884.02
-1664.56
-1440.83
-1221.95
-1015.44
-826.89
-659.899
-516.16
-395.744
-297.45
-219.199
-158.394
-112.245
-78.0165
-53.1932
-35.5834
-23.358
-15.0494
-9.51895
-5.91137
-3.60468
-2.15921
-1.27057
-0.733515
-0.414245
-0.228298
-0.123531
-0.0669412
-0.0364543
-0.0189979
-0.00890466
-0.00362784
-0.00127539
-0.000389343
-0.000104353
-2.48461e-05
-5.31322e-06
-1.03051e-06
-1.82831e-07
-2.98706e-08
-4.52767e-09
-6.5418e-10
-7.02475e-11
-1.09762e-12
0
-2.19523e-12
-1.09762e-12
3.29285e-12
0
0
0
8.78094e-12
-2.19523e-12
-5.48809e-12
1.09762e-12
-2.19523e-12
0
2.19523e-12
-2.19523e-12
-2.19523e-12
4.39047e-12
1.09762e-12
-3.29285e-12
0
0
2.19523e-12
0
-2.19523e-12
-5.48809e-12
5.48809e-12
-2568.99
-2516.37
-2414.36
-2269.1
-2089.02
-1884.01
-1664.56
-1440.83
-1221.96
-1015.45
-826.901
-659.909
-516.17
-395.752
-297.458
-219.206
-158.4
-112.25
-78.0192
-53.1947
-35.5841
-23.3583
-15.0498
-9.51964
-5.91204
-3.60514
-2.15944
-1.27066
-0.733547
-0.414254
-0.228301
-0.123531
-0.0669413
-0.0364544
-0.0189979
-0.00890466
-0.00362784
-0.00127539
-0.000389343
-0.000104353
-2.48461e-05
-5.3132e-06
-1.0305e-06
-1.82844e-07
-2.98903e-08
-4.52657e-09
-6.34423e-10
-8.12237e-11
-1.75619e-11
0
0
0
0
0
0
2.19523e-12
0
-1.09762e-12
0
0
-2.19524e-12
0
-4.39047e-12
-1.09762e-12
5.48809e-12
1.09762e-12
0
2.19523e-12
-1.09762e-12
-6.58571e-12
0
2.19524e-12
-1.4269e-11
4.39047e-12
1.31714e-11
-2568.98
-2516.36
-2414.35
-2269.09
-2089.01
-1884.01
-1664.56
-1440.84
-1221.96
-1015.45
-826.908
-659.916
-516.175
-395.757
-297.463
-219.21
-158.403
-112.252
-78.0206
-53.1954
-35.5843
-23.3584
-15.05
-9.51994
-5.91235
-3.60535
-2.15955
-1.27071
-0.733562
-0.414259
-0.228302
-0.123532
-0.0669413
-0.0364544
-0.0189979
-0.00890466
-0.00362784
-0.00127539
-0.000389343
-0.000104353
-2.48461e-05
-5.31319e-06
-1.0305e-06
-1.82849e-07
-2.98903e-08
-4.50462e-09
-6.32228e-10
-8.56142e-11
-1.31714e-11
-1.20738e-11
0
-5.48809e-12
-1.09762e-12
5.48809e-12
0
2.19523e-12
0
1.09762e-12
0
-2.19524e-12
0
-5.48809e-12
-1.75619e-11
4.39047e-12
1.86595e-11
0
-1.09762e-12
1.09762e-12
0
0
0
0
0
8.78094e-12
-8.78094e-12
-2568.97
-2516.35
-2414.34
-2269.08
-2089.01
-1884.01
-1664.56
-1440.84
-1221.97
-1015.46
-826.912
-659.92
-516.178
-395.759
-297.465
-219.212
-158.404
-112.253
-78.0212
-53.1957
-35.5844
-23.3584
-15.05
-9.52005
-5.91247
-3.60543
-2.15959
-1.27073
-0.733568
-0.414261
-0.228302
-0.123532
-0.0669413
-0.0364544
-0.0189979
-0.00890466
-0.00362784
-0.00127539
-0.000389343
-0.000104353
-2.48461e-05
-5.31319e-06
-1.03049e-06
-1.82818e-07
-2.9864e-08
-4.5145e-09
-6.51985e-10
-9.32975e-11
-1.53666e-11
-8.78094e-12
2.19523e-12
1.09762e-12
2.19523e-12
-1.09762e-12
-2.19523e-12
0
0
0
-1.09762e-12
0
1.09762e-12
-1.09762e-12
0
1.09762e-12
-3.29285e-12
0
3.29285e-12
9.87856e-12
3.29285e-12
-8.78094e-12
-2.41476e-11
-1.09762e-12
1.64643e-11
2.19523e-12
2.19523e-12
-2568.97
-2516.34
-2414.34
-2269.08
-2089.01
-1884.01
-1664.56
-1440.84
-1221.97
-1015.46
-826.915
-659.923
-516.18
-395.76
-297.465
-219.212
-158.405
-112.253
-78.0214
-53.1958
-35.5844
-23.3584
-15.05
-9.52009
-5.91251
-3.60546
-2.15961
-1.27073
-0.73357
-0.414261
-0.228302
-0.123532
-0.0669413
-0.0364544
-0.0189979
-0.00890466
-0.00362784
-0.00127539
-0.000389343
-0.000104353
-2.48461e-05
-5.3132e-06
-1.03049e-06
-1.82832e-07
-2.98793e-08
-4.49584e-09
-6.51985e-10
-1.03176e-10
-2.19524e-12
-1.09762e-12
0
1.4269e-11
0
-1.53666e-11
0
1.20738e-11
-1.09762e-12
-9.87856e-12
0
-1.09762e-12
1.09762e-12
0
0
0
0
0
9.87856e-12
2.19523e-12
-9.87856e-12
-6.58571e-12
-1.09762e-12
5.48809e-12
0
0
0
-2568.97
-2516.34
-2414.33
-2269.08
-2089
-1884.01
-1664.56
-1440.84
-1221.97
-1015.46
-826.917
-659.924
-516.181
-395.761
-297.466
-219.213
-158.405
-112.254
-78.0215
-53.1958
-35.5844
-23.3584
-15.05
-9.5201
-5.91252
-3.60547
-2.15961
-1.27073
-0.733571
-0.414261
-0.228302
-0.123532
-0.0669413
-0.0364544
-0.0189979
-0.00890466
-0.00362784
-0.00127539
-0.000389343
-0.000104353
-2.48461e-05
-5.31318e-06
-1.0305e-06
-1.82832e-07
-2.98815e-08
-4.50352e-09
-6.34423e-10
-9.00046e-11
-5.48809e-12
-2.19523e-12
-9.87856e-12
1.09762e-12
1.09762e-11
1.09762e-12
2.19524e-12
8.78094e-12
-1.31714e-11
-9.87856e-12
1.20738e-11
-1.09762e-12
-4.39047e-12
-3.29285e-12
4.39047e-12
3.29285e-12
0
0
1.09762e-12
-1.09762e-12
7.68332e-12
1.09762e-12
-4.39047e-12
0
-2.19524e-12
0
-2.19524e-12
-2568.96
-2516.34
-2414.33
-2269.08
-2089.01
-1884.01
-1664.56
-1440.84
-1221.97
-1015.46
-826.917
-659.924
-516.181
-395.761
-297.466
-219.213
-158.405
-112.254
-78.0215
-53.1958
-35.5845
-23.3584
-15.05
-9.5201
-5.91252
-3.60547
-2.15961
-1.27073
-0.733571
-0.414261
-0.228303
-0.123532
-0.0669413
-0.0364544
-0.0189979
-0.00890466
-0.00362784
-0.00127539
-0.000389343
-0.000104353
-2.48461e-05
-5.31318e-06
-1.03049e-06
-1.82838e-07
-2.98914e-08
-4.52328e-09
-6.36618e-10
-6.47594e-11
-1.09762e-12
-5.48809e-12
-3.29285e-12
3.29285e-12
7.68332e-12
0
-2.19523e-12
0
-1.75619e-11
-9.87856e-12
5.48809e-12
5.48809e-12
1.20738e-11
4.39047e-12
-2.19523e-12
0
-7.68332e-12
0
1.4269e-11
0
-4.39047e-12
-7.68332e-12
-1.09762e-12
-1.09762e-12
0
1.64643e-11
-6.5857e-12
-2568.96
-2516.34
-2414.33
-2269.08
-2089.01
-1884.01
-1664.56
-1440.84
-1221.97
-1015.46
-826.917
-659.925
-516.181
-395.761
-297.466
-219.213
-158.405
-112.254
-78.0215
-53.1958
-35.5845
-23.3584
-15.05
-9.5201
-5.91252
-3.60547
-2.15961
-1.27073
-0.733571
-0.414261
-0.228303
-0.123532
-0.0669413
-0.0364544
-0.0189979
-0.00890466
-0.00362784
-0.00127539
-0.000389343
-0.000104353
-2.48461e-05
-5.31317e-06
-1.03048e-06
-1.82848e-07
-2.99013e-08
-4.51999e-09
-6.37716e-10
-7.24428e-11
-6.58571e-12
-2.19523e-12
4.39047e-12
1.09762e-12
-1.09762e-12
-1.09762e-12
8.78094e-12
3.29285e-12
-1.09762e-11
-9.87856e-12
1.09762e-12
-5.48809e-12
1.09762e-12
1.31714e-11
-5.48809e-12
-1.09762e-12
6.5857e-12
0
1.09762e-12
0
-1.09762e-12
-1.31714e-11
0
6.58571e-12
-4.39047e-12
6.5857e-12
4.39047e-12
-2568.96
-2516.34
-2414.33
-2269.08
-2089.01
-1884.01
-1664.56
-1440.84
-1221.97
-1015.46
-826.917
-659.925
-516.181
-395.761
-297.466
-219.213
-158.405
-112.254
-78.0215
-53.1958
-35.5845
-23.3584
-15.05
-9.5201
-5.91252
-3.60547
-2.15961
-1.27073
-0.733571
-0.414261
-0.228303
-0.123532
-0.0669413
-0.0364544
-0.0189979
-0.00890466
-0.00362784
-0.00127539
-0.000389343
-0.000104353
-2.48461e-05
-5.31317e-06
-1.03049e-06
-1.82835e-07
-2.98947e-08
-4.51779e-09
-6.39911e-10
-8.12237e-11
1.09762e-11
-2.19523e-12
-4.39047e-12
3.29285e-12
-7.68332e-12
1.09762e-12
1.53666e-11
1.09762e-12
-1.75619e-11
8.78094e-12
1.31714e-11
-8.78094e-12
2.19524e-12
0
-2.19524e-12
-1.09762e-12
1.09762e-12
-3.29285e-12
4.39047e-12
4.39047e-12
1.09762e-12
-2.19524e-12
-5.48809e-12
1.09762e-12
1.09762e-12
-1.09762e-12
0
-2568.96
-2516.34
-2414.33
-2269.08
-2089.01
-1884.01
-1664.56
-1440.84
-1221.97
-1015.46
-826.917
-659.925
-516.181
-395.761
-297.466
-219.213
-158.405
-112.254
-78.0215
-53.1958
-35.5845
-23.3584
-15.05
-9.5201
-5.91252
-3.60547
-2.15961
-1.27073
-0.733571
-0.414261
-0.228303
-0.123532
-0.0669413
-0.0364544
-0.0189979
-0.00890466
-0.00362784
-0.00127539
-0.000389343
-0.000104353
-2.48461e-05
-5.31318e-06
-1.0305e-06
-1.82848e-07
-2.98815e-08
-4.52218e-09
-6.41009e-10
-8.01261e-11
-1.20738e-11
0
1.4269e-11
0
-7.68332e-12
1.09762e-12
-1.09762e-11
-1.09762e-12
9.87856e-12
0
3.29285e-12
-1.09762e-12
-2.19523e-12
-1.09762e-12
-5.48809e-12
-2.19523e-12
7.68332e-12
4.39047e-12
1.31714e-11
0
-1.31714e-11
8.78094e-12
1.31714e-11
-1.09762e-11
-1.09762e-11
-1.09762e-12
1.09762e-12
-2568.96
-2516.34
-2414.33
-2269.08
-2089.01
-1884.01
-1664.56
-1440.84
-1221.97
-1015.46
-826.917
-659.925
-516.181
-395.761
-297.466
-219.213
-158.405
-112.254
-78.0215
-53.1958
-35.5845
-23.3584
-15.05
-9.5201
-5.91252
-3.60547
-2.15961
-1.27073
-0.733571
-0.414261
-0.228303
-0.123532
-0.0669413
-0.0364544
-0.0189979
-0.00890466
-0.00362784
-0.00127539
-0.000389343
-0.000104353
-2.48461e-05
-5.31318e-06
-1.03046e-06
-1.82842e-07
-2.9898e-08
-4.51999e-09
-6.38813e-10
-9.54927e-11
-2.305e-11
0
7.68332e-12
1.4269e-11
7.68332e-12
-1.4269e-11
0
4.39047e-12
-8.78094e-12
-5.48809e-12
0
0
0
0
0
-3.29285e-12
0
4.39047e-12
0
-1.09762e-12
-8.78094e-12
-6.58571e-12
1.53666e-11
5.48809e-12
-8.78094e-12
0
3.29285e-12
-2568.96
-2516.34
-2414.33
-2269.08
-2089.01
-1884.01
-1664.56
-1440.84
-1221.97
-1015.46
-826.917
-659.925
-516.181
-395.761
-297.466
-219.213
-158.405
-112.254
-78.0215
-53.1958
-35.5845
-23.3584
-15.05
-9.5201
-5.91252
-3.60547
-2.15961
-1.27073
-0.733571
-0.414261
-0.228303
-0.123532
-0.0669413
-0.0364544
-0.0189979
-0.00890466
-0.00362784
-0.00127539
-0.000389343
-0.000104353
-2.48461e-05
-5.31317e-06
-1.03047e-06
-1.82828e-07
-2.98903e-08
-4.53426e-09
-6.65156e-10
-9.00046e-11
-3.29285e-12
-1.09762e-12
8.78094e-12
1.4269e-11
-8.78094e-12
-1.53666e-11
0
1.53666e-11
0
-1.31714e-11
0
-1.09762e-12
-3.29285e-12
-1.09762e-12
4.39047e-12
0
0
0
0
1.09762e-12
-1.09762e-12
-7.68332e-12
1.09762e-12
7.68332e-12
-8.78094e-12
0
7.68332e-12
-2568.96
-2516.34
-2414.33
-2269.08
-2089.01
-1884.01
-1664.56
-1440.84
-1221.97
-1015.46
-826.917
-659.925
-516.181
-395.761
-297.466
-219.213
-158.405
-112.254
-78.0215
-53.1958
-35.5845
-23.3584
-15.05
-9.5201
-5.91252
-3.60547
-2.15961
-1.27073
-0.733571
-0.414261
-0.228303
-0.123532
-0.0669413
-0.0364544
-0.0189979
-0.00890466
-0.00362784
-0.00127539
-0.000389343
-0.000104353
-2.48461e-05
-5.31321e-06
-1.03047e-06
-1.82795e-07
-2.98881e-08
-4.54633e-09
-6.50887e-10
-8.56142e-11
-9.87856e-12
0
1.09762e-12
0
0
-1.09762e-12
-9.87856e-12
0
4.39047e-12
0
5.48809e-12
0
-2.19523e-12
5.48809e-12
2.19523e-12
-4.39047e-12
0
-1.09762e-12
0
7.68332e-12
7.68332e-12
-6.5857e-12
-9.87856e-12
-7.68332e-12
-2.19523e-12
3.29285e-12
7.68332e-12
-2568.96
-2516.34
-2414.33
-2269.08
-2089.01
-1884.01
-1664.56
-1440.84
-1221.97
-1015.46
-826.917
-659.925
-516.181
-395.761
-297.466
-219.213
-158.405
-112.254
-78.0215
-53.1958
-35.5845
-23.3584
-15.05
-9.5201
-5.91252
-3.60547
-2.15961
-1.27073
-0.733571
-0.414261
-0.228303
-0.123532
-0.0669413
-0.0364544
-0.0189979
-0.00890466
-0.00362784
-0.00127539
-0.000389343
-0.000104353
-2.48461e-05
-5.31319e-06
-1.03047e-06
-1.82811e-07
-2.98947e-08
-4.54414e-09
-6.45399e-10
-8.34189e-11
-8.78094e-12
0
3.29285e-12
2.19524e-12
-7.68332e-12
-2.19524e-12
3.29285e-12
-1.09762e-12
-1.09762e-12
1.09762e-12
1.09762e-12
0
-1.09762e-12
1.09762e-12
-1.09762e-12
0
-4.39047e-12
0
4.39047e-12
1.09762e-12
4.39047e-12
0
-5.48809e-12
-4.39047e-12
1.09762e-12
4.39047e-12
0
-2568.96
-2516.34
-2414.33
-2269.08
-2089.01
-1884.01
-1664.56
-1440.84
-1221.97
-1015.46
-826.917
-659.925
-516.181
-395.761
-297.466
-219.213
-158.405
-112.254
-78.0215
-53.1958
-35.5845
-23.3584
-15.05
-9.5201
-5.91252
-3.60547
-2.15961
-1.27073
-0.733571
-0.414261
-0.228303
-0.123532
-0.0669413
-0.0364544
-0.0189979
-0.00890466
-0.00362784
-0.00127539
-0.000389343
-0.000104353
-2.48461e-05