/*--------------------------------*- C++ -*----------------------------------*\
  =========                 |
  \\      /  F ield         | OpenFOAM: The Open Source CFD Toolbox
   \\    /   O peration     | Website:  https://openfoam.org
    \\  /    A nd           | Version:  10
     \\/     M anipulation  |
\*---------------------------------------------------------------------------*/
FoamFile
{
    format      ascii;
    class       volScalarField;
    location    "370";
    object      T;
}
// * * * * * * * * * * * * * * * * * * * * * * * * * * * * * * * * * * * * * //

dimensions      [0 0 0 1 0 0 0];

internalField   nonuniform List<scalar> 
11250
(
249.856
167.599
139.429
127.04
120.291
116.017
113.033
110.811
109.081
107.691
106.549
105.595
104.787
104.099
103.507
102.998
102.558
102.177
101.849
101.565
101.32
101.11
100.929
100.775
100.644
100.532
100.438
100.359
100.293
100.238
100.193
100.155
100.124
100.099
100.078
100.062
100.048
100.038
100.029
100.023
100.017
100.013
100.01
100.008
100.006
100.004
100.003
100.002
100.002
100.001
100.001
100.001
100
100
100
100
100
100
100
100
100
100
100
100
100
100
100
100
100
100
100
100
100
100
100
331.541
248.713
202.515
175.492
158.411
146.78
138.358
131.961
126.925
122.85
119.485
116.663
114.271
112.225
110.467
108.95
107.639
106.505
105.524
104.676
103.946
103.317
102.778
102.317
101.925
101.592
101.311
101.075
100.877
100.713
100.576
100.463
100.371
100.295
100.234
100.185
100.145
100.113
100.088
100.068
100.052
100.04
100.03
100.023
100.017
100.013
100.01
100.007
100.005
100.004
100.003
100.002
100.001
100.001
100.001
100.001
100
100
100
100
100
100
100
100
100
100
100
100
100
100
100
100
100
100
100
359.143
293.211
246.452
214.036
191.127
174.386
161.716
151.818
143.879
137.374
131.955
127.383
123.487
120.146
117.265
114.775
112.619
110.751
109.134
107.735
106.529
105.49
104.599
103.838
103.189
102.638
102.173
101.782
101.454
101.181
100.955
100.768
100.615
100.49
100.388
100.306
100.24
100.188
100.146
100.113
100.087
100.066
100.05
100.038
100.029
100.021
100.016
100.012
100.009
100.006
100.005
100.003
100.002
100.002
100.001
100.001
100.001
100
100
100
100
100
100
100
100
100
100
100
100
100
100
100
100
100
100
370.973
318.56
276.091
243.13
217.746
198.008
182.399
169.824
159.516
150.937
143.708
137.558
132.284
127.738
123.805
120.395
117.435
114.866
112.638
110.709
109.043
107.608
106.376
105.321
104.423
103.66
103.015
102.473
102.018
101.64
101.326
101.067
100.854
100.681
100.54
100.426
100.334
100.261
100.202
100.156
100.12
100.092
100.07
100.053
100.04
100.03
100.022
100.016
100.012
100.009
100.006
100.005
100.003
100.002
100.002
100.001
100.001
100.001
100
100
100
100
100
100
100
100
100
100
100
100
100
100
100
100
100
377.175
334.001
296.279
264.726
238.821
217.622
200.186
185.716
173.587
163.323
154.564
147.039
140.54
134.905
130.007
125.745
122.034
118.806
116.001
113.569
111.465
109.651
108.091
106.756
105.617
104.65
103.832
103.143
102.566
102.086
101.687
101.357
101.087
100.866
100.687
100.542
100.425
100.332
100.258
100.199
100.153
100.117
100.089
100.067
100.051
100.038
100.028
100.021
100.015
100.011
100.008
100.006
100.004
100.003
100.002
100.002
100.001
100.001
100.001
100
100
100
100
100
100
100
100
100
100
100
100
100
100
100
100
380.916
344.037
310.371
280.779
255.32
233.627
215.18
199.459
186.001
174.424
164.417
155.731
148.17
141.572
135.808
130.771
126.372
122.534
119.192
116.289
113.773
111.601
109.732
108.13
106.763
105.6
104.617
103.788
103.094
102.515
102.034
101.637
101.312
101.045
100.829
100.654
100.513
100.401
100.311
100.241
100.185
100.141
100.108
100.081
100.061
100.046
100.034
100.025
100.019
100.014
100.01
100.007
100.005
100.004
100.003
100.002
100.001
100.001
100.001
100
100
100
100
100
100
100
100
100
100
100
100
100
100
100
100
383.384
350.917
320.48
292.823
268.209
246.57
227.661
211.171
196.788
184.222
173.225
163.585
155.124
147.693
141.166
135.438
130.417
126.024
122.189
118.85
115.952
113.446
111.287
109.434
107.851
106.505
105.364
104.403
103.597
102.925
102.367
101.905
101.527
101.217
100.965
100.762
100.598
100.467
100.363
100.28
100.216
100.165
100.125
100.095
100.071
100.054
100.04
100.03
100.022
100.016
100.012
100.008
100.006
100.004
100.003
100.002
100.002
100.001
100.001
100.001
100
100
100
100
100
100
100
100
100
100
100
100
100
100
100
385.111
355.829
327.914
301.97
278.307
256.999
237.969
221.052
206.051
192.764
181.002
170.592
161.384
153.244
146.058
139.722
134.148
129.255
124.973
121.237
117.988
115.174
112.747
110.661
108.877
107.358
106.071
104.985
104.074
103.314
102.682
102.16
101.731
101.38
101.095
100.864
100.678
100.53
100.412
100.318
100.245
100.187
100.142
100.108
100.081
100.061
100.045
100.034
100.025
100.018
100.013
100.01
100.007
100.005
100.004
100.003
100.002
100.001
100.001
100.001
100
100
100
100
100
100
100
100
100
100
100
100
100
100
100
386.368
359.447
333.499
309.002
286.256
265.399
246.444
229.327
213.935
200.137
187.795
176.777
166.959
158.226
150.476
143.613
137.553
132.217
127.535
123.441
119.874
116.779
114.105
111.804
109.835
108.156
106.733
105.531
104.522
103.679
102.979
102.4
101.923
101.534
101.217
100.961
100.755
100.589
100.458
100.354
100.272
100.208
100.159
100.12
100.09
100.068
100.05
100.037
100.028
100.02
100.015
100.011
100.008
100.006
100.004
100.003
100.002
100.001
100.001
100.001
100
100
100
100
100
100
100
100
100
100
100
100
100
100
100
387.307
362.175
337.767
314.468
292.549
272.17
253.396
236.223
220.601
206.45
193.678
182.186
171.876
162.653
154.428
147.114
140.632
134.908
129.871
125.457
121.604
118.255
115.357
112.861
110.722
108.897
107.347
106.039
104.939
104.02
103.256
102.624
102.104
101.678
101.332
101.052
100.826
100.645
100.502
100.388
100.298
100.228
100.174
100.132
100.099
100.074
100.055
100.041
100.03
100.022
100.016
100.012
100.008
100.006
100.004
100.003
100.002
100.002
100.001
100.001
100.001
100
100
100
100
100
100
100
100
100
100
100
100
100
100
388.024
364.267
341.073
318.756
297.557
277.638
259.092
241.951
226.206
211.82
198.733
186.877
176.176
166.553
157.931
150.234
143.39
137.329
131.981
127.285
123.177
119.601
116.503
113.83
111.537
109.578
107.914
106.508
105.325
104.336
103.513
102.832
102.271
101.812
101.439
101.136
100.893
100.698
100.542
100.419
100.323
100.247
100.188
100.142
100.107
100.08
100.06
100.044
100.033
100.024
100.017
100.013
100.009
100.007
100.005
100.003
100.002
100.002
100.001
100.001
100.001
100
100
100
100
100
100
100
100
100
100
100
100
100
100
388.58
365.894
343.662
322.147
301.562
282.063
263.755
246.695
230.901
216.363
203.051
190.917
179.907
169.96
161.011
152.993
145.842
139.489
133.873
128.929
124.597
120.819
117.542
114.711
112.279
110.2
108.433
106.937
105.679
104.626
103.749
103.023
102.425
101.936
101.537
101.214
100.954
100.746
100.58
100.449
100.345
100.264
100.201
100.152
100.115
100.086
100.064
100.047
100.035
100.026
100.019
100.014
100.01
100.007
100.005
100.004
100.003
100.002
100.001
100.001
100.001
100
100
100
100
100
100
100
100
100
100
100
100
100
100
389.014
367.172
345.707
324.845
304.776
285.649
267.573
250.617
234.819
220.189
206.717
194.375
183.124
172.916
163.699
155.414
148.002
141.403
135.554
130.395
125.867
121.913
118.477
115.506
112.95
110.764
108.903
107.328
106.001
104.89
103.965
103.198
102.566
102.049
101.627
101.286
101.011
100.79
100.615
100.476
100.366
100.28
100.213
100.162
100.122
100.091
100.068
100.05
100.037
100.027
100.02
100.014
100.01
100.007
100.005
100.004
100.003
100.002
100.001
100.001
100.001
100
100
100
100
100
100
100
100
100
100
100
100
100
100
389.358
368.183
347.332
327.002
307.364
288.56
270.697
253.853
238.079
223.398
209.815
197.317
185.879
175.464
166.028
157.522
149.893
143.084
137.037
131.693
126.995
122.887
119.312
116.217
113.553
111.271
109.327
107.68
106.292
105.129
104.16
103.357
102.695
102.152
101.71
101.351
101.062
100.831
100.646
100.5
100.385
100.295
100.224
100.17
100.128
100.096
100.072
100.053
100.039
100.029
100.021
100.015
100.011
100.008
100.006
100.004
100.003
100.002
100.001
100.001
100.001
100
100
100
100
100
100
100
100
100
100
100
100
100
100
389.631
368.988
348.63
328.733
309.453
290.924
273.252
256.52
240.784
226.079
212.421
199.808
188.225
177.645
168.033
159.346
151.536
144.551
138.335
132.834
127.99
123.748
120.052
116.849
114.089
111.723
109.706
107.996
106.554
105.344
104.336
103.5
102.81
102.245
101.784
101.41
101.109
100.867
100.675
100.522
100.402
100.308
100.235
100.178
100.134
100.1
100.075
100.055
100.041
100.03
100.022
100.016
100.011
100.008
100.006
100.004
100.003
100.002
100.001
100.001
100.001
100
100
100
100
100
100
100
100
100
100
100
100
100
100
389.848
369.631
349.67
330.125
311.141
292.845
275.341
258.713
243.023
228.312
214.605
201.907
190.213
179.503
169.75
160.914
152.954
145.822
139.465
133.829
128.861
124.503
120.703
117.407
114.563
112.124
110.042
108.276
106.786
105.536
104.493
103.628
102.914
102.328
101.851
101.463
101.151
100.901
100.701
100.543
100.418
100.32
100.244
100.185
100.139
100.104
100.078
100.058
100.043
100.031
100.023
100.017
100.012
100.009
100.006
100.004
100.003
100.002
100.002
100.001
100.001
100
100
100
100
100
100
100
100
100
100
100
100
100
100
390.022
370.146
350.505
331.247
312.507
294.406
277.047
260.513
244.871
230.165
216.426
203.668
191.889
181.077
171.209
162.254
154.171
146.916
140.44
134.692
129.617
125.162
121.273
117.896
114.98
112.476
110.339
108.524
106.992
105.706
104.632
103.741
103.006
102.403
101.91
101.511
101.188
100.93
100.724
100.561
100.432
100.331
100.252
100.191
100.144
100.108
100.08
100.06
100.044
100.032
100.024
100.017
100.012
100.009
100.006
100.004
100.003
100.002
100.002
100.001
100.001
100.001
100
100
100
100
100
100
100
100
100
100
100
100
100
390.162
370.56
351.177
332.151
313.612
295.674
278.438
261.989
246.392
231.698
217.94
205.138
193.294
182.403
172.445
163.391
155.208
147.852
141.278
135.435
130.271
125.733
121.767
118.321
115.343
112.784
110.598
108.741
107.173
105.855
104.755
103.842
103.087
102.468
101.963
101.553
101.222
100.956
100.744
100.576
100.444
100.34
100.259
100.196
100.148
100.111
100.083
100.061
100.045
100.033
100.024
100.018
100.013
100.009
100.007
100.005
100.003
100.002
100.002
100.001
100.001
100.001
100
100
100
100
100
100
100
100
100
100
100
100
100
390.274
370.893
351.717
332.881
314.505
296.703
279.571
263.195
247.641
232.962
219.194
206.36
194.468
183.514
173.484
164.352
156.087
148.649
141.992
136.07
130.832
126.223
122.193
118.688
115.657
113.051
110.824
108.931
107.33
105.986
104.863
103.929
103.159
102.526
102.009
101.59
101.251
100.979
100.763
100.591
100.455
100.349
100.266
100.201
100.152
100.114
100.085
100.063
100.046
100.034
100.025
100.018
100.013
100.009
100.007
100.005
100.003
100.002
100.002
100.001
100.001
100.001
100
100
100
100
100
100
100
100
100
100
100
100
100
390.364
371.16
352.152
333.469
315.227
297.536
280.493
264.179
248.664
234
220.228
207.372
195.444
184.442
174.354
165.16
156.828
149.322
142.598
136.611
131.31
126.643
122.558
119.003
115.928
113.282
111.019
109.094
107.467
106.099
104.956
104.006
103.221
102.576
102.049
101.622
101.277
101
100.778
100.603
100.465
100.356
100.271
100.206
100.155
100.116
100.087
100.064
100.048
100.035
100.025
100.018
100.013
100.01
100.007
100.005
100.003
100.002
100.002
100.001
100.001
100.001
100
100
100
100
100
100
100
100
100
100
100
100
100
390.437
371.374
352.502
333.942
315.81
298.211
281.24
264.98
249.498
234.851
221.078
208.207
196.251
185.212
175.079
165.834
157.449
149.888
143.109
137.068
131.715
126.999
122.869
119.272
116.159
113.479
111.186
109.235
107.585
106.197
105.036
104.072
103.275
102.62
102.085
101.65
101.299
101.017
100.792
100.614
100.473
100.363
100.276
100.21
100.158
100.119
100.088
100.066
100.048
100.036
100.026
100.019
100.014
100.01
100.007
100.005
100.004
100.002
100.002
100.001
100.001
100.001
100
100
100
100
100
100
100
100
100
100
100
100
100
390.495
371.546
352.783
334.323
316.279
298.755
281.845
265.63
250.178
235.546
221.774
208.893
196.916
185.848
175.68
166.395
157.967
150.361
143.537
137.451
132.056
127.3
123.132
119.5
116.355
113.647
111.328
109.355
107.685
106.28
105.106
104.129
103.321
102.657
102.115
101.674
101.318
101.032
100.804
100.623
100.48
100.368
100.281
100.213
100.161
100.12
100.09
100.067
100.049
100.036
100.026
100.019
100.014
100.01
100.007
100.005
100.004
100.003
100.002
100.001
100.001
100.001
100
100
100
100
100
100
100
100
100
100
100
100
100
390.541
371.684
353.008
334.629
316.657
299.194
282.333
266.155
250.729
236.111
222.342
209.454
197.462
186.371
176.176
166.859
158.396
150.754
143.894
137.772
132.341
127.552
123.353
119.693
116.521
113.789
111.449
109.457
107.771
106.352
105.164
104.177
103.361
102.689
102.141
101.695
101.335
101.046
100.815
100.631
100.487
100.373
100.284
100.216
100.163
100.122
100.091
100.068
100.05
100.037
100.027
100.019
100.014
100.01
100.007
100.005
100.004
100.003
100.002
100.001
100.001
100.001
100
100
100
100
100
100
100
100
100
100
100
100
100
390.578
371.795
353.188
334.874
316.96
299.547
282.727
266.58
251.175
236.569
222.804
209.911
197.907
186.8
176.583
167.241
158.75
151.079
144.19
138.039
132.579
127.762
123.538
119.854
116.66
113.908
111.551
109.543
107.843
106.412
105.214
104.218
103.394
102.717
102.163
101.713
101.349
101.057
100.823
100.638
100.492
100.377
100.288
100.218
100.165
100.123
100.092
100.068
100.05
100.037
100.027
100.02
100.014
100.01
100.007
100.005
100.004
100.003
100.002
100.001
100.001
100.001
100
100
100
100
100
100
100
100
100
100
100
100
100
390.608
371.883
353.332
335.07
317.202
299.829
283.042
266.921
251.534
236.938
223.177
210.281
198.27
187.149
176.915
167.553
159.041
151.347
144.433
138.259
132.776
127.937
123.691
119.988
116.776
114.008
111.636
109.615
107.903
106.462
105.256
104.253
103.422
102.74
102.181
101.727
101.361
101.066
100.831
100.644
100.496
100.381
100.29
100.22
100.166
100.125
100.093
100.069
100.051
100.037
100.027
100.02
100.014
100.01
100.007
100.005
100.004
100.003
100.002
100.001
100.001
100.001
100
100
100
100
100
100
100
100
100
100
100
100
100
390.632
371.953
353.447
335.226
317.395
300.055
283.295
267.194
251.823
237.236
223.478
210.581
198.563
187.432
177.185
167.808
159.278
151.566
144.633
138.439
132.938
128.081
123.818
120.099
116.873
114.091
111.707
109.675
107.954
106.505
105.291
104.282
103.446
102.759
102.197
101.74
101.371
101.074
100.837
100.649
100.5
100.384
100.293
100.222
100.167
100.126
100.094
100.07
100.051
100.038
100.028
100.02
100.014
100.01
100.007
100.005
100.004
100.003
100.002
100.001
100.001
100.001
100
100
100
100
100
100
100
100
100
100
100
100
100
390.65
372.008
353.538
335.35
317.549
300.235
283.496
267.413
252.053
237.474
223.72
210.821
198.799
187.661
177.404
168.014
159.471
151.744
144.796
138.587
133.071
128.199
123.922
120.19
116.952
114.159
111.765
109.725
107.996
106.54
105.321
104.306
103.466
102.775
102.21
101.751
101.379
101.081
100.842
100.653
100.504
100.386
100.294
100.223
100.169
100.126
100.094
100.07
100.052
100.038
100.028
100.02
100.015
100.01
100.007
100.005
100.004
100.003
100.002
100.001
100.001
100.001
100
100
100
100
100
100
100
100
100
100
100
100
100
390.665
372.052
353.61
335.448
317.671
300.378
283.656
267.587
252.237
237.665
223.913
211.014
198.989
187.845
177.58
168.181
159.627
151.888
144.929
138.707
133.179
128.295
124.007
120.265
117.017
114.215
111.813
109.765
108.03
106.569
105.345
104.326
103.482
102.788
102.221
101.759
101.386
101.086
100.847
100.656
100.506
100.388
100.296
100.225
100.169
100.127
100.095
100.07
100.052
100.038
100.028
100.02
100.015
100.011
100.008
100.005
100.004
100.003
100.002
100.001
100.001
100.001
100
100
100
100
100
100
100
100
100
100
100
100
100
390.677
372.087
353.667
335.526
317.768
300.49
283.783
267.725
252.383
237.816
224.067
211.168
199.141
187.992
177.721
168.315
159.752
152.004
145.035
138.804
133.266
128.374
124.077
120.325
117.07
114.261
111.852
109.799
108.059
106.592
105.364
104.342
103.496
102.799
102.23
101.766
101.392
101.091
100.85
100.659
100.508
100.39
100.297
100.226
100.17
100.128
100.095
100.071
100.052
100.038
100.028
100.02
100.015
100.011
100.008
100.005
100.004
100.003
100.002
100.001
100.001
100.001
100
100
100
100
100
100
100
100
100
100
100
100
100
390.686
372.114
353.712
335.587
317.844
300.579
283.883
267.834
252.499
237.936
224.189
211.29
199.261
188.109
177.834
168.422
159.853
152.098
145.121
138.882
133.337
128.437
124.132
120.374
117.113
114.298
111.884
109.826
108.082
106.612
105.381
104.355
103.507
102.808
102.237
101.772
101.397
101.095
100.853
100.662
100.51
100.391
100.299
100.227
100.171
100.128
100.096
100.071
100.052
100.039
100.028
100.02
100.015
100.011
100.008
100.005
100.004
100.003
100.002
100.001
100.001
100.001
100
100
100
100
100
100
100
100
100
100
100
100
100
390.693
372.136
353.747
335.635
317.903
300.649
283.962
267.919
252.59
238.03
224.285
211.387
199.356
188.202
177.923
168.507
159.933
152.172
145.189
138.945
133.393
128.487
124.177
120.414
117.147
114.328
111.91
109.848
108.1
106.627
105.394
104.366
103.516
102.816
102.243
101.777
101.401
101.098
100.856
100.664
100.512
100.393
100.299
100.227
100.171
100.129
100.096
100.071
100.053
100.039
100.028
100.021
100.015
100.011
100.008
100.005
100.004
100.003
100.002
100.001
100.001
100.001
100
100
100
100
100
100
100
100
100
100
100
100
100
390.699
372.153
353.774
335.672
317.95
300.704
284.023
267.986
252.661
238.105
224.361
211.463
199.432
188.276
177.994
168.574
159.996
152.231
145.244
138.994
133.438
128.527
124.213
120.445
117.175
114.352
111.931
109.866
108.115
106.64
105.404
104.375
103.523
102.822
102.248
101.781
101.404
101.1
100.858
100.665
100.513
100.393
100.3
100.228
100.172
100.129
100.096
100.071
100.053
100.039
100.028
100.021
100.015
100.011
100.008
100.005
100.004
100.003
100.002
100.001
100.001
100.001
100
100
100
100
100
100
100
100
100
100
100
100
100
390.703
372.166
353.795
335.701
317.986
300.747
284.071
268.039
252.717
238.163
224.42
211.523
199.491
188.333
178.049
168.627
160.046
152.277
145.287
139.034
133.474
128.559
124.242
120.471
117.197
114.371
111.947
109.88
108.127
106.65
105.413
104.382
103.529
102.826
102.252
101.784
101.406
101.102
100.859
100.666
100.514
100.394
100.301
100.228
100.172
100.129
100.096
100.072
100.053
100.039
100.028
100.021
100.015
100.011
100.008
100.005
100.004
100.003
100.002
100.001
100.001
100.001
100
100
100
100
100
100
100
100
100
100
100
100
100
390.707
372.176
353.812
335.724
318.014
300.78
284.109
268.079
252.76
238.208
224.466
211.569
199.537
188.378
178.093
168.668
160.085
152.314
145.321
139.065
133.502
128.585
124.264
120.491
117.214
114.386
111.96
109.891
108.137
106.658
105.419
104.388
103.533
102.83
102.255
101.787
101.408
101.104
100.861
100.667
100.515
100.395
100.301
100.229
100.173
100.129
100.097
100.072
100.053
100.039
100.028
100.021
100.015
100.011
100.008
100.005
100.004
100.003
100.002
100.001
100.001
100.001
100
100
100
100
100
100
100
100
100
100
100
100
100
390.709
372.183
353.825
335.741
318.036
300.805
284.137
268.111
252.794
238.243
224.502
211.605
199.572
188.413
178.127
168.701
160.115
152.342
145.347
139.089
133.524
128.604
124.282
120.506
117.228
114.398
111.971
109.9
108.144
106.665
105.425
104.392
103.537
102.833
102.257
101.789
101.41
101.105
100.862
100.668
100.515
100.395
100.302
100.229
100.173
100.13
100.097
100.072
100.053
100.039
100.028
100.021
100.015
100.011
100.008
100.005
100.004
100.003
100.002
100.001
100.001
100.001
100
100
100
100
100
100
100
100
100
100
100
100
100
390.711
372.189
353.835
335.755
318.053
300.825
284.159
268.135
252.82
238.27
224.53
211.633
199.6
188.441
178.153
168.726
160.139
152.365
145.368
139.108
133.541
128.62
124.296
120.518
117.239
114.408
111.979
109.907
108.15
106.67
105.429
104.396
103.54
102.836
102.259
101.79
101.411
101.106
100.863
100.669
100.516
100.396
100.302
100.229
100.173
100.13
100.097
100.072
100.053
100.039
100.028
100.021
100.015
100.011
100.008
100.005
100.004
100.003
100.002
100.001
100.001
100.001
100
100
100
100
100
100
100
100
100
100
100
100
100
390.713
372.194
353.842
335.765
318.065
300.84
284.176
268.154
252.839
238.29
224.551
211.655
199.621
188.461
178.173
168.745
160.158
152.382
145.384
139.122
133.554
128.632
124.306
120.528
117.247
114.415
111.985
109.912
108.155
106.674
105.432
104.398
103.542
102.837
102.261
101.792
101.412
101.107
100.863
100.669
100.516
100.396
100.302
100.229
100.173
100.13
100.097
100.072
100.053
100.039
100.029
100.021
100.015
100.011
100.008
100.005
100.004
100.003
100.002
100.001
100.001
100.001
100
100
100
100
100
100
100
100
100
100
100
100
100
390.714
372.197
353.848
335.773
318.075
300.851
284.189
268.168
252.855
238.306
224.567
211.671
199.638
188.478
178.189
168.76
160.172
152.395
145.396
139.134
133.565
128.641
124.315
120.535
117.254
114.421
111.99
109.917
108.158
106.677
105.435
104.401
103.544
102.839
102.262
101.793
101.413
101.108
100.864
100.67
100.517
100.396
100.302
100.229
100.173
100.13
100.097
100.072
100.053
100.039
100.029
100.021
100.015
100.011
100.008
100.005
100.004
100.003
100.002
100.001
100.001
100.001
100
100
100
100
100
100
100
100
100
100
100
100
100
390.715
372.2
353.852
335.779
318.083
300.86
284.199
268.179
252.866
238.318
224.58
211.683
199.65
188.49
178.201
168.772
160.182
152.405
145.405
139.142
133.572
128.648
124.321
120.541
117.259
114.425
111.994
109.92
108.161
106.679
105.437
104.402
103.545
102.84
102.263
101.793
101.414
101.108
100.864
100.67
100.517
100.397
100.303
100.23
100.173
100.13
100.097
100.072
100.053
100.039
100.029
100.021
100.015
100.011
100.008
100.005
100.004
100.003
100.002
100.001
100.001
100.001
100
100
100
100
100
100
100
100
100
100
100
100
100
390.715
372.202
353.855
335.783
318.088
300.867
284.207
268.187
252.875
238.327
224.589
211.693
199.66
188.499
178.21
168.78
160.191
152.413
145.412
139.149
133.578
128.654
124.326
120.545
117.262
114.428
111.997
109.922
108.163
106.681
105.438
104.403
103.546
102.841
102.264
101.794
101.414
101.109
100.864
100.67
100.517
100.397
100.303
100.23
100.173
100.13
100.097
100.072
100.053
100.039
100.029
100.021
100.015
100.011
100.008
100.005
100.004
100.003
100.002
100.001
100.001
100.001
100
100
100
100
100
100
100
100
100
100
100
100
100
390.716
372.204
353.858
335.786
318.092
300.872
284.212
268.193
252.881
238.334
224.596
211.7
199.667
188.506
178.216
168.787
160.197
152.419
145.418
139.154
133.583
128.658
124.33
120.549
117.265
114.431
111.999
109.924
108.165
106.682
105.44
104.404
103.547
102.842
102.264
101.794
101.414
101.109
100.865
100.671
100.517
100.397
100.303
100.23
100.173
100.13
100.097
100.072
100.053
100.039
100.029
100.021
100.015
100.011
100.008
100.005
100.004
100.003
100.002
100.001
100.001
100.001
100
100
100
100
100
100
100
100
100
100
100
100
100
390.716
372.205
353.86
335.789
318.095
300.875
284.217
268.198
252.886
238.339
224.601
211.705
199.672
188.511
178.222
168.792
160.202
152.423
145.422
139.158
133.587
128.661
124.333
120.551
117.268
114.433
112.001
109.926
108.166
106.683
105.44
104.405
103.548
102.842
102.265
101.795
101.415
101.109
100.865
100.671
100.517
100.397
100.303
100.23
100.173
100.13
100.097
100.072
100.053
100.039
100.029
100.021
100.015
100.011
100.008
100.005
100.004
100.003
100.002
100.001
100.001
100.001
100
100
100
100
100
100
100
100
100
100
100
100
100
390.717
372.205
353.861
335.791
318.098
300.878
284.22
268.201
252.89
238.343
224.605
211.709
199.676
188.515
178.225
168.795
160.205
152.427
145.425
139.161
133.589
128.663
124.335
120.553
117.269
114.434
112.002
109.927
108.167
106.684
105.441
104.406
103.548
102.843
102.265
101.795
101.415
101.109
100.865
100.671
100.517
100.397
100.303
100.23
100.173
100.13
100.097
100.072
100.053
100.039
100.029
100.021
100.015
100.011
100.008
100.005
100.004
100.003
100.002
100.001
100.001
100.001
100
100
100
100
100
100
100
100
100
100
100
100
100
390.717
372.206
353.862
335.792
318.1
300.88
284.222
268.204
252.893
238.346
224.608
211.712
199.679
188.518
178.228
168.798
160.208
152.429
145.427
139.163
133.591
128.665
124.336
120.554
117.27
114.436
112.003
109.928
108.168
106.685
105.442
104.406
103.549
102.843
102.265
101.795
101.415
101.109
100.865
100.671
100.517
100.397
100.303
100.23
100.173
100.13
100.097
100.072
100.053
100.039
100.029
100.021
100.015
100.011
100.008
100.005
100.004
100.003
100.002
100.001
100.001
100.001
100
100
100
100
100
100
100
100
100
100
100
100
100
390.717
372.207
353.863
335.793
318.101
300.882
284.224
268.205
252.895
238.348
224.611
211.715
199.681
188.52
178.23
168.8
160.21
152.431
145.429
139.164
133.592
128.667
124.337
120.556
117.271
114.436
112.004
109.928
108.169
106.685
105.442
104.407
103.549
102.843
102.265
101.795
101.415
101.109
100.865
100.671
100.518
100.397
100.303
100.23
100.173
100.13
100.097
100.072
100.053
100.039
100.029
100.021
100.015
100.011
100.008
100.005
100.004
100.003
100.002
100.001
100.001
100.001
100
100
100
100
100
100
100
100
100
100
100
100
100
390.717
372.207
353.863
335.794
318.102
300.883
284.225
268.207
252.896
238.35
224.612
211.716
199.683
188.522
178.232
168.802
160.211
152.432
145.43
139.165
133.594
128.667
124.338
120.556
117.272
114.437
112.004
109.929
108.169
106.685
105.442
104.407
103.549
102.843
102.265
101.795
101.415
101.11
100.865
100.671
100.518
100.397
100.303
100.23
100.174
100.13
100.097
100.072
100.053
100.039
100.029
100.021
100.015
100.011
100.008
100.005
100.004
100.003
100.002
100.001
100.001
100.001
100
100
100
100
100
100
100
100
100
100
100
100
100
390.717
372.207
353.864
335.795
318.102
300.884
284.226
268.208
252.897
238.351
224.613
211.717
199.684
188.523
178.233
168.803
160.212
152.433
145.431
139.166
133.594
128.668
124.339
120.557
117.273
114.437
112.004
109.929
108.169
106.686
105.443
104.407
103.549
102.843
102.266
101.795
101.415
101.11
100.865
100.671
100.518
100.397
100.303
100.23
100.174
100.13
100.097
100.072
100.053
100.039
100.029
100.021
100.015
100.011
100.008
100.005
100.004
100.003
100.002
100.001
100.001
100.001
100
100
100
100
100
100
100
100
100
100
100
100
100
390.717
372.207
353.864
335.795
318.103
300.884
284.227
268.209
252.898
238.352
224.614
211.718
199.685
188.524
178.234
168.804
160.213
152.434
145.432
139.167
133.595
128.669
124.339
120.557
117.273
114.438
112.005
109.929
108.169
106.686
105.443
104.407
103.549
102.843
102.266
101.796
101.415
101.11
100.865
100.671
100.518
100.397
100.303
100.23
100.174
100.13
100.097
100.072
100.053
100.039
100.029
100.021
100.015
100.011
100.008
100.005
100.004
100.003
100.002
100.001
100.001
100.001
100
100
100
100
100
100
100
100
100
100
100
100
100
390.717
372.207
353.864
335.795
318.103
300.885
284.227
268.209
252.899
238.352
224.615
211.719
199.686
188.525
178.235
168.804
160.213
152.434
145.432
139.167
133.595
128.669
124.34
120.558
117.273
114.438
112.005
109.93
108.17
106.686
105.443
104.407
103.55
102.844
102.266
101.796
101.415
101.11
100.865
100.671
100.518
100.397
100.303
100.23
100.174
100.13
100.097
100.072
100.053
100.039
100.029
100.021
100.015
100.011
100.008
100.005
100.004
100.003
100.002
100.001
100.001
100.001
100
100
100
100
100
100
100
100
100
100
100
100
100
390.717
372.208
353.864
335.795
318.104
300.885
284.227
268.209
252.899
238.353
224.615
211.719
199.686
188.525
178.235
168.805
160.214
152.435
145.433
139.168
133.596
128.669
124.34
120.558
117.273
114.438
112.005
109.93
108.17
106.686
105.443
104.407
103.55
102.844
102.266
101.796
101.415
101.11
100.865
100.671
100.518
100.397
100.303
100.23
100.174
100.13
100.097
100.072
100.053
100.039
100.029
100.021
100.015
100.011
100.008
100.005
100.004
100.003
100.002
100.001
100.001
100.001
100
100
100
100
100
100
100
100
100
100
100
100
100
390.717
372.208
353.864
335.796
318.104
300.885
284.228
268.21
252.899
238.353
224.616
211.72
199.686
188.525
178.235
168.805
160.214
152.435
145.433
139.168
133.596
128.67
124.34
120.558
117.274
114.438
112.005
109.93
108.17
106.686
105.443
104.407
103.55
102.844
102.266
101.796
101.415
101.11
100.865
100.671
100.518
100.397
100.303
100.23
100.174
100.13
100.097
100.072
100.053
100.039
100.029
100.021
100.015
100.011
100.008
100.005
100.004
100.003
100.002
100.001
100.001
100.001
100
100
100
100
100
100
100
100
100
100
100
100
100
390.717
372.208
353.865
335.796
318.104
300.885
284.228
268.21
252.9
238.353
224.616
211.72
199.687
188.526
178.235
168.805
160.214
152.435
145.433
139.168
133.596
128.67
124.34
120.558
117.274
114.438
112.005
109.93
108.17
106.686
105.443
104.407
103.55
102.844
102.266
101.796
101.415
101.11
100.865
100.671
100.518
100.397
100.303
100.23
100.174
100.13
100.097
100.072
100.053
100.039
100.029
100.021
100.015
100.011
100.008
100.005
100.004
100.003
100.002
100.001
100.001
100.001
100
100
100
100
100
100
100
100
100
100
100
100
100
390.717
372.208
353.865
335.796
318.104
300.885
284.228
268.21
252.9
238.353
224.616
211.72
199.687
188.526
178.236
168.805
160.215
152.435
145.433
139.168
133.596
128.67
124.34
120.558
117.274
114.438
112.005
109.93
108.17
106.686
105.443
104.407
103.55
102.844
102.266
101.796
101.415
101.11
100.865
100.671
100.518
100.397
100.303
100.23
100.174
100.13
100.097
100.072
100.053
100.039
100.029
100.021
100.015
100.011
100.008
100.005
100.004
100.003
100.002
100.001
100.001
100.001
100
100
100
100
100
100
100
100
100
100
100
100
100
390.717
372.208
353.865
335.796
318.104
300.885
284.228
268.21
252.9
238.354
224.616
211.72
199.687
188.526
178.236
168.805
160.215
152.435
145.433
139.168
133.596
128.67
124.34
120.558
117.274
114.438
112.005
109.93
108.17
106.686
105.443
104.407
103.55
102.844
102.266
101.796
101.415
101.11
100.865
100.671
100.518
100.397
100.303
100.23
100.174
100.13
100.097
100.072
100.053
100.039
100.029
100.021
100.015
100.011
100.008
100.005
100.004
100.003
100.002
100.001
100.001
100.001
100
100
100
100
100
100
100
100
100
100
100
100
100
390.717
372.208
353.865
335.796
318.104
300.886
284.228
268.21
252.9
238.354
224.616
211.72
199.687
188.526
178.236
168.805
160.215
152.436
145.433
139.168
133.596
128.67
124.341
120.558
117.274
114.438
112.005
109.93
108.17
106.686
105.443
104.407
103.55