/*--------------------------------*- C++ -*----------------------------------*\
  =========                 |
  \\      /  F ield         | OpenFOAM: The Open Source CFD Toolbox
   \\    /   O peration     | Website:  https://openfoam.org
    \\  /    A nd           | Version:  10
     \\/     M anipulation  |
\*---------------------------------------------------------------------------*/
FoamFile
{
    format      ascii;
    class       volScalarField;
    location    "421";
    object      gradTx;
}
// * * * * * * * * * * * * * * * * * * * * * * * * * * * * * * * * * * * * * //

dimensions      [0 -1 0 1 0 0 0];

internalField   nonuniform List<scalar> 
11250
(
14305
8119.45
5335.74
3862.6
2973.53
2381.28
1957.29
1637.36
1386.39
1183.71
1016.39
875.963
756.615
654.235
565.813
489.078
422.275
364.011
313.158
268.777
230.079
196.387
167.111
141.734
119.799
100.897
84.6631
70.7713
58.9283
48.8716
40.3665
33.2038
27.1975
22.183
18.0153
14.567
11.7271
9.39902
7.49957
5.95712
4.71053
3.70789
2.90534
2.26606
1.7593
1.35956
1.04578
0.80067
0.610152
0.462794
0.34938
0.262521
0.196329
0.146134
0.10826
0.0798231
0.0585775
0.0427832
0.0310995
0.0224994
0.0162003
0.0116094
0.00827983
0.00587699
0.00415138
0.00291807
0.00204073
0.00141932
0.000980785
0.000671987
0.000454331
0.000299752
0.000187666
0.000102646
3.26165e-05
4100.86
4718.2
4026.13
3279.89
2678.41
2215.05
1855.54
1570.98
1340.91
1151.33
992.644
858.121
742.952
643.611
557.448
482.427
416.944
359.713
309.674
265.944
227.769
194.5
165.568
140.472
118.767
100.053
83.9747
70.2103
58.4719
48.5011
40.0665
32.9614
27.0023
22.0263
17.8898
14.4669
11.6475
9.33602
7.44985
5.91803
4.67992
3.68401
2.88679
2.2517
1.74824
1.35107
1.03929
0.795734
0.606414
0.459974
0.347262
0.260938
0.19515
0.145261
0.107616
0.0793502
0.0582318
0.0425317
0.0309174
0.0223681
0.0161061
0.011542
0.00823195
0.0058431
0.0041275
0.00290134
0.00202905
0.00141122
0.000975201
0.000668169
0.000451755
0.000298056
0.000186605
0.000102067
3.24328e-05
1481.26
2626.93
2771.69
2553.78
2246.88
1946.98
1681.17
1452.7
1257.73
1091.05
947.849
824.148
716.75
623.123
541.247
469.5
406.555
351.315
302.856
260.39
223.234
190.791
162.533
137.987
116.733
98.3905
82.6168
69.103
57.5707
47.7693
39.4736
32.4825
26.6164
21.7164
17.6417
14.2689
11.4901
9.21131
7.35141
5.84062
4.61929
3.63671
2.85003
2.22326
1.72632
1.33425
1.02643
0.785952
0.599002
0.454384
0.343064
0.257799
0.192814
0.14353
0.106339
0.0784123
0.0575462
0.0420328
0.030556
0.0221075
0.015919
0.0114084
0.00813693
0.00577585
0.00408012
0.00286812
0.00200588
0.00139514
0.000964113
0.000660588
0.000446639
0.000294686
0.000184499
0.000100916
3.20674e-05
678.71
1537.18
1880.88
1917.98
1810.01
1646.84
1471.74
1303.45
1149.02
1010.22
886.645
777.06
680.03
594.162
518.19
451.001
391.62
339.198
292.988
252.331
216.639
185.388
158.103
134.356
113.758
95.9553
80.6261
67.4785
56.2477
46.6941
38.6022
31.778
26.0487
21.2602
17.2764
13.9773
11.2582
9.0275
7.20629
5.72648
4.52986
3.56692
2.79579
2.18128
1.69396
1.30941
1.00745
0.771507
0.588058
0.446127
0.336863
0.253162
0.189362
0.140972
0.104452
0.0770264
0.056533
0.0412954
0.0300218
0.0217223
0.0156425
0.0112109
0.00799644
0.0056764
0.00401006
0.00281899
0.0019716
0.00137135
0.000947714
0.000649375
0.000439072
0.000289702
0.000181383
9.9213e-05
3.15266e-05
375.306
962.759
1297.65
1428.55
1429.99
1360.61
1257.75
1142.86
1027.39
917.073
814.488
720.557
635.352
558.532
489.569
427.871
372.836
323.883
280.464
242.067
208.215
178.469
152.419
129.688
109.927
92.8145
78.0555
65.3784
54.5356
45.3017
37.4726
30.8644
25.3118
20.6678
16.8017
13.5983
10.9565
8.78838
7.01743
5.57789
4.41341
3.47603
2.72513
2.12657
1.65179
1.27703
0.9827
0.752669
0.573781
0.435356
0.328771
0.247111
0.184857
0.137633
0.101988
0.0752168
0.0552099
0.0403324
0.0293242
0.0212192
0.0152814
0.0109528
0.0078129
0.00554647
0.00391851
0.0027548
0.00192682
0.00134027
0.000926281
0.000634719
0.000429181
0.000283187
0.000177309
9.6987e-05
3.08196e-05
235.25
641.473
919.333
1069.85
1122.44
1109.76
1057.99
985.287
903.277
819.031
736.651
658.4
585.424
518.205
456.837
401.191
351.013
305.984
265.753
229.959
198.243
170.252
145.65
124.116
105.345
89.0519
74.971
62.855
52.4759
43.6247
36.111
29.7619
24.422
19.9519
16.2277
13.1397
10.5914
8.49879
6.7886
5.39777
4.2722
3.36577
2.63939
2.06017
1.60058
1.23771
0.952635
0.72978
0.556432
0.422263
0.318935
0.239754
0.179378
0.133572
0.0989912
0.0730154
0.0536001
0.0391606
0.0284751
0.0206068
0.0148417
0.0106386
0.00758944
0.00538826
0.00380703
0.00267662
0.00187227
0.00130241
0.000900174
0.000616866
0.000417132
0.000275249
0.000172346
9.42747e-05
2.99582e-05
159.654
449.1
669.266
810.348
881.712
899.892
881.325
839.41
783.995
721.885
657.583
593.963
532.793
475.105
421.452
372.073
327.005
286.161
249.368
216.408
187.033
160.983
137.991
117.793
100.133
84.7634
71.449
59.9689
50.1167
41.7014
34.5475
28.4948
23.3983
19.1277
15.5663
12.6108
10.1701
8.16441
6.52424
5.1896
4.10892
3.23822
2.54016
1.9833
1.54128
1.19216
0.917798
0.703251
0.536319
0.407081
0.307526
0.231218
0.173021
0.128859
0.0955126
0.0704596
0.0517309
0.0377999
0.027489
0.0198955
0.014331
0.0102736
0.00732978
0.00520441
0.00367747
0.00258575
0.00180886
0.0012584
0.00086982
0.000596106
0.00040312
0.000266018
0.000166573
9.11202e-05
2.89562e-05
114.1
326.539
499.164
621.775
695.697
728.583
730.087
709.344
673.919
629.61
580.64
529.976
479.636
430.953
384.767
341.579
301.648
265.069
231.825
201.821
174.912
150.919
129.646
110.884
94.4225
80.0528
67.5722
56.7861
47.5107
39.5737
32.8156
27.0894
22.2617
18.2116
14.8305
12.0221
9.70075
7.79165
6.22935
4.95724
3.92658
3.09571
2.42925
1.89734
1.47494
1.14119
0.878798
0.673544
0.513789
0.39007
0.294739
0.22165
0.165894
0.123573
0.0916106
0.0675922
0.0496335
0.0362726
0.0263821
0.0190969
0.0137575
0.00986371
0.00703814
0.00499789
0.00353192
0.00248366
0.00173761
0.00120894
0.000835706
0.000572774
0.00038737
0.000255641
0.000160084
8.75738e-05
2.78298e-05
84.4778
244.309
379.924
483.06
552.189
590.409
603.101
596.189
575.149
544.575
508.096
468.458
427.674
387.176
347.952
310.658
275.705
243.325
213.62
186.597
162.198
140.318
120.822
103.553
88.3457
75.0274
63.4267
53.3758
44.7132
37.2859
30.9505
25.574
21.0346
17.2215
14.0345
11.3845
9.19205
7.38733
5.90928
4.70488
3.72842
2.94076
2.30859
1.80378
1.40271
1.08566
0.8363
0.641159
0.48922
0.371514
0.280787
0.211207
0.158112
0.117801
0.0873487
0.0644597
0.0473416
0.0346035
0.0251721
0.0182238
0.0131305
0.00941542
0.00671916
0.00477198
0.00337267
0.00237195
0.00165963
0.00115481
0.000798365
0.000547231
0.000370126
0.000244279
0.000152979
8.36904e-05
2.65964e-05
64.1458
186.787
293.976
379.474
441.001
479.443
497.639
499.299
488.234
467.919
441.303
410.766
378.159
344.88
311.953
280.108
249.842
221.479
195.204
171.105
149.193
129.425
111.718
95.9635
82.0343
69.7932
59.0982
49.8069
41.7799
34.8827
28.9882
23.9773
19.7399
16.1755
13.1927
10.7096
8.65305
6.95858
5.5696
4.43687
3.51783
2.77598
2.18021
1.70419
1.32578
1.0265
0.790996
0.606624
0.463011
0.351712
0.265893
0.200055
0.1498
0.111634
0.0827939
0.0611111
0.0448912
0.0328185
0.0238779
0.0172898
0.0124595
0.00893564
0.00637771
0.00453011
0.00320215
0.00225231
0.00157612
0.00109683
0.00075836
0.000519864
0.000351649
0.000232104
0.000145363
7.95281e-05
2.52743e-05
49.622
145.187
230.493
300.926
354.244
390.321
410.547
417.173
412.781
399.922
380.903
357.698
331.922
304.858
277.492
250.564
224.608
199.996
176.97
155.673
136.169
118.464
102.519
88.2662
75.6123
64.4516
54.6693
46.1467
38.765
32.4079
26.9639
22.3275
18.4004
15.0919
12.3196
10.0088
8.09281
6.51252
5.21591
4.15759
3.29823
2.60404
2.04617
1.60014
1.24536
0.964621
0.743596
0.570474
0.435565
0.330968
0.250285
0.188365
0.141084
0.105165
0.078015
0.0575968
0.0423187
0.0309443
0.0225186
0.0163086
0.0117545
0.00843145
0.00601881
0.00427584
0.00302287
0.00212651
0.00148828
0.00103583
0.000716274
0.000491068
0.000332204
0.000219289
0.000137348
7.51471e-05
2.38826e-05
38.9269
114.291
182.621
240.507
286.002
318.57
338.793
347.997
347.896
340.322
327.036
309.623
289.445
267.629
245.079
222.501
200.429
179.252
159.243
140.579
123.362
107.633
93.3916
80.5989
69.1937
59.0965
50.217
42.458
35.7198
29.9032
24.9114
20.652
17.0378
13.9883
11.4291
9.29324
7.52017
6.05615
4.85372
3.87135
3.07299
2.42756
1.90849
1.4932
1.16267
0.900957
0.694801
0.533244
0.407286
0.309585
0.234191
0.176306
0.13209
0.0984877
0.0730805
0.0539671
0.0396611
0.0290074
0.0211136
0.0152941
0.0110254
0.00790995
0.00564752
0.00401274
0.00283732
0.00199628
0.00139734
0.000972676
0.000672689
0.000461243
0.000312063
0.000206014
0.000129044
7.06077e-05
2.24406e-05
30.8624
90.8508
145.886
193.435
231.892
260.596
279.698
289.948
292.466
288.546
279.508
266.599
250.938
233.484
215.039
196.248
177.618
159.535
142.28
126.049
110.966
97.1014
84.4769
73.0819
62.8789
53.8116
45.8106
38.798
32.6914
27.4071
22.8621
18.9761
15.6728
12.8809
10.5345
8.57351
6.94354
5.59611
4.48827
3.58229
2.84533
2.24905
1.76913
1.38488
1.07886
0.836397
0.645293
0.49545
0.378565
0.287859
0.217831
0.164043
0.122941
0.0916928
0.0680574
0.050271
0.0369541
0.027034
0.0196817
0.01426
0.010282
0.00737809
0.00526879
0.00374431
0.00264797
0.00186337
0.00130451
0.000908192
0.000628182
0.000430783
0.00029149
0.000192453
0.00012056
6.59696e-05
2.09672e-05
24.6666
72.7591
117.287
156.354
188.666
213.568
230.994
241.342
245.332
243.868
237.927
228.474
216.411
202.538
187.545
172.006
156.386
141.049
126.272
112.256
99.1387
87.0036
75.8932
65.8158
56.7536
48.669
41.5106
35.2171
29.7215
24.9539
20.844
17.3227
14.3239
11.7851
9.648
7.85933
6.37068
5.13859
4.12445
3.29424
2.61828
2.07087
1.62992
1.27662
0.995029
0.771783
0.595716
0.457583
0.349775
0.26607
0.201416
0.151734
0.113753
0.084867
0.0630098
0.0465557
0.0342321
0.0250491
0.018241
0.0132192
0.00953374
0.00684258
0.00488735
0.00347391
0.0024572
0.00172942
0.00121094
0.000843184
0.000583305
0.000400064
0.000270739
0.000178773
0.000112
6.12901e-05
1.94806e-05
19.8351
58.6013
94.7554
126.867
153.902
175.271
190.806
200.694
205.388
205.517
201.795
194.964
185.737
174.772
162.652
149.875
136.855
123.927
111.352
99.3281
87.9945
77.4449
67.7333
58.882
50.8879
43.7288
37.3678
31.758
26.8457
22.5732
18.8816
15.7121
13.0077
10.7141
8.78031
7.15942
5.80858
4.68916
3.76668
3.01072
2.3946
1.89518
1.49256
1.1697
0.912189
0.70789
0.546663
0.420096
0.321258
0.244477
0.185141
0.139525
0.104637
0.0780911
0.0579971
0.0428648
0.0315271
0.023076
0.0168085
0.0121841
0.00878924
0.00630965
0.00450767
0.00320469
0.00226721
0.001596
0.00111772
0.000778406
0.000538578
0.000369443
0.000250051
0.000165132
0.000103465
5.66232e-05
1.79979e-05
16.0225
47.3982
76.8315
103.234
125.785
143.975
157.599
166.722
171.623
172.733
170.574
165.709
158.698
150.075
140.324
129.869
119.074
108.237
97.5988
87.3452
77.6138
68.5005
60.0661
52.3421
45.3364
39.0384
33.4233
28.4557
24.0935
20.2899
16.9956
14.1613
11.7382
9.67942
7.94084
6.48136
5.26335
4.25269
3.41887
2.7348
2.17671
1.7239
1.35852
1.0653
0.831241
0.645416
0.498668
0.383395
0.293324
0.223315
0.169184
0.127548
0.0956893
0.0714384
0.0530737
0.0392382
0.0288684
0.021136
0.0153996
0.0111657
0.00805657
0.00578504
0.00413381
0.00293953
0.00208005
0.00146454
0.00102584
0.00071455
0.00049448
0.000339248
0.000229647
0.000151677
9.50443e-05
5.20187e-05
1.65351e-05
12.9853
38.4539
62.4604
84.1703
102.935
118.323
130.127
138.343
143.138
144.805
143.724
140.318
135.026
128.274
120.462
111.945
103.037
93.9984
85.0465
76.3518
68.0445
60.219
52.9385
46.24
40.1389
34.6334
29.7081
25.3373
21.4884
18.1236
15.2028
12.6843
10.5269
8.69066
7.1374
5.8315
4.74012
3.83335
3.08433
2.46914
1.96671
1.55867
1.22912
0.964425
0.752971
0.584966
0.452199
0.34784
0.266246
0.20279
0.153699
0.11592
0.0869988
0.0649738
0.0482876
0.0357115
0.0262819
0.019248
0.014028
0.0101739
0.00734287
0.00527387
0.00376944
0.00268103
0.00189754
0.00133631
0.000936213
0.00065224
0.000451441
0.000309771
0.000209725
0.000138537
8.68205e-05
4.75215e-05
1.51061e-05
10.5476
31.2623
50.8655
68.7132
84.2917
97.2435
107.375
114.645
119.149
121.085
120.726
118.393
114.424
109.159
102.923
96.0131
88.6929
81.1899
73.6944
66.3602
59.3074
52.6256
46.3775
40.6027
35.3214
30.538
26.2443
22.4223
19.0473
16.0894
13.5156
11.2917
9.38293
7.7553
6.37621
5.21496
4.24306
3.4345
2.76578
2.2159
1.76635
1.40088
1.10544
0.867927
0.678038
0.527052
0.407649
0.313732
0.240256
0.183078
0.138819
0.104741
0.0786399
0.0587531
0.0436801
0.0323149
0.0237899
0.0174283
0.0127056
0.00921743
0.00665434
0.00478057
0.0034177
0.00243143
0.00172127
0.00121244
0.000849603
0.000592017
0.000409835
0.000281271
0.00019046
0.000125829
7.88652e-05
4.31707e-05
1.37237e-05
8.57968
25.448
41.4644
56.1293
69.0358
79.8901
88.519
94.8664
98.9798
100.992
101.101
99.5463
96.5896
92.5002
87.5397
81.9531
75.9619
69.7603
63.5132
57.3571
51.4003
45.7257
40.3934
35.4432
30.898
26.7663
23.0454
19.7235
16.7819
14.1973
11.9433
9.9914
8.31285
6.87895
5.66196
4.63561
3.77538
3.05876
2.46533
1.97681
1.57698
1.25161
0.988326
0.776484
0.606976
0.47209
0.365341
0.281318
0.215541
0.164323
0.124654
0.0940936
0.0706746
0.0528226
0.0392855
0.029074
0.0214112
0.0156907
0.0114423
0.00830343
0.00599617
0.00430889
0.00308128
0.00219263
0.00155258
0.00109386
0.000766676
0.000534341
0.000369979
0.000253964
0.000171998
0.000113648
7.12393e-05
3.89996e-05
1.23983e-05
6.98379
20.7272
33.8134
45.8529
56.5234
65.5848
72.887
78.3686
82.0489
84.016
84.4115
83.4147
81.2278
78.0625
74.1289
69.6274
64.742
59.6365
54.4528
49.3095
44.3031
39.5086
34.982
30.7619
26.872
23.3236
20.1177
17.2472
14.6984
12.4535
10.4911
8.78828
7.32103
6.06535
4.99785
4.09617
3.33934
2.708
2.18454
1.75312
1.39963
1.11167
0.878442
0.690612
0.54019
0.420396
0.325521
0.250791
0.19225
0.146637
0.111289
0.0840424
0.0631515
0.0472186
0.0351311
0.0260089
0.0191606
0.0140461
0.0102462
0.00743768
0.00537254
0.00386181
0.00276231
0.00196615
0.00139255
0.000981344
0.000687965
0.000479585
0.000332132
0.000228027
0.000154459
0.000102075
6.39925e-05
3.50356e-05
1.11386e-05
5.68531
16.8824
27.5696
37.4425
46.2453
53.783
59.9278
64.6194
67.8603
69.7078
70.2633
69.6609
68.0559
65.6144
62.5044
58.8884
54.9183
50.7313
46.4477
42.1698
37.9819
33.951
30.128
26.5492
23.2381
20.2075
17.4608
14.9944
12.7987
10.8601
9.16162
7.68473
6.4097
5.31659
4.38574
3.59826
2.93633
2.38342
1.9244
1.54564
1.23496
0.981622
0.776231
0.610667
0.477964
0.372196
0.288365
0.222287
0.170488
0.130103
0.0987876
0.0746351
0.0561067
0.0419684
0.0312371
0.0231346
0.0170492
0.0125025
0.00912322
0.00662457
0.00478663
0.00344164
0.00246243
0.00175317
0.00124201
0.00087547
0.000613884
0.000428036
0.000296494
0.000203599
0.000137936
9.11701e-05
5.71635e-05
3.12996e-05
9.95136e-06
4.62635
13.744
22.4647
30.5493
37.795
44.0439
49.1887
53.1735
55.9912
57.6785
58.3076
57.9787
56.8108
54.934
52.4819
49.5858
46.3702
42.9489
39.4231
35.8801
32.3928
29.0199
25.8071
22.7876
19.9841
17.4095
15.0691
12.9617
11.0808
9.41609
7.95446
6.68089
5.57931
4.63322
3.82625
3.14251
2.56696
2.08556
1.6854
1.35482
1.08336
0.861774
0.681949
0.536861
0.420469
0.327626
0.253982
0.195892
0.150324
0.114773
0.0871897
0.065903
0.0495641
0.03709
0.0276171
0.0204615
0.0150847
0.0110658
0.00807751
0.00586714
0.00424063
0.00304996
0.00218281
0.0015545
0.00110156
0.000776655
0.000544723
0.000379898
0.000263206
0.000180777
0.000122497
8.09783e-05
5.07799e-05
2.78069e-05
8.84132e-06
3.76142
11.1789
18.2861
24.8952
30.8451
36.0085
40.296
43.6577
46.0817
47.5906
48.2358
48.0921
47.2506
45.8127
43.8845
41.5716
38.9752
36.1894
33.2985
30.3763
27.485
24.6757
21.9886
19.4538
17.092
14.9163
12.9327
11.1418
9.53938
8.11787
6.86708
5.77504
4.82871
4.01455
3.31897
2.72872
2.23116
1.81443
1.4676
1.18073
0.944914
0.752214
0.595681
0.46927
0.367772
0.286743
0.222421
0.171647
0.131789
0.100674
0.0765162
0.0578624
0.0435364
0.0325932
0.0242787
0.0179951
0.0132714
0.00973903
0.00711147
0.00516714
0.00373586
0.00268772
0.00192411
0.00137065
0.000971531
0.000685154
0.000480664
0.0003353
0.000232357
0.000159622
0.000108182
7.15274e-05
4.48595e-05
2.45673e-05
7.81168e-06
3.05441
9.08079
14.8642
20.2567
25.1304
29.3828
32.9402
35.7591
37.8256
39.1529
39.7775
39.7552
39.1557
38.0578
36.5456
34.7035
32.6136
30.3529
27.9913
25.5907
23.2038
20.8745
18.6376
16.5198
14.5401
12.7109
11.0385
9.52459
8.16677
6.95953
5.89506
4.96388
4.15547
3.45877
2.86259
2.35594
1.92824
1.56955
1.27065
1.02315
0.819457
0.65284
0.517362
0.407853
0.31985
0.249536
0.193676
0.149549
0.114885
0.0878064
0.0667695
0.0505158
0.038026
0.0284802
0.0212237
0.015737
0.0116104
0.00852328
0.00622589
0.00452519
0.00327278
0.00235529
0.00168662
0.00120181
0.000852086
0.000601074
0.000421783
0.000294295
0.000203988
0.000140162
9.5012e-05
6.28301e-05
3.94104e-05
2.15853e-05
6.86385e-06
2.47641
7.3646
12.0622
16.4526
20.4343
23.925
26.8642
29.2148
30.9625
32.1145
32.6966
32.7503
32.3287
31.4934
30.3104
28.8473
27.1701
25.3416
23.4196
21.4552
19.4929
17.5698
15.7162
13.9553
12.304
10.7737
9.3709
8.09783
6.95335
5.93358
5.03258
4.24289
3.5561
2.96322
2.45509
2.02262
1.65704
1.35005
1.09392
0.881579
0.706637
0.563389
0.446798
0.35247
0.276599
0.21593
0.167693
0.12956
0.0995845
0.0761522
0.0579365
0.0438541
0.0330265
0.0247466
0.0184492
0.0136852
0.0101006
0.00741761
0.00542017
0.0039409
0.00285113
0.00205248
0.00147022
0.00104792
0.00074318
0.000524389
0.000368064
0.000256876
0.000178092
0.000122395
8.29844e-05
5.48859e-05
3.44322e-05
1.88606e-05
5.99775e-06
2.00405
5.96144
9.76913
13.3353
16.5793
19.4353
21.8538
23.8037
25.2713
26.2599
26.7877
26.8854
26.5938
25.9605
25.0374
23.8784
22.5364
21.0624
19.5036
17.9023
16.2957
14.715
13.1858
11.7284
10.3576
9.0837
7.91291
6.84784
5.88819
5.03132
4.27274
3.60666
3.02636
2.52459
2.09388
1.72678
1.41603
1.15475
0.936487
0.755336
0.605928
0.483463
0.383691
0.302895
0.237853
0.1858
0.144381
0.111614
0.0858375
0.0656746
0.0499904
0.0378577
0.0285238
0.0213823
0.0159478
0.0118345
0.00873806
0.00641943
0.00469246
0.00341298
0.00247001
0.00177868
0.00127449
0.000908666
0.000644606
0.000454957
0.000319413
0.000222977
0.000154625
0.000106291
7.208e-05
4.76821e-05
2.99173e-05
1.63892e-05
5.21212e-06
1.61836
4.81527
7.89457
10.7839
13.4193
15.7481
17.7304
19.3398
20.5642
21.4043
21.8728
21.9928
21.795
21.3166
20.5983
19.6825
18.612
17.4276
16.1679
14.8676
13.5574
12.2636
11.0076
9.8069
8.6743
7.61898
6.64665
5.76009
4.95954
4.24328
3.60798
3.04913
2.56143
2.13907
1.77597
1.46606
1.20337
0.982212
0.797254
0.643567
0.516676
0.412561
0.327658
0.25884
0.203393
0.158981
0.123616
0.0956166
0.0735754
0.0563227
0.0428937
0.0324992
0.0244979
0.0183725
0.0137088
0.0101773
0.00751738
0.00552474
0.00403994
0.0029394
0.00212799
0.00153288
0.0010987
0.000783569
0.000556021
0.000392541
0.000275665
0.000192485
0.000133512
9.17977e-05
6.22643e-05
4.11962e-05
2.58516e-05
1.41634e-05
4.50456e-06
1.30384
3.88025
6.36427
8.69887
10.8335
12.726
14.3442
15.6664
16.6817
17.3894
17.7985
17.926
17.7954
17.4353
16.8777
16.1562
15.3047
14.3561
13.3417
12.2898
11.2256
10.171
9.14395
8.15914
7.22769
6.3576
5.55403
4.81971
4.15527
3.55961
3.0303
2.56388
2.15618
1.80255
1.4981
1.23788
1.01702
0.830855
0.674975
0.545306
0.438132
0.350107
0.278256
0.219966
0.17296
0.135278
0.105249
0.0814573
0.0627149
0.0480344
0.0366002
0.0277444
0.0209235
0.015699
0.011719
0.00870363
0.00643144
0.00472846
0.00345893
0.00251755
0.00182321
0.00131376
0.00094194
0.000671973
0.000476969
0.000336826
0.000236601
0.00016525
0.000114649
7.88458e-05
5.34903e-05
3.53974e-05
2.2216e-05
1.21729e-05
3.87168e-06
1.04776
3.11876
5.11722
6.99823
8.72184
10.2545
11.5704
12.6515
13.4886
14.0802
14.4325
14.5581
14.4749
14.2049
13.7732
13.2063
12.531
11.7738
10.9597
10.1119
9.251
8.3949
7.55869
6.75459
5.99207
5.27806
4.61716
4.01193
3.46319
2.97033
2.5316
2.14435
1.8053
1.51078
1.25686
1.03953
0.854848
0.698981
0.568321
0.459513
0.369486
0.295472
0.235001
0.185899
0.146268
0.114474
0.0891169
0.0690115
0.0531622
0.0407395
0.0310577
0.0235545
0.017772
0.0133404
0.00996269
0.00740232
0.00547205
0.00402465
0.00294517
0.00214438
0.00155349
0.00111978
0.000803109
0.000573106
0.000406912
0.000287433
0.000201959
0.000141091
9.79113e-05
6.73505e-05
4.57012e-05
3.02485e-05
1.89873e-05
1.04049e-05
3.30953e-06
0.839689
2.49983
4.10307
5.61409
7.00137
8.2383
9.30407
10.1842
10.8706
11.3616
11.6614
11.7793
11.729
11.5275
11.1942
10.7499
10.216
9.61346
8.96252
8.28178
7.58802
6.89595
6.21799
5.56434
4.94295
4.35976
3.81878
3.32236
2.87141
2.46566
2.10384
1.78396
1.50348
1.25947
1.0488
0.868264
0.714648
0.584848
0.475917
0.385107
0.309895
0.248
0.197384
0.156247
0.123018
0.0963376
0.0750428
0.0581461
0.0448169
0.0343625
0.0262096
0.0198874
0.0150122
0.0112739
0.00842307
0.006261
0.0046302
0.0034068
0.00249396
0.00181651
0.00131641
0.000949202
0.000680989
0.000486108
0.000345244
0.000243941
0.000171447
0.000119806
8.31604e-05
5.72169e-05
3.88331e-05
2.57075e-05
1.61393e-05
8.84517e-06
2.81359e-06
0.670992
1.99791
3.28025
4.49027
5.60316
6.59783
7.45767
8.17093
8.73089
9.13573
9.38826
9.49538
9.46747
9.31764
9.06097
8.71379
8.29292
7.81511
7.29643
6.75187
6.19501
5.63782
5.09051
4.56147
4.05738
3.58323
3.1425
2.73728
2.36851
2.03612
1.73923
1.47635
1.2455
1.04439
0.870521
0.72133
0.594232
0.486715
0.396385
0.321002
0.258504
0.207024
0.164885
0.130609
0.102899
0.0806319
0.0628461
0.0487235
0.037575
0.0288252
0.0219972
0.0166993
0.0126116
0.00947535
0.00708241
0.00526667
0.00389643
0.00286802
0.00210033
0.00153035
0.00110942
0.000800215
0.000574284
0.000410066
0.000291323
0.0002059
0.00014475
0.000101177
7.02469e-05
4.83432e-05
3.28175e-05
2.17291e-05
1.36437e-05
7.4783e-06
2.37895e-06
0.534561
1.5919
2.61436
3.58022
4.46995
5.26691
5.95788
6.5334
6.98789
7.31958
7.53035
7.62529
7.61227
7.50135
7.30426
7.03373
6.70301
6.32534
5.91351
5.47951
5.0343
4.58754
4.14755
3.72125
3.31414
2.93041
2.57302
2.24383
1.94372
1.67277
1.43037
1.21542
1.02638
0.861472
0.718722
0.596078
0.491472
0.402882
0.328373
0.266128
0.214474
0.171884
0.136993
0.108587
0.085603
0.0671201
0.0523456
0.0406057
0.0313318
0.0240484
0.0183613
0.0139458
0.0105371
0.00792032
0.00592267
0.0044061
0.00326107
0.00240129
0.00175919
0.00128225
0.000929879
0.000670938
0.000481662
0.000344035
0.000244486
0.000172846
0.000121546
8.49797e-05
5.9016e-05
4.06236e-05
2.7583e-05
1.82667e-05
1.14714e-05
6.28831e-06
2.0005e-06
0.424523
1.26437
2.07698
2.84537
3.55421
4.1904
4.74348
5.20584
5.5729
5.84306
6.01751
6.10003
6.09656
6.01484
5.86391
5.65373
5.39466
5.09714
4.77132
4.42674
4.07218
3.71543
3.36321
3.02118
2.69385
2.38472
2.09626
1.8301
1.58704
1.36724
1.17031
0.995423
0.84141
0.706877
0.590275
0.489975
0.404328
0.331715
0.270579
0.219456
0.176989
0.141943
0.113206
0.0897908
0.0708302
0.0555706
0.0433638
0.0336572
0.0259844
0.0199545
0.0152432
0.0115832
0.00875605
0.00658454
0.00492593
0.00366612
0.00271449
0.00199959
0.00146545
0.00106853
0.000775162
0.000559492
0.000401785
0.000287071
0.000204065
0.000144311
0.000101508
7.09885e-05
4.93118e-05
3.39516e-05
2.30577e-05
1.52727e-05
9.59273e-06
5.25906e-06
1.67313e-06
0.336029
1.00092
1.64459
2.25377
2.81649
3.32245
3.76339
4.13324
4.42827
4.64705
4.79034
4.86093
4.8633
4.80337
4.68813
4.52531
4.32301
4.08944
3.83259
3.56004
3.27879
2.99506
2.7143
2.44106
2.17905
1.93114
1.6994
1.4852
1.28928
1.11185
0.952644
0.811059
0.686209
0.577011
0.482252
0.400646
0.330885
0.271677
0.221776
0.180007
0.145278
0.116591
0.093049
0.0738505
0.0582921
0.0457611
0.0357298
0.0277475
0.0214334
0.0164682
0.0125863
0.00956884
0.00723671
0.00544443
0.00407478
0.00303392
0.00224729
0.00165608
0.00121415
0.000885614
0.000642689
0.000464032
0.00033334
0.000238241
0.000169405
0.000119834
8.43144e-05
5.898e-05
4.09803e-05
2.8222e-05
1.91706e-05
1.27004e-05
7.97831e-06
4.37446e-06
1.3918e-06
0.265081
0.789673
1.29776
1.77902
2.22411
2.62497
2.9751
3.26967
3.50568
3.68188
3.79875
3.85832
3.86399
3.82026
3.73253
3.60678
3.44932
3.26658
3.06484
2.85008
2.62786
2.40314
2.18027
1.96294
1.75414
1.55621
1.37089
1.19932
1.04216
0.899607
0.771525
0.657466
0.55676
0.468572
0.391954
0.325896
0.269366
0.221337
0.180818
0.146869
0.118616
0.0952591
0.076074
0.0604162
0.0477172
0.0374817
0.0292819
0.0227527
0.0175846
0.0135179
0.0103366
0.00786224
0.00594879
0.00447749
0.00335253
0.00249719
0.00185047
0.00136418
0.00100052
0.00073005
0.00052998
0.000382782
0.000275062
0.000196651
0.000139873
9.89723e-05
6.96552e-05
4.87383e-05
3.38727e-05
2.33326e-05
1.58528e-05
1.05044e-05
6.59978e-06
3.619e-06
1.15153e-06
0.208383
0.62083
1.02048
1.39931
1.75005
2.06642
2.34332
2.57693
2.76484
2.906
3.00068
3.05036
3.05762
3.02588
2.95929
2.86247
2.74032
2.59785
2.43997
2.2714
2.09651
1.91925
1.74309
1.57096
1.4053
1.248
1.10047
0.96369
0.838205
0.724231
0.621687
0.530253
0.449424
0.378558
0.316919
0.263719
0.218143
0.179383
0.146651
0.119202
0.0963373
0.0774186
0.0618663
0.0491634
0.0388531
0.0305367
0.0238697
0.0185574
0.0143497
0.0110368
0.00844351
0.00642538
0.00486386
0.00366251
0.00274348
0.00204438
0.00151553
0.00111769
0.00082004
0.000598575
0.000434686
0.00031406
0.000225752
0.000161447
0.000114868
8.13021e-05
5.7235e-05
4.00583e-05
2.78472e-05
1.91865e-05
1.30385e-05
8.64121e-06
5.43003e-06
2.97789e-06
9.47596e-07
0.163226
0.486339
0.799551
1.09665
1.37201
1.62072
1.83881
2.02328
2.17221
2.2847
2.36091
2.40193
2.40968
2.38677
2.33639
2.26207
2.16763
2.05694
1.93384
1.80204
1.66495
1.5257
1.38704
1.25131
1.12045
0.995993
0.879095
0.770548
0.670829
0.580137
0.498435
0.425494
0.360938
0.304273
0.254934
0.212304
0.175746
0.144625
0.11832
0.0962403
0.0778325
0.0625885
0.050047
0.0397952
0.0314682
0.0247467
0.0193546
0.0150552
0.0116477
0.00896303
0.00686036
0.00522308
0.00395554
0.00297985
0.00223307
0.00166471
0.00123456
0.000910826
0.000668515
0.000488146
0.000354614
0.000256293
0.000184287
0.000131834
9.38263e-05
6.64282e-05
4.67769e-05
3.27474e-05
2.27705e-05
1.56924e-05
1.06663e-05
7.07037e-06
4.44362e-06
2.43722e-06
7.75574e-07
0.127387
0.379587
0.624149
0.856281
1.07162
1.26638
1.43745
1.58249
1.69997
1.78916
1.85013
1.88368
1.89125
1.87482
1.8368
1.77995
1.70717
1.62149
1.52587
1.42321
1.31618
1.20724
1.09856
0.991989
0.889076
0.79105
0.698842
0.613101
0.534229
0.462405
0.397621
0.339716
0.288408
0.243323
0.204025
0.170036
0.140861
0.116
0.0949675
0.0772976
0.062554
0.0503345
0.0402733
0.0320428
0.0253527
0.0199487
0.0156105
0.0121493
0.00940427
0.0072403
0.00554443
0.00422317
0.00319972
0.00241151
0.00180792
0.00134832
0.00100032
0.000738288
0.000542077
0.000395961
0.000287745
0.000208033
0.000149633
0.000107077
7.6229e-05
5.39849e-05
3.8025e-05
2.66274e-05
1.85196e-05
1.27658e-05
8.67899e-06
5.75409e-06
3.61692e-06
1.98403e-06
6.31398e-07
0.0990467
0.29516
0.485399
0.666076
0.833826
0.985722
1.11936
1.23291
1.32516
1.39552
1.44402
1.47122
1.47822
1.4665
1.43792
1.39456
1.33867
1.27258
1.19859
1.11894
1.03572
0.950847
0.866021
0.782707
0.702128
0.625264
0.552862
0.485448
0.423356
0.366743
0.315619
0.269872
0.229293
0.193598
0.162452
0.135488
0.112321
0.0925616
0.0758302
0.0617617
0.0500135
0.0402687
0.0322391
0.0256656
0.0203185
0.0159964
0.0125245
0.00975255
0.00755287
0.00581776
0.0044572
0.00339659
0.0025746
0.00194121
0.00145594
0.00108626
0.000806209
0.000595248
0.000437211
0.000319474
0.000232241
0.00016796
0.000120848
8.65044e-05
6.16015e-05
4.36381e-05
3.07455e-05
2.15354e-05
1.49818e-05
1.03295e-05
7.02411e-06
4.65782e-06
2.92827e-06
1.60644e-06
5.11276e-07
0.0767185
0.228638
0.376053
0.516135
0.646298
0.764289
0.868247
0.956756
1.02887
1.0841
1.12246
1.14434
1.15057
1.14227
1.12085
1.08789
1.04513
0.994339
0.937303
0.875748
0.8113
0.74545
0.679525
0.614674
0.551861
0.49186
0.435267
0.382507
0.333852
0.28944
0.249288
0.21332
0.181381
0.153258
0.128696
0.107411
0.0891064
0.0734807
0.060238
0.0490939
0.0397802
0.0320488
0.0256734
0.0204504
0.0161989
0.0127601
0.00999582
0.00778752
0.00603405
0.00465009
0.00356427
0.00271737
0.00206066
0.00155437
0.00116628
0.000870493
0.00064632
0.000477375
0.00035076
0.000256393
0.000186447
0.000134885
9.70807e-05
6.95127e-05
4.95159e-05
3.50867e-05
2.47272e-05
1.73244e-05
1.20552e-05
8.31364e-06
5.65449e-06
3.75029e-06
2.35809e-06
1.29378e-06
4.11771e-07
0.0591943
0.176423
0.29021
0.398391
0.498986
0.590266
0.670801
0.739494
0.795605
0.838755
0.868917
0.886396
0.891791
0.885956
0.86995
0.844986
0.812378
0.773491
0.729693
0.682312
0.632606
0.581728
0.53071
0.48045
0.4317
0.385072
0.341037
0.299935
0.261987
0.227309
0.195925
0.167781
0.142765
0.120716
0.10144
0.0847214
0.0703307
0.0580356
0.047607
0.0388239
0.0314777
0.025375
0.020339
0.0162104
0.0128474
0.0101254
0.00793603
0.00618589
0.00479539
0.00369728
0.00283525
0.00216253
0.00164062
0.00123805
0.000929319
0.0006939
0.000515401
0.000380818
0.000279913
0.000204677
0.000148889
0.000107749
7.75742e-05
5.55622e-05
3.959e-05
2.80611e-05
1.97813e-05
1.38627e-05
9.64872e-06
6.65561e-06
4.52775e-06
3.00351e-06
1.88882e-06
1.03643e-06
3.29867e-07
0.0454941
0.135599
0.223082
0.306294
0.383724
0.45405
0.516176
0.569259
0.612722
0.646267
0.66986
0.683721
0.688295
0.684223
0.672305
0.653459
0.628685
0.599024
0.565522
0.529197
0.491017
0.451871
0.412559
0.373775
0.336107
0.300033
0.265925
0.234052
0.204593
0.177643
0.153227
0.131311
0.111811
0.0946082
0.0795555
0.0664878
0.0552302
0.0456041
0.0374327
0.0305452
0.0247803
0.0199876
0.0160298
0.012783
0.0101365
0.00799302
0.0062679
0.00488804
0.0037911
0.00292433
0.00224353
0.00171196
0.00129934
0.000980922
0.000736606
0.00055022
0.000408835
0.000302189
0.000222197
0.00016253
0.000118269
8.56166e-05
6.16592e-05
4.41763e-05
3.14863e-05
2.23234e-05
1.57407e-05
1.10339e-05
7.68169e-06
5.29994e-06
3.60626e-06
2.39266e-06
1.50489e-06
8.2585e-07
2.62866e-07
0.0348258
0.103807
0.170798
0.234546
0.293903
0.347861
0.395584
0.436424
0.469939
0.495891
0.514248
0.525166
0.528977
0.526159
0.517315
0.503137
0.484384
0.461845
0.436319
0.408583
0.379377
0.349385
0.319221
0.289423
0.260447
0.232664
0.206364
0.181761
0.158997
0.138151
0.119247
0.102261
0.0871345
0.0737777
0.06208
0.0519163
0.0431532
0.035654
0.0292832
0.0239094
0.0194081
0.0156633
0.0125687
0.0100283
0.00795627
0.00627705
0.00492474