/*--------------------------------*- C++ -*----------------------------------*\
  =========                 |
  \\      /  F ield         | OpenFOAM: The Open Source CFD Toolbox
   \\    /   O peration     | Website:  https://openfoam.org
    \\  /    A nd           | Version:  10
     \\/     M anipulation  |
\*---------------------------------------------------------------------------*/
FoamFile
{
    format      ascii;
    class       volScalarField;
    location    "41";
    object      gradTz;
}
// * * * * * * * * * * * * * * * * * * * * * * * * * * * * * * * * * * * * * //

dimensions      [0 -1 0 1 0 0 0];

internalField   nonuniform List<scalar> 
11250
(
-14516.9
-4297.17
-1649.17
-810.184
-467.82
-291.24
-185.046
-116.507
-71.5757
-42.5586
-24.386
-13.4358
-7.11103
-3.6144
-1.76467
-0.827985
-0.373596
-0.162229
-0.0678516
-0.0273562
-0.0106409
-0.00399655
-0.0014505
-0.000509099
-0.000172922
-5.68794e-05
-1.81298e-05
-5.6031e-06
-1.67998e-06
-4.8894e-07
-1.3819e-07
-3.79479e-08
-1.01277e-08
-2.62879e-09
-6.7723e-10
-1.64643e-10
-3.62214e-11
-1.09762e-12
0
0
4.39047e-12
0
-3.29285e-12
0
-1.09762e-12
0
0
2.19524e-12
0
-1.09762e-12
0
1.31714e-11
0
-1.4269e-11
0
0
0
0
0
0
0
0
-2.08547e-11
-1.09762e-12
2.19523e-11
1.09762e-12
-1.09762e-12
0
1.09762e-12
-1.09762e-12
0
-5.48809e-12
-1.09762e-12
6.5857e-12
0
-8749.75
-5302.28
-3126.83
-1929.04
-1239.07
-809.381
-526.115
-335.18
-207.306
-123.777
-71.1187
-39.2589
-20.807
-10.5868
-5.17302
-2.42876
-1.09645
-0.476329
-0.199295
-0.0803765
-0.0312732
-0.0117486
-0.00426496
-0.00149723
-0.000508649
-0.000167341
-5.33476e-05
-1.649e-05
-4.94501e-06
-1.43942e-06
-4.06902e-07
-1.11752e-07
-2.98596e-08
-7.75357e-09
-1.94608e-09
-4.70878e-10
-1.04274e-10
-1.97571e-11
-4.39047e-12
-8.78094e-12
6.5857e-12
9.87856e-12
-8.78094e-12
-5.48809e-12
6.5857e-12
5.48809e-12
-6.5857e-12
2.19523e-12
3.29285e-12
0
0
0
0
0
0
0
-2.19523e-12
0
5.48809e-12
-1.09762e-12
-3.29285e-12
1.09762e-12
1.09762e-12
8.78094e-12
-1.09762e-12
-1.20738e-11
1.09762e-12
2.19523e-12
-1.09762e-12
-4.39047e-12
1.09762e-12
4.39047e-12
0
-8.78094e-12
8.78094e-12
-6368.71
-4983.92
-3592.44
-2525.7
-1754.12
-1198.92
-800.263
-518.085
-323.699
-194.573
-112.314
-62.2054
-33.0493
-16.8473
-8.24403
-3.8751
-1.75106
-0.761302
-0.318738
-0.128621
-0.0500692
-0.018818
-0.00683396
-0.00239994
-0.000815594
-0.000268405
-8.55915e-05
-2.64641e-05
-7.93815e-06
-2.3113e-06
-6.53551e-07
-1.79552e-07
-4.79604e-08
-1.24382e-08
-3.1326e-09
-7.88089e-10
-1.8879e-10
-2.08547e-11
0
0
1.09762e-12
-1.09762e-12
0
1.09762e-12
0
0
0
0
0
-1.64643e-11
1.09762e-12
1.53666e-11
8.78094e-12
-1.31714e-11
-1.53666e-11
-2.19523e-12
6.58571e-12
9.87856e-12
0
5.48809e-12
0
0
1.09762e-12
5.48809e-12
-1.09762e-12
-5.48809e-12
0
0
0
-1.09762e-11
0
1.20738e-11
1.09762e-12
-1.09762e-12
-1.09762e-12
-5273.9
-4589.53
-3678.05
-2804.08
-2059.39
-1460.53
-998.779
-657.065
-415.028
-251.37
-145.892
-81.127
-43.2333
-22.0905
-10.8298
-5.09818
-2.30656
-1.00385
-0.420651
-0.169873
-0.0661708
-0.024884
-0.00904159
-0.00317672
-0.00108005
-0.000355579
-0.000113434
-3.50858e-05
-1.05281e-05
-3.06644e-06
-8.67397e-07
-2.38385e-07
-6.3653e-08
-1.65093e-08
-4.18961e-09
-1.06249e-09
-2.62331e-10
-4.28071e-11
0
1.09762e-12
1.09762e-12
1.09762e-12
1.09762e-12
-2.19523e-12
9.87856e-12
0
-8.78094e-12
0
-1.09762e-12
0
0
3.29285e-12
1.09762e-11
-4.39047e-12
-1.09762e-11
0
3.29285e-12
1.09762e-12
-2.19523e-12
0
-1.09762e-12
0
-1.20738e-11
-1.09762e-12
1.4269e-11
1.09762e-12
0
0
-2.19524e-12
0
8.78094e-12
1.09762e-12
-9.87856e-12
0
0
-4732.51
-4312.35
-3652.71
-2922.48
-2227.56
-1623.08
-1131.52
-754.657
-481.385
-293.663
-171.352
-95.6728
-51.1453
-26.1981
-12.8692
-6.06807
-2.74907
-1.19779
-0.502404
-0.203058
-0.0791555
-0.0297865
-0.0108293
-0.00380687
-0.00129494
-0.000426528
-0.000136128
-4.21232e-05
-1.2645e-05
-3.68449e-06
-1.04261e-06
-2.86646e-07
-7.65885e-08
-1.98768e-08
-5.03367e-09
-1.25897e-09
-3.2709e-10
-7.68332e-11
-2.19523e-12
0
-1.09762e-12
1.09762e-12
0
0
-1.09762e-12
1.09762e-12
0
1.09762e-12
-2.19523e-12
0
1.09762e-12
0
0
0
0
0
-5.48809e-12
0
1.20738e-11
0
-8.78094e-12
0
2.19523e-12
1.09762e-12
5.48809e-12
-2.19523e-12
-4.39047e-12
1.09762e-12
2.19523e-12
-5.48809e-12
-2.19523e-12
4.39047e-12
0
-5.48809e-12
5.48809e-12
-4453.65
-4142.38
-3609.58
-2968.57
-2315.81
-1718.51
-1214.87
-818.816
-526.478
-323.121
-189.421
-106.147
-56.9086
-29.2179
-14.3798
-6.79096
-3.08061
-1.34374
-0.564164
-0.228211
-0.0890262
-0.0335231
-0.0121951
-0.00428937
-0.00145982
-0.00048107
-0.000153607
-4.75529e-05
-1.42811e-05
-4.16295e-06
-1.17849e-06
-3.24147e-07
-8.66745e-08
-2.25264e-08
-5.70322e-09
-1.4269e-09
-3.65507e-10
-6.91499e-11
1.53666e-11
5.48809e-12
-1.09762e-12
4.39047e-12
1.09762e-12
-9.87856e-12
-1.09762e-12
-4.39047e-12
1.09762e-12
4.39047e-12
4.39047e-12
8.78094e-12
-3.29285e-12
-9.87856e-12
0
0
2.19524e-12
0
-5.48809e-12
-6.58571e-12
6.5857e-12
4.39047e-12
-1.09762e-12
0
4.39047e-12
0
-5.48809e-12
1.09762e-12
0
0
0
-1.09762e-11
-2.19523e-12
4.39047e-12
1.09762e-12
4.39047e-12
3.29285e-12
-4307.62
-4044.23
-3574.6
-2984.54
-2360.51
-1772.09
-1264.55
-858.675
-555.362
-342.436
-201.487
-113.244
-60.8595
-31.308
-15.4336
-7.29865
-3.31477
-1.44732
-0.608181
-0.246204
-0.0961108
-0.036213
-0.013181
-0.00463857
-0.00157943
-0.000520726
-0.000166343
-5.15176e-05
-1.54782e-05
-4.51377e-06
-1.27832e-06
-3.51745e-07
-9.40548e-08
-2.44681e-08
-6.19715e-09
-1.52679e-09
-3.80873e-10
-6.91499e-11
7.68332e-12
-1.09762e-11
-1.31714e-11
-9.87856e-12
0
9.87856e-12
0
0
1.09762e-12
-2.19524e-12
-3.29285e-12
-5.48809e-12
1.09762e-12
7.68332e-12
-3.29285e-12
-1.09762e-12
4.39047e-12
0
-2.19524e-12
0
2.19523e-12
2.19524e-12
0
1.09762e-12
-1.09762e-12
-1.09762e-12
1.09762e-12
-1.09762e-12
0
0
0
0
0
-4.39047e-12
-1.09762e-12
0
5.48809e-12
-4231.17
-3989.71
-3551.36
-2989
-2382.5
-1801.07
-1292.86
-882.226
-572.903
-354.42
-209.103
-117.786
-63.4175
-32.6742
-16.128
-7.63546
-3.47102
-1.5168
-0.637837
-0.258375
-0.10092
-0.0380451
-0.0138546
-0.00487778
-0.00166159
-0.000548035
-0.000175135
-5.42612e-05
-1.63086e-05
-4.75766e-06
-1.3479e-06
-3.7103e-07
-9.92597e-08
-2.58291e-08
-6.53412e-09
-1.6135e-09
-3.9624e-10
-7.79308e-11
-1.09762e-12
-5.48809e-12
1.09762e-12
6.5857e-12
-9.87856e-12
-6.5857e-12
9.87856e-12
6.5857e-12
-1.09762e-12
0
-1.09762e-12
0
1.09762e-12
-1.09762e-12
-1.09762e-12
1.09762e-12
-7.68332e-12
0
-5.48809e-12
0
8.78094e-12
0
2.19523e-12
0
3.29285e-12
0
0
-1.09762e-12
0
-1.20738e-11
0
1.31714e-11
1.09762e-12
-8.78094e-12
-8.78094e-12
4.39047e-12
1.09762e-11
-4191.62
-3960.39
-3537.42
-2989.58
-2393.05
-1816.22
-1308.34
-895.518
-583.045
-361.484
-213.664
-120.542
-64.9865
-33.5199
-16.5613
-7.84705
-3.56977
-1.56093
-0.656762
-0.266174
-0.104014
-0.0392276
-0.0142907
-0.00503316
-0.0017151
-0.000565873
-0.000180893
-5.60629e-05
-1.68553e-05
-4.91866e-06
-1.39391e-06
-3.83807e-07
-1.02727e-07
-2.67445e-08
-6.78547e-09
-1.68704e-09
-4.07216e-10
-6.69547e-11
5.48809e-12
0
0
0
0
-4.39047e-12
-9.87856e-12
5.48809e-12
8.78094e-12
0
-6.58571e-12
-1.09762e-12
5.48809e-12
2.19524e-12
0
0
5.48809e-12
2.305e-11
-5.48809e-12
-2.41476e-11
0
1.09762e-12
1.09762e-12
-1.09762e-12
0
0
1.09762e-12
6.58571e-12
-1.09762e-12
-6.5857e-12
1.09762e-12
-1.09762e-12
0
1.09762e-12
0
-1.09762e-12
0
-4171.54
-3945.11
-3529.61
-2989.15
-2397.98
-1823.89
-1316.49
-902.706
-588.646
-365.453
-216.263
-122.132
-65.9008
-34.0171
-16.8179
-7.97321
-3.62899
-1.58754
-0.668225
-0.270918
-0.105903
-0.0399522
-0.0145589
-0.00512899
-0.00174821
-0.000576943
-0.000184477
-5.71873e-05
-1.71975e-05
-5.01973e-06
-1.42293e-06
-3.91905e-07
-1.0491e-07
-2.73142e-08
-6.92377e-09
-1.70789e-09
-3.99533e-10
-7.24428e-11
-9.87856e-12
1.09762e-12
4.39047e-12
-1.09762e-12
0
-3.29285e-12
0
3.29285e-12
0
1.09762e-12
-1.20738e-11
-2.19523e-12
1.31714e-11
1.09762e-12
-4.39047e-12
1.09762e-12
3.29285e-12
1.4269e-11
0
-1.75619e-11
0
3.29285e-12
0
9.87856e-12
0
-9.87856e-12
0
1.64643e-11
1.09762e-12
-1.64643e-11
-1.09762e-12
2.19524e-12
5.48809e-12
-2.19524e-12
-5.48809e-12
0
0
-4161.59
-3937.4
-3525.46
-2988.64
-2400.23
-1827.65
-1320.62
-906.438
-591.608
-367.583
-217.677
-123.005
-66.4081
-34.2953
-16.9626
-8.04477
-3.66277
-1.60279
-0.674826
-0.273662
-0.106999
-0.0403744
-0.0147157
-0.00518522
-0.0017677
-0.000583478
-0.000186599
-5.78553e-05
-1.74013e-05
-5.08011e-06
-1.4403e-06
-3.96771e-07
-1.06244e-07
-2.76402e-08
-6.98853e-09
-1.72545e-09
-4.17095e-10
-8.67118e-11
-7.68332e-12
-4.39047e-12
5.48809e-12
5.48809e-12
2.19523e-12
-1.09762e-12
0
0
-4.39047e-12
0
2.19523e-12
-3.29285e-12
0
3.29285e-12
2.19523e-12
1.09762e-12
0
2.19523e-12
-1.09762e-12
-2.19523e-12
-2.19523e-12
1.09762e-12
1.09762e-12
0
-1.09762e-12
-1.09762e-12
1.09762e-12
1.09762e-12
1.09762e-12
-1.09762e-12
0
0
1.09762e-12
-6.5857e-12
0
5.48809e-12
0
-4156.79
-3933.63
-3523.36
-2988.27
-2401.24
-1829.44
-1322.64
-908.3
-593.11
-368.678
-218.411
-123.464
-66.6768
-34.4437
-17.0403
-8.08345
-3.68113
-1.61112
-0.678448
-0.275174
-0.107606
-0.0406089
-0.014803
-0.00521664
-0.00177863
-0.000587155
-0.000187797
-5.82334e-05
-1.75171e-05
-5.11451e-06
-1.45021e-06
-3.9954e-07
-1.07014e-07
-2.78564e-08
-7.04451e-09
-1.74192e-09
-4.32461e-10
-9.87856e-11
4.39047e-12
2.52452e-11
0
-1.53666e-11
1.09762e-12
0
-1.09762e-12
-1.09762e-12
-5.48809e-12
0
4.39047e-12
1.09762e-12
0
0
0
1.09762e-12
1.09762e-12
-2.19523e-12
0
-1.09762e-12
-1.09762e-12
3.29285e-12
1.4269e-11
-2.19523e-12
-1.31714e-11
0
-9.87856e-12
-2.08547e-11
8.78094e-12
2.19523e-11
0
0
0
0
-2.19524e-12
-3.29285e-12
5.48809e-12
-4154.55
-3931.85
-3522.33
-2988.06
-2401.67
-1830.27
-1323.6
-909.196
-593.842
-369.218
-218.777
-123.694
-66.8128
-34.5194
-17.0802
-8.10341
-3.69066
-1.61547
-0.680345
-0.275968
-0.107926
-0.040733
-0.0148495
-0.00523341
-0.00178448
-0.000589129
-0.000188442
-5.84377e-05
-1.75798e-05
-5.13319e-06
-1.45562e-06
-4.01046e-07
-1.07412e-07
-2.79925e-08
-7.0961e-09
-1.74521e-09
-4.05021e-10
-9.11023e-11
-1.86595e-11
1.09762e-12
0
3.29285e-12
8.78094e-12
-5.48809e-12
-7.68332e-12
1.09762e-12
5.48809e-12
-1.09762e-12
-6.58571e-12
0
2.19524e-12
1.09762e-12
-2.19523e-12
-1.09762e-12
0
0
0
0
0
2.19524e-12
-2.19524e-12
6.5857e-12
0
-1.86595e-11
-4.39047e-12
9.87856e-12
3.29285e-12
3.29285e-12
1.09762e-12
0
-1.09762e-12
0
0
1.09762e-12
-1.09762e-12
-4153.53
-3931.04
-3521.85
-2987.94
-2401.86
-1830.63
-1324.04
-909.61
-594.184
-369.473
-218.952
-123.805
-66.8788
-34.5564
-17.0997
-8.11327
-3.69539
-1.61763
-0.681295
-0.276368
-0.108088
-0.0407959
-0.014873
-0.00524195
-0.00178747
-0.000590141
-0.000188774
-5.85432e-05
-1.76123e-05
-5.14289e-06
-1.45841e-06
-4.0186e-07
-1.07653e-07
-2.80463e-08
-7.0961e-09
-1.71558e-09
-3.97338e-10
-1.10859e-10
-3.07333e-11
-6.5857e-12
0
5.48809e-12
-2.19523e-12
0
2.19523e-12
-2.19523e-12
1.09762e-12
3.29285e-12
-1.09762e-12
0
1.09762e-12
0
-2.19523e-12
1.09762e-12
0
-1.09762e-12
-8.78094e-12
-8.78094e-12
4.39047e-12
8.78094e-12
4.39047e-12
0
-1.20738e-11
-1.09762e-12
1.31714e-11
2.19523e-12
-2.19523e-12
-1.09762e-12
1.09762e-12
-1.09762e-12
-4.39047e-12
-7.68332e-12
3.29285e-12
1.31714e-11
-3.29285e-12
-4153.08
-3930.68
-3521.64
-2987.88
-2401.93
-1830.79
-1324.23
-909.795
-594.339
-369.59
-219.032
-123.857
-66.9095
-34.5737
-17.109
-8.11794
-3.69763
-1.61866
-0.68175
-0.27656
-0.108166
-0.0408264
-0.0148845
-0.00524612
-0.00178893
-0.000590638
-0.000188938
-5.85953e-05
-1.76284e-05
-5.14771e-06
-1.4598e-06
-4.02253e-07
-1.07766e-07
-2.80847e-08
-7.10488e-09
-1.71997e-09
-3.9624e-10
-9.54927e-11
-2.85381e-11
-4.39047e-12
-8.78094e-12
-1.09762e-12
9.87856e-12
-4.39047e-12
-5.48809e-12
5.48809e-12
4.39047e-12
0
0
0
0
0
2.19523e-12
0
-2.19524e-12
5.48809e-12
0
-5.48809e-12
1.09762e-12
0
-2.19524e-12
0
1.09762e-12
0
4.39047e-12
0
-4.39047e-12
-1.09762e-12
0
-4.39047e-12
4.39047e-12
5.48809e-12
-4.39047e-12
1.09762e-12
-1.09762e-12
-4152.89
-3930.52
-3521.54
-2987.86
-2401.96
-1830.86
-1324.31
-909.875
-594.406
-369.64
-219.067
-123.88
-66.9232
-34.5815
-17.1131
-8.12005
-3.69866
-1.61914
-0.681959
-0.276649
-0.108202
-0.0408405
-0.0148899
-0.00524807
-0.00178962
-0.000590872
-0.000189015
-5.86199e-05
-1.76361e-05
-5.15001e-06
-1.46048e-06
-4.02454e-07
-1.0782e-07
-2.80836e-08
-7.10598e-09
-1.74631e-09
-3.95142e-10
-9.11023e-11
-2.305e-11
7.68332e-12
1.09762e-12
-1.4269e-11
0
1.4269e-11
-5.48809e-12
2.19524e-12
5.48809e-12
-7.68332e-12
0
6.5857e-12
-3.29285e-12
-9.87856e-12
3.29285e-12
-5.48809e-12
-2.19524e-12
1.53666e-11
-1.09762e-12
0
5.48809e-12
1.09762e-12
-8.78094e-12
-1.09762e-12
5.48809e-12
8.78094e-12
0
-8.78094e-12
0
-4.39047e-12
0
-6.58571e-12
-1.09762e-12
9.87856e-12
9.87856e-12
1.09762e-12
-8.78094e-12
-4152.81
-3930.46
-3521.5
-2987.84
-2401.97
-1830.89
-1324.34
-909.908
-594.434
-369.662
-219.082
-123.889
-66.9291
-34.5848
-17.1149
-8.12098
-3.69911
-1.61935
-0.682052
-0.276688
-0.108218
-0.0408468
-0.0148923
-0.00524894
-0.00178993
-0.000590978
-0.00018905
-5.86311e-05
-1.76395e-05
-5.15105e-06
-1.46079e-06
-4.02537e-07
-1.07851e-07
-2.80957e-08
-7.08732e-09
-1.73094e-09
-4.08314e-10
-9.21999e-11
-1.97571e-11
0
-1.09762e-12
1.09762e-12
1.09762e-12
-1.09762e-12
0
0
3.29285e-12
0
-4.39047e-12
0
1.09762e-12
0
-1.09762e-12
1.09762e-12
-4.39047e-12
-1.09762e-12
6.5857e-12
8.78094e-12
-1.09762e-12
-8.78094e-12
0
0
-2.19523e-12
4.39047e-12
2.19523e-12
-5.48809e-12
-2.19523e-12
0
2.19523e-12
-6.5857e-12
-4.39047e-12
6.5857e-12
4.39047e-12
8.78094e-12
-7.68332e-12
-4152.78
-3930.43
-3521.49
-2987.84
-2401.98
-1830.9
-1324.36
-909.921
-594.446
-369.671
-219.088
-123.893
-66.9316
-34.5862
-17.1157
-8.12137
-3.6993
-1.61943
-0.682091
-0.276705
-0.108225
-0.0408496
-0.0148933
-0.00524932
-0.00179006
-0.000591023
-0.000189065
-5.8636e-05
-1.7641e-05
-5.15152e-06
-1.46095e-06
-4.02563e-07
-1.07824e-07
-2.80716e-08
-7.09719e-09
-1.75729e-09
-4.18192e-10
-8.12237e-11
-1.4269e-11
-1.09762e-12
-4.39047e-12
0
1.4269e-11
-1.53666e-11
-4.39047e-12
1.4269e-11
0
1.09762e-12
0
-1.09762e-12
1.09762e-12
0
-1.09762e-12
0
2.19524e-12
0
-1.09762e-12
0
-1.09762e-12
0
0
1.09762e-12
-1.09762e-12
0
0
0
-1.09762e-12
0
1.09762e-12
-1.4269e-11
4.39047e-12
9.87856e-12
-3.29285e-12
4.39047e-12
-1.09762e-12
-4152.77
-3930.42
-3521.48
-2987.84
-2401.98
-1830.9
-1324.36
-909.926
-594.45
-369.674
-219.091
-123.895
-66.9326
-34.5868
-17.116
-8.12152
-3.69938
-1.61947
-0.682107
-0.276712
-0.108228
-0.0408507
-0.0148937
-0.00524948
-0.00179012
-0.000591042
-0.000189071
-5.8638e-05
-1.76417e-05
-5.15171e-06
-1.46101e-06
-4.02574e-07
-1.07827e-07
-2.80836e-08
-7.10159e-09
-1.74631e-09
-4.18192e-10
-8.45165e-11
-4.39047e-12
0
0
1.09762e-12
-1.09762e-12
-1.64643e-11
0
1.53666e-11
0
0
1.09762e-12
-1.09762e-12
1.09762e-12
0
-1.09762e-12
-1.09762e-12
0
1.09762e-12
-1.09762e-12
0
1.09762e-12
0
-3.29285e-12
0
3.29285e-12
0
1.09762e-12
8.78094e-12
0
-9.87856e-12
0
0
9.87856e-12
3.29285e-12
-1.4269e-11
-2.19523e-12
3.29285e-12
-4152.76
-3930.42
-3521.48
-2987.84
-2401.98
-1830.9
-1324.37
-909.928
-594.452
-369.676
-219.092
-123.895
-66.933
-34.587
-17.1161
-8.12159
-3.69941
-1.61948
-0.682113
-0.276715
-0.108229
-0.0408511
-0.0148939
-0.00524954
-0.00179014
-0.00059105
-0.000189074
-5.86388e-05
-1.76419e-05
-5.15177e-06
-1.461e-06
-4.02584e-07
-1.0783e-07
-2.80803e-08
-7.10927e-09
-1.74521e-09
-4.11607e-10
-8.8907e-11
-1.86595e-11
0
5.48809e-12
-1.09762e-12
-5.48809e-12
1.09762e-12
1.09762e-12
1.09762e-11
-1.09762e-12
-2.19523e-12
0
-8.78094e-12
0
0
0
1.09762e-12
1.09762e-12
-2.19523e-12
1.09762e-12
-1.09762e-12
2.19523e-12
-2.19523e-12
-1.09762e-11
3.29285e-12
7.68332e-12
-8.78094e-12
-1.09762e-11
9.87856e-12
9.87856e-12
5.48809e-12
-1.09762e-12
-4.39047e-12
0
-1.09762e-12
0
0
1.09762e-12
-4152.76
-3930.42
-3521.48
-2987.84
-2401.98
-1830.91
-1324.37
-909.929
-594.453
-369.676
-219.092
-123.896
-66.9331
-34.5871
-17.1162
-8.12161
-3.69942
-1.61949
-0.682116
-0.276716
-0.108229
-0.0408513
-0.0148939
-0.00524956
-0.00179015
-0.000591053
-0.000189075
-5.86391e-05
-1.7642e-05
-5.15182e-06
-1.461e-06
-4.02558e-07
-1.07821e-07
-2.80858e-08
-7.11146e-09
-1.7496e-09
-4.31364e-10
-8.34189e-11
3.29285e-12
0
5.48809e-12
0
-6.58571e-12
0
-9.87856e-12
2.19524e-12
8.78094e-12
-1.09762e-12
-8.78094e-12
1.09762e-12
7.68332e-12
0
0
1.09762e-12
2.19524e-12
1.86595e-11
-4.39047e-12
-1.75619e-11
1.09762e-12
0
-1.09762e-11
-1.09762e-12
1.31714e-11
0
-2.19523e-12
0
1.09762e-12
-1.09762e-12
0
-2.19524e-12
-2.19523e-12
6.58571e-12
-3.29285e-12
-7.68332e-12
8.78094e-12
-4152.76
-3930.42
-3521.48
-2987.84
-2401.98
-1830.91
-1324.37
-909.929
-594.453
-369.676
-219.092
-123.896
-66.9331
-34.5871
-17.1162
-8.12162
-3.69942
-1.61949
-0.682117
-0.276716
-0.108229
-0.0408514
-0.014894
-0.00524957
-0.00179015
-0.000591054
-0.000189075
-5.86392e-05
-1.76421e-05
-5.15184e-06
-1.46101e-06
-4.02544e-07
-1.07795e-07
-2.80661e-08
-7.12903e-09
-1.77704e-09
-4.26973e-10
-7.4638e-11
-1.09762e-12
1.09762e-12
6.5857e-12
-1.09762e-12
-6.58571e-12
-4.39047e-12
0
4.39047e-12
-3.29285e-12
2.19524e-12
3.29285e-12
-2.19523e-12
2.19524e-12
0
1.09762e-12
0
-3.29285e-12
9.87856e-12
0
-9.87856e-12
0
0
0
0
-1.64643e-11
0
1.64643e-11
0
1.09762e-12
0
0
-1.31714e-11
0
1.20738e-11
-3.29285e-12
1.09762e-12
2.19524e-12
-4152.76
-3930.42
-3521.48
-2987.84
-2401.98
-1830.91
-1324.37
-909.929
-594.453
-369.676
-219.092
-123.896
-66.9332
-34.5871
-17.1162
-8.12162
-3.69942
-1.61949
-0.682117
-0.276716
-0.108229
-0.0408514
-0.014894
-0.00524958
-0.00179015
-0.000591055
-0.000189075
-5.86393e-05
-1.76421e-05
-5.15184e-06
-1.461e-06
-4.02522e-07
-1.07787e-07
-2.80771e-08
-7.12683e-09
-1.75619e-09
-4.26973e-10
-9.98832e-11
-8.78094e-12
-1.09762e-12
-1.09762e-12
3.29285e-12
-2.19523e-12
-3.29285e-12
2.19523e-12
1.09762e-12
0
0
0
0
1.09762e-12
0
-1.09762e-12
1.09762e-12
0
-1.09762e-12
-7.68332e-12
-1.09762e-12
7.68332e-12
1.09762e-12
0
0
0
-1.09762e-12
-4.39047e-12
1.20738e-11
4.39047e-12
-1.09762e-11
-2.19523e-12
-1.09762e-12
2.19523e-12
0
0
-1.09762e-11
1.20738e-11
-4152.76
-3930.42
-3521.48
-2987.84
-2401.98
-1830.91
-1324.37
-909.929
-594.453
-369.676
-219.092
-123.896
-66.9332
-34.5871
-17.1162
-8.12162
-3.69942
-1.61949
-0.682117
-0.276716
-0.108229
-0.0408514
-0.014894
-0.00524958
-0.00179015
-0.000591055
-0.000189075
-5.86393e-05
-1.76421e-05
-5.15185e-06
-1.46102e-06
-4.02538e-07
-1.07784e-07
-2.80661e-08
-7.11476e-09
-1.76497e-09
-4.35754e-10
-9.11023e-11
-5.48809e-12
-4.39047e-12
0
1.09762e-12
0
-1.09762e-12
0
1.09762e-12
-3.29285e-12
-1.09762e-12
4.39047e-12
0
0
5.48809e-12
0
-7.68332e-12
3.29285e-12
2.19523e-12
7.68332e-12
1.09762e-12
-1.20738e-11
0
-1.09762e-12
-1.09762e-12
-2.19524e-12
0
1.75619e-11
0
-1.4269e-11
0
1.09762e-12
-5.48809e-12
-2.19523e-12
6.58571e-12
-1.09762e-12
-1.09762e-12
2.19524e-12
-4152.76
-3930.42
-3521.48
-2987.84
-2401.98
-1830.91
-1324.37
-909.929
-594.453
-369.676
-219.092
-123.896
-66.9332
-34.5871
-17.1162
-8.12162
-3.69942
-1.61949
-0.682117
-0.276716
-0.108229
-0.0408514
-0.014894
-0.00524958
-0.00179015
-0.000591055
-0.000189075
-5.86393e-05
-1.76421e-05
-5.15185e-06
-1.46102e-06
-4.02556e-07
-1.07796e-07
-2.80529e-08
-7.10268e-09
-1.7507e-09
-4.24778e-10
-1.06469e-10
-1.53666e-11
0
1.09762e-12
-1.09762e-12
-3.29285e-12
2.19523e-12
-2.19524e-12
-1.09762e-12
-3.29285e-12
-1.09762e-12
6.58571e-12
-5.48809e-12
-8.78094e-12
5.48809e-12
8.78094e-12
-1.31714e-11
6.58571e-12
1.53666e-11
-2.19524e-12
-3.29285e-12
-5.48809e-12
2.19524e-12
1.09762e-12
-3.29285e-12
4.39047e-12
4.39047e-12
-4.39047e-12
-2.19524e-12
0
0
0
0
0
0
1.09762e-12
1.09762e-12
-2.19524e-12
-4152.76
-3930.42
-3521.48
-2987.84
-2401.98
-1830.91
-1324.37
-909.929
-594.453
-369.676
-219.092
-123.896
-66.9332
-34.5871
-17.1162
-8.12162
-3.69942
-1.61949
-0.682117
-0.276716
-0.108229
-0.0408514
-0.014894
-0.00524958
-0.00179015
-0.000591055
-0.000189075
-5.86393e-05
-1.76421e-05
-5.15185e-06
-1.461e-06
-4.02549e-07
-1.07808e-07
-2.80375e-08
-7.07524e-09
-1.75729e-09
-4.45633e-10
-1.20738e-10
-1.97571e-11
0
-1.09762e-12
-1.09762e-12
0
0
1.75619e-11
1.09762e-12
-2.08547e-11
0
3.29285e-12
0
-2.19523e-12
-1.09762e-12
3.29285e-12
0
0
0
8.78094e-12
-2.19523e-12
-5.48809e-12
1.09762e-12
-2.19523e-12
0
2.19523e-12
-2.19523e-12
-2.19523e-12
4.39047e-12
1.09762e-12
-3.29285e-12
0
0
2.19523e-12
0
-2.19523e-12
-5.48809e-12
5.48809e-12
-4152.76
-3930.42
-3521.48
-2987.84
-2401.98
-1830.91
-1324.37
-909.929
-594.453
-369.676
-219.092
-123.896
-66.9332
-34.5871
-17.1162
-8.12162
-3.69942
-1.61949
-0.682117
-0.276716
-0.108229
-0.0408514
-0.014894
-0.00524958
-0.00179015
-0.000591055
-0.000189075
-5.86393e-05
-1.76421e-05
-5.15184e-06
-1.46101e-06
-4.02549e-07
-1.07796e-07
-2.80452e-08
-7.11476e-09
-1.77924e-09
-4.51121e-10
-1.09762e-10
0
0
1.09762e-12
-1.09762e-12
0
0
1.09762e-12
0
3.29285e-12
0
-4.39047e-12
0
0
0
0
0
0
2.19523e-12
0
-1.09762e-12
0
0
-2.19524e-12
0
-4.39047e-12
-1.09762e-12
5.48809e-12
1.09762e-12
0
2.19523e-12
-1.09762e-12
-6.58571e-12
0
2.19524e-12
-1.4269e-11
4.39047e-12
1.31714e-11
-4152.76
-3930.42
-3521.48
-2987.84
-2401.98
-1830.91
-1324.37
-909.929
-594.453
-369.676
-219.092
-123.896
-66.9332
-34.5871
-17.1162
-8.12162
-3.69942
-1.61949
-0.682117
-0.276716
-0.108229
-0.0408514
-0.014894
-0.00524958
-0.00179015
-0.000591055
-0.000189075
-5.86393e-05
-1.76421e-05
-5.15186e-06
-1.46101e-06
-4.02548e-07
-1.07788e-07
-2.80463e-08
-7.11695e-09
-1.78582e-09
-4.6978e-10
-1.05371e-10
8.78094e-12
2.19524e-12
5.48809e-12
-1.09762e-12
-6.58571e-12
-4.39047e-12
0
5.48809e-12
0
8.78094e-12
2.19524e-12
-1.20738e-11
0
-5.48809e-12
-1.09762e-12
5.48809e-12
0
2.19523e-12
0
1.09762e-12
0
-2.19524e-12
0
-5.48809e-12
-1.75619e-11
4.39047e-12
1.86595e-11
0
-1.09762e-12
1.09762e-12
0
0
0
0
0
8.78094e-12
-8.78094e-12
-4152.76
-3930.42
-3521.48
-2987.84
-2401.98
-1830.91
-1324.37
-909.929
-594.453
-369.676
-219.092
-123.896
-66.9332
-34.5871
-17.1162
-8.12162
-3.69942
-1.61949
-0.682117
-0.276716
-0.108229
-0.0408514
-0.014894
-0.00524958
-0.00179015
-0.000591055
-0.000189075
-5.86393e-05
-1.76421e-05
-5.15182e-06
-1.46101e-06
-4.02563e-07
-1.07811e-07
-2.80639e-08
-7.10378e-09
-1.77595e-09
-4.50023e-10
-1.07567e-10
-7.68332e-12
7.68332e-12
-1.09762e-12
-1.09762e-12
0
1.09762e-12
1.09762e-12
6.5857e-12
0
1.09762e-12
-2.19523e-12
-8.78094e-12
2.19523e-12
1.09762e-12
2.19523e-12
-1.09762e-12
-2.19523e-12
0
0
0
-1.09762e-12
0
1.09762e-12
-1.09762e-12
0
1.09762e-12
-3.29285e-12
0
3.29285e-12
9.87856e-12
3.29285e-12
-8.78094e-12
-2.41476e-11
-1.09762e-12
1.64643e-11
2.19523e-12
2.19523e-12
-4152.76
-3930.42
-3521.48
-2987.84
-2401.98
-1830.91
-1324.37
-909.929
-594.453
-369.676
-219.092
-123.896
-66.9332
-34.5871
-17.1162
-8.12162
-3.69942
-1.61949
-0.682117
-0.276716
-0.108229
-0.0408514
-0.014894
-0.00524958
-0.00179015
-0.000591055
-0.000189075
-5.86393e-05
-1.76421e-05
-5.15183e-06
-1.46101e-06
-4.02549e-07
-1.07808e-07
-2.8065e-08
-7.11146e-09
-1.78912e-09
-4.4234e-10
-8.12237e-11
-2.19524e-12
4.39047e-12
-3.29285e-12
-2.19524e-12
1.09762e-12
-3.29285e-12
-2.19524e-12
2.305e-11
-1.09762e-12
-1.64643e-11
0
-1.09762e-12
0
1.4269e-11
0
-1.53666e-11
0
1.20738e-11
-1.09762e-12
-9.87856e-12
0
-1.09762e-12
1.09762e-12
0
0
0
0
0
9.87856e-12
2.19523e-12
-9.87856e-12
-6.58571e-12
-1.09762e-12
5.48809e-12
0
0
0
-4152.76
-3930.42
-3521.48
-2987.84
-2401.98
-1830.91
-1324.37
-909.929
-594.453
-369.676
-219.092
-123.896
-66.9332
-34.5871
-17.1162
-8.12162
-3.69942
-1.61949
-0.682117
-0.276716
-0.108229
-0.0408514
-0.014894
-0.00524958
-0.00179015
-0.000591055
-0.000189075
-5.86393e-05
-1.76421e-05
-5.15182e-06
-1.461e-06
-4.02552e-07
-1.07801e-07
-2.8065e-08
-7.10598e-09
-1.78034e-09
-4.4234e-10
-7.57356e-11
0
0
-1.09762e-12
0
0
0
0
9.87856e-12
0
-9.87856e-12
0
-2.19523e-12
-9.87856e-12
1.09762e-12
1.09762e-11
1.09762e-12
2.19524e-12
8.78094e-12
-1.31714e-11
-9.87856e-12
1.20738e-11
-1.09762e-12
-4.39047e-12
-3.29285e-12
4.39047e-12
3.29285e-12
0
0
1.09762e-12
-1.09762e-12
7.68332e-12
1.09762e-12
-4.39047e-12
0
-2.19524e-12
0
-2.19524e-12
-4152.76
-3930.42
-3521.48
-2987.84
-2401.98
-1830.91
-1324.37
-909.929
-594.453
-369.676
-219.092
-123.896
-66.9332
-34.5871
-17.1162
-8.12162
-3.69942
-1.61949
-0.682117
-0.276716
-0.108229
-0.0408514
-0.014894
-0.00524958
-0.00179015
-0.000591055
-0.000189075
-5.86393e-05
-1.76421e-05
-5.15183e-06
-1.46102e-06
-4.02547e-07
-1.0779e-07
-2.80858e-08
-7.09939e-09
-1.73972e-09
-4.40145e-10
-9.65903e-11
-5.48809e-12
-6.5857e-12
0
6.5857e-12
0
-6.5857e-12
0
5.48809e-12
-1.09762e-12
1.09762e-12
0
-5.48809e-12
-3.29285e-12
3.29285e-12
7.68332e-12
0
-2.19523e-12
0
-1.75619e-11
-9.87856e-12
5.48809e-12
5.48809e-12
1.20738e-11
4.39047e-12
-2.19523e-12
0
-7.68332e-12
0
1.4269e-11
0
-4.39047e-12
-7.68332e-12
-1.09762e-12
-1.09762e-12
0
1.64643e-11
-6.5857e-12
-4152.76
-3930.42
-3521.48
-2987.84
-2401.98
-1830.91
-1324.37
-909.929
-594.453
-369.676
-219.092
-123.896
-66.9332
-34.5871
-17.1162
-8.12162
-3.69942
-1.61949
-0.682117
-0.276716
-0.108229
-0.0408514
-0.014894
-0.00524958
-0.00179015
-0.000591055
-0.000189075
-5.86393e-05
-1.76421e-05
-5.15187e-06
-1.46104e-06
-4.02568e-07
-1.07773e-07
-2.80496e-08
-7.11366e-09
-1.75399e-09
-4.43437e-10
-8.78094e-11
1.20738e-11
0
3.29285e-12
4.39047e-12
0
-7.68332e-12
-1.09762e-12
1.09762e-12
0
0
-2.19524e-12
-2.19523e-12
4.39047e-12
1.09762e-12
-1.09762e-12
-1.09762e-12
8.78094e-12
3.29285e-12
-1.09762e-11
-9.87856e-12
1.09762e-12
-5.48809e-12
1.09762e-12
1.31714e-11
-5.48809e-12
-1.09762e-12
6.5857e-12
0
1.09762e-12
0
-1.09762e-12
-1.31714e-11
0
6.58571e-12
-4.39047e-12
6.5857e-12
4.39047e-12
-4152.76
-3930.42
-3521.48
-2987.84
-2401.98
-1830.91
-1324.37
-909.929
-594.453
-369.676
-219.092
-123.896
-66.9332
-34.5871
-17.1162
-8.12162
-3.69942
-1.61949
-0.682117
-0.276716
-0.108229
-0.0408514
-0.014894
-0.00524958
-0.00179015
-0.000591055
-0.000189075
-5.86393e-05
-1.76421e-05
-5.15186e-06
-1.46104e-06
-4.02574e-07
-1.07778e-07
-2.80606e-08
-7.12354e-09
-1.7518e-09
-4.31364e-10
-9.00046e-11
8.78094e-12
5.48809e-12
0
3.29285e-12
-4.39047e-12
0
-4.39047e-12
0
-5.48809e-12
-1.09762e-12
1.31714e-11
-2.19523e-12
-4.39047e-12
3.29285e-12
-7.68332e-12
1.09762e-12
1.53666e-11
1.09762e-12
-1.75619e-11
8.78094e-12
1.31714e-11
-8.78094e-12
2.19524e-12
0
-2.19524e-12
-1.09762e-12
1.09762e-12
-3.29285e-12
4.39047e-12
4.39047e-12
1.09762e-12
-2.19524e-12
-5.48809e-12
1.09762e-12
1.09762e-12
-1.09762e-12
0
-4152.76
-3930.42
-3521.48
-2987.84
-2401.98
-1830.91
-1324.37
-909.929
-594.453
-369.676
-219.092
-123.896
-66.9332
-34.5871
-17.1162
-8.12162
-3.69942
-1.61949
-0.682117
-0.276716
-0.108229
-0.0408514
-0.014894
-0.00524958
-0.00179015
-0.000591055
-0.000189075
-5.86393e-05
-1.76421e-05
-5.15186e-06
-1.46103e-06
-4.02565e-07
-1.07803e-07
-2.80661e-08
-7.11037e-09
-1.7507e-09
-4.21485e-10
-9.11023e-11
-1.75619e-11
-8.78094e-12
5.48809e-12
8.78094e-12
-1.4269e-11
-8.78094e-12
1.53666e-11
1.09762e-12
-2.19523e-12
1.09762e-12
-9.87856e-12
0
1.4269e-11
0
-7.68332e-12
1.09762e-12
-1.09762e-11
-1.09762e-12
9.87856e-12
0
3.29285e-12
-1.09762e-12
-2.19523e-12
-1.09762e-12
-5.48809e-12
-2.19523e-12
7.68332e-12
4.39047e-12
1.31714e-11
0
-1.31714e-11
8.78094e-12
1.31714e-11
-1.09762e-11
-1.09762e-11
-1.09762e-12
1.09762e-12
-4152.76
-3930.42
-3521.48
-2987.84
-2401.98
-1830.91
-1324.37
-909.929
-594.453
-369.676
-219.092
-123.896
-66.9332
-34.5871
-17.1162
-8.12162
-3.69942
-1.61949
-0.682117
-0.276716
-0.108229
-0.0408514
-0.014894
-0.00524958
-0.00179015
-0.000591055
-0.000189075
-5.86393e-05
-1.76421e-05
-5.15186e-06
-1.46103e-06
-4.02573e-07
-1.07811e-07
-2.80595e-08
-7.12354e-09
-1.78143e-09
-4.24778e-10
-8.56142e-11
-9.87856e-12
6.58571e-12
-4.39047e-12
-4.39047e-12
9.87856e-12
-5.48809e-12
-4.39047e-12
9.87856e-12
9.87856e-12
-1.09762e-11
-1.4269e-11
0
7.68332e-12
1.4269e-11
7.68332e-12
-1.4269e-11
0
4.39047e-12
-8.78094e-12
-5.48809e-12
0
0
0
0
0
-3.29285e-12
0
4.39047e-12
0
-1.09762e-12
-8.78094e-12
-6.58571e-12
1.53666e-11
5.48809e-12
-8.78094e-12
0
3.29285e-12
-4152.76
-3930.42
-3521.48
-2987.84
-2401.98
-1830.91
-1324.37
-909.929
-594.453
-369.676
-219.092
-123.896
-66.9332
-34.5871
-17.1162
-8.12162
-3.69942
-1.61949
-0.682117
-0.276716
-0.108229
-0.0408514
-0.014894
-0.00524958
-0.00179015
-0.000591055
-0.000189075
-5.86393e-05
-1.76421e-05
-5.15187e-06
-1.46104e-06
-4.02567e-07
-1.07799e-07
-2.80836e-08
-7.14329e-09
-1.77375e-09
-4.14899e-10
-8.12237e-11
-7.68332e-12
0
0
5.48809e-12
5.48809e-12
-6.5857e-12
-3.29285e-12
1.09762e-12
-1.09762e-12
0
0
-1.09762e-12
8.78094e-12
1.4269e-11
-8.78094e-12
-1.53666e-11
0
1.53666e-11
0
-1.31714e-11
0
-1.09762e-12
-3.29285e-12
-1.09762e-12
4.39047e-12
0
0
0
0
1.09762e-12
-1.09762e-12
-7.68332e-12
1.09762e-12
7.68332e-12
-8.78094e-12
0
7.68332e-12
-4152.76
-3930.42
-3521.48
-2987.84
-2401.98
-1830.91
-1324.37
-909.929
-594.453
-369.676
-219.092
-123.896
-66.9332
-34.5871
-17.1162
-8.12162
-3.69942
-1.61949
-0.682117
-0.276716
-0.108229
-0.0408514
-0.014894
-0.00524958
-0.00179015
-0.000591055
-0.000189075
-5.86393e-05
-1.76421e-05
-5.15185e-06
-1.46105e-06
-4.02605e-07
-1.07822e-07
-2.80617e-08
-7.12024e-09
-1.77704e-09
-4.21485e-10
-7.57356e-11
3.29285e-12
0
-7.68332e-12
-9.87856e-12
-5.48809e-12
9.87856e-12
0
-1.09762e-12
1.09762e-12
-1.09762e-12
0
0
1.09762e-12
0
0
-1.09762e-12
-9.87856e-12
0
4.39047e-12
0
5.48809e-12
0
-2.19523e-12
5.48809e-12
2.19523e-12
-4.39047e-12
0
-1.09762e-12
0
7.68332e-12
7.68332e-12
-6.5857e-12
-9.87856e-12
-7.68332e-12
-2.19523e-12
3.29285e-12
7.68332e-12
-4152.76
-3930.42
-3521.48
-2987.84
-2401.98
-1830.91
-1324.37
-909.929
-594.453
-369.676
-219.092
-123.896
-66.9332
-34.5871
-17.1162
-8.12162
-3.69942
-1.61949
-0.682117
-0.276716
-0.108229
-0.0408514
-0.014894
-0.00524958
-0.00179015
-0.000591055
-0.000189075
-5.86393e-05
-1.76421e-05
-5.15185e-06
-1.46103e-06
-4.02592e-07
-1.07846e-07
-2.80836e-08
-7.11146e-09
-1.75399e-09
-4.22583e-10
-9.54927e-11
-1.09762e-11
-1.09762e-12
0
1.09762e-12
0
0
1.09762e-12
-1.09762e-12
3.29285e-12
0
-2.19524e-12
0
3.29285e-12
2.19524e-12
-7.68332e-12
-2.19524e-12
3.29285e-12
-1.09762e-12
-1.09762e-12
1.09762e-12
1.09762e-12
0
-1.09762e-12
1.09762e-12
-1.09762e-12
0
-4.39047e-12
0
4.39047e-12
1.09762e-12
4.39047e-12
0
-5.48809e-12