/*--------------------------------*- C++ -*----------------------------------*\
  =========                 |
  \\      /  F ield         | OpenFOAM: The Open Source CFD Toolbox
   \\    /   O peration     | Website:  https://openfoam.org
    \\  /    A nd           | Version:  10
     \\/     M anipulation  |
\*---------------------------------------------------------------------------*/
FoamFile
{
    format      ascii;
    class       volScalarField;
    location    "500";
    object      T;
}
// * * * * * * * * * * * * * * * * * * * * * * * * * * * * * * * * * * * * * //

dimensions      [0 0 0 1 0 0 0];

internalField   nonuniform List<scalar> 
11250
(
249.894
167.71
139.613
127.294
120.61
116.398
113.469
111.295
109.607
108.252
107.137
106.203
105.409
104.725
104.133
103.617
103.164
102.766
102.415
102.105
101.832
101.591
101.379
101.192
101.028
100.884
100.758
100.648
100.552
100.469
100.397
100.335
100.282
100.236
100.197
100.164
100.136
100.112
100.093
100.076
100.062
100.05
100.041
100.033
100.027
100.021
100.017
100.014
100.011
100.008
100.007
100.005
100.004
100.003
100.002
100.002
100.001
100.001
100.001
100.001
100
100
100
100
100
100
100
100
100
100
100
100
100
100
100
331.653
249.047
203.066
176.251
159.368
147.919
139.662
133.412
128.501
124.53
121.247
118.485
116.131
114.103
112.341
110.803
109.453
108.266
107.219
106.295
105.479
104.759
104.125
103.566
103.075
102.644
102.267
101.938
101.652
101.403
101.188
101.002
100.843
100.707
100.59
100.491
100.407
100.337
100.277
100.227
100.186
100.151
100.123
100.099
100.08
100.064
100.051
100.041
100.032
100.025
100.02
100.016
100.012
100.009
100.007
100.006
100.004
100.003
100.003
100.002
100.001
100.001
100.001
100.001
100
100
100
100
100
100
100
100
100
100
100
359.329
293.766
247.368
215.297
192.715
176.277
163.881
154.226
146.496
140.165
134.882
130.409
126.577
123.263
120.378
117.852
115.632
113.676
111.949
110.424
109.076
107.886
106.836
105.911
105.098
104.385
103.76
103.215
102.74
102.328
101.971
101.664
101.399
101.173
100.98
100.815
100.676
100.559
100.46
100.377
100.308
100.251
100.204
100.164
100.132
100.106
100.085
100.067
100.053
100.042
100.033
100.026
100.02
100.016
100.012
100.009
100.007
100.006
100.004
100.003
100.002
100.002
100.001
100.001
100.001
100.001
100
100
100
100
100
100
100
100
100
371.232
319.333
277.365
244.886
219.958
200.642
185.415
173.179
163.161
154.824
147.785
141.773
136.587
132.081
128.141
124.681
121.632
118.94
116.559
114.454
112.591
110.945
109.491
108.21
107.082
106.093
105.226
104.469
103.809
103.237
102.742
102.314
101.947
101.632
101.363
101.135
100.941
100.778
100.64
100.525
100.429
100.349
100.283
100.229
100.184
100.148
100.118
100.094
100.074
100.059
100.046
100.036
100.028
100.022
100.017
100.013
100.01
100.008
100.006
100.004
100.003
100.003
100.002
100.001
100.001
100.001
100.001
100
100
100
100
100
100
100
100
377.506
334.988
297.906
266.97
241.646
220.985
204.036
189.999
178.242
168.286
159.77
152.422
146.035
140.45
135.543
131.217
127.393
124.008
121.008
118.35
115.995
113.911
112.07
110.445
109.014
107.756
106.655
105.692
104.854
104.125
103.494
102.95
102.482
102.081
101.739
101.447
101.2
100.992
100.817
100.67
100.548
100.446
100.362
100.292
100.235
100.189
100.151
100.12
100.095
100.075
100.059
100.046
100.036
100.028
100.022
100.017
100.013
100.01
100.007
100.006
100.004
100.003
100.002
100.002
100.001
100.001
100.001
100.001
100
100
100
100
100
100
100
381.316
345.233
312.343
283.497
258.742
237.701
219.846
204.649
191.642
180.438
170.725
162.254
154.829
148.291
142.516
137.403
132.866
128.838
125.26
122.083
119.264
116.765
114.553
112.6
110.879
109.365
108.038
106.877
105.866
104.987
104.225
103.568
103.002
102.518
102.104
101.752
101.453
101.201
100.989
100.811
100.663
100.54
100.438
100.354
100.285
100.228
100.182
100.145
100.115
100.091
100.071
100.056
100.044
100.034
100.026
100.02
100.016
100.012
100.009
100.007
100.005
100.004
100.003
100.002
100.002
100.001
100.001
100.001
100
100
100
100
100
100
100
383.853
352.316
322.787
296.003
272.213
251.336
233.119
217.243
203.386
191.258
180.605
171.215
162.913
155.553
149.014
143.196
138.014
133.398
129.287
125.628
122.375
119.487
116.927
114.664
112.667
110.91
109.367
108.018
106.841
105.817
104.93
104.164
103.505
102.94
102.457
102.046
101.697
101.403
101.156
100.948
100.775
100.631
100.512
100.414
100.333
100.267
100.213
100.17
100.135
100.106
100.084
100.065
100.051
100.04
100.031
100.024
100.018
100.014
100.011
100.008
100.006
100.005
100.003
100.003
100.002
100.001
100.001
100.001
100.001
100
100
100
100
100
100
385.646
357.424
330.545
305.596
282.872
262.435
244.193
227.975
213.575
200.787
189.417
179.294
170.267
162.208
155.007
148.568
142.811
137.665
133.068
128.967
125.313
122.063
119.179
116.625
114.369
112.382
110.636
109.107
107.773
106.612
105.606
104.736
103.987
103.345
102.796
102.329
101.933
101.598
101.316
101.08
100.883
100.719
100.583
100.472
100.38
100.304
100.243
100.194
100.153
100.121
100.095
100.075
100.058
100.045
100.035
100.027
100.021
100.016
100.012
100.009
100.007
100.005
100.004
100.003
100.002
100.002
100.001
100.001
100.001
100
100
100
100
100
100
386.965
361.231
336.441
313.057
291.361
271.477
253.405
237.069
222.35
209.109
197.206
186.508
176.893
168.251
160.484
153.507
147.242
141.623
136.589
132.086
128.066
124.484
121.299
118.475
115.977
113.775
111.839
110.142
108.659
107.369
106.249
105.281
104.447
103.732
103.12
102.599
102.158
101.784
101.47
101.206
100.986
100.804
100.652
100.527
100.424
100.34
100.272
100.216
100.172
100.135
100.107
100.083
100.065
100.051
100.039
100.03
100.023
100.018
100.014
100.01
100.008
100.006
100.004
100.003
100.002
100.002
100.001
100.001
100.001
100.001
100
100
100
100
100
387.966
364.139
341.006
318.933
298.171
278.863
261.061
244.749
229.867
216.33
204.041
192.902
182.816
173.693
165.449
158.009
151.302
145.266
139.842
134.978
130.626
126.74
123.281
120.208
117.487
115.085
112.971
111.117
109.496
108.084
106.858
105.798
104.884
104.099
103.428
102.857
102.372
101.962
101.616
101.327
101.085
100.884
100.717
100.58
100.467
100.375
100.299
100.238
100.189
100.149
100.117
100.092
100.072
100.056
100.043
100.033
100.026
100.02
100.015
100.011
100.009
100.006
100.005
100.004
100.003
100.002
100.001
100.001
100.001
100.001
100
100
100
100
100
388.74
366.403
344.596
323.612
303.67
284.917
267.427
251.223
236.283
222.564
210.003
198.53
188.073
178.558
169.917
162.083
154.995
148.593
142.825
137.64
132.99
128.83
125.12
121.821
118.895
116.309
114.031
112.031
110.282
108.756
107.431
106.284
105.295
104.446
103.719
103.1
102.574
102.129
101.755
101.441
101.179
100.96
100.779
100.63
100.508
100.407
100.325
100.259
100.205
100.162
100.128
100.1
100.078
100.061
100.047
100.036
100.028
100.021
100.016
100.012
100.009
100.007
100.005
100.004
100.003
100.002
100.002
100.001
100.001
100.001
100
100
100
100
100
389.35
368.193
347.454
327.372
308.14
289.896
272.725
256.673
241.745
227.926
215.179
203.458
192.71
182.88
173.91
165.745
158.33
151.613
145.543
140.073
135.157
130.752
126.817
123.311
120.199
117.445
115.017
112.883
111.014
109.384
107.967
106.739
105.681
104.771
103.992
103.328
102.764
102.287
101.886
101.548
101.267
101.032
100.838
100.678
100.546
100.438
100.35
100.279
100.221
100.174
100.137
100.108
100.084
100.065
100.051
100.039
100.03
100.023
100.017
100.013
100.01
100.008
100.006
100.004
100.003
100.002
100.002
100.001
100.001
100.001
100
100
100
100
100
389.836
369.624
349.751
330.418
311.793
294.004
277.141
261.259
246.386
232.522
219.653
207.752
196.78
186.697
177.458
169.016
161.324
154.335
148.003
142.284
137.133
132.509
128.371
124.68
121.399
118.493
115.927
113.671
111.693
109.966
108.465
107.163
106.04
105.074
104.247
103.542
102.942
102.435
102.008
101.649
101.349
101.1
100.893
100.722
100.582
100.467
100.373
100.297
100.236
100.186
100.146
100.115
100.09
100.07
100.054
100.042
100.032
100.024
100.019
100.014
100.011
100.008
100.006
100.004
100.003
100.002
100.002
100.001
100.001
100.001
100
100
100
100
100
390.227
370.778
351.613
332.902
314.792
297.403
280.825
265.119
250.323
236.453
223.509
211.477
200.335
190.052
180.593
171.921
163.995
156.774
150.216
144.279
138.922
134.104
129.787
125.93
122.498
119.454
116.764
114.396
112.319
110.504
108.925
107.555
106.373
105.355
104.484
103.74
103.108
102.573
102.122
101.743
101.426
101.163
100.944
100.764
100.615
100.494
100.395
100.314
100.249
100.197
100.155
100.121
100.095
100.074
100.057
100.044
100.034
100.026
100.02
100.015
100.011
100.009
100.006
100.005
100.004
100.003
100.002
100.001
100.001
100.001
100.001
100
100
100
100
390.545
371.717
353.131
334.936
317.263
300.223
283.902
268.366
253.659
239.807
226.821
214.698
203.427
192.986
183.35
174.488
166.366
158.948
152.195
146.07
140.533
135.545
131.069
127.065
123.497
120.329
117.528
115.059
112.892
110.998
109.348
107.916
106.679
105.615
104.702
103.923
103.261
102.7
102.227
101.83
101.498
101.221
100.992
100.802
100.647
100.519
100.415
100.33
100.262
100.207
100.163
100.128
100.1
100.078
100.06
100.046
100.036
100.027
100.021
100.016
100.012
100.009
100.007
100.005
100.004
100.003
100.002
100.001
100.001
100.001
100.001
100
100
100
100
390.804
372.484
354.376
336.61
319.306
302.566
286.474
271.097
256.483
242.664
229.659
217.474
206.106
195.542
185.763
176.745
168.459
160.874
153.956
147.668
141.975
136.839
132.222
128.089
124.401
121.123
118.222
115.663
113.415
111.448
109.734
108.246
106.96
105.853
104.903
104.092
103.402
102.817
102.324
101.91
101.564
101.275
101.036
100.838
100.676
100.542
100.434
100.345
100.274
100.216
100.17
100.134
100.104
100.081
100.063
100.048
100.037
100.028
100.022
100.016
100.012
100.009
100.007
100.005
100.004
100.003
100.002
100.002
100.001
100.001
100.001
100
100
100
100
391.017
373.114
355.399
337.992
320.999
304.517
288.627
273.394
258.87
245.092
232.085
219.86
208.42
197.76
187.866
178.721
170.299
162.574
155.514
149.088
143.26
137.994
133.256
129.007
125.214
121.839
118.848
116.209
113.889
111.857
110.086
108.547
107.216
106.07
105.086
104.246
103.531
102.925
102.413
101.984
101.624
101.325
101.076
100.871
100.702
100.564
100.451
100.359
100.285
100.225
100.177
100.139
100.108
100.084
100.065
100.05
100.039
100.03
100.023
100.017
100.013
100.01
100.007
100.005
100.004
100.003
100.002
100.002
100.001
100.001
100.001
100
100
100
100
391.192
373.632
356.244
339.134
322.404
306.142
290.428
275.325
260.887
247.154
234.153
221.903
210.411
199.677
189.692
180.442
171.908
164.065
156.887
150.342
144.398
139.021
134.176
129.828
125.941
122.48
119.411
116.7
114.315
112.226
110.403
108.819
107.448
106.266
105.252
104.386
103.648
103.022
102.495
102.051
101.68
101.37
101.113
100.901
100.727
100.583
100.467
100.372
100.295
100.233
100.183
100.144
100.112
100.087
100.068
100.052
100.04
100.031
100.023
100.018
100.013
100.01
100.008
100.006
100.004
100.003
100.002
100.002
100.001
100.001
100.001
100
100
100
100
391.336
374.061
356.942
340.082
323.572
307.498
291.935
276.947
262.588
248.9
235.913
223.649
212.119
201.328
191.27
181.936
173.31
165.369
158.09
151.444
145.401
139.928
134.991
130.556
126.588
123.052
119.914
117.14
114.698
112.557
110.689
109.064
107.657
106.444
105.403
104.512
103.754
103.111
102.568
102.112
101.73
101.412
101.147
100.929
100.749
100.601
100.481
100.383
100.304
100.24
100.189
100.148
100.116
100.09
100.07
100.054
100.041
100.032
100.024
100.018
100.014
100.01
100.008
100.006
100.004
100.003
100.002
100.002
100.001
100.001
100.001
100
100
100
100
391.455
374.415
357.521
340.867
324.543
308.628
293.196
278.309
264.022
250.377
237.407
225.137
213.581
202.746
192.631
183.228
174.525
166.504
159.14
152.409
146.282
140.726
135.711
131.2
127.161
123.56
120.361
117.531
115.039
112.853
110.944
109.283
107.845
106.604
105.538
104.626
103.85
103.191
102.635
102.167
101.775
101.449
101.178
100.953
100.769
100.618
100.494
100.394
100.312
100.247
100.194
100.152
100.119
100.093
100.072
100.055
100.043
100.033
100.025
100.019
100.014
100.011
100.008
100.006
100.004
100.003
100.002
100.002
100.001
100.001
100.001
100
100
100
100
391.554
374.708
358
341.52
325.35
309.571
294.25
279.452
265.228
251.624
238.673
226.402
214.827
203.959
193.799
184.341
175.576
167.486
160.053
153.25
147.051
141.425
136.342
131.767
127.667
124.008
120.756
117.878
115.342
113.116
111.171
109.479
108.012
106.746
105.659
104.728
103.935
103.263
102.695
102.217
101.816
101.482
101.205
100.976
100.787
100.632
100.506
100.403
100.32
100.253
100.199
100.156
100.122
100.095
100.074
100.057
100.044
100.033
100.025
100.019
100.015
100.011
100.008
100.006
100.005
100.003
100.003
100.002
100.001
100.001
100.001
100
100
100
100
391.636
374.951
358.398
342.061
326.022
310.356
295.131
280.409
266.242
252.675
239.743
227.474
215.888
204.994
194.798
185.296
176.48
168.335
160.842
153.979
147.72
142.034
136.893
132.262
128.11
124.401
121.104
118.184
115.61
113.349
111.373
109.652
108.161
106.873
105.766
104.819
104.012
103.327
102.748
102.261
101.853
101.512
101.23
100.996
100.803
100.645
100.516
100.412
100.327
100.258
100.203
100.16
100.125
100.097
100.075
100.058
100.045
100.034
100.026
100.02
100.015
100.011
100.008
100.006
100.005
100.003
100.003
100.002
100.001
100.001
100.001
100
100
100
100
391.703
375.152
358.727
342.511
326.581
311.011
295.867
281.21
267.092
253.558
240.645
228.381
216.787
205.874
195.65
186.113
177.255
169.064
161.523
154.609
148.299
142.563
137.372
132.694
128.496
124.746
121.409
118.452
115.845
113.554
111.55
109.805
108.292
106.985
105.861
104.9
104.08
103.384
102.795
102.3
101.885
101.539
101.252
101.014
100.818
100.657
100.526
100.419
100.333
100.263
100.207
100.163
100.127
100.099
100.077
100.059
100.045
100.035
100.027
100.02
100.015
100.011
100.009
100.006
100.005
100.004
100.003
100.002
100.001
100.001
100.001
100
100
100
100
391.759
375.319
359
342.884
327.045
311.555
296.48
281.879
267.804
254.3
241.404
229.146
217.547
206.621
196.375
186.809
177.917
169.688
162.107
155.151
148.798
143.02
137.787
133.069
128.832
125.045
121.674
118.687
116.05
113.733
111.706
109.939
108.407
107.084
105.945
104.971
104.139
103.434
102.837
102.335
101.914
101.563
101.271
101.03
100.831
100.668
100.534
100.426
100.338
100.267
100.211
100.165
100.129
100.1
100.078
100.06
100.046
100.035
100.027
100.02
100.015
100.012
100.009
100.007
100.005
100.004
100.003
100.002
100.001
100.001
100.001
100
100
100
100
391.806
375.456
359.227
343.193
327.43
312.008
296.99
282.437
268.399
254.921
242.042
229.79
218.188
207.252
196.988
187.399
178.48
170.221
162.606
155.616
149.226
143.412
138.144
133.392
129.123
125.305
121.905
118.89
116.229
113.889
111.841
110.057
108.508
107.17
106.019
105.033
104.192
103.478
102.874
102.366
101.94
101.584
101.288
101.044
100.842
100.677
100.542
100.432
100.343
100.271
100.214
100.168
100.131
100.102
100.079
100.061
100.047
100.036
100.027
100.021
100.016
100.012
100.009
100.007
100.005
100.004
100.003
100.002
100.001
100.001
100.001
100.001
100
100
100
391.844
375.57
359.414
343.449
327.749
312.383
297.415
282.901
268.895
255.44
242.575
230.33
218.727
207.783
197.507
187.9
178.958
170.674
163.031
156.012
149.593
143.749
138.451
133.67
129.373
125.529
122.104
119.067
116.384
114.025
111.959
110.159
108.596
107.245
106.083
105.087
104.238
103.517
102.906
102.393
101.962
101.602
101.303
101.056
100.852
100.685
100.548
100.437
100.347
100.275
100.216
100.17
100.133
100.103
100.08
100.062
100.047
100.036
100.028
100.021
100.016
100.012
100.009
100.007
100.005
100.004
100.003
100.002
100.001
100.001
100.001
100.001
100
100
100
391.875
375.665
359.568
343.661
328.014
312.694
297.766
283.287
269.308
255.873
243.021
230.782
219.179
208.23
197.943
188.321
179.362
171.057
163.392
156.349
149.905
144.036
138.713
133.908
129.588
125.721
122.276
119.218
116.517
114.142
112.061
110.247
108.672
107.311
106.139
105.135
104.278
103.55
102.935
102.416
101.981
101.618
101.317
101.067
100.861
100.692
100.554
100.442
100.351
100.278
100.219
100.172
100.134
100.104
100.081
100.062
100.048
100.037
100.028
100.021
100.016
100.012
100.009
100.007
100.005
100.004
100.003
100.002
100.001
100.001
100.001
100.001
100
100
100
391.902
375.742
359.696
343.835
328.232
312.952
298.058
283.607
269.651
256.233
243.392
231.159
219.557
208.604
198.309
188.676
179.703
171.381
163.697
156.634
150.17
144.28
138.937
134.111
129.771
125.886
122.422
119.348
116.632
114.242
112.149
110.323
108.738
107.367
106.187
105.176
104.313
103.579
102.959
102.437
101.998
101.632
101.328
101.076
100.869
100.698
100.559
100.446
100.354
100.28
100.221
100.173
100.135
100.105
100.082
100.063
100.048
100.037
100.028
100.021
100.016
100.012
100.009
100.007
100.005
100.004
100.003
100.002
100.001
100.001
100.001
100.001
100
100
100
391.923
375.806
359.801
343.979
328.412
313.164
298.299
283.872
269.935
256.532
243.701
231.473
219.872
208.916
198.615
188.973
179.988
171.652
163.954
156.874
150.393
144.486
139.126
134.283
129.927
126.026
122.547
119.459
116.73
114.329
112.224
110.389
108.794
107.416
106.229
105.211
104.343
103.605
102.98
102.454
102.013
101.644
101.338
101.084
100.875
100.704
100.563
100.449
100.357
100.282
100.222
100.175
100.136
100.106
100.082
100.064
100.049
100.037
100.029
100.022
100.016
100.012
100.009
100.007
100.005
100.004
100.003
100.002
100.002
100.001
100.001
100.001
100
100
100
391.941
375.859
359.887
344.098
328.56
313.339
298.497
284.09
270.169
256.779
243.956
231.733
220.134
209.176
198.87
189.221
180.227
171.88
164.169
157.076
150.581
144.66
139.285
134.428
130.059
126.144
122.653
119.554
116.814
114.402
112.288
110.444
108.843
107.457
106.264
105.241
104.368
103.626
102.998
102.469
102.026
101.655
101.347
101.091
100.881
100.708
100.567
100.452
100.359
100.284
100.224
100.176
100.137
100.107
100.083
100.064
100.049
100.038
100.029
100.022
100.017
100.012
100.009
100.007
100.005
100.004
100.003
100.002
100.002
100.001
100.001
100.001
100
100
100
391.955
375.902
359.958
344.195
328.681
313.483
298.66
284.27
270.363
256.982
244.167
231.949
220.351
209.392
199.082
189.428
180.426
172.07
164.349
157.245
150.739
144.806
139.42
134.551
130.17
126.244
122.743
119.634
116.884
114.464
112.343
110.492
108.884
107.493
106.294
105.267
104.39
103.645
103.014
102.482
102.036
101.664
101.354
101.097
100.886
100.712
100.57
100.455
100.361
100.286
100.225
100.177
100.138
100.108
100.083
100.064
100.05
100.038
100.029
100.022
100.017
100.013
100.009
100.007
100.005
100.004
100.003
100.002
100.002
100.001
100.001
100.001
100
100
100
391.967
375.937
360.016
344.274
328.781
313.601
298.794
284.418
270.522
257.15
244.341
232.126
220.53
209.57
199.258
189.599
180.591
172.228
164.499
157.387
150.871
144.928
139.532
134.654
130.263
126.329
122.819
119.701
116.944
114.517
112.389
110.532
108.918
107.522
106.32
105.289
104.409
103.66
103.027
102.493
102.046
101.671
101.36
101.103
100.89
100.716
100.573
100.457
100.363
100.287
100.226
100.178
100.139
100.108
100.084
100.065
100.05
100.038
100.029
100.022
100.017
100.013
100.009
100.007
100.005
100.004
100.003
100.002
100.002
100.001
100.001
100.001
100
100
100
391.976
375.966
360.063
344.339
328.863
313.697
298.904
284.539
270.652
257.288
244.484
232.272
220.677
209.717
199.403
189.74
180.728
172.359
164.623
157.504
150.98
145.03
139.626
134.739
130.341
126.399
122.882
119.757
116.994
114.561
112.428
110.566
108.948
107.548
106.342
105.308
104.425
103.674
103.038
102.503
102.053
101.678
101.366
101.107
100.894
100.719
100.576
100.459
100.365
100.289
100.227
100.178
100.14
100.109
100.084
100.065
100.05
100.038
100.029
100.022
100.017
100.013
100.009
100.007
100.005
100.004
100.003
100.002
100.002
100.001
100.001
100.001
100
100
100
391.984
375.989
360.102
344.392
328.929
313.776
298.994
284.638
270.759
257.4
244.601
232.392
220.799
209.838
199.522
189.857
180.841
172.467
164.726
157.601
151.071
145.114
139.703
134.811
130.406
126.458
122.935
119.805
117.036
114.598
112.46
110.594
108.972
107.569
106.36
105.323
104.438
103.685
103.048
102.511
102.06
101.683
101.37
101.111
100.897
100.721
100.578
100.461
100.366
100.29
100.228
100.179
100.14
100.109
100.085
100.065
100.05
100.038
100.029
100.022
100.017
100.013
100.01
100.007
100.005
100.004
100.003
100.002
100.002
100.001
100.001
100.001
100
100
100
391.991
376.008
360.133
344.435
328.983
313.84
299.066
284.718
270.845
257.492
244.697
232.49
220.898
209.937
199.62
189.952
180.933
172.556
164.811
157.681
151.146
145.184
139.768
134.87
130.46
126.507
122.978
119.844
117.071
114.629
112.487
110.618
108.993
107.587
106.375
105.336
104.449
103.694
103.056
102.517
102.066
101.688
101.374
101.114
100.899
100.723
100.579
100.462
100.367
100.291
100.229
100.18
100.14
100.109
100.085
100.065
100.05
100.039
100.029
100.022
100.017
100.013
100.01
100.007
100.005
100.004
100.003
100.002
100.002
100.001
100.001
100.001
100
100
100
391.996
376.024
360.158
344.47
329.027
313.892
299.125
284.784
270.916
257.567
244.775
232.57
220.978
210.018
199.7
190.031
181.009
172.629
164.88
157.746
151.208
145.241
139.821
134.919
130.504
126.547
123.015
119.876
117.1
114.654
112.51
110.637
109.01
107.602
106.388
105.347
104.458
103.702
103.062
102.523
102.07
101.692
101.377
101.117
100.902
100.725
100.581
100.463
100.368
100.291
100.23
100.18
100.141
100.11
100.085
100.066
100.05
100.039
100.03
100.022
100.017
100.013
100.01
100.007
100.005
100.004
100.003
100.002
100.002
100.001
100.001
100.001
100
100
100
392
376.036
360.179
344.498
329.062
313.934
299.173
284.837
270.973
257.628
244.838
232.635
221.044
210.083
199.765
190.094
181.071
172.689
164.937
157.8
151.258
145.288
139.865
134.959
130.541
126.58
123.045
119.903
117.124
114.675
112.528
110.654
109.024
107.614
106.399
105.356
104.466
103.709
103.068
102.528
102.074
101.695
101.38
101.119
100.903
100.727
100.582
100.464
100.369
100.292
100.23
100.181
100.141
100.11
100.085
100.066
100.051
100.039
100.03
100.022
100.017
100.013
100.01
100.007
100.005
100.004
100.003
100.002
100.002
100.001
100.001
100.001
100
100
100
392.003
376.046
360.195
344.521
329.091
313.967
299.212
284.879
271.019
257.677
244.889
232.687
221.097
210.137
199.818
190.146
181.121
172.737
164.984
157.844
151.3
145.327
139.9
134.991
130.571
126.607
123.069
119.925
117.143
114.693
112.544
110.667
109.036
107.624
106.408
105.364
104.472
103.714
103.073
102.531
102.077
101.698
101.382
101.121
100.905
100.728
100.583
100.465
100.37
100.292
100.23
100.181
100.141
100.11
100.085
100.066
100.051
100.039
100.03
100.023
100.017
100.013
100.01
100.007
100.005
100.004
100.003
100.002
100.002
100.001
100.001
100.001
100
100
100
392.006
376.054
360.209
344.539
329.113
313.995
299.243
284.914
271.057
257.716
244.93
232.73
221.14
210.18
199.861
190.188
181.162
172.777
165.021
157.88
151.333
145.358
139.929
135.018
130.595
126.629
123.089
119.943
117.159
114.707
112.556
110.678
109.046
107.632
106.415
105.37
104.478
103.719
103.076
102.535
102.08
101.7
101.384
101.122
100.906
100.729
100.584
100.466
100.37
100.293
100.231
100.181
100.142
100.11
100.086
100.066
100.051
100.039
100.03
100.023
100.017
100.013
100.01
100.007
100.005
100.004
100.003
100.002
100.002
100.001
100.001
100.001
100
100
100
392.008
376.061
360.219
344.554
329.132
314.016
299.268
284.941
271.087
257.748
244.963
232.764
221.175
210.214
199.895
190.222
181.195
172.809
165.052
157.909
151.36
145.384
139.953
135.04
130.615
126.648
123.106
119.958
117.172
114.719
112.566
110.687
109.053
107.639
106.421
105.375
104.482
103.723
103.079
102.537
102.082
101.702
101.385
101.123
100.907
100.73
100.584
100.466
100.37
100.293
100.231
100.181
100.142
100.11
100.086
100.066
100.051
100.039
100.03
100.023
100.017
100.013
100.01
100.007
100.005
100.004
100.003
100.002
100.002
100.001
100.001
100.001
100
100
100
392.01
376.066
360.228
344.566
329.146
314.034
299.288
284.963
271.11
257.773
244.99
232.791
221.202
210.242
199.923
190.249
181.222
172.834
165.076
157.932
151.382
145.404
139.972
135.057
130.631
126.662
123.119
119.97
117.183
114.728
112.575
110.695
109.06
107.645
106.426
105.379
104.486
103.726
103.082
102.539
102.084
101.703
101.387
101.124
100.908
100.73
100.585
100.467
100.371
100.293
100.231
100.182
100.142
100.111
100.086
100.066
100.051
100.039
100.03
100.023
100.017
100.013
100.01
100.007
100.005
100.004
100.003
100.002
100.002
100.001
100.001
100.001
100
100
100
392.011
376.07
360.235
344.575
329.158
314.048
299.304
284.981
271.13
257.793
245.011
232.813
221.225
210.265
199.945
190.271
181.243
172.855
165.096
157.951
151.4
145.421
139.987
135.072
130.644
126.674
123.13
119.979
117.192
114.736
112.582
110.701
109.065
107.649
106.429
105.383
104.488
103.728
103.084
102.541
102.085
101.705
101.388
101.125
100.909
100.731
100.585
100.467
100.371
100.294
100.232
100.182
100.142
100.111
100.086
100.066
100.051
100.039
100.03
100.023
100.017
100.013
100.01
100.007
100.005
100.004
100.003
100.002
100.002
100.001
100.001
100.001
100
100
100
392.012
376.073
360.24
344.582
329.167
314.059
299.316
284.995
271.145
257.81
245.028
232.83
221.242
210.282
199.962
190.288
181.26
172.871
165.111
157.965
151.414
145.434
139.999
135.083
130.655
126.684
123.138
119.987
117.199
114.742
112.587
110.705
109.069
107.653
106.433
105.385
104.491
103.73
103.086
102.543
102.087
101.706
101.389
101.126
100.909
100.731
100.586
100.467
100.371
100.294
100.232
100.182
100.142
100.111
100.086
100.066
100.051
100.039
100.03
100.023
100.017
100.013
100.01
100.007
100.005
100.004
100.003
100.002
100.002
100.001
100.001
100.001
100
100
100
392.013
376.076
360.244
344.588
329.175
314.067
299.326
285.006
271.157
257.822
245.041
232.844
221.256
210.296
199.976
190.302
181.273
172.884
165.124
157.977
151.425
145.444
140.009
135.092
130.663
126.691
123.145
119.993
117.204
114.747
112.591
110.709
109.073
107.656
106.435
105.388
104.493
103.732
103.087
102.544
102.088
101.706
101.389
101.126
100.91
100.732
100.586
100.468
100.372
100.294
100.232
100.182
100.142
100.111
100.086
100.066
100.051
100.039
100.03
100.023
100.017
100.013
100.01
100.007
100.005
100.004
100.003
100.002
100.002
100.001
100.001
100.001
100
100
100
392.014
376.078
360.248
344.593
329.181
314.074
299.334
285.015
271.166
257.832
245.051
232.855
221.267
210.308
199.988
190.313
181.284
172.894
165.134
157.987
151.434
145.453
140.017
135.099
130.67
126.697
123.151
119.998
117.209
114.751
112.595
110.712
109.075
107.658
106.437
105.389
104.494
103.733
103.088
102.545
102.088
101.707
101.39
101.127
100.91
100.732
100.586
100.468
100.372
100.294
100.232
100.182
100.142
100.111
100.086
100.066
100.051
100.039
100.03
100.023
100.017
100.013
100.01
100.007
100.005
100.004
100.003
100.002
100.002
100.001
100.001
100.001
100
100
100
392.015
376.079
360.25
344.596
329.185
314.08
299.34
285.022
271.174
257.84
245.06
232.863
221.276
210.316
199.996
190.322
181.292
172.903
165.142
157.994
151.441
145.459
140.023
135.105
130.675
126.702
123.155
120.002
117.212
114.754
112.598
110.715
109.078
107.66
106.439
105.391
104.495
103.734
103.089
102.545
102.089
101.708
101.39
101.127
100.91
100.732
100.587
100.468
100.372
100.294
100.232
100.182
100.142
100.111
100.086
100.066
100.051
100.039
100.03
100.023
100.017
100.013
100.01
100.007
100.005
100.004
100.003
100.002
100.002
100.001
100.001
100.001
100
100
100
392.015
376.081
360.252
344.599
329.189
314.084
299.345
285.027
271.179
257.847
245.066
232.87
221.283
210.323
200.003
190.328
181.299
172.909
165.148
158
151.447
145.465
140.028
135.11
130.679
126.706
123.159
120.005
117.215
114.757
112.6
110.717
109.079
107.662
106.44
105.392
104.496
103.735
103.09
102.546
102.089
101.708
101.391
101.128
100.911
100.732
100.587
100.468
100.372
100.294
100.232
100.182
100.142
100.111
100.086
100.066
100.051
100.039
100.03
100.023
100.017
100.013
100.01
100.007
100.005
100.004
100.003
100.002
100.002
100.001
100.001
100.001
100
100
100
392.015
376.081
360.254
344.602
329.191
314.087
299.349
285.031
271.184
257.851
245.071
232.875
221.288
210.329
200.009
190.334
181.304
172.914
165.153
158.005
151.451
145.469
140.032
135.113
130.682
126.709
123.161
120.008
117.217
114.759
112.602
110.718
109.081
107.663
106.441
105.393
104.497
103.735
103.09
102.546
102.09
101.708
101.391
101.128
100.911
100.733
100.587
100.468
100.372
100.294
100.232
100.182
100.142
100.111
100.086
100.066
100.051
100.039
100.03
100.023
100.017
100.013
100.01
100.007
100.005
100.004
100.003
100.002
100.002
100.001
100.001
100.001
100
100
100
392.016
376.082
360.255
344.603
329.194
314.09
299.352
285.034
271.188
257.855
245.075
232.879
221.292
210.333
200.013
190.338
181.308
172.918
165.157
158.009
151.455
145.472
140.035
135.116
130.685
126.711
123.163
120.01
117.219
114.76
112.603
110.719
109.082
107.664
106.442
105.393
104.498
103.736
103.091
102.547
102.09
101.709
101.391
101.128
100.911
100.733
100.587
100.468
100.372
100.295
100.232
100.182
100.142
100.111
100.086
100.066
100.051
100.039
100.03
100.023
100.017
100.013
100.01
100.007
100.005
100.004
100.003
100.002
100.002
100.001
100.001
100.001
100
100
100
392.016
376.083
360.256
344.605
329.195
314.092
299.354
285.037
271.19
257.858
245.078
232.883
221.296
210.336
200.016
190.341
181.311
172.921
165.16
158.011
151.457
145.475
140.037
135.118
130.687
126.713
123.165
120.011
117.22
114.761
112.604
110.72
109.083
107.665
106.443
105.394
104.498
103.736
103.091
102.547
102.09
101.709
101.391
101.128
100.911
100.733
100.587
100.468
100.372
100.295
100.232
100.182
100.142
100.111
100.086
100.066
100.051
100.039
100.03
100.023
100.017
100.013
100.01
100.007
100.005
100.004
100.003
100.002
100.002
100.001
100.001
100.001
100
100
100
392.016
376.083
360.257
344.606
329.197
314.093
299.356
285.039
271.192
257.86
245.081
232.885
221.298
210.339
200.019
190.344
181.314
172.923
165.162
158.014
151.459
145.476
140.039
135.12
130.689
126.715
123.166
120.013
117.221
114.762
112.605
110.721
109.083
107.665
106.443
105.394
104.499
103.737
103.091
102.547
102.091
101.709
101.391
101.128
100.911
100.733
100.587
100.468
100.372
100.295
100.232
100.182
100.143
100.111
100.086
100.066
100.051
100.039
100.03
100.023
100.017
100.013
100.01
100.007
100.005
100.004
100.003
100.002
100.002
100.001