/*--------------------------------*- C++ -*----------------------------------*\
  =========                 |
  \\      /  F ield         | OpenFOAM: The Open Source CFD Toolbox
   \\    /   O peration     | Website:  https://openfoam.org
    \\  /    A nd           | Version:  10
     \\/     M anipulation  |
\*---------------------------------------------------------------------------*/
FoamFile
{
    format      ascii;
    class       volScalarField;
    location    "29";
    object      gradTx;
}
// * * * * * * * * * * * * * * * * * * * * * * * * * * * * * * * * * * * * * //

dimensions      [0 -1 0 1 0 0 0];

internalField   nonuniform List<scalar> 
11250
(
14046.3
7375.58
4195.55
2449.18
1417.22
796.788
430.439
222.099
109.128
50.996
22.6604
9.57917
3.8555
1.47903
0.541372
0.189285
0.0632829
0.0202492
0.00620639
0.00182344
0.000513858
0.00013898
3.60967e-05
9.0081e-06
2.16128e-06
4.98841e-07
1.10821e-07
2.37074e-08
4.85806e-09
9.43951e-10
1.39397e-10
1.20738e-11
-3.29285e-12
-2.19524e-12
-9.87856e-12
-4.39047e-12
0
-2.19524e-12
1.09762e-12
-4.39047e-12
-9.87856e-12
6.58571e-12
1.09762e-12
-5.48809e-12
-5.48809e-12
1.09762e-12
0
-4.39047e-12
2.19524e-12
0
1.09762e-12
0
1.4269e-11
0
1.09762e-12
0
1.09762e-12
-2.19524e-12
0
2.19524e-12
0
1.09762e-12
0
-2.19524e-11
9.87856e-12
-1.09762e-12
-1.09762e-12
0
1.09762e-12
0
-5.48809e-12
0
-7.68332e-12
0
-9.87856e-12
3852.6
4004.23
2930.78
1920.18
1178.54
684.722
377.28
197.156
97.7097
45.9404
20.5063
8.69851
3.51055
1.34966
0.49492
0.173313
0.058022
0.0185886
0.00570383
0.00167756
0.000473227
0.000128116
3.33066e-05
8.31954e-06
1.99786e-06
4.61533e-07
1.0261e-07
2.19688e-08
4.51999e-09
8.92363e-10
1.51471e-10
3.95142e-11
3.29285e-12
0
1.09762e-12
0
-8.78094e-12
1.09762e-12
-1.09762e-12
0
0
-4.39047e-12
-1.09762e-12
-1.09762e-12
0
0
-1.09762e-12
0
-2.19523e-12
0
-1.75619e-11
0
-1.4269e-11
8.78094e-12
-1.31714e-11
-6.5857e-12
-1.4269e-11
0
-4.39047e-12
0
0
-1.09762e-12
0
2.41476e-11
5.48809e-12
0
-1.09762e-12
1.09762e-12
-1.09762e-12
0
-8.78094e-12
0
8.78094e-12
2.19523e-12
0
1252.45
1968.26
1759.29
1293.6
851.868
517.578
293.748
156.654
78.7669
37.429
16.8417
7.1887
2.91568
1.12551
0.414131
0.145446
0.0488183
0.0156765
0.00482064
0.00142069
0.000401548
0.000108916
2.83673e-05
7.09859e-06
1.70769e-06
3.95174e-07
8.80278e-08
1.88801e-08
3.9141e-09
7.90285e-10
1.6135e-10
2.63428e-11
-2.19524e-12
1.09762e-12
1.75619e-11
3.29285e-12
0
-1.09762e-12
-2.19524e-12
2.19524e-12
9.87856e-12
-2.19524e-12
0
7.68332e-12
5.48809e-12
7.68332e-12
1.09762e-12
5.48809e-12
0
0
1.09762e-12
-1.09762e-12
4.39047e-12
8.78094e-12
0
-2.19523e-12
0
4.39047e-12
0
-2.19524e-12
0
0
0
-1.4269e-11
-1.09762e-11
2.19524e-12
3.29285e-12
2.19523e-12
0
0
3.29285e-12
8.78094e-12
0
-1.09762e-12
8.78094e-12
475.504
951.412
978.08
789.677
554.458
352.303
206.427
112.672
57.6393
27.7519
12.6157
5.42882
2.21646
0.860296
0.318022
0.112146
0.0377783
0.0121718
0.00375463
0.00110984
0.000314598
8.55736e-05
2.235e-05
5.6082e-06
1.3528e-06
3.13875e-07
7.00993e-08
1.50736e-08
3.12711e-09
6.22349e-10
1.32812e-10
1.09762e-11
-1.09762e-12
1.09762e-12
0
1.09762e-12
8.78094e-12
0
1.09762e-12
0
0
0
1.09762e-12
0
0
0
0
1.09762e-12
0
0
1.53666e-11
0
1.09762e-12
-8.78094e-12
1.31714e-11
5.48809e-12
1.4269e-11
-4.39047e-12
5.48809e-12
6.58571e-12
0
-2.19523e-12
0
-1.09762e-12
-4.39047e-12
3.29285e-12
0
1.09762e-12
0
2.19524e-12
5.48809e-12
0
-1.09762e-12
-1.09762e-12
-5.48809e-12
200.696
458.519
517.717
448.702
332.285
219.756
132.72
74.1363
38.612
18.8548
8.6684
3.76459
1.54872
0.605
0.224897
0.0796997
0.0269693
0.00872588
0.00270252
0.000801971
0.000228203
6.23098e-05
1.63354e-05
4.11432e-06
9.96122e-07
2.31964e-07
5.19887e-08
1.12067e-08
2.32366e-09
4.6978e-10
1.07567e-10
3.7319e-11
1.75619e-11
0
-7.68332e-12
0
0
-1.97571e-11
2.19523e-12
2.19523e-12
5.48809e-12
-1.09762e-12
8.78094e-12
0
-2.19523e-12
-1.09762e-11
-4.39047e-12
-2.19523e-12
1.09762e-12
3.29285e-12
8.78094e-12
1.09762e-12
-5.48809e-12
-9.87856e-12
0
5.48809e-12
1.09762e-12
-8.78094e-12
-5.48809e-12
0
0
0
0
1.86595e-11
0
-1.09762e-12
-1.09762e-12
-3.29285e-12
0
-1.09762e-12
-9.87856e-12
-1.20738e-11
-7.68332e-12
-1.09762e-12
-1.09762e-12
89.3193
219.133
263.273
240.454
185.81
127.133
78.8839
45.0235
23.8584
11.8149
5.49467
2.40922
0.999192
0.393066
0.147019
0.052393
0.0178215
0.00579479
0.0018034
0.000537713
0.000153736
4.21764e-05
1.11096e-05
2.81134e-06
6.83846e-07
1.59992e-07
3.60128e-08
7.78979e-09
1.62118e-09
3.18309e-10
6.80523e-11
0
1.09762e-12
1.09762e-12
0
0
0
0
1.09762e-11
1.20738e-11
0
0
-9.87856e-12
-1.09762e-12
1.09762e-12
1.09762e-12
0
1.09762e-12
-2.19524e-12
-2.19523e-12
-6.58571e-12
-1.09762e-12
0
-3.29285e-12
-1.09762e-12
0
-1.09762e-12
2.19524e-12
1.09762e-12
-6.58571e-12
1.09762e-12
2.19523e-12
1.09762e-12
0
-1.09762e-12
-4.39047e-12
0
0
0
-2.19524e-12
4.39047e-12
1.09762e-12
-4.39047e-12
0
0
40.3229
102.883
128.833
122.289
97.7143
68.7673
43.6784
25.4163
13.6856
6.86817
3.2301
1.42984
0.597902
0.236913
0.0891924
0.0319777
0.0109397
0.00357694
0.00111932
0.000335588
9.64803e-05
2.66169e-05
7.05049e-06
1.79415e-06
4.38836e-07
1.03234e-07
2.33628e-08
5.10173e-09
1.06798e-09
1.96474e-10
2.74404e-11
-2.52452e-11
-1.4269e-11
1.09762e-12
-5.48809e-12
0
-1.09762e-12
2.19524e-11
0
0
-9.87856e-12
2.19524e-12
-8.78094e-12
-9.87856e-12
-4.39047e-12
2.19524e-12
5.48809e-12
1.09762e-12
-1.09762e-12
-4.39047e-12
-9.87856e-12
0
0
-1.09762e-12
0
-9.87856e-12
-1.09762e-12
-7.68332e-12
4.39047e-12
-4.39047e-12
0
-2.19523e-12
1.09762e-12
-5.48809e-12
2.19523e-12
2.19524e-12
0
0
-1.20738e-11
1.09762e-12
1.31714e-11
2.19524e-12
0
-7.68332e-12
0
18.0282
47.0584
60.6129
59.1964
48.5581
34.9722
22.6599
13.4117
7.32688
3.7227
1.76945
0.790501
0.333243
0.133007
0.0504092
0.0181869
0.00625964
0.00205901
0.000648203
0.000195523
5.65587e-05
1.57006e-05
4.18491e-06
1.07159e-06
2.6373e-07
6.23952e-08
1.42251e-08
3.14248e-09
6.61863e-10
1.40495e-10
2.74404e-11
1.64643e-11
1.4269e-11
3.29285e-12
-1.09762e-12
0
-8.78094e-12
-9.87856e-12
-1.20738e-11
-1.20738e-11
-1.09762e-12
0
9.87856e-12
0
-5.48809e-12
-9.87856e-12
0
-1.09762e-12
1.09762e-12
-3.29285e-12
5.48809e-12
0
0
4.39047e-12
1.09762e-12
4.39047e-12
2.305e-11
3.29285e-12
-3.29285e-12
0
0
0
-3.29285e-12
0
0
0
7.68332e-12
-1.09762e-12
0
1.09762e-12
-1.09762e-12
0
6.5857e-12
0
4.39047e-12
7.87194
20.84
27.3774
27.3141
22.8729
16.7882
11.0627
6.64529
3.67754
1.88968
0.907093
0.408793
0.173682
0.0698174
0.0266371
0.00967156
0.0033496
0.00110866
0.000351219
0.000106619
3.10419e-05
8.6737e-06
2.32714e-06
5.99786e-07
1.48563e-07
3.53729e-08
8.11139e-09
1.80887e-09
4.09411e-10
1.04274e-10
1.97571e-11
5.48809e-12
-1.09762e-12
0
5.48809e-12
-1.09762e-12
0
-2.19524e-12
-1.09762e-12
-5.48809e-12
5.48809e-12
-1.09762e-12
-3.29285e-12
9.87856e-12
0
0
-3.29285e-12
0
0
-1.20738e-11
-2.19524e-12
0
-1.09762e-12
-3.29285e-12
0
8.78094e-12
1.4269e-11
1.4269e-11
-4.39047e-12
4.39047e-12
-1.09762e-12
2.19523e-12
8.78094e-12
0
-1.09762e-12
0
1.4269e-11
2.19523e-12
1.31714e-11
-1.09762e-12
2.19523e-12
5.48809e-12
6.58571e-12
8.78094e-12
2.19524e-12
3.33013
8.89863
11.8575
12.0237
10.2352
7.63017
5.10021
3.10328
1.73717
0.90178
0.436833
0.198479
0.0849555
0.0343861
0.0132045
0.00482451
0.00168125
0.000559928
0.0001785
5.45336e-05
1.59804e-05
4.49444e-06
1.21373e-06
3.14843e-07
7.84797e-08
1.88252e-08
4.34657e-09
9.80172e-10
2.27207e-10
6.80523e-11
8.78094e-12
-1.20738e-11
-3.29285e-11
-2.41476e-11
0
-1.09762e-12
7.68332e-12
8.78094e-12
0
-6.58571e-12
-5.48809e-12
-2.19524e-12
1.09762e-12
0
5.48809e-12
8.78094e-12
-1.09762e-12
-4.39047e-12
1.09762e-12
4.39047e-12
-2.19524e-12
-1.09762e-12
0
0
0
-5.48809e-12
-1.97571e-11
-1.09762e-12
2.19523e-12
-1.09762e-12
-1.09762e-12
0
1.09762e-12
-1.09762e-12
-1.09762e-12
-1.09762e-12
-6.58571e-12
0
-1.09762e-12
0
1.09762e-12
0
-6.58571e-12
0
1.09762e-12
1.35866
3.65422
4.92093
5.05318
4.35859
3.29141
2.22692
1.37022
0.774872
0.405968
0.198304
0.0907886
0.0391328
0.0159427
0.00616011
0.00226425
0.000793733
0.000265919
8.52816e-05
2.6213e-05
7.72857e-06
2.18702e-06
5.9424e-07
1.5507e-07
3.8893e-08
9.41646e-09
2.19963e-09
4.96123e-10
1.1525e-10
2.41476e-11
8.78094e-12
1.53666e-11
0
-2.19523e-12
1.75619e-11
2.19523e-12
2.19523e-12
-1.20738e-11
-6.5857e-12
5.48809e-12
1.75619e-11
0
3.29285e-12
1.09762e-12
6.5857e-12
0
3.29285e-12
-5.48809e-12
-1.09762e-12
1.20738e-11
2.19523e-12
0
2.19523e-12
4.39047e-12
2.19523e-12
1.09762e-12
-1.4269e-11
0
4.39047e-12
-1.09762e-12
3.29285e-12
1.4269e-11
-8.78094e-12
0
0
-9.87856e-12
-3.7319e-11
-1.09762e-12
0
0
-3.29285e-12
-5.48809e-12
0
-2.19523e-12
-3.29285e-12
0.533265
1.44109
1.95636
2.02906
1.76907
1.35043
0.923245
0.573663
0.327371
0.172954
0.085133
0.0392516
0.0170292
0.00698005
0.00271263
0.00100263
0.000353394
0.000119038
3.83837e-05
1.18625e-05
3.51667e-06
1.00058e-06
2.73348e-07
7.17315e-08
1.81151e-08
4.41791e-09
1.04932e-09
2.40378e-10
5.37833e-11
1.20738e-11
1.20738e-11
8.78094e-12
3.40261e-11
2.305e-11
2.19523e-12
0
-2.19524e-12
1.09762e-12
0
6.58571e-12
7.68332e-12
2.19524e-12
4.39047e-12
7.68332e-12
0
1.09762e-12
0
1.20738e-11
1.09762e-12
2.19523e-12
4.39047e-12
4.39047e-12
0
1.09762e-12
-1.09762e-12
-1.09762e-12
-3.29285e-12
0
-1.09762e-12
2.19524e-12
0
-1.09762e-12
5.48809e-12
0
-1.09762e-11
-5.48809e-12
-2.19524e-12
-1.09762e-12
0
1.09762e-12
0
0
4.39047e-12
0
1.09762e-12
0.201103
0.545434
0.745167
0.779121
0.685392
0.528033
0.364285
0.228327
0.131371
0.0699368
0.0346693
0.0160894
0.00702256
0.00289461
0.00113083
0.000420059
0.000148768
5.03462e-05
1.63092e-05
5.06344e-06
1.50792e-06
4.30993e-07
1.18275e-07
3.12031e-08
7.93029e-09
1.94608e-09
4.76366e-10
1.13055e-10
7.68332e-12
-1.4269e-11
3.29285e-12
1.09762e-12
0
2.19524e-12
-2.305e-11
0
1.09762e-11
1.64643e-11
9.87856e-12
0
-2.305e-11
0
-1.09762e-12
-3.29285e-12
-1.09762e-12
0
-1.09762e-12
4.39047e-12
0
1.09762e-12
0
1.09762e-12
0
0
-1.09762e-12
0
1.09762e-12
-8.78094e-12
-7.68332e-12
-3.29285e-12
-1.09762e-12
-1.4269e-11
1.09762e-12
-1.20738e-11
-1.09762e-12
1.09762e-11
2.305e-11
-2.19523e-12
0
0
-1.09762e-12
-4.39047e-12
-8.78094e-12
1.09762e-12
6.58571e-12
0.0728342
0.198111
0.272054
0.286364
0.253837
0.197131
0.137098
0.086609
0.0502079
0.0269188
0.0134325
0.00627172
0.00275268
0.00114038
0.000447583
0.00016697
5.93695e-05
2.01674e-05
6.55658e-06
2.0427e-06
6.10406e-07
1.75048e-07
4.82074e-08
1.2762e-08
3.23907e-09
7.9687e-10
1.98669e-10
4.60999e-11
-3.29285e-12
-1.86595e-11
-4.39047e-12
1.20738e-11
-1.09762e-11
-6.5857e-12
-4.39047e-12
0
2.19523e-12
0
0
0
-2.19523e-12
-1.09762e-11
-6.5857e-12
-7.68332e-12
-5.48809e-12
-6.5857e-12
-1.09762e-12
-6.5857e-12
0
-1.09762e-12
0
-2.19523e-12
-1.09762e-12
1.09762e-12
0
0
4.39047e-12
0
1.09762e-12
0
-1.09762e-12
-1.09762e-12
-6.5857e-12
0
1.20738e-11
8.78094e-12
2.19523e-12
0
-1.09762e-12
-2.19523e-12
-6.5857e-12
4.39047e-12
0
0
0
0.0253342
0.0690732
0.0952644
0.100853
0.0899946
0.0703923
0.0493166
0.0313828
0.0183218
0.00988917
0.00496552
0.00233166
0.00102861
0.000428069
0.000168679
6.31441e-05
2.25206e-05
7.67078e-06
2.49992e-06
7.80606e-07
2.33742e-07
6.71599e-08
1.85168e-08
4.90306e-09
1.22714e-09
2.82088e-10
5.26856e-11
2.19524e-12
-3.29285e-12
0
3.29285e-12
0
0
0
5.48809e-12
0
-1.97571e-11
3.29285e-12
-9.87856e-12
0
5.48809e-12
1.09762e-12
-1.31714e-11
2.19523e-12
0
-5.48809e-12
4.39047e-12
0
-5.48809e-12
-1.09762e-12
0
-3.29285e-12
-8.78094e-12
0
-1.4269e-11
-1.09762e-12
0
7.68332e-12
8.78094e-12
6.58571e-12
1.09762e-12
-4.39047e-12
0
1.31714e-11
9.87856e-12
0
-1.09762e-12
2.19523e-12
-4.39047e-12
0
-7.68332e-12
3.29285e-12
8.78094e-12
9.87856e-12
-3.29285e-12
0.00846581
0.0231288
0.0320188
0.03407
0.0305857
0.0240824
0.016989
0.0108866
0.00639915
0.00347635
0.00175601
0.000829019
0.000367448
0.00015353
6.06974e-05
2.27816e-05
8.14184e-06
2.77758e-06
9.06339e-07
2.8328e-07
8.49007e-08
2.44209e-08
6.72949e-09
1.78912e-09
4.56609e-10
9.32975e-11
5.48809e-12
-1.09762e-11
-1.09762e-12
1.09762e-12
1.09762e-11
-1.09762e-12
1.09762e-12
-9.87856e-12
0
-1.09762e-12
0
4.39047e-12
0
-1.09762e-12
0
9.87856e-12
1.09762e-12
0
5.48809e-12
5.48809e-12
1.09762e-12
2.19524e-12
-1.09762e-12
0
1.09762e-12
-1.09762e-12
0
-2.19524e-12
0
-4.39047e-12
-4.39047e-12
0
8.78094e-12
-1.09762e-12
0
1.09762e-12
0
-2.19524e-12
5.48809e-12
-4.39047e-12
-1.09762e-12
-1.09762e-12
0
1.09762e-12
-4.39047e-12
-7.68332e-12
-2.19524e-12
2.19523e-12
5.48809e-12
0.00271902
0.00744196
0.0103375
0.0110513
0.00997736
0.00790568
0.00561459
0.00362249
0.00214366
0.001172
0.000595489
0.000282587
0.000125799
5.27468e-05
2.09082e-05
7.86166e-06
2.81266e-06
9.59977e-07
3.13253e-07
9.78756e-08
2.93305e-08
8.4297e-09
2.33244e-09
6.28935e-10
1.56959e-10
3.07333e-11
9.87856e-12
4.39047e-12
-1.4269e-11
7.68332e-12
-9.87856e-12
-1.31714e-11
-3.29285e-12
-1.09762e-12
5.48809e-12
1.09762e-12
3.29285e-12
-4.39047e-12
8.78094e-12
-4.39047e-12
1.09762e-12
-1.09762e-11
1.4269e-11
5.48809e-12
-1.53666e-11
6.5857e-12
-5.48809e-12
0
7.68332e-12
0
-1.09762e-12
4.39047e-12
8.78094e-12
0
1.4269e-11
2.19523e-12
1.09762e-12
3.29285e-12
0
-2.19523e-12
-2.19523e-12
5.48809e-12
1.09762e-12
0
-9.87856e-12
-1.09762e-12
0
-3.29285e-12
4.39047e-12
-1.09762e-12
-3.29285e-12
5.48809e-12
-3.29285e-12
-9.87856e-12
-1.09762e-12
0.000839754
0.0023023
0.00320829
0.00344519
0.00312745
0.0024935
0.00178274
0.00115812
0.000689988
0.00037966
0.000194026
9.25365e-05
4.13628e-05
1.73964e-05
6.90973e-06
2.60086e-06
9.30641e-07
3.17467e-07
1.0348e-07
3.23007e-08
9.64916e-09
2.75173e-09
7.7382e-10
2.06352e-10
3.7319e-11
0
-2.19524e-12
-1.09762e-11
-1.09762e-12
1.64643e-11
-1.20738e-11
-1.53666e-11
-3.29285e-12
9.87856e-12
2.19523e-12
0
-1.09762e-12
-5.48809e-12
-1.09762e-12
1.09762e-12
0
1.09762e-12
0
0
-1.53666e-11
-2.19524e-12
0
-3.29285e-12
1.09762e-12
0
0
0
0
-1.09762e-12
-2.19524e-12
5.48809e-12
-1.09762e-12
-2.19524e-12
-9.87856e-12
0
0
-4.39047e-12
0
2.19524e-12
-4.39047e-12
1.09762e-12
8.78094e-12
4.39047e-12
0
0
9.87856e-12
1.20738e-11
5.48809e-12
-5.48809e-12
-4.39047e-12
0.000249509
0.000685179
0.000957769
0.001033
0.000942846
0.000756434
0.000544485
0.000356194
0.00021368
0.00011834
6.083e-05
2.91543e-05
1.30819e-05
5.51689e-06
2.19463e-06
8.26403e-07
2.95505e-07
1.00657e-07
3.27518e-08
1.02243e-08
3.04699e-09
8.58337e-10
2.31597e-10
4.06118e-11
1.20738e-11
-9.87856e-12
-2.63428e-11
-1.64643e-11
1.09762e-12
-5.48809e-12
7.68332e-12
1.75619e-11
3.29285e-12
1.09762e-12
-5.48809e-12
0
5.48809e-12
-1.09762e-12
0
5.48809e-12
-1.09762e-12
1.53666e-11
-1.09762e-12
-5.48809e-12
1.4269e-11
1.09762e-12
1.31714e-11
0
6.58571e-12
1.09762e-12
0
0
0
0
1.09762e-12
-2.19523e-12
-1.09762e-12
-1.09762e-12
-1.09762e-12
2.19524e-12
-1.09762e-12
-8.78094e-12
-1.09762e-12
0
-8.78094e-12
-9.87856e-12
0
2.19523e-12
4.39047e-12
1.09762e-12
1.31714e-11
-4.39047e-12
3.29285e-12
-1.09762e-12
-1.09762e-12
7.13494e-05
0.000196249
0.000275169
0.00029809
0.000273572
0.000220882
0.000160096
0.000105484
6.37259e-05
3.55253e-05
1.83675e-05
8.84568e-06
3.98379e-06
1.68414e-06
6.70731e-07
2.52534e-07
9.01912e-08
3.06466e-08
9.93563e-09
3.07552e-09
9.05534e-10
2.54647e-10
6.0369e-11
-1.75619e-11
6.5857e-12
1.09762e-12
-1.53666e-11
-8.78094e-12
-1.31714e-11
-2.41476e-11
-6.5857e-12
6.5857e-12
0
-1.09762e-12
0
0
1.09762e-12
-8.78094e-12
1.09762e-12
0
-1.09762e-12
6.5857e-12
-1.09762e-12
0
1.53666e-11
-8.78094e-12
1.09762e-12
1.09762e-12
-2.19523e-12
-8.78094e-12
0
-1.09762e-12
0
1.09762e-12
3.29285e-12
3.29285e-12
1.86595e-11
0
2.19523e-12
0
0
-6.5857e-12
-1.09762e-12
3.29285e-12
0
-1.09762e-12
-7.68332e-12
0
0
1.09762e-12
-4.39047e-12
-8.78094e-12
0
0
-5.48809e-12
1.96431e-05
5.41164e-05
7.61143e-05
8.28216e-05
7.64361e-05
6.21164e-05
4.53416e-05
3.00933e-05
1.83106e-05
1.02755e-05
5.34369e-06
2.58577e-06
1.16868e-06
4.9518e-07
1.97385e-07
7.42681e-08
2.648e-08
8.95766e-09
2.87247e-09
8.72606e-10
2.74404e-10
1.02078e-10
3.40261e-11
-3.29285e-12
-1.31714e-11
1.09762e-12
-3.29285e-12
-1.09762e-12
-5.48809e-12
-1.4269e-11
-2.96357e-11
-1.20738e-11
-6.58571e-12
1.09762e-12
0
0
-5.48809e-12
-6.58571e-12
0
0
1.09762e-12
1.09762e-12
1.09762e-12
0
-5.48809e-12
-1.09762e-12
-1.09762e-11
-4.39047e-12
-4.39047e-12
0
0
2.19524e-12
-1.09762e-12
2.19524e-12
-1.09762e-12
-1.09762e-12
9.87856e-12
0
0
-2.19524e-12
3.29285e-12
8.78094e-12
0
-1.86595e-11
8.78094e-12
1.09762e-11
0
1.09762e-12
-4.39047e-12
0
-1.20738e-11
0
0
-3.29285e-12
2.19524e-12
5.2081e-06
1.43716e-05
2.02771e-05
2.21639e-05
2.05719e-05
1.68288e-05
1.23727e-05
8.2727e-06
5.06993e-06
2.86406e-06
1.49804e-06
7.28299e-07
3.30292e-07
1.40235e-07
5.59379e-08
2.10095e-08
7.44953e-09
2.4861e-09
7.7382e-10
2.45866e-10
8.45165e-11
3.84166e-11
1.4269e-11
2.41476e-11
-1.53666e-11
4.39047e-12
1.09762e-12
4.39047e-12
-3.29285e-12
-1.09762e-11
-1.97571e-11
-8.78094e-12
8.78094e-12
1.09762e-12
1.09762e-12
0
1.09762e-12
9.87856e-12
1.09762e-12
-1.09762e-12
1.09762e-12
-7.68332e-12
2.19524e-12
-2.19523e-12
0
9.87856e-12
-1.09762e-12
0
0
7.68332e-12
0
1.09762e-12
0
1.09762e-12
-1.09762e-12
-2.19523e-12
-1.86595e-11
-7.68332e-12
-1.09762e-12
0
-1.09762e-12
1.09762e-11
1.09762e-12
-2.19524e-12
-1.09762e-12
-4.39047e-12
9.87856e-12
-1.09762e-12
2.19524e-12
-2.19524e-12
3.29285e-12
0
-2.19524e-12
3.29285e-12
-8.78094e-12
1.33002e-06
3.67632e-06
5.20358e-06
5.71392e-06
5.33414e-06
4.39281e-06
3.2531e-06
2.19125e-06
1.35253e-06
7.69101e-07
4.04544e-07
1.97589e-07
8.9896e-08
3.82311e-08
1.52854e-08
5.74164e-09
2.03279e-09
6.62961e-10
1.95376e-10
6.80523e-11
9.87856e-12
1.09762e-12
1.4269e-11
2.96357e-11
1.86595e-11
0
8.78094e-12
-1.20738e-11
3.29285e-12
0
3.29285e-12
-8.78094e-12
1.20738e-11
0
7.68332e-12
0
5.48809e-12
5.48809e-12
0
0
-1.09762e-12
-6.5857e-12
1.09762e-12
0
4.39047e-12
0
2.19523e-12
0
-1.09762e-12
2.19523e-12
1.09762e-12
-2.19523e-12
7.68332e-12
-3.29285e-12
-2.19523e-12
5.48809e-12
-7.68332e-12
1.20738e-11
1.09762e-12
0
1.09762e-12
-2.19523e-12
-1.09762e-12
1.31714e-11
0
1.31714e-11
0
-2.19523e-12
0
1.09762e-12
4.39047e-12
-2.19523e-12
0
2.19523e-12
-1.09762e-12
3.27121e-07
9.05899e-07
1.28643e-06
1.41914e-06
1.33251e-06
1.10472e-06
8.24019e-07
5.59116e-07
3.47545e-07
1.9888e-07
1.052e-07
5.16067e-08
2.3579e-08
1.00465e-08
4.02606e-09
1.5202e-09
5.42223e-10
1.78912e-10
5.92713e-11
2.305e-11
-1.09762e-12
6.58571e-12
2.08547e-11
6.58571e-12
9.87856e-12
6.5857e-12
-2.19524e-12
-6.58571e-12
1.53666e-11
6.58571e-12
1.20738e-11
-7.68332e-12
-7.68332e-12
2.19524e-12
2.19523e-12
-2.19524e-12
0
1.09762e-12
-1.09762e-12
2.19524e-12
1.09762e-12
3.29285e-12
-3.29285e-12
2.19523e-12
2.19524e-12
-1.09762e-12
-1.09762e-12
-5.48809e-12
-2.19524e-12
2.19523e-12
-7.68332e-12
-7.68332e-12
-1.09762e-12
0
-1.31714e-11
6.5857e-12
1.09762e-12
1.09762e-11
0
-1.09762e-12
1.09762e-12
0
-1.09762e-12
4.39047e-12
3.29285e-12
4.39047e-12
-9.87856e-12
0
-1.09762e-12
1.09762e-12
1.09762e-12
1.09762e-12
0
1.09762e-12
1.31714e-11
7.76718e-08
2.15445e-07
3.06936e-07
3.40152e-07
3.21255e-07
2.68073e-07
2.0137e-07
1.37619e-07
8.61235e-08
4.95958e-08
2.639e-08
1.29947e-08
5.97653e-09
2.54757e-09
1.00542e-09
3.91849e-10
1.24031e-10
6.14666e-11
2.96357e-11
-1.20738e-11
-3.29285e-12
3.29285e-12
-1.86595e-11
-8.78094e-12
1.20738e-11
1.86595e-11
1.53666e-11
1.4269e-11
-5.48809e-12
-1.09762e-11
-7.68332e-12
3.29285e-12
-5.48809e-12
-1.09762e-12
-7.68332e-12
-1.09762e-12
1.09762e-11
1.09762e-12
1.09762e-12
0
0
0
-1.09762e-12
0
0
1.53666e-11
-1.09762e-12
1.09762e-12
0
-1.09762e-12
-1.09762e-12
-3.29285e-12
-7.68332e-12
1.09762e-12
1.09762e-12
-4.39047e-12
0
-3.29285e-12
-2.19523e-12
2.19524e-12
-1.09762e-12
2.19523e-12
0
6.58571e-12
-2.19523e-12
-1.31714e-11
2.19524e-12
1.09762e-12
0
-1.09762e-12
7.68332e-12
3.29285e-12
0
3.29285e-12
-4.39047e-12
1.77419e-08
4.92567e-08
7.04473e-08
7.83677e-08
7.4458e-08
6.25071e-08
4.72744e-08
3.25389e-08
2.05035e-08
1.18861e-08
6.34752e-09
3.14138e-09
1.45215e-09
6.19056e-10
2.37085e-10
1.06469e-10
5.04904e-11
5.70761e-11
4.06118e-11
3.29285e-12
9.87856e-12
1.09762e-12
-9.87856e-12
6.5857e-12
1.64643e-11
-5.48809e-12
2.19523e-11
3.18309e-11
2.19523e-12
5.48809e-12
9.87856e-12
1.53666e-11
-1.09762e-12
-2.19523e-12
2.19523e-12
2.19523e-12
4.39047e-12
-7.68332e-12
0
-2.19523e-12
1.09762e-12
-1.09762e-12
0
1.09762e-12
-1.09762e-12
2.19523e-12
1.09762e-12
9.87856e-12
1.09762e-12
-2.19523e-12
7.68332e-12
6.5857e-12
2.19523e-12
-2.19523e-12
1.4269e-11
-6.5857e-12
-1.09762e-12
-3.29285e-12
1.09762e-12
2.19523e-12
-1.09762e-12
-2.19523e-12
2.19523e-12
-1.20738e-11
-3.29285e-12
-1.09762e-12
0
1.09762e-12
1.09762e-12
0
-7.68332e-12
0
-4.39047e-12
-1.4269e-11
-1.09762e-12
3.75385e-09
1.06381e-08
1.52986e-08
1.71075e-08
1.63545e-08
1.38366e-08
1.05503e-08
7.31013e-09
4.65719e-09
2.70124e-09
1.44446e-09
7.21135e-10
3.51238e-10
1.73424e-10
6.69547e-11
2.41476e-11
4.39047e-11
2.74404e-11
2.41476e-11
2.41476e-11
5.48809e-12
-1.97571e-11
1.31714e-11
1.09762e-11
-1.97571e-11
-1.31714e-11
-4.39047e-12
1.09762e-11
2.74404e-11
2.63428e-11
1.4269e-11
5.48809e-12
-1.09762e-12
7.68332e-12
0
1.09762e-12
-1.20738e-11
-1.31714e-11
-2.19524e-12
0
0
6.58571e-12
1.09762e-12
0
-4.39047e-12
-1.64643e-11
1.09762e-12
1.09762e-12
1.09762e-11
0
-1.09762e-12
3.29285e-12
-6.5857e-12
0
-2.19524e-12
0
0
-7.68332e-12
4.39047e-12
-3.29285e-12
0
-1.09762e-12
-5.48809e-12
-2.08547e-11
2.19523e-12
0
-2.19524e-12
-3.29285e-12
1.09762e-12
-1.09762e-12
1.09762e-12
-2.19524e-12
0
0
1.31714e-11
8.47361e-10
2.50696e-09
3.62872e-09
4.06558e-09
3.90752e-09
3.34334e-09
2.55086e-09
1.78582e-09
1.11079e-09
6.34423e-10
3.41359e-10
1.82205e-10
8.45165e-11
4.93928e-11
4.39047e-12
1.09762e-11
1.4269e-11
7.68332e-12
-1.09762e-11
7.68332e-12
-6.58571e-12
-9.87856e-12
-8.78094e-12
-2.19524e-11
-3.18309e-11
-2.63428e-11
-2.305e-11
-2.305e-11
-6.5857e-12
1.86595e-11
1.31714e-11
4.39047e-12
0
0
-4.39047e-12
2.19524e-12
-5.48809e-12
6.58571e-12
-8.78094e-12
2.19524e-12
-1.09762e-12
-1.09762e-12
-1.09762e-12
0
0
1.09762e-12
6.5857e-12
-2.19524e-12
8.78094e-12
-2.19523e-12
-1.09762e-12
1.09762e-12
0
3.29285e-12
0
-1.09762e-12
0
0
-1.09762e-12
0
0
3.29285e-12
-1.09762e-12
7.68332e-12
0
-1.09762e-12
0
0
6.58571e-12
4.39047e-12
6.5857e-12
-1.97571e-11
2.19524e-12
1.09762e-11
0
3.02942e-10
5.31247e-10
7.31013e-10
7.90285e-10
7.39794e-10
6.5418e-10
4.76366e-10
3.30383e-10
1.97571e-10
9.65903e-11
5.48809e-11
2.96357e-11
-9.87856e-12
-2.08547e-11
-2.74404e-11
-8.78094e-12
-4.39047e-12
-1.09762e-12
-1.4269e-11
1.31714e-11
1.31714e-11
2.19523e-12
-1.31714e-11
-1.4269e-11
-1.97571e-11
-3.51238e-11
-2.52452e-11
-2.85381e-11
-1.86595e-11
-1.09762e-12
-1.09762e-12
6.5857e-12
-1.09762e-12
-6.5857e-12
1.09762e-12
1.09762e-12
-5.48809e-12
1.20738e-11
-1.09762e-12
1.09762e-12
1.09762e-12
-6.5857e-12
-1.09762e-12
1.09762e-12
0
0
1.75619e-11
0
-1.09762e-11
0
2.19523e-12
0
2.08547e-11
0
0
0
8.78094e-12
0
-1.09762e-12
-2.19523e-12
-1.09762e-12
1.09762e-12
4.39047e-12
1.86595e-11
1.09762e-12
0
-1.09762e-12
1.31714e-11
0
1.09762e-12
-7.68332e-12
0
0
0
-7.68332e-12
6.58571e-11
-2.63428e-11
-4.60999e-11
-5.92713e-11
-1.22933e-10
-7.68332e-11
-7.13451e-11
-8.12237e-11
-4.71976e-11
-1.86595e-11
3.29285e-12
0
-3.29285e-12
-1.75619e-11
-3.29285e-12
-2.19524e-11
-1.20738e-11
-3.07333e-11
8.78094e-12
5.48809e-12
8.78094e-12
-1.31714e-11
-9.87856e-12
-5.48809e-12
1.09762e-12
-7.68332e-12
-1.97571e-11
-2.305e-11
-1.4269e-11
-3.07333e-11
-2.63428e-11
-1.20738e-11
6.58571e-12
0
2.19523e-12
0
1.09762e-12
0
8.78094e-12
0
-1.09762e-12
0
1.09762e-12
-2.19523e-12
0
-1.09762e-12
2.19523e-12
0
-7.68332e-12
2.19523e-12
-2.19524e-12
-1.31714e-11
-1.09762e-12
-2.19524e-12
1.09762e-12
3.29285e-12
7.68332e-12
-1.20738e-11
-1.09762e-12
2.19524e-12
-1.09762e-12
-5.48809e-12
-3.29285e-12
0
0
2.19524e-12
1.09762e-12
0
-8.78094e-12
4.39047e-12
1.09762e-12
2.41476e-11
2.19524e-12
4.39047e-12
0
1.18543e-10
2.94161e-10
3.81971e-10
4.08314e-10
3.49042e-10
2.56842e-10
2.00864e-10
1.28421e-10
6.14666e-11
5.1588e-11
4.60999e-11
1.86595e-11
7.68332e-12
-1.09762e-12
8.78094e-12
-1.86595e-11
-4.39047e-11
-3.84166e-11
-5.48809e-12
-1.4269e-11
-2.19524e-12
6.58571e-12
-1.20738e-11
-2.08547e-11
0
6.5857e-12
5.48809e-12
1.09762e-12
-7.68332e-12
-1.53666e-11
-8.78094e-12
-2.41476e-11
8.78094e-12
0
-7.68332e-12
-2.19524e-12
5.48809e-12
0
3.29285e-12
-2.19524e-12
-6.5857e-12
0
2.19524e-12
-2.19523e-12
0
0
-1.86595e-11
0
-1.09762e-12
-1.09762e-12
-4.39047e-12
-5.48809e-12
-1.4269e-11
2.19524e-12
2.19524e-12
0
-8.78094e-12
-1.64643e-11
-8.78094e-12
-1.20738e-11
-3.29285e-12
-1.09762e-12
1.09762e-12
-2.19524e-12
-1.09762e-12
-1.09762e-11
1.09762e-12
-6.5857e-12
-1.09762e-12
-1.09762e-12
-2.19523e-12
0
-9.87856e-12
0
5.48809e-12
2.19523e-11
5.26856e-11
-4.17095e-11
-1.75619e-11
2.19523e-12
-5.48809e-11
-3.84166e-11
-8.78094e-12
-4.39047e-12
-3.29285e-12
-9.87856e-12
-1.86595e-11
-1.4269e-11
-1.09762e-11
1.09762e-12
-1.53666e-11
-1.53666e-11
1.09762e-12
-1.31714e-11
4.39047e-12
1.86595e-11
3.07333e-11
2.08547e-11
1.4269e-11
1.09762e-12
1.09762e-12
2.52452e-11
2.19523e-11
2.19523e-11
1.09762e-12
-1.86595e-11
-4.17095e-11
-3.18309e-11
0
-2.19523e-12
-1.09762e-12
0
-1.20738e-11
-1.09762e-12
-1.09762e-12
0
3.29285e-12
5.48809e-12
4.39047e-12
-2.19523e-12
0
-9.87856e-12
-1.09762e-12
1.09762e-12
-4.39047e-12
1.09762e-12
1.31714e-11
1.09762e-12
0
-3.29285e-12
6.5857e-12
-7.68332e-12
7.68332e-12
-8.78094e-12
-2.19523e-12
-1.31714e-11
5.48809e-12
4.39047e-12
-7.68332e-12
1.09762e-12
-1.09762e-12
-1.09762e-12
1.09762e-12
2.19523e-12
-8.78094e-12
-1.31714e-11
-4.39047e-12
-6.5857e-12
-7.68332e-12
-1.09762e-12
-9.21999e-11
-1.80009e-10
-3.16114e-10
-3.02942e-10
-2.56842e-10
-2.305e-10
-1.67935e-10
-9.54927e-11
-5.1588e-11
-3.18309e-11
-3.18309e-11
-2.52452e-11
-5.48809e-12
1.86595e-11
1.64643e-11
3.29285e-12
6.5857e-12
-2.19524e-12
-1.09762e-11
1.31714e-11
1.20738e-11
9.87856e-12
2.08547e-11
2.19524e-11
1.53666e-11
1.86595e-11
7.68332e-12
1.09762e-12
1.31714e-11
-7.68332e-12
-4.39047e-12
-1.09762e-11
-2.41476e-11
0
1.09762e-12
0
-1.09762e-12
-9.87856e-12
-8.78094e-12
0
1.09762e-12
0
-2.19524e-12
-4.39047e-12
5.48809e-12
-8.78094e-12
0
-1.31714e-11
-1.09762e-12
1.09762e-12
0
1.09762e-12
-1.09762e-12
-1.31714e-11
-1.09762e-12
4.39047e-12
0
4.39047e-12
1.86595e-11
1.31714e-11
4.39047e-12
2.19523e-12
0
2.19524e-12
0
1.09762e-11
-2.19524e-12
0
0
5.48809e-12
8.78094e-12
0
9.87856e-12
2.19523e-12
-6.58571e-12
1.09762e-10
1.53666e-10
2.94161e-10
3.00747e-10
2.98552e-10
2.59038e-10
2.12938e-10
1.50374e-10
9.11023e-11
5.59785e-11
3.07333e-11
2.305e-11
8.78094e-12
1.97571e-11
1.31714e-11
5.48809e-12
-1.09762e-12
-1.09762e-11
2.19524e-12
-2.08547e-11
-2.19524e-12
1.86595e-11
1.09762e-12
-1.09762e-12
2.19524e-12
3.40261e-11
1.86595e-11
1.31714e-11
8.78094e-12
3.29285e-12
2.08547e-11
2.85381e-11
2.63428e-11
-1.09762e-12
0
-1.09762e-12
1.09762e-12
1.20738e-11
8.78094e-12
-4.39047e-12
0
-3.29285e-12
3.29285e-12
-1.64643e-11
1.09762e-12
2.19524e-12
0
0
-2.19524e-12
-4.39047e-12
1.09762e-12
3.29285e-12
0
-2.19524e-12
2.19524e-12
-2.305e-11
-1.09762e-12
0
7.68332e-12
1.09762e-12
1.4269e-11
-2.19523e-12
-1.09762e-12
-1.09762e-12
-4.39047e-12
1.09762e-12
-1.09762e-12
1.20738e-11
0
0
2.08547e-11
9.87856e-12
6.58571e-12
4.39047e-12
0
2.19523e-11
-2.19523e-11
8.78094e-12
-3.7319e-11
-3.7319e-11
-1.97571e-11
-1.53666e-11
-1.53666e-11
-1.09762e-11
-1.4269e-11
-1.53666e-11
4.39047e-12
-8.78094e-12
-1.53666e-11
-4.39047e-12
1.4269e-11
1.86595e-11
3.51238e-11
2.52452e-11
5.48809e-12
1.4269e-11
1.4269e-11
4.39047e-12
5.48809e-12
9.87856e-12
1.64643e-11
2.305e-11
4.39047e-11
2.52452e-11
3.62214e-11
2.63428e-11
3.51238e-11
1.53666e-11
0
1.4269e-11
1.09762e-12
2.19523e-12
7.68332e-12
8.78094e-12
-1.09762e-12
1.4269e-11
-5.48809e-12
5.48809e-12
9.87856e-12
0
8.78094e-12
9.87856e-12
2.305e-11
2.19523e-12
-6.5857e-12
4.39047e-12
6.5857e-12
1.53666e-11
2.08547e-11
1.09762e-12
5.48809e-12
4.39047e-12
1.4269e-11
-1.09762e-11
0
0
-2.19523e-12
-1.09762e-12
0
-3.29285e-12
0
4.39047e-12
-4.39047e-12
-2.19523e-12
-1.31714e-11
-5.48809e-12
6.5857e-12
-1.09762e-12
-5.48809e-12
2.19523e-12
-1.27324e-10
-2.28304e-10
-3.60019e-10
-3.92947e-10
-3.20504e-10
-2.41476e-10
-1.52569e-10
-9.32975e-11
-5.92713e-11
-4.17095e-11
-1.97571e-11
-3.29285e-12
6.58571e-12
2.19523e-12
1.53666e-11
2.19524e-11
2.41476e-11
3.18309e-11
0
1.64643e-11
9.87856e-12
-1.4269e-11
4.39047e-12
1.97571e-11
2.85381e-11
1.4269e-11
2.19524e-11
2.19524e-11
1.64643e-11
1.97571e-11
1.09762e-11
1.20738e-11
4.39047e-12
6.58571e-12
0
-5.48809e-12
-2.19524e-12
-1.09762e-12
-9.87856e-12
4.39047e-12
0
0
-2.19524e-12
1.86595e-11
1.09762e-12
-1.09762e-12
2.19523e-12
-1.09762e-12
1.09762e-12
8.78094e-12
1.09762e-12
4.39047e-12
1.4269e-11
1.09762e-12
-2.19524e-12
1.4269e-11
1.31714e-11
2.19524e-12
2.19523e-12
0
0
-2.19523e-12
2.19524e-12
8.78094e-12
3.29285e-12
-1.09762e-12
0
-1.20738e-11
1.09762e-12
0
-1.64643e-11
-9.87856e-12
1.09762e-12
-7.68332e-12
0
2.63428e-11
1.62447e-10
2.21719e-10
2.70014e-10
2.91966e-10
2.70014e-10
2.3489e-10
1.54764e-10
1.08664e-10
5.26856e-11
4.28071e-11
1.53666e-11
1.09762e-11
1.31714e-11
1.86595e-11
1.53666e-11
1.97571e-11
0
-8.78094e-12
-2.96357e-11
-1.31714e-11
-1.20738e-11
-6.5857e-12
6.58571e-12
3.29285e-12
1.53666e-11
1.31714e-11
-7.68332e-12
-3.29285e-12
1.31714e-11
7.68332e-12
-2.19523e-12
-6.58571e-12
0
-9.87856e-12
0
-1.09762e-12
2.19524e-12
0
1.31714e-11
-9.87856e-12
1.09762e-11
-1.4269e-11
-4.39047e-12
1.09762e-12
0
-1.09762e-11
-7.68332e-12
0
5.48809e-12
0
-2.19524e-12
-1.4269e-11
-8.78094e-12
0
-2.08547e-11
-4.39047e-12
-4.39047e-12
1.09762e-12
0
0
-2.19523e-12
4.39047e-12
0
5.48809e-12
0
-1.09762e-12
0
6.58571e-12
1.53666e-11
5.48809e-12
-5.48809e-12
-8.78094e-12
1.09762e-12
-4.39047e-12
3.07333e-11
9.21999e-11
4.82952e-11
2.85381e-11
1.31714e-11
6.5857e-12
-1.53666e-11
-1.20738e-11
-2.19523e-12
-2.41476e-11
-7.68332e-12
-8.78094e-12
-8.78094e-12
5.48809e-12
1.09762e-12
9.87856e-12
1.09762e-12
-8.78094e-12
1.09762e-12
-2.85381e-11
-4.28071e-11
-1.75619e-11
-2.19523e-12
-1.97571e-11
-8.78094e-12
5.48809e-12
-6.5857e-12
-8.78094e-12
-4.39047e-12
8.78094e-12
1.31714e-11
1.86595e-11
-4.39047e-12
-5.48809e-12
-1.09762e-12
5.48809e-12
1.09762e-12
2.19523e-12
1.09762e-12
0
-1.09762e-12
0
-5.48809e-12
-5.48809e-12
0
0
-2.19523e-12
4.39047e-12