/*--------------------------------*- C++ -*----------------------------------*\
  =========                 |
  \\      /  F ield         | OpenFOAM: The Open Source CFD Toolbox
   \\    /   O peration     | Website:  https://openfoam.org
    \\  /    A nd           | Version:  10
     \\/     M anipulation  |
\*---------------------------------------------------------------------------*/
FoamFile
{
    format      ascii;
    class       volScalarField;
    location    "205";
    object      T;
}
// * * * * * * * * * * * * * * * * * * * * * * * * * * * * * * * * * * * * * //

dimensions      [0 0 0 1 0 0 0];

internalField   nonuniform List<scalar> 
11250
(
249.74
167.254
138.864
126.269
119.332
114.894
111.771
109.438
107.626
106.184
105.017
104.064
103.282
102.639
102.111
101.679
101.326
101.04
100.81
100.626
100.48
100.365
100.275
100.206
100.153
100.112
100.082
100.059
100.042
100.03
100.021
100.015
100.01
100.007
100.005
100.003
100.002
100.001
100.001
100.001
100
100
100
100
100
100
100
100
100
100
100
100
100
100
100
100
100
100
100
100
100
100
100
100
100
100
100
100
100
100
100
100
100
100
100
331.195
247.681
200.824
173.184
155.543
143.42
134.583
127.855
122.574
118.341
114.901
112.084
109.766
107.858
106.289
105.003
103.954
103.103
102.417
101.868
101.433
101.089
100.822
100.614
100.455
100.335
100.244
100.176
100.126
100.089
100.063
100.044
100.03
100.02
100.014
100.009
100.006
100.004
100.003
100.002
100.001
100.001
100
100
100
100
100
100
100
100
100
100
100
100
100
100
100
100
100
100
100
100
100
100
100
100
100
100
100
100
100
100
100
100
100
358.569
291.501
243.65
210.211
186.373
168.817
155.459
145.012
136.668
129.901
124.358
119.792
116.021
112.906
110.339
108.232
106.51
105.112
103.983
103.08
102.363
101.797
101.356
101.014
100.752
100.552
100.402
100.29
100.208
100.147
100.103
100.072
100.05
100.034
100.023
100.015
100.01
100.007
100.004
100.003
100.002
100.001
100.001
100
100
100
100
100
100
100
100
100
100
100
100
100
100
100
100
100
100
100
100
100
100
100
100
100
100
100
100
100
100
100
100
370.175
316.186
272.2
237.82
211.147
190.276
173.713
160.375
149.504
140.561
133.161
127.018
121.917
117.686
114.188
111.309
108.952
107.034
105.485
104.244
103.257
102.479
101.87
101.399
101.038
100.763
100.556
100.401
100.287
100.203
100.143
100.099
100.069
100.047
100.032
100.021
100.014
100.009
100.006
100.004
100.002
100.002
100.001
100.001
100
100
100
100
100
100
100
100
100
100
100
100
100
100
100
100
100
100
100
100
100
100
100
100
100
100
100
100
100
100
100
376.16
330.983
291.332
257.975
230.43
207.79
189.14
173.7
160.854
150.127
141.15
133.636
127.355
122.12
117.775
114.187
111.243
108.843
106.902
105.344
104.104
103.125
102.359
101.765
101.31
100.963
100.702
100.507
100.363
100.257
100.181
100.126
100.087
100.059
100.04
100.027
100.018
100.012
100.008
100.005
100.003
100.002
100.001
100.001
100
100
100
100
100
100
100
100
100
100
100
100
100
100
100
100
100
100
100
100
100
100
100
100
100
100
100
100
100
100
100
379.692
340.398
304.408
272.64
245.203
221.773
201.862
184.971
170.649
158.513
148.242
139.569
132.27
126.154
121.056
116.833
113.357
110.518
108.217
106.367
104.893
103.728
102.816
102.109
101.565
101.151
100.839
100.606
100.434
100.308
100.216
100.15
100.104
100.071
100.048
100.032
100.021
100.014
100.009
100.006
100.004
100.002
100.002
100.001
100.001
100
100
100
100
100
100
100
100
100
100
100
100
100
100
100
100
100
100
100
100
100
100
100
100
100
100
100
100
100
100
381.962
346.685
313.545
283.358
256.445
232.785
212.173
194.323
178.934
165.718
154.413
144.786
136.63
129.758
124.006
119.223
115.276
112.044
109.419
107.305
105.618
104.283
103.237
102.425
101.801
101.325
100.966
100.698
100.5
100.355
100.249
100.174
100.12
100.082
100.055
100.037
100.025
100.016
100.011
100.007
100.004
100.003
100.002
100.001
100.001
100
100
100
100
100
100
100
100
100
100
100
100
100
100
100
100
100
100
100
100
100
100
100
100
100
100
100
100
100
100
383.5
351.036
320.061
291.25
264.982
241.386
220.427
201.968
185.828
171.803
159.691
149.296
140.432
132.925
126.614
121.348
116.989
113.412
110.5
108.151
106.274
104.787
103.621
102.714
102.016
101.484
101.083
100.783
100.561
100.398
100.28
100.195
100.134
100.092
100.062
100.042
100.028
100.018
100.012
100.008
100.005
100.003
100.002
100.001
100.001
100
100
100
100
100
100
100
100
100
100
100
100
100
100
100
100
100
100
100
100
100
100
100
100
100
100
100
100
100
100
384.579
354.128
324.782
297.104
271.466
248.069
226.972
208.143
191.486
176.867
164.137
153.134
143.696
135.665
128.885
123.209
118.497
114.621
111.459
108.905
106.86
105.238
103.964
102.974
102.21
101.628
101.188
100.859
100.616
100.437
100.307
100.214
100.148
100.101
100.068
100.046
100.031
100.02
100.013
100.008
100.005
100.003
100.002
100.001
100.001
100.001
100
100
100
100
100
100
100
100
100
100
100
100
100
100
100
100
100
100
100
100
100
100
100
100
100
100
100
100
100
385.354
356.365
328.246
301.472
276.395
253.241
232.127
213.083
196.077
181.029
167.831
156.354
146.458
138.001
130.834
124.815
119.805
115.674
112.298
109.566
107.375
105.636
104.268
103.204
102.382
101.756
101.282
100.927
100.665
100.472
100.332
100.231
100.16
100.109
100.074
100.05
100.033
100.022
100.014
100.009
100.006
100.004
100.002
100.001
100.001
100.001
100
100
100
100
100
100
100
100
100
100
100
100
100
100
100
100
100
100
100
100
100
100
100
100
100
100
100
100
100
385.919
358.004
330.81
304.747
280.142
257.232
236.161
217.003
199.766
184.411
170.863
159.021
148.765
139.965
132.483
126.182
120.924
116.579
113.022
110.138
107.823
105.983
104.534
103.405
102.534
101.868
101.364
100.987
100.708
100.503
100.354
100.247
100.17
100.117
100.079
100.053
100.035
100.023
100.015
100.01
100.006
100.004
100.002
100.002
100.001
100.001
100
100
100
100
100
100
100
100
100
100
100
100
100
100
100
100
100
100
100
100
100
100
100
100
100
100
100
100
100
386.335
359.216
332.719
307.209
282.992
260.302
239.303
220.09
202.703
187.131
173.324
161.204
150.668
141.597
133.862
127.331
121.869
117.346
113.638
110.627
108.207
106.281
104.763
103.579
102.664
101.965
101.436
101.04
100.746
100.53
100.373
100.26
100.18
100.123
100.083
100.056
100.037
100.025
100.016
100.01
100.007
100.004
100.003
100.002
100.001
100.001
100
100
100
100
100
100
100
100
100
100
100
100
100
100
100
100
100
100
100
100
100
100
100
100
100
100
100
100
100
386.643
360.117
334.145
309.063
285.157
262.657
241.736
222.505
205.022
189.298
175.302
162.972
152.219
142.936
135
128.284
122.657
117.989
114.156
111.04
108.532
106.533
104.957
103.727
102.776
102.049
101.498
101.085
100.778
100.553
100.389
100.272
100.188
100.128
100.087
100.058
100.039
100.026
100.017
100.011
100.007
100.004
100.003
100.002
100.001
100.001
100
100
100
100
100
100
100
100
100
100
100
100
100
100
100
100
100
100
100
100
100
100
100
100
100
100
100
100
100
386.872
360.788
335.213
310.459
286.798
264.458
243.612
224.382
206.84
191.01
176.876
164.389
153.471
144.022
135.928
129.065
123.306
118.521
114.586
111.383
108.803
106.745
105.121
103.852
102.87
102.119
101.55
101.123
100.806
100.573
100.404
100.282
100.195
100.133
100.09
100.061
100.04
100.027
100.017
100.011
100.007
100.005
100.003
100.002
100.001
100.001
100
100
100
100
100
100
100
100
100
100
100
100
100
100
100
100
100
100
100
100
100
100
100
100
100
100
100
100
100
387.042
361.289
336.012
311.508
288.04
265.829
245.05
225.832
208.253
192.35
178.117
165.513
154.47
144.894
136.677
129.699
123.834
118.955
114.939
111.666
109.027
106.921
105.257
103.956
102.949
102.178
101.594
101.155
100.829
100.59
100.415
100.29
100.2
100.137
100.093
100.062
100.042
100.027
100.018
100.012
100.007
100.005
100.003
100.002
100.001
100.001
100
100
100
100
100
100
100
100
100
100
100
100
100
100
100
100
100
100
100
100
100
100
100
100
100
100
100
100
100
387.169
361.662
336.61
312.296
288.976
266.868
246.147
226.944
209.345
193.392
179.087
166.397
155.259
145.586
137.274
130.207
124.259
119.306
115.225
111.897
109.21
107.065
105.368
104.042
103.014
102.227
101.63
101.181
100.848
100.604
100.425
100.297
100.205
100.141
100.095
100.064
100.043
100.028
100.018
100.012
100.008
100.005
100.003
100.002
100.001
100.001
100
100
100
100
100
100
100
100
100
100
100
100
100
100
100
100
100
100
100
100
100
100
100
100
100
100
100
100
100
387.264
361.939
337.055
312.886
289.679
267.652
246.978
227.792
210.181
194.194
179.838
167.085
155.877
146.131
137.746
130.609
124.598
119.587
115.455
112.082
109.358
107.181
105.459
104.111
103.067
102.267
101.659
101.203
100.864
100.615
100.433
100.303
100.209
100.143
100.097
100.065
100.043
100.029
100.019
100.012
100.008
100.005
100.003
100.002
100.001
100.001
100
100
100
100
100
100
100
100
100
100
100
100
100
100
100
100
100
100
100
100
100
100
100
100
100
100
100
100
100
387.334
362.145
337.386
313.325
290.205
268.241
247.605
228.434
210.818
194.808
180.415
167.616
156.355
146.555
138.115
130.925
124.864
119.809
115.636
112.229
109.476
107.274
105.531
104.167
103.11
102.299
101.683
101.221
100.877
100.624
100.44
100.307
100.212
100.146
100.099
100.066
100.044
100.029
100.019
100.012
100.008
100.005
100.003
100.002
100.001
100.001
100
100
100
100
100
100
100
100
100
100
100
100
100
100
100
100
100
100
100
100
100
100
100
100
100
100
100
100
100
387.385
362.298
337.631
313.65
290.596
268.68
248.075
228.917
211.299
195.273
180.855
168.022
156.723
146.882
138.401
131.171
125.072
119.982
115.779
112.345
109.568
107.347
105.589
104.211
103.143
102.324
101.702
101.235
100.887
100.632
100.445
100.311
100.215
100.147
100.1
100.067
100.045
100.03
100.019
100.012
100.008
100.005
100.003
100.002
100.001
100.001
100
100
100
100
100
100
100
100
100
100
100
100
100
100
100
100
100
100
100
100
100
100
100
100
100
100
100
100
100
387.423
362.41
337.812
313.891
290.886
269.006
248.425
229.277
211.659
195.623
181.186
168.33
157.003
147.131
138.62
131.36
125.232
120.116
115.89
112.435
109.641
107.405
105.634
104.246
103.17
102.344
101.717
101.246
100.896
100.638
100.45
100.314
100.217
100.149
100.101
100.068
100.045
100.03
100.019
100.013
100.008
100.005
100.003
100.002
100.001
100.001
100
100
100
100
100
100
100
100
100
100
100
100
100
100
100
100
100
100
100
100
100
100
100
100
100
100
100
100
100
387.451
362.492
337.944
314.067
291.099
269.246
248.683
229.545
211.927
195.885
181.435
168.561
157.214
147.32
138.786
131.503
125.355
120.219
115.975
112.505
109.697
107.449
105.669
104.273
103.191
102.36
101.729
101.255
100.902
100.642
100.453
100.316
100.219
100.15
100.102
100.068
100.046
100.03
100.02
100.013
100.008
100.005
100.003
100.002
100.001
100.001
100
100
100
100
100
100
100
100
100
100
100
100
100
100
100
100
100
100
100
100
100
100
100
100
100
100
100
100
100
387.471
362.551
338.04
314.196
291.254
269.422
248.873
229.742
212.125
196.078
181.62
168.733
157.372
147.462
138.911
131.612
125.448
120.297
116.04
112.558
109.74
107.483
105.696
104.294
103.207
102.372
101.738
101.262
100.907
100.646
100.455
100.318
100.22
100.151
100.102
100.069
100.046
100.03
100.02
100.013
100.008
100.005
100.003
100.002
100.001
100.001
100
100
100
100
100
100
100
100
100
100
100
100
100
100
100
100
100
100
100
100
100
100
100
100
100
100
100
100
100
387.486
362.594
338.11
314.289
291.367
269.55
249.011
229.886
212.27
196.22
181.756
168.861
157.488
147.567
139.004
131.693
125.517
120.356
116.088
112.597
109.772
107.509
105.716
104.31
103.219
102.382
101.745
101.267
100.911
100.649
100.457
100.32
100.221
100.152
100.103
100.069
100.046
100.03
100.02
100.013
100.008
100.005
100.003
100.002
100.001
100.001
100
100
100
100
100
100
100
100
100
100
100
100
100
100
100
100
100
100
100
100
100
100
100
100
100
100
100
100
100
387.496
362.625
338.16
314.357
291.449
269.643
249.111
229.99
212.375
196.324
181.855
168.954
157.574
147.644
139.073
131.753
125.568
120.399
116.125
112.627
109.796
107.528
105.731
104.322
103.228
102.389
101.75
101.271
100.914
100.651
100.459
100.321
100.222
100.152
100.103
100.069
100.046
100.03
100.02
100.013
100.008
100.005
100.003
100.002
100.001
100.001
100
100
100
100
100
100
100
100
100
100
100
100
100
100
100
100
100
100
100
100
100
100
100
100
100
100
100
100
100
387.504
362.648
338.196
314.405
291.507
269.709
249.183
230.065
212.451
196.399
181.927
169.022
157.636
147.701
139.123
131.796
125.606
120.431
116.151
112.649
109.814
107.543
105.743
104.331
103.235
102.394
101.754
101.274
100.916
100.652
100.46
100.321
100.222
100.152
100.103
100.07
100.046
100.031
100.02
100.013
100.008
100.005
100.003
100.002
100.001
100.001
100
100
100
100
100
100
100
100
100
100
100
100
100
100
100
100
100
100
100
100
100
100
100
100
100
100
100
100
100
387.509
362.663
338.222
314.439
291.548
269.756
249.235
230.119
212.506
196.452
181.979
169.07
157.681
147.741
139.159
131.828
125.633
120.454
116.171
112.665
109.827
107.553
105.751
104.337
103.24
102.398
101.757
101.276
100.917
100.653
100.461
100.322
100.223
100.153
100.104
100.07
100.046
100.031
100.02
100.013
100.008
100.005
100.003
100.002
100.001
100.001
100
100
100
100
100
100
100
100
100
100
100
100
100
100
100
100
100
100
100
100
100
100
100
100
100
100
100
100
100
387.513
362.674
338.239
314.463
291.578
269.789
249.271
230.157
212.544
196.491
182.016
169.105
157.714
147.771
139.185
131.851
125.653
120.471
116.185
112.677
109.837
107.561
105.757
104.342
103.244
102.401
101.759
101.277
100.919
100.654
100.462
100.322
100.223
100.153
100.104
100.07
100.047
100.031
100.02
100.013
100.008
100.005
100.003
100.002
100.001
100.001
100
100
100
100
100
100
100
100
100
100
100
100
100
100
100
100
100
100
100
100
100
100
100
100
100
100
100
100
100
387.515
362.682
338.252
314.48
291.598
269.813
249.296
230.184
212.571
196.517
182.042
169.13
157.736
147.791
139.204
131.867
125.667
120.483
116.195
112.685
109.843
107.566
105.761
104.346
103.247
102.403
101.761
101.279
100.919
100.655
100.462
100.323
100.223
100.153
100.104
100.07
100.047
100.031
100.02
100.013
100.008
100.005
100.003
100.002
100.001
100.001
100
100
100
100
100
100
100
100
100
100
100
100
100
100
100
100
100
100
100
100
100
100
100
100
100
100
100
100
100
387.517
362.687
338.261
314.491
291.612
269.829
249.314
230.202
212.59
196.536
182.06
169.147
157.752
147.806
139.217
131.879
125.677
120.492
116.202
112.691
109.848
107.57
105.765
104.348
103.249
102.404
101.762
101.279
100.92
100.655
100.462
100.323
100.224
100.153
100.104
100.07
100.047
100.031
100.02
100.013
100.008
100.005
100.003
100.002
100.001
100.001
100
100
100
100
100
100
100
100
100
100
100
100
100
100
100
100
100
100
100
100
100
100
100
100
100
100
100
100
100
387.518
362.691
338.267
314.499
291.622
269.84
249.326
230.215
212.603
196.549
182.072
169.159
157.763
147.816
139.226
131.887
125.684
120.498
116.207
112.695
109.852
107.573
105.767
104.35
103.25
102.405
101.763
101.28
100.92
100.656
100.463
100.323
100.224
100.153
100.104
100.07
100.047
100.031
100.02
100.013
100.008
100.005
100.003
100.002
100.001
100.001
100
100
100
100
100
100
100
100
100
100
100
100
100
100
100
100
100
100
100
100
100
100
100
100
100
100
100
100
100
387.519
362.694
338.271
314.505
291.629
269.848
249.335
230.224
212.612
196.558
182.081
169.167
157.771
147.823
139.232
131.893
125.689
120.502
116.211
112.698
109.854
107.575
105.768
104.351
103.251
102.406
101.764
101.28
100.921
100.656
100.463
100.323
100.224
100.153
100.104
100.07
100.047
100.031
100.02
100.013
100.008
100.005
100.003
100.002
100.001
100.001
100
100
100
100
100
100
100
100
100
100
100
100
100
100
100
100
100
100
100
100
100
100
100
100
100
100
100
100
100
387.52
362.695
338.273
314.508
291.633
269.853
249.34
230.23
212.619
196.564
182.087
169.173
157.776
147.828
139.236
131.896
125.692
120.505
116.213
112.7
109.856
107.576
105.769
104.352
103.251
102.406
101.764
101.281
100.921
100.656
100.463
100.323
100.224
100.153
100.104
100.07
100.047
100.031
100.02
100.013
100.008
100.005
100.003
100.002
100.001
100.001
100
100
100
100
100
100
100
100
100
100
100
100
100
100
100
100
100
100
100
100
100
100
100
100
100
100
100
100
100
387.52
362.696
338.275
314.511
291.636
269.857
249.344
230.234
212.623
196.568
182.091
169.176
157.78
147.831
139.239
131.899
125.695
120.507
116.215
112.702
109.857
107.577
105.77
104.352
103.252
102.407
101.764
101.281
100.921
100.656
100.463
100.323
100.224
100.153
100.104
100.07
100.047
100.031
100.02
100.013
100.008
100.005
100.003
100.002
100.001
100.001
100
100
100
100
100
100
100
100
100
100
100
100
100
100
100
100
100
100
100
100
100
100
100
100
100
100
100
100
100
387.52
362.697
338.277
314.513
291.638
269.859
249.347
230.237
212.625
196.571
182.094
169.179
157.782
147.833
139.241
131.901
125.696
120.508
116.216
112.703
109.858
107.578
105.771
104.353
103.252
102.407
101.764
101.281
100.921
100.656
100.463
100.323
100.224
100.153
100.104
100.07
100.047
100.031
100.02
100.013
100.008
100.005
100.003
100.002
100.001
100.001
100
100
100
100
100
100
100
100
100
100
100
100
100
100
100
100
100
100
100
100
100
100
100
100
100
100
100
100
100
387.521
362.698
338.277
314.514
291.64
269.86
249.348
230.238
212.627
196.573
182.095
169.181
157.784
147.835
139.243
131.902
125.697
120.509
116.217
112.703
109.858
107.578
105.771
104.353
103.252
102.407
101.764
101.281
100.921
100.656
100.463
100.324
100.224
100.153
100.104
100.07
100.047
100.031
100.02
100.013
100.008
100.005
100.003
100.002
100.001
100.001
100
100
100
100
100
100
100
100
100
100
100
100
100
100
100
100
100
100
100
100
100
100
100
100
100
100
100
100
100
387.521
362.698
338.278
314.514
291.641
269.862
249.349
230.239
212.628
196.574
182.097
169.182
157.785
147.836
139.244
131.903
125.698
120.51
116.217
112.704
109.858
107.579
105.771
104.353
103.253
102.407
101.765
101.281
100.921
100.656
100.463
100.324
100.224
100.153
100.104
100.07
100.047
100.031
100.02
100.013
100.008
100.005
100.003
100.002
100.001
100.001
100
100
100
100
100
100
100
100
100
100
100
100
100
100
100
100
100
100
100
100
100
100
100
100
100
100
100
100
100
387.521
362.698
338.278
314.515
291.641
269.862
249.35
230.24
212.629
196.575
182.097
169.182
157.786
147.836
139.244
131.903
125.698
120.51
116.217
112.704
109.859
107.579
105.771
104.353
103.253
102.407
101.765
101.281
100.921
100.656
100.463
100.324
100.224
100.154
100.104
100.07
100.047
100.031
100.02
100.013
100.008
100.005
100.003
100.002
100.001
100.001
100
100
100
100
100
100
100
100
100
100
100
100
100
100
100
100
100
100
100
100
100
100
100
100
100
100
100
100
100
387.521
362.698
338.278
314.515
291.642
269.863
249.351
230.241
212.63
196.575
182.098
169.183
157.786
147.837
139.244
131.903
125.699
120.51
116.218
112.704
109.859
107.579
105.771
104.353
103.253
102.407
101.765
101.281
100.921
100.656
100.463
100.324
100.224
100.154
100.104
100.07
100.047
100.031
100.02
100.013
100.008
100.005
100.003
100.002
100.001
100.001
100
100
100
100
100
100
100
100
100
100
100
100
100
100
100
100
100
100
100
100
100
100
100
100
100
100
100
100
100
387.521
362.698
338.279
314.515
291.642
269.863
249.351
230.241
212.63
196.576
182.098
169.183
157.786
147.837
139.245
131.904
125.699
120.51
116.218
112.704
109.859
107.579
105.771
104.353
103.253
102.407
101.765
101.281
100.921
100.656
100.463
100.324
100.224
100.154
100.104
100.07
100.047
100.031
100.02
100.013
100.008
100.005
100.003
100.002
100.001
100.001
100
100
100
100
100
100
100
100
100
100
100
100
100
100
100
100
100
100
100
100
100
100
100
100
100
100
100
100
100
387.521
362.698
338.279
314.516
291.642
269.863
249.351
230.241
212.63
196.576
182.098
169.183
157.786
147.837
139.245
131.904
125.699
120.51
116.218
112.704
109.859
107.579
105.772
104.354
103.253
102.407
101.765
101.281
100.921
100.656
100.463
100.324
100.224
100.154
100.104
100.07
100.047
100.031
100.02
100.013
100.008
100.005
100.003
100.002
100.001
100.001
100
100
100
100
100
100
100
100
100
100
100
100
100
100
100
100
100
100
100
100
100
100
100
100
100
100
100
100
100
387.521
362.699
338.279
314.516
291.642
269.863
249.351
230.241
212.63
196.576
182.098
169.184
157.787
147.837
139.245
131.904
125.699
120.51
116.218
112.704
109.859
107.579
105.772
104.354
103.253
102.407
101.765
101.281
100.921
100.656
100.463
100.324
100.224
100.154
100.104
100.07
100.047
100.031
100.02
100.013
100.008
100.005
100.003
100.002
100.001
100.001
100
100
100
100
100
100
100
100
100
100
100
100
100
100
100
100
100
100
100
100
100
100
100
100
100
100
100
100
100
387.521
362.699
338.279
314.516
291.642
269.863
249.351
230.241
212.63
196.576
182.099
169.184
157.787
147.837
139.245
131.904
125.699
120.511
116.218
112.704
109.859
107.579
105.772
104.354
103.253
102.407
101.765
101.281
100.921
100.656
100.463
100.324
100.224
100.154
100.104
100.07
100.047
100.031
100.02
100.013
100.008
100.005
100.003
100.002
100.001
100.001
100
100
100
100
100
100
100
100
100
100
100
100
100
100
100
100
100
100
100
100
100
100
100
100
100
100
100
100
100
387.521
362.699
338.279
314.516
291.642
269.863
249.351
230.242
212.631
196.576
182.099
169.184
157.787
147.837
139.245
131.904
125.699
120.511
116.218
112.704
109.859
107.579
105.772
104.354
103.253
102.407
101.765
101.281
100.921
100.656
100.463
100.324
100.224
100.154
100.104
100.07
100.047
100.031
100.02
100.013
100.008
100.005
100.003
100.002
100.001
100.001
100
100
100
100
100
100
100
100
100
100
100
100
100
100
100
100
100
100
100
100
100
100
100
100
100
100
100
100
100
387.521
362.699
338.279
314.516
291.642
269.863
249.351
230.242
212.631
196.576
182.099
169.184
157.787
147.837
139.245
131.904
125.699
120.511
116.218
112.704
109.859
107.579
105.772
104.354
103.253
102.407
101.765
101.281
100.921
100.656
100.463
100.324
100.224
100.154
100.104
100.07
100.047
100.031
100.02
100.013
100.008
100.005
100.003
100.002
100.001
100.001
100
100
100
100
100
100
100
100
100
100
100
100
100
100
100
100
100
100
100
100
100
100
100
100
100
100
100
100
100
387.521
362.699
338.279
314.516
291.642
269.863
249.351
230.242
212.631
196.576
182.099
169.184
157.787
147.837
139.245
131.904
125.699
120.511
116.218
112.704
109.859
107.579
105.772
104.354
103.253
102.407
101.765
101.281
100.921
100.656
100.463
100.324
100.224
100.154
100.104
100.07
100.047
100.031
100.02
100.013
100.008
100.005
100.003
100.002
100.001
100.001
100
100
100
100
100
100
100
100
100
100
100
100
100
100
100
100
100
100
100
100
100
100
100
100
100
100
100
100
100
387.521
362.699
338.279
314.516
291.642
269.863
249.351
230.242
212.631
196.576
182.099
169.184
157.787
147.837
139.245
131.904
125.699
120.511
116.218
112.704
109.859
107.579
105.772
104.354
103.253
102.407
101.765
101.281
100.921
100.656
100.463
100.324
100.224
100.154
100.104
100.07
100.047
100.031
100.02
100.013
100.008
100.005
100.003
100.002
100.001
100.001
100
100
100
100
100
100
100
100
100
100
100
100
100
100
100
100
100
100
100
100
100
100
100
100
100
100
100
100
100
387.521
362.699
338.279
314.516
291.642
269.863
249.351
230.242
212.631
196.576
182.099
169.184
157.787
147.837
139.245
131.904
125.699
120.511
116.218
112.704
109.859
107.579
105.772
104.354
103.253
102.407
101.765
101.281
100.921
100.656
100.463
100.324
100.224
100.154
100.104
100.07
100.047
100.031
100.02
100.013
100.008
100.005
100.003
100.002
100.001
100.001
100
100
100
100
100
100
100
100
100
100
100
100
100
100
100
100
100
100
100
100
100
100
100
100
100
100
100
100
100
387.521
362.699
338.279
314.516
291.642
269.863
249.351
230.242
212.631
196.576
182.099
169.184
157.787
147.837
139.245
131.904
125.699
120.511
116.218
112.704
109.859
107.579
105.772
104.354
103.253
102.407
101.765
101.281
100.921
100.656
100.463
100.324
100.224
100.154
100.104
100.07
100.047
100.031
100.02
100.013
100.008
100.005
100.003
100.002
100.001
100.001
100
100
100
100
100
100
100
100
100
100
100
100
100
100
100
100
100
100
100
100
100
100
100
100
100
100
100
100
100
387.521
362.699
338.279
314.516
291.642
269.863
249.351
230.242
212.631
196.576
182.099
169.184
157.787
147.837
139.245
131.904
125.699
120.511
116.218
112.704
109.859
107.579
105.772
104.354
103.253
102.407
101.765
101.281
100.921
100.656
100.463
100.324
100.224
100.154
100.104
100.07
100.047
100.031
100.02
100.013
100.008
100.005
100.003
100.002
100.001
100.001
100
100
100
100
100
100
100
100
100
100
100
100
100
100
100
100
100
100
100
100
100
100
100
100
100
100
100
100
100
387.521
362.699
338.279
314.516
291.642
269.863
249.351
230.242
212.631
196.576
182.099
169.184
157.787
147.837
139.245
131.904
125.699
120.511
116.218
112.704
109.859
107.579
105.772
104.354
103.253
102.407
101.765
101.281
100.921
100.656
100.463
100.324
100.224
100.154
100.104
100.07
100.047
100.031
100.02
100.013
100.008
100.005
100.003
100.002
100.001
100.001
100
100
100
100
100
100
100
100
100
100
100
100
100
100
100
100
100
100
100
100
100
100
100
100
100
100
100
100
100
387.521
362.699
338.279
314.516
291.642
269.863
249.351
230.242
212.631
196.576
182.099
169.184
157.787
147.837
139.245
131.904
125.699
120.511
116.218
112.704
109.859
107.579
105.772
104.354
103.253
102.407
101.765
101.281
100.921
100.656
100.463
100.324
100.224
100.154
100.104
100.07
100.047
100.031
100.02
100.013
100.008
100.005
100.003
100.002
100.001
100.001
100
100
100
100
100
100
100
100
100
100
100
100
100
100
100
100
100
100
100
100
100
100
100
100
100
100
100
100
100
387.521
362.699
338.279
314.516
291.642
269.863
249.351
230.242
212.631
196.576
182.099
169.184
157.787
147.837
139.245
131.904
125.699
120.511
116.218
112.704
109.859
107.579
105.772
104.354
103.253
102.407
101.765
101.281
100.921
100.656
100.463
100.324
100.224
100.154
100.104
100.07
100.047
100.031
100.02
100.013
100.008
100.005
100.003
100.002
100.001
100.001
100
100
100
100
100
100
100
100
100
100
100
100
100
100
100
100
100
100
100
100
100
100
100
100
100
100
100
100
100
387.521
362.699
338.279
314.516
291.642
269.863
249.351
230.242
212.631
196.576
182.099
169.184
157.787
147.837
139.245
131.904
125.699
120.511
116.218
112.704
109.859
107.579
105.772
104.354
103.253
102.407
101.765
101.281
100.921
100.656
100.463
100.324
100.224
100.154
100.104
100.07
100.047
100.031
100.02
100.013
100.008
100.005
100.003
100.002
100.001
100.001
100
100
100
100
100
100
100
100
100
100
100
100
100
100
100
100
100
100
100
100
100
100
100
100
100
100
100
100
100
387.521
362.699
338.279
314.516
291.642
269.863
249.351
230.242
212.631
196.576
182.099
169.184
157.787
147.837
139.245
131.904
125.699
120.511
116.218
112.704
109.859
107.579
105.772
104.354
103.253
102.407
101.765
101.281
100.921
100.656
100.463
100.324
100.224
100.154
100.104
100.07
100.047
100.031
100.02
100.013
100.008
100.005
100.003
100.002
100.001
100.001
100
100
100
100
100
100
100
100
100
100
100
100
100
100
100
100
100
100
100
100
100
100
100
100
100
100
100
100
100
387.521
362.699
338.279
314.516
291.642
269.863
249.351
230.242
212.631
196.576
182.099
169.184
157.787
147.837
139.245
131.904
125.699
120.511
116.218
112.704
109.859
107.579
105.772
104.354
103.253
102.407
101.765
101.281
100.921
100.656
100.463
100.324
100.224
100.154
100.104
100.07
100.047
100.031
100.02
100.013
100.008
100.005
100.003
100.002
100.001
100.001
100
100
100
100
100
100
100
100
100
100
100
100
100
100
100
100
100
100
100
100
100
100
100
100
100
100
100
100
100
387.521
362.699
338.279
314.516
291.642
269.863
249.351
230.242
212.631
196.576
182.099
169.184
157.787
147.837
139.245
131.904
125.699
120.511
116.218
112.704
109.859
107.579
105.772
104.354
103.253
102.407
101.765
101.281
100.921
100.656
100.463
100.324
100.224
100.154
100.104
100.07
100.047
100.031
100.02
100.013
100.008
100.005
100.003
100.002
100.001
100.001
100
100
100
100
100
100
100
100
100
100
100
100
100
100
100
100
100
100
100
100
100
100
100
100
100
100
100
100
100
387.521
362.699
338.279
314.516
291.642
269.863
249.351
230.242
212.631
196.576
182.099
169.184
157.787
147.837
139.245
131.904
125.699
120.511
116.218
112.704
109.859
107.579
105.772
104.354
103.253
102.407
101.765
101.281
100.921
100.656
100.463
100.324
100.224
100.154
100.104
100.07
100.047
100.031
100.02
100.013
100.008
100.005
100.003
100.002
100.001
100.001
100
100
100
100
100
100
100
100
100
100
100
100
100
100
100
100
100
100
100
100
100
100
100
100
100
100
100
100
100
387.521
362.699
338.279
314.516
291.642
269.863
249.351
230.242
212.631
196.576
182.099
169.184
157.787
147.837
139.245
131.904
125.699
120.511
116.218
112.704
109.859
107.579
105.772
104.354
103.253
102.407
101.765
101.281
100.921
100.656
100.463
100.324
100.224
100.154
100.104
100.07
100.047
100.031
100.02
100.013
100.008
100.005
100.003
100.002
100.001
100.001
100
100
100
100
100
100
100
100
100
100
100
100
100
100
100
100
100
100
100
100
100
100
100
100
100
100
100
100
100
387.521
362.699
338.279
314.516
291.642
269.863
249.351
230.242
212.631
196.576
182.099
169.184
157.787
147.837
139.245
131.904
125.699
120.511
116.218
112.704
109.859
107.579
105.772
104.354
103.253
102.407
101.765
101.281
100.921
100.656
100.463
100.324
100.224
100.154
100.104
100.07
100.047
100.031
100.02
100.013
100.008
100.005
100.003
100.002
100.001
100.001
100
100
100
100
100
100
100
100
100
100
100
100
100
100
100
100
100
100
100
100
100
100
100
100
100
100
100
100
100
387.521
362.699
338.279
314.516
291.642
269.863
249.351
230.242
212.631
196.576
182.099
169.184
157.787
147.837
139.245
131.904
125.699
120.511
116.218
112.704
109.859
107.579
105.772
104.354
103.253
102.407
101.765
101.281
100.921
100.656
100.463
100.324
100.224
100.154
100.104
100.07
100.047
100.031
100.02
100.013
100.008
100.005
100.003
100.002
100.001
100.001
100
100
100
100
100
100
100
100
100
100
100
100
100
100
100
100
100
100
100
100
100
100
100
100
100
100
100
100
100
387.521
362.699
338.279
314.516
291.642
269.863
249.351
230.242
212.631
196.576
182.099
169.184
157.787
147.837
139.245
131.904
125.699
120.511
116.218
112.704
109.859
107.579
105.772
104.354
103.253
102.407
101.765
101.281
100.921
100.656
100.463
100.324
100.224
100.154
100.104
100.07
100.047
100.031
100.02
100.013
100.008
100.005
100.003
100.002
100.001
100.001
100
100
100
100
100
100
100
100
100
100
100
100
100
100
100
100
100
100
100
100
100
100
100
100
100
100
100
100
100
387.521
362.699
338.279
314.516
291.642
269.863
249.351
230.242
212.631
196.576
182.099
169.184
157.787
147.837
139.245