/*--------------------------------*- C++ -*----------------------------------*\
  =========                 |
  \\      /  F ield         | OpenFOAM: The Open Source CFD Toolbox
   \\    /   O peration     | Website:  https://openfoam.org
    \\  /    A nd           | Version:  10
     \\/     M anipulation  |
\*---------------------------------------------------------------------------*/
FoamFile
{
    format      ascii;
    class       volScalarField;
    location    "21";
    object      gradTx;
}
// * * * * * * * * * * * * * * * * * * * * * * * * * * * * * * * * * * * * * //

dimensions      [0 -1 0 1 0 0 0];

internalField   nonuniform List<scalar> 
11250
(
13938.6
7083.01
3794.86
2029.74
1048.88
514.624
237.726
103.037
41.8745
15.9691
5.72315
1.93079
0.614037
0.184252
0.0521843
0.0139488
0.00351789
0.000836942
0.000187849
3.97943e-05
7.96325e-06
1.50703e-06
2.70093e-07
4.59155e-08
7.42538e-09
1.13603e-09
1.53666e-10
2.52452e-11
1.09762e-12
2.19524e-12
-1.4269e-11
1.09762e-12
-3.29285e-12
-2.19524e-12
-9.87856e-12
-4.39047e-12
0
-2.19524e-12
1.09762e-12
-4.39047e-12
-9.87856e-12
6.58571e-12
1.09762e-12
-5.48809e-12
-5.48809e-12
1.09762e-12
0
-4.39047e-12
2.19524e-12
0
1.09762e-12
0
1.4269e-11
0
1.09762e-12
0
1.09762e-12
-2.19524e-12
0
2.19524e-12
0
1.09762e-12
0
-2.19524e-11
9.87856e-12
-1.09762e-12
-1.09762e-12
0
1.09762e-12
0
-5.48809e-12
0
-7.68332e-12
0
-9.87856e-12
3754.57
3737.81
2565.83
1538.04
842.831
427.43
201.46
88.4684
36.2781
13.9248
5.01486
1.69832
0.541807
0.163016
0.0462799
0.0123976
0.00313306
0.000746823
0.000167929
3.56362e-05
7.14299e-06
1.35395e-06
2.43039e-07
4.13494e-08
6.65925e-09
1.02078e-09
1.28421e-10
7.68332e-12
-1.09762e-12
-2.19523e-12
-6.5857e-12
6.5857e-12
3.29285e-12
0
1.09762e-12
0
-8.78094e-12
1.09762e-12
-1.09762e-12
0
0
-4.39047e-12
-1.09762e-12
-1.09762e-12
0
0
-1.09762e-12
0
-2.19523e-12
0
-1.75619e-11
0
-1.4269e-11
8.78094e-12
-1.31714e-11
-6.5857e-12
-1.4269e-11
0
-4.39047e-12
0
0
-1.09762e-12
0
2.41476e-11
5.48809e-12
0
-1.09762e-12
1.09762e-12
-1.09762e-12
0
-8.78094e-12
0
8.78094e-12
2.19523e-12
0
1171.07
1747.07
1456.18
976.017
572.652
303.389
147.231
65.9786
27.4542
10.6536
3.86938
1.31937
0.423345
0.128025
0.0365172
0.00982597
0.00249382
0.000596909
0.000134754
2.87055e-05
5.77477e-06
1.0984e-06
1.97816e-07
3.37737e-08
5.47162e-09
8.34189e-10
1.26226e-10
5.48809e-12
2.19523e-12
3.29285e-12
1.4269e-11
0
-3.29285e-12
1.09762e-12
1.75619e-11
3.29285e-12
0
-1.09762e-12
-2.19524e-12
2.19524e-12
9.87856e-12
-2.19524e-12
0
7.68332e-12
5.48809e-12
7.68332e-12
1.09762e-12
5.48809e-12
0
0
1.09762e-12
-1.09762e-12
4.39047e-12
8.78094e-12
0
-2.19523e-12
0
4.39047e-12
0
-2.19524e-12
0
0
0
-1.4269e-11
-1.09762e-11
2.19524e-12
3.29285e-12
2.19523e-12
0
0
3.29285e-12
8.78094e-12
0
-1.09762e-12
8.78094e-12
413.785
783.6
747.97
548.371
342.065
189.158
94.6582
43.3873
18.3637
7.22074
2.6505
0.911822
0.294881
0.089832
0.0258071
0.00699376
0.00178772
0.00043095
9.79699e-05
2.10115e-05
4.2545e-06
8.14258e-07
1.47516e-07
2.53517e-08
4.13582e-09
6.34423e-10
9.7688e-11
1.09762e-11
0
0
6.58571e-12
-7.68332e-12
-1.09762e-12
1.09762e-12
0
1.09762e-12
8.78094e-12
0
1.09762e-12
0
0
0
1.09762e-12
0
0
0
0
1.09762e-12
0
0
1.53666e-11
0
1.09762e-12
-8.78094e-12
1.31714e-11
5.48809e-12
1.4269e-11
-4.39047e-12
5.48809e-12
6.58571e-12
0
-2.19523e-12
0
-1.09762e-12
-4.39047e-12
3.29285e-12
0
1.09762e-12
0
2.19524e-12
5.48809e-12
0
-1.09762e-12
-1.09762e-12
-5.48809e-12
157.788
341.806
357.55
280.551
184.068
105.71
54.4379
25.5089
10.9853
4.38007
1.62654
0.565284
0.184562
0.0567606
0.016467
0.0045086
0.00116478
0.000283829
6.52199e-05
1.41345e-05
2.8908e-06
5.58514e-07
1.02086e-07
1.76947e-08
2.91527e-09
4.52218e-10
7.24428e-11
7.68332e-12
-2.19523e-12
-2.19523e-12
0
7.68332e-12
4.39047e-12
-1.09762e-12
-7.68332e-12
0
0
-1.97571e-11
2.19523e-12
2.19523e-12
5.48809e-12
-1.09762e-12
8.78094e-12
0
-2.19523e-12
-1.09762e-11
-4.39047e-12
-2.19523e-12
1.09762e-12
3.29285e-12
8.78094e-12
1.09762e-12
-5.48809e-12
-9.87856e-12
0
5.48809e-12
1.09762e-12
-8.78094e-12
-5.48809e-12
0
0
0
0
1.86595e-11
0
-1.09762e-12
-1.09762e-12
-3.29285e-12
0
-1.09762e-12
-9.87856e-12
-1.20738e-11
-7.68332e-12
-1.09762e-12
-1.09762e-12
61.873
144.441
160.675
132.595
90.5726
53.7039
28.3662
13.5648
5.93883
2.40067
0.902152
0.316983
0.104623
0.0325459
0.00955957
0.00265248
0.00069493
0.000171776
4.00348e-05
8.796e-06
1.82248e-06
3.56411e-07
6.5868e-08
1.15162e-08
1.90876e-09
3.0404e-10
4.50023e-11
-2.19524e-12
1.09762e-12
-1.53666e-11
1.09762e-12
-1.09762e-12
1.09762e-12
2.19524e-12
0
0
0
0
1.09762e-11
1.20738e-11
0
0
-9.87856e-12
-1.09762e-12
1.09762e-12
1.09762e-12
0
1.09762e-12
-2.19524e-12
-2.19523e-12
-6.58571e-12
-1.09762e-12
0
-3.29285e-12
-1.09762e-12
0
-1.09762e-12
2.19524e-12
1.09762e-12
-6.58571e-12
1.09762e-12
2.19523e-12
1.09762e-12
0
-1.09762e-12
-4.39047e-12
0
0
0
-2.19524e-12
4.39047e-12
1.09762e-12
-4.39047e-12
0
0
24.1036
58.7201
68.105
58.3476
41.1449
25.0507
13.5243
6.58571
2.92752
1.19897
0.455875
0.161991
0.0540926
0.0170422
0.00507654
0.00143022
0.000380748
9.56486e-05
2.26475e-05
5.05135e-06
1.06143e-06
2.10278e-07
3.93276e-08
6.9545e-09
1.15799e-09
1.89888e-10
1.64643e-11
5.48809e-12
1.09762e-12
0
-1.09762e-12
-1.64643e-11
-2.19524e-12
1.09762e-12
-5.48809e-12
0
-1.09762e-12
2.19524e-11
0
0
-9.87856e-12
2.19524e-12
-8.78094e-12
-9.87856e-12
-4.39047e-12
2.19524e-12
5.48809e-12
1.09762e-12
-1.09762e-12
-4.39047e-12
-9.87856e-12
0
0
-1.09762e-12
0
-9.87856e-12
-1.09762e-12
-7.68332e-12
4.39047e-12
-4.39047e-12
0
-2.19523e-12
1.09762e-12
-5.48809e-12
2.19523e-12
2.19524e-12
0
0
-1.20738e-11
1.09762e-12
1.31714e-11
2.19524e-12
0
-7.68332e-12
0
9.13601
22.8313
27.2591
24.0184
17.3687
10.8082
5.94518
2.94168
1.32583
0.549653
0.21135
0.0759337
0.0256522
0.00818566
0.00247294
0.000707341
0.000191281
4.88075e-05
1.17314e-05
2.65372e-06
5.64917e-07
1.13254e-07
2.14101e-08
3.8241e-09
6.50887e-10
8.67118e-11
1.64643e-11
1.09762e-11
-1.09762e-12
1.09762e-11
1.09762e-12
2.19523e-12
2.19523e-12
0
-1.09762e-12
0
-8.78094e-12
-9.87856e-12
-1.20738e-11
-1.20738e-11
-1.09762e-12
0
9.87856e-12
0
-5.48809e-12
-9.87856e-12
0
-1.09762e-12
1.09762e-12
-3.29285e-12
5.48809e-12
0
0
4.39047e-12
1.09762e-12
4.39047e-12
2.305e-11
3.29285e-12
-3.29285e-12
0
0
0
-3.29285e-12
0
0
0
7.68332e-12
-1.09762e-12
0
1.09762e-12
-1.09762e-12
0
6.5857e-12
0
4.39047e-12
3.33014
8.45755
10.3089
9.2795
6.84659
4.3383
2.42483
1.21682
0.555293
0.232796
0.0904476
0.0328279
0.0112076
0.00361725
0.00110631
0.000320572
8.78419e-05
2.27061e-05
5.52536e-06
1.26435e-06
2.72037e-07
5.50839e-08
1.04998e-08
1.889e-09
3.20504e-10
4.06118e-11
5.48809e-12
1.20738e-11
7.68332e-12
1.09762e-12
1.09762e-12
6.5857e-12
0
0
5.48809e-12
-1.09762e-12
0
-2.19524e-12
-1.09762e-12
-5.48809e-12
5.48809e-12
-1.09762e-12
-3.29285e-12
9.87856e-12
0
0
-3.29285e-12
0
0
-1.20738e-11
-2.19524e-12
0
-1.09762e-12
-3.29285e-12
0
8.78094e-12
1.4269e-11
1.4269e-11
-4.39047e-12
4.39047e-12
-1.09762e-12
2.19523e-12
8.78094e-12
0
-1.09762e-12
0
1.4269e-11
2.19523e-12
1.31714e-11
-1.09762e-12
2.19523e-12
5.48809e-12
6.58571e-12
8.78094e-12
2.19524e-12
1.16019
2.97864
3.68648
3.37411
2.53054
1.62817
0.922819
0.468933
0.216414
0.0916466
0.0359349
0.0131553
0.00452941
0.00147456
0.000455055
0.000133087
3.68096e-05
9.60209e-06
2.3571e-06
5.43841e-07
1.1793e-07
2.40587e-08
4.61109e-09
8.31994e-10
1.383e-10
3.07333e-11
7.68332e-12
1.4269e-11
-2.19523e-12
3.29285e-12
-1.4269e-11
-1.20738e-11
-2.08547e-11
-2.08547e-11
0
-1.09762e-12
7.68332e-12
8.78094e-12
0
-6.58571e-12
-5.48809e-12
-2.19524e-12
1.09762e-12
0
5.48809e-12
8.78094e-12
-1.09762e-12
-4.39047e-12
1.09762e-12
4.39047e-12
-2.19524e-12
-1.09762e-12
0
0
0
-5.48809e-12
-1.97571e-11
-1.09762e-12
2.19523e-12
-1.09762e-12
-1.09762e-12
0
1.09762e-12
-1.09762e-12
-1.09762e-12
-1.09762e-12
-6.58571e-12
0
-1.09762e-12
0
1.09762e-12
0
-6.58571e-12
0
1.09762e-12
0.385154
0.996521
1.24789
1.15766
0.880348
0.57411
0.32955
0.169416
0.078998
0.033755
0.0133365
0.00491368
0.0017011
0.000556523
0.000172549
5.07002e-05
1.40896e-05
3.69328e-06
9.11044e-07
2.11238e-07
4.60176e-08
9.42195e-09
1.82314e-09
3.13919e-10
5.1588e-11
3.95142e-11
1.75619e-11
-5.48809e-12
-4.39047e-12
-1.09762e-12
-1.09762e-12
3.29285e-12
0
-2.19523e-12
1.75619e-11
2.19523e-12
2.19523e-12
-1.20738e-11
-6.5857e-12
5.48809e-12
1.75619e-11
0
3.29285e-12
1.09762e-12
6.5857e-12
0
3.29285e-12
-5.48809e-12
-1.09762e-12
1.20738e-11
2.19523e-12
0
2.19523e-12
4.39047e-12
2.19523e-12
1.09762e-12
-1.4269e-11
0
4.39047e-12
-1.09762e-12
3.29285e-12
1.4269e-11
-8.78094e-12
0
0
-9.87856e-12
-3.7319e-11
-1.09762e-12
0
0
-3.29285e-12
-5.48809e-12
0
-2.19523e-12
-3.29285e-12
0.121669
0.316671
0.40037
0.375762
0.28936
0.191134
0.111087
0.0577657
0.0272042
0.0117172
0.00465654
0.00172206
0.000597294
0.000195507
6.06021e-05
1.77997e-05
4.94605e-06
1.29707e-06
3.20299e-07
7.43844e-08
1.62447e-08
3.33237e-09
6.51985e-10
1.32812e-10
4.50023e-11
2.85381e-11
1.31714e-11
-6.58571e-12
2.19523e-12
3.29285e-12
1.31714e-11
9.87856e-12
2.08547e-11
1.97571e-11
2.19523e-12
0
-2.19524e-12
1.09762e-12
0
6.58571e-12
7.68332e-12
2.19524e-12
4.39047e-12
7.68332e-12
0
1.09762e-12
0
1.20738e-11
1.09762e-12
2.19523e-12
4.39047e-12
4.39047e-12
0
1.09762e-12
-1.09762e-12
-1.09762e-12
-3.29285e-12
0
-1.09762e-12
2.19524e-12
0
-1.09762e-12
5.48809e-12
0
-1.09762e-11
-5.48809e-12
-2.19524e-12
-1.09762e-12
0
1.09762e-12
0
0
4.39047e-12
0
1.09762e-12
0.0365487
0.0955999
0.121897
0.115656
0.0901738
0.0603586
0.0355481
0.0187114
0.00890128
0.00386187
0.00154106
0.000570432
0.00019747
6.43703e-05
1.98463e-05
5.79643e-06
1.60253e-06
4.18554e-07
1.03078e-07
2.38853e-08
5.21259e-09
1.08225e-09
2.19523e-10
7.68332e-11
4.39047e-11
1.53666e-11
1.53666e-11
5.48809e-12
1.09762e-12
0
0
-3.29285e-12
0
2.19524e-12
-2.305e-11
0
1.09762e-11
1.64643e-11
9.87856e-12
0
-2.305e-11
0
-1.09762e-12
-3.29285e-12
-1.09762e-12
0
-1.09762e-12
4.39047e-12
0
1.09762e-12
0
1.09762e-12
0
0
-1.09762e-12
0
1.09762e-12
-8.78094e-12
-7.68332e-12
-3.29285e-12
-1.09762e-12
-1.4269e-11
1.09762e-12
-1.20738e-11
-1.09762e-12
1.09762e-11
2.305e-11
-2.19523e-12
0
0
-1.09762e-12
-4.39047e-12
-8.78094e-12
1.09762e-12
6.58571e-12
0.0104347
0.0274186
0.0352479
0.0338137
0.0267139
0.0181447
0.0108462
0.00578679
0.00278252
0.0012156
0.000486386
0.000179757
6.18929e-05
2.0007e-05
6.10593e-06
1.76445e-06
4.82974e-07
1.25064e-07
3.05643e-08
7.01487e-09
1.51471e-09
2.9965e-10
7.13451e-11
3.07333e-11
4.39047e-12
3.29285e-12
8.78094e-12
5.48809e-12
0
-4.39047e-12
-1.09762e-12
1.09762e-12
-1.09762e-12
-3.29285e-12
-4.39047e-12
0
2.19523e-12
0
0
0
-2.19523e-12
-1.09762e-11
-6.5857e-12
-7.68332e-12
-5.48809e-12
-6.5857e-12
-1.09762e-12
-6.5857e-12
0
-1.09762e-12
0
-2.19523e-12
-1.09762e-12
1.09762e-12
0
0
4.39047e-12
0
1.09762e-12
0
-1.09762e-12
-1.09762e-12
-6.5857e-12
0
1.20738e-11
8.78094e-12
2.19523e-12
0
-1.09762e-12
-2.19523e-12
-6.5857e-12
4.39047e-12
0
0
0
0.0028295
0.00746847
0.00968212
0.00939801
0.00753323
0.00520134
0.00316153
0.00171222
0.000832808
0.000366339
0.000146844
5.40948e-05
1.84801e-05
5.90495e-06
1.77701e-06
5.05893e-07
1.36488e-07
3.49009e-08
8.42092e-09
1.8901e-09
3.7319e-10
5.81737e-11
2.19523e-12
-6.58571e-12
-2.305e-11
-1.53666e-11
-1.4269e-11
-9.87856e-12
-3.29285e-12
-4.39047e-12
0
2.19523e-12
0
0
5.48809e-12
0
-1.97571e-11
3.29285e-12
-9.87856e-12
0
5.48809e-12
1.09762e-12
-1.31714e-11
2.19523e-12
0
-5.48809e-12
4.39047e-12
0
-5.48809e-12
-1.09762e-12
0
-3.29285e-12
-8.78094e-12
0
-1.4269e-11
-1.09762e-12
0
7.68332e-12
8.78094e-12
6.58571e-12
1.09762e-12
-4.39047e-12
0
1.31714e-11
9.87856e-12
0
-1.09762e-12
2.19523e-12
-4.39047e-12
0
-7.68332e-12
3.29285e-12
8.78094e-12
9.87856e-12
-3.29285e-12
0.000728077
0.00193075
0.0025254
0.00248263
0.00202185
0.00142131
0.000879727
0.000484125
0.000238314
0.000105559
4.23761e-05
1.55502e-05
5.26528e-06
1.66038e-06
4.91605e-07
1.37463e-07
3.6453e-08
9.1662e-09
2.19633e-09
4.78561e-10
9.21999e-11
1.75619e-11
-1.09762e-11
2.19524e-12
7.68332e-12
-1.4269e-11
-1.4269e-11
-6.58571e-12
1.09762e-12
0
1.09762e-12
0
0
-9.87856e-12
0
-1.09762e-12
0
4.39047e-12
0
-1.09762e-12
0
9.87856e-12
1.09762e-12
0
5.48809e-12
5.48809e-12
1.09762e-12
2.19524e-12
-1.09762e-12
0
1.09762e-12
-1.09762e-12
0
-2.19524e-12
0
-4.39047e-12
-4.39047e-12
0
8.78094e-12
-1.09762e-12
0
1.09762e-12
0
-2.19524e-12
5.48809e-12
-4.39047e-12
-1.09762e-12
-1.09762e-12
0
1.09762e-12
-4.39047e-12
-7.68332e-12
-2.19524e-12
2.19523e-12
5.48809e-12
0.000177618
0.000473327
0.000624967
0.000622748
0.000515793
0.000369511
0.000233044
0.000130349
6.49416e-05
2.8966e-05
1.16472e-05
4.25868e-06
1.42964e-06
4.44968e-07
1.29573e-07
3.55628e-08
9.26938e-09
2.29841e-09
5.58687e-10
1.24031e-10
3.51238e-11
6.5857e-12
1.09762e-12
1.4269e-11
6.5857e-12
-3.29285e-12
5.48809e-12
6.5857e-12
-6.5857e-12
6.5857e-12
0
-1.09762e-12
-2.19523e-12
-1.09762e-12
5.48809e-12
1.09762e-12
3.29285e-12
-4.39047e-12
8.78094e-12
-4.39047e-12
1.09762e-12
-1.09762e-11
1.4269e-11
5.48809e-12
-1.53666e-11
6.5857e-12
-5.48809e-12
0
7.68332e-12
0
-1.09762e-12
4.39047e-12
8.78094e-12
0
1.4269e-11
2.19523e-12
1.09762e-12
3.29285e-12
0
-2.19523e-12
-2.19523e-12
5.48809e-12
1.09762e-12
0
-9.87856e-12
-1.09762e-12
0
-3.29285e-12
4.39047e-12
-1.09762e-12
-3.29285e-12
5.48809e-12
-3.29285e-12
-9.87856e-12
-1.09762e-12
4.10488e-05
0.000109949
0.000146605
0.000148148
0.000124845
9.11575e-05
5.85662e-05
3.32786e-05
1.67731e-05
7.53271e-06
3.03499e-06
1.10667e-06
3.6879e-07
1.13445e-07
3.25202e-08
8.79082e-09
2.25121e-09
5.70761e-10
1.51471e-10
5.59785e-11
4.39047e-12
-1.31714e-11
8.78094e-12
1.09762e-12
-1.64643e-11
-5.48809e-12
2.19524e-12
-7.68332e-12
0
8.78094e-12
0
0
0
9.87856e-12
2.19523e-12
0
-1.09762e-12
-5.48809e-12
-1.09762e-12
1.09762e-12
0
1.09762e-12
0
0
-1.53666e-11
-2.19524e-12
0
-3.29285e-12
1.09762e-12
0
0
0
0
-1.09762e-12
-2.19524e-12
5.48809e-12
-1.09762e-12
-2.19524e-12
-9.87856e-12
0
0
-4.39047e-12
0
2.19524e-12
-4.39047e-12
1.09762e-12
8.78094e-12
4.39047e-12
0
0
9.87856e-12
1.20738e-11
5.48809e-12
-5.48809e-12
-4.39047e-12
8.98332e-06
2.41876e-05
3.25756e-05
3.33871e-05
2.86216e-05
2.12879e-05
1.39193e-05
8.02668e-06
4.08968e-06
1.84881e-06
7.46715e-07
2.71814e-07
9.00518e-08
2.74273e-08
7.74698e-09
2.06242e-09
5.03806e-10
1.32812e-10
4.71976e-11
4.39047e-11
1.20738e-11
-7.68332e-12
1.09762e-12
-1.97571e-11
0
-4.39047e-12
-1.31714e-11
-3.29285e-12
4.39047e-12
0
0
1.09762e-12
1.09762e-12
1.09762e-12
-5.48809e-12
0
5.48809e-12
-1.09762e-12
0
5.48809e-12
-1.09762e-12
1.53666e-11
-1.09762e-12
-5.48809e-12
1.4269e-11
1.09762e-12
1.31714e-11
0
6.58571e-12
1.09762e-12
0
0
0
0
1.09762e-12
-2.19523e-12
-1.09762e-12
-1.09762e-12
-1.09762e-12
2.19524e-12
-1.09762e-12
-8.78094e-12
-1.09762e-12
0
-8.78094e-12
-9.87856e-12
0
2.19523e-12
4.39047e-12
1.09762e-12
1.31714e-11
-4.39047e-12
3.29285e-12
-1.09762e-12
-1.09762e-12
1.86153e-06
5.0385e-06
6.85363e-06
7.12251e-06
6.20732e-06
4.69768e-06
3.12174e-06
1.82448e-06
9.38862e-07
4.27116e-07
1.7299e-07
6.29286e-08
2.07494e-08
6.28496e-09
1.75509e-09
4.52218e-10
1.06469e-10
2.52452e-11
0
-4.39047e-12
-9.87856e-12
0
-5.48809e-12
-2.96357e-11
6.5857e-12
7.68332e-12
-6.5857e-12
4.39047e-12
0
-9.87856e-12
0
0
0
-1.09762e-12
0
0
1.09762e-12
-8.78094e-12
1.09762e-12
0
-1.09762e-12
6.5857e-12
-1.09762e-12
0
1.53666e-11
-8.78094e-12
1.09762e-12
1.09762e-12
-2.19523e-12
-8.78094e-12
0
-1.09762e-12
0
1.09762e-12
3.29285e-12
3.29285e-12
1.86595e-11
0
2.19523e-12
0
0
-6.5857e-12
-1.09762e-12
3.29285e-12
0
-1.09762e-12
-7.68332e-12
0
0
1.09762e-12
-4.39047e-12
-8.78094e-12
0
0
-5.48809e-12
3.65353e-07
9.93923e-07
1.36517e-06
1.43778e-06
1.27264e-06
9.78661e-07
6.59929e-07
3.90349e-07
2.02703e-07
9.2775e-08
3.76966e-08
1.37169e-08
4.51999e-09
1.37641e-09
3.80873e-10
7.79308e-11
1.86595e-11
-9.87856e-12
-2.52452e-11
-2.19523e-11
1.09762e-11
2.96357e-11
1.20738e-11
-1.09762e-11
-1.20738e-11
2.19523e-12
-2.19524e-12
-1.09762e-12
-1.09762e-12
0
0
-1.09762e-12
-4.39047e-12
1.09762e-12
0
0
-5.48809e-12
-6.58571e-12
0
0
1.09762e-12
1.09762e-12
1.09762e-12
0
-5.48809e-12
-1.09762e-12
-1.09762e-11
-4.39047e-12
-4.39047e-12
0
0
2.19524e-12
-1.09762e-12
2.19524e-12
-1.09762e-12
-1.09762e-12
9.87856e-12
0
0
-2.19524e-12
3.29285e-12
8.78094e-12
0
-1.86595e-11
8.78094e-12
1.09762e-11
0
1.09762e-12
-4.39047e-12
0
-1.20738e-11
0
0
-3.29285e-12
2.19524e-12
6.82323e-08
1.86266e-07
2.5816e-07
2.75372e-07
2.4726e-07
1.92896e-07
1.31782e-07
7.88056e-08
4.12627e-08
1.8991e-08
7.74808e-09
2.83624e-09
9.3078e-10
2.75502e-10
6.91499e-11
-1.20738e-11
-3.07333e-11
-3.7319e-11
-3.40261e-11
-5.48809e-12
1.20738e-11
1.97571e-11
5.48809e-12
2.08547e-11
-1.86595e-11
1.09762e-12
3.29285e-12
3.29285e-12
-3.29285e-12
0
-1.09762e-12
1.09762e-12
2.19524e-12
1.09762e-12
1.09762e-12
0
1.09762e-12
9.87856e-12
1.09762e-12
-1.09762e-12
1.09762e-12
-7.68332e-12
2.19524e-12
-2.19523e-12
0
9.87856e-12
-1.09762e-12
0
0
7.68332e-12
0
1.09762e-12
0
1.09762e-12
-1.09762e-12
-2.19523e-12
-1.86595e-11
-7.68332e-12
-1.09762e-12
0
-1.09762e-12
1.09762e-11
1.09762e-12
-2.19524e-12
-1.09762e-12
-4.39047e-12
9.87856e-12
-1.09762e-12
2.19524e-12
-2.19524e-12
3.29285e-12
0
-2.19524e-12
3.29285e-12
-8.78094e-12
1.20167e-08
3.29944e-08
4.61416e-08
4.98121e-08
4.52679e-08
3.57834e-08
2.47381e-08
1.49474e-08
7.8765e-09
3.66714e-09
1.49056e-09
5.56492e-10
1.69033e-10
3.18309e-11
3.18309e-11
4.39047e-12
-4.39047e-12
-2.41476e-11
-2.08547e-11
5.48809e-12
-1.4269e-11
-5.48809e-12
8.78094e-12
2.85381e-11
1.75619e-11
-3.29285e-12
1.20738e-11
-2.19523e-12
0
1.09762e-12
1.09762e-12
0
6.5857e-12
0
7.68332e-12
0
5.48809e-12
5.48809e-12
0
0
-1.09762e-12
-6.5857e-12
1.09762e-12
0
4.39047e-12
0
2.19523e-12
0
-1.09762e-12
2.19523e-12
1.09762e-12
-2.19523e-12
7.68332e-12
-3.29285e-12
-2.19523e-12
5.48809e-12
-7.68332e-12
1.20738e-11
1.09762e-12
0
1.09762e-12
-2.19523e-12
-1.09762e-12
1.31714e-11
0
1.31714e-11
0
-2.19523e-12
0
1.09762e-12
4.39047e-12
-2.19523e-12
0
2.19523e-12
-1.09762e-12
1.79131e-09
5.22905e-09
7.4616e-09
8.19481e-09
7.5538e-09
6.06214e-09
4.26424e-09
2.59587e-09
1.37971e-09
6.33325e-10
2.67819e-10
9.54927e-11
4.93928e-11
1.31714e-11
1.75619e-11
9.87856e-12
5.48809e-12
-4.39047e-12
6.58571e-12
1.20738e-11
-6.58571e-12
-3.29285e-12
1.4269e-11
6.58571e-12
1.09762e-11
6.5857e-12
-5.48809e-12
-8.78094e-12
3.29285e-12
-2.19524e-12
1.09762e-12
0
-3.29285e-12
2.19524e-12
2.19523e-12
-2.19524e-12
0
1.09762e-12
-1.09762e-12
2.19524e-12
1.09762e-12
3.29285e-12
-3.29285e-12
2.19523e-12
2.19524e-12
-1.09762e-12
-1.09762e-12
-5.48809e-12
-2.19524e-12
2.19523e-12
-7.68332e-12
-7.68332e-12
-1.09762e-12
0
-1.31714e-11
6.5857e-12
1.09762e-12
1.09762e-11
0
-1.09762e-12
1.09762e-12
0
-1.09762e-12
4.39047e-12
3.29285e-12
4.39047e-12
-9.87856e-12
0
-1.09762e-12
1.09762e-12
1.09762e-12
1.09762e-12
0
1.09762e-12
1.31714e-11
4.08314e-10
1.17226e-09
1.68375e-09
1.81765e-09
1.67935e-09
1.30287e-09
9.04437e-10
5.48809e-10
2.8099e-10
1.31714e-10
7.02475e-11
2.305e-11
3.29285e-11
1.09762e-11
-1.64643e-11
5.48809e-12
-1.31714e-11
1.75619e-11
1.31714e-11
-1.75619e-11
-4.39047e-12
-1.09762e-12
-1.75619e-11
-1.09762e-11
7.68332e-12
1.31714e-11
3.29285e-12
4.39047e-12
0
-1.09762e-12
-2.19524e-12
0
-1.09762e-12
-1.09762e-12
-7.68332e-12
-1.09762e-12
1.09762e-11
1.09762e-12
1.09762e-12
0
0
0
-1.09762e-12
0
0
1.53666e-11
-1.09762e-12
1.09762e-12
0
-1.09762e-12
-1.09762e-12
-3.29285e-12
-7.68332e-12
1.09762e-12
1.09762e-12
-4.39047e-12
0
-3.29285e-12
-2.19523e-12
2.19524e-12
-1.09762e-12
2.19523e-12
0
6.58571e-12
-2.19523e-12
-1.31714e-11
2.19524e-12
1.09762e-12
0
-1.09762e-12
7.68332e-12
3.29285e-12
0
3.29285e-12
-4.39047e-12
7.02475e-11
1.18543e-10
1.95376e-10
1.47081e-10
1.49276e-10
9.21999e-11
5.92713e-11
4.60999e-11
2.63428e-11
1.97571e-11
1.09762e-12
4.39047e-12
1.09762e-11
0
-1.64643e-11
1.20738e-11
1.64643e-11
4.39047e-11
3.40261e-11
-3.29285e-12
8.78094e-12
-2.19523e-12
-8.78094e-12
5.48809e-12
1.64643e-11
-1.4269e-11
9.87856e-12
1.86595e-11
1.09762e-12
3.29285e-12
5.48809e-12
1.09762e-12
0
-2.19523e-12
2.19523e-12
2.19523e-12
4.39047e-12
-7.68332e-12
0
-2.19523e-12
1.09762e-12
-1.09762e-12
0
1.09762e-12
-1.09762e-12
2.19523e-12
1.09762e-12
9.87856e-12
1.09762e-12
-2.19523e-12
7.68332e-12
6.5857e-12
2.19523e-12
-2.19523e-12
1.4269e-11
-6.5857e-12
-1.09762e-12
-3.29285e-12
1.09762e-12
2.19523e-12
-1.09762e-12
-2.19523e-12
2.19523e-12
-1.20738e-11
-3.29285e-12
-1.09762e-12
0
1.09762e-12
1.09762e-12
0
-7.68332e-12
0
-4.39047e-12
-1.4269e-11
-1.09762e-12
-1.97571e-10
-3.29285e-10
-3.99533e-10
-3.92947e-10
-3.24895e-10
-2.32695e-10
-1.39397e-10
-7.35404e-11
-1.86595e-11
-1.86595e-11
-8.78094e-12
-2.19524e-12
1.4269e-11
2.52452e-11
1.31714e-11
3.29285e-12
3.18309e-11
2.74404e-11
1.97571e-11
1.75619e-11
-2.19524e-12
-2.19524e-11
1.53666e-11
1.4269e-11
-1.53666e-11
-9.87856e-12
-5.48809e-12
1.09762e-12
5.48809e-12
0
1.09762e-12
0
1.09762e-12
7.68332e-12
0
1.09762e-12
-1.20738e-11
-1.31714e-11
-2.19524e-12
0
0
6.58571e-12
1.09762e-12
0
-4.39047e-12
-1.64643e-11
1.09762e-12
1.09762e-12
1.09762e-11
0
-1.09762e-12
3.29285e-12
-6.5857e-12
0
-2.19524e-12
0
0
-7.68332e-12
4.39047e-12
-3.29285e-12
0
-1.09762e-12
-5.48809e-12
-2.08547e-11
2.19523e-12
0
-2.19524e-12
-3.29285e-12
1.09762e-12
-1.09762e-12
1.09762e-12
-2.19524e-12
0
0
1.31714e-11
5.26856e-11
2.766e-10
4.06118e-10
4.17095e-10
3.7758e-10
3.09528e-10
1.95376e-10
1.26226e-10
4.17095e-11
-3.29285e-12
-4.39047e-12
5.48809e-12
4.39047e-12
1.64643e-11
-7.68332e-12
6.58571e-12
1.20738e-11
6.58571e-12
-1.4269e-11
1.09762e-12
-7.68332e-12
-6.58571e-12
-7.68332e-12
-1.75619e-11
-2.305e-11
-9.87856e-12
-8.78094e-12
-5.48809e-12
-2.19523e-12
1.20738e-11
-5.48809e-12
-1.09762e-12
-1.09762e-12
0
-4.39047e-12
2.19524e-12
-5.48809e-12
6.58571e-12
-8.78094e-12
2.19524e-12
-1.09762e-12
-1.09762e-12
-1.09762e-12
0
0
1.09762e-12
6.5857e-12
-2.19524e-12
8.78094e-12
-2.19523e-12
-1.09762e-12
1.09762e-12
0
3.29285e-12
0
-1.09762e-12
0
0
-1.09762e-12
0
0
3.29285e-12
-1.09762e-12
7.68332e-12
0
-1.09762e-12
0
0
6.58571e-12
4.39047e-12
6.5857e-12
-1.97571e-11
2.19524e-12
1.09762e-11
0
1.44886e-10
5.70761e-11
3.29285e-11
-8.78094e-12
-2.85381e-11
-5.48809e-12
-2.305e-11
-1.31714e-11
-2.41476e-11
-2.85381e-11
-1.64643e-11
-6.5857e-12
-2.19523e-11
-2.63428e-11
-2.74404e-11
-7.68332e-12
2.19523e-12
-4.39047e-12
-1.75619e-11
1.20738e-11
1.4269e-11
2.19523e-12
-1.09762e-11
-6.5857e-12
-1.53666e-11
-1.86595e-11
-2.19523e-12
-5.48809e-12
-3.29285e-12
-1.09762e-12
-1.09762e-12
0
0
-6.5857e-12
1.09762e-12
1.09762e-12
-5.48809e-12
1.20738e-11
-1.09762e-12
1.09762e-12
1.09762e-12
-6.5857e-12
-1.09762e-12
1.09762e-12
0
0
1.75619e-11
0
-1.09762e-11
0
2.19523e-12
0
2.08547e-11
0
0
0
8.78094e-12
0
-1.09762e-12
-2.19523e-12
-1.09762e-12
1.09762e-12
4.39047e-12
1.86595e-11
1.09762e-12
0
-1.09762e-12
1.31714e-11
0
1.09762e-12
-7.68332e-12
0
0
0
-7.68332e-12
-1.31714e-11
-2.50257e-10
-3.02942e-10
-3.18309e-10
-3.16114e-10
-2.16231e-10
-1.52569e-10
-1.13055e-10
-6.25642e-11
-1.86595e-11
8.78094e-12
6.58571e-12
-3.29285e-12
-1.75619e-11
-4.39047e-12
-1.75619e-11
-1.09762e-11
-2.96357e-11
1.20738e-11
1.20738e-11
1.20738e-11
-8.78094e-12
-7.68332e-12
-4.39047e-12
2.19524e-12
-2.19523e-12
-8.78094e-12
-1.4269e-11
0
-1.53666e-11
1.09762e-12
0
1.09762e-12
0
2.19523e-12
0
1.09762e-12
0
8.78094e-12
0
-1.09762e-12
0
1.09762e-12
-2.19523e-12
0
-1.09762e-12
2.19523e-12
0
-7.68332e-12
2.19523e-12
-2.19524e-12
-1.31714e-11
-1.09762e-12
-2.19524e-12
1.09762e-12
3.29285e-12
7.68332e-12
-1.20738e-11
-1.09762e-12
2.19524e-12
-1.09762e-12
-5.48809e-12
-3.29285e-12
0
0
2.19524e-12
1.09762e-12
0
-8.78094e-12
4.39047e-12
1.09762e-12
2.41476e-11
2.19524e-12
4.39047e-12
0
1.58057e-10
3.55628e-10
4.54414e-10
4.6978e-10
3.81971e-10
2.5794e-10
1.69033e-10
8.45165e-11
3.07333e-11
2.305e-11
2.96357e-11
1.4269e-11
3.29285e-12
-1.09762e-12
1.09762e-11
-1.75619e-11
-4.50023e-11
-3.51238e-11
2.19524e-12
-1.20738e-11
1.09762e-12
8.78094e-12
-7.68332e-12
-2.305e-11
-1.09762e-12
0
-1.09762e-12
0
-1.09762e-12
0
0
-9.87856e-12
1.09762e-12
0
-7.68332e-12
-2.19524e-12
5.48809e-12
0
3.29285e-12
-2.19524e-12
-6.5857e-12
0
2.19524e-12
-2.19523e-12
0
0
-1.86595e-11
0
-1.09762e-12
-1.09762e-12
-4.39047e-12
-5.48809e-12
-1.4269e-11
2.19524e-12
2.19524e-12
0
-8.78094e-12
-1.64643e-11
-8.78094e-12
-1.20738e-11
-3.29285e-12
-1.09762e-12
1.09762e-12
-2.19524e-12
-1.09762e-12
-1.09762e-11
1.09762e-12
-6.5857e-12
-1.09762e-12
-1.09762e-12
-2.19523e-12
0
-9.87856e-12
0
5.48809e-12
3.51238e-11
7.4638e-11
-4.82952e-11
-4.39047e-11
-3.29285e-11
-7.02475e-11
-4.17095e-11
-9.87856e-12
-4.39047e-12
3.29285e-12
-7.68332e-12
-1.75619e-11
-8.78094e-12
-3.29285e-12
8.78094e-12
-1.20738e-11
-1.09762e-11
3.29285e-12
-1.4269e-11
4.39047e-12
1.20738e-11
2.41476e-11
1.97571e-11
1.09762e-11
2.19523e-12
-4.39047e-12
1.86595e-11
1.75619e-11
1.4269e-11
3.29285e-12
-2.41476e-11
-3.95142e-11
-2.63428e-11
0
-2.19523e-12
-1.09762e-12
0
-1.20738e-11
-1.09762e-12
-1.09762e-12
0
3.29285e-12
5.48809e-12
4.39047e-12
-2.19523e-12
0
-9.87856e-12
-1.09762e-12
1.09762e-12
-4.39047e-12
1.09762e-12
1.31714e-11
1.09762e-12
0
-3.29285e-12
6.5857e-12
-7.68332e-12
7.68332e-12
-8.78094e-12
-2.19523e-12
-1.31714e-11
5.48809e-12
4.39047e-12
-7.68332e-12
1.09762e-12
-1.09762e-12
-1.09762e-12
1.09762e-12
2.19523e-12
-8.78094e-12
-1.31714e-11
-4.39047e-12
-6.5857e-12
-7.68332e-12
-1.09762e-12
-1.44886e-10
-2.766e-10
-4.30266e-10
-4.03923e-10
-3.16114e-10
-2.49159e-10
-1.47081e-10
-6.69547e-11
-3.18309e-11
-1.20738e-11
-2.41476e-11
-1.75619e-11
1.09762e-12
2.19523e-11
1.64643e-11
5.48809e-12
8.78094e-12
-5.48809e-12
-1.31714e-11
1.09762e-11
6.58571e-12
3.29285e-12
1.75619e-11
2.08547e-11
8.78094e-12
1.20738e-11
1.09762e-12
-1.20738e-11
3.29285e-12
-8.78094e-12
-9.87856e-12
-1.31714e-11
-1.75619e-11
0
1.09762e-12
0
-1.09762e-12
-9.87856e-12
-8.78094e-12
0
1.09762e-12
0
-2.19524e-12
-4.39047e-12
5.48809e-12
-8.78094e-12
0
-1.31714e-11
-1.09762e-12
1.09762e-12
0
1.09762e-12
-1.09762e-12
-1.31714e-11
-1.09762e-12
4.39047e-12
0
4.39047e-12
1.86595e-11
1.31714e-11
4.39047e-12
2.19523e-12
0
2.19524e-12
0
1.09762e-11
-2.19524e-12
0
0
5.48809e-12
8.78094e-12
0
9.87856e-12
2.19523e-12
-6.58571e-12
1.36105e-10
2.54647e-10
4.06118e-10
4.08314e-10
3.66604e-10
2.78795e-10
1.97571e-10
1.16347e-10
6.14666e-11
2.74404e-11
1.31714e-11
9.87856e-12
4.39047e-12
1.31714e-11
6.58571e-12
2.19524e-12
-6.5857e-12
-1.31714e-11
-2.19524e-12
-2.41476e-11
-4.39047e-12
1.09762e-11
-4.39047e-12
-6.58571e-12
-5.48809e-12
2.305e-11
3.29285e-12
-2.19524e-12
-8.78094e-12
-2.19524e-12
2.19524e-11
3.7319e-11
2.63428e-11
-1.09762e-12
0
-1.09762e-12
1.09762e-12
1.20738e-11
8.78094e-12
-4.39047e-12
0
-3.29285e-12
3.29285e-12
-1.64643e-11
1.09762e-12
2.19524e-12
0
0
-2.19524e-12
-4.39047e-12
1.09762e-12
3.29285e-12
0
-2.19524e-12
2.19524e-12
-2.305e-11
-1.09762e-12
0
7.68332e-12
1.09762e-12
1.4269e-11
-2.19523e-12
-1.09762e-12
-1.09762e-12
-4.39047e-12
1.09762e-12
-1.09762e-12
1.20738e-11
0
0
2.08547e-11
9.87856e-12
6.58571e-12
4.39047e-12
0
3.51238e-11
-1.31714e-11
6.5857e-12
-4.17095e-11
-5.26856e-11
-2.74404e-11
-2.96357e-11
-2.19523e-11
-9.87856e-12
-1.09762e-11
-1.09762e-11
5.48809e-12
-1.86595e-11
-2.19523e-11
-1.4269e-11
8.78094e-12
1.4269e-11
3.29285e-11
2.08547e-11
4.39047e-12
1.4269e-11
1.64643e-11
2.19523e-12
0
7.68332e-12
5.48809e-12
6.5857e-12
3.29285e-11
8.78094e-12
1.53666e-11
1.09762e-11
2.52452e-11
1.53666e-11
0
1.4269e-11
1.09762e-12
2.19523e-12
7.68332e-12
8.78094e-12
-1.09762e-12
1.4269e-11
-5.48809e-12
5.48809e-12
9.87856e-12
0
8.78094e-12
9.87856e-12
2.305e-11
2.19523e-12
-6.5857e-12
4.39047e-12
6.5857e-12
1.53666e-11
2.08547e-11
1.09762e-12
5.48809e-12
4.39047e-12
1.4269e-11
-1.09762e-11
0
0
-2.19523e-12
-1.09762e-12
0
-3.29285e-12
0
4.39047e-12
-4.39047e-12
-2.19523e-12
-1.31714e-11
-5.48809e-12
6.5857e-12
-1.09762e-12
-5.48809e-12
2.19523e-12
-1.93181e-10
-3.38066e-10
-4.60999e-10
-4.60999e-10
-3.66604e-10
-2.40378e-10
-1.39397e-10
-7.35404e-11
-3.40261e-11
-1.97571e-11
-6.5857e-12
1.09762e-11
5.48809e-12
1.09762e-12
1.53666e-11
1.31714e-11
2.19523e-11
3.18309e-11
0
1.20738e-11
1.20738e-11
-1.20738e-11
0
1.75619e-11
2.08547e-11
4.39047e-12
1.20738e-11
1.31714e-11
1.09762e-12
1.09762e-12
1.09762e-12
0
1.09762e-12
6.58571e-12
0
-5.48809e-12
-2.19524e-12
-1.09762e-12
-9.87856e-12
4.39047e-12
0
0
-2.19524e-12
1.86595e-11
1.09762e-12
-1.09762e-12
2.19523e-12
-1.09762e-12
1.09762e-12
8.78094e-12
1.09762e-12
4.39047e-12
1.4269e-11
1.09762e-12
-2.19524e-12
1.4269e-11
1.31714e-11
2.19524e-12
2.19523e-12
0
0
-2.19523e-12
2.19524e-12
8.78094e-12
3.29285e-12
-1.09762e-12
0
-1.20738e-11
1.09762e-12
0
-1.64643e-11
-9.87856e-12
1.09762e-12
-7.68332e-12
0
7.02475e-11
2.50257e-10
3.62214e-10
3.7758e-10
3.57823e-10
2.8099e-10
2.1184e-10
1.18543e-10
8.12237e-11
2.52452e-11
2.41476e-11
1.09762e-12
6.58571e-12
1.31714e-11
1.4269e-11
1.4269e-11
2.08547e-11
3.29285e-12
-7.68332e-12
-2.85381e-11
-1.09762e-11
-8.78094e-12
-6.5857e-12
4.39047e-12
-1.09762e-12
1.09762e-11
7.68332e-12
-2.08547e-11
-2.19523e-11
-5.48809e-12
0
0
-6.58571e-12
0
-9.87856e-12
0
-1.09762e-12
2.19524e-12
0
1.31714e-11
-9.87856e-12
1.09762e-11
-1.4269e-11
-4.39047e-12
1.09762e-12
0
-1.09762e-11
-7.68332e-12
0
5.48809e-12
0
-2.19524e-12
-1.4269e-11
-8.78094e-12
0
-2.08547e-11
-4.39047e-12
-4.39047e-12
1.09762e-12
0
0
-2.19523e-12
4.39047e-12
0
5.48809e-12
0
-1.09762e-12
0
6.58571e-12
1.53666e-11
5.48809e-12
-5.48809e-12
-8.78094e-12
1.09762e-12
-4.39047e-12
4.39047e-11
9.21999e-11
3.95142e-11
1.31714e-11
-6.5857e-12
-1.53666e-11
-2.305e-11
-9.87856e-12
-3.29285e-12
-1.97571e-11
-8.78094e-12
-1.4269e-11
-7.68332e-12
4.39047e-12
0
8.78094e-12
3.29285e-12
-1.31714e-11
4.39047e-12
-1.86595e-11
-3.18309e-11
-1.09762e-11
3.29285e-12
-1.64643e-11
-1.09762e-11
6.5857e-12
-5.48809e-12
-1.64643e-11
-5.48809e-12
1.09762e-12
1.09762e-12
-1.09762e-12
-3.29285e-12
-5.48809e-12
-1.09762e-12
5.48809e-12
1.09762e-12
2.19523e-12
1.09762e-12
0
-1.09762e-12
0
-5.48809e-12
-5.48809e-12
0
0
-2.19523e-12
4.39047e-12
-1.09762e-12
2.19523e-12
-1.09762e-12
-4.39047e-12
-1.09762e-11
-3.29285e-12
2.19523e-12
0
-1.4269e-11
-1.09762e-12
-1.09762e-12
0
-1.09762e-12