/*--------------------------------*- C++ -*----------------------------------*\
  =========                 |
  \\      /  F ield         | OpenFOAM: The Open Source CFD Toolbox
   \\    /   O peration     | Website:  https://openfoam.org
    \\  /    A nd           | Version:  10
     \\/     M anipulation  |
\*---------------------------------------------------------------------------*/
FoamFile
{
    format      ascii;
    class       volScalarField;
    location    "371";
    object      gradTz;
}
// * * * * * * * * * * * * * * * * * * * * * * * * * * * * * * * * * * * * * //

dimensions      [0 -1 0 1 0 0 0];

internalField   nonuniform List<scalar> 
11250
(
-14345.4
-4140.97
-1520.89
-717.631
-413.301
-272.117
-195.213
-148.191
-116.966
-94.9208
-78.5992
-66.0477
-56.0936
-47.9993
-41.283
-35.6198
-30.7846
-26.6173
-23.001
-19.8486
-17.0932
-14.6819
-12.5721
-10.7284
-9.12055
-7.72234
-6.51056
-5.46444
-4.56518
-3.79572
-3.14052
-2.58544
-2.11766
-1.72556
-1.39872
-1.12781
-0.904517
-0.72154
-0.572467
-0.451724
-0.3545
-0.276676
-0.214748
-0.165761
-0.127241
-0.0971308
-0.073734
-0.0556618
-0.0417852
-0.0311934
-0.0231566
-0.0170946
-0.0125492
-0.00916107
-0.00665041
-0.00480092
-0.00344647
-0.00246037
-0.00174664
-0.00123307
-0.000865664
-0.00060436
-0.000419594
-0.000289704
-0.000198922
-0.000135844
-9.22727e-05
-6.23607e-05
-4.1961e-05
-2.81561e-05
-1.89118e-05
-1.28264e-05
-8.95264e-06
-6.67392e-06
-5.62081e-06
-8240.3
-4838.32
-2745.62
-1653.73
-1076.54
-751.88
-555.589
-428.634
-341.602
-278.949
-231.965
-195.51
-166.411
-142.634
-122.832
-106.087
-91.758
-79.3866
-68.6361
-59.2542
-51.046
-43.8579
-37.5648
-32.0626
-27.2623
-23.0865
-19.4664
-16.3404
-13.6527
-11.3526
-9.39371
-7.73396
-6.33505
-5.16239
-4.18479
-3.3744
-2.70643
-2.15902
-1.71302
-1.35176
-1.06085
-0.827983
-0.642673
-0.496083
-0.380809
-0.2907
-0.220681
-0.166595
-0.125064
-0.0933639
-0.0693103
-0.0511668
-0.0375622
-0.0274211
-0.0199064
-0.0143705
-0.0103164
-0.00736473
-0.00522834
-0.00369105
-0.00259129
-0.00180911
-0.00125604
-0.000867224
-0.000595474
-0.00040665
-0.000276222
-0.00018668
-0.000125613
-8.42878e-05
-5.66144e-05
-3.83972e-05
-2.68009e-05
-1.99794e-05
-1.68269e-05
-5536.43
-4225.63
-2968.79
-2074.46
-1486.62
-1102.7
-846.123
-668.722
-541.508
-447.038
-374.615
-317.509
-271.376
-233.335
-201.43
-174.303
-150.989
-130.792
-113.193
-97.8005
-84.3103
-72.4794
-62.1095
-53.0339
-45.1098
-38.2119
-32.2285
-27.0594
-22.6133
-18.8068
-15.5642
-12.816
-10.4992
-8.55666
-6.937
-5.59414
-4.48715
-3.57984
-2.84052
-2.24162
-1.75931
-1.3732
-1.06591
-0.822822
-0.631651
-0.482205
-0.366072
-0.276361
-0.207474
-0.154889
-0.114988
-0.0848894
-0.0623199
-0.0454957
-0.0330283
-0.0238438
-0.0171174
-0.0122201
-0.00867541
-0.00612467
-0.00429988
-0.00300201
-0.00208427
-0.00143909
-0.000988156
-0.000674821
-0.000458385
-0.000309796
-0.000208457
-0.000139879
-9.39545e-05
-6.37227e-05
-4.44784e-05
-3.31579e-05
-2.79263e-05
-4142.1
-3557.71
-2828.27
-2187.55
-1691.71
-1325.21
-1056.64
-857.906
-708.089
-592.635
-501.635
-428.359
-368.2
-317.97
-275.429
-238.978
-207.462
-180.025
-156.024
-134.967
-116.465
-100.205
-85.9289
-73.4168
-62.4793
-52.9488
-44.6752
-37.5225
-31.3664
-26.0934
-21.5994
-17.7893
-14.5761
-11.8813
-9.63373
-7.7699
-6.23311
-4.97332
-3.94662
-3.11479
-2.44482
-1.90841
-1.48147
-1.14368
-0.878015
-0.670319
-0.508907
-0.384212
-0.288454
-0.215355
-0.159883
-0.118037
-0.0866579
-0.0632654
-0.0459299
-0.0331587
-0.0238052
-0.016995
-0.0120655
-0.00851822
-0.00598042
-0.00417539
-0.002899
-0.00200166
-0.00137447
-0.000938655
-0.00063761
-0.00043093
-0.000289971
-0.000194579
-0.000130698
-8.86445e-05
-6.18748e-05
-4.61273e-05
-3.88498e-05
-3330.37
-3033.11
-2597.33
-2154.19
-1765.98
-1448.46
-1196.17
-997.177
-839.494
-713.155
-610.501
-525.845
-455.027
-395.012
-343.583
-299.102
-260.352
-226.414
-196.583
-170.306
-147.144
-126.734
-108.776
-93.0084
-79.2045
-67.1612
-56.6951
-47.6387
-39.8382
-33.1523
-27.4508
-22.6145
-18.5343
-15.1109
-12.2548
-9.88561
-7.93163
-6.32946
-5.02346
-3.96515
-3.11262
-2.42993
-1.8865
-1.45648
-1.11825
-0.853788
-0.648243
-0.489438
-0.367477
-0.274367
-0.203705
-0.150398
-0.11042
-0.080617
-0.0585294
-0.0422563
-0.0303377
-0.0216594
-0.0153775
-0.0108568
-0.00762249
-0.00532199
-0.00369518
-0.00255146
-0.00175204
-0.00119653
-0.0008128
-0.000549344
-0.000369659
-0.000248056
-0.000166622
-0.000113012
-7.8885e-05
-5.88094e-05
-4.95317e-05
-2813.64
-2644.81
-2371.6
-2063.86
-1767.7
-1504.78
-1280.9
-1093.87
-938.52
-809.198
-700.816
-609.177
-530.96
-463.593
-405.104
-353.982
-309.065
-269.455
-234.441
-203.459
-176.046
-151.816
-130.442
-111.636
-95.1421
-80.7306
-68.1906
-57.3279
-47.963
-39.9298
-33.0748
-27.2565
-22.3452
-18.2227
-14.7819
-11.9267
-9.57113
-7.63914
-6.06388
-4.78708
-3.75834
-2.93439
-2.2784
-1.75924
-1.35083
-1.03146
-0.783206
-0.591385
-0.444052
-0.331562
-0.246186
-0.181773
-0.133463
-0.0974455
-0.0707507
-0.0510822
-0.0366757
-0.0261855
-0.0185916
-0.0131265
-0.00921638
-0.00643505
-0.00446815
-0.00308528
-0.00211867
-0.00144695
-0.000982935
-0.00066435
-0.000447058
-0.000300002
-0.000201519
-0.000136684
-9.54111e-05
-7.11314e-05
-5.99107e-05
-2462.99
-2358.21
-2177.82
-1959.5
-1733.9
-1520.03
-1326.97
-1157.34
-1010.27
-883.34
-773.722
-678.708
-595.937
-523.445
-459.639
-403.244
-353.241
-308.814
-269.303
-234.164
-202.945
-175.258
-150.763
-129.16
-110.175
-93.5592
-79.0802
-66.5225
-55.685
-46.3802
-38.4339
-31.6846
-25.9841
-21.1966
-17.199
-13.8804
-11.1414
-8.89428
-7.06152
-5.57562
-4.37811
-3.41878
-2.65485
-2.05017
-1.5744
-1.2023
-0.913016
-0.689466
-0.517742
-0.386616
-0.287085
-0.211986
-0.155657
-0.113657
-0.0825256
-0.0595869
-0.0427841
-0.0305482
-0.0216901
-0.0153149
-0.0107533
-0.00750847
-0.00521368
-0.00360019
-0.00247234
-0.00168855
-0.00114709
-0.000775324
-0.000521751
-0.000350135
-0.000235201
-0.000159534
-0.000111365
-8.30273e-05
-6.99313e-05
-2213.91
-2144.08
-2018.93
-1859.55
-1685.72
-1512.06
-1347.5
-1196.47
-1060.41
-939.05
-831.243
-735.55
-650.51
-574.785
-507.21
-446.802
-392.737
-344.328
-300.999
-262.262
-227.695
-196.925
-169.621
-145.478
-124.215
-105.571
-89.3
-75.1689
-62.9595
-52.4663
-43.4973
-35.8738
-29.4305
-24.0161
-19.4927
-15.7358
-12.6339
-10.088
-8.01097
-6.32649
-4.96859
-3.8805
-3.01386
-2.32773
-1.78777
-1.36541
-1.037
-0.78317
-0.588164
-0.439242
-0.326191
-0.240881
-0.176887
-0.129167
-0.0937941
-0.0677274
-0.048632
-0.0347256
-0.0246575
-0.0174109
-0.0122256
-0.00853687
-0.00592802
-0.00409363
-0.00281131
-0.00192013
-0.00130446
-0.000881716
-0.000593366
-0.000398207
-0.000267502
-0.000181449
-0.000126667
-9.44384e-05
-7.95441e-05
-2031.03
-1981.68
-1890.83
-1770.79
-1634.37
-1492.26
-1352.09
-1218.57
-1094.2
-979.927
-875.764
-781.232
-695.625
-618.171
-548.123
-484.801
-427.597
-375.979
-329.48
-287.683
-250.218
-216.742
-186.943
-160.523
-137.202
-116.715
-98.8044
-83.2278
-69.7529
-58.16
-48.2417
-39.8044
-32.6683
-26.668
-21.6522
-17.4843
-14.0416
-11.2149
-8.90782
-7.03624
-5.52706
-4.31744
-3.35376
-2.59064
-1.98998
-1.52004
-1.15458
-0.872072
-0.655
-0.489203
-0.363327
-0.268328
-0.197058
-0.143908
-0.104506
-0.0754673
-0.0541931
-0.0386988
-0.0274803
-0.0194052
-0.0136267
-0.00951569
-0.00660802
-0.00456342
-0.00313406
-0.00214066
-0.00145433
-0.000983057
-0.000661589
-0.000444007
-0.000298279
-0.000202333
-0.00014125
-0.000105315
-8.87072e-05
-1893.42
-1856.79
-1788.06
-1694.76
-1585.33
-1467.48
-1347.33
-1229.26
-1116.04
-1009.27
-909.662
-817.425
-732.428
-654.371
-582.879
-517.555
-458.011
-403.873
-354.792
-310.44
-270.504
-234.687
-202.7
-174.264
-149.105
-126.959
-107.565
-90.6741
-76.0434
-63.442
-52.6506
-43.4627
-35.686
-29.1426
-23.6697
-19.1195
-15.3593
-12.2706
-9.74872
-7.70219
-6.05142
-4.72794
-3.67328
-2.83793
-2.18026
-1.66562
-1.26532
-0.955835
-0.717995
-0.53631
-0.398352
-0.294223
-0.216095
-0.157823
-0.11462
-0.0827771
-0.0594465
-0.042453
-0.0301481
-0.0212903
-0.0149513
-0.0104412
-0.00725111
-0.00500777
-0.00343939
-0.00234931
-0.00159615
-0.00107897
-0.000726163
-0.000487362
-0.000327417
-0.000222107
-0.00015506
-0.000115616
-9.7386e-05
-1787.98
-1759.6
-1705.63
-1630.87
-1541.01
-1441.64
-1337.57
-1232.58
-1129.4
-1029.86
-935.105
-845.759
-762.116
-684.247
-612.088
-545.492
-484.269
-428.203
-377.064
-330.611
-288.601
-250.782
-216.901
-186.699
-159.917
-136.294
-115.572
-97.4964
-81.8198
-68.3023
-56.7149
-46.8406
-38.4765
-31.434
-25.5401
-20.6372
-16.5835
-13.2523
-10.5314
-8.3225
-6.5402
-5.11085
-3.97151
-3.06886
-2.35806
-1.80171
-1.3689
-1.03421
-0.776963
-0.580423
-0.431163
-0.318489
-0.233939
-0.170871
-0.124106
-0.089635
-0.0643762
-0.0459768
-0.0326526
-0.0230605
-0.0161953
-0.0113107
-0.00785533
-0.00542533
-0.00372636
-0.00254545
-0.00172949
-0.00116915
-0.00078689
-0.00052814
-0.000354827
-0.00024071
-0.000168055
-0.00012531
-0.000105554
-1706.06
-1683.24
-1639.4
-1577.72
-1502.18
-1416.86
-1325.53
-1231.37
-1136.9
-1043.98
-953.955
-867.714
-785.84
-708.678
-636.41
-569.099
-506.73
-449.229
-396.478
-348.327
-304.597
-265.09
-229.587
-197.855
-169.653
-144.728
-122.828
-103.696
-87.0813
-72.7388
-60.4318
-49.9353
-41.037
-33.5396
-27.261
-22.0353
-17.7126
-14.1586
-11.2545
-8.89614
-6.99256
-5.46548
-4.2479
-3.28302
-2.52303
-1.92806
-1.46511
-1.10705
-0.831785
-0.62145
-0.461692
-0.341075
-0.250554
-0.183023
-0.132944
-0.0960261
-0.0689717
-0.0492624
-0.0349885
-0.0247118
-0.0173562
-0.0121221
-0.00841934
-0.00581518
-0.00399434
-0.00272863
-0.00185404
-0.0012534
-0.000843633
-0.000566249
-0.000380445
-0.0002581
-0.000180204
-0.000134374
-0.000113192
-1641.77
-1622.79
-1586.07
-1533.8
-1468.82
-1394.19
-1312.89
-1227.57
-1140.47
-1053.39
-967.749
-884.578
-804.648
-728.499
-656.499
-588.883
-525.782
-467.245
-413.259
-363.754
-318.617
-277.701
-240.824
-207.781
-178.349
-152.288
-129.35
-109.284
-91.8358
-76.7567
-63.8049
-52.7487
-43.3687
-35.4599
-28.8327
-23.3138
-18.7461
-14.9891
-11.9179
-9.42282
-7.40823
-5.7916
-4.50225
-3.48023
-2.67504
-2.04455
-1.55385
-1.17427
-0.882407
-0.659351
-0.489905
-0.361957
-0.26592
-0.194266
-0.141123
-0.101943
-0.0732273
-0.0523059
-0.0371528
-0.0262422
-0.0184322
-0.0128744
-0.0089424
-0.0061768
-0.00424295
-0.00289861
-0.00196963
-0.00133161
-0.000896313
-0.000601634
-0.000404238
-0.000274253
-0.00019149
-0.000142796
-0.00012029
-1590.9
-1574.65
-1543.03
-1497.62
-1440.51
-1374.05
-1300.61
-1222.43
-1141.47
-1059.44
-977.719
-897.433
-819.458
-744.47
-672.977
-605.343
-541.82
-482.564
-427.649
-377.081
-330.807
-288.727
-250.698
-216.541
-186.054
-159.009
-135.168
-114.282
-96.0991
-80.3678
-66.8428
-55.2872
-45.4762
-37.1983
-30.2575
-24.4742
-19.6854
-15.7447
-12.5221
-9.90296
-7.78751
-6.0894
-4.7347
-3.66058
-2.81415
-2.15122
-1.63516
-1.23589
-0.928834
-0.694128
-0.515805
-0.381133
-0.280037
-0.204599
-0.148643
-0.107384
-0.0771423
-0.0551066
-0.0391451
-0.0276513
-0.0194232
-0.0135675
-0.00942434
-0.00651006
-0.00447212
-0.00305533
-0.00207623
-0.00140374
-0.000944909
-0.000634282
-0.000426193
-0.000289162
-0.000201909
-0.000150571
-0.000126843
-1550.42
-1536.15
-1508.25
-1467.9
-1416.7
-1356.5
-1289.23
-1216.78
-1140.89
-1063.12
-984.833
-907.162
-831.052
-757.266
-686.409
-618.948
-555.231
-495.498
-439.9
-388.509
-341.327
-298.296
-259.308
-224.214
-192.828
-164.94
-140.318
-118.719
-99.8934
-83.589
-69.5584
-57.5609
-47.3671
-38.7605
-31.5398
-25.5201
-20.533
-16.4274
-13.0685
-10.3376
-8.13115
-6.35946
-4.94565
-3.82438
-2.94058
-2.24822
-1.70915
-1.29199
-0.971126
-0.725823
-0.53942
-0.398626
-0.292921
-0.214033
-0.155511
-0.112356
-0.0807203
-0.057667
-0.0409669
-0.0289402
-0.02033
-0.0142017
-0.00986553
-0.00681522
-0.004682
-0.00319889
-0.00217389
-0.00146984
-0.000989451
-0.000664211
-0.000446323
-0.000302834
-0.000211465
-0.000157704
-0.000132856
-1518.08
-1505.26
-1480.11
-1443.54
-1396.82
-1341.44
-1279
-1211.13
-1139.37
-1065.18
-989.834
-914.478
-840.082
-767.465
-697.3
-630.13
-566.375
-506.347
-450.26
-398.241
-350.34
-306.539
-266.763
-230.885
-198.742
-170.135
-144.843
-122.629
-103.245
-86.4415
-71.9682
-59.5826
-49.0514
-40.1543
-32.6857
-26.4559
-21.2924
-17.0397
-13.5591
-10.7283
-8.44036
-6.60267
-5.13578
-3.97212
-3.0547
-2.33584
-1.77603
-1.34273
-1.0094
-0.754518
-0.56081
-0.414479
-0.304601
-0.222589
-0.161743
-0.116868
-0.0839689
-0.0599926
-0.0426221
-0.0301116
-0.0211543
-0.0147785
-0.0102668
-0.00709283
-0.00487299
-0.00332955
-0.0022628
-0.00153003
-0.00103002
-0.000691474
-0.000464664
-0.000315292
-0.000220175
-0.000164207
-0.000138338
-1492.17
-1480.42
-1457.32
-1423.6
-1380.29
-1328.63
-1269.99
-1205.77
-1137.38
-1066.14
-993.293
-919.946
-847.083
-775.557
-706.088
-639.27
-575.583
-515.392
-458.965
-406.474
-358.011
-313.593
-273.171
-236.645
-203.867
-174.652
-148.79
-126.049
-106.186
-88.9495
-74.0916
-61.3674
-50.5411
-41.3892
-33.7024
-27.2875
-21.9681
-17.5852
-13.9967
-11.0771
-8.71667
-6.8202
-5.30599
-4.10449
-3.15701
-2.41445
-1.83606
-1.38831
-1.04379
-0.780324
-0.580057
-0.428749
-0.31512
-0.230298
-0.167359
-0.120937
-0.0868993
-0.062091
-0.0441162
-0.0311693
-0.0218988
-0.0152996
-0.0106294
-0.00734378
-0.00504567
-0.00344772
-0.00234322
-0.00158449
-0.00106672
-0.00071615
-0.000481267
-0.000326573
-0.000228063
-0.000170097
-0.000143304
-1471.37
-1460.43
-1438.88
-1407.32
-1366.62
-1317.85
-1262.18
-1200.87
-1135.2
-1066.39
-995.634
-924.006
-852.49
-781.953
-713.148
-646.707
-583.152
-522.893
-466.237
-413.397
-364.499
-319.589
-278.644
-241.584
-208.278
-178.554
-152.21
-129.021
-108.747
-91.1391
-75.9495
-62.9322
-51.8495
-42.4756
-34.5982
-28.0212
-22.5651
-18.0678
-14.3843
-11.3864
-8.96191
-7.01345
-5.45733
-4.22227
-3.24813
-2.48451
-1.8896
-1.42898
-1.0745
-0.803378
-0.59726
-0.441511
-0.324531
-0.237198
-0.172389
-0.124582
-0.0895255
-0.0639723
-0.0454561
-0.0321182
-0.0225669
-0.0157673
-0.010955
-0.00756915
-0.00520079
-0.0035539
-0.0024155
-0.00163344
-0.00109973
-0.000738342
-0.000496203
-0.000336723
-0.000235161
-0.000175398
-0.000147774
-1454.65
-1444.33
-1423.95
-1394.04
-1355.36
-1308.83
-1255.49
-1196.5
-1133.02
-1066.2
-997.178
-927.003
-856.648
-786.989
-718.797
-652.731
-589.343
-529.079
-472.278
-419.184
-369.952
-324.654
-283.288
-245.792
-212.05
-181.902
-155.153
-131.585
-110.962
-93.0378
-77.564
-64.2946
-52.9909
-43.4249
-35.3823
-28.6643
-23.0891
-18.4918
-14.7252
-11.6587
-9.1781
-7.18397
-5.59098
-4.32639
-3.32873
-2.54652
-1.93703
-1.46503
-1.10175
-0.823838
-0.612536
-0.452849
-0.332897
-0.243335
-0.176864
-0.127826
-0.0918638
-0.0656479
-0.04665
-0.0329639
-0.0231626
-0.0161845
-0.0112455
-0.00777028
-0.00533927
-0.0036487
-0.00248006
-0.00167717
-0.00112922
-0.000758175
-0.000509553
-0.000345797
-0.000241509
-0.00018014
-0.000151773
-1441.22
-1431.36
-1411.88
-1383.24
-1346.11
-1301.32
-1249.83
-1192.68
-1130.95
-1065.75
-998.159
-929.2
-859.836
-790.942
-723.3
-657.589
-594.385
-534.156
-477.27
-423.995
-374.51
-328.906
-287.204
-249.355
-215.255
-184.755
-157.669
-133.784
-112.866
-94.6732
-78.9576
-65.4729
-53.9798
-44.2487
-36.0637
-29.2241
-23.5458
-18.8619
-15.0231
-11.897
-9.36741
-7.33343
-5.70824
-4.41781
-3.39956
-2.60106
-1.97877
-1.49678
-1.12575
-0.841878
-0.626013
-0.462857
-0.340285
-0.248756
-0.180819
-0.130694
-0.0939324
-0.0671309
-0.0477069
-0.0337129
-0.0236903
-0.0165542
-0.011503
-0.00794862
-0.00546208
-0.00373281
-0.00253734
-0.00171599
-0.00115541
-0.000775787
-0.000521411
-0.000353859
-0.00024715
-0.000184355
-0.000155328
-1430.42
-1420.92
-1402.13
-1374.47
-1338.55
-1295.12
-1245.07
-1189.37
-1129.06
-1065.17
-998.749
-930.8
-862.27
-794.034
-726.877
-661.493
-598.472
-538.303
-481.374
-427.973
-378.297
-332.457
-290.487
-252.352
-217.961
-187.172
-159.806
-135.656
-114.491
-96.0726
-80.1525
-66.4853
-54.8309
-44.959
-36.6522
-29.7082
-23.9412
-19.1828
-15.2817
-12.1041
-9.5321
-7.46358
-5.81044
-4.49755
-3.46139
-2.64871
-2.01526
-1.52456
-1.14676
-0.85768
-0.637824
-0.471633
-0.346767
-0.253515
-0.184293
-0.133215
-0.0957506
-0.0684349
-0.0486367
-0.034372
-0.0241548
-0.0168797
-0.0117298
-0.00810575
-0.00557032
-0.00380696
-0.00258786
-0.00175022
-0.00117851
-0.000791328
-0.000531877
-0.000360976
-0.000252131
-0.000188077
-0.000158468
-1421.76
-1412.53
-1394.28
-1367.37
-1332.38
-1290.02
-1241.1
-1186.56
-1127.37
-1064.54
-999.073
-931.956
-864.124
-796.445
-729.709
-664.617
-601.771
-541.675
-484.731
-431.245
-381.427
-335.404
-293.222
-254.859
-220.231
-189.206
-161.61
-137.24
-115.87
-97.2623
-81.1705
-67.3494
-55.5587
-45.5674
-37.157
-30.1241
-24.2814
-19.4591
-15.5047
-12.2828
-9.67442
-7.57616
-5.89892
-4.56665
-3.51501
-2.69007
-2.04696
-1.5487
-1.16504
-0.871433
-0.64811
-0.479279
-0.352417
-0.257666
-0.187324
-0.135415
-0.0973385
-0.0695741
-0.0494493
-0.0349483
-0.0245611
-0.0171645
-0.0119283
-0.00824332
-0.00566511
-0.00387191
-0.00263212
-0.00178023
-0.00119876
-0.000804955
-0.000541057
-0.00036722
-0.000256502
-0.000191344
-0.000161225
-1414.82
-1405.8
-1387.96
-1361.64
-1327.38
-1285.84
-1237.82
-1184.19
-1125.89
-1063.91
-999.219
-932.784
-865.53
-798.32
-731.944
-667.109
-604.424
-544.405
-487.465
-433.922
-384.001
-337.837
-295.49
-256.944
-222.125
-190.907
-163.123
-138.572
-117.033
-98.2674
-82.0322
-68.0822
-56.177
-46.085
-37.5872
-30.479
-24.5722
-19.6956
-15.6958
-12.4361
-9.79661
-7.67292
-5.97504
-4.62615
-3.56122
-2.72573
-2.07431
-1.56955
-1.18084
-0.883325
-0.657009
-0.485898
-0.357311
-0.261263
-0.189952
-0.137324
-0.0987165
-0.0705632
-0.0501551
-0.0354489
-0.0249142
-0.0174121
-0.012101
-0.00836299
-0.0057476
-0.00392844
-0.00267065
-0.00180636
-0.0012164
-0.000816829
-0.000549057
-0.000372663
-0.000260313
-0.000194194
-0.000163629
-1409.27
-1400.41
-1382.88
-1357.02
-1323.32
-1282.43
-1235.11
-1182.2
-1124.62
-1063.32
-999.252
-933.372
-866.593
-799.773
-733.702
-669.089
-606.549
-546.605
-489.681
-436.103
-386.106
-339.836
-297.358
-258.668
-223.696
-192.323
-164.385
-139.686
-118.006
-99.1112
-82.7571
-68.6998
-56.699
-46.5228
-37.9516
-30.78
-24.8191
-19.8967
-15.8584
-12.5667
-9.90084
-7.75553
-6.0401
-4.67704
-3.60079
-2.75629
-2.09777
-1.58744
-1.1944
-0.893541
-0.664659
-0.491592
-0.361523
-0.26436
-0.192216
-0.138969
-0.0999046
-0.0714163
-0.0507641
-0.0358812
-0.0252192
-0.0176261
-0.0122502
-0.00846645
-0.00581893
-0.00397735
-0.002704
-0.00182897
-0.00123167
-0.000827111
-0.000555986
-0.000377379
-0.000263616
-0.000196663
-0.000165713
-1404.84
-1396.11
-1378.82
-1353.31
-1320.05
-1279.67
-1232.9
-1180.56
-1123.54
-1062.78
-999.216
-933.785
-867.394
-800.897
-735.081
-670.656
-608.244
-548.371
-491.468
-437.87
-387.819
-341.468
-298.89
-260.085
-224.991
-193.493
-165.431
-140.611
-118.817
-99.8153
-83.3632
-69.2171
-57.1368
-46.8906
-38.2581
-31.0337
-25.0274
-20.0666
-15.996
-12.6773
-9.98919
-7.82563
-6.09534
-4.7203
-3.63444
-2.7823
-2.11775
-1.60269
-1.20597
-0.902263
-0.671194
-0.496458
-0.365125
-0.26701
-0.194153
-0.140378
-0.100923
-0.0721477
-0.0512864
-0.036252
-0.0254809
-0.0178097
-0.0123783
-0.00855532
-0.00588023
-0.00401938
-0.00273266
-0.00184842
-0.0012448
-0.000835958
-0.00056195
-0.000381438
-0.000266459
-0.00019879
-0.000167508
-1401.31
-1392.68
-1375.58
-1350.34
-1317.42
-1277.44
-1231.1
-1179.2
-1122.63
-1062.3
-999.14
-934.072
-867.996
-801.763
-736.159
-671.893
-609.591
-549.782
-492.904
-439.296
-389.207
-342.794
-300.138
-261.244
-226.054
-194.455
-166.293
-141.376
-119.489
-100.399
-83.8667
-69.6476
-57.5019
-47.1977
-38.5145
-31.2461
-25.202
-20.2092
-16.1116
-12.7704
-10.0636
-7.88473
-6.14196
-4.75684
-3.66289
-2.80431
-2.13466
-1.61561
-1.21577
-0.909662
-0.676741
-0.500591
-0.368186
-0.269263
-0.195802
-0.141576
-0.101789
-0.0727706
-0.0517314
-0.0365681
-0.0257041
-0.0179664
-0.0124877
-0.00863119
-0.00593257
-0.00405529
-0.00275716
-0.00186505
-0.00125603
-0.000843523
-0.000567051
-0.000384911
-0.000268893
-0.000200611
-0.000169045
-1398.5
-1389.95
-1373
-1347.97
-1315.32
-1275.64
-1229.64
-1178.1
-1121.88
-1061.89
-999.045
-934.268
-868.447
-802.429
-736.998
-672.866
-610.657
-550.906
-494.052
-440.441
-390.325
-343.867
-301.151
-262.187
-226.92
-195.242
-166.999
-142.003
-120.041
-100.881
-84.2826
-70.0038
-57.8045
-47.4526
-38.7276
-31.4228
-25.3476
-20.3282
-16.2081
-12.8482
-10.1259
-7.93424
-6.18106
-4.7875
-3.68678
-2.82281
-2.1489
-1.62649
-1.22404
-0.915899
-0.681419
-0.504079
-0.37077
-0.271167
-0.197195
-0.14259
-0.102523
-0.0732979
-0.0521083
-0.0368358
-0.0258932
-0.0180992
-0.0125804
-0.00869555
-0.00597699
-0.00408577
-0.00277796
-0.00187916
-0.00126557
-0.000849951
-0.000571386
-0.000387863
-0.000270962
-0.000202159
-0.000170353
-1396.28
-1387.79
-1370.95
-1346.09
-1313.64
-1274.2
-1228.46
-1177.19
-1121.25
-1061.53
-998.945
-934.399
-868.783
-802.939
-737.65
-673.628
-611.497
-551.796
-494.966
-441.356
-391.221
-344.73
-301.968
-262.95
-227.623
-195.882
-167.575
-142.516
-120.493
-101.275
-84.6241
-70.2967
-58.0537
-47.6629
-38.9036
-31.569
-25.4681
-20.4268
-16.2883
-12.9129
-10.1777
-7.97546
-6.21363
-4.81308
-3.70673
-2.83826
-2.16079
-1.63559
-1.23095
-0.921123
-0.685341
-0.507005
-0.372939
-0.272765
-0.198366
-0.143442
-0.103139
-0.0737414
-0.0524254
-0.0370612
-0.0260525
-0.0182111
-0.0126585
-0.00874981
-0.00601444
-0.00411148
-0.00279551
-0.00189108
-0.00127363
-0.00085538
-0.000575049
-0.000390358
-0.000272711
-0.000203468
-0.000171458
-1394.53
-1386.08
-1369.33
-1344.59
-1312.31
-1273.06
-1227.52
-1176.47
-1120.74
-1061.24
-998.847
-934.486
-869.032
-803.328
-738.155
-674.222
-612.158
-552.499
-495.691
-442.084
-391.937
-345.421
-302.624
-263.563
-228.19
-196.399
-168.041
-142.932
-120.86
-101.597
-84.9028
-70.5362
-58.2577
-47.8353
-39.0481
-31.6892
-25.5673
-20.5081
-16.3544
-12.9663
-10.2205
-8.00956
-6.24061
-4.83427
-3.72327
-2.85109
-2.17068
-1.64316
-1.23671
-0.925472
-0.688607
-0.509443
-0.374748
-0.274098
-0.199343
-0.144154
-0.103655
-0.0741121
-0.0526906
-0.0372498
-0.0261858
-0.0183048
-0.012724
-0.00879527
-0.00604583
-0.00413303
-0.00281022
-0.00190108
-0.00128039
-0.000859936
-0.000578123
-0.000392453
-0.00027418
-0.000204568
-0.000172387
-1393.15
-1384.74
-1368.06
-1343.42
-1311.26
-1272.15
-1226.77
-1175.88
-1120.33
-1060.99
-998.757
-934.54
-869.217
-803.625
-738.545
-674.685
-612.674
-553.051
-496.263
-442.66
-392.505
-345.971
-303.148
-264.055
-228.644
-196.814
-168.417
-143.268
-121.157
-101.857
-85.129
-70.7308
-58.4237
-47.9758
-39.166
-31.7874
-25.6485
-20.5747
-16.4086
-13.0101
-10.2557
-8.0376
-6.26281
-4.85173
-3.73691
-2.86168
-2.17884
-1.64941
-1.24147
-0.92907
-0.691311
-0.511462
-0.376246
-0.275204
-0.200153
-0.144745
-0.104082
-0.0744201
-0.052911
-0.0374066
-0.0262967
-0.0183827
-0.0127784
-0.00883312
-0.00607198
-0.00415099
-0.00282249
-0.00190941
-0.00128602
-0.000863736
-0.000580688
-0.000394201
-0.000275406
-0.000205486
-0.000173163
-1392.07
-1383.68
-1367.05
-1342.49
-1310.43
-1271.43
-1226.17
-1175.42
-1119.99
-1060.78
-998.676
-934.574
-869.354
-803.85
-738.844
-675.044
-613.077
-553.484
-496.712
-443.115
-392.955
-346.407
-303.564
-264.446
-229.008
-197.147
-168.718
-143.538
-121.396
-102.067
-85.3114
-70.8881
-58.5581
-48.0896
-39.2617
-31.8672
-25.7145
-20.6289
-16.4528
-13.0459
-10.2844
-8.06052
-6.28097
-4.86603
-3.74809
-2.87036
-2.18553
-1.65454
-1.24537
-0.932028
-0.693535
-0.513124
-0.377481
-0.276115
-0.200822
-0.145232
-0.104435
-0.0746744
-0.0530931
-0.0375362
-0.0263884
-0.0184472
-0.0128235
-0.00886444
-0.00609362
-0.00416586
-0.00283265
-0.00191631
-0.00129069
-0.000866886
-0.000582814
-0.000395651
-0.000276423
-0.000206248
-0.000173806
-1391.23
-1382.86
-1366.27
-1341.76
-1309.77
-1270.86
-1225.7
-1175.05
-1119.73
-1060.61
-998.605
-934.593
-869.454
-804.021
-739.074
-675.32
-613.389
-553.821
-497.063
-443.471
-393.308
-346.751
-303.893
-264.756
-229.296
-197.412
-168.958
-143.753
-121.588
-102.235
-85.4578
-71.0144
-58.6662
-48.1813
-39.3388
-31.9316
-25.7678
-20.6727
-16.4886
-13.0749
-10.3077
-8.07914
-6.29574
-4.87766
-3.75719
-2.87743
-2.19099
-1.65873
-1.24857
-0.934445
-0.695354
-0.514484
-0.378491
-0.276861
-0.201369
-0.145631
-0.104725
-0.074883
-0.0532425
-0.0376426
-0.0264637
-0.0185001
-0.0128606
-0.0088902
-0.00611143
-0.00417809
-0.00284101
-0.001922
-0.00129454
-0.000869481
-0.000584567
-0.000396846
-0.000277262
-0.000206876
-0.000174337
-1390.57
-1382.22
-1365.66
-1341.2
-1309.26
-1270.42
-1225.33
-1174.75
-1119.51
-1060.48
-998.545
-934.603
-869.527
-804.15
-739.249
-675.533
-613.631
-554.083
-497.337
-443.75
-393.585
-347.021
-304.152
-265.001
-229.523
-197.621
-169.148
-143.924
-121.74
-102.369
-85.5745
-71.1153
-58.7526
-48.2547
-39.4007
-31.9833
-25.8107
-20.708
-16.5174
-13.0982
-10.3265
-8.09418
-6.30767
-4.88707
-3.76455
-2.88316
-2.19542
-1.66213
-1.25116
-0.936408
-0.696832
-0.51559
-0.379313
-0.277468
-0.201815
-0.145957
-0.104961
-0.0750532
-0.0533644
-0.0377294
-0.0265251
-0.0185434
-0.0128908
-0.00891125
-0.00612598
-0.0041881
-0.00284785
-0.00192665
-0.00129769
-0.000871605
-0.000586002
-0.000397824
-0.000277949
-0.000207391
-0.000174772
-1390.07
-1381.72
-1365.19
-1340.76
-1308.87
-1270.07
-1225.04
-1174.52
-1119.34
-1060.37
-998.495
-934.607
-869.58
-804.246
-739.382
-675.697
-613.817
-554.285
-497.549
-443.966
-393.801
-347.232
-304.355
-265.193
-229.702
-197.786
-169.298
-144.059
-121.86
-102.475
-85.6671
-71.1954
-58.8213
-48.3131
-39.45
-32.0245
-25.8449
-20.7362
-16.5404
-13.1169
-10.3416
-8.10624
-6.31726
-4.89463
-3.77048
-2.88777
-2.19898
-1.66486
-1.25325
-0.937993
-0.698026
-0.516483
-0.379978
-0.27796
-0.202176
-0.14622
-0.105152
-0.0751911
-0.0534633
-0.0377998
-0.026575
-0.0185785
-0.0129154
-0.00892835
-0.00613781
-0.00419623
-0.00285341
-0.00193043
-0.00130025
-0.000873334
-0.00058717
-0.000398621
-0.000278508
-0.00020781
-0.000175126
-1389.67
-1381.34
-1364.82
-1340.42
-1308.56
-1269.8
-1224.81
-1174.34
-1119.21
-1060.28
-998.453
-934.608
-869.619
-804.319
-739.483
-675.821
-613.96
-554.44
-497.713
-444.134
-393.969
-347.396
-304.513
-265.342
-229.842
-197.915
-169.416
-144.165
-121.954
-102.559
-85.7401
-71.2587
-58.8757
-48.3594
-39.4891
-32.0572
-25.8721
-20.7586
-16.5588
-13.1318
-10.3536
-8.11587
-6.32491
-4.90067
-3.77522
-2.89146
-2.20184
-1.66706
-1.25492
-0.939264
-0.698984
-0.517201
-0.380512
-0.278355
-0.202467
-0.146432
-0.105306
-0.0753022
-0.0535429
-0.0378566
-0.0266153
-0.0186069
-0.0129352
-0.00894216
-0.00614736
-0.0042028
-0.00285791
-0.00193349
-0.00130232
-0.000874732
-0.000588115
-0.000399266
-0.000278961
-0.00020815
-0.000175413
-1389.37
-1381.04
-1364.54
-1340.16
-1308.32
-1269.6
-1224.64
-1174.2
-1119.11
-1060.22
-998.419
-934.606
-869.647
-804.373
-739.56
-675.916
-614.069
-554.56
-497.839
-444.263
-394.098
-347.523
-304.635
-265.458
-229.951
-198.015
-169.507
-144.248
-122.028
-102.624
-85.7974
-71.3084
-58.9184
-48.3958
-39.5198
-32.083
-25.8936
-20.7763
-16.5733
-13.1436
-10.3632
-8.1235
-6.33099
-4.90547
-3.77898
-2.8944
-2.20411
-1.66881
-1.25626
-0.940278
-0.699749
-0.517774
-0.380939
-0.27867
-0.202699
-0.146602
-0.105429
-0.0753911
-0.0536068
-0.0379021
-0.0266475
-0.0186296
-0.0129512
-0.00895324
-0.00615503
-0.00420808
-0.00286152
-0.00193595
-0.00130398
-0.000875856
-0.000588874
-0.000399785
-0.000279325
-0.000208423
-0.000175644
-1389.14
-1380.82
-1364.33
-1339.96
-1308.14
-1269.44
-1224.5
-1174.09
-1119.03
-1060.16
-998.392
-934.604
-869.667
-804.413
-739.617
-675.988
-614.152
-554.651
-497.935
-444.362
-394.197
-347.62
-304.73
-265.548
-230.035
-198.093
-169.579
-144.312
-122.086
-102.675
-85.8421
-71.3472
-58.9518
-48.4243
-39.544
-32.1033
-25.9105
-20.7903
-16.5847
-13.1529
-10.3707
-8.12952
-6.33578
-4.90926
-3.78196
-2.89672
-2.20591
-1.67019
-1.25732
-0.941082
-0.700355
-0.518229
-0.381278
-0.278921
-0.202883
-0.146737
-0.105527
-0.0754619
-0.0536576
-0.0379384
-0.0266732
-0.0186477
-0.0129639
-0.00896208
-0.00616115
-0.00421229
-0.0028644
-0.00193791
-0.00130531
-0.000876754
-0.000589482
-0.000400199
-0.000279617
-0.000208641
-0.000175829
-1388.96
-1380.65
-1364.16
-1339.8
-1308
-1269.32
-1224.4
-1174.01
-1118.96
-1060.12
-998.37
-934.601
-869.681
-804.443
-739.66
-676.042
-614.214
-554.72
-498.008
-444.437
-394.273
-347.695
-304.802
-265.617
-230.1
-198.153
-169.634
-144.362
-122.131
-102.714
-85.8767
-71.3773
-58.9777
-48.4465
-39.5627
-32.1191
-25.9236
-20.8011
-16.5936
-13.1602
-10.3766
-8.13424
-6.33954
-4.91224
-3.7843
-2.89854
-2.20733
-1.67128
-1.25815
-0.941715
-0.700833
-0.518588
-0.381545
-0.279119
-0.203029
-0.146844
-0.105605
-0.0755179
-0.0536978
-0.0379671
-0.0266936
-0.0186621
-0.0129739
-0.00896909
-0.006166
-0.00421563
-0.00286669
-0.00193946
-0.00130637
-0.000877467
-0.000589964
-0.000400528
-0.000279848
-0.000208815
-0.000175976
-1388.83
-1380.52
-1364.04
-1339.69
-1307.9
-1269.22
-1224.32
-1173.95
-1118.91
-1060.09
-998.353
-934.598
-869.692
-804.465
-739.693
-676.082
-614.262
-554.772
-498.064
-444.494
-394.331
-347.752
-304.857
-265.67
-230.149
-198.199
-169.676
-144.4
-122.165
-102.745
-85.9034
-71.4006
-58.9978
-48.4637
-39.5773
-32.1313
-25.9338
-20.8096
-16.6006
-13.1659
-10.3811
-8.13791
-6.34247
-4.91456
-3.78612
-2.89997
-2.20843
-1.67213
-1.2588
-0.942211
-0.701208
-0.518869
-0.381755
-0.279275
-0.203144
-0.146927
-0.105666
-0.075562
-0.0537294
-0.0379897
-0.0267096
-0.0186734
-0.0129818
-0.00897461
-0.00616983
-0.00421827
-0.00286849
-0.00194069
-0.0013072
-0.00087803
-0.000590345
-0.000400789
-0.000280031
-0.000208952
-0.000176092
-1388.73
-1380.42
-1363.94
-1339.6
-1307.82
-1269.15
-1224.26
-1173.9
-1118.88
-1060.06
-998.339
-934.595
-869.699
-804.481
-739.717
-676.113
-614.297
-554.811
-498.106
-444.538
-394.374
-347.795
-304.899
-265.71
-230.187
-198.234
-169.708
-144.429
-122.191
-102.768
-85.9239
-71.4184
-59.0132
-48.4769
-39.5885
-32.1407
-25.9417
-20.8161
-16.6059
-13.1702
-10.3847
-8.14076
-6.34474
-4.91636
-3.78754
-2.90108
-2.20929
-1.6728
-1.25931
-0.942597
-0.7015
-0.519088
-0.381918
-0.279396
-0.203233
-0.146993
-0.105713
-0.0755964
-0.0537541
-0.0380073
-0.0267221
-0.0186822
-0.012988
-0.00897893
-0.00617283
-0.00422033
-0.0028699
-0.00194166
-0.00130785
-0.000878472
-0.000590643
-0.000400993
-0.000280174