/*--------------------------------*- C++ -*----------------------------------*\
  =========                 |
  \\      /  F ield         | OpenFOAM: The Open Source CFD Toolbox
   \\    /   O peration     | Website:  https://openfoam.org
    \\  /    A nd           | Version:  10
     \\/     M anipulation  |
\*---------------------------------------------------------------------------*/
FoamFile
{
    format      ascii;
    class       volScalarField;
    location    "322";
    object      gradTz;
}
// * * * * * * * * * * * * * * * * * * * * * * * * * * * * * * * * * * * * * //

dimensions      [0 -1 0 1 0 0 0];

internalField   nonuniform List<scalar> 
11250
(
-14348.6
-4144.17
-1523.96
-720.523
-415.961
-274.501
-197.286
-149.926
-118.346
-95.9393
-79.2588
-66.3598
-56.0775
-47.6809
-40.6935
-34.7945
-29.7612
-25.4345
-21.6976
-18.4619
-15.658
-13.2302
-11.1321
-9.32428
-7.77225
-6.44563
-5.31715
-4.36225
-3.55874
-2.88656
-2.32765
-1.86581
-1.48661
-1.17727
-0.926584
-0.724768
-0.563381
-0.435192
-0.334058
-0.25481
-0.193132
-0.145456
-0.108853
-0.0809429
-0.0598056
-0.0439064
-0.0320284
-0.0232147
-0.0167191
-0.0119642
-0.00850695
-0.00601019
-0.00421917
-0.00294301
-0.00203978
-0.00140477
-0.000961296
-0.000653645
-0.000441633
-0.000296495
-0.000197793
-0.000131112
-8.636e-05
-5.6523e-05
-3.67605e-05
-2.37569e-05
-1.52571e-05
-9.7384e-06
-6.1801e-06
-3.90337e-06
-2.46046e-06
-1.55923e-06
-1.0121e-06
-7.0245e-07
-5.6299e-07
-8250.06
-4847.89
-2754.81
-1662.39
-1084.5
-759.016
-561.793
-433.826
-345.733
-281.998
-233.939
-196.444
-166.363
-141.681
-121.067
-103.616
-88.6942
-75.8459
-64.7343
-55.1028
-46.7498
-39.5123
-33.2542
-27.8593
-23.2261
-19.2646
-15.8938
-13.041
-10.6399
-8.63099
-6.96035
-5.5797
-4.44597
-3.52104
-2.77141
-2.16787
-1.68521
-1.30182
-0.999322
-0.762278
-0.577783
-0.435164
-0.325666
-0.24217
-0.178933
-0.131367
-0.0958298
-0.0694602
-0.0500256
-0.0357988
-0.0254546
-0.017984
-0.012625
-0.00880643
-0.00610375
-0.00420361
-0.0028766
-0.001956
-0.00132157
-0.000887259
-0.000591898
-0.000392357
-0.000258438
-0.00016915
-0.00011001
-7.10956e-05
-4.56591e-05
-2.91437e-05
-1.84951e-05
-1.16817e-05
-7.36348e-06
-4.6663e-06
-3.02895e-06
-2.10234e-06
-1.68493e-06
-5552.63
-4241.51
-2984.06
-2088.83
-1499.83
-1114.54
-856.418
-677.338
-548.363
-452.098
-377.891
-319.06
-271.296
-231.753
-198.502
-170.202
-145.905
-124.916
-106.718
-90.9113
-77.1807
-65.2678
-54.9559
-46.0585
-38.4117
-31.8693
-26.2998
-21.5839
-17.6134
-14.2902
-11.5259
-9.2409
-7.36415
-5.83276
-4.59141
-3.59185
-2.79238
-2.15725
-1.6561
-1.26334
-0.957624
-0.721283
-0.539816
-0.401432
-0.296621
-0.217777
-0.15887
-0.115158
-0.0829395
-0.059354
-0.0422045
-0.0298188
-0.0209336
-0.0146024
-0.0101211
-0.0069705
-0.00477011
-0.00324358
-0.00219157
-0.00147137
-0.000981578
-0.000650677
-0.000428594
-0.000280522
-0.000182445
-0.00011791
-7.57251e-05
-4.83351e-05
-3.06746e-05
-1.93746e-05
-1.22128e-05
-7.73947e-06
-5.02384e-06
-3.48699e-06
-2.79475e-06
-4164.62
-3579.8
-2849.5
-2207.54
-1710.09
-1341.68
-1070.97
-869.892
-717.624
-599.673
-506.194
-430.516
-368.089
-315.77
-271.355
-233.275
-200.389
-171.852
-147.017
-125.384
-106.548
-90.1736
-75.9779
-63.7136
-53.1618
-44.126
-36.428
-29.9056
-24.4112
-19.8105
-15.9819
-12.8161
-10.215
-8.0921
-6.37082
-4.98453
-3.87554
-2.99437
-2.29897
-1.7539
-1.32959
-1.00152
-0.749603
-0.557475
-0.411947
-0.302465
-0.220663
-0.159956
-0.115209
-0.0824508
-0.0586301
-0.0414255
-0.0290829
-0.0202876
-0.0140621
-0.00968493
-0.00662785
-0.00450693
-0.00304524
-0.00204455
-0.00136399
-0.000904194
-0.000595595
-0.000389835
-0.000253545
-0.000163862
-0.000105239
-6.71749e-05
-4.26315e-05
-2.69272e-05
-1.69739e-05
-1.07569e-05
-6.98265e-06
-4.84666e-06
-3.88454e-06
-3359.09
-3061.27
-2624.4
-2179.67
-1789.42
-1469.46
-1214.42
-1012.46
-851.65
-722.128
-616.312
-528.595
-454.885
-392.208
-338.39
-291.832
-251.337
-215.995
-185.101
-158.09
-134.501
-113.946
-96.0902
-80.6385
-67.3263
-55.9136
-46.1812
-37.9284
-30.9714
-25.1425
-20.2893
-16.2744
-12.9745
-10.2802
-8.09501
-6.33461
-4.926
-3.80652
-2.92288
-2.23016
-1.69081
-1.27374
-0.953434
-0.709123
-0.524048
-0.384802
-0.28075
-0.203525
-0.146599
-0.104921
-0.0746123
-0.0527203
-0.0370141
-0.0258213
-0.0178984
-0.0123276
-0.00843666
-0.00573711
-0.00387658
-0.00260278
-0.00173645
-0.00115113
-0.000758275
-0.000496327
-0.000322814
-0.000208635
-0.000133997
-8.55332e-05
-5.42836e-05
-3.42877e-05
-2.16142e-05
-1.36979e-05
-8.89195e-06
-6.17206e-06
-4.94693e-06
-2848.37
-2678.87
-2404.34
-2094.67
-1796.04
-1530.18
-1302.98
-1112.35
-953.223
-820.05
-707.845
-612.504
-530.79
-460.201
-398.824
-345.189
-298.162
-256.854
-220.555
-188.684
-160.755
-136.35
-115.1
-96.6755
-80.7765
-67.1276
-55.4749
-45.5841
-37.2393
-30.2426
-24.4134
-19.5885
-15.621
-12.3802
-9.75084
-7.63192
-5.93593
-4.58772
-3.52328
-2.68864
-2.03868
-1.53598
-1.14986
-0.855305
-0.632137
-0.464212
-0.338714
-0.245564
-0.176893
-0.12661
-0.090042
-0.0636266
-0.0446736
-0.0311663
-0.0216045
-0.0148808
-0.0101844
-0.00692593
-0.00468005
-0.00314236
-0.00209651
-0.00138987
-0.000915565
-0.000599299
-0.000389799
-0.000251935
-0.000161811
-0.000103291
-6.5555e-05
-4.14083e-05
-2.61036e-05
-1.65435e-05
-1.07395e-05
-7.45465e-06
-5.97508e-06
-2503.52
-2397.96
-2216.03
-1995.46
-1766.98
-1549.67
-1352.74
-1178.91
-1027.43
-896.005
-781.925
-682.591
-595.738
-519.487
-452.311
-392.983
-340.516
-294.108
-253.096
-216.921
-185.1
-157.207
-132.857
-111.7
-93.409
-77.683
-64.2396
-52.8162
-43.1692
-35.074
-28.3249
-22.735
-18.136
-14.3776
-11.327
-8.86765
-6.89854
-5.33274
-4.09618
-3.12634
-2.37092
-1.78655
-1.33761
-0.995079
-0.735523
-0.540188
-0.394189
-0.285808
-0.205899
-0.147383
-0.104823
-0.0740763
-0.0520139
-0.0362894
-0.0251572
-0.0173288
-0.0118605
-0.0080661
-0.00545074
-0.00365999
-0.00244196
-0.00161895
-0.00106651
-0.000698128
-0.000454096
-0.000293501
-0.000188514
-0.00012034
-7.6378e-05
-4.82462e-05
-3.04152e-05
-1.92766e-05
-1.25142e-05
-8.68683e-06
-6.96288e-06
-2260.01
-2189.28
-2062.39
-1900.45
-1723.34
-1545.77
-1376.8
-1221
-1079.93
-953.455
-840.573
-739.966
-650.284
-570.284
-498.877
-435.133
-378.266
-327.604
-282.568
-242.652
-207.4
-176.397
-149.257
-125.62
-105.147
-87.5155
-72.4218
-59.5806
-48.725
-39.6075
-32.0001
-25.6951
-20.5046
-16.2605
-12.8141
-10.0345
-7.80818
-6.03724
-4.63825
-3.54072
-2.68563
-2.02401
-1.51562
-1.12765
-0.833618
-0.612303
-0.446861
-0.32403
-0.233457
-0.167124
-0.118872
-0.0840112
-0.0589942
-0.0411623
-0.0285371
-0.0196581
-0.0134555
-0.00915135
-0.00618443
-0.00415284
-0.00277092
-0.00183712
-0.00121029
-0.000792275
-0.000515354
-0.000333108
-0.000213961
-0.000136589
-8.66942e-05
-5.47646e-05
-3.45257e-05
-2.18826e-05
-1.42065e-05
-9.86197e-06
-7.90499e-06
-2082.42
-2032.08
-1939.28
-1816.39
-1676.31
-1529.85
-1384.76
-1245.92
-1115.96
-995.989
-886.168
-786.158
-695.375
-613.153
-538.832
-471.791
-411.462
-357.333
-308.93
-265.819
-227.589
-193.853
-164.237
-138.382
-115.941
-96.582
-79.9847
-65.8463
-53.881
-43.8218
-35.4217
-28.4546
-22.7153
-18.02
-14.2051
-11.1269
-8.66048
-6.69782
-5.14688
-3.92978
-2.98128
-2.24721
-1.68302
-1.25238
-0.925953
-0.680209
-0.496477
-0.360048
-0.259433
-0.185737
-0.132124
-0.0933842
-0.0655813
-0.0457617
-0.031728
-0.0218577
-0.014962
-0.0101766
-0.00687764
-0.00461858
-0.00308184
-0.00204336
-0.00134622
-0.000881297
-0.000573285
-0.000370568
-0.000238032
-0.000151962
-9.6455e-05
-6.09328e-05
-3.84158e-05
-2.43492e-05
-1.58085e-05
-1.09746e-05
-8.79705e-06
-1949.84
-1912.11
-1841.24
-1744.81
-1631.37
-1508.74
-1383.2
-1259.28
-1139.93
-1026.9
-921.082
-822.833
-732.154
-648.864
-572.681
-503.276
-440.302
-383.406
-332.237
-286.441
-245.667
-209.563
-177.778
-149.961
-125.768
-104.86
-86.9078
-71.5951
-58.6213
-47.7034
-38.5784
-31.0042
-24.7606
-19.6497
-15.4949
-12.1409
-9.45231
-7.31205
-5.62018
-4.29207
-3.25677
-2.45531
-1.83918
-1.3688
-1.01217
-0.743648
-0.542848
-0.393722
-0.283729
-0.203152
-0.144526
-0.102159
-0.0717498
-0.05007
-0.0347177
-0.023919
-0.0163741
-0.0111377
-0.0075277
-0.00505541
-0.00337351
-0.00223686
-0.00147377
-0.000964849
-0.000627665
-0.000405737
-0.000260634
-0.000166398
-0.000105623
-6.67269e-05
-4.20705e-05
-2.66668e-05
-1.7314e-05
-1.20202e-05
-9.63559e-06
-1849.11
-1819.55
-1763.26
-1685.11
-1590.9
-1486.35
-1376.44
-1265.11
-1155.29
-1048.97
-947.482
-851.619
-761.821
-678.282
-601.039
-530.02
-465.08
-406.026
-352.622
-304.605
-261.686
-223.557
-189.894
-160.364
-134.627
-112.346
-93.1856
-76.8208
-62.9396
-51.2464
-41.4647
-33.3391
-26.6364
-21.1462
-16.6807
-13.0742
-10.1818
-7.87845
-6.05699
-4.62669
-3.51139
-2.64777
-1.9837
-1.4766
-1.09205
-0.802447
-0.585848
-0.424962
-0.306277
-0.21932
-0.156044
-0.110311
-0.0774822
-0.0540749
-0.0374976
-0.0258362
-0.0176878
-0.0120321
-0.00813272
-0.00546206
-0.00364508
-0.00241706
-0.00159259
-0.00104269
-0.000678334
-0.000438511
-0.0002817
-0.000179855
-0.00011417
-7.21297e-05
-4.54789e-05
-2.88286e-05
-1.87184e-05
-1.29958e-05
-1.04181e-05
-1771.61
-1747.52
-1701.19
-1635.88
-1555.67
-1464.8
-1367.2
-1266.25
-1164.65
-1064.47
-967.226
-873.999
-785.525
-702.284
-624.565
-552.511
-486.158
-425.453
-370.275
-320.446
-275.742
-235.901
-200.632
-169.62
-142.539
-119.053
-98.8261
-81.528
-66.8383
-54.4517
-44.0807
-35.4589
-28.342
-22.5089
-17.7618
-13.926
-10.8483
-8.39645
-6.45683
-4.93323
-3.74483
-2.82435
-2.11637
-1.57562
-1.16547
-0.85652
-0.625411
-0.453718
-0.32704
-0.234215
-0.166659
-0.117827
-0.0827688
-0.0577695
-0.0400629
-0.0276059
-0.0189008
-0.0128581
-0.00869161
-0.00583779
-0.00389605
-0.00258364
-0.00170244
-0.00111466
-0.000725197
-0.000468829
-0.000301191
-0.000192308
-0.00012208
-7.71307e-05
-4.86344e-05
-3.08302e-05
-2.00191e-05
-1.38996e-05
-1.11429e-05
-1711.4
-1691.09
-1651.71
-1595.58
-1525.65
-1445.12
-1357.16
-1264.62
-1169.95
-1075.16
-981.85
-891.257
-804.314
-721.707
-643.916
-571.26
-503.926
-441.985
-385.419
-334.132
-287.96
-246.689
-210.06
-177.782
-149.541
-125.008
-103.849
-85.7307
-70.3274
-57.3263
-46.4315
-37.3671
-29.8797
-23.7392
-18.7392
-14.697
-11.4523
-8.86633
-6.81987
-5.21181
-3.95714
-2.98507
-2.23721
-1.66587
-1.23242
-0.905859
-0.661529
-0.479983
-0.346014
-0.247832
-0.176367
-0.124703
-0.0876074
-0.0611521
-0.0424124
-0.0292272
-0.0200123
-0.0136153
-0.00920404
-0.00618237
-0.00412628
-0.00273647
-0.00180324
-0.00118073
-0.00076822
-0.000496668
-0.000319091
-0.000203747
-0.000129348
-8.17261e-05
-5.15344e-05
-3.26701e-05
-2.12149e-05
-1.47305e-05
-1.18094e-05
-1664.31
-1646.65
-1612.24
-1562.75
-1500.42
-1427.75
-1347.29
-1261.5
-1172.56
-1082.39
-992.587
-904.475
-819.108
-737.311
-659.712
-586.766
-518.78
-455.935
-398.301
-345.853
-298.488
-256.034
-218.266
-184.915
-155.683
-130.249
-108.283
-89.4506
-73.4233
-59.8825
-48.5259
-39.0703
-31.2545
-24.8408
-19.6156
-15.3892
-11.9952
-9.28913
-7.14686
-5.46295
-4.14871
-3.1302
-2.34641
-1.74748
-1.293
-0.95053
-0.694248
-0.503788
-0.36322
-0.260185
-0.185178
-0.130946
-0.0920024
-0.0642258
-0.0445479
-0.0307013
-0.0210233
-0.0143041
-0.00967038
-0.00649604
-0.0043359
-0.00287566
-0.00189507
-0.00124093
-0.000807428
-0.000522043
-0.00033541
-0.000214177
-0.000135976
-8.59179e-05
-5.41801e-05
-3.4349e-05
-2.23062e-05
-1.5489e-05
-1.24181e-05
-1627.3
-1611.54
-1580.72
-1536.11
-1479.44
-1412.73
-1338.12
-1257.69
-1173.44
-1087.15
-1000.4
-914.538
-830.687
-749.771
-672.521
-599.497
-531.106
-467.614
-409.169
-355.809
-307.484
-264.061
-225.347
-191.096
-161.025
-134.823
-112.164
-92.7157
-76.1471
-62.1366
-50.3766
-40.5781
-32.4736
-25.8192
-20.3951
-16.0057
-12.4793
-9.66653
-7.43903
-5.68757
-4.32019
-3.26022
-2.44432
-1.82071
-1.3474
-0.990663
-0.72366
-0.5252
-0.378703
-0.271307
-0.193114
-0.136573
-0.0959645
-0.0669977
-0.0464745
-0.0320317
-0.0219359
-0.0149262
-0.0100916
-0.00677945
-0.00452535
-0.00300149
-0.00197811
-0.00129537
-0.000842896
-0.000545002
-0.000350178
-0.000223618
-0.000141976
-8.97135e-05
-5.65762e-05
-3.58698e-05
-2.3295e-05
-1.61765e-05
-1.29696e-05
-1598.11
-1583.75
-1555.55
-1514.54
-1462.13
-1399.97
-1329.89
-1253.72
-1173.26
-1090.2
-1006.04
-922.159
-839.704
-759.664
-682.844
-609.883
-541.262
-477.321
-418.269
-364.201
-315.11
-270.901
-231.408
-196.409
-165.633
-138.782
-115.533
-95.5579
-78.5242
-64.1081
-51.9986
-41.902
-33.5459
-26.6811
-21.0827
-16.5503
-12.9075
-10.0007
-7.69805
-5.8869
-4.47251
-3.3758
-2.53143
-1.8859
-1.39586
-1.02644
-0.749898
-0.544311
-0.392531
-0.281245
-0.200209
-0.141604
-0.0995094
-0.0694788
-0.0481997
-0.0332233
-0.0227537
-0.0154838
-0.0104693
-0.00703363
-0.0046953
-0.00311439
-0.00205263
-0.00134425
-0.000874746
-0.000565624
-0.000363446
-0.000232102
-0.000147369
-9.31254e-05
-5.87306e-05
-3.72374e-05
-2.41843e-05
-1.67949e-05
-1.34659e-05
-1575.05
-1561.7
-1535.45
-1497.14
-1447.93
-1389.26
-1322.69
-1249.88
-1172.48
-1092.05
-1010.08
-927.902
-846.694
-767.481
-691.119
-618.304
-549.576
-485.333
-425.835
-371.222
-321.525
-276.684
-236.557
-200.939
-169.578
-142.181
-118.435
-98.0122
-80.5819
-65.8187
-53.4088
-43.0553
-34.4816
-27.4345
-21.6846
-17.0276
-13.2832
-10.2944
-7.92588
-6.0624
-4.60675
-3.47776
-2.60833
-1.9435
-1.43871
-1.0581
-0.773127
-0.561241
-0.404786
-0.290058
-0.206504
-0.146071
-0.102657
-0.071683
-0.0497329
-0.0342828
-0.0234811
-0.0159798
-0.0108054
-0.00725991
-0.00484665
-0.00321497
-0.00211904
-0.00138781
-0.000903137
-0.000584011
-0.000375278
-0.000239669
-0.00015218
-9.617e-05
-6.06534e-05
-3.84583e-05
-2.49784e-05
-1.73471e-05
-1.39092e-05
-1556.81
-1544.22
-1519.43
-1483.13
-1436.35
-1380.35
-1316.51
-1246.35
-1171.38
-1093.11
-1012.95
-932.211
-852.091
-773.629
-697.717
-625.093
-556.342
-491.905
-432.083
-377.055
-326.884
-281.538
-240.896
-204.773
-172.927
-145.077
-120.915
-100.115
-82.3493
-67.2912
-54.6253
-44.052
-35.2917
-28.0878
-22.2074
-17.4428
-13.6104
-10.5504
-8.12473
-6.21573
-4.72414
-3.567
-2.6757
-1.994
-1.4763
-1.08589
-0.793535
-0.576124
-0.415567
-0.297814
-0.212047
-0.150005
-0.105432
-0.0736267
-0.0510854
-0.0352178
-0.0241232
-0.0164179
-0.0111024
-0.00745987
-0.00498044
-0.0033039
-0.00217776
-0.00142634
-0.00092826
-0.000600285
-0.000385753
-0.000246369
-0.000156442
-9.88671e-05
-6.2357e-05
-3.95403e-05
-2.56824e-05
-1.78368e-05
-1.43022e-05
-1542.39
-1530.37
-1506.66
-1471.89
-1426.96
-1373
-1311.29
-1243.2
-1170.18
-1093.64
-1014.96
-935.429
-856.24
-778.444
-702.954
-630.539
-561.816
-497.261
-437.209
-381.868
-331.33
-285.582
-244.527
-207.993
-175.751
-147.526
-123.017
-101.903
-83.8556
-68.5489
-55.6665
-44.9067
-35.9877
-28.6499
-22.6579
-17.801
-13.8932
-10.7719
-8.29696
-6.34868
-4.82603
-3.64453
-2.73427
-2.03795
-1.50904
-1.11011
-0.811332
-0.589111
-0.42498
-0.30459
-0.216892
-0.153446
-0.10786
-0.0753279
-0.0522697
-0.0360368
-0.0246859
-0.016802
-0.0113628
-0.00763529
-0.00509783
-0.00338195
-0.00222933
-0.00146019
-0.000950329
-0.000614584
-0.000394959
-0.000252259
-0.000160188
-0.000101239
-6.38556e-05
-4.04922e-05
-2.63018e-05
-1.82678e-05
-1.46482e-05
-1530.99
-1519.39
-1496.5
-1462.89
-1419.38
-1366.99
-1306.92
-1240.46
-1168.97
-1093.82
-1016.35
-937.824
-859.42
-782.2
-707.092
-634.885
-566.221
-501.602
-441.389
-385.815
-334.992
-288.93
-247.545
-210.679
-178.113
-149.581
-124.787
-103.412
-85.1297
-69.6152
-56.551
-45.6342
-36.581
-29.1299
-23.0432
-18.1078
-14.1357
-10.9621
-8.445
-6.46308
-4.91379
-3.71137
-2.78481
-2.0759
-1.53733
-1.13106
-0.826735
-0.600358
-0.433136
-0.310465
-0.221095
-0.156433
-0.109968
-0.076806
-0.0532991
-0.036749
-0.0251754
-0.0171362
-0.0115895
-0.00778804
-0.00520009
-0.00344996
-0.00227427
-0.00148969
-0.000969574
-0.000627056
-0.00040299
-0.000257399
-0.000163458
-0.00010331
-6.51642e-05
-4.13236e-05
-2.68429e-05
-1.86444e-05
-1.49506e-05
-1521.99
-1510.72
-1488.45
-1455.71
-1413.28
-1362.1
-1303.3
-1238.11
-1167.84
-1093.8
-1017.31
-939.598
-861.849
-785.119
-710.348
-638.336
-569.747
-505.1
-444.777
-389.03
-337.99
-291.681
-250.035
-212.903
-180.076
-151.294
-126.266
-104.676
-86.1995
-70.5124
-57.2967
-46.2486
-37.0831
-29.5367
-23.3702
-18.3686
-14.342
-11.1241
-8.5713
-6.56079
-4.98882
-3.76857
-2.8281
-2.10843
-1.56161
-1.14905
-0.839967
-0.610027
-0.440153
-0.315522
-0.224715
-0.159007
-0.111785
-0.0780807
-0.0541873
-0.0373638
-0.025598
-0.0174249
-0.0117854
-0.00792008
-0.00528852
-0.00350879
-0.00231315
-0.00151523
-0.000986235
-0.000637856
-0.000409947
-0.000261852
-0.000166292
-0.000105104
-6.62985e-05
-4.20444e-05
-2.73122e-05
-1.8971e-05
-1.5213e-05
-1514.9
-1503.87
-1482.08
-1450.01
-1408.39
-1358.15
-1300.33
-1236.14
-1166.82
-1093.67
-1017.95
-940.907
-863.697
-787.379
-712.898
-641.065
-572.555
-507.903
-447.507
-391.634
-340.428
-293.928
-252.076
-214.732
-181.695
-152.711
-127.492
-105.727
-87.0913
-71.2619
-57.9209
-46.7639
-37.5048
-29.879
-23.6457
-18.5887
-14.5164
-11.2612
-8.67824
-6.64361
-5.05248
-3.81715
-2.8649
-2.13611
-1.58228
-1.16437
-0.851251
-0.618277
-0.446143
-0.319842
-0.227809
-0.161208
-0.11334
-0.0791721
-0.0549481
-0.0378906
-0.0259604
-0.0176724
-0.0119534
-0.0080334
-0.00536443
-0.00355931
-0.00234656
-0.00153717
-0.00100055
-0.00064714
-0.000415929
-0.000265682
-0.00016873
-0.000106649
-6.72748e-05
-4.26649e-05
-2.77162e-05
-1.92523e-05
-1.54389e-05
-1509.33
-1498.49
-1477.05
-1445.49
-1404.5
-1354.97
-1297.92
-1234.5
-1165.93
-1093.47
-1018.38
-941.869
-865.098
-789.123
-714.887
-643.212
-574.78
-510.137
-449.695
-393.73
-342.4
-295.752
-253.738
-216.226
-183.022
-153.876
-128.503
-106.595
-87.8292
-71.8834
-58.4394
-47.1927
-37.8563
-30.1648
-23.8761
-18.7729
-14.6626
-11.3763
-8.76814
-6.7133
-5.10611
-3.8581
-2.89596
-2.15948
-1.59974
-1.17734
-0.860802
-0.625266
-0.451221
-0.323506
-0.230434
-0.163076
-0.114661
-0.0800996
-0.055595
-0.0383386
-0.0262687
-0.0178832
-0.0120965
-0.00812994
-0.00542912
-0.00360238
-0.00237504
-0.00155588
-0.00101277
-0.000655064
-0.000421035
-0.000268952
-0.000170812
-0.000107968
-6.81088e-05
-4.31952e-05
-2.80616e-05
-1.94928e-05
-1.56321e-05
-1504.96
-1494.26
-1473.09
-1441.92
-1401.42
-1352.43
-1295.97
-1233.14
-1165.16
-1093.25
-1018.65
-942.573
-866.158
-790.463
-716.433
-644.893
-576.534
-511.909
-451.438
-395.407
-343.983
-297.222
-255.082
-217.439
-184.102
-154.826
-129.33
-107.306
-88.4357
-72.3951
-58.8673
-47.5471
-38.1474
-30.4017
-24.0674
-18.9261
-14.7842
-11.4722
-8.84315
-6.77151
-5.15094
-3.89238
-2.92197
-2.17908
-1.6144
-1.18822
-0.868828
-0.631142
-0.455493
-0.32659
-0.232646
-0.164651
-0.115775
-0.0808821
-0.056141
-0.0387171
-0.0265292
-0.0180613
-0.0122175
-0.00821159
-0.00548385
-0.00363883
-0.00239915
-0.00157173
-0.00102312
-0.000661777
-0.000425362
-0.000271724
-0.000172577
-0.000109086
-6.88163e-05
-4.36451e-05
-2.83546e-05
-1.96969e-05
-1.57961e-05
-1501.54
-1490.95
-1469.99
-1439.12
-1398.98
-1350.41
-1294.4
-1232.04
-1164.51
-1093.03
-1018.82
-943.085
-866.956
-791.489
-717.629
-646.205
-577.91
-513.307
-452.819
-396.742
-345.248
-298.401
-256.164
-218.417
-184.975
-155.596
-130.001
-107.886
-88.9305
-72.8136
-59.2177
-47.838
-38.3866
-30.5968
-24.2251
-19.0526
-14.8848
-11.5515
-8.90528
-6.81978
-5.18816
-3.92086
-2.9436
-2.19539
-1.62661
-1.19729
-0.875524
-0.636048
-0.459062
-0.329169
-0.234496
-0.165969
-0.116708
-0.0815376
-0.0565985
-0.0390343
-0.0267477
-0.0182108
-0.0123191
-0.00828015
-0.00552983
-0.00366945
-0.00241942
-0.00158505
-0.00103182
-0.000667424
-0.000429003
-0.000274056
-0.000174063
-0.000110028
-6.9412e-05
-4.40239e-05
-2.86015e-05
-1.98689e-05
-1.59343e-05
-1498.89
-1488.37
-1467.57
-1436.92
-1397.06
-1348.82
-1293.15
-1231.15
-1163.97
-1092.83
-1018.92
-943.457
-867.556
-792.272
-718.551
-647.223
-578.985
-514.403
-453.907
-397.798
-346.253
-299.34
-257.027
-219.201
-185.676
-156.216
-130.543
-108.354
-89.3316
-73.1533
-59.5028
-48.0749
-38.5818
-30.7562
-24.3542
-19.1562
-14.9673
-11.6167
-8.95638
-6.85952
-5.21883
-3.94435
-2.96146
-2.20887
-1.63671
-1.2048
-0.881069
-0.640113
-0.462022
-0.331308
-0.236032
-0.167064
-0.117483
-0.0820827
-0.0569792
-0.0392984
-0.0269297
-0.0183353
-0.0124037
-0.00833731
-0.00556817
-0.003695
-0.00243633
-0.00159618
-0.00103909
-0.000672141
-0.000432044
-0.000276005
-0.000175304
-0.000110815
-6.991e-05
-4.43407e-05
-2.88079e-05
-2.00127e-05
-1.60499e-05
-1496.82
-1486.37
-1465.69
-1435.21
-1395.56
-1347.56
-1292.17
-1230.44
-1163.53
-1092.64
-1018.98
-943.725
-868.005
-792.867
-719.259
-648.01
-579.821
-515.26
-454.761
-398.629
-347.046
-300.083
-257.713
-219.825
-186.236
-156.713
-130.978
-108.731
-89.6545
-73.4273
-59.733
-48.2666
-38.74
-30.8856
-24.4591
-19.2405
-15.0346
-11.6699
-8.9981
-6.89201
-5.24393
-3.96359
-2.9761
-2.21993
-1.645
-1.21098
-0.885629
-0.643459
-0.464459
-0.333071
-0.237298
-0.167967
-0.118123
-0.0825328
-0.0572937
-0.0395166
-0.0270801
-0.0184383
-0.0124738
-0.00838462
-0.00559991
-0.00371616
-0.00245034
-0.00160539
-0.00104511
-0.000676051
-0.000434566
-0.000277622
-0.000176334
-0.000111468
-7.03234e-05
-4.46037e-05
-2.89793e-05
-2.01322e-05
-1.61459e-05
-1495.23
-1484.82
-1464.23
-1433.88
-1394.4
-1346.58
-1291.39
-1229.87
-1163.17
-1092.49
-1019.01
-943.918
-868.339
-793.318
-719.8
-648.615
-580.467
-515.925
-455.426
-399.279
-347.668
-300.668
-258.255
-220.318
-186.68
-157.107
-131.324
-109.032
-89.9126
-73.6468
-59.9178
-48.4207
-38.8673
-30.9898
-24.5437
-19.3087
-15.089
-11.713
-9.03193
-6.91837
-5.26432
-3.97924
-2.98802
-2.22893
-1.65176
-1.21601
-0.889351
-0.646191
-0.466451
-0.334513
-0.238334
-0.168707
-0.118647
-0.0829018
-0.0575516
-0.0396957
-0.0272036
-0.0185229
-0.0125313
-0.0084235
-0.00562601
-0.00373356
-0.00246187
-0.00161298
-0.00105007
-0.00067927
-0.000436643
-0.000278953
-0.000177183
-0.000112007
-7.0664e-05
-4.48205e-05
-2.91206e-05
-2.02306e-05
-1.62251e-05
-1494
-1483.63
-1463.1
-1432.85
-1393.49
-1345.82
-1290.78
-1229.42
-1162.88
-1092.35
-1019.02
-944.056
-868.588
-793.658
-720.211
-649.079
-580.964
-516.439
-455.942
-399.785
-348.154
-301.126
-258.68
-220.707
-187.03
-157.419
-131.598
-109.27
-90.1177
-73.8214
-60.065
-48.5437
-38.969
-31.0733
-24.6115
-19.3633
-15.1327
-11.7476
-9.05917
-6.93962
-5.28076
-3.99187
-2.99765
-2.23622
-1.65723
-1.22009
-0.892369
-0.648408
-0.468068
-0.335684
-0.239177
-0.169308
-0.119074
-0.0832021
-0.0577616
-0.0398416
-0.0273042
-0.0185918
-0.0125782
-0.00845522
-0.00564731
-0.00374777
-0.00247128
-0.00161917
-0.00105412
-0.000681901
-0.000438341
-0.000280042
-0.000177877
-0.000112447
-7.09428e-05
-4.49978e-05
-2.92362e-05
-2.03112e-05
-1.62898e-05
-1493.05
-1482.71
-1462.24
-1432.06
-1392.79
-1345.23
-1290.3
-1229.07
-1162.65
-1092.24
-1019.02
-944.154
-868.772
-793.913
-720.523
-649.432
-581.345
-516.834
-456.341
-400.176
-348.531
-301.483
-259.011
-221.01
-187.304
-157.663
-131.814
-109.458
-90.2795
-73.9594
-60.1816
-48.6412
-39.0498
-31.1396
-24.6655
-19.4069
-15.1675
-11.7753
-9.08095
-6.95662
-5.29394
-4.002
-3.00538
-2.24207
-1.66163
-1.22337
-0.894797
-0.650194
-0.469371
-0.336628
-0.239856
-0.169794
-0.119418
-0.0834447
-0.0579315
-0.0399596
-0.0273856
-0.0186477
-0.0126162
-0.00848092
-0.00566457
-0.00375929
-0.00247892
-0.0016242
-0.0010574
-0.000684036
-0.000439719
-0.000280926
-0.00017844
-0.000112804
-7.11691e-05
-4.51419e-05
-2.93302e-05
-2.03767e-05
-1.63425e-05
-1492.33
-1482.01
-1461.57
-1431.45
-1392.26
-1344.77
-1289.94
-1228.79
-1162.47
-1092.15
-1019.01
-944.223
-868.907
-794.104
-720.759
-649.7
-581.635
-517.136
-456.646
-400.477
-348.822
-301.758
-259.268
-221.246
-187.518
-157.854
-131.982
-109.605
-90.4063
-74.0678
-60.2732
-48.7179
-39.1135
-31.192
-24.7082
-19.4414
-15.1952
-11.7972
-9.09824
-6.97014
-5.30442
-4.01006
-3.01153
-2.24674
-1.66513
-1.22599
-0.896738
-0.651622
-0.470414
-0.337384
-0.2404
-0.170183
-0.119694
-0.0836395
-0.0580678
-0.0400543
-0.0274511
-0.0186925
-0.0126468
-0.00850159
-0.00567846
-0.00376856
-0.00248506
-0.00162824
-0.00106005
-0.000685757
-0.00044083
-0.000281639
-0.000178895
-0.000113093
-7.13517e-05
-4.52582e-05
-2.9406e-05
-2.04296e-05
-1.63849e-05
-1491.79
-1481.48
-1461.07
-1430.99
-1391.85
-1344.43
-1289.66
-1228.58
-1162.33
-1092.08
-1019
-944.272
-869.007
-794.247
-720.935
-649.903
-581.855
-517.366
-456.879
-400.708
-349.045
-301.97
-259.465
-221.428
-187.683
-158.001
-132.113
-109.719
-90.5051
-74.1523
-60.3448
-48.778
-39.1634
-31.233
-24.7417
-19.4685
-15.2169
-11.8145
-9.11187
-6.98081
-5.3127
-4.01644
-3.01641
-2.25043
-1.66792
-1.22806
-0.898279
-0.652756
-0.471243
-0.337986
-0.240834
-0.170493
-0.119914
-0.0837947
-0.0581765
-0.0401299
-0.0275033
-0.0187284
-0.0126712
-0.00851811
-0.00568956
-0.00377597
-0.00248998
-0.00163148
-0.00106217
-0.000687133
-0.000441719
-0.000282209
-0.000179258
-0.000113323
-7.14978e-05
-4.53513e-05
-2.94667e-05
-2.04719e-05
-1.6419e-05
-1491.37
-1481.08
-1460.69
-1430.64
-1391.54
-1344.16
-1289.44
-1228.42
-1162.22
-1092.02
-1018.99
-944.306
-869.08
-794.353
-721.068
-650.055
-582.021
-517.54
-457.056
-400.883
-349.215
-302.132
-259.617
-221.567
-187.81
-158.115
-132.214
-109.807
-90.5816
-74.2178
-60.4004
-48.8247
-39.2022
-31.265
-24.7679
-19.4897
-15.2339
-11.828
-9.12255
-6.98917
-5.31919
-4.02145
-3.02023
-2.25334
-1.6701
-1.2297
-0.899493
-0.65365
-0.471897
-0.33846
-0.241176
-0.170738
-0.120088
-0.0839175
-0.0582625
-0.0401898
-0.0275446
-0.0187567
-0.0126906
-0.00853121
-0.00569837
-0.00378185
-0.00249388
-0.00163405
-0.00106385
-0.000688227
-0.000442425
-0.000282662
-0.000179548
-0.000113507
-7.1614e-05
-4.54252e-05
-2.9515e-05
-2.05055e-05
-1.6446e-05
-1491.06
-1480.77
-1460.4
-1430.38
-1391.3
-1343.96
-1289.28
-1228.3
-1162.14
-1091.97
-1018.98
-944.329
-869.133
-794.431
-721.166
-650.169
-582.146
-517.671
-457.19
-401.016
-349.344
-302.255
-259.732
-221.674
-187.907
-158.202
-132.291
-109.875
-90.6404
-74.2683
-60.4432
-48.8607
-39.2322
-31.2898
-24.7881
-19.5061
-15.2471
-11.8386
-9.13085
-6.99568
-5.32425
-4.02535
-3.02322
-2.25561
-1.67182
-1.23098
-0.900444
-0.654351
-0.472409
-0.338833
-0.241444
-0.17093
-0.120225
-0.084014
-0.0583301
-0.0402369
-0.0275772
-0.0187791
-0.0127058
-0.00854152
-0.00570531
-0.00378649
-0.00249695
-0.00163608
-0.00106518
-0.000689089
-0.000442982
-0.00028302
-0.000179776
-0.000113652
-7.17058e-05
-4.54837e-05
-2.95531e-05
-2.05321e-05
-1.64674e-05
-1490.83
-1480.54
-1460.19
-1430.18
-1391.12
-1343.81
-1289.15
-1228.2
-1162.07
-1091.93
-1018.97
-944.346
-869.172
-794.488
-721.239
-650.254
-582.239
-517.77
-457.29
-401.116
-349.441
-302.348
-259.82
-221.755
-187.98
-158.269
-132.35
-109.927
-90.6853
-74.3068
-60.476
-48.8883
-39.2553
-31.3088
-24.8037
-19.5187
-15.2572
-11.8467
-9.13727
-7.00071
-5.32817
-4.02838
-3.02554
-2.25737
-1.67314
-1.23197
-0.901183
-0.654896
-0.472808
-0.339123
-0.241654
-0.17108
-0.120332
-0.0840893
-0.0583829
-0.0402737
-0.0276026
-0.0187966
-0.0127177
-0.00854959
-0.00571074
-0.00379011
-0.00249936
-0.00163766
-0.00106622
-0.000689765
-0.000443419
-0.0002833
-0.000179954
-0.000113765
-7.17777e-05
-4.55295e-05
-2.9583e-05
-2.0553e-05
-1.64841e-05
-1490.66
-1480.38
-1460.03
-1430.03
-1390.99
-1343.69
-1289.06
-1228.13
-1162.02
-1091.91
-1018.96
-944.357
-869.199
-794.53
-721.293
-650.316
-582.308
-517.843
-457.365
-401.191
-349.514
-302.418
-259.885
-221.816
-188.036
-158.319
-132.395
-109.966
-90.7194
-74.3362
-60.501
-48.9094
-39.2728
-31.3234
-24.8156
-19.5284
-15.265
-11.8529
-9.14219
-7.00458
-5.33118
-4.0307
-3.02732
-2.25872
-1.67417
-1.23274
-0.901753
-0.655316
-0.473116
-0.339347
-0.241815
-0.171196
-0.120414
-0.0841476
-0.0584239
-0.0403022
-0.0276224
-0.0188101
-0.0127269
-0.00855586
-0.00571495
-0.00379293
-0.00250123
-0.0016389
-0.00106702
-0.00069029
-0.000443758
-0.000283518
-0.000180094
-0.000113854
-7.18336e-05
-4.55651e-05
-2.96062e-05
-2.05692e-05
-1.64972e-05
-1490.53
-1480.25
-1459.91
-1429.92
-1390.89
-1343.61
-1288.99
-1228.08
-1161.98
-1091.89
-1018.96
-944.365
-869.219
-794.561
-721.332
-650.363
-582.359
-517.897
-457.421
-401.247
-349.569
-302.47
-259.935
-221.861
-188.078
-158.356
-132.428
-109.995
-90.7451
-74.3583
-60.5199
-48.9253
-39.2862
-31.3344
-24.8246
-19.5357
-15.271
-11.8576
-9.14595
-7.00752
-5.33348
-4.03248
-3.02869
-2.25976
-1.67495
-1.23333
-0.90219
-0.655639
-0.473353
-0.339519
-0.24194
-0.171285
-0.120478
-0.0841925
-0.0584554
-0.0403241
-0.0276376
-0.0188206
-0.0127341
-0.00856069
-0.00571821
-0.00379511
-0.00250267
-0.00163985
-0.00106765
-0.000690696
-0.000444021
-0.000283686
-0.000180201
-0.000113922
-7.18769e-05
-4.55926e-05
-2.96242e-05
-2.05817e-05
-1.65072e-05
-1490.43
-1480.16
-1459.82
-1429.84
-1390.82
-1343.55
-1288.94
-1228.04
-1161.96
-1091.87
-1018.95
-944.37
-869.234
-794.583
-721.361
-650.397
-582.397
-517.937
-457.462
-401.288
-349.609
-302.509
-259.971
-221.895
-188.109
-158.385
-132.453
-110.018
-90.7644
-74.375
-60.5341
-48.9373
-39.2962
-31.3427
-24.8315
-19.5413
-15.2754
-11.8612
-9.14879
-7.00976
-5.33522
-4.03383
-3.02972
-2.26055
-1.67555
-1.23378
-0.902523
-0.655885
-0.473534
-0.33965
-0.242035
-0.171353
-0.120526
-0.0842268
-0.0584795
-0.0403409
-0.0276492
-0.0188286
-0.0127395
-0.00856439
-0.0057207
-0.00379677
-0.00250378
-0.00164058
-0.00106813
-0.000691008
-0.000444222
-0.000283816
-0.000180284
-0.000113974
-7.19101e-05
-4.56138e-05
-2.9638e-05
-2.05913e-05
-1.6515e-05
-1490.36
-1480.09
-1459.75
-1429.78
-1390.77
-1343.5
-1288.9
-1228.01
-1161.94
-1091.86
-1018.95
-944.373
-869.244
-794.599
-721.382
-650.421
-582.424
-517.966
-457.492
-401.318
-349.639
-302.537
-259.998
-221.92
-188.132
-158.405
-132.472
-110.034
-90.7788
-74.3874
-60.5447
-48.9462
-39.3037
-31.3489
-24.8366
-19.5455
-15.2788
-11.8639
-9.15093
-7.01144
-5.33654
-4.03485
-3.0305
-2.26115
-1.676
-1.23411
-0.902775
-0.656072
-0.47367
-0.33975
-0.242107
-0.171405
-0.120563
-0.0842529
-0.0584978
-0.0403537
-0.027658
-0.0188346
-0.0127437
-0.00856721
-0.0057226
-0.00379804
-0.00250462
-0.00164114
-0.00106849
-0.000691245
-0.000444375
-0.000283914
-0.000180346
-0.000114014
-7.19354e-05
-4.56299e-05
-2.96485e-05
-2.05986e-05
-1.65209e-05
-1490.31
-1480.04
-1459.71
-1429.73
-1390.73
-1343.47
-1288.87
-1227.98
-1161.92
-1091.85
-1018.95
-944.376
-869.251
-794.611
-721.397
-650.439
-582.444