/*--------------------------------*- C++ -*----------------------------------*\
  =========                 |
  \\      /  F ield         | OpenFOAM: The Open Source CFD Toolbox
   \\    /   O peration     | Website:  https://openfoam.org
    \\  /    A nd           | Version:  10
     \\/     M anipulation  |
\*---------------------------------------------------------------------------*/
FoamFile
{
    format      ascii;
    class       volScalarField;
    location    "322";
    object      T;
}
// * * * * * * * * * * * * * * * * * * * * * * * * * * * * * * * * * * * * * //

dimensions      [0 0 0 1 0 0 0];

internalField   nonuniform List<scalar> 
11250
(
249.835
167.535
139.324
126.896
120.11
115.803
112.79
110.542
108.792
107.386
106.233
105.273
104.464
103.777
103.192
102.692
102.265
101.899
101.586
101.32
101.094
100.903
100.741
100.606
100.493
100.398
100.321
100.257
100.204
100.162
100.127
100.1
100.078
100.06
100.046
100.035
100.027
100.02
100.015
100.011
100.008
100.006
100.005
100.003
100.002
100.002
100.001
100.001
100.001
100
100
100
100
100
100
100
100
100
100
100
100
100
100
100
100
100
100
100
100
100
100
100
100
100
100
331.477
248.521
202.2
175.059
157.87
146.139
137.629
131.158
126.061
121.939
118.541
115.7
113.302
111.264
109.524
108.036
106.761
105.67
104.738
103.944
103.269
102.697
102.215
101.811
101.472
101.191
100.959
100.767
100.611
100.484
100.381
100.298
100.232
100.18
100.138
100.106
100.08
100.061
100.046
100.034
100.025
100.019
100.014
100.01
100.007
100.005
100.004
100.003
100.002
100.001
100.001
100.001
100
100
100
100
100
100
100
100
100
100
100
100
100
100
100
100
100
100
100
100
100
100
100
359.037
292.893
245.93
213.318
190.228
173.323
160.507
150.485
142.445
135.862
130.389
125.785
121.88
118.55
115.7
113.257
111.161
109.366
107.83
106.52
105.406
104.462
103.666
102.997
102.437
101.972
101.588
101.271
101.012
100.801
100.631
100.494
100.384
100.298
100.229
100.175
100.133
100.101
100.076
100.056
100.042
100.031
100.023
100.017
100.012
100.009
100.006
100.004
100.003
100.002
100.002
100.001
100.001
100.001
100
100
100
100
100
100
100
100
100
100
100
100
100
100
100
100
100
100
100
100
100
370.825
318.118
275.364
242.132
216.496
196.529
180.718
167.97
157.521
148.833
141.529
135.335
130.049
125.519
121.628
118.283
115.408
112.939
110.825
109.019
107.481
106.178
105.077
104.152
103.378
102.734
102.201
101.763
101.404
101.112
100.875
100.685
100.534
100.413
100.318
100.243
100.185
100.14
100.105
100.078
100.058
100.043
100.032
100.023
100.017
100.012
100.009
100.006
100.004
100.003
100.002
100.001
100.001
100.001
100
100
100
100
100
100
100
100
100
100
100
100
100
100
100
100
100
100
100
100
100
376.986
333.438
295.352
263.454
237.228
215.736
198.042
183.352
171.043
160.641
151.786
144.206
137.691
132.076
127.232
123.052
119.45
116.35
113.69
111.414
109.474
107.827
106.435
105.265
104.285
103.469
102.794
102.238
101.783
101.412
101.112
100.871
100.678
100.525
100.404
100.309
100.235
100.178
100.134
100.1
100.074
100.055
100.04
100.029
100.021
100.015
100.011
100.008
100.005
100.004
100.003
100.002
100.001
100.001
100.001
100
100
100
100
100
100
100
100
100
100
100
100
100
100
100
100
100
100
100
100
380.687
343.356
309.251
279.241
253.393
231.346
212.588
196.6
182.925
171.181
161.057
152.305
144.724
138.15
132.452
127.515
123.247
119.564
116.397
113.683
111.366
109.396
107.73
106.327
105.151
104.173
103.361
102.693
102.146
101.7
101.339
101.049
100.817
100.633
100.487
100.373
100.283
100.214
100.161
100.12
100.089
100.066
100.048
100.035
100.026
100.018
100.013
100.009
100.007
100.005
100.003
100.002
100.002
100.001
100.001
100
100
100
100
100
100
100
100
100
100
100
100
100
100
100
100
100
100
100
100
383.118
350.122
319.172
291.028
265.96
243.908
224.635
207.835
193.198
180.437
169.304
159.586
151.102
143.699
137.249
131.638
126.769
122.557
118.926
115.808
113.142
110.872
108.95
107.329
105.971
104.838
103.899
103.125
102.491
101.974
101.556
101.219
100.949
100.735
100.566
100.433
100.33
100.249
100.187
100.14
100.104
100.077
100.056
100.041
100.03
100.021
100.015
100.011
100.008
100.005
100.004
100.003
100.002
100.001
100.001
100.001
100
100
100
100
100
100
100
100
100
100
100
100
100
100
100
100
100
100
100
384.808
354.925
326.427
299.928
275.748
253.972
234.528
217.258
201.968
188.459
176.543
166.044
156.81
148.703
141.603
135.4
129.999
125.313
121.263
117.778
114.792
112.247
110.088
108.267
106.738
105.463
104.405
103.532
102.816
102.232
101.76
101.379
101.074
100.832
100.641
100.49
100.373
100.282
100.212
100.159
100.118
100.087
100.064
100.047
100.034
100.024
100.017
100.012
100.009
100.006
100.004
100.003
100.002
100.001
100.001
100.001
100
100
100
100
100
100
100
100
100
100
100
100
100
100
100
100
100
100
100
386.03
358.439
331.841
306.725
283.404
262.023
242.608
225.096
209.383
195.337
182.823
171.706
161.859
153.163
145.508
138.794
132.927
127.822
123.398
119.584
116.31
113.515
111.14
109.135
107.45
106.043
104.875
103.91
103.119
102.473
101.95
101.529
101.191
100.923
100.711
100.544
100.414
100.313
100.236
100.176
100.131
100.097
100.071
100.052
100.037
100.027
100.019
100.014
100.01
100.007
100.005
100.003
100.002
100.002
100.001
100.001
100
100
100
100
100
100
100
100
100
100
100
100
100
100
100
100
100
100
100
386.936
361.068
335.946
311.968
289.418
268.465
249.185
231.58
215.604
201.182
188.22
176.62
166.278
157.096
148.975
141.824
135.554
130.083
125.33
121.223
117.692
114.672
112.103
109.931
108.104
106.577
105.308
104.26
103.399
102.697
102.127
101.668
101.3
101.008
100.776
100.594
100.452
100.342
100.257
100.192
100.143
100.106
100.077
100.057
100.041
100.03
100.021
100.015
100.011
100.007
100.005
100.004
100.003
100.002
100.001
100.001
100.001
100
100
100
100
100
100
100
100
100
100
100
100
100
100
100
100
100
100
387.622
363.068
339.101
316.048
294.164
273.624
254.528
236.919
220.792
206.111
192.82
180.845
170.11
160.53
152.022
144.502
137.888
132.1
127.061
122.697
118.938
115.719
112.977
110.655
108.7
107.065
105.704
104.58
103.656
102.901
102.289
101.796
101.4
101.085
100.836
100.641
100.488
100.369
100.278
100.208
100.154
100.114
100.084
100.061
100.044
100.032
100.023
100.016
100.011
100.008
100.006
100.004
100.003
100.002
100.001
100.001
100.001
100
100
100
100
100
100
100
100
100
100
100
100
100
100
100
100
100
100
388.148
364.609
341.548
319.244
297.924
277.759
258.863
241.301
225.096
210.243
196.71
184.45
173.404
163.503
154.676
146.848
139.943
133.884
128.597
124.01
120.052
116.657
113.761
111.307
109.238
107.506
106.063
104.87
103.889
103.088
102.437
101.912
101.492
101.157
100.891
100.683
100.52
100.394
100.296
100.221
100.165
100.122
100.089
100.065
100.047
100.034
100.024
100.017
100.012
100.009
100.006
100.004
100.003
100.002
100.001
100.001
100.001
100
100
100
100
100
100
100
100
100
100
100
100
100
100
100
100
100
100
388.556
365.806
343.461
321.761
300.912
281.077
262.375
244.886
228.652
213.687
199.981
187.504
176.214
166.056
156.968
148.885
141.735
135.447
129.949
125.169
121.038
117.49
114.46
111.888
109.719
107.901
106.386
105.131
104.1
103.256
102.571
102.018
101.574
101.221
100.941
100.721
100.549
100.416
100.313
100.234
100.174
100.129
100.094
100.069
100.05
100.036
100.026
100.018
100.013
100.009
100.006
100.004
100.003
100.002
100.001
100.001
100.001
100
100
100
100
100
100
100
100
100
100
100
100
100
100
100
100
100
100
388.875
366.744
344.964
323.751
303.291
283.739
265.217
247.812
231.577
216.543
202.714
190.074
178.594
168.231
158.933
150.639
143.286
136.805
131.127
126.184
121.905
118.224
115.077
112.404
110.146
108.252
106.673
105.364
104.287
103.406
102.691
102.112
101.649
101.279
100.986
100.756
100.576
100.436
100.328
100.245
100.183
100.135
100.099
100.072
100.052
100.038
100.027
100.019
100.014
100.01
100.007
100.005
100.003
100.002
100.002
100.001
100.001
100
100
100
100
100
100
100
100
100
100
100
100
100
100
100
100
100
100
389.125
367.481
346.15
325.328
305.187
285.876
267.515
250.193
233.976
218.901
204.985
192.224
180.598
170.072
160.604
152.139
144.617
137.976
132.147
127.065
122.659
118.865
115.618
112.856
110.522
108.562
106.926
105.571
104.454
103.54
102.797
102.197
101.715
101.331
101.026
100.787
100.6
100.454
100.342
100.256
100.19
100.141
100.103
100.075
100.055
100.039
100.028
100.02
100.014
100.01
100.007
100.005
100.003
100.002
100.002
100.001
100.001
100
100
100
100
100
100
100
100
100
100
100
100
100
100
100
100
100
100
389.322
368.062
347.089
326.581
306.701
287.591
269.368
252.127
235.936
220.84
206.864
194.012
182.273
171.62
162.015
153.411
145.752
138.977
133.023
127.823
123.311
119.42
116.087
113.249
110.849
108.833
107.149
105.752
104.6
103.658
102.891
102.271
101.773
101.377
101.062
100.814
100.621
100.47
100.354
100.265
100.197
100.146
100.107
100.078
100.057
100.041
100.029
100.021
100.015
100.01
100.007
100.005
100.003
100.002
100.002
100.001
100.001
100
100
100
100
100
100
100
100
100
100
100
100
100
100
100
100
100
100
389.477
368.521
347.832
327.576
307.908
288.965
270.861
253.693
237.531
222.427
208.41
195.491
183.666
172.913
163.199
154.483
146.711
139.827
133.769
128.472
123.87
119.898
116.492
113.59
111.133
109.068
107.342
105.909
104.728
103.76
102.973
102.336
101.825
101.417
101.093
100.838
100.639
100.484
100.365
100.273
100.203
100.15
100.11
100.08
100.058
100.042
100.03
100.022
100.015
100.011
100.007
100.005
100.004
100.002
100.002
100.001
100.001
100.001
100
100
100
100
100
100
100
100
100
100
100
100
100
100
100
100
100
389.6
368.885
348.421
328.367
308.871
290.064
272.061
254.957
238.825
223.72
209.676
196.708
184.817
173.986
164.187
155.38
147.518
140.544
134.4
129.022
124.345
120.305
116.838
113.881
111.377
109.27
107.508
106.046
104.839
103.85
103.044
102.393
101.869
101.452
101.12
100.86
100.655
100.497
100.374
100.28
100.208
100.154
100.113
100.083
100.06
100.043
100.031
100.022
100.016
100.011
100.008
100.005
100.004
100.003
100.002
100.001
100.001
100.001
100
100
100
100
100
100
100
100
100
100
100
100
100
100
100
100
100
389.697
369.172
348.887
328.995
309.637
290.943
273.024
255.975
239.872
224.77
210.708
197.705
185.763
174.872
165.005
156.126
148.19
141.145
134.93
129.486
124.747
120.65
117.131
114.129
111.585
109.443
107.651
106.162
104.934
103.926
103.106
102.442
101.908
101.482
101.144
100.878
100.669
100.507
100.382
100.286
100.213
100.157
100.116
100.084
100.061
100.044
100.032
100.023
100.016
100.011
100.008
100.005
100.004
100.003
100.002
100.001
100.001
100.001
100
100
100
100
100
100
100
100
100
100
100
100
100
100
100
100
100
389.774
369.4
349.257
329.493
310.246
291.643
273.793
256.792
240.714
225.619
211.546
198.517
186.537
175.599
165.679
156.743
148.748
141.644
135.372
129.873
125.084
120.94
117.379
114.339
111.761
109.589
107.772
106.262
105.014
103.992
103.158
102.483
101.941
101.508
101.164
100.894
100.681
100.517
100.389
100.291
100.217
100.16
100.118
100.086
100.062
100.045
100.032
100.023
100.016
100.011
100.008
100.006
100.004
100.003
100.002
100.001
100.001
100.001
100
100
100
100
100
100
100
100
100
100
100
100
100
100
100
100
100
389.835
369.579
349.549
329.887
310.73
292.2
274.407
257.445
241.391
226.303
212.223
199.175
187.167
176.192
166.23
157.249
149.208
142.056
135.738
130.195
125.364
121.182
117.586
114.515
111.909
109.713
107.874
106.346
105.083
104.047
103.203
102.519
101.969
101.53
101.182
100.907
100.692
100.524
100.395
100.296
100.22
100.163
100.12
100.087
100.063
100.046
100.033
100.023
100.017
100.012
100.008
100.006
100.004
100.003
100.002
100.001
100.001
100.001
100
100
100
100
100
100
100
100
100
100
100
100
100
100
100
100
100
389.882
369.721
349.779
330.198
311.112
292.641
274.895
257.966
241.931
226.851
212.767
199.705
187.676
176.673
166.679
157.663
149.584
142.395
136.04
130.461
125.596
121.383
117.758
114.661
112.032
109.816
107.96
106.416
105.14
104.094
103.24
102.549
101.993
101.549
101.196
100.918
100.701
100.531
100.4
100.3
100.223
100.165
100.121
100.089
100.064
100.046
100.033
100.024
100.017
100.012
100.008
100.006
100.004
100.003
100.002
100.001
100.001
100.001
100
100
100
100
100
100
100
100
100
100
100
100
100
100
100
100
100
389.92
369.832
349.96
330.444
311.414
292.99
275.281
258.379
242.361
227.288
213.202
200.131
188.086
177.062
167.042
157.998
149.89
142.671
136.286
130.679
125.787
121.548
117.9
114.782
112.134
109.901
108.031
106.475
105.188
104.132
103.271
102.574
102.013
101.565
101.209
100.928
100.708
100.537
100.405
100.303
100.226
100.167
100.123
100.09
100.065
100.047
100.034
100.024
100.017
100.012
100.008
100.006
100.004
100.003
100.002
100.001
100.001
100.001
100
100
100
100
100
100
100
100
100
100
100
100
100
100
100
100
100
389.949
369.919
350.102
330.636
311.651
293.265
275.586
258.706
242.702
227.635
213.549
200.471
188.414
177.374
167.335
158.269
150.138
142.895
136.487
130.856
125.942
121.683
118.017
114.881
112.218
109.972
108.089
106.523
105.228
104.165
103.297
102.595
102.029
101.578
101.219
100.936
100.714
100.542
100.408
100.306
100.228
100.168
100.124
100.09
100.066
100.047
100.034
100.024
100.017
100.012
100.008
100.006
100.004
100.003
100.002
100.001
100.001
100.001
100
100
100
100
100
100
100
100
100
100
100
100
100
100
100
100
100
389.972
369.987
350.213
330.787
311.837
293.481
275.826
258.964
242.971
227.91
213.824
200.741
188.675
177.623
167.569
158.486
150.337
143.075
136.648
131
126.069
121.793
118.111
114.962
112.287
110.029
108.137
106.563
105.261
104.191
103.319
102.612
102.043
101.588
101.227
100.942
100.719
100.545
100.411
100.308
100.229
100.17
100.125
100.091
100.066
100.048
100.034
100.024
100.017
100.012
100.009
100.006
100.004
100.003
100.002
100.001
100.001
100.001
100
100
100
100
100
100
100
100
100
100
100
100
100
100
100
100
100
389.99
370.04
350.3
330.905
311.982
293.65
276.014
259.166
243.183
228.126
214.041
200.955
188.882
177.82
167.755
158.659
150.495
143.219
136.778
131.115
126.17
121.882
118.188
115.028
112.342
110.076
108.177
106.595
105.287
104.213
103.336
102.626
102.054
101.597
101.234
100.948
100.723
100.549
100.414
100.31
100.231
100.171
100.126
100.092
100.067
100.048
100.034
100.025
100.017
100.012
100.009
100.006
100.004
100.003
100.002
100.001
100.001
100.001
100
100
100
100
100
100
100
100
100
100
100
100
100
100
100
100
100
390.004
370.081
350.367
330.996
312.095
293.781
276.16
259.323
243.348
228.296
214.211
201.123
189.045
177.976
167.902
158.796
150.622
143.334
136.882
131.207
126.251
121.953
118.249
115.08
112.387
110.114
108.208
106.621
105.309
104.23
103.351
102.638
102.064
101.605
101.24
100.952
100.727
100.551
100.416
100.311
100.232
100.172
100.126
100.092
100.067
100.048
100.035
100.025
100.018
100.012
100.009
100.006
100.004
100.003
100.002
100.001
100.001
100.001
100
100
100
100
100
100
100
100
100
100
100
100
100
100
100
100
100
390.014
370.113
350.419
331.067
312.183
293.883
276.274
259.446
243.477
228.428
214.344
201.255
189.173
178.099
168.018
158.904
150.721
143.425
136.964
131.28
126.316
122.009
118.298
115.122
112.423
110.144
108.234
106.642
105.326
104.245
103.362
102.647
102.071
101.61
101.245
100.956
100.73
100.553
100.417
100.313
100.233
100.172
100.127
100.093
100.067
100.049
100.035
100.025
100.018
100.012
100.009
100.006
100.004
100.003
100.002
100.001
100.001
100.001
100
100
100
100
100
100
100
100
100
100
100
100
100
100
100
100
100
390.023
370.137
350.459
331.121
312.25
293.962
276.362
259.541
243.577
228.531
214.448
201.357
189.273
178.195
168.109
158.989
150.8
143.497
137.028
131.338
126.367
122.054
118.337
115.156
112.452
110.168
108.254
106.659
105.34
104.256
103.371
102.654
102.077
101.615
101.248
100.959
100.732
100.555
100.419
100.314
100.234
100.173
100.127
100.093
100.067
100.049
100.035
100.025
100.018
100.012
100.009
100.006
100.004
100.003
100.002
100.001
100.001
100.001
100
100
100
100
100
100
100
100
100
100
100
100
100
100
100
100
100
390.029
370.156
350.49
331.163
312.302
294.022
276.429
259.614
243.654
228.61
214.528
201.436
189.35
178.269
168.179
159.055
150.861
143.552
137.079
131.383
126.407
122.089
118.368
115.182
112.474
110.187
108.27
106.672
105.351
104.265
103.379
102.66
102.082
101.619
101.251
100.961
100.734
100.557
100.42
100.314
100.234
100.173
100.127
100.093
100.068
100.049
100.035
100.025
100.018
100.012
100.009
100.006
100.004
100.003
100.002
100.001
100.001
100.001
100
100
100
100
100
100
100
100
100
100
100
100
100
100
100
100
100
390.034
370.171
350.514
331.195
312.342
294.068
276.481
259.67
243.713
228.671
214.589
201.497
189.41
178.326
168.234
159.106
150.908
143.596
137.118
131.419
126.439
122.117
118.392
115.203
112.492
110.202
108.282
106.683
105.36
104.272
103.384
102.665
102.085
101.622
101.254
100.963
100.735
100.558
100.421
100.315
100.235
100.174
100.128
100.093
100.068
100.049
100.035
100.025
100.018
100.012
100.009
100.006
100.004
100.003
100.002
100.001
100.001
100.001
100
100
100
100
100
100
100
100
100
100
100
100
100
100
100
100
100
390.037
370.182
350.531
331.22
312.372
294.104
276.52
259.713
243.758
228.717
214.636
201.544
189.456
178.371
168.276
159.146
150.945
143.629
137.148
131.446
126.463
122.138
118.41
115.219
112.506
110.214
108.292
106.691
105.366
104.278
103.389
102.669
102.088
101.624
101.255
100.964
100.736
100.559
100.421
100.316
100.235
100.174
100.128
100.094
100.068
100.049
100.035
100.025
100.018
100.013
100.009
100.006
100.004
100.003
100.002
100.001
100.001
100.001
100
100
100
100
100
100
100
100
100
100
100
100
100
100
100
100
100
390.04
370.19
350.545
331.238
312.395
294.13
276.55
259.745
243.792
228.753
214.672
201.58
189.49
178.404
168.308
159.176
150.973
143.655
137.172
131.467
126.482
122.155
118.425
115.232
112.516
110.223
108.3
106.698
105.372
104.282
103.393
102.671
102.091
101.626
101.257
100.966
100.737
100.559
100.422
100.316
100.235
100.174
100.128
100.094
100.068
100.049
100.035
100.025
100.018
100.013
100.009
100.006
100.004
100.003
100.002
100.001
100.001
100.001
100
100
100
100
100
100
100
100
100
100
100
100
100
100
100
100
100
390.042
370.196
350.555
331.252
312.412
294.151
276.573
259.77
243.818
228.78
214.699
201.607
189.517
178.43
168.332
159.199
150.994
143.675
137.19
131.483
126.496
122.167
118.436
115.241
112.525
110.23
108.306
106.703
105.376
104.285
103.395
102.674
102.092
101.627
101.258
100.966
100.738
100.56
100.422
100.316
100.236
100.174
100.128
100.094
100.068
100.049
100.035
100.025
100.018
100.013
100.009
100.006
100.004
100.003
100.002
100.001
100.001
100.001
100
100
100
100
100
100
100
100
100
100
100
100
100
100
100
100
100
390.044
370.201
350.563
331.262
312.425
294.166
276.59
259.788
243.838
228.8
214.72
201.627
189.537
178.449
168.351
159.216
151.011
143.69
137.203
131.495
126.507
122.177
118.444
115.248
112.531
110.236
108.31
106.706
105.379
104.288
103.397
102.675
102.094
101.629
101.259
100.967
100.738
100.56
100.422
100.317
100.236
100.174
100.128
100.094
100.068
100.049
100.035
100.025
100.018
100.013
100.009
100.006
100.004
100.003
100.002
100.001
100.001
100.001
100
100
100
100
100
100
100
100
100
100
100
100
100
100
100
100
100
390.045
370.204
350.568
331.27
312.434
294.177
276.602
259.802
243.852
228.815
214.735
201.642
189.552
178.464
168.365
159.229
151.023
143.701
137.214
131.505
126.515
122.184
118.451
115.254
112.536
110.24
108.314
106.709
105.381
104.29
103.399
102.677
102.095
101.629
101.26
100.968
100.739
100.561
100.423
100.317
100.236
100.175
100.128
100.094
100.068
100.049
100.035
100.025
100.018
100.013
100.009
100.006
100.004
100.003
100.002
100.001
100.001
100.001
100
100
100
100
100
100
100
100
100
100
100
100
100
100
100
100
100
390.046
370.207
350.573
331.276
312.441
294.185
276.612
259.812
243.863
228.826
214.746
201.654
189.563
178.475
168.375
159.239
151.032
143.71
137.221
131.512
126.521
122.19
118.456
115.258
112.539
110.243
108.316
106.711
105.383
104.292
103.4
102.678
102.096
101.63
101.26
100.968
100.739
100.561
100.423
100.317
100.236
100.175
100.128
100.094
100.068
100.049
100.035
100.025
100.018
100.013
100.009
100.006
100.004
100.003
100.002
100.001
100.001
100.001
100
100
100
100
100
100
100
100
100
100
100
100
100
100
100
100
100
390.047
370.209
350.576
331.28
312.447
294.192
276.619
259.82
243.871
228.834
214.755
201.662
189.572
178.483
168.383
159.246
151.039
143.716
137.227
131.517
126.526
122.194
118.459
115.261
112.542
110.245
108.318
106.713
105.385
104.293
103.401
102.678
102.096
101.63
101.26
100.968
100.739
100.561
100.423
100.317
100.236
100.175
100.129
100.094
100.068
100.049
100.035
100.025
100.018
100.013
100.009
100.006
100.004
100.003
100.002
100.001
100.001
100.001
100
100
100
100
100
100
100
100
100
100
100
100
100
100
100
100
100
390.047
370.21
350.578
331.283
312.451
294.196
276.624
259.825
243.877
228.84
214.761
201.668
189.578
178.489
168.388
159.252
151.044
143.72
137.231
131.521
126.53
122.197
118.462
115.264
112.544
110.247
108.32
106.714
105.386
104.293
103.402
102.679
102.097
101.631
101.261
100.969
100.74
100.561
100.423
100.317
100.236
100.175
100.129
100.094
100.068
100.049
100.035
100.025
100.018
100.013
100.009
100.006
100.004
100.003
100.002
100.001
100.001
100.001
100
100
100
100
100
100
100
100
100
100
100
100
100
100
100
100
100
390.047
370.211
350.58
331.285
312.453
294.199
276.628
259.829
243.881
228.845
214.766
201.673
189.582
178.493
168.393
159.256
151.047
143.724
137.234
131.524
126.532
122.199
118.464
115.265
112.545
110.248
108.321
106.715
105.386
104.294
103.402
102.679
102.097
101.631
101.261
100.969
100.74
100.561
100.423
100.317
100.236
100.175
100.129
100.094
100.068
100.049
100.035
100.025
100.018
100.013
100.009
100.006
100.004
100.003
100.002
100.001
100.001
100.001
100
100
100
100
100
100
100
100
100
100
100
100
100
100
100
100
100
390.048
370.212
350.581
331.287
312.455
294.202
276.63
259.832
243.885
228.848
214.769
201.676
189.585
178.496
168.396
159.259
151.05
143.726
137.237
131.526
126.534
122.201
118.465
115.267
112.547
110.249
108.322
106.716
105.387
104.295
103.403
102.68
102.097
101.631
101.261
100.969
100.74
100.561
100.423
100.317
100.236
100.175
100.129
100.094
100.068
100.049
100.035
100.025
100.018
100.013
100.009
100.006
100.004
100.003
100.002
100.001
100.001
100.001
100
100
100
100
100
100
100
100
100
100
100
100
100
100
100
100
100
390.048
370.212
350.582
331.288
312.457
294.204
276.632
259.835
243.887
228.851
214.771
201.679
189.588
178.499
168.398
159.261
151.052
143.728
137.238
131.527
126.535
122.202
118.466
115.268
112.547
110.25
108.322
106.716
105.387
104.295
103.403
102.68
102.097
101.631
101.261
100.969
100.74
100.561
100.423
100.317
100.236
100.175
100.129
100.094
100.068
100.049
100.035
100.025
100.018
100.013
100.009
100.006
100.004
100.003
100.002
100.001
100.001
100.001
100
100
100
100
100
100
100
100
100
100
100
100
100
100
100
100
100
390.048
370.213
350.582
331.289
312.458
294.205
276.634
259.836
243.888
228.852
214.773
201.681
189.59
178.5
168.399
159.262
151.054
143.73
137.24
131.528
126.536
122.203
118.467
115.268
112.548
110.25
108.323
106.717
105.388
104.295
103.403
102.68
102.098
101.632
101.261
100.969
100.74
100.561
100.423
100.317
100.236
100.175
100.129
100.094
100.068
100.049
100.035
100.025
100.018
100.013
100.009
100.006
100.004
100.003
100.002
100.001
100.001
100.001
100
100
100
100
100
100
100
100
100
100
100
100
100
100
100
100
100
390.048
370.213
350.583
331.29
312.459
294.206
276.635
259.837
243.89
228.853
214.774
201.682
189.591
178.501
168.401
159.263
151.055
143.731
137.241
131.529
126.537
122.204
118.468
115.269
112.548
110.251
108.323
106.717
105.388
104.295
103.403
102.68
102.098
101.632
101.261
100.969
100.74
100.561
100.423
100.317
100.236
100.175
100.129
100.094
100.068
100.049
100.035
100.025
100.018
100.013
100.009
100.006
100.004
100.003
100.002
100.001
100.001
100.001
100
100
100
100
100
100
100
100
100
100
100
100
100
100
100
100
100
390.048
370.213
350.583
331.29
312.459
294.206
276.636
259.838
243.891
228.854
214.775
201.683
189.592
178.502
168.401
159.264
151.055
143.731
137.241
131.53
126.538
122.204
118.468
115.269
112.549
110.251
108.323
106.717
105.388
104.295
103.404
102.68
102.098
101.632
101.261
100.969
100.74
100.561
100.423
100.317
100.236
100.175
100.129
100.094
100.068
100.049
100.035
100.025
100.018
100.013
100.009
100.006
100.004
100.003
100.002
100.001
100.001
100.001
100
100
100
100
100
100
100
100
100
100
100
100
100
100
100
100
100
390.048
370.213
350.583
331.291
312.46
294.207
276.636
259.839
243.891
228.855
214.776
201.683
189.592
178.503
168.402
159.265
151.056
143.732
137.242
131.53
126.538
122.204
118.468
115.269
112.549
110.251
108.323
106.717
105.388
104.296
103.404
102.68
102.098
101.632
101.261
100.969
100.74
100.561
100.423
100.317
100.236
100.175
100.129
100.094
100.068
100.049
100.035
100.025
100.018
100.013
100.009
100.006
100.004
100.003
100.002
100.001
100.001
100.001
100
100
100
100
100
100
100
100
100
100
100
100
100
100
100
100
100
390.048
370.213
350.584
331.291
312.46
294.207
276.636
259.839
243.892
228.855
214.776
201.684
189.593
178.503
168.402
159.265
151.056
143.732
137.242
131.53
126.538
122.205
118.469
115.27
112.549
110.251
108.324
106.717
105.388
104.296
103.404
102.68
102.098
101.632
101.261
100.969
100.74
100.561
100.423
100.317
100.236
100.175
100.129
100.094
100.068
100.049
100.035
100.025
100.018
100.013
100.009
100.006
100.004
100.003
100.002
100.001
100.001
100.001
100
100
100
100
100
100
100
100
100
100
100
100
100
100
100
100
100
390.048
370.213
350.584
331.291
312.46
294.207
276.637
259.839
243.892
228.856
214.776
201.684
189.593
178.504
168.403
159.265
151.057
143.732
137.242
131.531
126.538
122.205
118.469
115.27
112.549
110.251
108.324
106.717
105.388
104.296
103.404
102.68
102.098
101.632
101.261
100.969
100.74
100.561
100.423
100.317
100.236
100.175
100.129
100.094
100.068
100.049
100.035
100.025
100.018
100.013
100.009
100.006
100.004
100.003
100.002
100.001
100.001
100.001
100
100
100
100
100
100
100
100
100
100
100
100
100
100
100
100
100
390.048
370.213
350.584
331.291
312.46
294.207
276.637
259.839
243.892
228.856
214.777
201.684
189.593
178.504
168.403
159.266
151.057
143.732
137.242
131.531
126.538
122.205
118.469
115.27
112.549
110.251
108.324
106.717
105.388
104.296
103.404
102.68
102.098
101.632
101.261
100.969
100.74
100.561
100.423
100.317
100.236
100.175
100.129
100.094
100.068
100.049
100.035
100.025
100.018
100.013
100.009
100.006
100.004
100.003
100.002
100.001
100.001
100.001
100
100
100
100
100
100
100
100
100
100
100
100
100
100
100
100
100
390.048
370.213
350.584
331.291
312.46
294.208
276.637
259.84
243.892
228.856
214.777
201.684
189.593
178.504
168.403
159.266
151.057
143.733
137.242
131.531
126.539
122.205
118.469
115.27
112.549
110.251
108.324
106.718
105.388
104.296
103.404
102.68
102.098
101.632
101.261
100.969
100.74
100.561
100.423
100.317
100.236
100.175
100.129
100.094
100.068
100.049
100.035
100.025
100.018
100.013
100.009
100.006
100.004
100.003
100.002
100.001
100.001
100.001
100
100
100
100
100
100
100
100
100
100
100
100
100
100
100
100
100
390.048
370.214
350.584
331.291
312.46
294.208
276.637
259.84
243.892
228.856
214.777
201.685
189.594
178.504
168.403
159.266
151.057
143.733
137.242
131.531
126.539
122.205
118.469
115.27
112.549
110.251
108.324
106.718
105.388
104.296
103.404
102.68
102.098
101.632
101.262
100.969
100.74
100.562
100.423
100.317
100.236
100.175
100.129
100.094
100.068
100.049
100.035
100.025
100.018
100.013
100.009
100.006
100.004
100.003
100.002
100.001
100.001
100.001
100
100
100
100
100
100
100
100
100
100
100
100
100
100
100
100
100
390.048
370.214
350.584
331.291
312.461
294.208
276.637
259.84
243.892
228.856
214.777
201.685
189.594
178.504
168.403
159.266
151.057
143.733
137.243
131.531
126.539
122.205
118.469
115.27
112.549
110.251
108.324
106.718
105.388
104.296
103.404
102.68
102.098
101.632
101.262
100.969
100.74
100.562
100.423
100.317
100.236
100.175
100.129
100.094
100.068
100.049
100.035
100.025
100.018
100.013
100.009
100.006
100.004
100.003
100.002
100.001
100.001
100.001
100
100
100
100
100
100
100
100
100
100
100
100
100
100
100
100
100
390.048
370.214
350.584
331.291
312.461
294.208
276.637
259.84
243.892
228.856
214.777
201.685
189.594
178.504
168.403
159.266
151.057
143.733
137.243
131.531
126.539
122.205
118.469
115.27
112.549
110.251
108.324
106.718
105.388
104.296
103.404
102.681
102.098
101.632
101.262
100.969
100.74
100.562
100.423
100.317
100.236
100.175
100.129
100.094
100.068
100.049
100.035
100.025
100.018
100.013
100.009
100.006
100.004
100.003
100.002
100.001
100.001
100.001
100
100
100
100
100
100
100
100
100
100
100
100
100
100
100
100
100
390.048
370.214
350.584
331.291
312.461
294.208
276.637
259.84
243.892
228.856
214.777
201.685
189.594
178.504
168.403
159.266
151.057
143.733
137.243
131.531
126.539
122.205
118.469
115.27
112.549
110.251
108.324
106.718
105.388
104.296
103.404
102.681
102.098
101.632
101.262
100.969
100.74
100.562
100.423
100.317
100.236
100.175
100.129
100.094
100.068
100.049
100.035
100.025
100.018
100.013
100.009
100.006
100.004
100.003
100.002
100.001
100.001
100.001
100
100
100
100
100
100
100
100
100
100
100
100
100
100
100
100
100
390.048
370.214
350.584
331.291
312.461
294.208
276.637
259.84
243.892
228.856
214.777
201.685
189.594
178.504
168.403
159.266
151.057
143.733
137.243
131.531
126.539
122.205
118.469
115.27
112.549
110.252
108.324
106.718
105.388
104.296
103.404
102.681
102.098
101.632
101.262
100.969
100.74
100.562
100.423
100.317
100.236
100.175
100.129
100.094
100.068
100.049
100.035
100.025
100.018
100.013
100.009
100.006
100.004
100.003
100.002
100.001
100.001
100.001
100
100
100
100
100
100
100
100
100
100
100
100
100
100
100
100
100
390.048
370.214
350.584
331.291
312.461
294.208
276.637
259.84
243.892
228.856
214.777
201.685
189.594
178.504
168.403
159.266
151.057
143.733
137.243
131.531
126.539
122.205
118.469
115.27
112.549
110.252
108.324
106.718
105.388
104.296
103.404
102.681
102.098
101.632
101.262
100.969
100.74
100.562
100.423
100.317
100.236
100.175
100.129
100.094
100.068
100.049
100.035
100.025
100.018
100.013
100.009
100.006
100.004
100.003
100.002
100.001
100.001
100.001
100
100
100
100
100
100
100
100
100
100
100
100
100
100
100
100
100