/*--------------------------------*- C++ -*----------------------------------*\
  =========                 |
  \\      /  F ield         | OpenFOAM: The Open Source CFD Toolbox
   \\    /   O peration     | Website:  https://openfoam.org
    \\  /    A nd           | Version:  10
     \\/     M anipulation  |
\*---------------------------------------------------------------------------*/
FoamFile
{
    format      ascii;
    class       volScalarField;
    location    "118";
    object      gradTx;
}
// * * * * * * * * * * * * * * * * * * * * * * * * * * * * * * * * * * * * * //

dimensions      [0 -1 0 1 0 0 0];

internalField   nonuniform List<scalar> 
11250
(
14256.3
7975.09
5100.91
3545.58
2585.12
1934.16
1465.26
1114.59
846.692
639.935
479.971
356.568
262.005
190.219
136.34
96.4154
67.2368
46.2212
31.3126
20.8998
13.7416
8.89911
5.67586
3.56505
2.20511
1.34314
0.805608
0.475753
0.276501
0.157973
0.0885225
0.0484679
0.0257862
0.01324
0.00651295
0.00304861
0.00135035
0.000563787
0.000221363
8.16631e-05
2.83114e-05
9.2328e-06
2.83652e-06
8.22448e-07
2.25491e-07
5.85974e-08
1.44545e-08
3.38725e-09
7.66137e-10
1.62447e-10
1.53666e-11
0
1.4269e-11
0
1.09762e-12
0
1.09762e-12
-2.19524e-12
0
2.19524e-12
0
1.09762e-12
0
-2.19524e-11
9.87856e-12
-1.09762e-12
-1.09762e-12
0
1.09762e-12
0
-5.48809e-12
0
-7.68332e-12
0
-9.87856e-12
4052.73
4575.57
3794.12
2966.65
2294.61
1773.21
1369.28
1054.28
807.404
613.724
462.222
344.45
253.706
184.54
132.469
93.7918
65.473
45.0464
30.5383
20.3952
13.4167
8.69253
5.54622
3.48476
2.15605
1.31356
0.788015
0.465449
0.270586
0.154678
0.0867725
0.0476043
0.0254057
0.0131007
0.00647895
0.00305126
0.00136041
0.000571808
0.000226009
8.39159e-05
2.92719e-05
9.6018e-06
2.96616e-06
8.64504e-07
2.38207e-07
6.21778e-08
1.54007e-08
3.63421e-09
8.14432e-10
1.6574e-10
1.4269e-11
0
-1.4269e-11
8.78094e-12
-1.31714e-11
-6.5857e-12
-1.4269e-11
0
-4.39047e-12
0
0
-1.09762e-12
0
2.41476e-11
5.48809e-12
0
-1.09762e-12
1.09762e-12
-1.09762e-12
0
-8.78094e-12
0
8.78094e-12
2.19523e-12
0
1434.28
2487.7
2545.19
2247.95
1872.12
1515.48
1206.2
947.88
736.366
565.53
429.2
321.712
238.035
173.764
125.094
88.7799
62.0955
42.7924
29.0503
19.4243
12.7908
8.29427
5.2961
3.32977
2.06132
1.25645
0.75407
0.445589
0.259196
0.148329
0.0833825
0.0459067
0.0246322
0.0127952
0.00638505
0.00303784
0.00136922
0.000581914
0.000232532
8.72568e-05
3.0747e-05
1.0183e-05
3.17445e-06
9.33217e-07
2.59254e-07
6.81972e-08
1.7024e-08
4.0546e-09
9.14315e-10
1.8879e-10
4.82952e-11
2.19524e-12
5.48809e-12
8.78094e-12
0
-2.19523e-12
0
4.39047e-12
0
-2.19524e-12
0
0
0
-1.4269e-11
-1.09762e-11
2.19524e-12
3.29285e-12
2.19523e-12
0
0
3.29285e-12
8.78094e-12
0
-1.09762e-12
8.78094e-12
633.399
1402.88
1662.39
1622.91
1448.37
1230.35
1013.16
815.896
645.296
502.275
385.108
290.962
216.636
158.939
114.89
81.8122
57.3823
39.6375
26.9623
18.0589
11.9093
7.73251
4.9429
3.11074
1.92736
1.17568
0.706089
0.417542
0.243118
0.139349
0.0785456
0.0434325
0.0234547
0.0122883
0.0061964
0.00298313
0.00136165
0.000586256
0.000237322
9.01921e-05
3.21749e-05
1.0783e-05
3.39991e-06
1.01045e-06
2.8365e-07
7.53613e-08
1.90009e-08
4.54633e-09
1.02627e-09
2.08547e-10
5.59785e-11
0
0
-8.78094e-12
1.31714e-11
5.48809e-12
1.4269e-11
-4.39047e-12
5.48809e-12
6.58571e-12
0
-2.19523e-12
0
-1.09762e-12
-4.39047e-12
3.29285e-12
0
1.09762e-12
0
2.19524e-12
5.48809e-12
0
-1.09762e-12
-1.09762e-12
-5.48809e-12
332.114
834.733
1089.33
1147.18
1085.06
963.224
820.045
677.297
546.157
431.536
334.788
255.318
191.53
141.381
102.713
73.4475
51.6964
35.816
24.4246
16.395
10.8324
7.04492
4.50988
2.84185
1.76276
1.07638
0.647086
0.383049
0.223325
0.128244
0.0724957
0.0402639
0.0218817
0.0115618
0.0058918
0.00287146
0.00132853
0.000580242
0.000238369
9.19408e-05
3.32834e-05
1.13161e-05
3.61837e-06
1.09007e-06
3.10029e-07
8.34091e-08
2.12674e-08
5.14563e-09
1.19311e-09
2.75502e-10
6.0369e-11
5.48809e-12
-4.39047e-12
-9.87856e-12
0
5.48809e-12
1.09762e-12
-8.78094e-12
-5.48809e-12
0
0
0
0
1.86595e-11
0
-1.09762e-12
-1.09762e-12
-3.29285e-12
0
-1.09762e-12
-9.87856e-12
-1.20738e-11
-7.68332e-12
-1.09762e-12
-1.09762e-12
194.554
520.835
723.009
804.624
797.179
734.906
644.91
545.675
448.586
359.959
282.756
217.83
164.768
122.462
89.4779
64.291
45.4357
31.5879
21.6056
14.5402
9.62856
6.27432
4.02356
2.5393
1.57728
0.964345
0.58044
0.344033
0.20087
0.115566
0.0655017
0.0365227
0.0199646
0.0106367
0.00548045
0.00270764
0.00127267
0.000565561
0.000236613
9.29763e-05
3.42878e-05
1.18713e-05
3.86326e-06
1.18367e-06
3.42122e-07
9.34874e-08
2.41893e-08
5.92823e-09
1.37092e-09
3.10626e-10
6.25642e-11
9.87856e-12
0
-3.29285e-12
-1.09762e-12
0
-1.09762e-12
2.19524e-12
1.09762e-12
-6.58571e-12
1.09762e-12
2.19523e-12
1.09762e-12
0
-1.09762e-12
-4.39047e-12
0
0
0
-2.19524e-12
4.39047e-12
1.09762e-12
-4.39047e-12
0
0
121.744
336.709
486.328
563.133
578.432
550.2
495.758
428.816
359.006
292.452
232.613
181.068
138.152
103.429
76.0364
54.9191
38.9861
27.2084
18.6722
12.6025
8.36666
5.46421
3.51097
2.2197
1.38094
0.845536
0.509632
0.302474
0.176851
0.101908
0.0578832
0.0323847
0.017805
0.00957416
0.0049994
0.00251328
0.00120588
0.000548147
0.00023479
9.44565e-05
3.56388e-05
1.26106e-05
4.18864e-06
1.30804e-06
3.84787e-07
1.06876e-07
2.80825e-08
6.98085e-09
1.62777e-09
3.53433e-10
6.91499e-11
2.52452e-11
0
-1.09762e-12
0
-9.87856e-12
-1.09762e-12
-7.68332e-12
4.39047e-12
-4.39047e-12
0
-2.19523e-12
1.09762e-12
-5.48809e-12
2.19523e-12
2.19524e-12
0
0
-1.20738e-11
1.09762e-12
1.31714e-11
2.19524e-12
0
-7.68332e-12
0
79.1732
222.983
330.569
393.869
415.984
405.891
374.058
329.922
280.861
232.066
186.82
146.918
113.075
85.2855
63.098
45.8239
32.6837
22.9038
15.7745
10.6802
7.11006
4.65484
2.99737
1.89863
1.18325
0.725644
0.43801
0.26031
0.152376
0.0879015
0.0500051
0.0280653
0.0155311
0.00844924
0.00449015
0.00230947
0.0011378
0.00053191
0.000234281
9.67903e-05
3.74293e-05
1.35439e-05
4.59018e-06
1.4595e-06
4.36299e-07
1.2291e-07
3.2709e-08
8.25738e-09
1.97022e-09
4.30266e-10
1.00981e-10
2.63428e-11
4.39047e-12
4.39047e-12
1.09762e-12
4.39047e-12
2.305e-11
3.29285e-12
-3.29285e-12
0
0
0
-3.29285e-12
0
0
0
7.68332e-12
-1.09762e-12
0
1.09762e-12
-1.09762e-12
0
6.5857e-12
0
4.39047e-12
52.6444
149.912
226.203
275.183
296.932
295.749
277.762
249.179
215.323
180.253
146.765
116.557
90.4737
68.7433
51.1856
37.3802
26.7912
18.8547
13.0344
8.85424
5.91165
3.88025
2.50431
1.58957
0.992473
0.609673
0.368559
0.219302
0.12848
0.0741586
0.0422281
0.0237726
0.0132555
0.00731492
0.00397181
0.002099
0.00106547
0.000513213
0.000232474
9.84978e-05
3.89427e-05
1.43645e-05
4.94938e-06
1.59626e-06
4.83092e-07
1.37558e-07
3.69535e-08
9.40548e-09
2.27317e-09
5.1149e-10
1.09762e-10
1.97571e-11
0
-3.29285e-12
0
8.78094e-12
1.4269e-11
1.4269e-11
-4.39047e-12
4.39047e-12
-1.09762e-12
2.19523e-12
8.78094e-12
0
-1.09762e-12
0
1.4269e-11
2.19523e-12
1.31714e-11
-1.09762e-12
2.19523e-12
5.48809e-12
6.58571e-12
8.78094e-12
2.19524e-12
35.431
101.626
155.257
191.806
210.433
213.1
203.326
185.085
162.066
137.284
112.957
90.5412
70.8544
54.223
40.629
29.8358
21.4888
15.1886
10.5403
7.18437
4.81122
3.16643
2.04851
1.30304
0.815153
0.501615
0.303681
0.180887
0.10602
0.0611875
0.0348467
0.0196636
0.0110464
0.006187
0.00343472
0.00186474
0.000973639
0.00048166
0.000223407
9.65916e-05
3.88431e-05
1.45318e-05
5.06634e-06
1.65013e-06
5.03563e-07
1.44405e-07
3.90324e-08
9.95649e-09
2.41915e-09
5.64175e-10
1.13055e-10
2.305e-11
-1.09762e-12
0
0
-5.48809e-12
-1.97571e-11
-1.09762e-12
2.19523e-12
-1.09762e-12
-1.09762e-12
0
1.09762e-12
-1.09762e-12
-1.09762e-12
-1.09762e-12
-6.58571e-12
0
-1.09762e-12
0
1.09762e-12
0
-6.58571e-12
0
1.09762e-12
23.9771
69.119
106.548
133.169
148.012
151.912
146.864
135.368
119.914
102.659
85.2794
68.9461
54.3709
41.8945
31.5833
23.3194
16.877
11.9805
8.34609
5.70836
3.83454
2.5306
1.6412
1.04627
0.655819
0.404258
0.245065
0.146073
0.085597
0.0493425
0.0280603
0.0158375
0.00893934
0.00506469
0.00286254
0.00158806
0.000847591
0.000427789
0.000201852
8.85199e-05
3.60121e-05
1.36005e-05
4.77836e-06
1.56625e-06
4.80483e-07
1.38377e-07
3.75352e-08
9.59537e-09
2.32585e-09
5.55394e-10
1.13055e-10
2.08547e-11
1.20738e-11
4.39047e-12
2.19523e-12
1.09762e-12
-1.4269e-11
0
4.39047e-12
-1.09762e-12
3.29285e-12
1.4269e-11
-8.78094e-12
0
0
-9.87856e-12
-3.7319e-11
-1.09762e-12
0
0
-3.29285e-12
-5.48809e-12
0
-2.19523e-12
-3.29285e-12
16.2405
46.9877
72.9197
91.9553
103.261
107.143
104.726
97.5633
87.3025
75.4467
63.2193
51.5165
40.918
31.7334
24.063
17.8604
12.9873
9.25849
6.47454
4.44357
2.99419
1.98154
1.28835
0.823188
0.517005
0.319199
0.193696
0.115463
0.0675734
0.0388405
0.021997
0.0123673
0.00697303
0.00396644
0.00226278
0.00127132
0.00068773
0.000351455
0.000167619
7.41624e-05
3.03908e-05
1.15457e-05
4.07622e-06
1.34149e-06
4.12903e-07
1.19262e-07
3.24258e-08
8.3397e-09
2.03608e-09
4.90635e-10
1.26226e-10
4.50023e-11
1.31714e-11
1.09762e-12
-1.09762e-12
-1.09762e-12
-3.29285e-12
0
-1.09762e-12
2.19524e-12
0
-1.09762e-12
5.48809e-12
0
-1.09762e-11
-5.48809e-12
-2.19524e-12
-1.09762e-12
0
1.09762e-12
0
0
4.39047e-12
0
1.09762e-12
10.9737
31.8367
49.6614
63.0641
71.4026
74.7515
73.739
69.3236
62.5805
54.5344
46.0536
37.8001
30.2231
23.5817
17.9808
13.4131
9.79797
7.01379
4.92321
3.39037
2.2916
1.52085
0.99136
0.634878
0.399513
0.24701
0.149976
0.0893322
0.0521386
0.0298132
0.0167533
0.00932914
0.00521097
0.00294488
0.00167653
0.000943813
0.000512812
0.000263447
0.000126296
5.61408e-05
2.30995e-05
8.80645e-06
3.11848e-06
1.02895e-06
3.17412e-07
9.18585e-08
2.50224e-08
6.45838e-09
1.58496e-09
3.80873e-10
1.1964e-10
4.50023e-11
4.39047e-12
0
-1.09762e-12
0
1.09762e-12
-8.78094e-12
-7.68332e-12
-3.29285e-12
-1.09762e-12
-1.4269e-11
1.09762e-12
-1.20738e-11
-1.09762e-12
1.09762e-11
2.305e-11
-2.19523e-12
0
0
-1.09762e-12
-4.39047e-12
-8.78094e-12
1.09762e-12
6.58571e-12
7.37875
21.4524
33.5979
42.9029
48.9003
51.5723
51.2678
48.5746
44.1863
38.7897
32.987
27.2532
21.9237
17.2028
13.1853
9.88278
7.25068
5.21104
3.67114
2.53657
1.71977
1.14458
0.748036
0.480178
0.302762
0.187441
0.113834
0.0676988
0.0393477
0.022328
0.0124
0.00679581
0.0037254
0.00206666
0.00115913
0.000646301
0.000349476
0.00017926
8.59645e-05
3.82603e-05
1.57683e-05
6.02207e-06
2.13624e-06
7.06056e-07
2.18151e-07
6.32041e-08
1.7237e-08
4.43328e-09
1.06908e-09
2.51354e-10
6.47594e-11
1.64643e-11
6.5857e-12
1.4269e-11
0
0
4.39047e-12
0
1.09762e-12
0
-1.09762e-12
-1.09762e-12
-6.5857e-12
0
1.20738e-11
8.78094e-12
2.19523e-12
0
-1.09762e-12
-2.19523e-12
-6.5857e-12
4.39047e-12
0
0
0
4.92794
14.3511
22.5483
28.9223
33.1457
35.1717
35.1927
33.5675
30.7389
27.1607
23.2424
19.3168
15.6264
12.3257
9.49317
7.14748
5.26565
3.79888
2.6857
1.86172
1.26605
0.845001
0.553721
0.356319
0.225142
0.139588
0.084788
0.0503277
0.0291024
0.0163589
0.00894973
0.00480067
0.00256013
0.00137735
0.000750752
0.00040939
0.000218117
0.000110912
5.2947e-05
2.35177e-05
9.68713e-06
3.70072e-06
1.31378e-06
4.34692e-07
1.34474e-07
3.90214e-08
1.06754e-08
2.73636e-09
6.55278e-10
1.44886e-10
1.31714e-11
-2.85381e-11
-2.52452e-11
0
-1.4269e-11
-1.09762e-12
0
7.68332e-12
8.78094e-12
6.58571e-12
1.09762e-12
-4.39047e-12
0
1.31714e-11
9.87856e-12
0
-1.09762e-12
2.19523e-12
-4.39047e-12
0
-7.68332e-12
3.29285e-12
8.78094e-12
9.87856e-12
-3.29285e-12
3.26408
9.51846
14.9941
19.3033
22.2222
23.7019
23.8479
22.8778
21.0721
18.7264
16.1147
13.4651
10.9484
8.67762
6.7137
5.07618
3.75442
2.7185
1.92843
1.34102
0.914668
0.612207
0.40226
0.259517
0.164351
0.102065
0.0620187
0.0367441
0.0211355
0.0117611
0.00632871
0.00331174
0.00170728
0.000881643
0.000460762
0.00024234
0.000125736
6.28409e-05
2.96889e-05
1.31104e-05
5.38405e-06
2.05415e-06
7.29049e-07
2.41307e-07
7.4739e-08
2.1735e-08
5.96006e-09
1.54874e-09
3.85264e-10
8.45165e-11
2.19524e-12
-2.52452e-11
-2.19523e-11
-1.53666e-11
0
-4.39047e-12
-4.39047e-12
0
8.78094e-12
-1.09762e-12
0
1.09762e-12
0
-2.19524e-12
5.48809e-12
-4.39047e-12
-1.09762e-12
-1.09762e-12
0
1.09762e-12
-4.39047e-12
-7.68332e-12
-2.19524e-12
2.19523e-12
5.48809e-12
2.14171
6.25237
9.87013
12.7453
14.7281
15.7772
15.9497
15.3773
14.2358
12.7156
10.9971
9.23359
7.54287
6.00498
4.66548
3.54152
2.62912
1.91036
1.35961
0.948382
0.648751
0.43543
0.286866
0.185534
0.117756
0.0732426
0.0445185
0.0263267
0.0150651
0.00830093
0.0043946
0.00224276
0.00111523
0.000549448
0.00027233
0.000136225
6.78938e-05
3.29858e-05
1.5303e-05
6.68356e-06
2.72728e-06
1.03691e-06
3.67407e-07
1.2155e-07
3.76439e-08
1.09784e-08
3.00528e-09
8.03456e-10
2.03059e-10
4.06118e-11
-2.19523e-12
2.305e-11
4.06118e-11
4.39047e-12
1.4269e-11
2.19523e-12
1.09762e-12
3.29285e-12
0
-2.19523e-12
-2.19523e-12
5.48809e-12
1.09762e-12
0
-9.87856e-12
-1.09762e-12
0
-3.29285e-12
4.39047e-12
-1.09762e-12
-3.29285e-12
5.48809e-12
-3.29285e-12
-9.87856e-12
-1.09762e-12
1.39079
4.06388
6.4267
8.31993
9.64494
10.3702
10.5264
10.1926
9.4782
8.5043
7.3879
6.2304
5.11119
4.08567
3.18666
2.42793
1.80877
1.31868
0.941494
0.658707
0.451871
0.30409
0.200825
0.130163
0.0827481
0.0515085
0.0312888
0.0184529
0.0104998
0.00572981
0.00298772
0.00149001
0.000716142
0.000336581
0.000157402
7.40659e-05
3.49636e-05
1.62943e-05
7.34565e-06
3.14961e-06
1.27076e-06
4.79942e-07
1.69415e-07
5.59357e-08
1.72886e-08
5.03477e-09
1.36873e-09
3.46847e-10
9.7688e-11
1.31714e-11
-9.87856e-12
9.87856e-12
1.86595e-11
-1.09762e-12
-2.19524e-12
5.48809e-12
-1.09762e-12
-2.19524e-12
-9.87856e-12
0
0
-4.39047e-12
0
2.19524e-12
-4.39047e-12
1.09762e-12
8.78094e-12
4.39047e-12
0
0
9.87856e-12
1.20738e-11
5.48809e-12
-5.48809e-12
-4.39047e-12
0.893171
2.61184
4.13658
5.36669
6.23828
6.72872
6.8542
6.66194
6.21939
5.6027
4.8867
4.13734
3.40717
2.73366
2.13977
1.6359
1.22277
0.894302
0.640457
0.449393
0.30912
0.208536
0.138007
0.0895827
0.0569836
0.0354433
0.021474
0.0126032
0.007118
0.00384349
0.001975
0.000964869
0.00045019
0.000202842
8.96974e-05
3.95408e-05
1.74924e-05
7.71386e-06
3.33629e-06
1.39039e-06
5.50719e-07
2.05639e-07
7.20772e-08
2.36987e-08
7.33867e-09
2.12828e-09
5.87225e-10
1.39397e-10
3.84166e-11
-1.75619e-11
3.29285e-12
-1.09762e-11
-7.68332e-12
-4.39047e-12
1.09762e-12
-2.19523e-12
-1.09762e-12
-1.09762e-12
-1.09762e-12
2.19524e-12
-1.09762e-12
-8.78094e-12
-1.09762e-12
0
-8.78094e-12
-9.87856e-12
0
2.19523e-12
4.39047e-12
1.09762e-12
1.31714e-11
-4.39047e-12
3.29285e-12
-1.09762e-12
-1.09762e-12
0.566918
1.65888
2.63064
3.41919
3.98377
4.30876
4.40261
4.29331
4.02203
3.63612
3.18278
2.70424
2.23469
1.79896
1.4127
1.08344
0.812304
0.595878
0.427984
0.301151
0.207698
0.140448
0.0931203
0.060504
0.0384661
0.0238615
0.0143804
0.00837219
0.00467836
0.00249342
0.00126131
0.000604315
0.000274808
0.000119498
5.03351e-05
2.08654e-05
8.62117e-06
3.56149e-06
1.45898e-06
5.839e-07
2.24893e-07
8.24388e-08
2.85666e-08
9.33194e-09
2.88125e-09
8.29799e-10
2.39281e-10
7.13451e-11
0
-1.09762e-11
1.53666e-11
4.39047e-12
7.68332e-12
1.09762e-12
3.29285e-12
3.29285e-12
1.86595e-11
0
2.19523e-12
0
0
-6.5857e-12
-1.09762e-12
3.29285e-12
0
-1.09762e-12
-7.68332e-12
0
0
1.09762e-12
-4.39047e-12
-8.78094e-12
0
0
-5.48809e-12
0.355469
1.04073
1.6522
2.15086
2.51107
2.72241
2.78918
2.72787
2.56336
2.32474
2.04139
1.73995
1.44229
1.16455
0.917158
0.70537
0.530299
0.390066
0.280924
0.198215
0.137083
0.0929437
0.0617607
0.0401727
0.0255149
0.0157627
0.00942527
0.00542423
0.00298698
0.00156532
0.00077725
0.000364812
0.000161954
6.83153e-05
2.76354e-05
1.08642e-05
4.21027e-06
1.62432e-06
6.24362e-07
2.3711e-07
8.78357e-08
3.13227e-08
1.06776e-08
3.45091e-09
1.02957e-09
2.93064e-10
6.80523e-11
-1.09762e-12
-1.09762e-12
1.4269e-11
8.78094e-12
1.31714e-11
-1.75619e-11
2.19524e-12
-1.09762e-12
-1.09762e-12
9.87856e-12
0
0
-2.19524e-12
3.29285e-12
8.78094e-12
0
-1.86595e-11
8.78094e-12
1.09762e-11
0
1.09762e-12
-4.39047e-12
0
-1.20738e-11
0
0
-3.29285e-12
2.19524e-12
0.220089
0.644691
1.02445
1.3355
1.5619
1.69688
1.74259
1.70866
1.60998
1.46422
1.28943
1.10215
0.916142
0.741713
0.585646
0.451509
0.340243
0.250852
0.181105
0.128136
0.0889003
0.0604933
0.0403425
0.0263084
0.0167095
0.0102807
0.00609117
0.00345584
0.00186826
0.000958469
0.000465181
0.000213202
9.22847e-05
3.78308e-05
1.47787e-05
5.55672e-06
2.03645e-06
7.36421e-07
2.64729e-07
9.45455e-08
3.33017e-08
1.1413e-08
3.78459e-09
1.1997e-09
3.5014e-10
9.98832e-11
1.86595e-11
-1.09762e-11
4.39047e-12
1.4269e-11
-1.09762e-12
9.87856e-12
-1.20738e-11
6.58571e-12
-1.09762e-12
-2.19523e-12
-1.86595e-11
-7.68332e-12
-1.09762e-12
0
-1.09762e-12
1.09762e-11
1.09762e-12
-2.19524e-12
-1.09762e-12
-4.39047e-12
9.87856e-12
-1.09762e-12
2.19524e-12
-2.19524e-12
3.29285e-12
0
-2.19524e-12
3.29285e-12
-8.78094e-12
0.134515
0.3942
0.626946
0.81831
0.958526
1.04327
1.07358
1.05504
0.996487
0.90853
0.802119
0.687384
0.572827
0.464897
0.36791
0.284225
0.214576
0.158481
0.114648
0.0813373
0.0566536
0.0387566
0.0260082
0.0170575
0.0108659
0.00667215
0.00392033
0.00219123
0.00116039
0.000580746
0.000274304
0.000122219
5.13986e-05
2.04449e-05
7.72496e-06
2.7922e-06
9.75042e-07
3.32747e-07
1.12121e-07
3.75133e-08
1.24261e-08
4.0524e-09
1.27763e-09
3.79776e-10
1.1964e-10
3.40261e-11
2.41476e-11
1.53666e-11
1.09762e-12
1.20738e-11
-3.29285e-12
-7.68332e-12
1.64643e-11
-4.39047e-12
-2.19523e-12
5.48809e-12
-7.68332e-12
1.20738e-11
1.09762e-12
0
1.09762e-12
-2.19523e-12
-1.09762e-12
1.31714e-11
0
1.31714e-11
0
-2.19523e-12
0
1.09762e-12
4.39047e-12
-2.19523e-12
0
2.19523e-12
-1.09762e-12
0.0811436
0.237894
0.378659
0.4948
0.580398
0.632735
0.652283
0.642256
0.607856
0.555395
0.491442
0.422117
0.352583
0.286787
0.227407
0.175959
0.132991
0.0983118
0.0712072
0.0506427
0.0354405
0.0244283
0.016555
0.0109683
0.00703986
0.00433191
0.00253229
0.00139732
0.000725362
0.000353845
0.00016227
7.00409e-05
2.85046e-05
1.09643e-05
4.00017e-06
1.39145e-06
4.64888e-07
1.50596e-07
4.77804e-08
1.49902e-08
4.64951e-09
1.43678e-09
4.17095e-10
1.1525e-10
5.26856e-11
2.305e-11
1.86595e-11
3.29285e-12
6.58571e-12
8.78094e-12
-1.31714e-11
-2.52452e-11
-7.68332e-12
-4.39047e-12
-1.31714e-11
6.5857e-12
1.09762e-12
1.09762e-11
0
-1.09762e-12
1.09762e-12
0
-1.09762e-12
4.39047e-12
3.29285e-12
4.39047e-12
-9.87856e-12
0
-1.09762e-12
1.09762e-12
1.09762e-12
1.09762e-12
0
1.09762e-12
1.31714e-11
0.0483231
0.141733
0.225781
0.295358
0.346907
0.378733
0.391023
0.385612
0.365544
0.33455
0.296544
0.255182
0.213555
0.174025
0.138204
0.107032
0.0809021
0.0597773
0.0432892
0.0308366
0.0216894
0.0150937
0.0103675
0.00697095
0.00453017
0.00280698
0.00164009
0.000897393
0.000458432
0.000218628
9.75042e-05
4.07741e-05
1.6037e-05
5.95214e-06
2.09241e-06
6.99816e-07
2.23969e-07
6.90972e-08
2.07483e-08
6.13568e-09
1.81217e-09
5.30149e-10
1.44886e-10
4.28071e-11
1.64643e-11
1.86595e-11
-6.5857e-12
2.19524e-12
1.31714e-11
7.68332e-12
4.39047e-12
-5.48809e-12
-1.97571e-11
1.09762e-12
1.09762e-12
-4.39047e-12
0
-3.29285e-12
-2.19523e-12
2.19524e-12
-1.09762e-12
2.19523e-12
0
6.58571e-12
-2.19523e-12
-1.31714e-11
2.19524e-12
1.09762e-12
0
-1.09762e-12
7.68332e-12
3.29285e-12
0
3.29285e-12
-4.39047e-12
0.0284359
0.0834417
0.133035
0.174223
0.204882
0.223951
0.231483
0.228514
0.216818
0.198599
0.17618
0.151739
0.127112
0.103685
0.0823933
0.0637941
0.0481505
0.0354912
0.0256426
0.0182639
0.0129038
0.00907528
0.00633348
0.00433584
0.00286306
0.00179314
0.00105175
0.000573511
0.00028995
0.000135987
5.93141e-05
2.41465e-05
9.21127e-06
3.30628e-06
1.12133e-06
3.60913e-07
1.10798e-07
3.26212e-08
9.30011e-09
2.58708e-09
7.39794e-10
2.21719e-10
8.23213e-11
3.51238e-11
1.09762e-11
2.08547e-11
5.48809e-12
3.40261e-11
1.75619e-11
4.39047e-12
7.68332e-12
4.39047e-12
5.48809e-12
-2.19523e-12
1.4269e-11
-6.5857e-12
-1.09762e-12
-3.29285e-12
1.09762e-12
2.19523e-12
-1.09762e-12
-2.19523e-12
2.19523e-12
-1.20738e-11
-3.29285e-12
-1.09762e-12
0
1.09762e-12
1.09762e-12
0
-7.68332e-12
0
-4.39047e-12
-1.4269e-11
-1.09762e-12
0.016563
0.0486242
0.0775859
0.101708
0.119724
0.130977
0.135457
0.133747
0.126879
0.116152
0.102952
0.0885857
0.0741453
0.0604349
0.0479758
0.0370732
0.0278853
0.0204539
0.0147036
0.0104443
0.00739899
0.00525621
0.00372879
0.00260157
0.00174769
0.00110833
0.000654361
0.000357012
0.000179577
8.33608e-05
3.58191e-05
1.43034e-05
5.33159e-06
1.86349e-06
6.13447e-07
1.91049e-07
5.65383e-08
1.59648e-08
4.31583e-09
1.11957e-09
2.77697e-10
8.12237e-11
4.39047e-11
2.08547e-11
1.09762e-11
3.29285e-12
3.18309e-11
3.62214e-11
2.305e-11
1.09762e-12
-1.97571e-11
-1.09762e-12
-8.78094e-12
0
-2.19524e-12
0
0
-7.68332e-12
4.39047e-12
-3.29285e-12
0
-1.09762e-12
-5.48809e-12
-2.08547e-11
2.19523e-12
0
-2.19524e-12
-3.29285e-12
1.09762e-12
-1.09762e-12
1.09762e-12
-2.19524e-12
0
0
1.31714e-11
0.00957236
0.0281079
0.0448663
0.058839
0.0692811
0.0757928
0.078352
0.0772858
0.0731913
0.0668336
0.059043
0.0506129
0.0422026
0.0342776
0.0271153
0.020864
0.0156022
0.0113586
0.00809987
0.00571987
0.00405166
0.00290122
0.00208902
0.00148365
0.00101312
0.000650468
0.000386938
0.000211713
0.000106345
4.91114e-05
2.09203e-05
8.25469e-06
3.03082e-06
1.04026e-06
3.35266e-07
1.01925e-07
2.93196e-08
8.03236e-09
2.0712e-09
5.10392e-10
9.00046e-11
1.09762e-12
-1.53666e-11
-2.19523e-12
1.31714e-11
2.08547e-11
3.07333e-11
1.31714e-11
1.97571e-11
0
-7.68332e-12
7.68332e-12
1.09762e-12
3.29285e-12
0
-1.09762e-12
0
0
-1.09762e-12
0
0
3.29285e-12
-1.09762e-12
7.68332e-12
0
-1.09762e-12
0
0
6.58571e-12
4.39047e-12
6.5857e-12
-1.97571e-11
2.19524e-12
1.09762e-11
0
0.00550571
0.0161574
0.0257637
0.0337418
0.0396691
0.0433234
0.0446955
0.043972
0.0414938
0.0377053
0.0331024
0.0281702
0.023312
0.0187986
0.0147704
0.0112856
0.00836992
0.00603278
0.00425548
0.00297784
0.00210193
0.00151222
0.00110201
0.000794622
0.00055039
0.000357302
0.000214104
0.000117595
5.91148e-05
2.72485e-05
1.15576e-05
4.53068e-06
1.64903e-06
5.59819e-07
1.78049e-07
5.32696e-08
1.50286e-08
4.03155e-09
1.012e-09
2.32695e-10
3.84166e-11
-8.78094e-12
-2.63428e-11
-8.78094e-12
-5.48809e-12
6.5857e-12
4.39047e-12
-1.64643e-11
-2.19523e-12
5.48809e-12
1.53666e-11
0
3.51238e-11
0
0
0
8.78094e-12
0
-1.09762e-12
-2.19523e-12
-1.09762e-12
1.09762e-12
4.39047e-12
1.86595e-11
1.09762e-12
0
-1.09762e-12
1.31714e-11
0
1.09762e-12
-7.68332e-12
0
0
0
-7.68332e-12
0.00316631
0.00926883
0.014715
0.0191694
0.0224154
0.0243579
0.0250127
0.024491
0.0229821
0.0207352
0.0180388
0.0151859
0.0124221
0.00990494
0.00770197
0.0058264
0.00427542
0.0030445
0.00211937
0.0014653
0.00102701
0.000739585
0.000543487
0.000396595
0.000277912
0.000182102
0.000109834
6.05658e-05
3.05019e-05
1.40596e-05
5.95396e-06
2.32683e-06
8.43084e-07
2.84517e-07
8.98147e-08
2.66194e-08
7.42209e-09
1.95156e-09
4.90635e-10
1.05371e-10
1.20738e-11
-4.39047e-12
-1.64643e-11
-2.19523e-11
-3.29285e-11
-3.95142e-11
-2.85381e-11
-2.52452e-11
-2.41476e-11
-8.78094e-12
1.09762e-12
-2.08547e-11
-7.68332e-12
-2.19524e-12
1.09762e-12
3.29285e-12
7.68332e-12
-1.20738e-11
-1.09762e-12
2.19524e-12
-1.09762e-12
-5.48809e-12
-3.29285e-12
0
0
2.19524e-12
1.09762e-12
0
-8.78094e-12
4.39047e-12
1.09762e-12
2.41476e-11
2.19524e-12
4.39047e-12
0
0.00183608
0.00534261
0.00839299
0.0107958
0.0124666
0.0133993
0.0136356
0.0132476
0.0123352
0.0110285
0.00948621
0.00787749
0.0063473
0.00498542
0.00382281
0.00285485
0.00206829
0.00145266
0.000996229
0.000678895
0.000470931
0.00033816
0.000249635
0.000183738
0.000129921
8.57755e-05
5.20243e-05
2.87958e-05
1.45346e-05
6.70629e-06
2.8398e-06
1.10866e-06
4.00934e-07
1.34919e-07
4.24043e-08
1.25139e-08
3.48164e-09
8.98949e-10
2.29402e-10
4.82952e-11
-1.86595e-11
-1.86595e-11
-9.87856e-12
-1.4269e-11
-1.97571e-11
-3.51238e-11
-4.71976e-11
-1.97571e-11
-2.85381e-11
-2.305e-11
-1.97571e-11
-1.64643e-11
-2.85381e-11
2.19524e-12
2.19524e-12
0
-8.78094e-12
-1.64643e-11
-8.78094e-12
-1.20738e-11
-3.29285e-12
-1.09762e-12
1.09762e-12
-2.19524e-12
-1.09762e-12
-1.09762e-11
1.09762e-12
-6.5857e-12
-1.09762e-12
-1.09762e-12
-2.19523e-12
0
-9.87856e-12
0
5.48809e-12
0.0010862
0.0031267
0.00481839
0.00605306
0.00682593
0.00718715
0.00719627
0.00690467
0.00636125
0.00562598
0.00477763
0.00390657
0.00309301
0.00238585
0.0017985
0.00132242
0.000944122
0.000653199
0.000440799
0.00029556
0.000202344
0.00014436
0.000106667
7.89404e-05
5.61918e-05
3.73195e-05
2.27405e-05
1.26298e-05
6.38986e-06
2.9527e-06
1.2513e-06
4.88568e-07
1.76593e-07
5.93745e-08
1.86277e-08
5.46833e-09
1.5191e-09
3.7319e-10
7.4638e-11
7.68332e-12
-1.09762e-12
-7.68332e-12
1.31714e-11
1.75619e-11
-3.29285e-12
-7.68332e-12
-4.39047e-12
-3.29285e-12
2.19523e-12
-1.53666e-11
-1.64643e-11
1.97571e-11
1.20738e-11
2.19523e-12
-3.29285e-12
6.5857e-12
-7.68332e-12
7.68332e-12
-8.78094e-12
-2.19523e-12
-1.31714e-11
5.48809e-12
4.39047e-12
-7.68332e-12
1.09762e-12
-1.09762e-12
-1.09762e-12
1.09762e-12
2.19523e-12
-8.78094e-12
-1.31714e-11
-4.39047e-12
-6.5857e-12
-7.68332e-12
-1.09762e-12
0.000660391
0.00187257
0.00280688
0.00340253
0.0036954
0.00376137
0.00366618
0.00344868
0.00313036
0.00273276
0.00228879
0.00184131
0.00143073
0.00108176
0.000799777
0.000577749
0.000405829
0.000276324
0.000183364
0.000120831
8.14605e-05
5.75601e-05
4.24281e-05
3.1483e-05
2.25132e-05
1.50204e-05
9.1877e-06
5.11814e-06
2.59543e-06
1.20139e-06
5.09768e-07
1.99207e-07
7.20235e-08
2.42222e-08
7.5999e-09
2.21609e-09
5.97104e-10
1.36105e-10
8.78094e-12
-1.09762e-11
-1.09762e-12
2.19524e-12
6.58571e-12
-2.19523e-12
1.75619e-11
3.29285e-12
2.52452e-11
1.09762e-12
-4.39047e-12
1.09762e-12
9.87856e-12
1.31714e-11
4.39047e-12
-1.31714e-11
-1.09762e-12
4.39047e-12
0
4.39047e-12
1.86595e-11
1.31714e-11
4.39047e-12
2.19523e-12
0
2.19524e-12
0
1.09762e-11
-2.19524e-12
0
0
5.48809e-12
8.78094e-12
0
9.87856e-12
2.19523e-12
-6.58571e-12
0.00040932
0.00114164
0.00165784
0.00192389
0.0019883
0.00192859
0.00180536
0.00164793
0.00146431
0.00125774
0.00103769
0.000821126
0.000625996
0.000463544
0.000335633
0.000237816
0.000164151
0.000109921
7.17003e-05
4.64046e-05
3.0757e-05
2.14672e-05
1.57389e-05
1.16806e-05
8.37598e-06
5.60723e-06
3.44058e-06
1.92172e-06
9.76655e-07
4.52911e-07
1.92485e-07
7.5335e-08
2.72901e-08
9.1695e-09
2.89442e-09
8.52849e-10
2.45866e-10
7.24428e-11
3.62214e-11
1.09762e-12
1.97571e-11
1.86595e-11
1.75619e-11
-3.29285e-12
2.19524e-11
1.75619e-11
7.68332e-12
1.09762e-12
-2.08547e-11
0
1.53666e-11
0
-8.78094e-12
-3.29285e-12
2.19524e-12
-2.305e-11
-1.09762e-12
0
7.68332e-12
1.09762e-12
1.4269e-11
-2.19523e-12
-1.09762e-12
-1.09762e-12
-4.39047e-12
1.09762e-12
-1.09762e-12
1.20738e-11
0
0
2.08547e-11
9.87856e-12
6.58571e-12
4.39047e-12
0
0.000252333
0.00069351
0.000977772
0.00108621
0.001063
0.000972458
0.000862713
0.000754771
0.000650795
0.000547301
0.000443943
0.000345444
0.000258462
0.00018744
0.000132831
9.22218e-05
6.24928e-05
4.11356e-05
2.6373e-05
1.67596e-05
1.09087e-05
7.50447e-06
5.4585e-06
4.0428e-06
2.90259e-06
1.94774e-06
1.19817e-06
6.70822e-07
3.41637e-07
1.58746e-07
6.75836e-08
2.65097e-08
9.62171e-09
3.23797e-09
1.05262e-09
3.12821e-10
1.05371e-10
5.37833e-11
2.41476e-11
1.09762e-12
3.84166e-11
1.4269e-11
3.62214e-11
4.60999e-11
3.07333e-11
4.06118e-11
1.75619e-11
2.85381e-11
5.48809e-12
-3.29285e-12
1.20738e-11
1.53666e-11
2.41476e-11
1.97571e-11
1.09762e-12
5.48809e-12
4.39047e-12
1.4269e-11
-1.09762e-11
0
0
-2.19523e-12
-1.09762e-12
0
-3.29285e-12
0
4.39047e-12
-4.39047e-12
-2.19523e-12
-1.31714e-11
-5.48809e-12
6.5857e-12
-1.09762e-12
-5.48809e-12
2.19523e-12
0.000150125
0.000407991
0.000561878
0.000601481
0.000559503
0.000481639
0.000401388
0.000332615
0.000275417
0.000225262
0.00017908
0.000136923
0.000100583
7.14772e-05
4.95774e-05
3.37108e-05
2.2413e-05
1.44979e-05
9.13619e-06
5.70093e-06
3.64163e-06
2.46497e-06
1.77487e-06
1.30938e-06
9.39984e-07
6.31714e-07
3.89402e-07
2.18469e-07
1.11484e-07
5.19063e-08
2.21378e-08
8.69752e-09
3.16663e-09
1.08664e-09
3.36969e-10
9.00046e-11
1.97571e-11
2.19524e-11
-4.39047e-12
1.20738e-11
5.48809e-12
3.29285e-12
1.53666e-11
4.39047e-11
3.62214e-11
3.7319e-11
9.87856e-12
2.19524e-12
2.74404e-11
1.4269e-11
2.41476e-11
2.85381e-11
2.96357e-11
1.09762e-12
-2.19524e-12
1.4269e-11
1.31714e-11
2.19524e-12
2.19523e-12
0
0
-2.19523e-12
2.19524e-12
8.78094e-12
3.29285e-12
-1.09762e-12
0
-1.20738e-11
1.09762e-12
0
-1.64643e-11
-9.87856e-12
1.09762e-12
-7.68332e-12
0
8.41314e-05
0.000226866
0.000307233
0.000319814
0.000285411
0.000232505
0.000181768
0.000141525
0.000111398
8.79027e-05
6.81817e-05
5.11432e-05
3.68915e-05
2.57074e-05
1.7461e-05
1.16278e-05
7.58301e-06
4.81939e-06
2.98562e-06
1.82971e-06
1.14667e-06
7.62741e-07
5.42658e-07
3.98085e-07
2.85399e-07
1.91967e-07
1.18517e-07
6.65957e-08
3.40525e-08
1.58957e-08
6.79864e-09
2.67599e-09
9.62611e-10
3.24895e-10
8.45165e-11
2.85381e-11
-5.48809e-12
9.87856e-12
1.53666e-11
3.7319e-11
6.5857e-12
7.68332e-12
-2.305e-11
3.29285e-12
2.41476e-11
1.64643e-11
-8.78094e-12
1.09762e-12
1.53666e-11
1.97571e-11
6.58571e-12
1.75619e-11
-2.19523e-12
-8.78094e-12
0
-2.08547e-11
-4.39047e-12
-4.39047e-12
1.09762e-12
0
0
-2.19523e-12
4.39047e-12
0
5.48809e-12
0
-1.09762e-12
0
6.58571e-12
1.53666e-11
5.48809e-12
-5.48809e-12
-8.78094e-12
1.09762e-12
-4.39047e-12
4.37639e-05
0.000117407
0.000157208
0.000160463
0.000138832
0.000108117
7.97312e-05
5.82117e-05
4.32238e-05
3.26342e-05
2.45586e-05
1.80265e-05
1.27634e-05
8.72692e-06
5.8087e-06
3.78963e-06
2.42407e-06
1.51365e-06
9.22042e-07
5.55145e-07
3.41295e-07
2.22904e-07
1.56461e-07
1.13945e-07
8.14959e-08
5.48381e-08
3.38889e-08
1.90678e-08
9.7688e-09
4.58146e-09
1.97791e-09
7.95773e-10
2.766e-10
7.4638e-11
2.08547e-11
1.64643e-11
9.87856e-12
6.5857e-12
2.19523e-11
1.31714e-11
7.68332e-12
-2.19523e-12
-9.87856e-12
-3.29285e-12
6.5857e-12
0
5.48809e-12
2.41476e-11
6.5857e-12
1.86595e-11
-6.5857e-12
-6.5857e-12
-3.29285e-12
-3.29285e-12
2.19523e-12
0
-1.4269e-11
-1.09762e-12
-1.09762e-12
0
-1.09762e-12
4.39047e-12
0
-1.09762e-12
0
-4.39047e-12
-1.09762e-12
-1.09762e-12
0
6.5857e-12
8.78094e-12
-2.19523e-12
-4.39047e-12
8.78094e-12
0
2.09907e-05
5.61267e-05
7.45985e-05
7.51406e-05
6.36011e-05
4.78648e-05
3.36167e-05
2.31041e-05
1.6129e-05
1.15695e-05
8.39505e-06
6.00923e-06
4.17184e-06
2.7998e-06
1.82761e-06
1.16876e-06
7.33431e-07
4.50009e-07
2.69599e-07
1.59552e-07
9.62259e-08