/*--------------------------------*- C++ -*----------------------------------*\
  =========                 |
  \\      /  F ield         | OpenFOAM: The Open Source CFD Toolbox
   \\    /   O peration     | Website:  https://openfoam.org
    \\  /    A nd           | Version:  10
     \\/     M anipulation  |
\*---------------------------------------------------------------------------*/
FoamFile
{
    format      ascii;
    class       volScalarField;
    location    "294";
    object      gradTz;
}
// * * * * * * * * * * * * * * * * * * * * * * * * * * * * * * * * * * * * * //

dimensions      [0 -1 0 1 0 0 0];

internalField   nonuniform List<scalar> 
11250
(
-14351
-4146.46
-1526.16
-722.577
-417.829
-276.15
-198.688
-151.064
-119.21
-96.527
-79.5767
-66.4212
-55.9016
-47.2921
-40.1197
-34.066
-28.9095
-24.4908
-20.6921
-17.4227
-14.6105
-12.1965
-10.1309
-8.37058
-6.87754
-5.61797
-4.5615
-3.68085
-2.95149
-2.35144
-1.86118
-1.4634
-1.14297
-0.886692
-0.683219
-0.52285
-0.397384
-0.29995
-0.224844
-0.167379
-0.123738
-0.0908409
-0.0662267
-0.0479464
-0.0344706
-0.02461
-0.0174479
-0.0122842
-0.00858857
-0.00596303
-0.00411138
-0.00281504
-0.00191407
-0.00129244
-0.000866647
-0.000577106
-0.000381637
-0.000250626
-0.000163449
-0.000105857
-6.80827e-05
-4.34839e-05
-2.758e-05
-1.73711e-05
-1.08649e-05
-6.7482e-06
-4.16218e-06
-2.54947e-06
-1.55119e-06
-9.3815e-07
-5.6517e-07
-3.41273e-07
-2.102e-07
-1.38248e-07
-1.06522e-07
-8257.09
-4854.77
-2761.4
-1668.54
-1090.1
-763.95
-565.99
-437.232
-348.318
-283.757
-234.891
-196.628
-165.836
-140.517
-119.35
-101.436
-86.1452
-73.0217
-61.7251
-51.9927
-43.6148
-36.4186
-30.2578
-25.0051
-20.5485
-16.7876
-13.6324
-11.0017
-8.82255
-7.02951
-5.5643
-4.37538
-3.41753
-2.6514
-2.04307
-1.56358
-1.18842
-0.897066
-0.672468
-0.500616
-0.3701
-0.271711
-0.198093
-0.143418
-0.103111
-0.0736166
-0.0521934
-0.0367473
-0.0256925
-0.0178385
-0.0122995
-0.00842147
-0.0057262
-0.00386655
-0.00259275
-0.00172655
-0.00114177
-0.000749822
-0.000489012
-0.000316709
-0.000203695
-0.0001301
-8.25171e-05
-5.19734e-05
-3.25076e-05
-2.01907e-05
-1.24533e-05
-7.6281e-06
-4.64129e-06
-2.80707e-06
-1.69105e-06
-1.02106e-06
-6.28947e-07
-4.13725e-07
-3.1874e-07
-5564.29
-4252.92
-2994.98
-2099.02
-1509.1
-1122.72
-863.379
-682.987
-552.651
-455.015
-379.47
-319.365
-270.424
-229.824
-195.653
-166.587
-141.677
-120.232
-101.727
-85.7528
-71.9808
-60.1365
-49.9859
-41.3244
-33.9704
-27.7608
-22.5488
-18.2014
-14.599
-11.6339
-9.21034
-7.24334
-5.65831
-4.39031
-3.38334
-2.58952
-1.96836
-1.4859
-1.11395
-0.829325
-0.613144
-0.450167
-0.328213
-0.237634
-0.170855
-0.121987
-0.0864907
-0.0608966
-0.0425782
-0.0295633
-0.020384
-0.0139574
-0.00949057
-0.00640854
-0.0042974
-0.00286175
-0.00189251
-0.00124287
-0.00081058
-0.000524982
-0.000337654
-0.000215662
-0.000136788
-8.61574e-05
-5.38893e-05
-3.34715e-05
-2.06451e-05
-1.2646e-05
-7.69452e-06
-4.65373e-06
-2.80359e-06
-1.69284e-06
-1.04277e-06
-6.85937e-07
-5.28506e-07
-4180.84
-3595.67
-2864.68
-2221.71
-1722.98
-1353.06
-1080.64
-877.745
-723.584
-603.728
-508.387
-430.94
-366.876
-313.087
-267.396
-228.249
-194.513
-165.341
-140.08
-118.214
-99.3201
-83.0414
-69.0698
-57.1334
-46.9886
-38.4154
-31.2142
-25.2041
-20.2213
-16.1183
-12.7633
-10.0395
-7.84396
-6.08712
-4.69162
-3.59131
-2.73016
-2.0612
-1.54539
-1.15063
-0.850761
-0.624671
-0.455474
-0.329794
-0.237131
-0.169316
-0.120054
-0.0845319
-0.0591063
-0.0410409
-0.0282991
-0.0193776
-0.0131766
-0.00889786
-0.00596685
-0.0039736
-0.00262787
-0.00172585
-0.0011256
-0.000729025
-0.000468899
-0.000299497
-0.000189966
-0.000119655
-7.48426e-05
-4.6487e-05
-2.86736e-05
-1.75642e-05
-1.06872e-05
-6.46388e-06
-3.8942e-06
-2.35144e-06
-1.44851e-06
-9.52859e-07
-7.34159e-07
-3379.74
-3081.48
-2643.73
-2197.71
-1805.83
-1483.95
-1226.75
-1022.46
-859.24
-727.292
-619.106
-529.134
-453.34
-388.792
-333.349
-285.431
-243.853
-207.703
-176.266
-148.958
-125.296
-104.863
-87.2926
-72.2585
-59.4645
-48.6409
-39.5413
-31.9409
-25.6354
-20.4403
-16.1903
-12.7383
-9.95483
-7.72678
-5.95647
-4.56027
-3.4673
-2.61808
-1.96315
-1.46185
-1.08099
-0.793792
-0.578839
-0.419154
-0.301406
-0.215225
-0.152616
-0.107466
-0.0751466
-0.0521814
-0.0359827
-0.0246401
-0.0167558
-0.0113153
-0.00758827
-0.00505357
-0.00334221
-0.00219507
-0.00143167
-0.00092729
-0.000596439
-0.000380971
-0.000241651
-0.000152214
-9.52107e-05
-5.91398e-05
-3.6479e-05
-2.23461e-05
-1.35972e-05
-8.22415e-06
-4.95483e-06
-2.99197e-06
-1.84313e-06
-1.21251e-06
-9.34254e-07
-2873.31
-2703.28
-2427.69
-2116.47
-1815.87
-1547.68
-1317.86
-1124.43
-962.39
-826.288
-711.22
-613.156
-528.924
-456.076
-392.735
-337.458
-289.123
-246.839
-209.883
-177.655
-149.637
-125.379
-104.474
-86.5535
-71.2804
-58.3431
-47.4547
-38.3519
-30.794
-24.5629
-19.4623
-15.3173
-11.9735
-9.29591
-7.16768
-5.48867
-4.17395
-3.15217
-2.364
-1.76058
-1.30206
-0.956242
-0.697375
-0.505039
-0.363199
-0.259372
-0.183935
-0.12953
-0.0905811
-0.0629033
-0.0433788
-0.0297065
-0.0202022
-0.0136433
-0.00914996
-0.00609389
-0.00403041
-0.00264717
-0.00172661
-0.00111837
-0.000719367
-0.000459506
-0.000291477
-0.000183605
-0.00011485
-7.13412e-05
-4.40066e-05
-2.69582e-05
-1.64042e-05
-9.92224e-06
-5.97811e-06
-3.61004e-06
-2.22395e-06
-1.46307e-06
-1.12738e-06
-2532.59
-2426.4
-2243.23
-2020.86
-1790.08
-1570.06
-1370.08
-1192.99
-1038.11
-903.276
-785.858
-683.35
-593.564
-514.679
-445.215
-383.974
-329.982
-282.437
-240.66
-204.068
-172.144
-144.422
-120.474
-99.9037
-82.3425
-67.4457
-54.893
-44.3878
-35.6579
-28.4549
-22.5548
-17.7574
-13.8852
-10.7832
-8.31654
-6.36989
-4.8451
-3.65973
-2.74513
-2.04475
-1.51244
-1.1109
-0.810269
-0.586866
-0.42209
-0.301459
-0.213801
-0.150575
-0.105307
-0.0731349
-0.0504382
-0.0345433
-0.023493
-0.0158667
-0.0106417
-0.00708775
-0.00468797
-0.00307921
-0.0020085
-0.00130101
-0.000836885
-0.000534596
-0.000339122
-0.000213626
-0.000133634
-8.30125e-05
-5.1208e-05
-3.13709e-05
-1.90901e-05
-1.15473e-05
-6.95752e-06
-4.20169e-06
-2.58856e-06
-1.70302e-06
-1.31232e-06
-2293.01
-2221.57
-2093.27
-1929.29
-1749.57
-1568.92
-1396.5
-1236.98
-1092.06
-961.71
-845.039
-740.829
-647.816
-564.825
-490.82
-424.905
-366.306
-314.352
-268.449
-228.059
-192.69
-161.88
-135.197
-112.228
-92.5825
-75.8922
-61.8098
-50.0111
-40.1968
-32.0922
-25.4488
-20.0435
-15.6782
-12.1794
-9.39603
-7.19854
-5.47668
-4.13767
-3.10424
-2.31265
-1.71088
-1.25685
-0.916849
-0.664147
-0.47773
-0.341236
-0.242037
-0.170477
-0.119237
-0.0828164
-0.0571198
-0.0391222
-0.026609
-0.0179724
-0.0120547
-0.00802938
-0.00531108
-0.00348868
-0.00227571
-0.00147417
-0.000948318
-0.000605807
-0.000384312
-0.000242104
-0.000151455
-9.4087e-05
-5.8042e-05
-3.55591e-05
-2.16397e-05
-1.30901e-05
-7.88746e-06
-4.76355e-06
-2.93488e-06
-1.93098e-06
-1.48802e-06
-2119.15
-2068.02
-1973.65
-1848.49
-1705.51
-1555.61
-1406.68
-1263.71
-1129.46
-1005.18
-891.138
-787.118
-692.628
-607.079
-529.866
-460.408
-398.153
-342.585
-293.216
-249.578
-211.218
-177.698
-148.59
-123.477
-101.958
-83.6462
-68.1743
-55.1962
-44.3896
-35.4577
-28.1305
-22.1646
-17.3438
-13.4778
-10.4009
-7.97059
-6.06558
-4.58365
-3.43956
-2.56297
-1.8964
-1.39337
-1.01659
-0.736502
-0.529846
-0.378508
-0.268505
-0.18914
-0.132303
-0.0919003
-0.0633907
-0.0434208
-0.029535
-0.0199502
-0.0133822
-0.00891417
-0.00589671
-0.00387359
-0.00252693
-0.001637
-0.00105312
-0.000672792
-0.000426828
-0.000268901
-0.000168227
-0.000104511
-6.44754e-05
-3.95024e-05
-2.40405e-05
-1.45431e-05
-8.76342e-06
-5.29283e-06
-3.26119e-06
-2.14583e-06
-1.65365e-06
-1990.07
-1951.47
-1878.89
-1779.97
-1663.35
-1536.96
-1407.21
-1278.76
-1154.72
-1036.96
-926.527
-823.885
-729.146
-642.211
-562.861
-490.807
-425.723
-367.253
-315.024
-268.651
-227.734
-191.867
-160.637
-133.634
-110.451
-90.6901
-73.9705
-59.9288
-48.2242
-38.5412
-30.5913
-24.1139
-18.8765
-14.674
-11.3276
-8.68331
-6.60972
-4.99606
-3.74987
-2.79477
-2.06832
-1.51995
-1.10912
-0.803661
-0.578242
-0.413135
-0.293104
-0.206492
-0.144456
-0.100352
-0.0692269
-0.0474227
-0.0322598
-0.0217924
-0.014619
-0.00973874
-0.00644259
-0.00423245
-0.0027612
-0.00178887
-0.00115089
-0.000735292
-0.000466504
-0.000293912
-0.000183883
-0.000114243
-7.04831e-05
-4.31854e-05
-2.62833e-05
-1.59006e-05
-9.58194e-06
-5.78755e-06
-3.56623e-06
-2.34669e-06
-1.80857e-06
-1892.62
-1862.11
-1803.97
-1723.12
-1625.48
-1516.86
-1402.4
-1286.18
-1171.28
-1059.85
-953.37
-852.758
-758.568
-671.088
-590.42
-516.538
-449.316
-388.559
-334.011
-285.369
-242.296
-204.422
-171.36
-142.709
-118.064
-97.0239
-79.1964
-64.2059
-51.6971
-41.3391
-32.8281
-25.8885
-20.2737
-15.7658
-12.1745
-9.3353
-7.10798
-5.37404
-4.0345
-3.00755
-2.22623
-1.63629
-1.19422
-0.865462
-0.6228
-0.445031
-0.315774
-0.222489
-0.155665
-0.10815
-0.0746135
-0.0511174
-0.0347762
-0.0234942
-0.0157619
-0.0105009
-0.00694725
-0.0045643
-0.00297789
-0.00192937
-0.00124135
-0.000793135
-0.00050323
-0.000317068
-0.000198381
-0.000123257
-7.60483e-05
-4.65976e-05
-2.83615e-05
-1.71588e-05
-1.03408e-05
-6.24626e-06
-3.8491e-06
-2.533e-06
-1.95229e-06
-1818.14
-1793.05
-1744.73
-1676.55
-1592.66
-1497.44
-1394.97
-1288.79
-1181.76
-1076.11
-973.525
-875.217
-782.046
-694.589
-613.207
-538.091
-469.296
-406.77
-350.367
-299.87
-255.001
-215.433
-180.807
-150.736
-124.822
-102.663
-83.8621
-68.0339
-54.8122
-43.8539
-34.8421
-27.4889
-21.5357
-16.7534
-12.9414
-9.92639
-7.56016
-5.71738
-4.29329
-3.20117
-2.37002
-1.74231
-1.27182
-0.921845
-0.663474
-0.474162
-0.336488
-0.237113
-0.165916
-0.115284
-0.0795436
-0.0545001
-0.0370809
-0.0250534
-0.0168092
-0.0111995
-0.00741
-0.00486866
-0.00317667
-0.00205829
-0.00132438
-0.000846235
-0.000536952
-0.000338334
-0.000211699
-0.000131538
-8.11623e-05
-4.97338e-05
-3.0272e-05
-1.83157e-05
-1.10386e-05
-6.66817e-06
-4.10939e-06
-2.70447e-06
-2.08453e-06
-1760.72
-1739.34
-1697.87
-1638.69
-1564.85
-1479.72
-1386.6
-1288.51
-1188.08
-1087.5
-988.527
-892.549
-800.628
-713.551
-631.878
-555.976
-486.054
-422.183
-364.319
-312.323
-265.976
-224.994
-189.047
-157.765
-130.762
-107.636
-87.9878
-71.4276
-57.5803
-46.0931
-36.6389
-28.9192
-22.6652
-17.6385
-13.6296
-10.4575
-7.96689
-6.02653
-4.52651
-3.37581
-2.49983
-1.83808
-1.34197
-0.972849
-0.70029
-0.500544
-0.355257
-0.25037
-0.175212
-0.121757
-0.0840185
-0.0575718
-0.0391744
-0.0264701
-0.0177612
-0.0118347
-0.00783085
-0.00514554
-0.00335755
-0.00217564
-0.00139997
-0.000894588
-0.000567666
-0.000357707
-0.000223833
-0.000139086
-8.58239e-05
-5.25932e-05
-3.20142e-05
-1.93709e-05
-1.16752e-05
-7.05316e-06
-4.34693e-06
-2.86099e-06
-2.2053e-06
-1716.18
-1697.4
-1660.78
-1608.08
-1541.65
-1464.13
-1378.25
-1286.62
-1191.63
-1095.36
-999.609
-905.835
-815.232
-728.735
-647.053
-570.693
-499.986
-435.11
-376.111
-322.918
-275.368
-233.219
-196.167
-163.865
-135.934
-111.979
-91.6024
-74.4086
-60.0175
-48.0688
-38.2273
-30.1858
-23.6671
-18.4247
-14.2419
-10.9305
-8.32956
-6.30248
-4.73489
-3.53198
-2.61601
-1.92387
-1.40484
-1.0186
-0.733331
-0.524235
-0.372121
-0.262288
-0.183574
-0.127582
-0.0880469
-0.060338
-0.0410604
-0.0277469
-0.0186195
-0.0124075
-0.00821049
-0.00539537
-0.00352082
-0.00228157
-0.00146823
-0.000938262
-0.000595415
-0.000375214
-0.000234801
-0.000145909
-9.00392e-05
-5.51793e-05
-3.35902e-05
-2.03257e-05
-1.22514e-05
-7.40166e-06
-4.56199e-06
-3.00275e-06
-2.31474e-06
-1681.48
-1664.55
-1631.42
-1583.46
-1522.51
-1450.74
-1370.45
-1283.93
-1193.36
-1100.71
-1007.74
-915.959
-826.639
-740.814
-659.299
-582.709
-511.475
-445.862
-385.991
-331.854
-283.335
-240.23
-202.264
-169.108
-140.396
-115.739
-94.7404
-77.0034
-62.144
-49.7964
-39.6189
-31.2975
-24.548
-19.1171
-14.7817
-11.3481
-8.65012
-6.54665
-4.91946
-3.67044
-2.7191
-2.00005
-1.46073
-1.05928
-0.762737
-0.545333
-0.387148
-0.272913
-0.191032
-0.13278
-0.0916434
-0.0628087
-0.0427456
-0.0288882
-0.0193869
-0.0129199
-0.00855018
-0.00561898
-0.00366698
-0.00237644
-0.00152938
-0.000977394
-0.000620283
-0.000390907
-0.000244635
-0.000152028
-9.38203e-05
-5.74995e-05
-3.50045e-05
-2.11826e-05
-1.27686e-05
-7.71458e-06
-4.7552e-06
-3.13016e-06
-2.41306e-06
-1654.37
-1638.78
-1608.2
-1563.71
-1506.85
-1439.43
-1363.46
-1280.97
-1193.94
-1104.27
-1013.66
-923.635
-835.502
-750.364
-669.115
-592.451
-520.878
-454.735
-394.202
-339.326
-290.034
-246.155
-207.44
-173.577
-144.213
-118.965
-97.4406
-79.2421
-63.9831
-51.2938
-40.8276
-32.2648
-25.3157
-19.7214
-15.2536
-11.7137
-8.93105
-6.76088
-5.08156
-3.79217
-2.80981
-2.06714
-1.50998
-1.09517
-0.788691
-0.563965
-0.400426
-0.282307
-0.19763
-0.13738
-0.094828
-0.0649974
-0.0442391
-0.0299
-0.0200675
-0.0133745
-0.00885165
-0.0058175
-0.00379678
-0.00246072
-0.00158371
-0.00101217
-0.000642392
-0.000404862
-0.000253382
-0.000157472
-9.71848e-05
-5.95646e-05
-3.62636e-05
-2.19457e-05
-1.32293e-05
-7.99339e-06
-4.92733e-06
-3.24367e-06
-2.50073e-06
-1633.17
-1618.56
-1589.84
-1547.93
-1494.13
-1430.02
-1357.37
-1278.03
-1193.84
-1106.59
-1017.95
-929.427
-842.353
-757.874
-676.937
-600.296
-528.52
-462.001
-400.973
-345.525
-295.621
-251.121
-211.796
-177.353
-147.449
-121.71
-99.7441
-81.1569
-65.5599
-52.5805
-41.8682
-33.0992
-25.9791
-20.2444
-15.6625
-12.0309
-9.17515
-6.94724
-5.22273
-3.89828
-2.88896
-2.12573
-1.55302
-1.12655
-0.811406
-0.580284
-0.412063
-0.290544
-0.203419
-0.141418
-0.0976249
-0.0669205
-0.0455519
-0.0307898
-0.0206663
-0.0137746
-0.00911706
-0.00599233
-0.00391112
-0.00253498
-0.0016316
-0.00104284
-0.000661888
-0.000417172
-0.000261099
-0.000162276
-0.000100155
-6.13879e-05
-3.73754e-05
-2.26197e-05
-1.36363e-05
-8.23976e-06
-5.07951e-06
-3.34405e-06
-2.57824e-06
-1616.58
-1602.7
-1575.36
-1535.36
-1483.86
-1422.27
-1352.18
-1275.3
-1193.36
-1108.06
-1021.04
-933.78
-847.627
-763.75
-683.133
-606.575
-534.688
-467.911
-406.516
-350.629
-300.245
-255.249
-215.432
-180.517
-150.17
-124.024
-101.693
-82.7808
-66.9004
-53.6768
-42.7566
-33.8128
-26.5474
-20.6932
-16.014
-12.3039
-9.38548
-7.108
-5.34464
-3.99
-2.95745
-2.17647
-1.59033
-1.15378
-0.831125
-0.594459
-0.422178
-0.297709
-0.208457
-0.144935
-0.100061
-0.0685966
-0.0466966
-0.0315659
-0.0211888
-0.0141238
-0.00934882
-0.00614504
-0.00401104
-0.00259989
-0.00167347
-0.00106966
-0.000678944
-0.000427943
-0.000267853
-0.000166482
-0.000102755
-6.29848e-05
-3.83495e-05
-2.32102e-05
-1.39929e-05
-8.45571e-06
-5.21296e-06
-3.43211e-06
-2.64621e-06
-1603.61
-1590.26
-1563.95
-1525.39
-1475.63
-1415.94
-1347.82
-1272.85
-1192.68
-1108.95
-1023.25
-937.037
-851.669
-768.325
-688.016
-611.571
-539.636
-472.684
-411.02
-354.799
-304.042
-258.654
-218.444
-183.147
-152.439
-125.961
-103.327
-84.1467
-68.0305
-54.603
-43.5088
-34.4181
-27.0303
-21.0751
-16.3135
-12.5368
-9.56519
-7.24552
-5.44904
-4.06864
-3.01621
-2.22005
-1.6224
-1.1772
-0.848102
-0.606672
-0.430899
-0.303889
-0.212805
-0.147971
-0.102167
-0.0700455
-0.0476866
-0.0322375
-0.0216411
-0.0144262
-0.00954959
-0.00627738
-0.00409765
-0.00265617
-0.00170978
-0.00109292
-0.000693746
-0.000437293
-0.000273718
-0.000170135
-0.000105014
-6.43723e-05
-3.9196e-05
-2.37236e-05
-1.43031e-05
-8.64354e-06
-5.32904e-06
-3.50872e-06
-2.70536e-06
-1593.48
-1580.53
-1554.98
-1517.51
-1469.05
-1410.82
-1344.21
-1270.73
-1191.95
-1109.46
-1024.81
-939.466
-854.755
-771.872
-691.845
-615.523
-543.581
-476.515
-414.656
-358.184
-307.138
-261.442
-220.919
-185.316
-154.317
-127.568
-104.688
-85.2862
-68.9755
-55.3791
-44.1403
-34.9273
-27.4372
-21.3974
-16.5667
-12.734
-9.71749
-7.36221
-5.53772
-4.13551
-3.06623
-2.25718
-1.64974
-1.19719
-0.862599
-0.617109
-0.438356
-0.309178
-0.216528
-0.150573
-0.103971
-0.071288
-0.048536
-0.0328139
-0.0220294
-0.014686
-0.00972212
-0.00639114
-0.00417213
-0.00270458
-0.00174103
-0.00111295
-0.000706488
-0.000445344
-0.000278769
-0.000173282
-0.000106961
-6.55681e-05
-3.99257e-05
-2.41662e-05
-1.45706e-05
-8.80557e-06
-5.42917e-06
-3.57483e-06
-2.75642e-06
-1585.58
-1572.94
-1547.96
-1511.29
-1463.83
-1406.71
-1341.25
-1268.92
-1191.22
-1109.72
-1025.92
-941.27
-857.101
-774.609
-694.831
-618.633
-546.707
-479.57
-417.572
-360.911
-309.644
-263.708
-222.939
-187.092
-155.859
-128.891
-105.811
-86.2293
-69.7594
-56.0243
-44.6662
-35.3521
-27.7772
-21.6672
-16.7789
-12.8995
-9.8455
-7.4604
-5.61244
-4.1919
-3.10846
-2.28855
-1.67287
-1.21411
-0.87488
-0.625956
-0.444681
-0.313667
-0.219689
-0.152783
-0.105505
-0.072345
-0.0492588
-0.0333047
-0.0223603
-0.0149074
-0.0098692
-0.00648816
-0.00423567
-0.0027459
-0.0017677
-0.00113005
-0.000717371
-0.000452222
-0.000283085
-0.000175971
-0.000108625
-6.65906e-05
-4.05497e-05
-2.45448e-05
-1.47994e-05
-8.94418e-06
-5.51488e-06
-3.63143e-06
-2.80016e-06
-1579.45
-1567.02
-1542.48
-1506.42
-1459.71
-1403.43
-1338.86
-1267.4
-1190.55
-1109.82
-1026.69
-942.604
-858.879
-776.712
-697.149
-621.067
-549.17
-481.991
-419.895
-363.093
-311.657
-265.536
-224.574
-188.534
-157.115
-129.972
-106.731
-87.0037
-70.4045
-56.5563
-45.1008
-35.7038
-28.0591
-21.8913
-16.9554
-13.0373
-9.95223
-7.54237
-5.67488
-4.23907
-3.14382
-2.31485
-1.69227
-1.22831
-0.885198
-0.633395
-0.450004
-0.317446
-0.222353
-0.154647
-0.106799
-0.073237
-0.0498692
-0.0337193
-0.0226398
-0.0150945
-0.00999358
-0.00657023
-0.00428943
-0.00278087
-0.00179029
-0.00114453
-0.000726592
-0.000458051
-0.000286744
-0.000178251
-0.000110036
-6.74578e-05
-4.10792e-05
-2.48661e-05
-1.49936e-05
-9.06187e-06
-5.58766e-06
-3.67948e-06
-2.83731e-06
-1574.69
-1562.43
-1538.22
-1502.61
-1456.46
-1400.82
-1336.93
-1266.16
-1189.96
-1109.83
-1027.23
-943.588
-860.22
-778.321
-698.94
-622.962
-551.1
-483.898
-421.734
-364.829
-313.265
-267
-225.888
-189.697
-158.131
-130.849
-107.478
-87.6346
-70.9312
-56.9916
-45.457
-35.9925
-28.291
-22.0758
-17.1009
-13.1512
-10.0405
-7.61025
-5.72664
-4.27822
-3.17319
-2.33671
-1.70842
-1.24014
-0.8938
-0.639601
-0.454447
-0.320604
-0.22458
-0.156205
-0.107882
-0.0739837
-0.0503804
-0.0340667
-0.0228742
-0.0152515
-0.0100979
-0.00663911
-0.00433458
-0.00281024
-0.00180926
-0.0011567
-0.000734342
-0.000462951
-0.000289821
-0.000180169
-0.000111223
-6.81876e-05
-4.15247e-05
-2.51365e-05
-1.51571e-05
-9.161e-06
-5.64895e-06
-3.71997e-06
-2.86857e-06
-1571.01
-1558.88
-1534.91
-1499.65
-1453.93
-1398.77
-1335.39
-1265.14
-1189.45
-1109.78
-1027.6
-944.311
-861.228
-779.547
-700.318
-624.429
-552.603
-485.392
-423.18
-366.2
-314.54
-268.166
-226.937
-190.628
-158.947
-131.555
-108.082
-88.1448
-71.358
-57.345
-45.7467
-36.2277
-28.4803
-22.2266
-17.2201
-13.2445
-10.113
-7.66602
-5.76921
-4.31046
-3.1974
-2.35475
-1.72175
-1.24991
-0.900912
-0.644736
-0.458126
-0.32322
-0.226426
-0.157498
-0.108781
-0.0746039
-0.0508051
-0.0343555
-0.0230691
-0.0153821
-0.0101848
-0.00669647
-0.00437218
-0.00283471
-0.00182508
-0.00116684
-0.000740805
-0.000467039
-0.000292387
-0.000181769
-0.000112214
-6.87967e-05
-4.18967e-05
-2.53623e-05
-1.52936e-05
-9.24375e-06
-5.70015e-06
-3.75379e-06
-2.89473e-06
-1568.19
-1556.15
-1532.36
-1497.36
-1451.96
-1397.16
-1334.18
-1264.32
-1189.01
-1109.71
-1027.85
-944.839
-861.984
-780.477
-701.372
-625.56
-553.768
-486.555
-424.311
-367.276
-315.544
-269.087
-227.769
-191.369
-159.597
-132.118
-108.565
-88.5542
-71.7012
-57.6297
-45.9806
-36.4179
-28.6335
-22.349
-17.3169
-13.3204
-10.1719
-7.71147
-5.80395
-4.33679
-3.2172
-2.36951
-1.73267
-1.25793
-0.906748
-0.648952
-0.461149
-0.325371
-0.227945
-0.158563
-0.109521
-0.075115
-0.0511554
-0.0345937
-0.0232299
-0.0154899
-0.0102565
-0.00674385
-0.00440325
-0.00285494
-0.00183815
-0.00117523
-0.000746151
-0.000470421
-0.000294512
-0.000183094
-0.000113034
-6.93012e-05
-4.22048e-05
-2.55493e-05
-1.54067e-05
-9.31231e-06
-5.74255e-06
-3.78184e-06
-2.91644e-06
-1566.02
-1554.05
-1530.39
-1495.59
-1450.43
-1395.91
-1333.22
-1263.67
-1188.66
-1109.63
-1028.02
-945.224
-862.547
-781.18
-702.174
-626.426
-554.666
-487.455
-425.19
-368.115
-316.33
-269.81
-228.424
-191.953
-160.112
-132.566
-108.949
-88.8804
-71.9752
-57.8574
-46.1679
-36.5705
-28.7566
-22.4474
-17.3948
-13.3816
-10.2196
-7.74823
-5.83207
-4.35813
-3.23325
-2.38149
-1.74154
-1.26445
-0.911498
-0.652387
-0.463613
-0.327125
-0.229184
-0.159432
-0.110126
-0.0755328
-0.0514418
-0.0347886
-0.0233616
-0.0155782
-0.0103153
-0.00678269
-0.00442873
-0.00287153
-0.00184888
-0.00118212
-0.000750539
-0.000473197
-0.000296256
-0.000184182
-0.000113708
-6.97156e-05
-4.2458e-05
-2.5703e-05
-1.54997e-05
-9.36868e-06
-5.77746e-06
-3.8049e-06
-2.93426e-06
-1564.36
-1552.45
-1528.89
-1494.23
-1449.25
-1394.94
-1332.48
-1263.15
-1188.37
-1109.55
-1028.13
-945.504
-862.966
-781.708
-702.783
-627.087
-555.353
-488.147
-425.869
-368.766
-316.941
-270.374
-228.936
-192.411
-160.516
-132.918
-109.252
-89.1383
-72.1922
-58.0381
-46.3168
-36.692
-28.8548
-22.526
-17.4572
-13.4306
-10.2578
-7.77773
-5.85467
-4.37529
-3.24618
-2.39115
-1.7487
-1.26971
-0.915334
-0.655163
-0.465607
-0.328545
-0.230188
-0.160136
-0.110617
-0.0758717
-0.0516743
-0.0349469
-0.0234686
-0.0156499
-0.0103631
-0.00681427
-0.00444945
-0.00288504
-0.00185761
-0.00118773
-0.000754113
-0.000475459
-0.000297677
-0.000185069
-0.000114257
-7.00533e-05
-4.26643e-05
-2.58284e-05
-1.55755e-05
-9.41463e-06
-5.80589e-06
-3.82368e-06
-2.94879e-06
-1563.1
-1551.23
-1527.75
-1493.2
-1448.35
-1394.2
-1331.9
-1262.75
-1188.13
-1109.48
-1028.21
-945.706
-863.275
-782.103
-703.241
-627.588
-555.878
-488.677
-426.391
-369.267
-317.413
-270.811
-229.333
-192.767
-160.831
-133.193
-109.49
-89.3408
-72.3629
-58.1805
-46.4343
-36.7881
-28.9325
-22.5883
-17.5067
-13.4695
-10.2881
-7.80122
-5.87268
-4.38898
-3.2565
-2.39887
-1.75442
-1.27392
-0.918408
-0.657389
-0.467206
-0.329685
-0.230995
-0.160703
-0.111011
-0.0761446
-0.0518615
-0.0350744
-0.0235548
-0.0157078
-0.0104016
-0.00683975
-0.00446618
-0.00289593
-0.00186466
-0.00119225
-0.000757
-0.000477286
-0.000298825
-0.000185785
-0.000114701
-7.03264e-05
-4.28311e-05
-2.59297e-05
-1.56368e-05
-9.45179e-06
-5.82885e-06
-3.83886e-06
-2.96058e-06
-1562.15
-1550.3
-1526.88
-1492.41
-1447.67
-1393.63
-1331.46
-1262.43
-1187.95
-1109.41
-1028.25
-945.851
-863.504
-782.398
-703.586
-627.966
-556.275
-489.08
-426.788
-369.651
-317.776
-271.147
-229.64
-193.043
-161.076
-133.407
-109.675
-89.4986
-72.4961
-58.2918
-46.5263
-36.8634
-28.9936
-22.6373
-17.5456
-13.5002
-10.3121
-7.81979
-5.88693
-4.39982
-3.26469
-2.40499
-1.75897
-1.27727
-0.920853
-0.659161
-0.46848
-0.330594
-0.231638
-0.161154
-0.111326
-0.0763624
-0.0520111
-0.0351763
-0.0236237
-0.015754
-0.0104325
-0.00686015
-0.00447957
-0.00290467
-0.00187031
-0.00119588
-0.000759314
-0.000478752
-0.000299746
-0.00018636
-0.000115057
-7.05454e-05
-4.2965e-05
-2.6011e-05
-1.5686e-05
-9.48162e-06
-5.8473e-06
-3.85107e-06
-2.96998e-06
-1561.43
-1549.61
-1526.23
-1491.82
-1447.15
-1393.2
-1331.12
-1262.19
-1187.8
-1109.36
-1028.28
-945.956
-863.671
-782.616
-703.843
-628.25
-556.574
-489.385
-427.09
-369.942
-318.052
-271.404
-229.875
-193.255
-161.264
-133.572
-109.817
-89.6207
-72.5994
-58.3782
-46.5979
-36.922
-29.0412
-22.6755
-17.5761
-13.5243
-10.3309
-7.83435
-5.89811
-4.40835
-3.27112
-2.40981
-1.76255
-1.27991
-0.922783
-0.66056
-0.469487
-0.331313
-0.232147
-0.161512
-0.111576
-0.0765351
-0.0521297
-0.0352572
-0.0236784
-0.0157908
-0.0104569
-0.00687636
-0.00449022
-0.00291161
-0.0018748
-0.00119877
-0.000761155
-0.000479917
-0.000300479
-0.000186817
-0.000115341
-7.07197e-05
-4.30715e-05
-2.60757e-05
-1.57251e-05
-9.50534e-06
-5.862e-06
-3.86078e-06
-2.97746e-06
-1560.9
-1549.09
-1525.74
-1491.37
-1446.76
-1392.87
-1330.86
-1262.01
-1187.68
-1109.31
-1028.3
-946.03
-863.793
-782.778
-704.034
-628.462
-556.798
-489.614
-427.318
-370.163
-318.261
-271.599
-230.054
-193.416
-161.408
-133.698
-109.927
-89.7145
-72.6789
-58.4448
-46.6531
-36.9673
-29.078
-22.7052
-17.5997
-13.5429
-10.3455
-7.84568
-5.90683
-4.41499
-3.27615
-2.41358
-1.76535
-1.28197
-0.924294
-0.661657
-0.470276
-0.331877
-0.232547
-0.161793
-0.111772
-0.0766709
-0.052223
-0.0353209
-0.0237215
-0.0158197
-0.0104762
-0.00688914
-0.00449861
-0.00291708
-0.00187835
-0.00120105
-0.000762608
-0.000480837
-0.000301057
-0.000187178
-0.000115564
-7.08574e-05
-4.31556e-05
-2.61267e-05
-1.5756e-05
-9.52409e-06
-5.87361e-06
-3.86844e-06
-2.98338e-06
-1560.5
-1548.7
-1525.37
-1491.04
-1446.47
-1392.63
-1330.67
-1261.87
-1187.6
-1109.27
-1028.31
-946.083
-863.882
-782.896
-704.175
-628.619
-556.965
-489.785
-427.488
-370.329
-318.419
-271.746
-230.189
-193.539
-161.517
-133.794
-110.01
-89.7861
-72.7397
-58.4958
-46.6954
-37.0021
-29.1063
-22.728
-17.6179
-13.5573
-10.3568
-7.85444
-5.91357
-4.42014
-3.28004
-2.4165
-1.76752
-1.28358
-0.925468
-0.662509
-0.47089
-0.332316
-0.232858
-0.162012
-0.111925
-0.0767769
-0.0522959
-0.0353706
-0.0237552
-0.0158424
-0.0104913
-0.00689913
-0.00450518
-0.00292136
-0.00188112
-0.00120283
-0.000763745
-0.000481558
-0.00030151
-0.000187461
-0.00011574
-7.09652e-05
-4.32215e-05
-2.61667e-05
-1.57802e-05
-9.53879e-06
-5.88268e-06
-3.87439e-06
-2.98802e-06
-1560.2
-1548.41
-1525.1
-1490.79
-1446.25
-1392.44
-1330.52
-1261.76
-1187.53
-1109.25
-1028.32
-946.12
-863.947
-782.983
-704.279
-628.735
-557.089
-489.913
-427.615
-370.453
-318.537
-271.857
-230.291
-193.631
-161.599
-133.867
-110.073
-89.8403
-72.7858
-58.5345
-46.7277
-37.0286
-29.1279
-22.7454
-17.6318
-13.5683
-10.3654
-7.86116
-5.91875
-4.42409
-3.28303
-2.41875
-1.7692
-1.28481
-0.926374
-0.663168
-0.471365
-0.332655
-0.233099
-0.162182
-0.112043
-0.0768589
-0.0523524
-0.0354091
-0.0237813
-0.0158599
-0.0105031
-0.00690689
-0.00451028
-0.00292469
-0.00188327
-0.00120422
-0.000764629
-0.000482118
-0.000301863
-0.000187681
-0.000115876
-7.1049e-05
-4.32727e-05
-2.61978e-05
-1.5799e-05
-9.55019e-06
-5.88974e-06
-3.87907e-06
-2.99159e-06
-1559.98
-1548.2
-1524.9
-1490.61
-1446.09
-1392.31
-1330.41
-1261.68
-1187.48
-1109.22
-1028.32
-946.146
-863.993
-783.046
-704.355
-628.821
-557.18
-490.007
-427.71
-370.544
-318.625
-271.939
-230.367
-193.7
-161.661
-133.921
-110.121
-89.8812
-72.8205
-58.5637
-46.752
-37.0487
-29.1442
-22.7586
-17.6424
-13.5767
-10.372
-7.86627
-5.92269
-4.4271
-3.28532
-2.42047
-1.77048
-1.28576
-0.927067
-0.663672
-0.471728
-0.332915
-0.233284
-0.162312
-0.112134
-0.076922
-0.0523958
-0.0354387
-0.0238014
-0.0158734
-0.0105121
-0.00691286
-0.00451421
-0.00292725
-0.00188493
-0.00120528
-0.000765311
-0.000482549
-0.000302134
-0.00018785
-0.000115981
-7.11136e-05
-4.33122e-05
-2.62218e-05
-1.58135e-05
-9.55898e-06
-5.89517e-06
-3.88267e-06
-2.99437e-06
-1559.82
-1548.04
-1524.75
-1490.47
-1445.97
-1392.21
-1330.33
-1261.62
-1187.44
-1109.2
-1028.32
-946.165
-864.026
-783.091
-704.41
-628.883
-557.247
-490.076
-427.779
-370.612
-318.69
-272
-230.423
-193.751
-161.706
-133.962
-110.156
-89.9117
-72.8465
-58.5856
-46.7702
-37.0637
-29.1565
-22.7685
-17.6503
-13.583
-10.377
-7.87013
-5.92567
-4.42939
-3.28705
-2.42177
-1.77145
-1.28648
-0.927594
-0.664055
-0.472005
-0.333113
-0.233424
-0.162411
-0.112203
-0.0769701
-0.0524289
-0.0354614
-0.0238167
-0.0158838
-0.010519
-0.00691743
-0.00451721
-0.00292922
-0.00188621
-0.0012061
-0.000765832
-0.00048288
-0.000302342
-0.00018798
-0.000116061
-7.11631e-05
-4.33424e-05
-2.62401e-05
-1.58246e-05
-9.56573e-06
-5.89936e-06
-3.88542e-06
-2.99648e-06
-1559.7
-1547.93
-1524.64
-1490.37
-1445.88
-1392.13
-1330.27
-1261.58
-1187.41
-1109.19
-1028.32
-946.178
-864.05
-783.124
-704.45
-628.928
-557.296
-490.126
-427.83
-370.662
-318.738
-272.045
-230.465
-193.789
-161.74
-133.992
-110.182
-89.9343
-72.8658
-58.6019
-46.7838
-37.0749
-29.1657
-22.776
-17.6563
-13.5877
-10.3807
-7.87303
-5.92791
-4.4311
-3.28835
-2.42275
-1.77218
-1.28702
-0.927992
-0.664345
-0.472214
-0.333263
-0.233531
-0.162486
-0.112256
-0.0770066
-0.052454
-0.0354785
-0.0238283
-0.0158916
-0.0105242
-0.00692089
-0.00451949
-0.0029307
-0.00188717
-0.00120672
-0.000766228
-0.00048313
-0.000302499
-0.000188078
-0.000116122
-7.12006e-05
-4.33653e-05
-2.62541e-05
-1.5833e-05
-9.57081e-06
-5.90252e-06
-3.8875e-06
-2.9981e-06
-1559.62
-1547.85
-1524.57
-1490.3
-1445.82
-1392.08
-1330.23
-1261.54
-1187.39
-1109.18
-1028.32
-946.186
-864.067
-783.148
-704.479
-628.961
-557.331
-490.163
-427.866
-370.698
-318.772
-272.078
-230.495
-193.817
-161.765
-134.014
-110.202
-89.951
-72.88
-58.614
-46.7939
-37.0833
-29.1725
-22.7815
-17.6607
-13.5913
-10.3834
-7.87519
-5.92958
-4.43238
-3.28932
-2.42348
-1.77273
-1.28742
-0.928289
-0.664561
-0.472371
-0.333375
-0.233611
-0.162542
-0.112295
-0.0770339
-0.0524728
-0.0354914
-0.0238371
-0.0158975
-0.0105281
-0.0069235
-0.0045212
-0.00293182
-0.0018879
-0.00120719
-0.000766526
-0.000483319
-0.000302618
-0.000188153
-0.000116168
-7.12289e-05
-4.33826e-05
-2.62646e-05
-1.58394e-05
-9.57466e-06
-5.9049e-06
-3.88905e-06
-2.99929e-06
-1559.56
-1547.79
-1524.51
-1490.25
-1445.77
-1392.04
-1330.2
-1261.52
-1187.38
-1109.17
-1028.32
-946.193
-864.079
-783.165
-704.5
-628.984
-557.357
-490.189
-427.893
-370.724
-318.798
-272.102
-230.517
-193.837
-161.783
-134.03
-110.216
-89.9632
-72.8905
-58.6228
-46.8013
-37.0894
-29.1775
-22.7855
-17.664
-13.5938
-10.3855
-7.87678
-5.93081
-4.43333
-3.29004
-2.42402
-1.77313
-1.28772
-0.92851
-0.664722
-0.472487
-0.333459
-0.23367
-0.162584
-0.112325
-0.0770544
-0.0524869
-0.035501
-0.0238436
-0.0159019
-0.0105311
-0.00692545
-0.00452249
-0.00293266
-0.00188844
-0.00120754
-0.000766749
-0.000483461
-0.000302707
-0.000188208
-0.000116203
-7.125e-05
-4.33955e-05
-2.62724e-05
-1.58441e-05
-9.57753e-06
-5.90665e-06
-3.89023e-06
-3.00021e-06
-1559.51
-1547.74
-1524.47
-1490.21
-1445.74
-1392.01
-1330.17
-1261.5
-1187.36
-1109.17
-1028.32
-946.197
-864.087
-783.176
-704.515
-629.001
-557.375
-490.208
-427.912
-370.743
-318.816
-272.119
-230.533
-193.851
-161.797
-134.042
-110.226
-89.972
-72.8981
-58.6292
-46.8066
-37.0938
-29.1811
-22.7885
-17.6664
-13.5957
-10.387
-7.87795
-5.93172
-4.43402
-3.29057
-2.42442
-1.77343
-1.28794
-0.928673
-0.664841
-0.472573
-0.333521
-0.233714
-0.162615
-0.112346
-0.0770695
-0.0524973
-0.0355082
-0.0238485
-0.0159051
-0.0105332
-0.0069269