/*--------------------------------*- C++ -*----------------------------------*\
  =========                 |
  \\      /  F ield         | OpenFOAM: The Open Source CFD Toolbox
   \\    /   O peration     | Website:  https://openfoam.org
    \\  /    A nd           | Version:  10
     \\/     M anipulation  |
\*---------------------------------------------------------------------------*/
FoamFile
{
    format      ascii;
    class       volScalarField;
    location    "478";
    object      gradTx;
}
// * * * * * * * * * * * * * * * * * * * * * * * * * * * * * * * * * * * * * //

dimensions      [0 -1 0 1 0 0 0];

internalField   nonuniform List<scalar> 
11250
(
14307.3
8126.19
5346.85
3877.94
2992.86
2404.32
1983.71
1666.81
1418.46
1217.98
1052.44
913.335
794.881
692.973
604.62
527.578
460.124
400.901
348.817
302.977
262.633
227.147
195.97
168.624
144.686
123.779
105.567
89.7477
76.0477
64.2215
54.047
45.3241
37.8726
31.5307
26.1538
21.6125
17.7921
14.5909
11.9195
9.69928
7.86163
6.34696
5.10374
4.08762
3.26065
2.59048
2.0497
1.6152
1.26761
0.990745
0.771165
0.597776
0.461456
0.354748
0.271583
0.20705
0.157193
0.118844
0.0894751
0.0670819
0.0500821
0.037233
0.0275634
0.020318
0.014912
0.0108951
0.00792187
0.0057286
0.00411453
0.00292722
0.00205095
0.0013975
0.00089886
0.000501386
0.000160983
4103.1
4724.9
4037.2
3295.15
2697.65
2237.98
1881.84
1600.29
1372.82
1185.44
1028.51
895.308
781.029
682.157
596.063
520.737
454.606
396.42
345.157
299.975
260.161
225.107
194.284
167.229
143.531
122.823
104.776
89.0928
75.5067
63.7751
53.6794
45.0219
37.6247
31.3279
25.9881
21.4776
17.6826
14.5023
11.848
9.64174
7.81548
6.31007
5.07436
4.0643
3.24219
2.57593
2.03827
1.60626
1.26064
0.985331
0.766976
0.594547
0.458977
0.352851
0.270138
0.205953
0.156365
0.11822
0.0890072
0.0667324
0.0498221
0.0370404
0.0274213
0.0202135
0.0148356
0.0108394
0.00788151
0.00569949
0.00409367
0.00291242
0.0020406
0.00139046
0.000894341
0.000498868
0.000160176
1483.49
2633.57
2782.64
2568.88
2265.92
1969.69
1707.21
1481.71
1289.33
1124.81
983.359
860.967
754.45
661.288
579.481
507.432
443.845
387.659
337.989
294.085
255.306
221.096
190.966
164.48
141.253
120.935
103.212
87.7992
74.4375
62.8927
52.9523
44.424
37.1341
30.9263
25.6603
21.2106
17.4658
14.3267
11.7063
9.5277
7.72401
6.23695
5.0161
4.01804
3.2056
2.54708
2.01561
1.58853
1.24681
0.974589
0.758663
0.588139
0.454056
0.349087
0.26727
0.203777
0.154719
0.116981
0.0880781
0.0660384
0.0493058
0.0366579
0.027139
0.0200061
0.0146838
0.0107288
0.00780133
0.00564166
0.00405223
0.002883
0.00202004
0.00137647
0.000885357
0.000493863
0.00015857
680.901
1543.72
1891.68
1932.86
1828.77
1669.21
1497.39
1332.04
1180.15
1043.49
921.629
813.334
717.173
631.762
555.858
488.371
428.359
375.005
327.601
285.528
248.238
215.245
186.116
160.458
137.916
118.167
100.918
85.8987
72.8654
61.5944
51.882
43.5434
36.4112
30.3343
25.1767
20.8167
17.1458
14.0676
11.497
9.35928
7.5889
6.12891
4.93
3.94967
3.1515
2.50442
1.9821
1.5623
1.22636
0.958699
0.746366
0.578658
0.446775
0.343517
0.263025
0.200555
0.152284
0.115147
0.0867027
0.065011
0.0485414
0.0360915
0.0267211
0.019699
0.014459
0.0105651
0.00768257
0.005556
0.00399086
0.00283943
0.00198957
0.00135575
0.000872047
0.000486446
0.00015619
377.454
969.171
1308.23
1443.14
1448.39
1382.53
1282.9
1170.88
1057.91
949.687
848.784
756.117
671.763
595.393
526.496
464.507
408.852
358.985
314.396
274.611
239.192
207.739
179.881
155.277
133.61
114.59
97.9485
83.4369
70.8271
59.9095
50.4919
42.3989
35.4711
29.564
24.5472
20.3036
16.7288
13.7298
11.2242
9.13957
7.41258
5.98789
4.8176
3.86039
3.08083
2.44869
1.93831
1.52802
1.19962
0.937924
0.730285
0.566259
0.437251
0.336231
0.257473
0.19634
0.149097
0.112747
0.0849025
0.0636661
0.0475408
0.03535
0.0261739
0.0192968
0.0141647
0.0103506
0.00752705
0.00544381
0.00391046
0.00278236
0.00194966
0.0013286
0.00085461
0.000476729
0.000153071
237.345
647.727
929.653
1084.09
1140.38
1131.15
1082.53
1012.62
933.047
850.844
770.106
693.088
620.942
554.161
492.858
436.928
386.146
340.226
298.854
261.706
228.46
198.805
172.44
149.078
128.448
110.294
94.377
80.4714
68.3687
57.8751
48.8117
41.0144
34.3329
28.6307
23.7839
19.6812
16.2227
13.3195
10.8926
8.87252
7.19818
5.81635
4.68082
3.75171
2.99479
2.38082
1.88496
1.48625
1.16704
0.912602
0.710681
0.55114
0.425637
0.327344
0.250699
0.191197
0.145208
0.109818
0.0827053
0.0620246
0.0463193
0.0344448
0.0255058
0.0188058
0.0138053
0.0100887
0.0073371
0.00530678
0.00381226
0.00271264
0.00190091
0.00129544
0.000833305
0.000464856
0.000149261
161.688
455.17
679.283
824.164
899.124
920.65
905.136
865.942
812.89
752.764
690.055
627.632
567.268
510.006
456.416
406.761
361.107
319.398
281.497
247.223
216.365
188.699
163.995
142.024
122.559
105.383
90.2862
77.0691
65.5439
55.5344
46.8763
39.4178
33.0191
27.5524
22.9014
18.961
15.6367
12.8442
10.5083
8.56282
6.94943
5.61724
4.522
3.62548
2.89482
2.30193
1.82294
1.43767
1.12913
0.883137
0.687865
0.533541
0.412115
0.316994
0.242809
0.185206
0.140677
0.106405
0.0801447
0.0601112
0.0448954
0.0333894
0.0247268
0.0182331
0.0133861
0.00978324
0.00711553
0.00514692
0.0036977
0.0026313
0.00184402
0.00125673
0.000808444
0.000451001
0.000144815
116.064
332.402
508.839
635.119
712.515
748.633
753.084
734.969
701.827
659.434
612.002
562.495
512.933
464.661
418.537
375.082
334.584
297.171
262.857
231.584
203.242
177.689
154.763
134.287
116.083
99.9692
85.767
73.3034
62.4121
52.9352
44.7243
37.6403
31.5549
26.3494
21.9159
18.1561
14.9813
12.3122
10.0779
8.21577
6.67054
5.39389
4.34376
3.48375
2.78253
2.21329
1.75323
1.38305
1.0865
0.84999
0.662191
0.513732
0.396891
0.30534
0.233923
0.178458
0.135572
0.102559
0.0772588
0.0579544
0.0432901
0.0321994
0.0238483
0.0175873
0.0129133
0.00943864
0.00686554
0.00496655
0.00356841
0.0025395
0.00177981
0.00121305
0.00078038
0.000435361
0.000139795
86.3653
249.943
389.222
495.884
568.352
609.677
625.201
620.816
601.969
573.237
538.236
499.71
459.675
419.571
380.406
342.856
307.359
274.178
243.444
215.202
189.426
166.047
144.961
126.047
109.164
94.1694
80.9142
69.251
59.0355
50.1283
42.3966
35.7152
29.9669
25.0434
20.845
17.2805
14.2678
11.7326
9.60866
7.83712
6.36606
5.14992
4.14897
3.32878
2.65969
2.11629
1.67691
1.32323
1.0398
0.813663
0.634046
0.492011
0.380193
0.292554
0.224172
0.17105
0.129968
0.0983362
0.0740893
0.0555853
0.0415264
0.0308918
0.0228828
0.0168774
0.0123936
0.00905978
0.00659068
0.0047682
0.00342623
0.00243853
0.00170918
0.00116499
0.000749507
0.000418154
0.000134273
65.9508
192.175
302.867
391.737
456.457
497.868
518.774
522.85
513.882
495.328
470.126
440.652
408.761
375.86
342.989
310.899
280.114
250.983
223.726
198.461
175.232
154.03
134.804
117.475
101.944
88.1
75.8229
64.9898
55.4777
47.1652
39.9354
33.6765
28.2831
23.6568
19.7066
16.3489
13.5079
11.1148
9.10805
7.43289
6.0408
4.88912
3.94062
3.16294
2.52817
2.01238
1.59513
1.25911
0.989708
0.77469
0.60384
0.468692
0.362262
0.278821
0.213695
0.16309
0.123944
0.0937956
0.0706809
0.0530371
0.0396291
0.0294849
0.0218439
0.0161133
0.0118341
0.00865189
0.00629471
0.00455459
0.00327309
0.00232977
0.0016331
0.00111322
0.000716243
0.000399613
0.000128322
51.3395
150.314
238.954
312.595
368.95
407.854
430.657
439.582
437.187
426.003
408.33
386.136
361.042
334.337
307.025
279.865
253.414
228.072
204.111
181.705
160.948
141.879
124.489
108.737
94.5595
81.8734
70.5855
60.5958
51.8009
44.097
37.3824
31.5583
26.5311
22.2121
18.5191
15.3761
12.7135
10.4683
8.58377
7.00921
5.69963
4.61539
3.7218
2.98866
2.38989
1.90307
1.50905
1.19158
0.936946
0.733621
0.571999
0.444102
0.343347
0.264329
0.202637
0.154686
0.117582
0.0889996
0.0670798
0.0503443
0.0376237
0.0279976
0.0207453
0.0153053
0.0112423
0.00822038
0.00598156
0.00432855
0.00311102
0.00221465
0.00155255
0.00105841
0.000681023
0.000379981
0.000122021
40.5531
119.146
190.631
251.555
299.927
335.17
357.834
369.215
371.004
365.017
353.005
336.55
317.017
295.542
273.043
250.245
227.705
205.837
184.943
165.228
146.825
129.805
114.195
99.9837
87.1356
75.5941
65.2891
56.1409
48.0646
40.9728
34.7778
29.3937
24.7378
20.7313
17.3004
14.3764
11.8963
9.80263
8.04344
6.57218
5.34744
4.33261
3.49559
2.80838
2.24676
1.78986
1.41986
1.12159
0.882225
0.691011
0.538949
0.41857
0.323701
0.249272
0.191143
0.145948
0.110966
0.0840106
0.063333
0.0475418
0.0355362
0.026449
0.0196013
0.0144637
0.0106258
0.00777077
0.00565521
0.00409295
0.00294206
0.00209462
0.00146857
0.00100125
0.000644292
0.000359506
0.000115449
32.3945
95.4244
153.433
203.845
245.012
276.236
297.638
309.939
314.237
311.812
303.975
291.969
276.916
259.784
241.387
222.389
203.318
184.584
166.495
149.274
133.074
117.993
104.079
91.3474
79.7851
69.357
60.0129
51.6914
44.3241
37.8383
32.1595
27.2139
22.929
19.2355
16.0676
13.3639
11.0677
9.12693
7.49442
6.12772
4.98896
4.04455
3.26499
2.62448
2.10066
1.67425
1.32872
1.05002
0.826252
0.647406
0.505114
0.39242
0.303571
0.23384
0.17936
0.136987
0.104179
0.0788909
0.0594869
0.0446644
0.0333923
0.0248583
0.0184258
0.0135988
0.00999212
0.00730854
0.00531965
0.00385066
0.00276829
0.00197116
0.00138216
0.00094243
0.000606494
0.000338435
0.000108686
26.103
77.0468
124.362
166.113
200.965
228.231
247.813
260.084
265.743
265.681
260.865
252.26
240.766
227.195
212.247
196.515
180.481
164.534
148.976
134.032
119.867
106.591
94.272
82.9419
72.6053
63.245
54.8274
47.3068
40.6291
34.735
29.5622
25.0474
21.1283
17.744
14.8366
12.3516
10.2383
8.44979
6.94367
5.68144
4.62868
3.75482
3.03287
2.43924
1.9534
1.55764
1.23675
0.977761
0.769705
0.603332
0.470899
0.365965
0.2832
0.218216
0.167425
0.127908
0.0973002
0.0737008
0.0555869
0.0417459
0.0312172
0.0232439
0.0172327
0.0127207
0.00934861
0.00683906
0.00497876
0.00360447
0.00259168
0.00184566
0.00129433
0.000882634
0.000568062
0.000317009
0.000101808
21.1751
62.6012
101.356
135.97
165.376
188.95
206.496
218.177
224.43
225.866
223.195
217.153
208.458
197.775
185.697
172.739
159.334
145.837
132.533
119.644
107.333
95.7196
84.8805
74.8605
65.6777
57.3285
49.7928
43.0382
37.0231
31.6997
27.0164
22.92
19.3569
16.2745
13.622
11.3515
9.41771
7.77915
6.39761
5.23852
4.27079
3.46675
2.8019
2.25478
1.80666
1.44136
1.14498
0.905621
0.713223
0.559286
0.43669
0.339504
0.262814
0.202574
0.155473
0.118812
0.0904067
0.0684978
0.051676
0.0388183
0.0290348
0.0216238
0.016035
0.011839
0.00870232
0.00636744
0.00463625
0.00335707
0.00241418
0.0017195
0.00120601
0.000822505
0.000529412
0.000295459
9.48906e-05
17.2663
51.1111
82.9584
111.684
136.436
156.673
172.164
182.952
189.299
191.623
190.439
186.307
179.791
171.429
161.717
151.095
139.942
128.577
117.262
106.205
95.5672
85.4664
75.9854
67.1766
59.0674
51.6647
44.9591
38.9289
33.543
28.7636
24.5488
20.8539
17.6336
14.8425
12.4367
10.374
8.61476
7.12209
5.86203
4.80364
3.91907
3.18339
2.57453
2.07304
1.66198
1.32664
1.05438
0.834359
0.657397
0.515729
0.402843
0.31331
0.242625
0.187078
0.143627
0.109794
0.0835694
0.0633354
0.0477943
0.0359117
0.0268674
0.0200143
0.0148448
0.0109626
0.00805982
0.00589849
0.0042956
0.00311096
0.00223757
0.00159396
0.00111812
0.000762651
0.000490934
0.000274004
8.80032e-05
14.1342
41.8835
68.1198
91.9759
112.772
130.051
143.58
153.334
159.465
162.254
162.073
159.345
154.509
147.999
140.223
131.552
122.313
112.788
103.211
93.7746
84.6299
75.8922
67.645
59.9446
52.8242
46.2983
40.3657
35.0133
30.2187
25.9527
22.1813
18.8679
15.974
13.4612
11.2915
9.42834
7.83694
6.48483
5.34198
4.38094
3.57686
2.90745
2.3529
1.89576
1.52074
1.21457
0.965811
0.764652
0.602756
0.473073
0.36968
0.287632
0.222825
0.171873
0.131999
0.100938
0.0768529
0.0582625
0.0439786
0.0330536
0.0247355
0.0184308
0.0136736
0.0100999
0.00742717
0.00543662
0.00396002
0.00286846
0.00206351
0.0014702
0.00103146
0.000703633
0.00045299
0.000252845
8.12104e-05
11.6036
34.4145
56.0672
75.8876
93.3341
108.024
119.74
128.425
134.156
137.123
137.593
135.882
132.332
127.29
121.088
114.036
106.412
98.4615
90.3917
82.3759
74.5535
67.0334
59.8969
53.2012
46.9831
41.2617
36.0421
31.3179
27.0736
23.2872
19.9317
16.977
14.3912
12.1416
10.1958
8.5222
7.0906
5.8726
4.84179
3.97393
3.24701
2.64122
2.1389
1.72443
1.38414
1.1061
0.880033
0.697096
0.54977
0.431685
0.337485
0.262692
0.203584
0.157091
0.120689
0.092321
0.0703149
0.0533225
0.0402617
0.0302686
0.0226575
0.0168868
0.0125312
0.00925831
0.0068098
0.00498578
0.00363238
0.00263165
0.0018935
0.0013493
0.000946784
0.000645957
0.000415904
0.000232162
7.45703e-05
9.5455
28.331
46.2219
62.6911
77.3061
89.7498
99.8286
107.469
112.706
115.662
116.528
115.543
112.97
109.084
104.154
98.4381
92.1697
85.5585
78.7864
72.007
65.3464
58.9052
52.7603
46.9679
41.5659
36.5764
32.0087
27.8614
24.1247
20.7824
17.8132
15.1929
12.895
10.8921
9.15672
7.66166
6.38087
5.28967
4.36497
3.58552
2.93192
2.38665
1.93408
1.56032
1.25319
1.00204
0.797681
0.632196
0.498834
0.391876
0.306501
0.238676
0.185048
0.142843
0.109784
0.0840086
0.0640054
0.0485534
0.036672
0.0275779
0.0206492
0.0153941
0.0114265
0.00844419
0.00621245
0.00454946
0.00331521
0.00240235
0.00172884
0.00123219
0.000864747
0.000590068
0.000379962
0.000212116
6.81343e-05
7.86279
23.3511
38.1433
51.8249
64.0503
74.5583
83.1801
89.8388
94.5413
97.3669
98.4518
97.9737
96.1364
93.1563
89.2513
84.6318
79.4941
74.0161
68.3546
62.6442
56.9974
51.5052
46.2392
41.2526
36.5829
32.2538
28.2772
24.6555
21.383
18.4483
15.8351
13.5238
11.4928
9.71917
8.17974
6.85137
5.71168
4.73933
3.91428
3.21798
2.63344
2.14528
1.7397
1.40444
1.1287
0.903043
0.71928
0.570367
0.450279
0.353903
0.276929
0.215743
0.167338
0.129224
0.0993548
0.0760557
0.0579663
0.0439868
0.0332334
0.0249997
0.0187241
0.0139629
0.0103668
0.00766309
0.00563917
0.0041306
0.00301065
0.00218211
0.00157067
0.00111966
0.000785904
0.000536346
0.000345409
0.000192842
6.19462e-05
6.48136
19.2587
31.4909
42.851
53.062
61.9098
69.2498
75.0074
79.1742
81.7992
82.9793
82.8467
81.5584
79.2848
76.2007
72.478
68.2797
63.7554
59.0393
54.2478
49.48
44.8174
40.3247
36.0518
32.0346
28.2968
24.8522
21.7054
18.8543
16.2909
14.0029
11.9749
10.1892
8.62693
7.26858
6.09458
5.08582
4.22397
3.49173
2.87301
2.353
1.91827
1.55671
1.25757
1.01131
0.809615
0.645237
0.511934
0.40436
0.317971
0.24893
0.194018
0.150552
0.116309
0.0894598
0.0685067
0.0522315
0.0396486
0.0299656
0.0225485
0.0168933
0.0126012
0.00935845
0.00691951
0.00509326
0.00373163
0.00272049
0.00197223
0.00141989
0.00101237
0.000710718
0.000485108
0.000312449
0.000174456
5.60424e-05
5.34374
15.8855
25.9985
35.4234
43.9382
51.3678
57.5897
62.5352
66.1874
68.5755
69.7675
69.8621
68.9798
67.2544
64.8258
61.8337
58.4125
54.6874
50.7719
46.7662
42.7564
38.8142
34.998
31.3531
27.9131
24.7013
21.7319
19.0113
16.5397
14.3119
12.3189
10.5485
8.98667
7.61771
6.42538
5.39322
4.50502
3.74511
3.09864
2.55172
2.09154
1.7064
1.38578
1.12024
0.901465
0.722122
0.575846
0.457134
0.361267
0.284229
0.222622
0.173593
0.134762
0.104154
0.0801431
0.0613956
0.0468269
0.0355585
0.0268834
0.0202357
0.0151652
0.0113155
0.00840599
0.00621696
0.00457732
0.00335445
0.00244609
0.00177371
0.00127723
0.000910837
0.000639553
0.000436601
0.000281242
0.000157045
5.04516e-05
4.40475
13.0993
21.4551
29.2661
36.3542
42.5764
47.8298
52.0532
55.2256
57.363
58.5131
58.7493
58.164
56.862
54.9551
52.5562
49.7756
46.7174
43.4771
40.14
36.7803
33.4605
30.2324
27.1366
24.2041
21.457
18.9093
16.5685
14.4363
12.5097
10.7824
9.24476
7.88558
6.69211
5.65086
4.74807
3.97004
3.30347
2.73567
2.25472
1.84958
1.51015
1.22729
0.99281
0.799442
0.640796
0.511297
0.406122
0.321126
0.252778
0.198085
0.154533
0.120019
0.0927994
0.071435
0.054746
0.0417709
0.0317305
0.0239975
0.0180694
0.013546
0.0101104
0.00751291
0.005558
0.00409324
0.00300047
0.00218849
0.00158728
0.00114324
0.000815448
0.00057268
0.000391011
0.000251907
0.000140677
4.51955e-05
3.6285
10.7945
17.6921
24.1572
30.0465
35.2438
39.6633
43.2511
45.9855
47.8738
48.9491
49.266
48.8951
47.9187
46.4255
44.5067
42.2525
39.7489
37.0757
34.305
31.5001
28.7153
25.9956
23.3773
20.8884
18.5492
16.3733
14.3687
12.5381
10.8801
9.39027
8.06141
6.8845
5.84923
4.94451
4.15886
3.4808
2.89908
2.40292
1.98214
1.62729
1.32967
1.0814
0.8754
0.705365
0.565744
0.451683
0.358976
0.284002
0.223672
0.175364
0.136872
0.106351
0.0822672
0.0633539
0.0485722
0.0370744
0.0281732
0.0213146
0.0160547
0.0120395
0.00898875
0.00668142
0.00494427
0.00364225
0.00267057
0.00194836
0.00141345
0.00101827
0.000726459
0.00051028
0.000348462
0.000224525
0.000125397
4.02885e-05
2.9862
8.8864
14.5734
19.9162
24.7999
29.1297
32.8344
35.8679
38.2088
39.859
40.8414
41.1963
40.9779
40.2505
39.0846
37.5535
35.7305
33.6864
31.4877
29.1947
26.8613
24.5339
22.2516
20.0462
17.9427
15.9596
14.1097
12.4008
10.8364
9.41635
8.13756
6.99466
5.98057
5.08697
4.30477
3.62448
3.0365
2.53138
2.1
1.73373
1.42449
1.16485
0.948047
0.767982
0.619221
0.496966
0.397011
0.315707
0.249908
0.196924
0.15447
0.120623
0.0937683
0.0725658
0.0559065
0.0428797
0.0327421
0.0248903
0.0188376
0.0141938
0.0106475
0.00795199
0.00591257
0.00437659
0.00322496
0.00236524
0.00172604
0.00125247
0.000902502
0.000644005
0.00045245
0.000309023
0.00019914
0.00011123
3.57386e-05
2.45454
7.30619
11.9882
16.396
20.437
24.0345
27.1296
29.683
31.6748
33.1037
33.9852
34.3493
34.2373
33.6994
32.7915
31.5725
30.1018
28.4374
26.6342
24.7426
22.8081
20.87
18.9621
17.112
15.3416
13.6675
12.1017
10.6515
9.32072
8.11008
7.01761
6.03935
5.16976
4.40219
3.72923
3.14306
2.63571
2.19928
1.8261
1.50886
1.24072
1.01535
0.826973
0.670369
0.540875
0.434363
0.34721
0.276265
0.218807
0.172508
0.135387
0.105772
0.0822623
0.0636899
0.0490892
0.0376664
0.0287726
0.0218809
0.0165661
0.0124865
0.00936994
0.00700009
0.0052064
0.00385501
0.00284143
0.00208452
0.00152158
0.00110438
0.000795978
0.000568115
0.000399211
0.000272708
0.000175762
9.8182e-05
3.15477e-05
2.01449
5.99777
9.8459
13.4753
16.8116
19.7925
22.3696
24.5098
26.1952
27.4226
28.2023
28.5564
28.5168
28.1224
27.4174
26.4491
25.2654
23.9137
22.4391
20.8836
19.2851
17.6771
16.0882
14.5421
13.0582
11.6509
10.3312
9.10594
7.97904
6.95165
6.02269
5.18927
4.44713
3.79096
3.21478
2.71217
2.27654
1.90131
1.58006
1.30664
1.07529
0.880638
0.717773
0.582252
0.470091
0.377757
0.302145
0.240548
0.190625
0.150369
0.118072
0.09229
0.0718104
0.0556226
0.0428899
0.0329232
0.0251594
0.0191404
0.0144965
0.0109305
0.00820506
0.00613182
0.00456204
0.00337892
0.00249123
0.00182811
0.00133477
0.000969041
0.000698597
0.000498721
0.000350518
0.000239486
0.000154372
8.62421e-05
2.77127e-05
1.65047
4.91499
8.07179
11.054
13.8019
16.2651
18.4039
20.1906
21.6093
22.6559
23.3374
23.6699
23.6777
23.3912
22.8454
22.078
21.1275
20.0326
18.8302
17.555
16.2387
14.9092
13.5908
12.3038
11.0649
9.88688
8.77928
7.74856
6.7985
5.93055
5.14423
4.4375
3.8071
3.24882
2.75784
2.32894
1.9567
1.63565
1.36045
1.12596
0.927327
0.76003
0.619917
0.503219
0.406551
0.326904
0.26163
0.208413
0.165251
0.130423
0.102463
0.0801286
0.062377
0.0483376
0.0372887
0.0286356
0.0218916
0.0166608
0.0126232
0.00952139
0.00714974
0.00534492
0.00397785
0.00294713
0.00217351
0.00159541
0.00116518
0.000846136
0.00061014
0.00043567
0.000306266
0.000209289
0.000134926
7.5386e-05
2.42255e-05
1.34961
4.0198
6.60411
9.04908
11.3068
13.3364
15.1056
16.5912
17.7796
18.6665
19.256
19.5601
19.5975
19.3917
18.9704
18.3635
17.6021
16.7175
15.7399
14.6977
13.6172
12.5218
11.4319
10.3647
9.33445
8.35231
7.42664
6.56329
5.76581
5.03581
4.37323
3.77667
3.24364
2.77087
2.35447
1.99021
1.67364
1.40026
1.16565
0.965523
0.795812
0.652727
0.532776
0.432778
0.349872
0.281507
0.225433
0.179683
0.14255
0.112567
0.0884802
0.0692278
0.0539166
0.0418005
0.0322599
0.0247841
0.0189548
0.0144314
0.0109381
0.00825334
0.00619969
0.00463623
0.00345153
0.00255797
0.00188707
0.00138555
0.00101219
0.000735223
0.000530292
0.000378741
0.000266301
0.000182011
0.000117357
6.55768e-05
2.10744e-05
1.10125
3.28063
5.39153
7.39126
9.24135
10.9089
12.3675
13.5982
14.5891
15.336
15.8414
16.1142
16.1684
16.0225
15.6982
15.2194
14.611
13.8981
13.1055
12.2564
11.3724
10.473
9.57517
8.69356
7.84018
7.02463
6.2542
5.53409
4.86757
4.25628
3.70046
3.19916
2.75054
2.35202
2.00051
1.69259
1.42465
1.19298
0.993923
0.823935
0.679632
0.557847
0.455654
0.370383
0.299625
0.241229
0.193295
0.154156
0.122367
0.0966803
0.0760318
0.0595174
0.0463759
0.0359706
0.0277728
0.0213459
0.0163319
0.0124393
0.00943175
0.00711927
0.00534967
0.00400192
0.00298026
0.0022094
0.00163041
0.00119744
0.00087501
0.000635749
0.000458658
0.000327655
0.00023043
0.000157522
0.000101582
5.67679e-05
1.82444e-05
0.896547
2.67122
4.39134
6.0228
7.53479
8.90081
10.0995
11.1151
11.9376
12.5631
12.993
13.2337
13.296
13.1942
12.9454
12.5685
12.0834
11.5105
10.8697
10.18
9.45913
8.72317
7.9863
7.26071
6.55656
5.88204
5.24343
4.6453
4.09061
3.58095
3.11673
2.69737
2.32148
1.98709
1.69173
1.43265
1.20692
1.01151
0.843426
0.699727
0.577614
0.474455
0.38781
0.315448
0.25535
0.205711
0.164933
0.131613
0.10453
0.0826315
0.0650167
0.0509199
0.0396955
0.0308032
0.0237935
0.0182951
0.0140034
0.01067
0.00809329
0.00611119
0.00459378
0.00343761
0.00256085
0.00189907
0.00140182
0.00102986
0.000752761
0.000547073
0.000394781
0.000282089
0.000198426
0.00013567
8.7503e-05
4.8905e-05
1.57183e-05
0.728121
2.16971
3.56785
4.89537
6.1276
7.24325
8.22501
9.05998
9.73986
10.261
10.624
10.8336
10.898
10.8284
10.6381
10.3421
9.95633
9.49709
8.98048
8.42197
7.83605
7.2359
6.63327
6.0383
5.45951
4.90383
4.37663
3.88187
3.42219
2.99909
2.61307
2.2638
1.95027
1.67094
1.42389
1.20691
1.01763
0.853578
0.712307
0.591404
0.488559
0.401593
0.328481
0.267366
0.216567
0.174575
0.140052
0.111822
0.0888606
0.0702821
0.0553281
0.0433532
0.0338128
0.0262502
0.0202855
0.0156044
0.0119488
0.00910797
0.00691112
0.00522045
0.00392559
0.00293859
0.00218982
0.00162443
0.00119946
0.000881452
0.000644464
0.000468492
0.000338161
0.000241688
0.000170044
0.000116285
7.50119e-05
4.19282e-05
1.34766e-05
0.589821
1.75781
2.89126
3.9685
4.96984
5.87821
6.67963
7.36358
7.92316
8.3551
8.6596
8.84009
8.90281
8.85639
8.71132
8.47943
8.17339
7.80626
7.39099
6.94012
6.46542
5.97769
5.4866
5.00053
4.5266
4.07061
3.63714
3.22956
2.85021
2.50046
2.18085
1.89123
1.63087
1.39859
1.19288
1.01199
0.853992
0.716906
0.598725
0.497478
0.411268
0.338298
0.276898
0.225528
0.182794
0.14744
0.118353
0.0945502
0.0751764
0.0594902
0.0468562
0.0367328
0.0286628
0.0222622
0.0172112
0.0132451
0.0101463
0.00773711
0.00587313
0.00443801
0.0033384
0.00249989
0.00186352
0.00138281
0.00102137
0.000750794
0.00054909
0.000399267
0.000288268
0.000206077
0.00014502
9.91913e-05
6.39948e-05
3.5774e-05
1.14992e-05
0.476509
1.42028
2.33661
3.20828
4.01959
4.75687
5.40888
5.96707
6.42573
6.78203
7.03588
7.18976
7.24843
7.21854
7.10832
6.92709
6.68492
6.39221
6.05938
5.69652
5.31319
4.91818
4.5194
4.12377
3.73717
3.36445
3.00945
2.67507
2.36331
2.07541
1.81192
1.5728
1.35754
1.16525
0.994733
0.844603
0.713326
0.599297
0.500889
0.416496
0.344567
0.283629
0.232306
0.189331
0.153551
0.123928
0.0995371
0.0795634
0.0632946
0.0501139
0.039491
0.030974
0.0241805
0.0187893
0.0145326
0.0111885
0.00857436
0.00654096
0.00496704
0.0037547
0.00282539
0.00211646
0.00157821
0.00117148
0.000865534
0.000636431
0.000465583
0.000338637
0.000244556
0.00017487
0.000123086
8.42044e-05
5.4334e-05
3.03767e-05
9.76483e-06
0.383891
1.14434
1.88304
2.5863
3.24164
3.83815
4.36681
4.82069
5.19511
5.48765
5.69804
5.82809
5.88139
5.86311
5.77966
5.63837
5.44723
5.21451
4.94853
4.65742
4.34889
4.03006
3.7074
3.38655
3.07238
2.7689
2.47933
2.2061
1.95095
1.71496
1.49866
1.30209
1.12489
0.966401
0.825688
0.701651
0.593068
0.49865
0.417082
0.347062
0.287326
0.236673
0.193974
0.158191
0.128375
0.103671
0.0833144
0.066633
0.0530366
0.0420137
0.0331244
0.025993
0.0203015
0.0157823
0.0122121
0.00940591
0.0072112
0.00550323
0.0041806
0.00316137
0.00237975
0.00178325
0.00133018
0.000987681
0.000729963
0.000536904
0.000392885
0.000285839
0.000206479
0.000147678
0.000103969
7.11397e-05
4.59109e-05
2.56703e-05
8.25242e-06
0.308382
0.919343
1.51309
2.07877
2.60649
3.08754
3.5147
3.88241
4.18684
4.42593
4.59936
4.70839
4.75577
4.74548
4.68252
4.57265
4.42218
4.23766
4.02575
3.79293
3.54542
3.28897
3.02882
2.76958
2.51523
2.26909
2.03381
1.81146
1.60349
1.41085
1.23404
1.07314
0.927909
0.79785
0.682242
0.58022
0.490812
0.412986
0.345685
0.287856
0.238475
0.196565
0.161206
0.131551
0.10682
0.0863143
0.0694055
0.0555393
0.04423
0.0350554
0.0276521
0.0217092
0.0169635
0.0131932
0.0102132
0.0078696
0.0060358
0.00460803
0.00350187
0.00264908
0.00199483
0.00149532
0.00111577
0.000828742
0.000612685
0.000450777
0.000329955
0.00024012
0.000173498
0.000124119
8.7402e-05
5.98152e-05
3.86084e-05
2.15896e-05
6.94095e-06
0.246987
0.736378
1.21217
1.66579
2.08938
2.47604
2.82001
3.11681
3.36335
3.55789
3.70008
3.79083
3.83221
3.8273
3.77997
3.69476
3.57661
3.43073
3.2624
3.0768
2.87889
2.67333
2.46433
2.25563
2.05049
1.85162
1.66122
1.48098
1.31216
1.15557
1.01164
0.880501
0.761987
0.655723
0.561159
0.477617
0.404326
0.340465
0.285186
0.237643
0.197009
0.162492
0.133348
0.108884
0.0884673
0.0715257
0.057546
0.0460741
0.0367114
0.0291111
0.0229744
0.0180454
0.0141071
0.0109766
0.00850084
0.00655291
0.00502795
0.00384008
0.00291937
0.00220923
0.0016642
0.0012479
0.000931463
0.000692068
0.0005118
0.000376663
0.000275784
0.000200753
0.000145091
0.000103822
7.3125e-05
5.0054e-05
3.23128e-05
1.80712e-05
5.81009e-06
0.197209
0.588015
0.968102
1.3307
1.66962
1.97937
2.25538
2.49407
2.69293
2.85053
2.96652
3.04155
3.07717
3.07575
3.04032
2.9744
2.88189
2.76689
2.63358
2.48609
2.32838
2.16417
1.99686
1.82948
1.66464
1.50458
1.3511
1.2056
1.06911
0.942344
0.825677
0.719242
0.622941
0.536495
0.459483
0.391374
0.331562
0.279394
0.234194
0.195285
0.162
0.133703
0.10979
0.0897021
0.072925
0.0589932
0.0474891
0.0380423
0.0303274
0.0240608
0.0189979
0.0149291
0.0116762
0.00908909
0.0070421
0.00543067
0.00416854
0.00318494
0.00242221
0.00183368
0.00138178
0.00103648
0.000773907
0.000575188
0.000425495
0.000313239
0.000229412
0.000167042
0.000120758
8.64312e-05
6.08895e-05
4.16867e-05
2.69154e-05
1.50542e-05
4.8404e-06
0.156969
0.468068
0.770736
1.05965
1.32992
1.57721
1.79791
1.98916
2.14894
2.27607
2.37022
2.43185
2.46213
2.46289
2.43646
2.38561
2.31337
2.22297
2.11773
2.00091
1.87565
1.74494
1.61148
1.47772
1.34578
1.21745
1.09421
0.977215
0.867322
0.765118
0.670943
0.584924
0.507006
0.436985
0.374539
0.319256
0.270659
0.228233
0.191441
0.15974
0.132599
0.109506
0.0899757
0.0735566
0.0598336
0.0484298
0.0390067
0.0312637
0.0249362
0.0197934
0.0156359
0.0122928
0.00961865
0.00749071
0.00580615
0.00447937
0.00343969
0.00262908
0.00200021
0.00151476
0.00114186
0.000856803
0.000639957
0.000475784
0.000352068
0.000259261
0.000189933
0.000138334
0.00010003
7.16124e-05
5.04609e-05
3.45536e-05
2.23133e-05
1.24815e-05
4.01343e-06
0.124539
0.371391
0.611629
0.841074
1.05588
1.25264
1.42848
1.58115
1.70901
1.81113
1.88719
1.93751
1.96298
1.965
1.94537
1.90624
1.84999
1.77915
1.69632
1.60409
1.50495
1.40126
1.29519
1.1887
1.08348
0.980985
0.882417
0.788717
0.700591
0.618531
0.542827
0.4736
0.410824
0.35435
0.303934
0.259257
0.219947
0.185596
0.15578
0.130068
0.108037
0.0892761
0.0733974
0.0600384
0.0488649
0.0395733
0.0318904
0.0255732
0.0204076
0.0162066
0.0128086
0.0100746
0.00788651
0.00614442
0.00476461
0.00367733
0.00282492
0.00216001
0.00164395
0.00124541
0.000939139
0.00070493
0.000526693
0.0003917
0.000289937
0.00021357
0.000156505
0.000114018
8.24682e-05
5.9054e-05
4.16208e-05
2.85056e-05
1.84106e-05
1.02996e-05
3.31199e-06
0.0984862
0.293716
0.483772
0.665379
0.835521
0.991525
1.13113
1.25254
1.35448
1.43615
1.49731
1.53816
1.55938
1.56203
1.54752
1.51749
1.47381
1.41847
1.35349
1.28091
1.20271
1.12075
1.03675
0.952274
0.868683
0.787142
0.708616
0.633871
0.563487
0.497869
0.437265
0.381785
0.331422
0.28607
0.245542
0.209593
0.177933
0.150243
0.126188
0.105427
0.0876229
0.0724503
0.059599
0.0487791
0.0397229
0.0321869
0.0259516
0.0208214
0.0166238
0.0132081
0.0104436
0.00821814
0.00643606
0.00501651
0.0038916
0.00300474
0.00230914
0.0017663
0.00134479
0.00101914
0.000768779
0.000577248
0.000431434
0.000320957
0.000237645
0.000175103
0.000128352
9.35332e-05
6.76691e-05
4.84682e-05
3.41675e-05
2.34053e-05
1.51188e-05
8.45897e-06
2.72025e-06
0.077624
0.231513
0.381363
0.524618
0.658921
0.782176
0.89261
0.988809
1.06975
1.1348
1.18375
1.21673
1.23426
1.23714
1.22645
1.20348
1.16966
1.12655
1.07574
1.01882
0.957342
0.892783
0.826508
0.759747
0.69359
0.628966
0.566652
0.507265
0.451277
0.399021
0.350705
0.306429
0.266195
0.229928
0.197488
0.168688
0.143301
0.121078
0.101756
0.0850666
0.0707434
0.0585277
0.0481735
0.0394496
0.0321429
0.0260587
0.0210213
0.0168741
0.0134789
0.0107144
0.00847572
0.00667257
0.00522791
0.00407655
0.0031637
0.0024437
0.0018787
0.00143759
0.00109492
0.000830069
0.00062637
0.000470475
0.000351745
0.000261755
0.000193869
0.00014289
0.000104769
7.6368e-05
5.52646e-05
3.95929e-05
2.79169e-05
1.91271e-05
1.23572e-05
6.91459e-06
2.22374e-06
0.0609739
0.181864
0.299611
0.412226
0.517868
0.614903
0.701943
0.777878
0.841897
0.8935
0.932496
0.958986
0.973347
0.976196
0.968361
0.950833
0.924731
0.891255
0.851649
0.807158
0.758999
0.70833
0.656226
0.603662
0.551501
0.500482
0.451226
0.404229
0.359871
0.318426
0.280066
0.244877
0.21287
0.183992
0.158138
0.135163
0.114894
0.0971373
0.0816857
0.0683289
0.056857
0.047066
0.038761
0.0317589
0.0258904
0.0210004
0.0169494
0.0136122
0.0108784
0.00865131
0.0068468
0.00539256
0.00422683
0.00329731
0.00255999
0.00197816
0.00152137
0.00116459
0.000887318
0.000672917
0.000507955
0.000381657
0.000285433
0.000212474
0.000157416
0.000116056
8.51177e-05
6.20606e-05
4.49223e-05
3.2191e-05
2.27027e-05
1.55576e-05
1.00526e-05
5.62562e-06
1.80931e-06
0.0477307
0.142371
0.234574
0.322792
0.405597
0.481716
0.550066
0.609779
0.660217
0.700981
0.731912
0.753077
0.764757
0.767423
0.761706
0.748372
0.728284
0.702372
0.671602
0.636944
0.59935
0.559724
0.518912
0.47768
0.43671
0.396588
0.357806
0.320761
0.28576
0.253022
0.222692
0.194842
0.169486
0.146588
0.126071
0.107823
0.0917102
0.0775831
0.0652806
0.054638
0.0454905
0.0376778
0.0310462
0.0254512
0.020759
0.0168467
0.0136036