/*--------------------------------*- C++ -*----------------------------------*\
  =========                 |
  \\      /  F ield         | OpenFOAM: The Open Source CFD Toolbox
   \\    /   O peration     | Website:  https://openfoam.org
    \\  /    A nd           | Version:  10
     \\/     M anipulation  |
\*---------------------------------------------------------------------------*/
FoamFile
{
    format      ascii;
    class       volScalarField;
    location    "478";
    object      T;
}
// * * * * * * * * * * * * * * * * * * * * * * * * * * * * * * * * * * * * * //

dimensions      [0 0 0 1 0 0 0];

internalField   nonuniform List<scalar> 
11250
(
249.889
167.696
139.589
127.26
120.568
116.347
113.411
111.23
109.536
108.176
107.057
106.12
105.323
104.638
104.045
103.529
103.077
102.68
102.332
102.025
101.755
101.518
101.309
101.127
100.967
100.827
100.705
100.599
100.508
100.429
100.361
100.303
100.253
100.211
100.175
100.144
100.119
100.097
100.08
100.065
100.052
100.042
100.034
100.027
100.022
100.017
100.014
100.011
100.008
100.007
100.005
100.004
100.003
100.002
100.002
100.001
100.001
100.001
100.001
100
100
100
100
100
100
100
100
100
100
100
100
100
100
100
100
331.639
249.003
202.994
176.151
159.241
147.768
139.488
133.218
128.289
124.303
121.008
118.236
115.874
113.841
112.078
110.54
109.193
108.01
106.97
106.054
105.248
104.54
103.917
103.37
102.892
102.474
102.11
101.794
101.52
101.284
101.08
100.906
100.757
100.63
100.523
100.432
100.356
100.292
100.238
100.194
100.157
100.127
100.102
100.082
100.065
100.052
100.041
100.032
100.025
100.02
100.015
100.012
100.009
100.007
100.005
100.004
100.003
100.002
100.002
100.001
100.001
100.001
100.001
100
100
100
100
100
100
100
100
100
100
100
100
359.305
293.693
247.248
215.131
192.505
176.027
163.593
153.905
146.145
139.788
134.484
129.995
126.15
122.829
119.94
117.415
115.2
113.251
111.536
110.024
108.693
107.521
106.49
105.586
104.794
104.102
103.499
102.975
102.521
102.13
101.792
101.503
101.256
101.046
100.868
100.717
100.59
100.484
100.396
100.322
100.261
100.211
100.169
100.136
100.108
100.086
100.068
100.054
100.042
100.033
100.026
100.02
100.015
100.012
100.009
100.007
100.005
100.004
100.003
100.002
100.002
100.001
100.001
100.001
100
100
100
100
100
100
100
100
100
100
100
371.198
319.232
277.198
244.655
219.666
200.293
185.014
172.73
162.671
154.298
147.231
141.195
135.993
131.475
127.531
124.072
121.029
118.348
115.983
113.897
112.057
110.435
109.009
107.756
106.659
105.699
104.862
104.135
103.505
102.961
102.492
102.091
101.747
101.455
101.207
100.998
100.821
100.674
100.55
100.448
100.363
100.293
100.236
100.189
100.151
100.12
100.095
100.075
100.059
100.046
100.036
100.028
100.021
100.016
100.013
100.01
100.007
100.005
100.004
100.003
100.002
100.002
100.001
100.001
100.001
100.001
100
100
100
100
100
100
100
100
100
377.462
334.859
297.692
266.674
241.272
220.539
203.524
189.426
177.616
167.614
159.061
151.683
145.275
139.676
134.763
130.438
126.623
123.252
120.272
117.638
115.312
113.26
111.453
109.865
108.472
107.253
106.19
105.266
104.464
103.772
103.176
102.664
102.227
101.855
101.539
101.272
101.048
100.859
100.702
100.571
100.463
100.374
100.301
100.241
100.192
100.153
100.121
100.095
100.075
100.058
100.046
100.035
100.027
100.021
100.016
100.012
100.009
100.007
100.005
100.004
100.003
100.002
100.002
100.001
100.001
100.001
100
100
100
100
100
100
100
100
100
381.264
345.076
312.084
283.139
258.29
237.16
219.224
203.954
190.882
179.623
169.865
161.358
153.906
147.353
141.571
136.458
131.932
127.921
124.367
121.22
118.435
115.975
113.806
111.897
110.221
108.755
107.474
106.36
105.394
104.558
103.839
103.221
102.693
102.243
101.862
101.539
101.268
101.04
100.85
100.692
100.561
100.453
100.364
100.292
100.233
100.185
100.146
100.115
100.091
100.071
100.055
100.043
100.033
100.025
100.019
100.015
100.011
100.009
100.006
100.005
100.004
100.003
100.002
100.001
100.001
100.001
100.001
100
100
100
100
100
100
100
100
383.792
352.131
322.483
295.583
271.682
250.703
232.391
216.429
202.497
190.303
179.597
170.166
161.833
154.454
147.906
142.09
136.92
132.324
128.241
124.617
121.405
118.562
116.052
113.84
111.897
110.194
108.707
107.412
106.288
105.315
104.478
103.758
103.143
102.618
102.173
101.797
101.48
101.214
100.993
100.808
100.655
100.529
100.426
100.341
100.272
100.216
100.171
100.135
100.106
100.083
100.064
100.05
100.039
100.03
100.023
100.017
100.013
100.01
100.007
100.006
100.004
100.003
100.002
100.002
100.001
100.001
100.001
100
100
100
100
100
100
100
100
385.575
357.214
330.198
305.116
282.266
261.711
243.361
227.046
212.559
199.697
188.266
178.095
169.034
160.953
153.742
147.305
141.561
136.438
131.874
127.812
124.205
121.007
118.179
115.684
113.49
111.565
109.882
108.415
107.142
106.039
105.089
104.272
103.574
102.978
102.472
102.045
101.684
101.382
101.13
100.92
100.746
100.603
100.485
100.388
100.31
100.246
100.195
100.154
100.121
100.094
100.073
100.057
100.044
100.034
100.026
100.02
100.015
100.011
100.009
100.006
100.005
100.004
100.003
100.002
100.001
100.001
100.001
100.001
100
100
100
100
100
100
100
386.887
360.996
336.052
312.519
290.683
270.666
252.473
236.028
221.212
207.888
195.917
185.166
175.512
166.845
159.067
152.092
145.842
140.249
135.251
130.793
126.824
123.3
120.179
117.421
114.993
112.86
110.994
109.367
107.952
106.727
105.67
104.762
103.984
103.321
102.758
102.281
101.88
101.543
101.261
101.027
100.833
100.673
100.542
100.434
100.346
100.275
100.218
100.172
100.135
100.105
100.082
100.064
100.049
100.038
100.029
100.022
100.017
100.013
100.01
100.007
100.005
100.004
100.003
100.002
100.002
100.001
100.001
100.001
100
100
100
100
100
100
100
387.879
363.879
340.577
318.34
297.422
277.969
260.033
243.601
228.612
214.983
202.619
191.421
181.292
172.141
163.886
156.448
149.758
143.75
138.366
133.551
129.256
125.435
122.045
119.046
116.401
114.076
112.04
110.262
108.716
107.376
106.219
105.225
104.373
103.646
103.028
102.506
102.065
101.695
101.386
101.129
100.916
100.74
100.595
100.477
100.381
100.303
100.24
100.189
100.148
100.116
100.09
100.07
100.054
100.042
100.032
100.024
100.018
100.014
100.011
100.008
100.006
100.004
100.003
100.002
100.002
100.001
100.001
100.001
100
100
100
100
100
100
100
388.645
366.12
344.128
322.966
302.855
283.943
266.307
249.971
234.916
221.097
208.454
196.916
186.412
176.868
168.213
160.383
153.312
146.942
141.217
136.085
131.497
127.408
123.773
120.554
117.711
115.21
113.016
111.1
109.431
107.985
106.735
105.66
104.738
103.952
103.283
102.717
102.24
101.839
101.504
101.225
100.994
100.803
100.647
100.518
100.414
100.329
100.26
100.205
100.161
100.126
100.098
100.076
100.059
100.045
100.035
100.026
100.02
100.015
100.011
100.009
100.006
100.005
100.004
100.003
100.002
100.001
100.001
100.001
100.001
100
100
100
100
100
100
389.248
367.888
346.949
326.676
307.261
288.845
271.518
255.323
240.27
226.344
213.508
201.718
190.919
181.057
172.073
163.911
156.515
149.832
143.809
138.396
133.548
129.218
125.364
121.945
118.922
116.259
113.922
111.878
110.097
108.552
107.216
106.066
105.08
104.238
103.522
102.916
102.404
101.974
101.615
101.316
101.068
100.863
100.695
100.557
100.445
100.354
100.28
100.221
100.173
100.136
100.106
100.082
100.063
100.049
100.037
100.028
100.022
100.016
100.012
100.009
100.007
100.005
100.004
100.003
100.002
100.002
100.001
100.001
100.001
100
100
100
100
100
100
389.727
369.297
349.212
329.674
310.853
292.881
275.849
259.816
244.809
230.831
217.867
205.891
194.866
184.749
175.495
167.056
159.384
152.431
146.149
140.491
135.413
130.869
126.819
123.22
120.035
117.225
114.757
112.597
110.713
109.077
107.663
106.444
105.398
104.505
103.745
103.1
102.557
102.101
101.719
101.401
101.137
100.919
100.74
100.593
100.474
100.377
100.298
100.235
100.185
100.145
100.113
100.087
100.067
100.052
100.04
100.03
100.023
100.017
100.013
100.01
100.007
100.005
100.004
100.003
100.002
100.002
100.001
100.001
100.001
100
100
100
100
100
100
390.111
370.432
351.041
332.112
313.795
296.212
279.455
263.588
248.65
234.659
221.614
209.503
198.304
187.985
178.51
169.842
161.937
154.754
148.248
142.377
137.097
132.365
128.14
124.381
121.05
118.109
115.522
113.256
111.279
109.561
108.074
106.792
105.692
104.751
103.951
103.272
102.699
102.218
101.815
101.479
101.201
100.971
100.782
100.627
100.501
100.398
100.315
100.249
100.195
100.153
100.119
100.092
100.071
100.055
100.042
100.032
100.024
100.018
100.014
100.01
100.008
100.006
100.004
100.003
100.002
100.002
100.001
100.001
100.001
100
100
100
100
100
100
390.423
371.352
352.528
334.104
316.212
298.967
282.458
266.752
251.896
237.916
224.824
212.618
201.286
190.807
181.155
172.296
164.197
156.818
150.121
144.065
138.609
133.712
129.333
125.432
121.971
118.912
116.219
113.858
111.797
110.004
108.451
107.112
105.962
104.978
104.14
103.43
102.83
102.326
101.904
101.552
101.26
101.019
100.821
100.658
100.526
100.418
100.331
100.261
100.205
100.161
100.125
100.097
100.075
100.058
100.044
100.034
100.026
100.019
100.015
100.011
100.008
100.006
100.005
100.003
100.002
100.002
100.001
100.001
100.001
100
100
100
100
100
100
390.676
372.102
353.744
335.738
318.205
301.25
284.961
269.406
254.635
240.682
227.566
215.294
203.863
193.259
183.462
174.448
166.186
158.643
151.783
145.568
139.959
134.917
130.403
126.377
122.801
119.638
116.85
114.404
112.267
110.406
108.794
107.403
106.208
105.185
104.314
103.575
102.95
102.425
101.986
101.619
101.315
101.063
100.857
100.687
100.549
100.437
100.346
100.273
100.214
100.168
100.131
100.101
100.078
100.06
100.046
100.035
100.027
100.02
100.015
100.011
100.009
100.006
100.005
100.003
100.003
100.002
100.001
100.001
100.001
100.001
100
100
100
100
100
390.883
372.715
354.741
337.082
319.85
303.145
287.049
271.631
256.944
243.026
229.902
217.586
206.08
195.379
185.467
176.325
167.928
160.247
153.248
146.897
141.158
135.991
131.359
127.223
123.546
120.29
117.418
114.896
112.691
110.771
109.106
107.668
106.432
105.374
104.472
103.707
103.06
102.516
102.06
101.68
101.365
101.104
100.889
100.714
100.57
100.454
100.359
100.284
100.223
100.174
100.136
100.105
100.081
100.063
100.048
100.037
100.028
100.021
100.016
100.012
100.009
100.007
100.005
100.004
100.003
100.002
100.001
100.001
100.001
100.001
100
100
100
100
100
391.053
373.218
355.56
338.19
321.212
304.718
288.79
273.495
258.887
245.008
231.888
219.543
207.983
197.205
187.201
177.956
169.448
161.65
154.535
148.068
142.216
136.941
132.207
127.976
124.21
120.872
117.927
115.338
113.072
111.098
109.386
107.906
106.634
105.544
104.615
103.826
103.159
102.598
102.128
101.736
101.41
101.141
100.919
100.738
100.589
100.469
100.372
100.293
100.231
100.18
100.141
100.109
100.084
100.065
100.05
100.038
100.029
100.022
100.016
100.012
100.009
100.007
100.005
100.004
100.003
100.002
100.001
100.001
100.001
100.001
100
100
100
100
100
391.193
373.633
356.236
339.105
322.339
306.025
290.242
275.055
260.521
246.682
233.571
221.21
209.609
198.773
188.696
179.366
170.766
162.873
155.659
149.094
143.146
137.778
132.956
128.642
124.799
121.39
118.379
115.731
113.413
111.392
109.637
108.12
106.816
105.697
104.744
103.934
103.249
102.672
102.189
101.786
101.451
101.174
100.946
100.759
100.607
100.483
100.383
100.302
100.238
100.186
100.145
100.112
100.087
100.067
100.051
100.039
100.03
100.022
100.017
100.013
100.01
100.007
100.005
100.004
100.003
100.002
100.002
100.001
100.001
100.001
100
100
100
100
100
391.308
373.974
356.793
339.862
323.273
307.112
291.452
276.361
261.893
248.093
234.995
222.624
210.995
200.114
189.979
180.581
171.905
163.932
156.636
149.988
143.958
138.512
133.614
129.228
125.318
121.848
118.78
116.081
113.716
111.653
109.861
108.312
106.978
105.835
104.859
104.03
103.329
102.739
102.244
101.831
101.488
101.205
100.971
100.779
100.623
100.496
100.393
100.31
100.244
100.191
100.149
100.115
100.089
100.069
100.053
100.04
100.031
100.023
100.017
100.013
100.01
100.007
100.005
100.004
100.003
100.002
100.002
100.001
100.001
100.001
100
100
100
100
100
391.402
374.255
357.253
340.487
324.047
308.014
292.46
277.451
263.042
249.279
236.197
223.822
212.173
201.257
191.076
181.623
172.886
164.846
157.482
150.765
144.666
139.152
134.189
129.742
125.774
122.25
119.133
116.389
113.983
111.884
110.059
108.481
107.122
105.957
104.962
104.116
103.401
102.799
102.294
101.872
101.522
101.232
100.993
100.797
100.637
100.507
100.402
100.317
100.25
100.195
100.152
100.118
100.091
100.07
100.054
100.041
100.031
100.024
100.018
100.013
100.01
100.007
100.006
100.004
100.003
100.002
100.002
100.001
100.001
100.001
100
100
100
100
100
391.48
374.487
357.633
341.005
324.688
308.762
293.299
278.361
264.004
250.274
237.208
224.834
213.17
202.228
192.011
182.514
173.726
165.632
158.21
151.435
145.278
139.707
134.689
130.19
126.173
122.602
119.443
116.66
114.218
112.087
110.234
108.631
107.249
106.065
105.053
104.193
103.465
102.852
102.338
101.908
101.551
101.256
101.012
100.813
100.65
100.517
100.41
100.324
100.255
100.199
100.155
100.121
100.093
100.072
100.055
100.042
100.032
100.024
100.018
100.014
100.01
100.008
100.006
100.004
100.003
100.002
100.002
100.001
100.001
100.001
100
100
100
100
100
391.545
374.679
357.946
341.432
325.219
309.383
293.996
279.119
264.807
251.107
238.057
225.685
214.012
203.051
192.805
183.272
174.444
166.305
158.835
152.012
145.806
140.187
135.122
130.578
126.519
122.909
119.713
116.896
114.424
112.265
110.388
108.762
107.362
106.16
105.133
104.26
103.521
102.899
102.376
101.94
101.577
101.277
101.03
100.827
100.661
100.526
100.417
100.33
100.259
100.203
100.158
100.123
100.095
100.073
100.056
100.043
100.033
100.025
100.019
100.014
100.01
100.008
100.006
100.004
100.003
100.002
100.002
100.001
100.001
100.001
100
100
100
100
100
391.598
374.837
358.205
341.785
325.658
309.898
294.574
279.749
265.477
251.804
238.768
226.4
214.721
203.745
193.476
183.915
175.054
166.878
159.37
152.505
146.259
140.599
135.496
130.913
126.818
123.174
119.947
117.101
114.603
112.421
110.522
108.877
107.46
106.243
105.204
104.319
103.571
102.94
102.41
101.968
101.6
101.296
101.045
100.839
100.671
100.534
100.424
100.335
100.263
100.206
100.161
100.125
100.096
100.074
100.057
100.043
100.033
100.025
100.019
100.014
100.011
100.008
100.006
100.004
100.003
100.002
100.002
100.001
100.001
100.001
100
100
100
100
100
391.642
374.967
358.418
342.076
326.02
310.323
295.053
280.272
266.033
252.384
239.362
226.999
215.316
204.328
194.043
184.459
175.57
167.365
159.824
152.926
146.646
140.953
135.816
131.202
127.076
123.403
120.149
117.279
114.759
112.555
110.638
108.977
107.545
106.316
105.265
104.371
103.614
102.976
102.44
101.993
101.621
101.313
101.059
100.85
100.68
100.542
100.429
100.339
100.267
100.209
100.163
100.126
100.098
100.075
100.058
100.044
100.034
100.025
100.019
100.014
100.011
100.008
100.006
100.004
100.003
100.002
100.002
100.001
100.001
100.001
100
100
100
100
100
391.677
375.074
358.593
342.316
326.319
310.675
295.45
280.705
266.496
252.867
239.857
227.499
215.814
204.818
194.519
184.917
176.006
167.776
160.209
153.284
146.975
141.254
136.089
131.448
127.297
123.6
120.323
117.432
114.892
112.672
110.739
109.064
107.619
106.379
105.318
104.416
103.652
103.007
102.466
102.014
101.638
101.327
101.07
100.86
100.688
100.548
100.434
100.343
100.27
100.211
100.165
100.128
100.099
100.076
100.058
100.045
100.034
100.026
100.019
100.015
100.011
100.008
100.006
100.004
100.003
100.002
100.002
100.001
100.001
100.001
100
100
100
100
100
391.707
375.162
358.738
342.514
326.565
310.964
295.777
281.064
266.878
253.267
240.269
227.915
216.229
205.227
194.917
185.301
176.373
168.123
160.534
153.586
147.254
141.509
136.321
131.658
127.485
123.768
120.472
117.563
115.007
112.772
110.825
109.138
107.683
106.433
105.364
104.455
103.684
103.035
102.489
102.033
101.654
101.34
101.081
100.868
100.694
100.553
100.439
100.347
100.273
100.213
100.166
100.129
100.1
100.077
100.059
100.045
100.034
100.026
100.02
100.015
100.011
100.008
100.006
100.004
100.003
100.002
100.002
100.001
100.001
100.001
100
100
100
100
100
391.731
375.234
358.856
342.676
326.767
311.202
296.046
281.359
267.194
253.598
240.61
228.26
216.575
205.568
195.25
185.622
176.68
168.414
160.808
153.841
147.489
141.725
136.518
131.836
127.645
123.911
120.599
117.675
115.105
112.857
110.899
109.202
107.738
106.48
105.404
104.488
103.713
103.058
102.509
102.049
101.667
101.351
101.089
100.875
100.7
100.558
100.442
100.35
100.275
100.215
100.168
100.13
100.101
100.078
100.06
100.045
100.035
100.026
100.02
100.015
100.011
100.008
100.006
100.005
100.003
100.002
100.002
100.001
100.001
100.001
100
100
100
100
100
391.751
375.293
358.953
342.808
326.933
311.398
296.268
281.602
267.454
253.871
240.891
228.546
216.861
205.851
195.526
185.89
176.936
168.657
161.037
154.054
147.687
141.907
136.684
131.986
127.78
124.032
120.706
117.77
115.188
112.93
110.963
109.257
107.785
106.52
105.438
104.517
103.737
103.078
102.525
102.063
101.679
101.36
101.097
100.881
100.705
100.562
100.446
100.352
100.277
100.217
100.169
100.131
100.102
100.078
100.06
100.046
100.035
100.026
100.02
100.015
100.011
100.008
100.006
100.005
100.003
100.002
100.002
100.001
100.001
100.001
100
100
100
100
100
391.767
375.341
359.032
342.917
327.069
311.558
296.449
281.801
267.668
254.096
241.123
228.782
217.097
206.085
195.756
186.112
177.15
168.86
161.227
154.233
147.852
142.059
136.823
132.112
127.894
124.133
120.797
117.85
115.259
112.991
111.016
109.303
107.824
106.554
105.467
104.542
103.757
103.095
102.54
102.075
101.688
101.368
101.104
100.887
100.71
100.565
100.448
100.354
100.279
100.218
100.17
100.132
100.102
100.079
100.06
100.046
100.035
100.027
100.02
100.015
100.011
100.008
100.006
100.005
100.003
100.002
100.002
100.001
100.001
100.001
100
100
100
100
100
391.78
375.38
359.097
343.005
327.18
311.689
296.597
281.965
267.843
254.28
241.314
228.976
217.292
206.278
195.945
186.295
177.326
169.028
161.386
154.381
147.99
142.186
136.939
132.218
127.989
124.219
120.873
117.917
115.318
113.043
111.061
109.342
107.858
106.582
105.491
104.562
103.775
103.11
102.552
102.085
101.697
101.375
101.109
100.891
100.713
100.568
100.451
100.356
100.28
100.22
100.171
100.133
100.103
100.079
100.061
100.046
100.035
100.027
100.02
100.015
100.011
100.008
100.006
100.005
100.003
100.002
100.002
100.001
100.001
100.001
100
100
100
100
100
391.791
375.412
359.149
343.077
327.27
311.795
296.718
282.098
267.987
254.431
241.469
229.135
217.452
206.437
196.101
186.447
177.472
169.167
161.517
154.504
148.105
142.292
137.036
132.306
128.069
124.29
120.937
117.974
115.368
113.087
111.099
109.375
107.886
106.607
105.512
104.58
103.789
103.122
102.562
102.094
101.704
101.381
101.114
100.895
100.716
100.571
100.453
100.358
100.282
100.221
100.172
100.134
100.103
100.08
100.061
100.047
100.035
100.027
100.02
100.015
100.011
100.008
100.006
100.005
100.003
100.002
100.002
100.001
100.001
100.001
100
100
100
100
100
391.8
375.438
359.192
343.136
327.343
311.882
296.817
282.206
268.103
254.554
241.597
229.265
217.582
206.567
196.229
186.571
177.592
169.281
161.625
154.606
148.199
142.379
137.116
132.379
128.135
124.35
120.99
118.021
115.41
113.123
111.131
109.402
107.91
106.627
105.529
104.594
103.802
103.133
102.571
102.101
101.71
101.385
101.118
100.898
100.719
100.573
100.455
100.359
100.283
100.221
100.173
100.134
100.104
100.08
100.061
100.047
100.036
100.027
100.02
100.015
100.011
100.008
100.006
100.005
100.003
100.002
100.002
100.001
100.001
100.001
100
100
100
100
100
391.807
375.459
359.226
343.183
327.402
311.952
296.897
282.294
268.198
254.653
241.7
229.371
217.689
206.673
196.333
186.673
177.69
169.375
161.714
154.689
148.277
142.451
137.182
132.439
128.189
124.399
121.034
118.06
115.444
113.154
111.157
109.425
107.93
106.644
105.544
104.607
103.812
103.142
102.578
102.107
101.715
101.39
101.121
100.901
100.721
100.575
100.456
100.36
100.284
100.222
100.173
100.135
100.104
100.08
100.062
100.047
100.036
100.027
100.02
100.015
100.011
100.009
100.006
100.005
100.003
100.003
100.002
100.001
100.001
100.001
100
100
100
100
100
391.813
375.476
359.254
343.222
327.45
312.009
296.961
282.365
268.274
254.734
241.784
229.457
217.776
206.759
196.418
186.756
177.77
169.452
161.787
154.758
148.341
142.51
137.236
132.489
128.234
124.439
121.07
118.092
115.473
113.179
111.179
109.444
107.946
106.658
105.556
104.617
103.821
103.149
102.584
102.112
101.719
101.393
101.124
100.904
100.723
100.576
100.457
100.361
100.284
100.223
100.174
100.135
100.104
100.08
100.062
100.047
100.036
100.027
100.02
100.015
100.011
100.009
100.006
100.005
100.003
100.003
100.002
100.001
100.001
100.001
100
100
100
100
100
391.817
375.49
359.276
343.252
327.489
312.055
297.013
282.423
268.336
254.8
241.852
229.526
217.846
206.829
196.487
186.823
177.835
169.514
161.846
154.814
148.393
142.558
137.281
132.529
128.271
124.473
121.1
118.119
115.496
113.199
111.197
109.46
107.96
106.67
105.566
104.625
103.828
103.155
102.589
102.116
101.722
101.396
101.127
100.905
100.725
100.577
100.458
100.362
100.285
100.223
100.174
100.135
100.105
100.081
100.062
100.047
100.036
100.027
100.021
100.015
100.012
100.009
100.006
100.005
100.003
100.003
100.002
100.001
100.001
100.001
100
100
100
100
100
391.821
375.5
359.294
343.277
327.52
312.091
297.055
282.469
268.386
254.852
241.907
229.582
217.903
206.886
196.543
186.878
177.888
169.565
161.894
154.859
148.435
142.598
137.317
132.563
128.301
124.5
121.124
118.14
115.515
113.216
111.212
109.473
107.971
106.679
105.574
104.632
103.834
103.16
102.593
102.12
101.725
101.398
101.129
100.907
100.726
100.579
100.459
100.363
100.285
100.224
100.175
100.136
100.105
100.081
100.062
100.047
100.036
100.027
100.021
100.015
100.012
100.009
100.006
100.005
100.003
100.003
100.002
100.001
100.001
100.001
100
100
100
100
100
391.824
375.509
359.309
343.297
327.545
312.121
297.088
282.506
268.426
254.895
241.951
229.627
217.948
206.931
196.588
186.922
177.93
169.605
161.933
154.896
148.47
142.63
137.347
132.59
128.326
124.522
121.144
118.158
115.531
113.23
111.224
109.484
107.98
106.687
105.581
104.638
103.839
103.164
102.597
102.123
101.728
101.4
101.13
100.908
100.727
100.579
100.46
100.363
100.286
100.224
100.175
100.136
100.105
100.081
100.062
100.047
100.036
100.027
100.021
100.015
100.012
100.009
100.006
100.005
100.003
100.003
100.002
100.001
100.001
100.001
100
100
100
100
100
391.826
375.516
359.32
343.312
327.564
312.144
297.115
282.535
268.458
254.928
241.986
229.663
217.985
206.968
196.624
186.957
177.965
169.638
161.965
154.925
148.497
142.656
137.371
132.611
128.346
124.54
121.16
118.173
115.544
113.241
111.234
109.492
107.988
106.694
105.586
104.643
103.843
103.167
102.6
102.125
101.73
101.402
101.131
100.909
100.728
100.58
100.46
100.364
100.286
100.224
100.175
100.136
100.105
100.081
100.062
100.047
100.036
100.027
100.021
100.015
100.012
100.009
100.006
100.005
100.003
100.003
100.002
100.001
100.001
100.001
100
100
100
100
100
391.828
375.522
359.329
343.325
327.58
312.163
297.136
282.559
268.483
254.955
242.014
229.692
218.014
206.997
196.653
186.985
177.992
169.665
161.99
154.949
148.52
142.676
137.39
132.629
128.362
124.554
121.173
118.184
115.554
113.251
111.242
109.499
107.994
106.699
105.591
104.647
103.846
103.17
102.602
102.127
101.731
101.403
101.133
100.91
100.729
100.581
100.461
100.364
100.287
100.225
100.175
100.136
100.105
100.081
100.062
100.048
100.036
100.027
100.021
100.016
100.012
100.009
100.006
100.005
100.003
100.003
100.002
100.001
100.001
100.001
100
100
100
100
100
391.829
375.526
359.337
343.335
327.593
312.177
297.153
282.578
268.503
254.977
242.037
229.715
218.037
207.02
196.676
187.008
178.014
169.686
162.01
154.968
148.538
142.693
137.405
132.643
128.375
124.566
121.184
118.194
115.562
113.258
111.249
109.505
107.998
106.703
105.594
104.65
103.849
103.172
102.604
102.128
101.732
101.404
101.133
100.911
100.729
100.581
100.461
100.364
100.287
100.225
100.175
100.136
100.105
100.081
100.062
100.048
100.036
100.027
100.021
100.016
100.012
100.009
100.006
100.005
100.003
100.003
100.002
100.001
100.001
100.001
100
100
100
100
100
391.83
375.529
359.342
343.343
327.602
312.189
297.166
282.592
268.519
254.994
242.054
229.733
218.055
207.039
196.694
187.026
178.031
169.703
162.026
154.983
148.552
142.706
137.417
132.654
128.385
124.575
121.192
118.201
115.569
113.264
111.254
109.509
108.002
106.707
105.597
104.652
103.851
103.174
102.605
102.13
101.733
101.405
101.134
100.912
100.73
100.582
100.462
100.365
100.287
100.225
100.175
100.136
100.105
100.081
100.062
100.048
100.036
100.027
100.021
100.016
100.012
100.009
100.006
100.005
100.003
100.003
100.002
100.001
100.001
100.001
100
100
100
100
100
391.831
375.532
359.347
343.349
327.61
312.198
297.177
282.604
268.532
255.007
242.068
229.747
218.07
207.053
196.709
187.04
178.045
169.716
162.039
154.995
148.563
142.717
137.427
132.663
128.393
124.583
121.199
118.207
115.575
113.269
111.258
109.513
108.006
106.709
105.6
104.654
103.852
103.175
102.607
102.131
101.734
101.406
101.135
100.912
100.73
100.582
100.462
100.365
100.287
100.225
100.176
100.136
100.106
100.081
100.062
100.048
100.036
100.027
100.021
100.016
100.012
100.009
100.006
100.005
100.003
100.003
100.002
100.001
100.001
100.001
100
100
100
100
100
391.832
375.534
359.35
343.354
327.616
312.205
297.185
282.613
268.542
255.017
242.079
229.759
218.081
207.065
196.72
187.051
178.056
169.726
162.049
155.005
148.572
142.725
137.435
132.67
128.4
124.589
121.204
118.212
115.579
113.272
111.261
109.516
108.008
106.711
105.602
104.656
103.854
103.177
102.608
102.131
101.735
101.406
101.135
100.912
100.73
100.582
100.462
100.365
100.287
100.225
100.176
100.136
100.106
100.081
100.062
100.048
100.036
100.027
100.021
100.016
100.012
100.009
100.006
100.005
100.003
100.003
100.002
100.001
100.001
100.001
100
100
100
100
100
391.833
375.536
359.353
343.357
327.621
312.211
297.191
282.62
268.55
255.026
242.088
229.767
218.09
207.074
196.729
187.06
178.065
169.735
162.056
155.012
148.579
142.732
137.441
132.676
128.405
124.593
121.208
118.216
115.582
113.275
111.264
109.518
108.01
106.713
105.603
104.657
103.855
103.178
102.608
102.132
101.736
101.407
101.136
100.913
100.731
100.582
100.462
100.365
100.287
100.225
100.176
100.137
100.106
100.081
100.062
100.048
100.036
100.027
100.021
100.016
100.012
100.009
100.006
100.005
100.003
100.003
100.002
100.001
100.001
100.001
100
100
100
100
100
391.833
375.537
359.355
343.36
327.625
312.215
297.196
282.626
268.556
255.032
242.094
229.774
218.097
207.081
196.736
187.067
178.071
169.741
162.063
155.018
148.585
142.737
137.446
132.681
128.409
124.597
121.212
118.219
115.585
113.278
111.266
109.52
108.012
106.715
105.604
104.658
103.856
103.178
102.609
102.133
101.736
101.407
101.136
100.913
100.731
100.582
100.462
100.365
100.287
100.225
100.176
100.137
100.106
100.081
100.062
100.048
100.036
100.027
100.021
100.016
100.012
100.009
100.006
100.005
100.003
100.003
100.002
100.001
100.001
100.001
100
100
100
100
100
391.833
375.538
359.357
343.363
327.627
312.219
297.2
282.63
268.56
255.037
242.099
229.78
218.103
207.086
196.741
187.072
178.076
169.746
162.067
155.023
148.589
142.741
137.449
132.684
128.412
124.6
121.214
118.221
115.587
113.279
111.268
109.521
108.013
106.716
105.605
104.659
103.856
103.179
102.609
102.133
101.736
101.407
101.136
100.913
100.731
100.583
100.462
100.365
100.288
100.225
100.176
100.137
100.106
100.081
100.062
100.048
100.036
100.027
100.021
100.016
100.012
100.009
100.006
100.005
100.003
100.003
100.002
100.001
100.001
100.001
100
100
100
100
100
391.834
375.539
359.358
343.364
327.63
312.222
297.203
282.633
268.564
255.041
242.104
229.784
218.107
207.091
196.746
187.076
178.081
169.75
162.071
155.026
148.592
142.744
137.452
132.687
128.414
124.602
121.216
118.223
115.589
113.281
111.269
109.523
108.014
106.716
105.606
104.66
103.857
103.179
102.61
102.133
101.737
101.408
101.136
100.913
100.731
100.583
100.462
100.365
100.288
100.225
100.176
100.137
100.106
100.081
100.062
100.048
100.036
100.027
100.021
100.016
100.012
100.009
100.006
100.005
100.003
100.003
100.002
100.001
100.001
100.001
100
100
100
100
100
391.834
375.54
359.359
343.366
327.631
312.224
297.206
282.636
268.567
255.044
242.107
229.787
218.11
207.094
196.749
187.08
178.084
169.753
162.074
155.029
148.595
142.746
137.455
132.689
128.416
124.604
121.218
118.224
115.59
113.282
111.27
109.523
108.015
106.717
105.606
104.66
103.857
103.18
102.61
102.134
101.737
101.408
101.136
100.913
100.731
100.583
100.463
100.366
100.288
100.225
100.176
100.137
100.106
100.081
100.062
100.048
100.036
100.028
100.021
100.016
100.012
100.009
100.006
100.005
100.003
100.003
100.002
100.001
100.001
100.001
100
100
100
100
100
391.834
375.54
359.36
343.367
327.633
312.225
297.208
282.638
268.569
255.046
242.109
229.79
218.113
207.096
196.751
187.082
178.086
169.755
162.076
155.031
148.597
142.748
137.456
132.69
128.418
124.605
121.219
118.225
115.591
113.283
111.271
109.524
108.015
106.718
105.607
104.66
103.858
103.18
102.61
102.134
101.737
101.408
101.137
100.914
100.731
100.583
100.463
100.366
100.288
100.225
100.176
100.137
100.106
100.081
100.063
100.048
100.036
100.028
100.021
100.016
100.012
100.009
100.006
100.005
100.003
100.003
100.002
100.001
100.001
100.001
100
100
100
100
100
391.834
375.54
359.36
343.368
327.634
312.226
297.209
282.64
268.571
255.048
242.111
229.791
218.115
207.098
196.753
187.084
178.088
169.757
162.078
155.033
148.599
142.75
137.458
132.692
128.419
124.606
121.22
118.226
115.592
113.284
111.271
109.525
108.016
106.718
105.607
104.661
103.858
103.18
102.61
102.134
101.737
101.408
101.137
100.914
100.731
100.583
100.463
100.366
100.288
100.225
100.176
100.137
100.106
100.081
100.063
100.048
100.036
100.028
100.021
100.016
100.012
100.009
100.006
100.005
100.003
100.003
100.002
100.001
100.001
100.001
100
100
100
100
100
391.834
375.541
359.361
343.368
327.634
312.227
297.21
282.641
268.572
255.049
242.112
229.793
218.116
207.1
196.755
187.085
178.089
169.758
162.079
155.034
148.6
142.751
137.459
132.693
128.42
124.607
121.221
118.227
115.592
113.284
111.272
109.525
108.016
106.718