/*--------------------------------*- C++ -*----------------------------------*\
  =========                 |
  \\      /  F ield         | OpenFOAM: The Open Source CFD Toolbox
   \\    /   O peration     | Website:  https://openfoam.org
    \\  /    A nd           | Version:  10
     \\/     M anipulation  |
\*---------------------------------------------------------------------------*/
FoamFile
{
    format      ascii;
    class       volScalarField;
    location    "1300";
    object      gradTx;
}
// * * * * * * * * * * * * * * * * * * * * * * * * * * * * * * * * * * * * * //

dimensions      [0 -1 0 1 0 0 0];

internalField   nonuniform List<scalar> 
11250
(
14317.8
8157.7
5399.04
3950.3
3084.71
2514.82
2111.84
1811.4
1578.24
1391.55
1238.32
1110.01
1000.76
906.473
824.146
751.565
687.047
629.293
577.284
530.212
487.424
448.386
412.66
379.88
349.739
321.975
296.363
272.711
250.849
230.629
211.92
194.605
178.58
163.75
150.028
137.337
125.605
114.765
104.756
95.5205
87.0064
79.164
71.9471
65.3123
59.2189
53.6289
48.5063
43.8174
39.5305
35.6159
32.0455
28.7929
25.8335
23.144
20.7026
18.4889
16.4837
14.6693
13.0287
11.5464
10.2076
8.99876
7.90698
6.92031
6.02754
5.21817
4.48233
3.81074
3.19462
2.62566
2.09593
1.59786
1.12413
0.667627
0.221403
4113.61
4756.31
4089.21
3367.28
2789.21
2348.13
2009.56
1744.43
1532.1
1358.46
1213.81
1091.37
986.269
894.992
814.909
744.031
680.83
624.111
572.927
526.519
484.272
445.68
410.325
377.856
347.976
320.434
295.013
271.523
249.802
229.705
211.102
193.881
177.937
163.178
149.52
136.885
125.202
114.405
104.435
95.2347
86.7516
78.9368
71.7444
65.1316
59.0578
53.4853
48.3784
43.7036
39.4293
35.5259
31.9656
28.722
25.7706
23.0882
20.6532
18.4452
16.4452
14.6353
12.9988
11.5201
10.1845
8.97856
7.88935
6.90498
6.01427
5.20675
4.47257
3.80248
3.18772
2.62001
2.09144
1.59445
1.12173
0.666203
0.220932
1493.92
2664.78
2834.33
2640.56
2356.9
2079.14
1834.12
1624.94
1447.6
1296.75
1167.5
1055.8
958.411
872.8
796.971
729.348
668.678
613.956
564.369
519.254
478.063
440.343
405.714
373.854
344.489
317.385
292.337
269.17
247.727
227.871
209.479
192.441
176.659
162.042
148.509
135.985
124.4
113.691
103.798
94.6662
86.2445
78.4844
71.341
64.7719
58.7372
53.1996
48.1239
43.4771
39.2278
35.3467
31.8063
28.5806
25.6452
22.9771
20.5549
18.3583
16.3684
14.5675
12.9391
11.4676
10.1385
8.9383
7.85422
6.87443
5.98782
5.18398
4.45311
3.78601
3.17397
2.60875
2.08248
1.58763
1.11694
0.663364
0.21999
691.239
1574.63
1942.87
2003.85
1918.89
1777.63
1623.11
1473.91
1336.93
1213.81
1104.05
1006.35
919.232
841.308
771.333
708.239
651.123
599.228
551.916
508.651
468.98
432.519
398.942
367.967
339.352
312.887
288.388
265.692
244.658
225.157
207.074
190.308
174.764
160.357
147.009
134.648
123.209
112.628
102.85
93.821
85.4903
77.8116
70.7408
64.2365
58.2599
52.7742
47.745
43.1397
38.9275
35.0798
31.5691
28.37
25.4584
22.8115
20.4083
18.2286
16.2539
14.4666
12.8502
11.3895
10.07
8.87828
7.80184
6.82887
5.94838
5.15001
4.42408
3.76144
3.15346
2.59194
2.0691
1.57746
1.1098
0.659128
0.218587
387.661
999.695
1358.78
1513.24
1537.38
1489.58
1407.03
1310.98
1212.73
1117.88
1028.93
946.727
871.317
802.348
739.315
681.673
628.89
580.475
535.988
495.037
457.279
422.412
390.172
360.327
332.673
307.029
283.236
261.151
240.645
221.604
203.925
187.511
172.277
158.144
145.038
132.892
121.642
111.231
101.603
92.7079
84.4969
76.925
69.9496
63.5307
57.6304
52.2131
47.245
42.6944
38.5312
34.7273
31.2559
28.0918
25.2116
22.5928
20.2146
18.0573
16.1026
14.3331
12.7326
11.2861
9.97927
8.7989
7.73256
6.76862
5.8962
5.10509
4.38568
3.72894
3.12632
2.56972
2.05141
1.564
1.10035
0.653523
0.216729
247.391
677.77
979.408
1153.08
1227.97
1236.52
1204.72
1150.53
1085.45
1016.42
947.449
880.743
817.41
757.926
702.406
650.768
602.826
558.349
517.092
478.811
443.276
410.274
379.608
351.1
324.587
299.923
276.975
255.622
235.753
217.268
200.075
184.089
169.232
155.432
142.62
130.735
119.718
109.513
100.07
91.3384
83.274
75.8331
68.9749
62.6608
56.8544
51.521
46.6282
42.1449
38.0421
34.2922
30.8691
27.7483
24.9067
22.3225
19.9753
17.8456
15.9156
14.1681
12.5873
11.1583
9.86713
8.70073
7.64687
6.69409
5.83166
5.04951
4.33817
3.68873
3.09274
2.54221
2.02952
1.54735
1.08866
0.646586
0.21443
171.545
484.647
728.101
891.863
985.07
1024.05
1025.04
1001.27
962.442
915.25
864.1
811.805
760.099
710.011
662.11
616.682
573.831
533.554
495.782
460.413
427.325
396.39
367.482
340.475
315.251
291.698
269.713
249.196
230.057
212.212
195.58
180.089
165.668
152.254
139.785
128.204
117.457
107.494
98.2655
89.7265
81.8339
74.5466
67.8259
61.635
55.9388
50.7043
45.8999
41.496
37.4642
33.778
30.4119
27.3421
24.5462
22.0029
19.6921
17.5951
15.6942
13.9728
12.4152
11.007
9.73432
8.58446
7.54536
6.60579
5.75519
4.98365
4.28187
3.64107
3.05294
2.50961
2.00357
1.52762
1.0748
0.638363
0.211705
125.705
361.234
556.588
701.336
796.581
849.771
870.37
867.348
848.129
818.395
782.281
742.692
701.615
660.374
619.832
580.529
542.791
506.797
472.628
440.303
409.798
381.066
354.044
328.659
304.836
282.498
261.568
241.974
223.643
206.508
190.501
175.562
161.63
148.649
136.565
125.327
114.886
105.195
96.2096
87.8883
80.1905
73.0777
66.5133
60.4624
54.8918
49.7698
45.0664
40.753
36.8024
33.1888
29.8878
26.8765
24.1328
21.6362
19.3672
17.3076
15.4401
13.7485
12.2176
10.8332
9.58177
8.45087
7.42873
6.50432
5.66729
4.90795
4.21715
3.58628
3.00718
2.47213
1.97373
1.50492
1.05886
0.628906
0.20857
95.7657
278.055
435.78
560.451
650.325
708.3
739.574
749.912
744.65
728.272
704.318
675.478
643.73
610.501
576.796
543.315
510.53
478.753
448.182
418.934
391.07
364.611
339.551
315.866
293.521
272.471
252.669
234.064
216.603
200.234
184.905
170.566
157.167
144.659
132.997
122.135
112.029
102.639
93.9223
85.8416
78.3593
71.4398
65.0487
59.1534
53.7223
48.7256
44.1346
39.9219
36.0618
32.5293
29.3011
26.3548
23.6695
21.2252
19.003
16.9852
15.1551
13.4969
11.9959
10.6381
9.41052
8.30089
7.29776
6.39035
5.56857
4.82291
4.14444
3.52471
2.95576
2.43
1.94019
1.47941
1.04094
0.618277
0.205047
75.0882
219.501
348.123
454.5
536.142
593.741
629.962
648.357
652.604
646.069
631.619
611.576
587.758
561.557
534.015
505.902
477.774
450.032
422.956
396.737
371.501
347.326
324.257
302.311
281.487
261.773
243.146
225.576
209.03
193.471
178.861
165.16
152.33
140.329
129.12
118.662
108.918
99.8517
91.4259
83.6058
76.3574
69.6478
63.4453
57.7192
52.4403
47.5802
43.1119
39.0095
35.2483
31.8046
28.656
25.7812
23.1599
20.7729
18.6021
16.6302
14.8412
13.2198
11.7516
10.4231
9.22172
8.13552
7.15332
6.26465
5.45966
4.72908
4.0642
3.45677
2.89901
2.3835
1.90317
1.45124
1.02116
0.606541
0.201157
60.194
176.794
282.81
373.417
446.173
500.768
538.418
561.227
571.648
572.124
564.885
551.846
534.593
514.402
492.276
468.991
445.14
421.169
397.408
374.102
351.424
329.498
308.406
288.201
268.913
250.555
233.128
216.622
201.021
186.302
172.441
159.408
147.173
135.706
124.973
114.943
105.583
96.8605
88.7438
81.2014
74.2025
67.7174
61.7166
56.1721
51.0563
46.343
42.0066
38.0228
34.3681
31.0201
27.9575
25.1598
22.6076
20.2826
18.1673
16.2451
14.5006
12.9189
11.4863
10.1896
9.01665
7.95584
6.99635
6.12802
5.34126
4.62706
3.97694
3.38288
2.83728
2.33292
1.8629
1.4206
0.999633
0.593772
0.196925
49.1071
144.727
233
310.316
374.536
424.942
461.956
486.758
500.94
506.23
504.313
496.721
484.784
469.623
452.157
433.129
413.125
392.607
371.933
351.376
331.142
311.387
292.224
273.732
255.967
238.964
222.744
207.314
192.672
178.811
165.716
153.37
141.751
130.836
120.599
111.015
102.055
93.6928
85.9002
78.6496
71.9134
65.6648
59.8772
54.5245
49.5815
45.0237
40.8273
36.9694
33.4279
30.1818
27.2106
24.495
22.0165
19.7576
17.7016
15.8325
14.1355
12.5964
11.2018
9.93917
8.79662
7.76302
6.82787
5.98133
5.21412
4.51749
3.88322
3.30349
2.77095
2.27856
1.81962
1.38767
0.9765
0.580047
0.192376
40.6332
120.063
194.241
260.443
316.876
362.71
397.94
423.177
439.422
447.873
449.776
446.324
438.607
427.58
414.055
398.713
382.113
364.707
346.857
328.852
310.917
293.227
275.916
259.084
242.807
227.138
212.113
197.755
184.075
171.077
158.758
147.11
136.118
125.768
116.04
106.913
98.3666
90.3767
82.9198
75.9721
69.5092
63.507
57.9416
52.7894
48.0272
43.6323
39.5827
35.857
32.4346
29.2955
26.4206
23.7915
21.3908
19.2017
17.2082
15.3952
13.7485
12.2543
10.9
9.67338
8.56305
7.55827
6.64894
5.82551
5.07904
4.40106
3.7836
3.21911
2.70043
2.22076
1.77359
1.35265
0.951897
0.56545
0.187537
34.0141
100.706
163.549
220.464
269.979
311.279
344.147
368.849
385.992
396.388
400.941
400.569
396.143
388.457
378.214
366.019
352.385
337.742
322.443
306.775
290.972
275.218
259.662
244.419
229.577
215.204
201.348
188.045
175.317
163.178
151.635
140.686
130.327
120.547
111.335
102.675
94.5492
86.94
79.8274
73.1907
67.0089
61.2608
55.925
50.9801
46.405
42.179
38.2818
34.6936
31.395
28.3674
25.5929
23.0542
20.7346
18.6184
16.6903
14.936
13.3419
11.8949
10.5828
9.39392
8.3174
7.34288
6.46064
5.6615
4.93682
4.27845
3.67868
3.13022
2.62614
2.15987
1.72509
1.31574
0.925969
0.550065
0.182438
28.7491
85.2526
138.874
188.008
231.456
268.471
298.744
322.337
339.596
351.059
357.376
359.237
357.33
352.306
344.758
335.215
324.137
311.918
298.892
285.339
271.489
257.531
243.62
229.878
216.405
203.276
190.551
178.275
166.479
155.186
144.41
134.156
124.427
115.219
106.525
98.3339
90.634
83.4104
76.6471
70.3269
64.4318
58.9431
53.8421
49.1096
44.7266
40.6743
36.9339
33.4872
30.3163
27.4039
24.7331
22.2878
20.0522
18.0115
16.1513
14.4579
12.9184
11.5203
10.2521
9.10249
8.06115
7.11813
6.26411
5.49028
4.78833
4.1504
3.56908
3.03735
2.54852
2.09623
1.6744
1.27716
0.898864
0.533981
0.177106
24.4962
72.7336
118.773
161.361
199.52
232.593
260.24
282.408
299.275
311.186
318.599
322.031
322.017
319.083
313.722
306.388
297.486
287.371
276.352
264.692
252.614
240.304
227.918
215.582
203.4
191.456
179.815
168.529
157.637
147.168
137.143
127.574
118.467
109.826
101.647
93.925
86.6511
79.8146
73.4029
67.4019
61.7964
56.5705
51.7077
47.1911
43.0037
39.1283
35.5479
32.2459
29.2057
26.4112
23.8468
21.4972
19.348
17.3849
15.5944
13.9637
12.4805
11.1329
9.90986
8.80084
7.79582
6.88535
6.06051
5.31284
4.6344
4.01763
3.45543
2.94102
2.46798
2.0302
1.6218
1.23713
0.870733
0.517288
0.171573
21.0155
62.4635
102.209
139.26
172.822
202.323
227.429
248.026
264.181
276.111
284.131
288.622
289.999
288.68
285.072
279.56
272.493
264.188
254.924
244.944
234.459
223.648
212.663
201.631
190.658
179.83
169.219
158.88
148.857
139.185
129.889
120.988
112.492
104.408
96.7378
89.4798
82.629
76.1781
70.1174
64.4358
59.1209
54.1591
49.5362
45.2373
41.2474
37.551
34.1328
30.9775
28.07
25.3954
22.9393
20.6874
18.6261
16.7422
15.0231
13.4565
12.0307
10.7348
9.55816
8.49069
7.52293
6.64586
5.85097
5.13019
4.4759
3.8809
3.33835
2.84177
2.385
1.96214
1.56757
1.19586
0.841732
0.500078
0.165868
18.1342
53.946
88.42
120.766
150.33
176.625
199.337
218.321
233.58
245.237
253.507
258.669
261.039
260.948
258.73
254.704
249.173
242.411
234.669
226.169
217.104
207.646
197.939
188.108
178.257
168.475
158.833
149.391
140.198
131.291
122.699
114.444
106.541
99.0015
91.8299
85.0282
78.5947
72.5249
66.8122
61.4481
56.4225
51.7243
47.3412
43.2605
39.4687
35.9522
32.6972
29.6898
26.9162
24.3627
22.016
19.863
17.8908
16.0873
14.4405
12.939
11.5718
10.3284
9.19892
8.17379
7.24399
6.40098
5.63664
4.9433
4.31369
3.74092
3.21847
2.74013
2.29999
1.89243
1.51202
1.15357
0.812012
0.48244
0.16002
15.7256
46.8147
76.8399
105.164
131.25
154.682
175.175
192.572
206.838
218.033
226.3
231.84
234.892
235.717
234.585
231.762
227.503
222.049
215.618
208.411
200.606
192.36
183.81
175.076
166.261
157.449
148.715
140.12
131.712
123.533
115.614
107.981
100.652
93.6403
86.954
80.5978
74.5729
68.8776
63.5076
58.4569
53.7177
49.2808
45.136
41.2724
37.6782
34.3413
31.2495
28.3902
25.7508
23.319
21.0823
19.0286
17.1463
15.4238
13.85
12.4141
11.1061
9.91584
8.83408
7.85181
6.96048
6.152
5.41866
4.75317
4.14862
3.59844
3.09642
2.63662
2.21341
1.82141
1.45542
1.11047
0.781726
0.464465
0.154062
13.6949
40.7941
67.0381
91.9095
114.964
135.846
154.303
170.18
183.415
194.032
202.119
207.819
211.313
212.805
212.51
210.65
207.439
203.083
197.775
191.692
184.995
177.829
170.322
162.585
154.718
146.803
138.914
131.11
123.442
115.952
108.675
101.636
94.8578
88.3545
82.1375
76.2137
70.5866
65.2568
60.2224
55.4793
51.0217
46.8423
42.9329
39.2841
35.8857
32.7272
29.7977
27.0858
24.5803
22.2698
20.143
18.1889
16.3964
14.7551
13.2545
11.8847
10.636
9.49924
8.46553
7.52642
6.67386
5.9002
5.19813
4.56076
3.98152
3.45417
2.9728
2.53176
2.12569
1.74943
1.39805
1.06679
0.751024
0.446242
0.14802
11.9698
35.674
58.6843
80.5768
100.982
119.599
136.202
150.644
162.854
172.826
180.614
186.316
190.068
192.027
192.368
191.271
188.915
185.477
181.124
176.013
170.287
164.078
157.504
150.669
143.666
136.575
129.466
122.399
115.424
108.584
101.913
95.4396
89.1863
83.1704
77.4048
71.8983
66.6563
61.6814
56.9736
52.5306
48.3485
44.4217
40.7435
37.306
34.1007
31.1183
28.3492
25.7833
23.4105
21.2205
19.2031
17.3479
15.6451
14.0847
12.6572
11.3533
10.164
9.08069
8.09507
7.19922
6.38553
5.64679
4.97613
4.367
3.8132
3.30881
2.84821
2.42606
2.03724
1.67685
1.34019
1.02273
0.720051
0.427858
0.141925
10.4947
31.2918
51.5209
70.8326
88.9183
105.522
120.444
133.551
144.764
154.062
161.473
167.064
170.934
173.206
174.019
173.519
171.856
169.181
165.636
161.36
156.481
151.116
145.373
139.349
133.13
126.792
120.402
114.018
107.688
101.456
95.3558
89.4167
83.6624
78.1112
72.7774
67.6715
62.8004
58.1682
53.7767
49.6251
45.711
42.0305
38.5782
35.3476
32.3317
29.5223
26.911
24.4891
22.2472
20.1763
18.2669
16.5098
14.8957
13.4157
12.0607
10.8224
9.69219
8.66214
7.72446
6.87173
6.09683
5.39297
4.75368
4.17278
3.64443
3.16301
2.72323
2.31999
1.94846
1.60399
1.2821
0.978487
0.688949
0.409395
0.135804
9.22601
27.5197
45.345
62.4121
78.4619
93.2758
106.681
118.552
128.814
137.434
144.422
149.822
153.707
156.171
157.324
157.285
156.179
154.132
151.269
147.709
143.564
138.94
133.935
128.637
123.126
117.474
111.742
105.987
100.256
94.591
89.0257
83.5895
78.3067
73.1963
68.2738
63.5505
59.0348
54.7322
50.6454
46.7753
43.1209
39.6793
36.4467
33.4178
30.5866
27.9464
25.4897
23.2088
21.0956
19.1417
17.3388
15.6783
14.1518
12.7511
11.4679
10.2944
9.22274
8.24546
7.35533
6.54541
5.80904
5.13985
4.53176
3.97897
3.47595
3.01743
2.59839
2.21403
1.85976
1.53117
1.22404
0.934258
0.657853
0.390935
0.129684
8.12929
24.2566
39.9951
55.1029
69.3617
82.5847
94.6209
105.358
114.722
122.676
129.218
134.375
138.199
140.762
142.15
142.461
141.798
140.267
137.974
135.024
131.514
127.539
123.187
118.537
113.663
108.632
103.501
98.3239
93.1459
88.0067
82.9402
77.9753
73.1361
68.4422
63.9094
59.5501
55.3735
51.3861
47.5917
43.9924
40.5882
37.3775
34.3575
31.5242
28.8727
26.3971
24.0911
21.948
19.9605
18.1212
16.4225
14.8568
13.4164
12.0937
10.8812
9.77156
8.75761
7.83241
6.98924
6.22163
5.52337
4.88849
4.3113
3.78636
3.30847
2.87267
2.47422
2.1086
1.77148
1.45869
1.16623
0.890223
0.62689
0.372553
0.123589
7.17695
21.4213
35.3411
48.7331
61.4128
73.2204
84.0241
93.7233
102.248
109.561
115.649
120.529
124.238
126.828
128.369
128.94
128.625
127.515
125.698
123.266
120.303
116.894
113.117
109.043
104.741
100.27
95.686
91.0376
86.3681
81.7155
77.1127
72.5876
68.1641
63.8619
59.6971
55.6826
51.8281
48.1409
44.6259
41.2859
38.1219
35.1334
32.3184
29.674
27.1962
24.8802
22.7205
20.7113
18.8462
17.1186
15.5218
14.0487
12.6925
11.4461
10.3029
9.2559
8.29861
7.42459
6.62761
5.90165
5.24093
4.63987
4.09317
3.59572
3.14264
2.72929
2.3512
2.00413
1.68399
1.38684
1.10892
0.846556
0.596184
0.354322
0.117544
6.34668
18.9482
31.2771
43.1623
54.4471
64.9943
74.6892
83.442
91.1884
97.8891
103.529
108.113
111.668
114.233
115.863
116.621
116.577
115.806
114.385
112.39
109.898
106.981
103.708
100.146
96.3541
92.3884
88.2996
84.1333
79.9301
75.726
71.5523
67.4362
63.4009
59.4658
55.6471
51.9577
48.4081
45.0059
41.7567
38.6641
35.7297
32.954
30.3359
27.8732
25.5628
23.4008
21.3826
19.5031
17.7566
16.1375
14.6396
13.2567
11.9825
10.8107
9.73501
8.74928
7.84742
7.02351
6.27178
5.58665
4.96276
4.39492
3.87816
3.40774
2.97908
2.58782
2.22979
1.901
1.59759
1.31588
1.05231
0.803417
0.565845
0.336308
0.111571
5.6203
16.7835
27.7168
38.2752
48.3253
57.7492
66.447
74.3389
81.366
87.49
92.6927
96.9739
100.35
102.852
104.52
105.407
105.57
105.072
103.977
102.351
100.261
97.7706
94.9407
91.8301
88.4934
84.9812
81.34
77.6119
73.8349
70.0427
66.265
62.5279
58.8537
55.2614
51.7669
48.3834
45.1211
41.9884
38.9912
36.1336
33.418
30.8455
28.4156
26.1271
23.9774
21.9635
20.0815
18.327
16.6953
15.181
13.7789
12.4834
11.2888
10.1894
9.17951
8.2534
7.40555
6.6305
5.92293
5.2777
4.68981
4.15445
3.66702
3.22306
2.81833
2.44875
2.11041
1.79956
1.5126
1.24606
0.996594
0.760955
0.53598
0.318574
0.10569
4.98286
14.883
24.5885
33.9759
42.9314
51.3533
59.1547
66.2649
72.6302
78.2144
82.9976
86.9756
90.1585
92.5682
94.2375
95.2073
95.525
95.2428
94.4158
93.1006
91.354
89.2321
86.7891
84.077
81.1451
78.039
74.8011
71.4703
68.0816
64.6667
61.2534
57.8664
54.5271
51.2539
48.0623
44.9651
41.973
39.0942
36.335
33.6999
31.192
28.8126
26.5622
24.4399
22.444
20.572
18.8208
17.1865
15.665
14.2519
12.9423
11.7312
10.6136
9.58425
8.63804
7.76977
6.97435
6.24678
5.58216
4.97575
4.42292
3.91924
3.4604
3.04228
2.66092
2.31252
1.99343
1.70013
1.42927
1.17759
0.941953
0.719306
0.506684
0.301176
0.0999207
4.42195
13.2101
21.8328
30.1846
38.1682
45.6956
52.6912
59.0925
64.8511
69.9327
74.3173
77.998
80.9798
83.2787
84.9199
85.9363
86.3666
86.2544
85.6462
84.5904
83.1361
81.3323
79.2267
76.8655
74.2925
71.5492
68.6741
65.7025
62.6669
59.5965
56.5174
53.453
50.4234
47.4462
44.5365
41.7069
38.9677
36.3273
33.7922
31.3672
29.0557
26.8595
24.7795
22.8154
20.9661
19.2296
17.6033
16.0841
14.6685
13.3524
12.1317
11.0019
9.95846
8.99675
8.11206
7.29969
6.555
5.8734
5.25041
4.68165
4.16286
3.68993
3.25889
2.86591
2.5073
2.17952
1.87919
1.60302
1.34786
1.11068
0.888546
0.678593
0.478042
0.284167
0.0942798
3.92722
11.7341
19.3998
26.8342
33.9535
40.6818
46.9532
52.7124
57.9159
62.5321
66.541
69.934
72.7128
74.8886
76.4807
77.5153
78.0242
78.0436
77.6128
76.7732
75.5671
74.0371
72.2251
70.172
67.917
65.4972
62.9474
60.2999
57.5844
54.8279
52.0548
49.2866
46.5425
43.8394
41.1914
38.6108
36.1078
33.6907
31.3659
29.1386
27.0122
24.989
23.0704
21.2563
19.5462
17.9387
16.4315
15.0222
13.7077
12.4845
11.349
10.2972
9.32501
8.42831
7.60282
6.84431
6.14853
5.5113
4.92852
4.39615
3.91029
3.46714
3.06302
2.6944
2.35786
2.05011
1.76799
1.50846
1.26858
1.04551
0.836517
0.638924
0.450133
0.26759
0.0887826
3.48996
10.4292
17.2476
23.8678
30.2178
36.2318
41.8522
47.0303
51.7272
55.9137
59.5707
62.6886
65.2666
67.3122
68.8401
69.8712
70.4315
70.5511
70.2632
69.6029
68.6069
67.312
65.7551
63.9722
61.9982
59.8662
57.6077
55.252
52.8262
50.355
47.861
45.3643
42.8829
40.4326
38.0269
35.6776
33.3945
31.1858
29.0578
27.0158
25.0635
23.2034
21.437
19.7648
18.1866
16.7013
15.3073
14.0026
12.7844
11.6498
10.5957
9.61843
8.71448
7.88007
7.11138
6.40458
5.75581
5.16127
4.61719
4.11989
3.66578
3.25136
2.87325
2.52817
2.21297
1.92459
1.66011
1.4167
1.19162
0.982236
0.785991
0.600397
0.423023
0.251488
0.0834423
3.1028
9.27352
15.3405
21.2373
26.9017
32.2767
37.312
41.9647
46.2
49.9913
53.3204
56.1772
58.5595
60.4719
61.9254
62.9366
63.5267
63.7209
63.5469
63.0348
62.216
61.1227
59.787
58.2406
56.5144
54.6382
52.6401
50.5465
48.3822
46.1698
43.9301
41.6817
39.4412
37.2236
35.0417
32.9065
30.8276
28.8129
26.8687
25
23.2108
21.5038
19.8806
18.3421
16.8884
15.5188
14.2321
13.0265
11.8998
10.8496
9.87286
8.9667
8.12785
7.35296
6.63859
5.98129
5.37756
4.82394
4.31701
3.85339
3.4298
3.04302
2.68994
2.36754
2.07291
1.80322
1.55576
1.32792
1.11714
0.920989
0.737078
0.563093
0.396772
0.235894
0.0782705
2.75947
8.24844
13.6481
18.9014
23.9543
28.7574
33.2668
37.4447
41.26
44.6887
47.7136
50.3247
52.5185
54.2976
55.6702
56.6494
57.2525
57.5002
57.4162
57.0259
56.3564
55.4355
54.2912
52.9515
51.4437
49.7943
48.0284
46.17
44.2414
42.2633
40.2547
38.2327
36.2129
34.209
32.2331
30.2958
28.406
26.5714
24.7981
23.0912
21.4545
19.8908
18.402
16.9893
15.6528
14.3922
13.2068
12.0949
11.0549
10.0845
9.18141
8.34281
7.5659
6.84769
6.18511
5.57505
5.01434
4.49985
4.02846
3.59709
3.20275
2.84247
2.51342
2.2128
1.93793
1.68622
1.45514
1.24228
1.04529
0.861885
0.689867
0.527083
0.371428
0.220838
0.0732769
2.45462
7.33803
12.1445
16.8246
21.3317
25.6228
29.6596
33.4087
36.8425
39.9392
42.6829
45.0639
47.0779
48.7259
50.0141
50.9526
51.5555
51.8401
51.8262
51.5355
50.9912
50.2174
49.2386
48.0793
46.7636
45.315
43.756
42.1082
40.3917
38.6253
36.8263
35.0104
33.1921
31.384
29.5976
27.8426
26.1276
24.4598
22.8452
21.2887
19.7941
18.3643
17.0013
15.7063
14.4799
13.3219
12.2318
11.2084
10.2502
9.3554
8.52188
7.7473
7.02915
6.36478
5.75143
5.18631
4.66658
4.18938
3.7519
3.35133
2.98492
2.65
2.34393
2.06416
1.80824
1.57375
1.35839
1.15992
0.976163
0.805016
0.644434
0.492423
0.347032
0.206345
0.0684696
2.18364
6.52861
10.8071
14.9764
18.9961
22.8287
26.4407
29.8027
32.8903
35.6837
38.1684
40.335
42.1787
43.6996
44.902
45.7938
46.3866
46.6946
46.7344
46.5247
46.0852
45.4367
44.6007
43.5986
42.4516
41.1806
39.8058
38.3462
36.8202
35.2447
33.6355
32.0069
30.3723
28.7433
27.1305
25.5432
23.9892
22.4756
21.0079
19.591
18.2286
16.9236
15.678
14.4931
13.3697
12.3079
11.3073
10.3671
9.48594
8.66238
7.89458
7.18051
6.51795
5.90455
5.33787
4.8154
4.33457
3.89282
3.48759
3.11633
2.77655
2.46579
2.18165
1.9218
1.68397
1.46596
1.26564
1.08094
0.909857
0.750453
0.600835
0.459158
0.323615
0.192432
0.0638547
1.94254
5.80831
9.61659
13.3303
16.9145
20.3364
23.5666
26.5795
29.3532
31.8701
34.1168
36.0843
37.768
39.1668
40.2839
41.1253
41.7005
42.0211
42.1014
41.9569
41.6047
41.0628
40.3499
39.4845
38.4856
37.3715
36.1602
34.8688
33.5136
32.11
30.6723
29.2137
27.7462
26.2806
24.8268
23.3932
21.9874
20.6159
19.284
17.9963
16.7565
15.5674
14.431
13.3489
12.3217
11.3499
10.4331
9.57088
8.7621
8.00552
7.29958
6.64253
6.03241
5.46716
4.94459
4.46246
4.01848
3.61033
3.23569
2.89227
2.57778
2.29
2.02673
1.78583
1.56524
1.36294
1.17696
1.0054
0.846432
0.698251
0.559115
0.427322
0.301202
0.179114
0.0594371
1.72786
5.16687
8.55607
11.8633
15.0581
18.1121
20.9994
23.6975
26.187
28.452
30.4806
32.2641
33.7979
35.0806
36.1141
36.9031
37.4552
37.7802
37.8899
37.7976
37.518
37.0666
36.4595
35.7131
34.8439
33.8682
32.802
31.6604
30.4583
29.2093
27.9264
26.6216
25.3058
23.9892
22.6804
21.3877
20.1179
18.877
17.6703
16.502
15.3756
14.294
13.2591
12.2724
11.335
10.4471
9.60866
8.81935
8.07835
7.38459
6.73673
6.13327
5.5725
5.05258
4.5716
4.12755
3.71837
3.34198
2.99628
2.67921
2.38869
2.12269
1.87922
1.65633
1.45212
1.26474
1.09241
0.933368
0.785929
0.648443
0.519301
0.396936
0.279807
0.1664
0.0552197
1.53661
4.59533
7.61084
10.5552
13.402
16.1263
18.7056
21.12
23.3523
25.3885
27.2174
28.8314
30.2257
31.3986
32.3511
33.0871
33.6124
33.9353
34.0656
34.0147
33.7951
33.4202
32.904
32.2609
31.5053
30.6516
29.7139
28.7058
27.6405
26.5303
25.3869
24.2212
23.043
21.8617
20.6853
19.5212
18.3759
17.2551
16.1635
15.1052
14.0836
13.1013
12.1604
11.2624
10.4082
9.59843
8.83306
8.11183
7.43416
6.79915
6.20569
5.65247
5.138
4.66068
4.21881
3.81058
3.43418
3.08773
2.76934
2.47715
2.20927
1.96387
1.73914
1.5333
1.34461
1.1714
1.01201
0.864851
0.728368
0.601046
0.481409
0.368012
0.259439
0.154296
0.0512044
1.36614
4.08585
6.76802
9.38842
11.9239
14.3529
16.6556
18.8145
20.8144
22.6428
24.2896
25.7478
27.0126
28.0823
28.9574
29.6405
30.1366
30.4524
30.5962
30.5777
30.4075
30.0973
29.6592
29.1056
28.4494
27.7031
26.8792
25.9898
25.0467
24.0609
23.043
22.0028
20.9492
19.8907
18.8347
17.788
16.7566
15.7456
14.7597
13.8026
12.8774
11.9869
11.1329
10.317
9.54005
8.80276
8.10527
7.44742
6.82877
6.24858
5.70593
5.19969
4.72857
4.29117
3.88596
3.51138
3.16577
2.84747
2.55479
2.28602
2.03949
1.81353
1.60648
1.41674
1.24272
1.0829
0.935761
0.799853
0.673749
0.556063
0.445439
0.340552
0.2401
0.142802
0.0473915
1.21416
3.63155
6.01633
8.34738
10.6046
12.769
14.8234
16.7524
18.5424
20.1823
21.6632
22.9785
24.1238
25.097
25.8984
26.5298
26.9954
27.3005
27.4521
27.4586
27.3289
27.0732
26.7019
26.2259
25.6564
25.0046
24.2813
23.4974
22.6633
21.789
20.8838
19.9567
19.0157
18.0685
17.1219
16.182
15.2544
14.344
13.4548
12.5906
11.7542
10.9481
10.1742
9.4341
8.72866
8.05854
7.42401
6.82502
6.26124
5.7321
5.2368
4.77438
4.34374
3.94364
3.57274
3.22965
2.91291
2.62102
2.35246
2.1057
1.87924
1.67155
1.48115
1.30658
1.1464
0.999204
0.863634
0.738351
0.622056
0.51348
0.411382
0.314548
0.221785
0.131917
0.0437801
1.07864
3.2264
5.34579
7.41845
9.42679
11.3543
13.1859
14.908
16.5087
17.978
19.308
20.4925
21.5276
22.4112
23.1429
23.7244
24.1588
24.4506
24.6056
24.6309
24.5343
24.3244
24.0103
23.6015
23.1077
22.5388
21.9044
21.2142
20.4772
19.7025
18.8985
18.0731
17.2337
16.3872
15.5397
14.697
13.864
13.0453
12.2446
11.4654
10.7104
9.98197
9.28189
8.61161
7.97213
7.36409
6.78784
6.24338
5.73051
5.24876
4.79748
4.37585
3.98291
3.61759
3.27872
2.96505
2.67529
2.4081
2.16213
1.936
1.72836
1.53782
1.36306
1.20274
1.05557
0.920258
0.795576
0.680304
0.573255
0.473271
0.379219
0.289987
0.204484
0.121633
0.0403682
0.957777
2.86505
4.74764
6.58952
8.37539
10.0908
11.7226
13.2587
14.6887
16.0037
17.1966
18.2619
19.1958
19.9962
20.6626
21.1963
21.5995
21.8762
22.0312
22.0704
22.0005
21.829
21.5637
21.213
20.7853
20.2892
19.7332
19.126
18.4755
17.7898
17.0764
16.3425
15.5946
14.839
14.0814
13.3267
12.5798
11.8445
11.1247
10.4232
9.74271
9.08545
8.45313
7.84711
7.26837
6.7176
6.19515
5.70111
5.23535
4.79752
4.38706
4.00331
3.64541
3.31245
3.00338
2.71713
2.45253
2.20841
1.98353
1.77669
1.58665
1.41217
1.25206
1.1051
0.970125
0.845974
0.731519
0.625654
0.527299
0.435399
0.348919
0.266846
0.188181
0.111941
0.0371528
0.849998
2.54279
4.21407
5.84991
7.43693
8.96254
10.4151
11.7842
13.0604
14.2361
15.3047
16.2613
17.1024
17.8261
18.4316
18.9197
19.2924
19.5529
19.7051
19.7542
19.7059
19.5665
19.3429
19.0423
18.6721
18.2398
17.7531
17.2193
16.6457
16.0394
15.4072
14.7553
14.0898
13.4162
12.7397
12.0648
11.3959
10.7367
10.0903
9.45979
8.84745
8.25535
7.68513
7.13809
6.61519
6.11711
5.64423
5.19671
4.77446
4.37722
4.00455
3.65587
3.33047
3.02753
2.74616
2.4854
2.24421
2.02156
1.81635
1.62749
1.45387
1.2944
1.14797
1.01351
0.889951
0.776247
0.671373
0.574327
0.484128
0.399814
0.320444
0.245095
0.172856
0.102831
0.03413
0.753897
2.25541
3.7382
5.1901
6.59944
7.95521
9.24725
10.4663
11.6043
12.6542
13.6103
14.4681
15.2244
15.8774
16.4262
16.8715
17.2146
17.4582
17.6057
17.6614
17.6303
17.5176
17.3295
17.0721
16.752
16.3757
15.9499
15.4811
14.9759
14.4403
13.8806
13.3022
12.7107
12.111
11.5077
10.9051
10.3069
9.71655
9.13711
8.57117
8.02096
7.48838
6.97497
6.48196
6.01028
5.56059
5.1333
4.72858
4.34643
3.98664
3.64886
3.33261
3.03726
2.76213
2.50643
2.2693
2.04985
1.84715
1.66022
1.48809
1.32977
1.18427
1.0506
0.9278
0.814898
0.710952
0.615035
0.526237
0.443669
0.366458
0.293749
0.2247
0.158485
0.0942869
0.031295
0.668227
1.99921
3.31388
4.60162
5.85226
7.05617
8.20444
9.28898
10.3026
11.2392
12.0935
12.8617
13.5407
14.1288
14.6252
15.0302
15.3449
15.5715
15.7129
15.7726
15.755
15.6646
15.5066
15.2866
15.01
14.6827
14.3105
13.8992
13.4545
12.9819
12.4868
11.9743
11.4492
10.9159
10.3786
9.84116
9.30695
8.77911
8.26039
7.75317
7.25954
6.78123
6.3197
5.87609
5.45129
5.04595
4.66048
4.29509
3.94981
3.62449
3.31886
3.03251
2.76491
2.51547
2.2835
2.06825
1.86893
1.68472
1.51475
1.35815
1.21404
1.08152
0.959731
0.84778
0.744805
0.649954
0.562388
0.481287
0.405843
0.335266
0.26878
0.205623
0.145041
0.0862933
0.0286426
0.591879
1.77087
2.93564
4.07695
5.1859
6.25408
7.2737
8.23764
9.13959
9.9741
10.7366
11.4235
12.0322
12.561
13.009
13.3763
13.664
13.8738
14.008
14.0698
14.0627
13.9907
13.8584
13.6704
13.4316
13.1471
12.8221
12.4615
12.0705
11.654
11.2166
10.763
10.2973
9.82368
9.34579
8.86707
8.39065
7.91933
7.45562
7.00171
6.55949
6.13059
5.71632
5.31779
4.93583
4.57105
4.22388
3.89454
3.58309
3.28944
3.01337
2.75453
2.5125
2.28674
2.07667
1.88162
1.70091
1.5338
1.37952
1.2373
1.10636
0.985895
0.875119
0.773245
0.679495
0.593099
0.513304
0.439367
0.370559
0.306165
0.245482
0.187818
0.132493
0.0788318
0.0261667
0.523864
1.56744
2.59862
3.60935
4.59186
5.53881
6.44337
7.2993
8.10104
8.84379
9.5235
10.1369
10.6817
11.1563
11.5598
11.8922
12.1544
12.3477
12.4741
12.5363
12.5373
12.4805
12.3699
12.2095
12.0035
11.7565
11.4729
11.1571
10.8137
10.4469
10.0609
9.65978
9.24736
8.82721
8.40269
7.97686
7.55255
7.13228
6.71835
6.31272
5.91716
5.53313
5.16187
4.80439
4.46148
4.13374
3.82157
3.52521
3.24475
2.98013
2.73117
2.49761
2.27908
2.07511
1.88519
1.70876
1.54521
1.39387
1.25409
1.12517
1.0064
0.897087
0.796513
0.703977
0.618779
0.540229
0.467646
0.400363
0.337722
0.279076
0.223791
0.17124
0.120808
0.0718831
0.0238609
0.463299
1.38628
2.29846
3.1928
4.06255
4.90128
5.70301
6.46228
7.1742
7.83452
8.43966
8.98674
9.4736
9.89877
10.2615
10.5617
10.7999
10.9773
11.0956
11.1569
11.164
11.1197
11.0274
10.8907
10.7133
10.4989
10.2517
9.97537
9.67397
9.35129
9.01104
8.65679
8.29195
7.91972
7.54307
7.16479
6.78739
6.41317
6.04419
5.68224
5.32893
4.98559
4.65338
4.33323
4.02587
3.73188
3.45163
3.18539
2.93324
2.69518
2.47106
2.26067
2.06368
1.87971
1.70832
1.54901
1.40124
1.26444
1.13801
1.02135
0.913818
0.814796
0.72365
0.639746
0.56246
0.491172
0.42527
0.364154
0.307231
0.253918
0.203642
0.155839
0.109951
0.0654265
0.0217182
0.409395
1.22503
2.03126
2.82194
3.59118
4.33337
5.04327
5.71611
6.34758
6.93394
7.47203
7.95927
8.39371
8.77402
9.09947
9.36992
9.58577
9.74798
9.85796
9.91758
9.92907
9.89501
9.81824
9.70185
9.54908
9.36328
9.14789
8.90636
8.64212
8.35855
8.05893
7.74642
7.42405
7.09466
6.76093
6.42532
6.0901
5.75734
5.42889
5.10639
4.79128
4.48479
4.18798
3.90169
3.62663
3.36333
3.11215
2.87335
2.64704
2.43322
2.2318
2.04259
1.86533
1.69969
1.54529
1.40168
1.26841
1.14496
1.03081
0.925428
0.828248
0.738712
0.656256
0.580317
0.510334
0.445754
0.386027
0.330613
0.27898
0.230603
0.184967
0.141562
0.0998859
0.0594403
0.0197316
0.361445
1.08159
1.79353