/*--------------------------------*- C++ -*----------------------------------*\
  =========                 |
  \\      /  F ield         | OpenFOAM: The Open Source CFD Toolbox
   \\    /   O peration     | Website:  https://openfoam.org
    \\  /    A nd           | Version:  10
     \\/     M anipulation  |
\*---------------------------------------------------------------------------*/
FoamFile
{
    format      ascii;
    class       volScalarField;
    location    "327";
    object      T;
}
// * * * * * * * * * * * * * * * * * * * * * * * * * * * * * * * * * * * * * //

dimensions      [0 0 0 1 0 0 0];

internalField   nonuniform List<scalar> 
11250
(
249.837
167.542
139.336
126.913
120.131
115.828
112.818
110.574
108.825
107.422
106.27
105.31
104.501
103.814
103.228
102.727
102.297
101.93
101.615
101.347
101.118
100.925
100.761
100.624
100.508
100.412
100.333
100.267
100.213
100.169
100.134
100.105
100.082
100.064
100.049
100.038
100.029
100.022
100.016
100.012
100.009
100.007
100.005
100.004
100.003
100.002
100.001
100.001
100.001
100
100
100
100
100
100
100
100
100
100
100
100
100
100
100
100
100
100
100
100
100
100
100
100
100
100
331.485
248.544
202.237
175.11
157.933
146.214
137.715
131.252
126.161
122.044
118.65
115.811
113.413
111.373
109.631
108.138
106.859
105.763
104.825
104.024
103.342
102.764
102.275
101.864
101.52
101.233
100.995
100.799
100.638
100.506
100.4
100.314
100.245
100.19
100.147
100.113
100.086
100.065
100.049
100.037
100.028
100.02
100.015
100.011
100.008
100.006
100.004
100.003
100.002
100.001
100.001
100.001
100.001
100
100
100
100
100
100
100
100
100
100
100
100
100
100
100
100
100
100
100
100
100
100
359.049
292.931
245.991
213.403
190.333
173.447
160.648
150.64
142.611
136.037
130.569
125.968
122.064
118.731
115.877
113.427
111.324
109.519
107.974
106.653
105.528
104.572
103.765
103.085
102.516
102.041
101.647
101.323
101.056
100.839
100.662
100.52
100.406
100.316
100.244
100.187
100.143
100.108
100.082
100.061
100.046
100.034
100.025
100.018
100.013
100.01
100.007
100.005
100.004
100.002
100.002
100.001
100.001
100.001
100
100
100
100
100
100
100
100
100
100
100
100
100
100
100
100
100
100
100
100
100
370.843
318.17
275.449
242.249
216.643
196.702
180.914
168.186
157.752
149.077
141.78
135.59
130.304
125.771
121.874
118.52
115.634
113.153
111.024
109.203
107.65
106.331
105.215
104.275
103.487
102.829
102.284
101.834
101.465
101.164
100.919
100.722
100.564
100.438
100.338
100.26
100.198
100.15
100.113
100.085
100.063
100.047
100.035
100.025
100.018
100.013
100.01
100.007
100.005
100.003
100.002
100.002
100.001
100.001
100.001
100
100
100
100
100
100
100
100
100
100
100
100
100
100
100
100
100
100
100
100
377.008
333.505
295.461
263.604
237.415
215.957
198.292
183.627
171.338
160.951
152.106
144.531
138.016
132.397
127.545
123.354
119.738
116.622
113.944
111.649
109.689
108.023
106.611
105.422
104.424
103.591
102.9
102.329
101.861
101.478
101.168
100.918
100.717
100.557
100.43
100.33
100.252
100.191
100.144
100.108
100.081
100.06
100.044
100.032
100.023
100.017
100.012
100.009
100.006
100.004
100.003
100.002
100.001
100.001
100.001
100
100
100
100
100
100
100
100
100
100
100
100
100
100
100
100
100
100
100
100
380.714
343.436
309.382
279.421
253.618
231.613
212.89
196.933
183.282
171.555
161.444
152.698
145.117
138.539
132.83
127.88
123.595
119.893
116.704
113.967
111.626
109.632
107.942
106.516
105.319
104.32
103.489
102.804
102.24
101.78
101.407
101.106
100.864
100.671
100.518
100.398
100.304
100.231
100.174
100.131
100.097
100.072
100.053
100.039
100.028
100.021
100.015
100.011
100.007
100.005
100.004
100.003
100.002
100.001
100.001
100.001
100
100
100
100
100
100
100
100
100
100
100
100
100
100
100
100
100
100
100
383.149
350.215
319.326
291.238
266.223
244.219
224.988
208.223
193.614
180.874
169.755
160.044
151.56
144.152
137.69
132.064
127.175
122.941
119.284
116.139
113.445
111.148
109.198
107.551
106.167
105.01
104.049
103.254
102.601
102.068
101.634
101.285
101.004
100.78
100.603
100.463
100.353
100.268
100.202
100.152
100.113
100.084
100.062
100.045
100.033
100.024
100.017
100.012
100.009
100.006
100.004
100.003
100.002
100.001
100.001
100.001
100
100
100
100
100
100
100
100
100
100
100
100
100
100
100
100
100
100
100
384.844
355.031
326.602
300.167
276.048
254.326
234.929
217.698
202.441
188.956
177.055
166.565
157.331
149.218
142.104
135.884
130.46
125.748
121.67
118.154
115.137
112.56
110.37
108.518
106.961
105.658
104.574
103.678
102.941
102.339
101.849
101.454
101.136
100.883
100.682
100.524
100.4
100.304
100.229
100.172
100.128
100.095
100.07
100.051
100.037
100.027
100.019
100.014
100.01
100.007
100.005
100.003
100.002
100.002
100.001
100.001
100.001
100
100
100
100
100
100
100
100
100
100
100
100
100
100
100
100
100
100
386.069
358.557
332.035
306.992
283.737
262.417
243.054
225.587
209.91
195.891
183.394
172.286
162.439
153.736
146.067
139.333
133.441
128.307
123.851
120.003
116.694
113.863
111.454
109.415
107.698
106.26
105.064
104.073
103.258
102.592
102.05
101.612
101.261
100.98
100.757
100.582
100.444
100.338
100.255
100.191
100.143
100.106
100.078
100.057
100.042
100.03
100.022
100.015
100.011
100.008
100.005
100.004
100.003
100.002
100.001
100.001
100.001
100
100
100
100
100
100
100
100
100
100
100
100
100
100
100
100
100
100
386.98
361.198
336.16
312.261
289.784
268.897
249.675
232.118
216.182
201.788
188.846
177.255
166.914
157.724
149.588
142.415
136.118
130.614
125.827
121.683
118.113
115.054
112.448
110.238
108.376
106.816
105.515
104.439
103.552
102.826
102.236
101.759
101.376
101.07
100.827
100.636
100.486
100.369
100.278
100.209
100.156
100.116
100.085
100.062
100.045
100.033
100.024
100.017
100.012
100.009
100.006
100.004
100.003
100.002
100.001
100.001
100.001
100
100
100
100
100
100
100
100
100
100
100
100
100
100
100
100
100
100
387.669
363.209
339.331
316.364
294.56
274.091
255.058
237.502
221.417
206.768
193.497
181.533
170.798
161.21
152.685
145.142
138.498
132.676
127.599
123.194
119.394
116.133
113.349
110.987
108.994
107.323
105.929
104.773
103.821
103.042
102.408
101.895
101.482
101.153
100.891
100.685
100.524
100.398
100.3
100.225
100.168
100.125
100.092
100.067
100.049
100.036
100.026
100.018
100.013
100.009
100.006
100.005
100.003
100.002
100.001
100.001
100.001
100
100
100
100
100
100
100
100
100
100
100
100
100
100
100
100
100
100
388.199
364.759
341.795
319.583
298.348
278.26
259.431
241.925
225.766
210.946
197.436
185.187
174.141
164.231
155.387
147.533
140.596
134.5
129.173
124.543
120.54
117.1
114.16
111.663
109.553
107.782
106.303
105.077
104.066
103.238
102.564
102.018
101.579
101.229
100.95
100.731
100.559
100.424
100.32
100.241
100.18
100.133
100.098
100.072
100.052
100.038
100.027
100.02
100.014
100.01
100.007
100.005
100.003
100.002
100.002
100.001
100.001
100
100
100
100
100
100
100
100
100
100
100
100
100
100
100
100
100
100
388.61
365.966
343.723
322.12
301.361
281.608
262.977
245.548
229.362
214.433
200.751
188.286
176.996
166.829
157.722
149.612
142.428
136.101
130.56
125.734
121.557
117.961
114.883
112.266
110.053
108.194
106.64
105.351
104.288
103.416
102.705
102.13
101.668
101.298
101.004
100.772
100.59
100.449
100.339
100.254
100.19
100.141
100.104
100.076
100.055
100.04
100.029
100.021
100.015
100.01
100.007
100.005
100.004
100.002
100.002
100.001
100.001
100.001
100
100
100
100
100
100
100
100
100
100
100
100
100
100
100
100
100
388.931
366.911
345.24
324.129
303.764
284.298
265.851
248.509
232.325
217.329
203.524
190.897
179.418
169.045
159.726
151.404
144.016
137.494
131.771
126.779
122.45
118.719
115.523
112.801
110.498
108.56
106.941
105.596
104.485
103.575
102.832
102.231
101.747
101.36
101.052
100.809
100.619
100.47
100.355
100.267
100.199
100.148
100.109
100.08
100.058
100.042
100.03
100.022
100.015
100.011
100.008
100.005
100.004
100.003
100.002
100.001
100.001
100.001
100
100
100
100
100
100
100
100
100
100
100
100
100
100
100
100
100
389.184
367.656
346.439
325.724
305.683
286.461
268.178
250.922
234.758
219.723
205.833
193.085
181.459
170.923
161.434
152.939
145.38
138.696
132.82
127.687
123.23
119.383
116.084
113.272
110.889
108.884
107.207
105.813
104.661
103.716
102.945
102.32
101.818
101.415
101.095
100.843
100.645
100.49
100.37
100.278
100.208
100.154
100.114
100.083
100.061
100.044
100.032
100.023
100.016
100.011
100.008
100.006
100.004
100.003
100.002
100.001
100.001
100.001
100
100
100
100
100
100
100
100
100
100
100
100
100
100
100
100
100
389.383
368.244
347.389
326.992
307.216
288.198
270.057
252.885
236.749
221.694
207.745
194.907
183.168
172.504
162.878
154.243
146.545
139.726
133.723
128.47
123.904
119.959
116.572
113.682
111.232
109.168
107.44
106.003
104.816
103.84
103.045
102.4
101.88
101.464
101.134
100.872
100.667
100.507
100.384
100.288
100.215
100.16
100.118
100.086
100.063
100.046
100.033
100.023
100.017
100.012
100.008
100.006
100.004
100.003
100.002
100.001
100.001
100.001
100
100
100
100
100
100
100
100
100
100
100
100
100
100
100
100
100
389.541
368.71
348.142
328.002
308.44
289.593
271.574
254.477
238.372
223.31
209.321
196.417
184.592
173.827
164.092
155.343
147.532
140.602
134.493
129.141
124.483
120.455
116.993
114.037
111.529
109.414
107.643
106.17
104.951
103.95
103.132
102.469
101.935
101.508
101.167
100.899
100.688
100.523
100.395
100.297
100.222
100.165
100.121
100.089
100.065
100.047
100.034
100.024
100.017
100.012
100.009
100.006
100.004
100.003
100.002
100.001
100.001
100.001
100
100
100
100
100
100
100
100
100
100
100
100
100
100
100
100
100
389.665
369.079
348.74
328.805
309.419
290.711
272.795
255.764
239.691
224.63
210.614
197.661
185.771
174.928
165.106
156.266
148.363
141.342
135.145
129.711
124.977
120.879
117.354
114.342
111.784
109.627
107.819
106.313
105.068
104.044
103.208
102.53
101.983
101.545
101.197
100.921
100.705
100.536
100.406
100.305
100.228
100.169
100.125
100.091
100.067
100.048
100.035
100.025
100.018
100.013
100.009
100.006
100.004
100.003
100.002
100.001
100.001
100.001
100
100
100
100
100
100
100
100
100
100
100
100
100
100
100
100
100
389.764
369.372
349.215
329.444
310.199
291.606
273.776
256.803
240.76
225.703
211.67
198.682
186.741
175.838
165.947
157.035
149.057
141.962
135.694
130.192
125.395
121.238
117.661
114.602
112.003
109.809
107.97
106.437
105.169
104.126
103.274
102.582
102.025
101.578
101.222
100.941
100.72
100.548
100.414
100.312
100.233
100.173
100.128
100.094
100.068
100.049
100.036
100.025
100.018
100.013
100.009
100.006
100.004
100.003
100.002
100.001
100.001
100.001
100
100
100
100
100
100
100
100
100
100
100
100
100
100
100
100
100
389.842
369.603
349.592
329.952
310.821
292.321
274.563
257.638
241.622
226.572
212.529
199.515
187.537
176.586
166.641
157.671
149.634
142.479
136.153
130.595
125.746
121.541
117.92
114.821
112.188
109.964
108.098
106.542
105.255
104.195
103.33
102.627
102.06
101.606
101.244
100.958
100.734
100.558
100.422
100.317
100.237
100.176
100.13
100.095
100.07
100.05
100.036
100.026
100.018
100.013
100.009
100.006
100.004
100.003
100.002
100.001
100.001
100.001
100
100
100
100
100
100
100
100
100
100
100
100
100
100
100
100
100
389.904
369.787
349.89
330.355
311.315
292.891
275.191
258.307
242.315
227.274
213.224
200.192
188.185
177.197
167.211
158.195
150.11
142.907
136.534
130.931
126.039
121.795
118.137
115.006
112.344
110.094
108.206
106.632
105.328
104.255
103.378
102.665
102.091
101.63
101.263
100.973
100.745
100.567
100.429
100.322
100.241
100.179
100.132
100.097
100.071
100.051
100.037
100.026
100.019
100.013
100.009
100.007
100.005
100.003
100.002
100.001
100.001
100.001
100
100
100
100
100
100
100
100
100
100
100
100
100
100
100
100
100
389.953
369.931
350.126
330.674
311.707
293.343
275.691
258.841
242.87
227.837
213.784
200.739
188.71
177.695
167.676
158.624
150.5
143.259
136.848
131.209
126.281
122.005
118.318
115.16
112.474
110.203
108.297
106.707
105.389
104.305
103.418
102.698
102.116
101.65
101.279
100.985
100.755
100.574
100.434
100.327
100.244
100.181
100.134
100.098
100.072
100.052
100.037
100.027
100.019
100.013
100.009
100.007
100.005
100.003
100.002
100.001
100.001
100.001
100
100
100
100
100
100
100
100
100
100
100
100
100
100
100
100
100
389.991
370.045
350.311
330.926
312.016
293.702
276.088
259.266
243.313
228.288
214.234
201.179
189.134
178.097
168.052
158.972
150.819
143.547
137.105
131.436
126.481
122.179
118.468
115.288
112.582
110.294
108.372
106.769
105.44
104.346
103.452
102.725
102.138
101.667
101.292
100.996
100.763
100.581
100.439
100.33
100.247
100.183
100.135
100.099
100.072
100.053
100.038
100.027
100.019
100.014
100.01
100.007
100.005
100.003
100.002
100.002
100.001
100.001
100
100
100
100
100
100
100
100
100
100
100
100
100
100
100
100
100
390.022
370.135
350.458
331.124
312.26
293.985
276.402
259.604
243.665
228.647
214.592
201.531
189.474
178.421
168.356
159.254
151.077
143.781
137.315
131.623
126.645
122.321
118.59
115.393
112.671
110.369
108.435
106.821
105.483
104.381
103.48
102.747
102.156
101.682
101.304
101.005
100.769
100.586
100.443
100.333
100.249
100.185
100.137
100.1
100.073
100.053
100.038
100.027
100.019
100.014
100.01
100.007
100.005
100.003
100.002
100.002
100.001
100.001
100
100
100
100
100
100
100
100
100
100
100
100
100
100
100
100
100
390.045
370.205
350.572
331.279
312.452
294.208
276.65
259.87
243.943
228.931
214.877
201.811
189.746
178.68
168.6
159.48
151.285
143.97
137.485
131.773
126.778
122.437
118.691
115.479
112.744
110.43
108.486
106.864
105.518
104.41
103.503
102.766
102.171
101.693
101.313
101.012
100.775
100.59
100.447
100.336
100.251
100.187
100.138
100.101
100.074
100.053
100.039
100.028
100.02
100.014
100.01
100.007
100.005
100.003
100.002
100.002
100.001
100.001
100
100
100
100
100
100
100
100
100
100
100
100
100
100
100
100
100
390.064
370.26
350.662
331.401
312.602
294.382
276.844
260.079
244.163
229.156
215.103
202.034
189.961
178.886
168.795
159.662
151.452
144.122
137.621
131.895
126.885
122.531
118.772
115.549
112.803
110.48
108.528
106.898
105.547
104.433
103.522
102.781
102.183
101.703
101.321
101.018
100.78
100.594
100.449
100.338
100.253
100.188
100.139
100.102
100.074
100.054
100.039
100.028
100.02
100.014
100.01
100.007
100.005
100.003
100.002
100.002
100.001
100.001
100
100
100
100
100
100
100
100
100
100
100
100
100
100
100
100
100
390.078
370.303
350.731
331.496
312.72
294.519
276.996
260.243
244.335
229.332
215.28
202.209
190.132
179.05
168.949
159.806
151.585
144.243
137.73
131.993
126.971
122.606
118.837
115.605
112.851
110.521
108.562
106.927
105.57
104.452
103.537
102.794
102.193
101.711
101.327
101.023
100.784
100.597
100.452
100.34
100.254
100.189
100.139
100.102
100.075
100.054
100.039
100.028
100.02
100.014
100.01
100.007
100.005
100.003
100.002
100.002
100.001
100.001
100
100
100
100
100
100
100
100
100
100
100
100
100
100
100
100
100
390.089
370.336
350.785
331.569
312.811
294.625
277.115
260.371
244.469
229.47
215.419
202.346
190.266
179.178
169.071
159.919
151.69
144.339
137.817
132.07
127.04
122.666
118.89
115.65
112.89
110.554
108.59
106.949
105.589
104.468
103.55
102.804
102.201
101.718
101.332
101.027
100.787
100.599
100.453
100.341
100.255
100.189
100.14
100.103
100.075
100.054
100.039
100.028
100.02
100.014
100.01
100.007
100.005
100.003
100.002
100.002
100.001
100.001
100
100
100
100
100
100
100
100
100
100
100
100
100
100
100
100
100
390.098
370.361
350.827
331.626
312.881
294.707
277.206
260.47
244.574
229.578
215.528
202.454
190.371
179.279
169.166
160.009
151.772
144.414
137.886
132.131
127.094
122.714
118.931
115.686
112.92
110.58
108.611
106.968
105.604
104.48
103.56
102.812
102.208
101.723
101.336
101.03
100.789
100.601
100.455
100.342
100.256
100.19
100.14
100.103
100.075
100.055
100.039
100.028
100.02
100.014
100.01
100.007
100.005
100.003
100.002
100.002
100.001
100.001
100
100
100
100
100
100
100
100
100
100
100
100
100
100
100
100
100
390.104
370.381
350.859
331.67
312.935
294.77
277.277
260.547
244.654
229.661
215.612
202.537
190.452
179.357
169.241
160.079
151.837
144.474
137.939
132.18
127.137
122.752
118.964
115.714
112.945
110.6
108.629
106.982
105.616
104.49
103.568
102.818
102.213
101.727
101.339
101.033
100.791
100.603
100.456
100.343
100.257
100.191
100.141
100.103
100.075
100.055
100.039
100.028
100.02
100.014
100.01
100.007
100.005
100.003
100.002
100.002
100.001
100.001
100
100
100
100
100
100
100
100
100
100
100
100
100
100
100
100
100
390.109
370.396
350.884
331.703
312.977
294.819
277.332
260.606
244.716
229.725
215.677
202.602
190.515
179.418
169.299
160.133
151.888
144.52
137.981
132.217
127.171
122.782
118.99
115.737
112.964
110.616
108.642
106.994
105.625
104.498
103.575
102.824
102.217
101.73
101.342
101.035
100.793
100.604
100.457
100.344
100.257
100.191
100.141
100.104
100.076
100.055
100.04
100.028
100.02
100.014
100.01
100.007
100.005
100.003
100.002
100.002
100.001
100.001
100
100
100
100
100
100
100
100
100
100
100
100
100
100
100
100
100
390.113
370.407
350.903
331.729
313.009
294.856
277.373
260.651
244.764
229.774
215.726
202.651
190.564
179.465
169.343
160.175
151.927
144.556
138.014
132.247
127.197
122.805
119.01
115.754
112.979
110.629
108.653
107.003
105.633
104.504
103.58
102.828
102.22
101.733
101.344
101.036
100.794
100.605
100.458
100.344
100.258
100.191
100.141
100.104
100.076
100.055
100.04
100.028
100.02
100.014
100.01
100.007
100.005
100.003
100.002
100.002
100.001
100.001
100
100
100
100
100
100
100
100
100
100
100
100
100
100
100
100
100
390.116
370.416
350.917
331.748
313.033
294.884
277.405
260.685
244.8
229.812
215.764
202.689
190.601
179.501
169.377
160.207
151.957
144.584
138.039
132.269
127.217
122.822
119.026
115.768
112.99
110.639
108.662
107.01
105.639
104.509
103.583
102.831
102.223
101.735
101.346
101.038
100.795
100.606
100.458
100.345
100.258
100.192
100.142
100.104
100.076
100.055
100.04
100.028
100.02
100.014
100.01
100.007
100.005
100.003
100.002
100.002
100.001
100.001
100
100
100
100
100
100
100
100
100
100
100
100
100
100
100
100
100
390.118
370.423
350.928
331.763
313.051
294.905
277.429
260.711
244.828
229.84
215.793
202.718
190.629
179.528
169.404
160.232
151.98
144.605
138.058
132.287
127.233
122.836
119.038
115.778
112.999
110.647
108.668
107.015
105.643
104.512
103.587
102.833
102.225
101.736
101.347
101.039
100.796
100.606
100.459
100.345
100.258
100.192
100.142
100.104
100.076
100.055
100.04
100.028
100.02
100.014
100.01
100.007
100.005
100.003
100.002
100.002
100.001
100.001
100
100
100
100
100
100
100
100
100
100
100
100
100
100
100
100
100
390.12
370.428
350.936
331.774
313.065
294.921
277.447
260.731
244.849
229.862
215.815
202.74
190.65
179.549
169.423
160.251
151.997
144.621
138.073
132.3
127.244
122.847
119.047
115.786
113.006
110.653
108.673
107.019
105.647
104.515
103.589
102.835
102.226
101.738
101.348
101.039
100.797
100.607
100.459
100.346
100.258
100.192
100.142
100.104
100.076
100.055
100.04
100.028
100.02
100.014
100.01
100.007
100.005
100.003
100.002
100.002
100.001
100.001
100
100
100
100
100
100
100
100
100
100
100
100
100
100
100
100
100
390.121
370.431
350.942
331.782
313.075
294.934
277.46
260.745
244.864
229.878
215.832
202.756
190.667
179.565
169.438
160.265
152.01
144.633
138.084
132.31
127.253
122.855
119.054
115.792
113.012
110.657
108.677
107.022
105.649
104.518
103.591
102.837
102.228
101.739
101.349
101.04
100.797
100.607
100.46
100.346
100.259
100.192
100.142
100.104
100.076
100.055
100.04
100.028
100.02
100.014
100.01
100.007
100.005
100.003
100.002
100.002
100.001
100.001
100
100
100
100
100
100
100
100
100
100
100
100
100
100
100
100
100
390.122
370.434
350.946
331.788
313.083
294.942
277.47
260.756
244.876
229.89
215.844
202.768
190.679
179.576
169.45
160.275
152.02
144.642
138.093
132.318
127.26
122.861
119.059
115.797
113.016
110.661
108.68
107.025
105.651
104.519
103.592
102.838
102.229
101.739
101.349
101.04
100.797
100.607
100.46
100.346
100.259
100.192
100.142
100.104
100.076
100.055
100.04
100.028
100.02
100.014
100.01
100.007
100.005
100.003
100.002
100.002
100.001
100.001
100
100
100
100
100
100
100
100
100
100
100
100
100
100
100
100
100
390.123
370.436
350.95
331.793
313.088
294.949
277.478
260.765
244.884
229.899
215.853
202.777
190.688
179.585
169.458
160.283
152.028
144.649
138.099
132.323
127.265
122.865
119.063
115.8
113.019
110.663
108.682
107.027
105.653
104.52
103.593
102.839
102.229
101.74
101.35
101.041
100.798
100.608
100.46
100.346
100.259
100.192
100.142
100.104
100.076
100.055
100.04
100.029
100.02
100.014
100.01
100.007
100.005
100.003
100.002
100.002
100.001
100.001
100
100
100
100
100
100
100
100
100
100
100
100
100
100
100
100
100
390.123
370.438
350.952
331.796
313.092
294.954
277.483
260.771
244.891
229.905
215.86
202.784
190.694
179.592
169.464
160.289
152.033
144.654
138.104
132.328
127.269
122.869
119.066
115.803
113.021
110.665
108.684
107.028
105.654
104.521
103.594
102.839
102.23
101.74
101.35
101.041
100.798
100.608
100.46
100.346
100.259
100.192
100.142
100.104
100.076
100.055
100.04
100.029
100.02
100.014
100.01
100.007
100.005
100.003
100.002
100.002
100.001
100.001
100
100
100
100
100
100
100
100
100
100
100
100
100
100
100
100
100
390.124
370.439
350.954
331.799
313.096
294.958
277.488
260.775
244.896
229.91
215.865
202.789
190.699
179.596
169.469
160.294
152.037
144.658
138.107
132.331
127.272
122.871
119.068
115.805
113.023
110.667
108.685
107.029
105.655
104.522
103.595
102.84
102.23
101.741
101.35
101.041
100.798
100.608
100.46
100.346
100.259
100.192
100.142
100.104
100.076
100.055
100.04
100.029
100.02
100.014
100.01
100.007
100.005
100.003
100.002
100.002
100.001
100.001
100
100
100
100
100
100
100
100
100
100
100
100
100
100
100
100
100
390.124
370.44
350.955
331.801
313.098
294.96
277.49
260.778
244.899
229.914
215.868
202.793
190.703
179.6
169.472
160.297
152.04
144.661
138.11
132.333
127.274
122.873
119.07
115.806
113.024
110.668
108.686
107.03
105.656
104.523
103.595
102.84
102.23
101.741
101.351
101.041
100.798
100.608
100.46
100.346
100.259
100.192
100.142
100.104
100.076
100.055
100.04
100.029
100.02
100.014
100.01
100.007
100.005
100.003
100.002
100.002
100.001
100.001
100
100
100
100
100
100
100
100
100
100
100
100
100
100
100
100
100
390.124
370.44
350.956
331.802
313.099
294.962
277.493
260.781
244.901
229.916
215.871
202.796
190.706
179.602
169.475
160.299
152.042
144.663
138.112
132.335
127.276
122.874
119.071
115.807
113.025
110.668
108.686
107.03
105.656
104.523
103.595
102.841
102.231
101.741
101.351
101.042
100.798
100.608
100.46
100.346
100.259
100.192
100.142
100.104
100.076
100.055
100.04
100.029
100.02
100.014
100.01
100.007
100.005
100.003
100.002
100.002
100.001
100.001
100
100
100
100
100
100
100
100
100
100
100
100
100
100
100
100
100
390.124
370.441
350.957
331.803
313.101
294.964
277.494
260.782
244.903
229.918
215.873
202.797
190.707
179.604
169.476
160.301
152.044
144.664
138.113
132.336
127.277
122.875
119.072
115.808
113.025
110.669
108.687
107.031
105.656
104.523
103.595
102.841
102.231
101.741
101.351
101.042
100.798
100.608
100.46
100.346
100.259
100.193
100.142
100.104
100.076
100.055
100.04
100.029
100.02
100.014
100.01
100.007
100.005
100.003
100.002
100.002
100.001
100.001
100
100
100
100
100
100
100
100
100
100
100
100
100
100
100
100
100
390.125
370.441
350.957
331.804
313.101
294.965
277.495
260.783
244.905
229.92
215.874
202.799
190.709
179.606
169.478
160.302
152.045
144.665
138.114
132.337
127.277
122.876
119.073
115.809
113.026
110.669
108.687
107.031
105.657
104.524
103.596
102.841
102.231
101.741
101.351
101.042
100.798
100.608
100.46
100.346
100.259
100.193
100.142
100.104
100.076
100.055
100.04
100.029
100.02
100.014
100.01
100.007
100.005
100.003
100.002
100.002
100.001
100.001
100
100
100
100
100
100
100
100
100
100
100
100
100
100
100
100
100
390.125
370.441
350.958
331.804
313.102
294.965
277.496
260.784
244.906
229.921
215.875
202.8
190.71
179.607
169.479
160.303
152.046
144.666
138.115
132.338
127.278
122.877
119.073
115.809
113.026
110.67
108.687
107.031
105.657
104.524
103.596
102.841
102.231
101.741
101.351
101.042
100.798
100.608
100.46
100.346
100.259
100.193
100.142
100.104
100.076
100.055
100.04
100.029
100.02
100.014
100.01
100.007
100.005
100.003
100.002
100.002
100.001
100.001
100
100
100
100
100
100
100
100
100
100
100
100
100
100
100
100
100
390.125
370.441
350.958
331.804
313.102
294.966
277.497
260.785
244.906
229.921
215.876
202.801
190.71
179.607
169.479
160.304
152.047
144.667
138.115
132.338
127.278
122.877
119.074
115.809
113.026
110.67
108.688
107.031
105.657
104.524
103.596
102.841
102.231
101.741
101.351
101.042
100.798
100.608
100.46
100.346
100.259
100.193
100.142
100.104
100.076
100.055
100.04
100.029
100.02
100.014
100.01
100.007
100.005
100.003
100.002
100.002
100.001
100.001
100
100
100
100
100
100
100
100
100
100
100
100
100
100
100
100
100
390.125
370.441
350.958
331.805
313.103
294.966
277.497
260.785
244.907
229.922
215.877
202.801
190.711
179.608
169.48
160.304
152.047
144.667
138.115
132.338
127.279
122.877
119.074
115.81
113.027
110.67
108.688
107.032
105.657
104.524
103.596
102.841
102.231
101.741
101.351
101.042
100.798
100.608
100.46
100.346
100.259
100.193
100.142
100.104
100.076
100.055
100.04
100.029
100.02
100.014
100.01
100.007
100.005
100.003
100.002
100.002
100.001
100.001
100
100
100
100
100
100
100
100
100
100
100
100
100
100
100
100
100
390.125
370.441
350.958
331.805
313.103
294.966
277.497
260.786
244.907
229.922
215.877
202.801
190.711
179.608
169.48
160.304
152.047
144.667
138.116
132.339
127.279
122.877
119.074
115.81
113.027
110.67
108.688
107.032
105.657
104.524
103.596
102.841
102.231
101.741
101.351
101.042
100.798
100.608
100.46
100.346
100.259
100.193
100.142
100.104
100.076
100.055
100.04
100.029
100.02
100.014
100.01
100.007
100.005
100.003
100.002
100.002
100.001
100.001
100
100
100
100
100
100
100
100
100
100
100
100
100
100
100
100
100
390.125
370.441
350.958
331.805
313.103
294.967
277.498
260.786
244.907
229.922
215.877
202.802
190.712
179.608
169.48
160.305
152.048
144.668
138.116
132.339
127.279
122.877
119.074
115.81
113.027
110.67
108.688
107.032
105.657
104.524
103.596
102.841
102.231
101.741
101.351
101.042
100.798
100.608
100.46
100.346
100.259
100.193
100.142
100.104
100.076
100.055
100.04
100.029
100.02
100.014
100.01
100.007
100.005
100.003
100.002
100.002
100.001
100.001
100
100
100
100
100
100
100
100
100
100
100
100
100
100
100
100
100
390.125
370.441
350.959
331.805
313.103
294.967
277.498
260.786
244.907
229.923
215.877
202.802
190.712
179.608
169.481
160.305
152.048
144.668
138.116
132.339
127.279
122.878
119.074
115.81
113.027
110.67
108.688
107.032
105.657
104.524
103.596
102.841
102.231
101.742
101.351
101.042
100.798
100.608
100.46
100.346
100.259
100.193
100.142
100.104
100.076
100.055
100.04
100.029
100.02
100.014
100.01
100.007
100.005
100.003
100.002
100.002
100.001
100.001
100
100
100
100
100
100
100
100
100
100
100
100
100
100
100
100
100
390.125
370.441
350.959
331.805
313.103
294.967
277.498
260.786
244.907
229.923
215.877
202.802
190.712
179.609
169.481
160.305
152.048
144.668
138.116
132.339
127.279
122.878
119.074
115.81
113.027
110.67
108.688
107.032
105.657
104.524
103.596
102.841
102.231
101.742
101.351
101.042
100.798
100.608
100.46
100.346
100.259
100.193
100.142
100.104
100.076
100.055
100.04
100.029
100.02
100.014
100.01
100.007
100.005
100.003
100.002
100.002
100.001
100.001
100
100
100
100
100
100
100
100
100
100
100
100
100
100
100
100
100
390.125
370.442
350.959
331.805
313.103
294.967
277.498
260.786
244.908
229.923
215.877
202.802
190.712
179.609
169.481
160.305
152.048
144.668
138.116
132.339
127.279
122.878
119.074
115.81
113.027
110.67
108.688
107.032
105.657
104.524
103.596
102.841
102.231
101.742
101.351
101.042
100.798
100.608
100.46
100.346
100.259
100.193
100.142
100.104
100.076
100.055
100.04
100.029
100.02
100.014
100.01
100.007
100.005
100.003
100.002
100.002
100.001
100.001
100
100
100
100
100
100
100
100
100
100
100
100
100
100
100
100
100
390.125
370.442
350.959
331.805
313.103
294.967
277.498
260.786
244.908
229.923
215.878
202.802
190.712
179.609
169.481
160.305
152.048
144.668
138.116
132.339
127.279
122.878
119.074
115.81
113.027
110.67
108.688
107.032
105.657
104.524
103.596
102.841
102.231
101.742
101.351
101.042
100.798
100.608
100.46
100.346
100.259
100.193
100.142
100.104
100.076
100.055
100.04
100.029
100.02
100.014
100.01
100.007
100.005
100.003
100.002
100.002
100.001
100.001
100
100
100
100
100
100
100
100
100
100
100
100
100
100
100
100
100
390.125
370.442
350.959
331.805
313.103
294.967
277.498
260.786
244.908
229.923
215.878
202.802
190.712
179.609
169.481
160.305
152.048
144.668
138.116
132.339
127.279
122.878
119.074
115.81
113.027
110.67
108.688
107.032
105.657
104.524
103.596
102.841
102.231
101.742
101.351
101.042
100.798
100.608
100.46
100.346
100.259
100.193
100.142
100.104
100.076
100.055
100.04
100.029
100.02
100.014
100.01
100.007
100.005
100.003
100.002
100.002
100.001
100.001
100
100
100
100
100
100
100
100
100
100
100
100
100
100
100
100
100
390.125
370.442
350.959
331.805
313.103
294.967
277.498
260.786
244.908
229.923
215.878
202.802
190.712
179.609
169.481
160.305
152.048
144.668
138.116
132.339
127.279
122.878
119.074
115.81
113.027
110.67
108.688
107.032
105.657
104.524
103.596
102.841
102.231
101.742
101.351
101.042
100.798
100.608
100.46
100.346
100.259
100.193
100.142
100.104
100.076
100.055
100.04
100.029
100.02
100.014
100.01
100.007
100.005
100.003
100.002
100.002
100.001
100.001
100
100
100
100
100
100
100
100
100
100
100
100
100
100
100
100
100
390.125
370.442
350.959
331.805
313.103
294.967
277.498
260.786
244.908
229.923
215.878
202.802
190.712
179.609
169.481
160.305
152.048
144.668
138.116
132.339
127.279
122.878
119.074
115.81
113.027
110.67
108.688
107.032
105.657
104.524
103.596
102.841
102.231
101.742
101.351
101.042
100.798
100.608
100.46
100.346
100.259
100.193
100.142
100.104
100.076
100.055
100.04
100.029
100.02
100.014
100.01
100.007
100.005
100.003
100.002
100.002
100.001
100.001
100
100
100
100
100
100
100
100
100
100
100
100
100
100
100
100
100
390.125
370.442
350.959
331.805
313.103