/*--------------------------------*- C++ -*----------------------------------*\
  =========                 |
  \\      /  F ield         | OpenFOAM: The Open Source CFD Toolbox
   \\    /   O peration     | Website:  https://openfoam.org
    \\  /    A nd           | Version:  10
     \\/     M anipulation  |
\*---------------------------------------------------------------------------*/
FoamFile
{
    format      ascii;
    class       volScalarField;
    location    "31";
    object      gradTx;
}
// * * * * * * * * * * * * * * * * * * * * * * * * * * * * * * * * * * * * * //

dimensions      [0 -1 0 1 0 0 0];

internalField   nonuniform List<scalar> 
11250
(
14064.4
7425.82
4267.08
2528.37
1491.86
858.935
477.038
253.95
129.146
62.6421
28.9659
12.771
5.37209
2.1578
0.828425
0.304309
0.107062
0.0361096
0.011686
0.00363166
0.00108457
0.000311463
8.60627e-05
2.28948e-05
5.86704e-06
1.44913e-06
3.45171e-07
7.9327e-08
1.75707e-08
3.74397e-09
7.33208e-10
1.383e-10
7.68332e-12
-2.19524e-12
-9.87856e-12
-4.39047e-12
0
-2.19524e-12
1.09762e-12
-4.39047e-12
-9.87856e-12
6.58571e-12
1.09762e-12
-5.48809e-12
-5.48809e-12
1.09762e-12
0
-4.39047e-12
2.19524e-12
0
1.09762e-12
0
1.4269e-11
0
1.09762e-12
0
1.09762e-12
-2.19524e-12
0
2.19524e-12
0
1.09762e-12
0
-2.19524e-11
9.87856e-12
-1.09762e-12
-1.09762e-12
0
1.09762e-12
0
-5.48809e-12
0
-7.68332e-12
0
-9.87856e-12
3869.41
4050.8
2997.09
1993.58
1247.74
742.341
420.486
226.69
116.274
56.7416
26.355
11.6595
4.9176
1.97948
0.761311
0.280073
0.0986621
0.0333147
0.0107926
0.00335724
0.00100352
0.000288435
7.9766e-05
2.12369e-05
5.44647e-06
1.3463e-06
3.20917e-07
7.38137e-08
1.6383e-08
3.50469e-09
7.09061e-10
1.4269e-10
1.64643e-11
0
1.09762e-12
0
-8.78094e-12
1.09762e-12
-1.09762e-12
0
0
-4.39047e-12
-1.09762e-12
-1.09762e-12
0
0
-1.09762e-12
0
-2.19523e-12
0
-1.75619e-11
0
-1.4269e-11
8.78094e-12
-1.31714e-11
-6.5857e-12
-1.4269e-11
0
-4.39047e-12
0
0
-1.09762e-12
0
2.41476e-11
5.48809e-12
0
-1.09762e-12
1.09762e-12
-1.09762e-12
0
-8.78094e-12
0
8.78094e-12
2.19523e-12
0
1266.89
2008.3
1816.3
1356.72
911.375
567.132
330.912
182.062
94.7403
46.7245
21.876
9.7379
4.12732
1.66799
0.643632
0.237446
0.0838496
0.0283744
0.00921026
0.00287025
0.000859429
0.000247427
6.85347e-05
1.82751e-05
4.69403e-06
1.16203e-06
2.77428e-07
6.39055e-08
1.42218e-08
3.06455e-09
6.43204e-10
1.18543e-10
1.75619e-11
9.87856e-12
1.75619e-11
3.29285e-12
0
-1.09762e-12
-2.19524e-12
2.19524e-12
9.87856e-12
-2.19524e-12
0
7.68332e-12
5.48809e-12
7.68332e-12
1.09762e-12
5.48809e-12
0
0
1.09762e-12
-1.09762e-12
4.39047e-12
8.78094e-12
0
-2.19523e-12
0
4.39047e-12
0
-2.19524e-12
0
0
0
-1.4269e-11
-1.09762e-11
2.19524e-12
3.29285e-12
2.19523e-12
0
0
3.29285e-12
8.78094e-12
0
-1.09762e-12
8.78094e-12
487.033
983.371
1023.59
840.065
601.97
391.876
236.111
132.971
70.4039
35.1821
16.6409
7.46765
3.18582
1.29444
0.501753
0.185825
0.065845
0.0223501
0.00727526
0.00227323
0.00068238
0.000196933
5.46777e-05
1.4614e-05
3.76226e-06
9.33458e-07
2.23348e-07
5.15562e-08
1.14932e-08
2.47403e-09
5.24661e-10
9.7688e-11
2.52452e-11
6.58571e-12
0
1.09762e-12
8.78094e-12
0
1.09762e-12
0
0
0
1.09762e-12
0
0
0
0
1.09762e-12
0
0
1.53666e-11
0
1.09762e-12
-8.78094e-12
1.31714e-11
5.48809e-12
1.4269e-11
-4.39047e-12
5.48809e-12
6.58571e-12
0
-2.19523e-12
0
-1.09762e-12
-4.39047e-12
3.29285e-12
0
1.09762e-12
0
2.19524e-12
5.48809e-12
0
-1.09762e-12
-1.09762e-12
-5.48809e-12
209.251
482.234
551.489
486.102
367.556
249.14
154.767
89.2176
48.0986
24.3788
11.6621
5.28151
2.27023
0.928269
0.361764
0.134612
0.047899
0.016321
0.00533167
0.00167159
0.000503422
0.000145751
4.05946e-05
1.08837e-05
2.81054e-06
6.99452e-07
1.67847e-07
3.88458e-08
8.67667e-09
1.87802e-09
4.12704e-10
1.03176e-10
3.51238e-11
-8.78094e-12
-7.68332e-12
0
0
-1.97571e-11
2.19523e-12
2.19523e-12
5.48809e-12
-1.09762e-12
8.78094e-12
0
-2.19523e-12
-1.09762e-11
-4.39047e-12
-2.19523e-12
1.09762e-12
3.29285e-12
8.78094e-12
1.09762e-12
-5.48809e-12
-9.87856e-12
0
5.48809e-12
1.09762e-12
-8.78094e-12
-5.48809e-12
0
0
0
0
1.86595e-11
0
-1.09762e-12
-1.09762e-12
-3.29285e-12
0
-1.09762e-12
-9.87856e-12
-1.20738e-11
-7.68332e-12
-1.09762e-12
-1.09762e-12
95.2312
235.522
286.615
266.308
210.198
147.456
94.1376
55.4615
30.4268
15.6413
7.56928
3.46092
1.49966
0.617413
0.242056
0.0905462
0.0323737
0.01108
0.00363485
0.00114423
0.000345972
0.000100559
2.8117e-05
7.56756e-06
1.96174e-06
4.90092e-07
1.18047e-07
2.74196e-08
6.14666e-09
1.31824e-09
2.84283e-10
4.28071e-11
7.68332e-12
4.39047e-12
0
0
0
0
1.09762e-11
1.20738e-11
0
0
-9.87856e-12
-1.09762e-12
1.09762e-12
1.09762e-12
0
1.09762e-12
-2.19524e-12
-2.19523e-12
-6.58571e-12
-1.09762e-12
0
-3.29285e-12
-1.09762e-12
0
-1.09762e-12
2.19524e-12
1.09762e-12
-6.58571e-12
1.09762e-12
2.19523e-12
1.09762e-12
0
-1.09762e-12
-4.39047e-12
0
0
0
-2.19524e-12
4.39047e-12
1.09762e-12
-4.39047e-12
0
0
44.1353
113.453
143.89
138.968
113.453
81.8866
53.5288
32.1597
17.9311
9.34253
4.57237
2.11065
0.922064
0.382316
0.150829
0.0567405
0.0203929
0.00701396
0.00231186
0.000731138
0.000222083
6.48458e-05
1.82143e-05
4.92475e-06
1.28247e-06
3.2185e-07
7.78738e-08
1.81908e-08
4.09631e-09
8.71508e-10
1.71228e-10
4.39047e-12
-7.68332e-12
1.09762e-12
-5.48809e-12
0
-1.09762e-12
2.19524e-11
0
0
-9.87856e-12
2.19524e-12
-8.78094e-12
-9.87856e-12
-4.39047e-12
2.19524e-12
5.48809e-12
1.09762e-12
-1.09762e-12
-4.39047e-12
-9.87856e-12
0
0
-1.09762e-12
0
-9.87856e-12
-1.09762e-12
-7.68332e-12
4.39047e-12
-4.39047e-12
0
-2.19523e-12
1.09762e-12
-5.48809e-12
2.19523e-12
2.19524e-12
0
0
-1.20738e-11
1.09762e-12
1.31714e-11
2.19524e-12
0
-7.68332e-12
0
20.3275
53.4339
69.6957
69.261
58.0574
42.8936
28.6101
17.487
9.89394
5.21968
2.582
1.2029
0.529734
0.221207
0.0878272
0.0332337
0.0120101
0.0041525
0.00137573
0.000437293
0.000133503
3.91803e-05
1.10617e-05
3.00621e-06
7.86883e-07
1.98462e-07
4.82864e-08
1.13527e-08
2.56733e-09
5.70761e-10
1.18543e-10
3.84166e-11
1.86595e-11
1.09762e-12
-1.09762e-12
0
-8.78094e-12
-9.87856e-12
-1.20738e-11
-1.20738e-11
-1.09762e-12
0
9.87856e-12
0
-5.48809e-12
-9.87856e-12
0
-1.09762e-12
1.09762e-12
-3.29285e-12
5.48809e-12
0
0
4.39047e-12
1.09762e-12
4.39047e-12
2.305e-11
3.29285e-12
-3.29285e-12
0
0
0
-3.29285e-12
0
0
0
7.68332e-12
-1.09762e-12
0
1.09762e-12
-1.09762e-12
0
6.5857e-12
0
4.39047e-12
9.17189
24.4448
32.5139
33.0072
28.2481
21.2723
14.4325
8.95451
5.13295
2.73894
1.36838
0.64308
0.285397
0.120007
0.04795
0.0182516
0.00663293
0.00230586
0.000768043
0.000245444
7.53375e-05
2.22305e-05
6.31069e-06
1.72448e-06
4.53866e-07
1.15098e-07
2.81517e-08
6.65925e-09
1.54105e-09
3.61116e-10
7.4638e-11
1.53666e-11
-5.48809e-12
1.09762e-12
5.48809e-12
-1.09762e-12
0
-2.19524e-12
-1.09762e-12
-5.48809e-12
5.48809e-12
-1.09762e-12
-3.29285e-12
9.87856e-12
0
0
-3.29285e-12
0
0
-1.20738e-11
-2.19524e-12
0
-1.09762e-12
-3.29285e-12
0
8.78094e-12
1.4269e-11
1.4269e-11
-4.39047e-12
4.39047e-12
-1.09762e-12
2.19523e-12
8.78094e-12
0
-1.09762e-12
0
1.4269e-11
2.19523e-12
1.31714e-11
-1.09762e-12
2.19523e-12
5.48809e-12
6.58571e-12
8.78094e-12
2.19524e-12
4.0207
10.8138
14.5869
15.0498
13.0932
10.0155
6.89365
4.33296
2.51268
1.35462
0.682983
0.323603
0.144673
0.0612416
0.0246216
0.00942675
0.00344508
0.00120422
0.000403296
0.000129587
3.99956e-05
1.18676e-05
3.38782e-06
9.30967e-07
2.46392e-07
6.2854e-08
1.54632e-08
3.6858e-09
8.6602e-10
2.14035e-10
4.17095e-11
-1.20738e-11
-3.18309e-11
-2.96357e-11
0
-1.09762e-12
7.68332e-12
8.78094e-12
0
-6.58571e-12
-5.48809e-12
-2.19524e-12
1.09762e-12
0
5.48809e-12
8.78094e-12
-1.09762e-12
-4.39047e-12
1.09762e-12
4.39047e-12
-2.19524e-12
-1.09762e-12
0
0
0
-5.48809e-12
-1.97571e-11
-1.09762e-12
2.19523e-12
-1.09762e-12
-1.09762e-12
0
1.09762e-12
-1.09762e-12
-1.09762e-12
-1.09762e-12
-6.58571e-12
0
-1.09762e-12
0
1.09762e-12
0
-6.58571e-12
0
1.09762e-12
1.70417
4.61254
6.28696
6.56808
5.78993
4.48652
3.12598
1.98704
1.16414
0.633448
0.322061
0.153756
0.0692162
0.0294872
0.0119258
0.00459183
0.00168731
0.000592969
0.00019965
6.44964e-05
2.00139e-05
5.97098e-06
1.71387e-06
4.73536e-07
1.26015e-07
3.23512e-08
8.01261e-09
1.91424e-09
4.50023e-10
1.04274e-10
2.85381e-11
2.63428e-11
6.5857e-12
-3.29285e-12
1.75619e-11
2.19523e-12
2.19523e-12
-1.20738e-11
-6.5857e-12
5.48809e-12
1.75619e-11
0
3.29285e-12
1.09762e-12
6.5857e-12
0
3.29285e-12
-5.48809e-12
-1.09762e-12
1.20738e-11
2.19523e-12
0
2.19523e-12
4.39047e-12
2.19523e-12
1.09762e-12
-1.4269e-11
0
4.39047e-12
-1.09762e-12
3.29285e-12
1.4269e-11
-8.78094e-12
0
0
-9.87856e-12
-3.7319e-11
-1.09762e-12
0
0
-3.29285e-12
-5.48809e-12
0
-2.19523e-12
-3.29285e-12
0.696464
1.89379
2.60178
2.74503
2.44581
1.91575
1.34876
0.865786
0.511867
0.280861
0.143894
0.0691811
0.0313452
0.0134339
0.00546393
0.00211512
0.000781267
0.000275962
9.33859e-05
3.03211e-05
9.45683e-06
2.83576e-06
8.18116e-07
2.27217e-07
6.07959e-08
1.56948e-08
3.9163e-09
9.45049e-10
2.19523e-10
5.1588e-11
2.52452e-11
1.75619e-11
3.62214e-11
2.85381e-11
2.19523e-12
0
-2.19524e-12
1.09762e-12
0
6.58571e-12
7.68332e-12
2.19524e-12
4.39047e-12
7.68332e-12
0
1.09762e-12
0
1.20738e-11
1.09762e-12
2.19523e-12
4.39047e-12
4.39047e-12
0
1.09762e-12
-1.09762e-12
-1.09762e-12
-3.29285e-12
0
-1.09762e-12
2.19524e-12
0
-1.09762e-12
5.48809e-12
0
-1.09762e-11
-5.48809e-12
-2.19524e-12
-1.09762e-12
0
1.09762e-12
0
0
4.39047e-12
0
1.09762e-12
0.274041
0.747781
1.03372
1.0993
0.988145
0.781062
0.554853
0.359248
0.214125
0.118384
0.0610798
0.0295574
0.0134731
0.0058068
0.00237425
0.000923694
0.000342829
0.000121663
4.13607e-05
1.34906e-05
4.22676e-06
1.27322e-06
3.68988e-07
1.02964e-07
2.76929e-08
7.17842e-09
1.81326e-09
4.44535e-10
8.8907e-11
4.39047e-12
7.68332e-12
1.09762e-12
4.39047e-12
2.19524e-12
-2.305e-11
0
1.09762e-11
1.64643e-11
9.87856e-12
0
-2.305e-11
0
-1.09762e-12
-3.29285e-12
-1.09762e-12
0
-1.09762e-12
4.39047e-12
0
1.09762e-12
0
1.09762e-12
0
0
-1.09762e-12
0
1.09762e-12
-8.78094e-12
-7.68332e-12
-3.29285e-12
-1.09762e-12
-1.4269e-11
1.09762e-12
-1.20738e-11
-1.09762e-12
1.09762e-11
2.305e-11
-2.19523e-12
0
0
-1.09762e-12
-4.39047e-12
-8.78094e-12
1.09762e-12
6.58571e-12
0.103748
0.283882
0.394389
0.422151
0.382283
0.304536
0.218042
0.142261
0.0854179
0.0475539
0.0246952
0.0120229
0.00551121
0.0023877
0.000981019
0.000383403
0.000142915
5.0927e-05
1.73825e-05
5.69179e-06
1.79014e-06
5.4128e-07
1.57465e-07
4.41045e-08
1.18905e-08
3.09528e-09
7.86992e-10
1.8879e-10
2.96357e-11
-1.53666e-11
-3.29285e-12
1.20738e-11
-6.5857e-12
-1.09762e-11
-4.39047e-12
0
2.19523e-12
0
0
0
-2.19523e-12
-1.09762e-11
-6.5857e-12
-7.68332e-12
-5.48809e-12
-6.5857e-12
-1.09762e-12
-6.5857e-12
0
-1.09762e-12
0
-2.19523e-12
-1.09762e-12
1.09762e-12
0
0
4.39047e-12
0
1.09762e-12
0
-1.09762e-12
-1.09762e-12
-6.5857e-12
0
1.20738e-11
8.78094e-12
2.19523e-12
0
-1.09762e-12
-2.19523e-12
-6.5857e-12
4.39047e-12
0
0
0
0.0377862
0.103626
0.144557
0.155582
0.141788
0.113726
0.0819974
0.0538721
0.0325654
0.018247
0.00953356
0.00466777
0.0021509
0.000936361
0.000386417
0.000151632
5.67328e-05
2.02867e-05
6.94691e-06
2.28178e-06
7.19776e-07
2.1826e-07
6.36651e-08
1.78725e-08
4.80647e-09
1.23921e-09
2.96357e-10
5.92713e-11
7.68332e-12
-3.29285e-12
1.09762e-12
3.29285e-12
-6.58571e-12
0
5.48809e-12
0
-1.97571e-11
3.29285e-12
-9.87856e-12
0
5.48809e-12
1.09762e-12
-1.31714e-11
2.19523e-12
0
-5.48809e-12
4.39047e-12
0
-5.48809e-12
-1.09762e-12
0
-3.29285e-12
-8.78094e-12
0
-1.4269e-11
-1.09762e-12
0
7.68332e-12
8.78094e-12
6.58571e-12
1.09762e-12
-4.39047e-12
0
1.31714e-11
9.87856e-12
0
-1.09762e-12
2.19523e-12
-4.39047e-12
0
-7.68332e-12
3.29285e-12
8.78094e-12
9.87856e-12
-3.29285e-12
0.0132422
0.0363845
0.0509339
0.0550791
0.0504776
0.0407362
0.0295594
0.0195459
0.0118903
0.00670307
0.00352238
0.00173386
0.000802889
0.000351076
0.000145456
5.72782e-05
2.14969e-05
7.70802e-06
2.64599e-06
8.71028e-07
2.75329e-07
8.36571e-08
2.44385e-08
6.87438e-09
1.86266e-09
4.6539e-10
9.98832e-11
1.4269e-11
5.48809e-12
2.19524e-12
9.87856e-12
-2.19523e-12
-5.48809e-12
-1.09762e-11
0
-1.09762e-12
0
4.39047e-12
0
-1.09762e-12
0
9.87856e-12
1.09762e-12
0
5.48809e-12
5.48809e-12
1.09762e-12
2.19524e-12
-1.09762e-12
0
1.09762e-12
-1.09762e-12
0
-2.19524e-12
0
-4.39047e-12
-4.39047e-12
0
8.78094e-12
-1.09762e-12
0
1.09762e-12
0
-2.19524e-12
5.48809e-12
-4.39047e-12
-1.09762e-12
-1.09762e-12
0
1.09762e-12
-4.39047e-12
-7.68332e-12
-2.19524e-12
2.19523e-12
5.48809e-12
0.00446722
0.0122944
0.0172636
0.0187477
0.017269
0.0140154
0.010231
0.00680661
0.00416584
0.00236227
0.00124825
0.000617591
0.000287308
0.000126143
5.24465e-05
2.07137e-05
7.79293e-06
2.79979e-06
9.62645e-07
3.173e-07
1.00417e-07
3.05357e-08
8.9357e-09
2.52342e-09
6.79425e-10
1.70131e-10
4.28071e-11
1.09762e-11
-9.87856e-12
8.78094e-12
-1.4269e-11
-2.305e-11
-5.48809e-12
-1.09762e-12
5.48809e-12
1.09762e-12
3.29285e-12
-4.39047e-12
8.78094e-12
-4.39047e-12
1.09762e-12
-1.09762e-11
1.4269e-11
5.48809e-12
-1.53666e-11
6.5857e-12
-5.48809e-12
0
7.68332e-12
0
-1.09762e-12
4.39047e-12
8.78094e-12
0
1.4269e-11
2.19523e-12
1.09762e-12
3.29285e-12
0
-2.19523e-12
-2.19523e-12
5.48809e-12
1.09762e-12
0
-9.87856e-12
-1.09762e-12
0
-3.29285e-12
4.39047e-12
-1.09762e-12
-3.29285e-12
5.48809e-12
-3.29285e-12
-9.87856e-12
-1.09762e-12
0.00145136
0.00400026
0.00563284
0.00614095
0.00568351
0.00463748
0.00340483
0.0022787
0.00140293
0.000800137
0.000425098
0.00021137
9.87635e-05
4.35252e-05
1.81524e-05
7.18664e-06
2.70858e-06
9.74322e-07
3.35252e-07
1.10559e-07
3.49778e-08
1.06205e-08
3.12053e-09
8.78094e-10
2.18426e-10
4.71976e-11
9.87856e-12
-1.31714e-11
-7.68332e-12
1.20738e-11
-1.4269e-11
-1.97571e-11
-6.58571e-12
9.87856e-12
2.19523e-12
0
-1.09762e-12
-5.48809e-12
-1.09762e-12
1.09762e-12
0
1.09762e-12
0
0
-1.53666e-11
-2.19524e-12
0
-3.29285e-12
1.09762e-12
0
0
0
0
-1.09762e-12
-2.19524e-12
5.48809e-12
-1.09762e-12
-2.19524e-12
-9.87856e-12
0
0
-4.39047e-12
0
2.19524e-12
-4.39047e-12
1.09762e-12
8.78094e-12
4.39047e-12
0
0
9.87856e-12
1.20738e-11
5.48809e-12
-5.48809e-12
-4.39047e-12
0.000454357
0.00125405
0.00177048
0.00193734
0.00180123
0.00147741
0.00109087
0.000734387
0.000454824
0.000260892
0.000139354
6.96273e-05
3.26709e-05
1.44483e-05
6.04205e-06
2.39669e-06
9.04344e-07
3.2548e-07
1.11994e-07
3.69414e-08
1.16797e-08
3.53213e-09
1.02737e-09
2.64526e-10
7.35404e-11
-1.09762e-12
-2.305e-11
-2.08547e-11
-5.48809e-12
-5.48809e-12
9.87856e-12
1.75619e-11
2.19524e-12
3.29285e-12
-5.48809e-12
0
5.48809e-12
-1.09762e-12
0
5.48809e-12
-1.09762e-12
1.53666e-11
-1.09762e-12
-5.48809e-12
1.4269e-11
1.09762e-12
1.31714e-11
0
6.58571e-12
1.09762e-12
0
0
0
0
1.09762e-12
-2.19523e-12
-1.09762e-12
-1.09762e-12
-1.09762e-12
2.19524e-12
-1.09762e-12
-8.78094e-12
-1.09762e-12
0
-8.78094e-12
-9.87856e-12
0
2.19523e-12
4.39047e-12
1.09762e-12
1.31714e-11
-4.39047e-12
3.29285e-12
-1.09762e-12
-1.09762e-12
0.000137128
0.000378982
0.00053641
0.000589078
0.000550157
0.000453599
0.000336827
0.000228104
0.000142115
8.19904e-05
4.40302e-05
2.2105e-05
1.04145e-05
4.62068e-06
1.93691e-06
7.69451e-07
2.90527e-07
1.04548e-07
3.59371e-08
1.18246e-08
3.72751e-09
1.13055e-09
3.17211e-10
5.59785e-11
2.63428e-11
6.5857e-12
-1.31714e-11
-5.48809e-12
-1.31714e-11
-2.41476e-11
-1.4269e-11
5.48809e-12
6.5857e-12
-1.09762e-12
0
0
1.09762e-12
-8.78094e-12
1.09762e-12
0
-1.09762e-12
6.5857e-12
-1.09762e-12
0
1.53666e-11
-8.78094e-12
1.09762e-12
1.09762e-12
-2.19523e-12
-8.78094e-12
0
-1.09762e-12
0
1.09762e-12
3.29285e-12
3.29285e-12
1.86595e-11
0
2.19523e-12
0
0
-6.5857e-12
-1.09762e-12
3.29285e-12
0
-1.09762e-12
-7.68332e-12
0
0
1.09762e-12
-4.39047e-12
-8.78094e-12
0
0
-5.48809e-12
3.99167e-05
0.000110463
0.000156739
0.000172745
0.000162058
0.000134314
0.000100311
6.83415e-05
4.28366e-05
2.48579e-05
1.34211e-05
6.76996e-06
3.20222e-06
1.42513e-06
5.98655e-07
2.38075e-07
8.99102e-08
3.23182e-08
1.1075e-08
3.62104e-09
1.15579e-09
3.75385e-10
1.10859e-10
2.08547e-11
-4.39047e-12
3.29285e-12
-5.48809e-12
0
-6.5857e-12
-1.64643e-11
-3.51238e-11
-1.75619e-11
-4.39047e-12
4.39047e-12
0
0
-5.48809e-12
-6.58571e-12
0
0
1.09762e-12
1.09762e-12
1.09762e-12
0
-5.48809e-12
-1.09762e-12
-1.09762e-11
-4.39047e-12
-4.39047e-12
0
0
2.19524e-12
-1.09762e-12
2.19524e-12
-1.09762e-12
-1.09762e-12
9.87856e-12
0
0
-2.19524e-12
3.29285e-12
8.78094e-12
0
-1.86595e-11
8.78094e-12
1.09762e-11
0
1.09762e-12
-4.39047e-12
0
-1.20738e-11
0
0
-3.29285e-12
2.19524e-12
1.12115e-05
3.10663e-05
4.41913e-05
4.88791e-05
4.60634e-05
3.838e-05
2.88308e-05
1.97626e-05
1.24632e-05
7.2749e-06
3.949e-06
2.00137e-06
9.5031e-07
4.24157e-07
1.78511e-07
7.10323e-08
2.68016e-08
9.59427e-09
3.2698e-09
1.08006e-09
3.47945e-10
1.21836e-10
3.95142e-11
3.51238e-11
-9.87856e-12
6.5857e-12
0
0
-3.29285e-12
-1.64643e-11
-1.97571e-11
-7.68332e-12
8.78094e-12
2.19524e-12
1.09762e-12
0
1.09762e-12
9.87856e-12
1.09762e-12
-1.09762e-12
1.09762e-12
-7.68332e-12
2.19524e-12
-2.19523e-12
0
9.87856e-12
-1.09762e-12
0
0
7.68332e-12
0
1.09762e-12
0
1.09762e-12
-1.09762e-12
-2.19523e-12
-1.86595e-11
-7.68332e-12
-1.09762e-12
0
-1.09762e-12
1.09762e-11
1.09762e-12
-2.19524e-12
-1.09762e-12
-4.39047e-12
9.87856e-12
-1.09762e-12
2.19524e-12
-2.19524e-12
3.29285e-12
0
-2.19524e-12
3.29285e-12
-8.78094e-12
3.03937e-06
8.43307e-06
1.20262e-05
1.33503e-05
1.2639e-05
1.05874e-05
8.00022e-06
5.51782e-06
3.50126e-06
2.05578e-06
1.1219e-06
5.71239e-07
2.72253e-07
1.21845e-07
5.14003e-08
2.04728e-08
7.71845e-09
2.74843e-09
9.26389e-10
3.15016e-10
8.8907e-11
2.85381e-11
2.19523e-11
3.07333e-11
2.08547e-11
1.09762e-12
1.20738e-11
-8.78094e-12
3.29285e-12
-3.29285e-12
2.19523e-12
-8.78094e-12
1.31714e-11
-4.39047e-12
7.68332e-12
0
5.48809e-12
5.48809e-12
0
0
-1.09762e-12
-6.5857e-12
1.09762e-12
0
4.39047e-12
0
2.19523e-12
0
-1.09762e-12
2.19523e-12
1.09762e-12
-2.19523e-12
7.68332e-12
-3.29285e-12
-2.19523e-12
5.48809e-12
-7.68332e-12
1.20738e-11
1.09762e-12
0
1.09762e-12
-2.19523e-12
-1.09762e-12
1.31714e-11
0
1.31714e-11
0
-2.19523e-12
0
1.09762e-12
4.39047e-12
-2.19523e-12
0
2.19523e-12
-1.09762e-12
7.95404e-07
2.21008e-06
3.15983e-06
3.52063e-06
3.34852e-06
2.82019e-06
2.14373e-06
1.48772e-06
9.49838e-07
5.60951e-07
3.0776e-07
1.57409e-07
7.53229e-08
3.38044e-08
1.4291e-08
5.70103e-09
2.15133e-09
7.6943e-10
2.60135e-10
9.43951e-11
2.305e-11
1.09762e-11
2.305e-11
5.48809e-12
1.31714e-11
6.5857e-12
-3.29285e-12
-5.48809e-12
1.53666e-11
9.87856e-12
9.87856e-12
-4.39047e-12
-1.53666e-11
5.48809e-12
2.19523e-12
-2.19524e-12
0
1.09762e-12
-1.09762e-12
2.19524e-12
1.09762e-12
3.29285e-12
-3.29285e-12
2.19523e-12
2.19524e-12
-1.09762e-12
-1.09762e-12
-5.48809e-12
-2.19524e-12
2.19523e-12
-7.68332e-12
-7.68332e-12
-1.09762e-12
0
-1.31714e-11
6.5857e-12
1.09762e-12
1.09762e-11
0
-1.09762e-12
1.09762e-12
0
-1.09762e-12
4.39047e-12
3.29285e-12
4.39047e-12
-9.87856e-12
0
-1.09762e-12
1.09762e-12
1.09762e-12
1.09762e-12
0
1.09762e-12
1.31714e-11
2.01176e-07
5.59688e-07
8.02275e-07
8.9716e-07
8.57312e-07
7.25938e-07
5.55092e-07
3.87614e-07
2.48979e-07
1.47893e-07
8.15738e-08
4.19026e-08
2.01413e-08
9.05864e-09
3.81532e-09
1.53447e-09
5.67468e-10
2.23914e-10
8.34189e-11
3.29285e-12
0
1.09762e-12
-1.31714e-11
-5.48809e-12
9.87856e-12
2.305e-11
1.20738e-11
8.78094e-12
-6.5857e-12
-7.68332e-12
-2.19524e-12
7.68332e-12
-8.78094e-12
-1.09762e-12
-7.68332e-12
-1.09762e-12
1.09762e-11
1.09762e-12
1.09762e-12
0
0
0
-1.09762e-12
0
0
1.53666e-11
-1.09762e-12
1.09762e-12
0
-1.09762e-12
-1.09762e-12
-3.29285e-12
-7.68332e-12
1.09762e-12
1.09762e-12
-4.39047e-12
0
-3.29285e-12
-2.19523e-12
2.19524e-12
-1.09762e-12
2.19523e-12
0
6.58571e-12
-2.19523e-12
-1.31714e-11
2.19524e-12
1.09762e-12
0
-1.09762e-12
7.68332e-12
3.29285e-12
0
3.29285e-12
-4.39047e-12
4.91294e-08
1.36789e-07
1.96623e-07
2.20647e-07
2.11867e-07
1.80336e-07
1.38708e-07
9.74509e-08
6.29747e-08
3.76263e-08
2.08492e-08
1.07567e-08
5.18954e-09
2.33683e-09
9.8127e-10
4.09411e-10
1.64643e-10
9.87856e-11
5.48809e-11
2.19523e-12
1.20738e-11
4.39047e-12
-7.68332e-12
8.78094e-12
1.53666e-11
-4.39047e-12
2.74404e-11
3.51238e-11
2.19523e-12
5.48809e-12
1.31714e-11
1.4269e-11
5.48809e-12
-2.19523e-12
2.19523e-12
2.19523e-12
4.39047e-12
-7.68332e-12
0
-2.19523e-12
1.09762e-12
-1.09762e-12
0
1.09762e-12
-1.09762e-12
2.19523e-12
1.09762e-12
9.87856e-12
1.09762e-12
-2.19523e-12
7.68332e-12
6.5857e-12
2.19523e-12
-2.19523e-12
1.4269e-11
-6.5857e-12
-1.09762e-12
-3.29285e-12
1.09762e-12
2.19523e-12
-1.09762e-12
-2.19523e-12
2.19523e-12
-1.20738e-11
-3.29285e-12
-1.09762e-12
0
1.09762e-12
1.09762e-12
0
-7.68332e-12
0
-4.39047e-12
-1.4269e-11
-1.09762e-12
1.14328e-08
3.21031e-08
4.63041e-08
5.2161e-08
5.0317e-08
4.30859e-08
3.33401e-08
2.35582e-08
1.53304e-08
9.19474e-09
5.12039e-09
2.65733e-09
1.30177e-09
6.11373e-10
2.61233e-10
1.02078e-10
7.57356e-11
4.39047e-11
2.52452e-11
2.52452e-11
6.58571e-12
-1.86595e-11
9.87856e-12
1.20738e-11
-1.86595e-11
-1.86595e-11
-6.58571e-12
1.53666e-11
3.18309e-11
2.52452e-11
1.09762e-11
6.5857e-12
5.48809e-12
1.4269e-11
0
1.09762e-12
-1.20738e-11
-1.31714e-11
-2.19524e-12
0
0
6.58571e-12
1.09762e-12
0
-4.39047e-12
-1.64643e-11
1.09762e-12
1.09762e-12
1.09762e-11
0
-1.09762e-12
3.29285e-12
-6.5857e-12
0
-2.19524e-12
0
0
-7.68332e-12
4.39047e-12
-3.29285e-12
0
-1.09762e-12
-5.48809e-12
-2.08547e-11
2.19523e-12
0
-2.19524e-12
-3.29285e-12
1.09762e-12
-1.09762e-12
1.09762e-12
-2.19524e-12
0
0
1.31714e-11
2.62111e-09
7.56917e-09
1.09432e-08
1.23614e-08
1.19816e-08
1.03418e-08
8.03127e-09
5.71529e-09
3.70885e-09
2.21828e-09
1.2425e-09
6.61863e-10
3.23797e-10
1.64643e-10
5.04904e-11
3.29285e-11
2.52452e-11
1.09762e-11
-8.78094e-12
1.09762e-11
-4.39047e-12
-1.09762e-11
-8.78094e-12
-2.19524e-11
-3.40261e-11
-2.52452e-11
-2.74404e-11
-2.41476e-11
-4.39047e-12
1.86595e-11
1.4269e-11
6.5857e-12
3.29285e-12
-4.39047e-12
-4.39047e-12
2.19524e-12
-5.48809e-12
6.58571e-12
-8.78094e-12
2.19524e-12
-1.09762e-12
-1.09762e-12
-1.09762e-12
0
0
1.09762e-12
6.5857e-12
-2.19524e-12
8.78094e-12
-2.19523e-12
-1.09762e-12
1.09762e-12
0
3.29285e-12
0
-1.09762e-12
0
0
-1.09762e-12
0
0
3.29285e-12
-1.09762e-12
7.68332e-12
0
-1.09762e-12
0
0
6.58571e-12
4.39047e-12
6.5857e-12
-1.97571e-11
2.19524e-12
1.09762e-11
0
7.24428e-10
1.69033e-09
2.40598e-09
2.70014e-09
2.60794e-09
2.27426e-09
1.75399e-09
1.25128e-09
8.03456e-10
4.75268e-10
2.63428e-10
1.39397e-10
4.82952e-11
5.48809e-12
-1.64643e-11
-5.48809e-12
-1.09762e-12
-5.48809e-12
-1.4269e-11
1.53666e-11
1.31714e-11
1.09762e-12
-1.53666e-11
-1.4269e-11
-2.08547e-11
-3.62214e-11
-2.63428e-11
-2.96357e-11
-2.08547e-11
-1.09762e-12
2.19523e-12
2.19523e-12
-1.09762e-12
-1.09762e-11
1.09762e-12
1.09762e-12
-5.48809e-12
1.20738e-11
-1.09762e-12
1.09762e-12
1.09762e-12
-6.5857e-12
-1.09762e-12
1.09762e-12
0
0
1.75619e-11
0
-1.09762e-11
0
2.19523e-12
0
2.08547e-11
0
0
0
8.78094e-12
0
-1.09762e-12
-2.19523e-12
-1.09762e-12
1.09762e-12
4.39047e-12
1.86595e-11
1.09762e-12
0
-1.09762e-12
1.31714e-11
0
1.09762e-12
-7.68332e-12
0
0
0
-7.68332e-12
2.01962e-10
2.45866e-10
3.55628e-10
3.84166e-10
3.09528e-10
2.78795e-10
2.14035e-10
1.25128e-10
8.78094e-11
6.14666e-11
4.82952e-11
1.97571e-11
3.29285e-12
-1.4269e-11
-3.29285e-12
-2.41476e-11
-1.86595e-11
-3.18309e-11
9.87856e-12
4.39047e-12
5.48809e-12
-9.87856e-12
-1.09762e-11
-6.58571e-12
0
-1.09762e-11
-1.97571e-11
-2.63428e-11
-2.08547e-11
-3.29285e-11
-2.305e-11
-1.20738e-11
-1.09762e-12
1.09762e-12
2.19523e-12
0
1.09762e-12
0
8.78094e-12
0
-1.09762e-12
0
1.09762e-12
-2.19523e-12
0
-1.09762e-12
2.19523e-12
0
-7.68332e-12
2.19523e-12
-2.19524e-12
-1.31714e-11
-1.09762e-12
-2.19524e-12
1.09762e-12
3.29285e-12
7.68332e-12
-1.20738e-11
-1.09762e-12
2.19524e-12
-1.09762e-12
-5.48809e-12
-3.29285e-12
0
0
2.19524e-12
1.09762e-12
0
-8.78094e-12
4.39047e-12
1.09762e-12
2.41476e-11
2.19524e-12
4.39047e-12
0
1.36105e-10
3.33676e-10
4.43437e-10
4.71976e-10
4.21485e-10
3.24895e-10
2.5355e-10
1.71228e-10
9.65903e-11
7.4638e-11
6.25642e-11
3.07333e-11
1.09762e-11
-2.19523e-12
9.87856e-12
-1.64643e-11
-4.39047e-11
-3.84166e-11
0
-1.4269e-11
-3.29285e-12
9.87856e-12
-8.78094e-12
-2.305e-11
-4.39047e-12
4.39047e-12
5.48809e-12
-1.09762e-12
-1.20738e-11
-1.75619e-11
-9.87856e-12
-2.08547e-11
8.78094e-12
-1.09762e-12
-7.68332e-12
-2.19524e-12
5.48809e-12
0
3.29285e-12
-2.19524e-12
-6.5857e-12
0
2.19524e-12
-2.19523e-12
0
0
-1.86595e-11
0
-1.09762e-12
-1.09762e-12
-4.39047e-12
-5.48809e-12
-1.4269e-11
2.19524e-12
2.19524e-12
0
-8.78094e-12
-1.64643e-11
-8.78094e-12
-1.20738e-11
-3.29285e-12
-1.09762e-12
1.09762e-12
-2.19524e-12
-1.09762e-12
-1.09762e-11
1.09762e-12
-6.5857e-12
-1.09762e-12
-1.09762e-12
-2.19523e-12
0
-9.87856e-12
0
5.48809e-12
2.19523e-11
7.02475e-11
-3.7319e-11
4.39047e-12
2.19523e-11
-3.51238e-11
-2.85381e-11
1.09762e-12
-3.29285e-12
5.48809e-12
-7.68332e-12
-1.86595e-11
-1.31714e-11
-1.20738e-11
4.39047e-12
-1.53666e-11
-1.31714e-11
3.29285e-12
-1.4269e-11
1.09762e-11
1.97571e-11
2.74404e-11
2.19523e-11
1.20738e-11
3.29285e-12
3.29285e-12
2.63428e-11
2.08547e-11
2.305e-11
9.87856e-12
-1.64643e-11
-3.62214e-11
-2.96357e-11
0
-2.19523e-12
-1.09762e-12
0
-1.20738e-11
-1.09762e-12
-1.09762e-12
0
3.29285e-12
5.48809e-12
4.39047e-12
-2.19523e-12
0
-9.87856e-12
-1.09762e-12
1.09762e-12
-4.39047e-12
1.09762e-12
1.31714e-11
1.09762e-12
0
-3.29285e-12
6.5857e-12
-7.68332e-12
7.68332e-12
-8.78094e-12
-2.19523e-12
-1.31714e-11
5.48809e-12
4.39047e-12
-7.68332e-12
1.09762e-12
-1.09762e-12
-1.09762e-12
1.09762e-12
2.19523e-12
-8.78094e-12
-1.31714e-11
-4.39047e-12
-6.5857e-12
-7.68332e-12
-1.09762e-12
-7.90285e-11
-1.66838e-10
-3.00747e-10
-2.83185e-10
-2.48062e-10
-2.28304e-10
-1.6574e-10
-9.54927e-11
-5.48809e-11
-3.29285e-11
-3.40261e-11
-2.63428e-11
-6.58571e-12
1.64643e-11
1.4269e-11
3.29285e-12
4.39047e-12
-6.58571e-12
-1.20738e-11
1.53666e-11
1.4269e-11
9.87856e-12
1.97571e-11
2.52452e-11
1.97571e-11
2.19523e-11
6.58571e-12
4.39047e-12
1.75619e-11
-4.39047e-12
-1.09762e-12
-1.20738e-11
-2.85381e-11
-1.09762e-12
1.09762e-12
0
-1.09762e-12
-9.87856e-12
-8.78094e-12
0
1.09762e-12
0
-2.19524e-12
-4.39047e-12
5.48809e-12
-8.78094e-12
0
-1.31714e-11
-1.09762e-12
1.09762e-12
0
1.09762e-12
-1.09762e-12
-1.31714e-11
-1.09762e-12
4.39047e-12
0
4.39047e-12
1.86595e-11
1.31714e-11
4.39047e-12
2.19523e-12
0
2.19524e-12
0
1.09762e-11
-2.19524e-12
0
0
5.48809e-12
8.78094e-12
0
9.87856e-12
2.19523e-12
-6.58571e-12
8.78094e-11
1.22933e-10
2.67819e-10
2.766e-10
2.87576e-10
2.56842e-10
2.14035e-10
1.58057e-10
9.7688e-11
5.37833e-11
3.62214e-11
2.85381e-11
1.09762e-11
2.08547e-11
1.31714e-11
6.58571e-12
0
-8.78094e-12
1.09762e-12
-2.41476e-11
-3.29285e-12
1.53666e-11
3.29285e-12
0
3.29285e-12
3.51238e-11
1.75619e-11
1.64643e-11
9.87856e-12
2.19524e-12
1.86595e-11
2.74404e-11
3.18309e-11
-3.29285e-12
0
-1.09762e-12
1.09762e-12
1.20738e-11
8.78094e-12
-4.39047e-12
0
-3.29285e-12
3.29285e-12
-1.64643e-11
1.09762e-12
2.19524e-12
0
0
-2.19524e-12
-4.39047e-12
1.09762e-12
3.29285e-12
0
-2.19524e-12
2.19524e-12
-2.305e-11
-1.09762e-12
0
7.68332e-12
1.09762e-12
1.4269e-11
-2.19523e-12
-1.09762e-12
-1.09762e-12
-4.39047e-12
1.09762e-12
-1.09762e-12
1.20738e-11
0
0
2.08547e-11
9.87856e-12
6.58571e-12
4.39047e-12
0
1.75619e-11
-1.75619e-11
4.39047e-12
-3.07333e-11
-3.29285e-11
-1.09762e-11
-1.09762e-11
-1.09762e-11
-7.68332e-12
-1.4269e-11
-2.08547e-11
1.09762e-12
-1.31714e-11
-1.53666e-11
-7.68332e-12
1.31714e-11
1.97571e-11
3.7319e-11
2.305e-11
3.29285e-12
1.75619e-11
1.86595e-11
5.48809e-12
7.68332e-12
1.20738e-11
1.97571e-11
2.85381e-11
4.93928e-11
2.96357e-11
3.51238e-11
2.63428e-11
3.51238e-11
2.41476e-11
3.29285e-12
1.4269e-11
1.09762e-12
2.19523e-12
7.68332e-12
8.78094e-12
-1.09762e-12
1.4269e-11
-5.48809e-12
5.48809e-12
9.87856e-12
0
8.78094e-12
9.87856e-12
2.305e-11
2.19523e-12
-6.5857e-12
4.39047e-12
6.5857e-12
1.53666e-11
2.08547e-11
1.09762e-12
5.48809e-12
4.39047e-12
1.4269e-11
-1.09762e-11
0
0
-2.19523e-12
-1.09762e-12
0
-3.29285e-12
0
4.39047e-12
-4.39047e-12
-2.19523e-12
-1.31714e-11
-5.48809e-12
6.5857e-12
-1.09762e-12
-5.48809e-12
2.19523e-12
-1.09762e-10
-2.10743e-10
-3.38066e-10
-3.75385e-10
-3.18309e-10
-2.32695e-10
-1.54764e-10
-9.98832e-11
-6.0369e-11
-4.17095e-11
-1.97571e-11
-4.39047e-12
8.78094e-12
3.29285e-12
1.31714e-11
1.97571e-11
2.74404e-11
3.40261e-11
1.09762e-12
1.31714e-11
1.09762e-11
-1.20738e-11
3.29285e-12
1.75619e-11
2.96357e-11
1.53666e-11
2.74404e-11
2.74404e-11
2.19523e-11
2.305e-11
1.20738e-11
7.68332e-12
5.48809e-12
1.75619e-11
0
-5.48809e-12
-2.19524e-12
-1.09762e-12
-9.87856e-12
4.39047e-12
0
0
-2.19524e-12
1.86595e-11
1.09762e-12
-1.09762e-12
2.19523e-12
-1.09762e-12
1.09762e-12
8.78094e-12
1.09762e-12
4.39047e-12
1.4269e-11
1.09762e-12
-2.19524e-12
1.4269e-11
1.31714e-11
2.19524e-12
2.19523e-12
0
0
-2.19523e-12
2.19524e-12
8.78094e-12
3.29285e-12
-1.09762e-12
0
-1.20738e-11
1.09762e-12
0
-1.64643e-11
-9.87856e-12
1.09762e-12
-7.68332e-12
0
8.78094e-12
1.31714e-10
2.15133e-10
2.43671e-10
2.8099e-10
2.54647e-10
2.27207e-10
1.51471e-10
1.16347e-10
5.92713e-11
5.1588e-11
1.86595e-11
1.4269e-11
1.86595e-11
2.08547e-11
1.64643e-11
2.08547e-11
2.19524e-12
-5.48809e-12
-3.29285e-11
-2.08547e-11
-1.64643e-11
-5.48809e-12
5.48809e-12
3.29285e-12
1.64643e-11
1.4269e-11
-6.58571e-12
-2.19523e-12
1.64643e-11
1.20738e-11
-2.19523e-12
-1.20738e-11
3.29285e-12
-9.87856e-12
0
-1.09762e-12
2.19524e-12
0
1.31714e-11
-9.87856e-12
1.09762e-11
-1.4269e-11
-4.39047e-12
1.09762e-12
0
-1.09762e-11
-7.68332e-12
0
5.48809e-12
0
-2.19524e-12
-1.4269e-11
-8.78094e-12
0
-2.08547e-11
-4.39047e-12
-4.39047e-12
1.09762e-12
0
0
-2.19523e-12
4.39047e-12
0
5.48809e-12
0
-1.09762e-12
0
6.58571e-12
1.53666e-11
5.48809e-12
-5.48809e-12
-8.78094e-12
1.09762e-12
-4.39047e-12
2.63428e-11
1.00981e-10
4.82952e-11
3.51238e-11
1.97571e-11
8.78094e-12
-8.78094e-12
-5.48809e-12
0
-1.97571e-11
-1.09762e-11
-8.78094e-12
-9.87856e-12
7.68332e-12
1.09762e-12
1.20738e-11
-1.09762e-12
-1.64643e-11
-2.19523e-12
-2.85381e-11
-4.06118e-11
-2.08547e-11
-2.19523e-12
-2.08547e-11
-9.87856e-12
5.48809e-12
-7.68332e-12
-1.4269e-11
-4.39047e-12
1.31714e-11
1.97571e-11
2.52452e-11
-5.48809e-12
-1.75619e-11
-1.09762e-12
5.48809e-12
1.09762e-12
2.19523e-12
1.09762e-12
0