/*--------------------------------*- C++ -*----------------------------------*\
  =========                 |
  \\      /  F ield         | OpenFOAM: The Open Source CFD Toolbox
   \\    /   O peration     | Website:  https://openfoam.org
    \\  /    A nd           | Version:  10
     \\/     M anipulation  |
\*---------------------------------------------------------------------------*/
FoamFile
{
    format      ascii;
    class       volScalarField;
    location    "441";
    object      T;
}
// * * * * * * * * * * * * * * * * * * * * * * * * * * * * * * * * * * * * * //

dimensions      [0 0 0 1 0 0 0];

internalField   nonuniform List<scalar> 
11250
(
249.88
167.668
139.543
127.197
120.488
116.252
113.301
111.108
109.403
108.034
106.907
105.964
105.163
104.476
103.883
103.367
102.918
102.525
102.181
101.88
101.617
101.387
101.186
101.012
100.86
100.728
100.615
100.517
100.434
100.362
100.301
100.25
100.206
100.169
100.139
100.113
100.092
100.074
100.06
100.048
100.038
100.03
100.024
100.019
100.015
100.012
100.009
100.007
100.005
100.004
100.003
100.002
100.002
100.001
100.001
100.001
100.001
100
100
100
100
100
100
100
100
100
100
100
100
100
100
100
100
100
100
331.611
248.919
202.856
175.961
159.002
147.482
139.16
132.852
127.89
123.876
120.558
117.769
115.396
113.356
111.591
110.056
108.717
107.545
106.519
105.621
104.835
104.148
103.548
103.026
102.572
102.18
101.84
101.548
101.298
101.084
100.902
100.747
100.617
100.507
100.415
100.338
100.275
100.222
100.179
100.143
100.114
100.091
100.072
100.057
100.044
100.035
100.027
100.021
100.016
100.012
100.009
100.007
100.005
100.004
100.003
100.002
100.002
100.001
100.001
100.001
100
100
100
100
100
100
100
100
100
100
100
100
100
100
100
359.259
293.554
247.019
214.815
192.107
175.552
163.048
153.296
145.482
139.079
133.738
129.219
125.355
122.023
119.132
116.611
114.408
112.478
110.787
109.304
108.006
106.87
105.878
105.014
104.263
103.613
103.051
102.567
102.152
101.797
101.495
101.239
101.023
100.841
100.688
100.561
100.456
100.369
100.297
100.238
100.19
100.151
100.119
100.094
100.074
100.058
100.045
100.035
100.027
100.021
100.016
100.012
100.009
100.007
100.005
100.004
100.003
100.002
100.002
100.001
100.001
100.001
100
100
100
100
100
100
100
100
100
100
100
100
100
371.134
319.038
276.879
244.215
219.111
199.631
184.254
171.883
161.748
153.31
146.19
140.115
134.885
130.353
126.404
122.952
119.926
117.271
114.94
112.894
111.1
109.529
108.156
106.96
105.919
105.017
104.238
103.567
102.991
102.498
102.079
101.723
101.422
101.169
100.957
100.781
100.634
100.513
100.413
100.331
100.264
100.21
100.166
100.131
100.103
100.08
100.062
100.048
100.037
100.029
100.022
100.017
100.013
100.009
100.007
100.005
100.004
100.003
100.002
100.002
100.001
100.001
100.001
100
100
100
100
100
100
100
100
100
100
100
100
377.38
334.612
297.285
266.112
240.564
219.693
202.553
188.343
176.436
166.352
157.732
150.304
143.86
138.241
133.324
129.008
125.213
121.875
118.939
116.357
114.09
112.103
110.364
108.847
107.528
106.383
105.393
104.54
103.807
103.181
102.647
102.194
101.812
101.49
101.22
100.995
100.808
100.653
100.526
100.422
100.337
100.268
100.212
100.167
100.131
100.102
100.08
100.062
100.047
100.036
100.028
100.021
100.016
100.012
100.009
100.007
100.005
100.004
100.003
100.002
100.001
100.001
100.001
100.001
100
100
100
100
100
100
100
100
100
100
100
381.164
344.777
311.59
282.457
257.43
236.135
218.048
202.641
189.452
178.093
168.253
159.685
152.191
145.613
139.825
134.724
130.223
126.252
122.751
119.666
116.953
114.571
112.485
110.663
109.077
107.699
106.507
105.479
104.597
103.841
103.198
102.651
102.189
101.801
101.475
101.203
100.977
100.79
100.636
100.51
100.407
100.324
100.256
100.202
100.159
100.124
100.096
100.075
100.057
100.044
100.034
100.026
100.019
100.015
100.011
100.008
100.006
100.005
100.003
100.002
100.002
100.001
100.001
100.001
100
100
100
100
100
100
100
100
100
100
100
383.674
351.781
321.905
294.785
270.676
249.503
231.013
214.892
200.822
188.512
177.711
168.207
159.825
152.417
145.863
140.059
134.92
130.371
126.349
122.798
119.669
116.918
114.506
112.396
110.557
108.958
107.575
106.381
105.355
104.476
103.727
103.091
102.553
102.1
101.72
101.404
101.14
100.922
100.743
100.596
100.476
100.378
100.299
100.236
100.185
100.145
100.112
100.087
100.067
100.052
100.039
100.03
100.023
100.017
100.013
100.01
100.007
100.005
100.004
100.003
100.002
100.002
100.001
100.001
100.001
100
100
100
100
100
100
100
100
100
100
385.441
356.814
329.538
304.206
281.118
260.341
241.789
225.292
210.648
197.652
186.113
175.86
166.742
158.629
151.41
144.988
139.279
134.209
129.714
125.737
122.225
119.131
116.415
114.036
111.96
110.154
108.59
107.239
106.077
105.081
104.232
103.511
102.901
102.387
101.956
101.596
101.296
101.049
100.845
100.678
100.541
100.43
100.341
100.269
100.211
100.165
100.128
100.099
100.076
100.059
100.045
100.034
100.026
100.019
100.015
100.011
100.008
100.006
100.004
100.003
100.002
100.002
100.001
100.001
100.001
100
100
100
100
100
100
100
100
100
100
386.737
360.548
335.313
311.5
289.397
269.133
250.713
234.065
219.073
205.599
193.507
182.664
172.946
164.243
156.457
149.498
143.287
137.754
132.834
128.469
124.608
121.201
118.204
115.576
113.28
111.281
109.548
108.049
106.76
105.655
104.711
103.91
103.231
102.659
102.179
101.779
101.445
101.17
100.942
100.756
100.604
100.48
100.38
100.3
100.235
100.184
100.143
100.111
100.085
100.065
100.05
100.038
100.029
100.022
100.016
100.012
100.009
100.007
100.005
100.004
100.003
100.002
100.001
100.001
100.001
100.001
100
100
100
100
100
100
100
100
100
387.713
363.386
339.763
317.216
296.005
276.279
258.093
241.437
226.253
212.46
199.963
188.663
178.463
169.274
161.009
153.589
146.941
140.999
135.701
130.99
126.813
123.121
119.868
117.012
114.513
112.336
110.445
108.81
107.402
106.194
105.163
104.285
103.542
102.916
102.391
101.951
101.586
101.284
101.035
100.83
100.663
100.527
100.418
100.329
100.258
100.202
100.157
100.122
100.094
100.072
100.055
100.042
100.032
100.024
100.018
100.013
100.01
100.007
100.005
100.004
100.003
100.002
100.002
100.001
100.001
100.001
100
100
100
100
100
100
100
100
100
388.465
365.583
343.242
321.743
301.313
282.103
264.195
247.615
232.348
218.35
205.562
193.914
183.333
173.746
165.081
157.269
150.246
143.947
138.316
133.297
128.837
124.888
121.404
118.34
115.656
113.315
111.28
109.519
108.001
106.698
105.585
104.637
103.834
103.157
102.589
102.114
101.719
101.391
101.121
100.9
100.719
100.572
100.453
100.357
100.28
100.219
100.17
100.132
100.102
100.078
100.06
100.045
100.034
100.026
100.019
100.015
100.011
100.008
100.006
100.004
100.003
100.002
100.002
100.001
100.001
100.001
100
100
100
100
100
100
100
100
100
389.054
367.309
345.994
325.358
305.599
286.863
269.242
252.785
237.504
223.384
210.392
198.483
187.602
177.694
168.699
160.557
153.212
146.606
140.683
135.393
130.682
126.504
122.811
119.56
116.709
114.218
112.052
110.175
108.556
107.166
105.977
104.964
104.106
103.382
102.774
102.266
101.842
101.492
101.203
100.965
100.771
100.614
100.486
100.383
100.301
100.235
100.183
100.142
100.109
100.084
100.064
100.049
100.037
100.028
100.021
100.016
100.012
100.009
100.006
100.005
100.003
100.002
100.002
100.001
100.001
100.001
100
100
100
100
100
100
100
100
100
389.52
368.679
348.192
328.267
309.078
290.764
273.42
257.107
241.855
227.671
214.54
202.437
191.323
181.157
171.891
163.474
155.856
148.986
142.811
137.283
132.352
127.97
124.092
120.673
117.671
115.046
112.76
110.778
109.067
107.597
106.339
105.267
104.358
103.591
102.946
102.406
101.957
101.585
101.278
101.026
100.82
100.653
100.517
100.408
100.32
100.25
100.195
100.151
100.116
100.089
100.068
100.052
100.039
100.03
100.022
100.017
100.012
100.009
100.007
100.005
100.004
100.003
100.002
100.001
100.001
100.001
100
100
100
100
100
100
100
100
100
389.892
369.777
349.96
330.62
311.914
293.968
276.879
260.716
245.519
231.309
218.088
205.842
194.55
184.178
174.691
166.045
158.198
151.102
144.711
138.977
133.853
129.292
125.25
121.681
118.544
115.798
113.405
111.329
109.535
107.992
106.671
105.545
104.589
103.782
103.104
102.536
102.063
101.671
101.348
101.082
100.865
100.689
100.546
100.43
100.338
100.264
100.206
100.159
100.123
100.094
100.072
100.055
100.042
100.031
100.024
100.018
100.013
100.01
100.007
100.005
100.004
100.003
100.002
100.001
100.001
100.001
100.001
100
100
100
100
100
100
100
100
390.192
370.662
351.39
332.533
314.232
296.605
279.746
263.728
248.599
234.389
221.111
208.763
197.333
186.799
177.133
168.299
160.26
152.974
146.397
140.485
135.194
130.477
126.29
122.589
119.333
116.479
113.99
111.829
109.96
108.352
106.974
105.798
104.801
103.958
103.249
102.655
102.161
101.751
101.412
101.134
100.907
100.722
100.572
100.451
100.354
100.277
100.216
100.167
100.129
100.099
100.076
100.058
100.044
100.033
100.025
100.018
100.014
100.01
100.007
100.005
100.004
100.003
100.002
100.002
100.001
100.001
100.001
100
100
100
100
100
100
100
100
390.434
371.38
352.552
334.093
316.132
298.777
282.123
266.24
251.184
236.99
223.679
211.259
199.725
189.063
179.252
170.264
162.065
154.618
147.884
141.82
136.384
131.531
127.218
123.401
120.04
117.091
114.517
112.28
110.344
108.677
107.248
106.028
104.993
104.117
103.381
102.764
102.25
101.823
101.471
101.182
100.945
100.752
100.596
100.47
100.37
100.289
100.225
100.174
100.135
100.103
100.079
100.06
100.046
100.034
100.026
100.019
100.014
100.011
100.008
100.006
100.004
100.003
100.002
100.002
100.001
100.001
100.001
100
100
100
100
100
100
100
100
390.631
371.963
353.5
335.37
317.691
300.569
284.093
268.334
253.35
239.181
225.854
213.383
201.771
191.009
181.082
171.968
163.636
156.055
149.188
142.994
137.434
132.464
128.041
124.124
120.67
117.637
114.988
112.684
110.689
108.969
107.495
106.236
105.166
104.261
103.5
102.862
102.33
101.889
101.524
101.225
100.979
100.78
100.618
100.488
100.383
100.3
100.233
100.181
100.14
100.107
100.082
100.062
100.047
100.036
100.027
100.02
100.015
100.011
100.008
100.006
100.004
100.003
100.002
100.002
100.001
100.001
100.001
100
100
100
100
100
100
100
100
390.792
372.439
354.274
336.415
318.973
302.048
285.725
270.077
255.161
241.022
227.691
215.186
203.515
192.675
182.656
173.438
164.998
157.305
150.325
144.022
138.355
133.284
128.767
124.762
121.228
118.122
115.407
113.044
110.996
109.231
107.716
106.422
105.322
104.391
103.607
102.95
102.403
101.948
101.572
101.263
101.011
100.805
100.638
100.504
100.396
100.31
100.241
100.187
100.144
100.111
100.085
100.064
100.049
100.037
100.028
100.021
100.015
100.011
100.008
100.006
100.005
100.003
100.002
100.002
100.001
100.001
100.001
100
100
100
100
100
100
100
100
390.923
372.828
354.907
337.272
320.028
303.268
287.077
271.526
256.673
242.566
229.238
216.71
204.996
194.095
184.002
174.701
166.171
158.385
151.312
144.916
139.159
134.002
129.404
125.324
121.719
118.55
115.778
113.363
111.269
109.463
107.913
106.587
105.461
104.507
103.703
103.03
102.468
102.001
101.615
101.298
101.039
100.827
100.656
100.518
100.407
100.318
100.248
100.192
100.148
100.114
100.087
100.066
100.05
100.038
100.028
100.021
100.016
100.012
100.009
100.006
100.005
100.003
100.002
100.002
100.001
100.001
100.001
100
100
100
100
100
100
100
100
391.03
373.146
355.426
337.976
320.895
304.275
288.196
272.729
257.934
243.858
230.537
217.995
206.249
195.301
185.149
175.781
167.178
159.315
152.163
145.69
139.857
134.627
129.96
125.814
122.15
118.926
116.103
113.643
111.51
109.668
108.087
106.734
105.584
104.609
103.789
103.1
102.526
102.048
101.654
101.33
101.064
100.848
100.672
100.531
100.417
100.326
100.254
100.197
100.152
100.117
100.089
100.068
100.052
100.039
100.029
100.022
100.016
100.012
100.009
100.007
100.005
100.003
100.003
100.002
100.001
100.001
100.001
100
100
100
100
100
100
100
100
391.118
373.406
355.851
338.553
321.609
305.105
289.121
273.727
258.983
244.936
231.624
219.075
207.305
196.322
186.123
176.701
168.038
160.112
152.895
146.356
140.459
135.168
130.442
126.241
122.525
119.254
116.388
113.889
111.721
109.849
108.24
106.864
105.692
104.7
103.864
103.162
102.577
102.09
101.688
101.357
101.086
100.866
100.687
100.542
100.426
100.333
100.26
100.201
100.155
100.119
100.091
100.07
100.053
100.04
100.03
100.022
100.017
100.012
100.009
100.007
100.005
100.004
100.003
100.002
100.001
100.001
100.001
100
100
100
100
100
100
100
100
391.19
373.619
356.199
339.027
322.195
305.788
289.884
274.553
259.853
245.833
232.533
219.98
208.193
197.182
186.947
177.481
168.769
160.791
153.52
146.927
140.977
135.633
130.857
126.61
122.85
119.539
116.636
114.104
111.905
110.006
108.374
106.977
105.788
104.78
103.93
103.217
102.622
102.127
101.718
101.382
101.106
100.881
100.699
100.552
100.434
100.34
100.265
100.205
100.158
100.122
100.093
100.071
100.054
100.041
100.03
100.023
100.017
100.013
100.009
100.007
100.005
100.004
100.003
100.002
100.001
100.001
100.001
100
100
100
100
100
100
100
100
391.248
373.793
356.484
339.415
322.676
306.35
290.514
275.235
260.574
246.578
233.289
220.735
208.936
197.904
187.64
178.139
169.388
161.367
154.052
147.414
141.419
136.032
131.214
126.927
123.13
119.784
116.85
114.289
112.065
110.143
108.49
107.076
105.871
104.849
103.988
103.265
102.662
102.16
101.745
101.403
101.123
100.895
100.71
100.561
100.441
100.345
100.269
100.209
100.161
100.124
100.095
100.072
100.055
100.041
100.031
100.023
100.017
100.013
100.009
100.007
100.005
100.004
100.003
100.002
100.001
100.001
100.001
100
100
100
100
100
100
100
100
391.296
373.936
356.717
339.733
323.07
306.811
291.031
275.798
261.169
247.196
233.917
221.363
209.556
198.508
188.221
178.693
169.909
161.854
154.503
147.828
141.796
136.372
131.519
127.199
123.37
119.995
117.034
114.449
112.203
110.262
108.591
107.161
105.943
104.91
104.039
103.307
102.696
102.188
101.768
101.422
101.139
100.908
100.72
100.569
100.447
100.35
100.273
100.212
100.163
100.126
100.096
100.073
100.055
100.042
100.031
100.024
100.017
100.013
100.01
100.007
100.005
100.004
100.003
100.002
100.001
100.001
100.001
100.001
100
100
100
100
100
100
100
391.335
374.052
356.908
339.993
323.393
307.189
291.456
276.26
261.66
247.705
234.437
221.885
210.072
199.012
188.707
179.156
170.347
162.264
154.883
148.177
142.114
136.66
131.778
127.43
123.575
120.176
117.192
114.586
112.322
110.363
108.678
107.235
106.005
104.962
104.082
103.343
102.726
102.213
101.788
101.438
101.152
100.918
100.729
100.576
100.453
100.354
100.276
100.214
100.165
100.127
100.097
100.074
100.056
100.042
100.032
100.024
100.018
100.013
100.01
100.007
100.005
100.004
100.003
100.002
100.001
100.001
100.001
100.001
100
100
100
100
100
100
100
391.367
374.147
357.063
340.205
323.657
307.499
291.804
276.64
262.064
248.125
234.866
222.316
210.5
199.43
189.112
179.543
170.714
162.607
155.202
148.471
142.383
136.904
131.998
127.626
123.749
120.329
117.326
114.703
112.423
110.45
108.752
107.298
106.058
105.007
104.12
103.374
102.752
102.234
101.805
101.452
101.163
100.927
100.736
100.581
100.457
100.358
100.279
100.216
100.167
100.128
100.098
100.075
100.057
100.043
100.032
100.024
100.018
100.013
100.01
100.007
100.005
100.004
100.003
100.002
100.001
100.001
100.001
100.001
100
100
100
100
100
100
100
391.393
374.224
357.189
340.378
323.872
307.751
292.089
276.951
262.395
248.47
235.219
222.672
210.853
199.776
189.447
179.864
171.018
162.894
155.469
148.717
142.608
137.109
132.182
127.791
123.896
120.459
117.44
114.802
112.509
110.524
108.815
107.352
106.104
105.045
104.152
103.401
102.774
102.252
101.82
101.464
101.173
100.935
100.742
100.586
100.461
100.361
100.281
100.218
100.169
100.13
100.099
100.076
100.057
100.043
100.032
100.024
100.018
100.013
100.01
100.007
100.005
100.004
100.003
100.002
100.001
100.001
100.001
100.001
100
100
100
100
100
100
100
391.414
374.286
357.292
340.518
324.047
307.957
292.321
277.204
262.665
248.753
235.508
222.964
211.144
200.061
189.724
180.13
171.271
163.131
155.69
148.922
142.796
137.28
132.337
127.929
124.019
120.568
117.536
114.886
112.581
110.587
108.869
107.397
106.143
105.078
104.179
103.424
102.793
102.267
101.833
101.475
101.181
100.942
100.748
100.591
100.465
100.364
100.284
100.22
100.17
100.131
100.1
100.076
100.058
100.044
100.033
100.024
100.018
100.014
100.01
100.007
100.005
100.004
100.003
100.002
100.001
100.001
100.001
100.001
100
100
100
100
100
100
100
391.431
374.337
357.375
340.632
324.189
308.124
292.51
277.411
262.885
248.983
235.745
223.203
211.382
200.296
189.952
180.349
171.48
163.328
155.874
149.092
142.953
137.422
132.466
128.045
124.123
120.659
117.616
114.956
112.642
110.639
108.914
107.436
106.175
105.105
104.202
103.443
102.809
102.281
101.844
101.484
101.188
100.948
100.752
100.595
100.468
100.366
100.285
100.221
100.171
100.132
100.101
100.077
100.058
100.044
100.033
100.025
100.018
100.014
100.01
100.007
100.005
100.004
100.003
100.002
100.001
100.001
100.001
100.001
100
100
100
100
100
100
100
391.445
374.378
357.442
340.724
324.303
308.259
292.662
277.578
263.064
249.171
235.938
223.398
211.577
200.488
190.139
180.529
171.651
163.49
156.026
149.233
143.082
137.54
132.573
128.141
124.208
120.735
117.683
115.015
112.693
110.683
108.952
107.468
106.203
105.129
104.222
103.459
102.822
102.292
101.853
101.491
101.195
100.953
100.756
100.598
100.47
100.368
100.287
100.223
100.172
100.132
100.101
100.077
100.058
100.044
100.033
100.025
100.018
100.014
100.01
100.007
100.005
100.004
100.003
100.002
100.001
100.001
100.001
100.001
100
100
100
100
100
100
100
391.456
374.411
357.497
340.798
324.396
308.368
292.786
277.714
263.21
249.323
236.094
223.557
211.735
200.644
190.292
180.677
171.792
163.623
156.15
149.349
143.189
137.638
132.661
128.221
124.28
120.799
117.739
115.064
112.736
110.72
108.984
107.495
106.226
105.148
104.238
103.473
102.833
102.301
101.86
101.497
101.2
100.957
100.76
100.6
100.472
100.37
100.288
100.224
100.173
100.133
100.102
100.077
100.059
100.044
100.033
100.025
100.019
100.014
100.01
100.007
100.005
100.004
100.003
100.002
100.001
100.001
100.001
100.001
100
100
100
100
100
100
100
391.465
374.437
357.54
340.857
324.471
308.456
292.886
277.823
263.327
249.445
236.221
223.686
211.864
200.771
190.416
180.796
171.906
163.732
156.252
149.443
143.276
137.718
132.734
128.287
124.338
120.851
117.785
115.104
112.771
110.751
109.01
107.518
106.245
105.164
104.251
103.484
102.843
102.309
101.867
101.503
101.204
100.96
100.762
100.603
100.474
100.371
100.289
100.225
100.173
100.133
100.102
100.078
100.059
100.045
100.033
100.025
100.019
100.014
100.01
100.007
100.005
100.004
100.003
100.002
100.001
100.001
100.001
100.001
100
100
100
100
100
100
100
391.472
374.459
357.575
340.905
324.53
308.527
292.966
277.911
263.421
249.545
236.323
223.789
211.968
200.874
190.516
180.894
172
163.82
156.335
149.521
143.347
137.783
132.793
128.34
124.387
120.894
117.823
115.137
112.8
110.776
109.032
107.536
106.261
105.178
104.263
103.494
102.851
102.315
101.872
101.507
101.207
100.963
100.765
100.604
100.476
100.372
100.29
100.225
100.174
100.134
100.102
100.078
100.059
100.045
100.034
100.025
100.019
100.014
100.01
100.008
100.005
100.004
100.003
100.002
100.001
100.001
100.001
100.001
100
100
100
100
100
100
100
391.477
374.476
357.603
340.944
324.578
308.583
293.03
277.982
263.497
249.624
236.405
223.873
212.052
200.957
190.597
180.972
172.075
163.891
156.402
149.583
143.406
137.837
132.842
128.384
124.426
120.929
117.854
115.165
112.824
110.797
109.05
107.552
106.274
105.189
104.272
103.502
102.857
102.321
101.877
101.511
101.21
100.965
100.767
100.606
100.477
100.373
100.291
100.226
100.175
100.134
100.103
100.078
100.059
100.045
100.034
100.025
100.019
100.014
100.01
100.008
100.006
100.004
100.003
100.002
100.002
100.001
100.001
100.001
100
100
100
100
100
100
100
391.482
374.489
357.625
340.974
324.616
308.628
293.081
278.038
263.557
249.688
236.471
223.94
212.119
201.024
190.663
181.036
172.136
163.949
156.457
149.634
143.453
137.88
132.881
128.42
124.458
120.957
117.879
115.187
112.843
110.814
109.064
107.564
106.284
105.198
104.28
103.508
102.862
102.325
101.88
101.514
101.213
100.967
100.768
100.607
100.478
100.374
100.292
100.226
100.175
100.135
100.103
100.078
100.059
100.045
100.034
100.025
100.019
100.014
100.01
100.008
100.006
100.004
100.003
100.002
100.002
100.001
100.001
100.001
100
100
100
100
100
100
100
391.486
374.5
357.643
340.998
324.647
308.664
293.121
278.083
263.605
249.738
236.523
223.993
212.173
201.077
190.715
181.086
172.184
163.995
156.5
149.675
143.49
137.915
132.913
128.448
124.484
120.98
117.9
115.205
112.859
110.827
109.076
107.574
106.293
105.205
104.286
103.513
102.867
102.329
101.883
101.516
101.215
100.969
100.77
100.608
100.479
100.375
100.292
100.227
100.175
100.135
100.103
100.079
100.06
100.045
100.034
100.025
100.019
100.014
100.01
100.008
100.006
100.004
100.003
100.002
100.002
100.001
100.001
100.001
100
100
100
100
100
100
100
391.488
374.508
357.657
341.017
324.671
308.693
293.154
278.118
263.643
249.779
236.565
224.036
212.215
201.12
190.757
181.127
172.223
164.033
156.535
149.708
143.521
137.943
132.938
128.472
124.505
120.999
117.916
115.22
112.872
110.838
109.086
107.583
106.3
105.211
104.291
103.517
102.87
102.332
101.886
101.518
101.216
100.97
100.771
100.609
100.479
100.375
100.293
100.227
100.175
100.135
100.103
100.079
100.06
100.045
100.034
100.025
100.019
100.014
100.01
100.008
100.006
100.004
100.003
100.002
100.002
100.001
100.001
100.001
100
100
100
100
100
100
100
391.491
374.515
357.668
341.033
324.69
308.715
293.179
278.146
263.674
249.81
236.598
224.069
212.249
201.153
190.79
181.159
172.254
164.062
156.563
149.734
143.545
137.965
132.959
128.49
124.521
121.014
117.93
115.231
112.882
110.847
109.093
107.589
106.306
105.216
104.295
103.521
102.873
102.334
101.888
101.52
101.218
100.971
100.771
100.61
100.48
100.376
100.293
100.227
100.176
100.135
100.103
100.079
100.06
100.045
100.034
100.025
100.019
100.014
100.01
100.008
100.006
100.004
100.003
100.002
100.002
100.001
100.001
100.001
100
100
100
100
100
100
100
391.492
374.52
357.676
341.044
324.705
308.733
293.199
278.168
263.697
249.835
236.624
224.096
212.276
201.18
190.816
181.185
172.279
164.086
156.586
149.755
143.564
137.983
132.975
128.505
124.535
121.026
117.94
115.241
112.89
110.855
109.1
107.595
106.31
105.22
104.298
103.524
102.876
102.336
101.889
101.521
101.219
100.972
100.772
100.61
100.48
100.376
100.293
100.228
100.176
100.135
100.104
100.079
100.06
100.045
100.034
100.025
100.019
100.014
100.01
100.008
100.006
100.004
100.003
100.002
100.002
100.001
100.001
100.001
100
100
100
100
100
100
100
391.494
374.524
357.683
341.054
324.716
308.746
293.215
278.186
263.716
249.855
236.645
224.117
212.297
201.201
190.837
181.205
172.298
164.104
156.603
149.771
143.58
137.997
132.988
128.517
124.545
121.035
117.949
115.248
112.897
110.86
109.105
107.599
106.314
105.223
104.301
103.526
102.877
102.338
101.89
101.522
101.22
100.973
100.773
100.611
100.481
100.376
100.294
100.228
100.176
100.135
100.104
100.079
100.06
100.045
100.034
100.025
100.019
100.014
100.01
100.008
100.006
100.004
100.003
100.002
100.002
100.001
100.001
100.001
100
100
100
100
100
100
100
391.495
374.528
357.688
341.061
324.725
308.757
293.227
278.199
263.731
249.871
236.661
224.133
212.314
201.217
190.853
181.22
172.313
164.119
156.617
149.784
143.592
138.008
132.998
128.526
124.554
121.043
117.956
115.254
112.902
110.865
109.109
107.602
106.317
105.225
104.303
103.528
102.879
102.339
101.892
101.523
101.22
100.974
100.773
100.611
100.481
100.377
100.294
100.228
100.176
100.135
100.104
100.079
100.06
100.045
100.034
100.025
100.019
100.014
100.01
100.008
100.006
100.004
100.003
100.002
100.002
100.001
100.001
100.001
100
100
100
100
100
100
100
391.496
374.53
357.693
341.067
324.732
308.766
293.237
278.21
263.742
249.883
236.673
224.146
212.326
201.23
190.865
181.233
172.325
164.13
156.628
149.794
143.601
138.017
133.006
128.533
124.56
121.049
117.961
115.259
112.906
110.868
109.112
107.605
106.319
105.227
104.305
103.529
102.88
102.34
101.892
101.523
101.221
100.974
100.774
100.611
100.481
100.377
100.294
100.228
100.176
100.136
100.104
100.079
100.06
100.045
100.034
100.025
100.019
100.014
100.01
100.008
100.006
100.004
100.003
100.002
100.002
100.001
100.001
100.001
100
100
100
100
100
100
100
391.496
374.532
357.696
341.071
324.738
308.772
293.244
278.218
263.751
249.892
236.683
224.156
212.336
201.24
190.875
181.242
172.335
164.139
156.636
149.802
143.609
138.024
133.013
128.539
124.566
121.054
117.965
115.263
112.91
110.871
109.114
107.607
106.321
105.229
104.306
103.53
102.881
102.341
101.893
101.524
101.221
100.974
100.774
100.612
100.481
100.377
100.294
100.228
100.176
100.136
100.104
100.079
100.06
100.045
100.034
100.025
100.019
100.014
100.01
100.008
100.006
100.004
100.003
100.002
100.002
100.001
100.001
100.001
100
100
100
100
100
100
100
391.497
374.533
357.698
341.074
324.742
308.777
293.25
278.224
263.758
249.899
236.69
224.164
212.344
201.248
190.883
181.25
172.342
164.146
156.643
149.808
143.614
138.029
133.018
128.544
124.57
121.057
117.968
115.265
112.912
110.874
109.116
107.609
106.323
105.23
104.307
103.531
102.882
102.341
101.893
101.524
101.222
100.975
100.774
100.612
100.482
100.377
100.294
100.228
100.176
100.136
100.104
100.079
100.06
100.045
100.034
100.025
100.019
100.014
100.01
100.008
100.006
100.004
100.003
100.002
100.002
100.001
100.001
100.001
100
100
100
100
100
100
100
391.497
374.535
357.7
341.077
324.745
308.781
293.254
278.229
263.763
249.905
236.696
224.17
212.35
201.254
190.889
181.256
172.347
164.151
156.648
149.813
143.619
138.033
133.021
128.547
124.573
121.06
117.971
115.268
112.914
110.875
109.118
107.61
106.324
105.231
104.308
103.532
102.882
102.342
101.894
101.525
101.222
100.975
100.774
100.612
100.482
100.377
100.294
100.228
100.176
100.136
100.104
100.079
100.06
100.045
100.034
100.025
100.019
100.014
100.01
100.008
100.006
100.004
100.003
100.002
100.002
100.001
100.001
100.001
100
100
100
100
100
100
100
391.498
374.535
357.702
341.079
324.748
308.784
293.258
278.233
263.767
249.909
236.7
224.174
212.355
201.259
190.893
181.26
172.352
164.155
156.652
149.817
143.622
138.036
133.024
128.55
124.575
121.062
117.973
115.269
112.916
110.877
109.119
107.611
106.325
105.232
104.309
103.532
102.883
102.342
101.894
101.525
101.222
100.975
100.774
100.612
100.482
100.377
100.294
100.228
100.176
100.136
100.104
100.079
100.06
100.045
100.034
100.025
100.019
100.014
100.01
100.008
100.006
100.004
100.003
100.002
100.002
100.001
100.001
100.001
100
100
100
100
100
100
100
391.498
374.536
357.703
341.081
324.75
308.786
293.26
278.236
263.77
249.912
236.704
224.178
212.358
201.262
190.897
181.263
172.355
164.158
156.655
149.82
143.625
138.039
133.027
128.552
124.577
121.064
117.974
115.271
112.917
110.878
109.12
107.612
106.325
105.232
104.309
103.533
102.883
102.342
101.894
101.525
101.222
100.975
100.774
100.612
100.482
100.377
100.294
100.228
100.176
100.136
100.104
100.079
100.06
100.045
100.034
100.025
100.019
100.014
100.01
100.008
100.006
100.004
100.003
100.002
100.002
100.001
100.001
100.001
100
100
100
100
100
100
100
391.498
374.537
357.704
341.082
324.751
308.788
293.262
278.238
263.772
249.915
236.706
224.18
212.361
201.265
190.9
181.266
172.358
164.161
156.657
149.822
143.627
138.041
133.028
128.553
124.578
121.065
117.975
115.272
112.918
110.878
109.12
107.613
106.326
105.233
104.309
103.533
102.883
102.343
101.895
101.525
101.222
100.975
100.775
100.612
100.482
100.377
100.294
100.228
100.176
100.136
100.104
100.079
100.06
100.045
100.034
100.025
100.019
100.014
100.01
100.008
100.006
100.004
100.003
100.002
100.002
100.001
100.001
100.001
100
100
100
100
100
100
100
391.498
374.537
357.704
341.083
324.752
308.789
293.264
278.239
263.774
249.917
236.708
224.182
212.363
201.267
190.902
181.268
172.359
164.163
156.659
149.823
143.629
138.042
133.03
128.555
124.58
121.066
117.976
115.273
112.918
110.879
109.121
107.613
106.326
105.233
104.31
103.533
102.884
102.343
101.895
101.525
101.223
100.975
100.775
100.612
100.482
100.377
100.294
100.228
100.177
100.136
100.104
100.079
100.06
100.045
100.034
100.025
100.019
100.014
100.01
100.008
100.006
100.004
100.003
100.002
100.002
100.001
100.001
100.001
100
100
100
100
100
100
100
391.498
374.537
357.705
341.083
324.753
308.79
293.265
278.241
263.775
249.918
236.71
224.184
212.365
201.268
190.903
181.27
172.361
164.164
156.66
149.825
143.63
138.043
133.031
128.556
124.58
121.067
117.977
115.273
112.919
110.88
109.121
107.613
106.326
105.234
104.31
103.533
102.884
102.343
101.895
101.526
101.223
100.975
100.775
100.612
100.482
100.378
100.294
100.228
100.177
100.136
100.104
100.079
100.06
100.045
100.034
100.026
100.019
100.014
100.01
100.008
100.006
100.004
100.003
100.002
100.002
100.001
100.001
100.001
100
100
100
100
100
100
100
391.498
374.538
357.705
341.084
324.754
308.791
293.265
278.242
263.776
249.919
236.711
224.185
212.366
201.269
190.904
181.271
172.362
164.165
156.661
149.826
143.631
138.044
133.031
128.556
124.581
121.067
117.977
115.274
112.919
110.88
109.122
107.614
106.327
105.234
104.31
103.534
102.884
102.343
101.895
101.526
101.223
100.975
100.775
100.612
100.482
100.378
100.294
100.228
100.177
100.136
100.104
100.079
100.06
100.045
100.034
100.026
100.019
100.014
100.01
100.008
100.006
100.004
100.003
100.002
100.002
100.001
100.001
100.001
100
100
100
100
100
100
100
391.498
374.538
357.705
341.084
324.754
308.791
293.266
278.242
263.777
249.92
236.712
224.186
212.367
201.27
190.905
181.271
172.363
164.166
156.662
149.826
143.631
138.045
133.032
128.557
124.581
121.068
117.978
115.274
112.92
110.88
109.122
107.614
106.327
105.234
104.31
103.534
102.884
102.343
101.895
101.526
101.223
100.976
100.775
100.612
100.482
100.378
100.294
100.228
100.177
100.136
100.104
100.079
100.06
100.045
100.034
100.026
100.019
100.014
100.01
100.008
100.006
100.004
100.003
100.002
100.002
100.001
100.001
100.001
100
100
100
100
100
100
100
391.498
374.538
357.705
341.084
324.755
308.792
293.267
278.243
263.778
249.92
236.712
224.186
212.367
201.271
190.906
181.272
172.363
164.167
156.662
149.827
143.632
138.045
133.032
128.557