/*--------------------------------*- C++ -*----------------------------------*\
  =========                 |
  \\      /  F ield         | OpenFOAM: The Open Source CFD Toolbox
   \\    /   O peration     | Website:  https://openfoam.org
    \\  /    A nd           | Version:  10
     \\/     M anipulation  |
\*---------------------------------------------------------------------------*/
FoamFile
{
    format      ascii;
    class       volScalarField;
    location    "136";
    object      gradTz;
}
// * * * * * * * * * * * * * * * * * * * * * * * * * * * * * * * * * * * * * //

dimensions      [0 -1 0 1 0 0 0];

internalField   nonuniform List<scalar> 
11250
(
-14382.4
-4176.71
-1554.24
-747.559
-438.986
-292.969
-210.894
-158.618
-122.291
-95.5001
-74.9489
-58.7967
-45.9339
-35.6397
-27.4098
-20.865
-15.7039
-11.6768
-8.57248
-6.21091
-4.43939
-3.12969
-2.17575
-1.49139
-1.00787
-0.671486
-0.441035
-0.285573
-0.182299
-0.114734
-0.0711951
-0.0435555
-0.0262664
-0.0156083
-0.00913283
-0.00525628
-0.00297113
-0.00164632
-0.000892305
-0.000471967
-0.00024306
-0.000121616
-5.90103e-05
-2.77242e-05
-1.25969e-05
-5.53062e-06
-2.34508e-06
-9.6006e-07
-3.79475e-07
-1.44834e-07
-5.34046e-08
-1.90217e-08
-6.56046e-09
-2.20621e-09
-7.15647e-10
-2.305e-10
-6.36618e-11
-7.68332e-12
0
0
0
0
-2.08547e-11
-1.09762e-12
2.19523e-11
1.09762e-12
-1.09762e-12
0
1.09762e-12
-1.09762e-12
0
-5.48809e-12
-1.09762e-12
6.5857e-12
0
-8350.82
-4945.15
-2845.28
-1743.19
-1153.32
-814.212
-602.47
-459.814
-357.536
-280.698
-221.073
-173.855
-136.06
-105.705
-81.376
-61.9927
-46.6865
-34.7309
-25.5075
-18.4865
-13.2172
-9.31998
-6.48045
-4.44281
-3.00286
-2.00087
-1.31432
-0.85111
-0.543361
-0.342001
-0.212233
-0.129848
-0.0783108
-0.0465385
-0.0272339
-0.0156765
-0.00886297
-0.00491232
-0.00266336
-0.0014093
-0.000726124
-0.000363515
-0.00017649
-8.29722e-05
-3.77257e-05
-1.65753e-05
-7.03347e-06
-2.88166e-06
-1.1399e-06
-4.35427e-07
-1.60653e-07
-5.72825e-08
-1.97527e-08
-6.59997e-09
-2.15243e-09
-6.68449e-10
-1.98669e-10
-5.48809e-11
4.39047e-12
-1.09762e-12
-3.29285e-12
1.09762e-12
1.09762e-12
8.78094e-12
-1.09762e-12
-1.20738e-11
1.09762e-12
2.19523e-12
-1.09762e-12
-4.39047e-12
1.09762e-12
4.39047e-12
0
-8.78094e-12
8.78094e-12
-5719.27
-4402.36
-3133.68
-2222.46
-1613.65
-1205.85
-923.725
-720.357
-567.926
-449.993
-356.656
-281.741
-221.215
-172.283
-132.878
-101.374
-76.4323
-56.9119
-41.8293
-30.3346
-21.6993
-15.3077
-10.6478
-7.30216
-4.93682
-3.29028
-2.16175
-1.40013
-0.894004
-0.56278
-0.349285
-0.213725
-0.128914
-0.0766231
-0.0448485
-0.0258232
-0.0146052
-0.00809902
-0.00439392
-0.00232683
-0.00119997
-0.000601362
-0.000292306
-0.000137593
-6.2644e-05
-2.7562e-05
-1.17124e-05
-4.80577e-06
-1.9039e-06
-7.28379e-07
-2.69169e-07
-9.60953e-08
-3.317e-08
-1.11123e-08
-3.61445e-09
-1.12725e-09
-3.38066e-10
-8.01261e-11
-1.09762e-12
5.48809e-12
0
0
1.09762e-12
5.48809e-12
-1.09762e-12
-5.48809e-12
0
0
0
-1.09762e-11
0
1.20738e-11
1.09762e-12
-1.09762e-12
-1.09762e-12
-4395.25
-3802.42
-3056.59
-2392.51
-1867.66
-1468.11
-1164.19
-929.51
-744.787
-596.85
-476.891
-378.947
-298.845
-233.517
-180.569
-138.036
-104.242
-77.7197
-57.1834
-41.5059
-29.7124
-20.9735
-14.5966
-10.0147
-6.77339
-4.51585
-2.96784
-1.92272
-1.22796
-0.773165
-0.479947
-0.293728
-0.177203
-0.105349
-0.0616803
-0.0355288
-0.0201054
-0.011157
-0.00605845
-0.00321186
-0.00165857
-0.000832433
-0.0004053
-0.000191127
-8.71857e-05
-3.84376e-05
-1.63682e-05
-6.73055e-06
-2.67227e-06
-1.02456e-06
-3.79431e-07
-1.35777e-07
-4.69671e-08
-1.57453e-08
-5.116e-09
-1.60801e-09
-4.82952e-10
-1.30616e-10
-2.52452e-11
0
-1.09762e-12
0
-1.20738e-11
-1.09762e-12
1.4269e-11
1.09762e-12
0
0
-2.19524e-12
0
8.78094e-12
1.09762e-12
-9.87856e-12
0
0
-3651.14
-3343.19
-2886.67
-2413.95
-1989.03
-1629.66
-1332.59
-1088.09
-886.193
-718.702
-579.348
-463.42
-367.308
-288.132
-223.48
-171.254
-129.579
-96.7637
-71.2883
-51.7999
-37.1154
-26.2195
-18.2596
-12.535
-8.48215
-5.65752
-3.71954
-2.4105
-1.53994
-0.969841
-0.602175
-0.368613
-0.222433
-0.132275
-0.077473
-0.0446474
-0.0252822
-0.0140421
-0.0076337
-0.00405259
-0.00209616
-0.00105406
-0.000514293
-0.000243084
-0.00011116
-4.91339e-05
-2.09792e-05
-8.65021e-06
-3.44397e-06
-1.32413e-06
-4.91755e-07
-1.76471e-07
-6.12273e-08
-2.05551e-08
-6.67681e-09
-2.10523e-09
-6.50887e-10
-1.83302e-10
-1.97571e-11
0
-8.78094e-12
0
2.19523e-12
1.09762e-12
5.48809e-12
-2.19523e-12
-4.39047e-12
1.09762e-12
2.19523e-12
-5.48809e-12
-2.19523e-12
4.39047e-12
0
-5.48809e-12
5.48809e-12
-3198.72
-3017.08
-2719
-2375.79
-2035.6
-1722.5
-1444.91
-1203.27
-994.873
-816.157
-663.711
-534.509
-425.892
-335.476
-261.06
-200.583
-152.098
-113.782
-83.9494
-61.075
-43.8067
-30.9739
-21.5871
-14.829
-10.0402
-6.70004
-4.40686
-2.85703
-1.82581
-1.15023
-0.714372
-0.437406
-0.264016
-0.157053
-0.0920219
-0.0530608
-0.0300688
-0.0167173
-0.00909974
-0.00483864
-0.00250754
-0.00126372
-0.000618126
-0.000292957
-0.000134356
-5.95685e-05
-2.55151e-05
-1.05545e-05
-4.21594e-06
-1.62629e-06
-6.05967e-07
-2.18189e-07
-7.59617e-08
-2.55844e-08
-8.32104e-09
-2.61452e-09
-8.21018e-10
-2.41476e-10
-3.29285e-11
3.29285e-12
-1.09762e-12
0
4.39047e-12
0
-5.48809e-12
1.09762e-12
0
0
0
-1.09762e-11
-2.19523e-12
4.39047e-12
1.09762e-12
4.39047e-12
3.29285e-12
-2908.58
-2788.99
-2579.87
-2320.56
-2044.07
-1772.2
-1517.06
-1284.3
-1075.87
-891.795
-731.18
-592.672
-474.679
-375.455
-293.15
-225.854
-171.645
-128.644
-95.0627
-69.2512
-49.7267
-35.1933
-24.548
-16.8751
-11.4326
-7.63342
-5.0232
-3.25798
-2.08283
-1.31258
-0.815445
-0.499434
-0.301543
-0.179435
-0.10518
-0.0606827
-0.0344152
-0.0191542
-0.0104408
-0.00556148
-0.00288825
-0.00145917
-0.000715707
-0.000340236
-0.000156548
-6.96453e-05
-2.9937e-05
-1.24286e-05
-4.98267e-06
-1.9291e-06
-7.21424e-07
-2.60674e-07
-9.10671e-08
-3.07937e-08
-1.00652e-08
-3.15785e-09
-9.63708e-10
-2.89771e-10
-7.4638e-11
-1.09762e-11
0
1.09762e-12
-1.09762e-12
-1.09762e-12
1.09762e-12
-1.09762e-12
0
0
0
0
0
-4.39047e-12
-1.09762e-12
0
5.48809e-12
-2715.82
-2629.34
-2471.87
-2266.4
-2035.33
-1796.42
-1562
-1339.92
-1134.79
-949.082
-783.823
-639.102
-514.328
-408.415
-319.915
-247.133
-188.234
-141.34
-104.609
-76.3074
-54.8562
-38.862
-27.1302
-18.664
-12.6528
-8.45298
-5.56533
-3.61121
-2.30956
-1.45597
-0.904817
-0.554333
-0.334787
-0.199282
-0.116863
-0.0674613
-0.0382899
-0.021334
-0.0116458
-0.00621476
-0.00323474
-0.0016385
-0.000806046
-0.000384429
-0.000177499
-7.9255e-05
-3.41966e-05
-1.42517e-05
-5.73576e-06
-2.22927e-06
-8.36871e-07
-3.03563e-07
-1.06456e-07
-3.60962e-08
-1.18378e-08
-3.73409e-09
-1.14591e-09
-3.69897e-10
-9.21999e-11
-1.09762e-12
2.19523e-12
0
3.29285e-12
0
0
-1.09762e-12
0
-1.20738e-11
0
1.31714e-11
1.09762e-12
-8.78094e-12
-8.78094e-12
4.39047e-12
1.09762e-11
-2584.81
-2517.12
-2390.68
-2219.86
-2020.38
-1806.38
-1589.23
-1377.4
-1176.86
-991.607
-824.041
-675.372
-545.854
-435
-341.757
-264.667
-202.015
-151.959
-112.64
-82.2731
-59.2115
-41.9884
-29.3378
-20.1978
-13.7016
-9.15893
-6.0332
-3.91659
-2.50587
-1.5803
-0.982391
-0.602034
-0.363699
-0.216559
-0.127044
-0.0733779
-0.0416799
-0.0232476
-0.0127087
-0.00679447
-0.00354449
-0.00180019
-0.000888273
-0.000425058
-0.000196959
-8.82737e-05
-3.82349e-05
-1.59971e-05
-6.46356e-06
-2.52194e-06
-9.50393e-07
-3.46033e-07
-1.21787e-07
-4.14416e-08
-1.36072e-08
-4.30705e-09
-1.34458e-09
-4.47828e-10
-1.28421e-10
-1.31714e-11
0
-1.09762e-12
0
0
1.09762e-12
6.58571e-12
-1.09762e-12
-6.5857e-12
1.09762e-12
-1.09762e-12
0
1.09762e-12
0
-1.09762e-12
0
-2494.5
-2437.99
-2330.7
-2182.39
-2004.63
-1808.86
-1605.26
-1402.27
-1206.45
-1022.65
-854.216
-703.17
-570.431
-456.016
-359.223
-278.825
-213.233
-160.664
-119.262
-87.2176
-62.8374
-44.6013
-31.189
-21.4878
-14.586
-9.75563
-6.4295
-4.17573
-2.67274
-1.68612
-1.0485
-0.642728
-0.388385
-0.231323
-0.135752
-0.0784451
-0.0445893
-0.0248951
-0.0136279
-0.00729885
-0.003816
-0.00194314
-0.000961656
-0.000461678
-0.000214676
-9.65665e-05
-4.19842e-05
-1.76325e-05
-7.15138e-06
-2.8008e-06
-1.05936e-06
-3.87102e-07
-1.36703e-07
-4.6652e-08
-1.53897e-08
-4.91403e-09
-1.53996e-09
-5.04904e-10
-1.45983e-10
-1.97571e-11
0
9.87856e-12
0
-9.87856e-12
0
1.64643e-11
1.09762e-12
-1.64643e-11
-1.09762e-12
2.19524e-12
5.48809e-12
-2.19524e-12
-5.48809e-12
0
0
-2431.73
-2382.11
-2286.92
-2153.35
-1990.43
-1807.74
-1614.42
-1418.58
-1226.99
-1044.99
-876.499
-724.112
-589.248
-472.322
-372.928
-290.038
-222.191
-167.662
-124.619
-91.2376
-65.7986
-46.7437
-32.7122
-22.5525
-15.3179
-10.2507
-6.75903
-4.39163
-2.812
-1.77457
-1.10383
-0.676817
-0.40908
-0.243706
-0.143061
-0.082702
-0.0470372
-0.026285
-0.0144065
-0.00772841
-0.00404882
-0.0020667
-0.00102564
-0.000493902
-0.000230412
-0.000103999
-4.53733e-05
-1.9123e-05
-7.78299e-06
-3.05868e-06
-1.16081e-06
-4.25525e-07
-1.50729e-07
-5.16199e-08
-1.70976e-08
-5.47821e-09
-1.71997e-09
-5.51004e-10
-1.6574e-10
-2.52452e-11
1.09762e-12
0
-1.09762e-12
-1.09762e-12
1.09762e-12
1.09762e-12
1.09762e-12
-1.09762e-12
0
0
1.09762e-12
-6.5857e-12
0
5.48809e-12
0
-2387.96
-2342.68
-2255.26
-2131.42
-1978.62
-1805.18
-1619.44
-1429.15
-1241.1
-1060.87
-892.721
-739.645
-603.419
-484.757
-383.491
-298.761
-229.213
-173.186
-128.871
-94.4456
-68.1725
-48.4681
-33.9426
-23.4152
-15.9127
-10.654
-7.02811
-4.56828
-2.92615
-1.84719
-1.14931
-0.704864
-0.426116
-0.253903
-0.14908
-0.0862085
-0.0490553
-0.0274328
-0.0150513
-0.00808574
-0.00424359
-0.00217077
-0.00107994
-0.000521463
-0.000243976
-0.000110455
-4.83391e-05
-2.04361e-05
-8.34299e-06
-3.28863e-06
-1.25174e-06
-4.60152e-07
-1.63456e-07
-5.61212e-08
-1.86211e-08
-6.00726e-09
-1.89339e-09
-6.0369e-10
-1.82205e-10
-2.08547e-11
1.31714e-11
-2.19523e-12
-1.31714e-11
0
-9.87856e-12
-2.08547e-11
8.78094e-12
2.19523e-11
0
0
0
0
-2.19524e-12
-3.29285e-12
5.48809e-12
-2357.42
-2314.93
-2232.56
-2115.17
-1969.25
-1802.29
-1622.04
-1435.94
-1250.71
-1072.03
-904.379
-751.003
-613.926
-494.087
-391.496
-305.428
-234.621
-177.468
-132.187
-96.9599
-70.0414
-49.8311
-34.9186
-24.1018
-16.3875
-10.9768
-7.24392
-4.71027
-3.01808
-1.90576
-1.18604
-0.727531
-0.439888
-0.262146
-0.153943
-0.0890402
-0.0506844
-0.0283598
-0.0155728
-0.00837547
-0.00440212
-0.00225589
-0.00112461
-0.000544272
-0.000255271
-0.000115863
-5.08379e-05
-2.15486e-05
-8.81979e-06
-3.4853e-06
-1.32983e-06
-4.90041e-07
-1.74466e-07
-6.00287e-08
-1.99733e-08
-6.45289e-09
-2.04267e-09
-6.39911e-10
-1.83302e-10
-3.40261e-11
-5.48809e-12
6.5857e-12
0
-1.86595e-11
-4.39047e-12
9.87856e-12
3.29285e-12
3.29285e-12
1.09762e-12
0
-1.09762e-12
0
0
1.09762e-12
-1.09762e-12
-2336.16
-2295.48
-2216.42
-2103.32
-1962.07
-1799.62
-1623.28
-1440.26
-1257.19
-1079.79
-912.656
-759.195
-621.604
-500.98
-397.466
-310.441
-238.716
-180.731
-134.728
-98.8961
-71.4871
-50.8896
-35.6792
-24.6386
-16.7597
-11.2305
-7.41401
-4.82241
-3.09082
-1.95218
-1.21518
-0.745529
-0.450825
-0.268688
-0.157798
-0.0912813
-0.0519717
-0.0290911
-0.015984
-0.008604
-0.00452736
-0.00232331
-0.0011601
-0.000562467
-0.000264319
-0.000120214
-5.28564e-05
-2.24507e-05
-9.20787e-06
-3.64594e-06
-1.39382e-06
-5.14589e-07
-1.83541e-07
-6.32733e-08
-2.10984e-08
-6.81401e-09
-2.16011e-09
-6.8162e-10
-1.86595e-10
-2.305e-11
3.29285e-12
0
-1.20738e-11
-1.09762e-12
1.31714e-11
2.19523e-12
-2.19523e-12
-1.09762e-12
1.09762e-12
-1.09762e-12
-4.39047e-12
-7.68332e-12
3.29285e-12
1.31714e-11
-3.29285e-12
-2321.43
-2281.93
-2205.05
-2094.8
-1956.71
-1797.35
-1623.77
-1442.98
-1261.52
-1085.13
-918.465
-765.029
-627.137
-505.997
-401.85
-314.15
-241.767
-183.177
-136.642
-100.362
-72.5862
-51.6976
-36.2619
-25.0511
-17.0466
-11.4266
-7.54575
-4.90947
-3.1474
-1.98834
-1.23791
-0.759574
-0.459358
-0.273786
-0.160796
-0.0930197
-0.0529669
-0.0296547
-0.0162999
-0.00877914
-0.0046232
-0.00237488
-0.00118727
-0.000576418
-0.000271271
-0.000123565
-5.44147e-05
-2.31489e-05
-9.50898e-06
-3.77086e-06
-1.44368e-06
-5.33753e-07
-1.90628e-07
-6.58131e-08
-2.19842e-08
-7.0939e-09
-2.23694e-09
-6.83816e-10
-1.83302e-10
-4.60999e-11
-9.87856e-12
0
1.09762e-12
0
4.39047e-12
0
-4.39047e-12
-1.09762e-12
0
-4.39047e-12
4.39047e-12
5.48809e-12
-4.39047e-12
1.09762e-12
-1.09762e-12
-2311.27
-2272.55
-2197.1
-2088.75
-1952.79
-1795.55
-1623.88
-1444.68
-1264.4
-1088.77
-922.496
-769.132
-631.071
-509.597
-405.021
-316.853
-244.004
-184.98
-138.061
-101.453
-73.4081
-52.3039
-36.7006
-25.3627
-17.2639
-11.5755
-7.64608
-4.97591
-3.19066
-2.01604
-1.25533
-0.770345
-0.465898
-0.277688
-0.163085
-0.0943414
-0.0537199
-0.0300787
-0.0165362
-0.00890947
-0.0046942
-0.00241296
-0.00120729
-0.000586682
-0.000276384
-0.00012603
-5.55623e-05
-2.36637e-05
-9.73123e-06
-3.86323e-06
-1.48064e-06
-5.47971e-07
-1.95887e-07
-6.76824e-08
-2.26109e-08
-7.30245e-09
-2.3017e-09
-6.83816e-10
-1.77814e-10
-4.71976e-11
-1.4269e-11
-1.09762e-12
5.48809e-12
8.78094e-12
0
-8.78094e-12
0
-4.39047e-12
0
-6.58571e-12
-1.09762e-12
9.87856e-12
9.87856e-12
1.09762e-12
-8.78094e-12
-2304.33
-2266.11
-2191.6
-2084.51
-1949.97
-1794.17
-1623.83
-1445.73
-1266.29
-1091.23
-925.263
-771.982
-633.831
-512.145
-407.282
-318.793
-245.619
-186.289
-139.096
-102.253
-74.0125
-52.7515
-37.0256
-25.5943
-17.4258
-11.6868
-7.72121
-5.02578
-3.22319
-2.03689
-1.26847
-0.778466
-0.470825
-0.280621
-0.1648
-0.0953268
-0.0542777
-0.0303904
-0.0167085
-0.00900368
-0.00474512
-0.00244009
-0.00122147
-0.000593926
-0.000279982
-0.000127762
-5.63677e-05
-2.40248e-05
-9.88722e-06
-3.92806e-06
-1.50656e-06
-5.57952e-07
-1.99593e-07
-6.8994e-08
-2.30763e-08
-7.4649e-09
-2.32036e-09
-6.86011e-10
-2.06352e-10
-5.81737e-11
-2.19523e-12
0
-2.19523e-12
4.39047e-12
2.19523e-12
-5.48809e-12
-2.19523e-12
0
2.19523e-12
-6.5857e-12
-4.39047e-12
6.5857e-12
4.39047e-12
8.78094e-12
-7.68332e-12
-2299.61
-2261.72
-2187.83
-2081.57
-1947.99
-1793.15
-1623.7
-1446.37
-1267.53
-1092.88
-927.141
-773.939
-635.744
-513.924
-408.871
-320.164
-246.768
-187.225
-139.839
-102.83
-74.45
-53.0766
-37.2624
-25.7634
-17.5445
-11.7685
-7.77655
-5.06259
-3.24725
-2.05234
-1.2782
-0.784485
-0.474473
-0.282788
-0.166061
-0.0960472
-0.0546824
-0.0306145
-0.016831
-0.00906991
-0.00478053
-0.00245876
-0.00123114
-0.000598832
-0.000282406
-0.000128924
-5.69067e-05
-2.4266e-05
-9.99127e-06
-3.97129e-06
-1.52383e-06
-5.64573e-07
-2.02054e-07
-6.99018e-08
-2.3376e-08
-7.5538e-09
-2.37744e-09
-7.29916e-10
-2.09645e-10
-4.39047e-11
-3.29285e-12
1.09762e-12
-1.09762e-12
0
0
0
-1.09762e-12
0
1.09762e-12
-1.4269e-11
4.39047e-12
9.87856e-12
-3.29285e-12
4.39047e-12
-1.09762e-12
-2296.43
-2258.76
-2185.28
-2079.56
-1946.6
-1792.41
-1623.57
-1446.76
-1268.33
-1093.97
-928.403
-775.266
-637.051
-515.15
-409.973
-321.121
-247.573
-187.883
-140.364
-103.239
-74.7616
-53.309
-37.4322
-25.8851
-17.6301
-11.8277
-7.81666
-5.08933
-3.26476
-2.06359
-1.2853
-0.788871
-0.477127
-0.284359
-0.166971
-0.0965641
-0.0549702
-0.030772
-0.016916
-0.00911527
-0.00480443
-0.00247119
-0.00123751
-0.000602029
-0.000283972
-0.00012967
-5.72509e-05
-2.44196e-05
-1.00573e-05
-3.99869e-06
-1.53476e-06
-5.68769e-07
-2.03617e-07
-7.04594e-08
-2.35604e-08
-7.62954e-09
-2.40708e-09
-7.32111e-10
-2.18426e-10
-4.82952e-11
-4.39047e-12
0
3.29285e-12
0
1.09762e-12
8.78094e-12
0
-9.87856e-12
0
0
9.87856e-12
3.29285e-12
-1.4269e-11
-2.19523e-12
3.29285e-12
-2294.32
-2256.78
-2183.56
-2078.2
-1945.66
-1791.89
-1623.45
-1446.99
-1268.84
-1094.68
-929.24
-776.156
-637.935
-515.983
-410.726
-321.778
-248.128
-188.34
-140.73
-103.525
-74.9802
-53.4725
-37.552
-25.9712
-17.6908
-11.8697
-7.84526
-5.10843
-3.27729
-2.07166
-1.29038
-0.792012
-0.479025
-0.285479
-0.167617
-0.0969279
-0.0551708
-0.0308806
-0.0169738
-0.0091456
-0.00482015
-0.00247923
-0.00124157
-0.000604036
-0.000284945
-0.000130129
-5.74613e-05
-2.45129e-05
-1.00973e-05
-4.01522e-06
-1.54134e-06
-5.71291e-07
-2.04528e-07
-7.07766e-08
-2.36756e-08
-7.67125e-09
-2.42025e-09
-7.61747e-10
-2.39281e-10
-5.48809e-11
-1.75619e-11
3.29285e-12
7.68332e-12
-8.78094e-12
-1.09762e-11
9.87856e-12
9.87856e-12
5.48809e-12
-1.09762e-12
-4.39047e-12
0
-1.09762e-12
0
0
1.09762e-12
-2292.92
-2255.48
-2182.43
-2077.3
-1945.02
-1791.53
-1623.35
-1447.13
-1269.17
-1095.15
-929.791
-776.746
-638.524
-516.542
-411.234
-322.223
-248.507
-188.652
-140.981
-103.722
-75.1311
-53.5857
-37.6352
-26.0312
-17.7333
-11.8992
-7.86534
-5.12187
-3.28611
-2.07734
-1.29397
-0.794225
-0.480358
-0.286263
-0.168067
-0.0971793
-0.0553081
-0.030954
-0.0170123
-0.00916544
-0.00483024
-0.0024843
-0.00124407
-0.000605256
-0.000285527
-0.000130401
-5.75845e-05
-2.45672e-05
-1.01205e-05
-4.02472e-06
-1.54512e-06
-5.72761e-07
-2.05085e-07
-7.09632e-08
-2.37261e-08
-7.67783e-09
-2.42793e-09
-7.65039e-10
-2.3489e-10
-6.91499e-11
-2.63428e-11
-1.09762e-12
1.31714e-11
0
-2.19523e-12
0
1.09762e-12
-1.09762e-12
0
-2.19524e-12
-2.19523e-12
6.58571e-12
-3.29285e-12
-7.68332e-12
8.78094e-12
-2292.01
-2254.62
-2181.68
-2076.7
-1944.59
-1791.28
-1623.28
-1447.21
-1269.38
-1095.45
-930.148
-777.132
-638.912
-516.912
-411.572
-322.521
-248.76
-188.863
-141.151
-103.855
-75.2337
-53.663
-37.6922
-26.0724
-17.7624
-11.9195
-7.87921
-5.13117
-3.29224
-2.08129
-1.29646
-0.795757
-0.481279
-0.286803
-0.168374
-0.0973498
-0.0554003
-0.0310026
-0.0170374
-0.00917816
-0.00483658
-0.00248741
-0.00124558
-0.000605977
-0.000285865
-0.000130556
-5.76541e-05
-2.45975e-05
-1.01333e-05
-4.02998e-06
-1.54721e-06
-5.73573e-07
-2.05387e-07
-7.1063e-08
-2.37777e-08
-7.69979e-09
-2.42025e-09
-7.43087e-10
-2.29402e-10
-7.4638e-11
-9.87856e-12
0
-1.64643e-11
0
1.64643e-11
0
1.09762e-12
0
0
-1.31714e-11
0
1.20738e-11
-3.29285e-12
1.09762e-12
2.19524e-12
-2291.42
-2254.07
-2181.2
-2076.31
-1944.31
-1791.12
-1623.23
-1447.25
-1269.51
-1095.64
-930.378
-777.381
-639.165
-517.154
-411.794
-322.718
-248.928
-189.002
-141.264
-103.944
-75.3025
-53.7149
-37.7305
-26.1002
-17.7822
-11.9333
-7.88866
-5.13752
-3.29641
-2.08398
-1.29816
-0.796802
-0.481905
-0.287167
-0.16858
-0.0974634
-0.0554611
-0.0310343
-0.0170535
-0.00918617
-0.00484049
-0.00248929
-0.00124647
-0.000606392
-0.000286056
-0.000130642
-5.7692e-05
-2.46138e-05
-1.01401e-05
-4.03276e-06
-1.5483e-06
-5.73979e-07
-2.0554e-07
-7.113e-08
-2.38084e-08
-7.69759e-09
-2.41805e-09
-7.51868e-10
-2.21719e-10
-5.81737e-11
-6.5857e-12
0
0
-1.09762e-12
-4.39047e-12
1.20738e-11
4.39047e-12
-1.09762e-11
-2.19523e-12
-1.09762e-12
2.19523e-12
0
0
-1.09762e-11
1.20738e-11
-2291.04
-2253.72
-2180.89
-2076.06
-1944.13
-1791.01
-1623.19
-1447.28
-1269.59
-1095.76
-930.524
-777.541
-639.327
-517.31
-411.938
-322.845
-249.038
-189.094
-141.338
-104.003
-75.3479
-53.7492
-37.7559
-26.1186
-17.7954
-11.9425
-7.89498
-5.14178
-3.29923
-2.08579
-1.2993
-0.797503
-0.482323
-0.28741
-0.168717
-0.0975379
-0.0555005
-0.0310545
-0.0170636
-0.00919112
-0.00484286
-0.00249041
-0.00124699
-0.000606626
-0.000286161
-0.000130688
-5.77121e-05
-2.46223e-05
-1.01436e-05
-4.03418e-06
-1.54887e-06
-5.74186e-07
-2.05627e-07
-7.11794e-08
-2.37952e-08
-7.68003e-09
-2.40488e-09
-7.43087e-10
-2.38183e-10
-6.0369e-11
-1.09762e-12
-1.09762e-12
-2.19524e-12
0
1.75619e-11
0
-1.4269e-11
0
1.09762e-12
-5.48809e-12
-2.19523e-12
6.58571e-12
-1.09762e-12
-1.09762e-12
2.19524e-12
-2290.81
-2253.49
-2180.69
-2075.9
-1944.01
-1790.94
-1623.17
-1447.3
-1269.63
-1095.83
-930.616
-777.642
-639.43
-517.409
-412.03
-322.927
-249.109
-189.153
-141.386
-104.041
-75.3773
-53.7715
-37.7725
-26.1307
-17.804
-11.9485
-7.89916
-5.1446
-3.30109
-2.087
-1.30006
-0.797967
-0.482599
-0.287569
-0.168806
-0.097586
-0.0555257
-0.0310673
-0.0170699
-0.00919415
-0.00484428
-0.00249106
-0.00124728
-0.000606757
-0.000286218
-0.000130713
-5.77225e-05
-2.46266e-05
-1.01454e-05
-4.03488e-06
-1.54916e-06
-5.74297e-07
-2.05646e-07
-7.11794e-08
-2.37952e-08
-7.67454e-09
-2.42134e-09
-7.59551e-10
-2.27207e-10
-4.28071e-11
1.09762e-12
-3.29285e-12
4.39047e-12
4.39047e-12
-4.39047e-12
-2.19524e-12
0
0
0
0
0
0
1.09762e-12
1.09762e-12
-2.19524e-12
-2290.66
-2253.35
-2180.57
-2075.8
-1943.94
-1790.89
-1623.15
-1447.3
-1269.66
-1095.88
-930.672
-777.704
-639.494
-517.472
-412.088
-322.979
-249.153
-189.19
-141.417
-104.065
-75.3962
-53.7858
-37.7832
-26.1385
-17.8096
-11.9525
-7.90187
-5.14644
-3.30231
-2.08779
-1.30055
-0.798271
-0.482779
-0.287672
-0.168863
-0.0976166
-0.0555416
-0.0310753
-0.0170738
-0.00919598
-0.00484512
-0.00249144
-0.00124744
-0.000606829
-0.000286249
-0.000130726
-5.77278e-05
-2.46288e-05
-1.01462e-05
-4.03521e-06
-1.54928e-06
-5.74358e-07
-2.05667e-07
-7.11728e-08
-2.38106e-08
-7.68662e-09
-2.3972e-09
-7.59551e-10
-2.25012e-10
-4.71976e-11
-1.53666e-11
0
2.19523e-12
-2.19523e-12
-2.19523e-12
4.39047e-12
1.09762e-12
-3.29285e-12
0
0
2.19523e-12
0
-2.19523e-12
-5.48809e-12
5.48809e-12
-2290.57
-2253.27
-2180.49
-2075.74
-1943.89
-1790.87
-1623.14
-1447.31
-1269.68
-1095.9
-930.707
-777.743
-639.534
-517.511
-412.125
-323.011
-249.181
-189.214
-141.436
-104.08
-75.4081
-53.7948
-37.7899
-26.1434
-17.8131
-11.955
-7.90361
-5.14762
-3.30309
-2.08829
-1.30087
-0.798466
-0.482894
-0.287738
-0.168899
-0.0976359
-0.0555515
-0.0310802
-0.0170762
-0.00919707
-0.00484561
-0.00249165
-0.00124754
-0.000606868
-0.000286265
-0.000130732
-5.77304e-05
-2.46298e-05
-1.01467e-05
-4.03538e-06
-1.54934e-06
-5.74361e-07
-2.05678e-07
-7.11794e-08
-2.38084e-08
-7.68991e-09
-2.40049e-09
-7.44185e-10
-2.33793e-10
-6.25642e-11
-8.78094e-12
0
-4.39047e-12
-1.09762e-12
5.48809e-12
1.09762e-12
0
2.19523e-12
-1.09762e-12
-6.58571e-12
0
2.19524e-12
-1.4269e-11
4.39047e-12
1.31714e-11
-2290.51
-2253.21
-2180.44
-2075.7
-1943.86
-1790.85
-1623.13
-1447.31
-1269.69
-1095.92
-930.729
-777.767
-639.559
-517.535
-412.147
-323.031
-249.199
-189.228
-141.448
-104.09
-75.4154
-53.8004
-37.7941
-26.1465
-17.8153
-11.9565
-7.90469
-5.14836
-3.30359
-2.08862
-1.30108
-0.79859
-0.482968
-0.28778
-0.168922
-0.0976479
-0.0555576
-0.0310832
-0.0170776
-0.00919772
-0.0048459
-0.00249178
-0.00124759
-0.000606889
-0.000286273
-0.000130735
-5.77318e-05
-2.46303e-05
-1.01468e-05
-4.03549e-06
-1.54937e-06
-5.74371e-07
-2.0569e-07
-7.11849e-08
-2.38106e-08
-7.69101e-09
-2.40378e-09
-7.29916e-10
-2.27207e-10
-5.70761e-11
-1.09762e-12
-5.48809e-12
-1.75619e-11
4.39047e-12
1.86595e-11
0
-1.09762e-12
1.09762e-12
0
0
0
0
0
8.78094e-12
-8.78094e-12
-2290.48
-2253.18
-2180.42
-2075.67
-1943.85
-1790.84
-1623.13
-1447.31
-1269.7
-1095.93
-930.742
-777.781
-639.574
-517.549
-412.16
-323.043
-249.209
-189.237
-141.455
-104.096
-75.4199
-53.8038
-37.7966
-26.1483
-17.8167
-11.9575
-7.90536
-5.14882
-3.3039
-2.08882
-1.3012
-0.798668
-0.483013
-0.287806
-0.168936
-0.0976553
-0.0555613
-0.031085
-0.0170784
-0.0091981
-0.00484606
-0.00249185
-0.00124762
-0.000606901
-0.000286278
-0.000130737
-5.77324e-05
-2.46306e-05
-1.0147e-05
-4.03552e-06
-1.54938e-06
-5.74376e-07
-2.05675e-07
-7.11805e-08
-2.38205e-08
-7.69759e-09
-2.40817e-09
-7.37599e-10
-2.20621e-10
-5.26856e-11
0
-1.09762e-12
0
1.09762e-12
-3.29285e-12
0
3.29285e-12
9.87856e-12
3.29285e-12
-8.78094e-12
-2.41476e-11
-1.09762e-12
1.64643e-11
2.19523e-12
2.19523e-12
-2290.46
-2253.16
-2180.4
-2075.66
-1943.84
-1790.83
-1623.12
-1447.31
-1269.7
-1095.94
-930.749
-777.79
-639.583
-517.558
-412.168
-323.051
-249.215
-189.242
-141.459
-104.099
-75.4225
-53.8058
-37.7981
-26.1494
-17.8175
-11.958
-7.90576
-5.1491
-3.30408
-2.08894
-1.30128
-0.798716
-0.483041
-0.287821
-0.168945
-0.0976598
-0.0555635
-0.0310861
-0.0170789
-0.00919832
-0.00484616
-0.00249189
-0.00124763
-0.000606907
-0.00028628
-0.000130738
-5.77328e-05
-2.46307e-05
-1.0147e-05
-4.03553e-06
-1.5494e-06
-5.7438e-07
-2.05685e-07
-7.11915e-08
-2.38062e-08
-7.69101e-09
-2.41256e-09
-7.29916e-10
-2.14035e-10
-5.48809e-11
0
0
0
0
0
0
9.87856e-12
2.19523e-12
-9.87856e-12
-6.58571e-12
-1.09762e-12
5.48809e-12
0
0
0
-2290.45
-2253.15
-2180.39
-2075.65
-1943.83
-1790.83
-1623.12
-1447.31
-1269.7
-1095.94
-930.754
-777.795
-639.588
-517.563
-412.173
-323.055
-249.219
-189.245
-141.462
-104.101
-75.4241
-53.807
-37.799
-26.1501
-17.8179
-11.9584
-7.906
-5.14926
-3.3042
-2.08901
-1.30133
-0.798744
-0.483058
-0.287831
-0.16895
-0.0976625
-0.0555648
-0.0310867
-0.0170792
-0.00919845
-0.00484621
-0.00249191
-0.00124764
-0.00060691
-0.000286282
-0.000130739
-5.77329e-05
-2.46308e-05
-1.0147e-05
-4.03552e-06
-1.5494e-06
-5.74395e-07
-2.05665e-07
-7.11552e-08
-2.37985e-08
-7.69979e-09
-2.43452e-09
-7.4638e-10
-1.92083e-10
-4.71976e-11
-1.20738e-11
-3.29285e-12
4.39047e-12
3.29285e-12
0
0
1.09762e-12
-1.09762e-12
7.68332e-12
1.09762e-12
-4.39047e-12
0
-2.19524e-12
0
-2.19524e-12
-2290.44
-2253.15
-2180.38
-2075.65
-1943.83
-1790.83
-1623.12
-1447.31
-1269.71
-1095.94
-930.756
-777.798
-639.591
-517.566
-412.176
-323.057
-249.221
-189.247
-141.463
-104.102
-75.4249
-53.8077
-37.7995
-26.1504
-17.8182
-11.9586
-7.90613
-5.14936
-3.30426
-2.08906
-1.30136
-0.798761
-0.483068
-0.287836
-0.168953
-0.097664
-0.0555656
-0.0310871
-0.0170794
-0.00919852
-0.00484624
-0.00249192
-0.00124765
-0.000606912
-0.000286282
-0.000130739
-5.7733e-05
-2.46308e-05
-1.0147e-05
-4.03553e-06
-1.5494e-06
-5.74384e-07
-2.05654e-07
-7.11563e-08
-2.38029e-08
-7.6954e-09
-2.44659e-09
-7.61747e-10
-2.03059e-10
-3.29285e-11
1.20738e-11
4.39047e-12
-2.19523e-12
0
-7.68332e-12
0
1.4269e-11
0
-4.39047e-12
-7.68332e-12
-1.09762e-12
-1.09762e-12
0
1.64643e-11
-6.5857e-12
-2290.43
-2253.14
-2180.38
-2075.65
-1943.83
-1790.82
-1623.12
-1447.31
-1269.71
-1095.94
-930.758
-777.8
-639.593
-517.568
-412.178
-323.059
-249.222
-189.248
-141.464
-104.103
-75.4254
-53.808
-37.7997
-26.1506
-17.8183
-11.9587
-7.90621
-5.14941
-3.3043
-2.08908
-1.30137
-0.79877
-0.483074
-0.28784
-0.168955
-0.0976649
-0.055566
-0.0310873
-0.0170795
-0.00919856
-0.00484626
-0.00249193
-0.00124765
-0.000606913
-0.000286283
-0.000130739
-5.77331e-05
-2.46308e-05
-1.0147e-05
-4.03554e-06
-1.54937e-06
-5.74362e-07
-2.05668e-07
-7.11695e-08
-2.38007e-08
-7.68662e-09
-2.44659e-09
-7.70527e-10
-2.00864e-10
-4.28071e-11
0
1.31714e-11
-5.48809e-12
-1.09762e-12
6.5857e-12
0
1.09762e-12
0
-1.09762e-12
-1.31714e-11
0
6.58571e-12
-4.39047e-12
6.5857e-12
4.39047e-12
-2290.43
-2253.14
-2180.38
-2075.64
-1943.82
-1790.82
-1623.12
-1447.31
-1269.71
-1095.95
-930.759
-777.801
-639.594
-517.569
-412.178
-323.06
-249.223
-189.249
-141.464
-104.103
-75.4257
-53.8082
-37.7999
-26.1507
-17.8184
-11.9587
-7.90625
-5.14944
-3.30431
-2.08909
-1.30138
-0.798775
-0.483077
-0.287841
-0.168956
-0.0976654
-0.0555663
-0.0310874
-0.0170795
-0.00919858
-0.00484627
-0.00249193
-0.00124765
-0.000606914
-0.000286283
-0.000130739
-5.77331e-05
-2.46308e-05
-1.0147e-05
-4.03551e-06
-1.54937e-06
-5.74379e-07
-2.05685e-07
-7.11717e-08
-2.37996e-08
-7.70857e-09
-2.43232e-09
-7.25525e-10
-1.99766e-10
-5.26856e-11
1.09762e-12
0
-2.19524e-12
-1.09762e-12
1.09762e-12
-3.29285e-12
4.39047e-12
4.39047e-12
1.09762e-12
-2.19524e-12
-5.48809e-12
1.09762e-12
1.09762e-12
-1.09762e-12
0
-2290.43
-2253.14
-2180.38
-2075.64
-1943.82
-1790.82
-1623.12
-1447.31
-1269.71
-1095.95
-930.759
-777.801
-639.594
-517.569
-412.179
-323.06
-249.224
-189.249
-141.465
-104.103
-75.4258
-53.8083
-37.8
-26.1508
-17.8184
-11.9588
-7.90627
-5.14945
-3.30432
-2.0891
-1.30138
-0.798778
-0.483078
-0.287842
-0.168956
-0.0976656
-0.0555664
-0.0310874
-0.0170795
-0.00919859
-0.00484627
-0.00249193
-0.00124765
-0.000606914
-0.000286283
-0.000130739
-5.77331e-05
-2.46308e-05
-1.0147e-05
-4.0355e-06
-1.54936e-06
-5.74372e-07
-2.05688e-07
-7.11827e-08
-2.38249e-08
-7.71406e-09
-2.41147e-09
-7.32111e-10
-2.0745e-10
-4.71976e-11
-3.29285e-12
-1.09762e-12
-5.48809e-12
-2.19523e-12
7.68332e-12
4.39047e-12
1.31714e-11
0
-1.31714e-11
8.78094e-12
1.31714e-11
-1.09762e-11
-1.09762e-11
-1.09762e-12
1.09762e-12
-2290.43
-2253.14
-2180.38
-2075.64
-1943.82
-1790.82
-1623.12
-1447.31
-1269.71
-1095.95
-930.76
-777.802
-639.595
-517.57
-412.179
-323.06
-249.224
-189.249
-141.465
-104.104
-75.4259
-53.8084
-37.8
-26.1508
-17.8185
-11.9588
-7.90628
-5.14946
-3.30433
-2.0891
-1.30139
-0.798779
-0.483079
-0.287843
-0.168956
-0.0976657
-0.0555665
-0.0310875
-0.0170795
-0.0091986
-0.00484628
-0.00249193
-0.00124765
-0.000606914
-0.000286283
-0.000130739
-5.77331e-05
-2.46309e-05
-1.0147e-05
-4.0355e-06
-1.54935e-06
-5.74362e-07
-2.05675e-07
-7.11937e-08
-2.38293e-08
-7.71625e-09
-2.43013e-09
-7.39794e-10
-2.16231e-10
-5.26856e-11
-1.09762e-12
0
0
-3.29285e-12
0
4.39047e-12
0
-1.09762e-12
-8.78094e-12
-6.58571e-12
1.53666e-11
5.48809e-12
-8.78094e-12
0
3.29285e-12
-2290.43
-2253.14
-2180.38
-2075.64
-1943.82
-1790.82
-1623.12
-1447.31
-1269.71
-1095.95
-930.76
-777.802
-639.595
-517.57
-412.179
-323.06
-249.224
-189.249
-141.465
-104.104
-75.426
-53.8084
-37.8
-26.1508
-17.8185
-11.9588
-7.90628
-5.14946
-3.30433
-2.08911
-1.30139
-0.79878
-0.483079
-0.287843
-0.168956
-0.0976658
-0.0555665
-0.0310875
-0.0170796
-0.0091986
-0.00484628
-0.00249193
-0.00124765
-0.000606914
-0.000286283
-0.000130739
-5.77331e-05
-2.46308e-05
-1.0147e-05
-4.0355e-06
-1.54934e-06
-5.7437e-07
-2.05702e-07
-7.12244e-08
-2.38381e-08
-7.6932e-09
-2.41476e-09
-7.33208e-10
-2.22816e-10
-6.58571e-11
-4.39047e-12
-1.09762e-12
4.39047e-12
0
0
0
0
1.09762e-12
-1.09762e-12
-7.68332e-12
1.09762e-12
7.68332e-12
-8.78094e-12
0
7.68332e-12
-2290.43
-2253.14
-2180.38
-2075.64
-1943.82
-1790.82
-1623.12
-1447.31
-1269.71
-1095.95
-930.76
-777.802
-639.595
-517.57
-412.179
-323.06
-249.224
-189.249
-141.465
-104.104
-75.426
-53.8084
-37.8
-26.1508
-17.8185
-11.9588
-7.90629
-5.14946
-3.30433
-2.08911
-1.30139
-0.79878
-0.48308
-0.287843
-0.168956
-0.0976658
-0.0555665
-0.0310875
-0.0170796
-0.0091986
-0.00484628
-0.00249193
-0.00124765
-0.000606914
-0.000286283
-0.000130739
-5.77331e-05
-2.46308e-05
-1.0147e-05
-4.0355e-06
-1.54935e-06
-5.74376e-07
-2.05708e-07
-7.12167e-08
-2.3849e-08
-7.69869e-09
-2.39171e-09
-7.21135e-10
-2.12938e-10
-7.13451e-11
-2.08547e-11
5.48809e-12
2.19523e-12
-4.39047e-12
0
-1.09762e-12
0
7.68332e-12
7.68332e-12
-6.5857e-12
-9.87856e-12
-7.68332e-12
-2.19523e-12
3.29285e-12
7.68332e-12
-2290.43
-2253.14
-2180.38
-2075.64
-1943.82
-1790.82
-1623.12
-1447.31
-1269.71
-1095.95
-930.76