/*--------------------------------*- C++ -*----------------------------------*\
  =========                 |
  \\      /  F ield         | OpenFOAM: The Open Source CFD Toolbox
   \\    /   O peration     | Website:  https://openfoam.org
    \\  /    A nd           | Version:  10
     \\/     M anipulation  |
\*---------------------------------------------------------------------------*/
FoamFile
{
    format      ascii;
    class       volScalarField;
    location    "340";
    object      gradTz;
}
// * * * * * * * * * * * * * * * * * * * * * * * * * * * * * * * * * * * * * //

dimensions      [0 -1 0 1 0 0 0];

internalField   nonuniform List<scalar> 
11250
(
-14347.3
-4142.88
-1522.74
-719.37
-414.904
-273.559
-196.473
-149.253
-117.819
-95.5602
-79.026
-66.2678
-56.1175
-47.8414
-40.961
-35.1538
-30.1963
-25.9292
-22.2358
-19.0283
-16.2386
-13.8122
-11.7044
-9.87756
-8.29908
-6.94028
-5.77559
-4.78198
-3.93862
-3.22662
-2.62887
-2.12995
-1.71597
-1.37455
-1.09471
-0.866756
-0.682246
-0.533843
-0.415241
-0.321064
-0.246761
-0.188515
-0.143152
-0.108049
-0.0810613
-0.0604469
-0.0448022
-0.0330055
-0.0241677
-0.0175892
-0.0127238
-0.0091485
-0.006538
-0.00464413
-0.0032789
-0.00230101
-0.00160501
-0.00111277
-0.000766842
-0.000525267
-0.000357627
-0.000242023
-0.000162804
-0.000108857
-7.23495e-05
-4.77989e-05
-3.13932e-05
-2.05007e-05
-1.33176e-05
-8.6167e-06
-5.57038e-06
-3.62657e-06
-2.42335e-06
-1.73145e-06
-1.41645e-06
-8246.15
-4844.05
-2751.14
-1658.94
-1081.34
-756.197
-559.36
-431.811
-344.155
-280.863
-233.243
-196.169
-166.482
-142.161
-121.868
-104.691
-89.9966
-77.3266
-66.3453
-56.7983
-48.4876
-41.2542
-34.9671
-29.5154
-24.8031
-20.7452
-17.2661
-14.2973
-11.777
-9.64887
-7.862
-6.37033
-5.13251
-4.11155
-3.27464
-2.59288
-2.04101
-1.59711
-1.24233
-0.960594
-0.738307
-0.564052
-0.428331
-0.323305
-0.242558
-0.180878
-0.134066
-0.098767
-0.0723216
-0.0526362
-0.0380769
-0.0273779
-0.0195659
-0.0138984
-0.00981281
-0.00688633
-0.00480342
-0.0033303
-0.00229503
-0.00157205
-0.00107033
-0.000724351
-0.000487259
-0.000325802
-0.000216539
-0.000143061
-9.39598e-05
-6.13589e-05
-3.986e-05
-2.57903e-05
-1.66725e-05
-1.08546e-05
-7.25334e-06
-5.1825e-06
-4.23968e-06
-5546.14
-4235.15
-2977.96
-2083.1
-1494.58
-1109.86
-852.382
-673.995
-545.745
-450.215
-376.735
-318.603
-271.495
-232.551
-199.83
-171.987
-148.066
-127.373
-109.391
-93.7246
-80.064
-68.158
-57.798
-48.8064
-41.0281
-34.326
-28.5766
-23.6684
-19.5
-15.9791
-13.022
-10.5527
-8.50326
-6.81254
-5.42639
-4.29704
-3.38272
-2.6472
-2.05929
-1.59239
-1.22397
-0.935137
-0.710161
-0.536055
-0.402189
-0.299927
-0.222312
-0.163784
-0.119934
-0.0872912
-0.063148
-0.0454056
-0.0324504
-0.0230512
-0.0162754
-0.0114218
-0.00796719
-0.0055239
-0.00380677
-0.0026076
-0.00177542
-0.00120154
-0.000808267
-0.000540449
-0.000359205
-0.00023732
-0.000155868
-0.000101788
-6.61245e-05
-4.27845e-05
-2.7659e-05
-1.80074e-05
-1.20333e-05
-8.59782e-06
-7.0338e-06
-4155.6
-3570.96
-2841.02
-2199.57
-1702.79
-1335.18
-1065.35
-865.244
-713.983
-597.055
-504.586
-429.881
-368.365
-316.878
-273.202
-235.757
-203.395
-175.268
-150.735
-129.297
-110.557
-94.1929
-79.9303
-67.535
-56.8005
-47.5424
-39.5943
-32.8046
-27.035
-22.1592
-18.0624
-14.6404
-11.7992
-9.45465
-7.53201
-5.96522
-4.69651
-3.67573
-2.85969
-2.21151
-1.69999
-1.29893
-0.986498
-0.744693
-0.558759
-0.41671
-0.308891
-0.22758
-0.166657
-0.121303
-0.087756
-0.0631019
-0.0450992
-0.0320373
-0.0226208
-0.0158753
-0.011074
-0.00767816
-0.00529151
-0.00362472
-0.00246799
-0.00167028
-0.00112361
-0.000751317
-0.000499367
-0.000329927
-0.000216696
-0.000141513
-9.19323e-05
-5.94837e-05
-3.84553e-05
-2.50368e-05
-1.67308e-05
-1.19544e-05
-9.77993e-06
-3347.59
-3050.01
-2613.59
-2169.52
-1780.12
-1461.17
-1207.27
-1006.53
-847.01
-718.791
-614.263
-527.785
-455.237
-393.62
-340.744
-294.994
-255.166
-220.349
-189.838
-163.075
-139.611
-119.068
-101.127
-85.5084
-71.9633
-60.2674
-50.2163
-41.6227
-34.315
-28.1356
-22.9406
-18.5993
-14.9933
-12.0166
-9.5748
-7.58438
-5.97224
-4.67484
-3.63746
-2.81332
-2.16284
-1.65275
-1.25533
-0.947712
-0.711144
-0.530395
-0.393187
-0.289705
-0.212164
-0.154434
-0.11173
-0.0803448
-0.0574253
-0.0407953
-0.0288057
-0.0202167
-0.0141029
-0.00977856
-0.00673924
-0.00461657
-0.00314341
-0.00212745
-0.00143119
-0.000957006
-0.000636094
-0.000420271
-0.00027604
-0.000180272
-0.000117114
-7.57787e-05
-4.89907e-05
-3.18966e-05
-2.13154e-05
-1.52305e-05
-1.24603e-05
-2834.47
-2665.25
-2391.27
-2082.41
-1784.8
-1520.16
-1294.33
-1105.19
-947.614
-816.016
-705.368
-611.525
-531.215
-461.909
-401.67
-349.012
-302.792
-262.117
-226.281
-194.711
-166.932
-142.542
-121.189
-102.563
-86.382
-72.3907
-60.3528
-50.0501
-41.2813
-33.8609
-27.6185
-22.399
-18.0614
-14.4793
-11.5397
-9.14273
-7.20071
-5.63741
-4.38711
-3.39362
-2.60931
-1.99416
-1.51482
-1.14373
-0.858316
-0.640218
-0.474639
-0.349748
-0.256154
-0.186467
-0.134914
-0.0970218
-0.0693488
-0.0492684
-0.0347903
-0.024418
-0.0170344
-0.0118117
-0.00814076
-0.00557685
-0.0037974
-0.00257015
-0.00172906
-0.00115622
-0.000768531
-0.000507787
-0.00033353
-0.000217823
-0.000141512
-9.15681e-05
-5.92e-05
-3.85446e-05
-2.57587e-05
-1.84058e-05
-1.50583e-05
-2487.3
-2382.07
-2200.78
-1981.15
-1753.86
-1537.98
-1342.65
-1170.56
-1020.89
-891.301
-779.036
-681.448
-596.234
-521.479
-455.63
-397.442
-345.916
-300.247
-259.776
-223.952
-192.306
-164.43
-139.96
-118.567
-99.9478
-83.8224
-69.9295
-58.0257
-47.8841
-39.2947
-32.0636
-26.0134
-20.9828
-16.8262
-13.4137
-10.63
-8.37391
-6.55721
-5.10385
-3.94871
-3.03657
-2.32102
-1.76334
-1.33154
-0.999365
-0.745503
-0.552749
-0.407341
-0.29836
-0.217207
-0.157167
-0.113033
-0.0807984
-0.0574061
-0.040539
-0.0284544
-0.0198513
-0.0137655
-0.00948781
-0.00649994
-0.00442613
-0.00299581
-0.00201549
-0.00134781
-0.000895907
-0.000591967
-0.000388834
-0.000253948
-0.000164987
-0.000106761
-6.90243e-05
-4.49426e-05
-3.00352e-05
-2.14623e-05
-1.75593e-05
-2241.58
-2171.22
-2045.06
-1884.18
-1708.44
-1532.49
-1365.34
-1211.5
-1072.49
-948.107
-837.289
-738.668
-650.848
-572.548
-502.649
-440.201
-384.404
-334.582
-290.161
-250.643
-215.59
-184.606
-157.33
-133.426
-112.579
-94.4936
-78.889
-65.5017
-54.0841
-44.4048
-36.2496
-29.4214
-23.7403
-19.0437
-15.1859
-12.0377
-9.48513
-7.42901
-5.7836
-4.47545
-3.44223
-2.63151
-1.99952
-1.51008
-1.13351
-0.845673
-0.627087
-0.46217
-0.338552
-0.246489
-0.17837
-0.128291
-0.0917123
-0.0651647
-0.0460209
-0.0323041
-0.0225384
-0.0156297
-0.0107732
-0.00738092
-0.00502627
-0.00340216
-0.00228897
-0.00153075
-0.00101755
-0.000672368
-0.000441662
-0.00028846
-0.000187415
-0.000121278
-7.84124e-05
-5.1057e-05
-3.41227e-05
-2.43839e-05
-1.995e-05
-2061.89
-2011.96
-1919.97
-1798.26
-1659.7
-1515.05
-1371.99
-1235.34
-1107.68
-990.03
-882.508
-784.711
-696.003
-615.676
-543.036
-477.438
-418.302
-365.108
-317.39
-274.722
-236.715
-203.001
-173.233
-147.079
-124.223
-104.357
-87.191
-72.4441
-59.8525
-49.1673
-40.1569
-32.6067
-26.3208
-21.1212
-16.848
-13.359
-10.5291
-8.24866
-6.42313
-4.97134
-3.82436
-2.92414
-2.22223
-1.67852
-1.26012
-0.940254
-0.697304
-0.513978
-0.376541
-0.274175
-0.198423
-0.142726
-0.10204
-0.0725081
-0.0512107
-0.0359494
-0.0250833
-0.0173956
-0.0119911
-0.00821574
-0.00559505
-0.00378734
-0.00254824
-0.00170421
-0.0011329
-0.00074862
-0.000491769
-0.000321199
-0.000208693
-0.000135052
-8.73213e-05
-5.686e-05
-3.80024e-05
-2.71573e-05
-2.22197e-05
-1927.31
-1890.04
-1820.06
-1724.93
-1613.15
-1492.5
-1369.19
-1247.68
-1130.84
-1020.36
-917.069
-821.246
-732.843
-651.632
-577.292
-509.47
-447.803
-391.935
-341.516
-296.207
-255.676
-219.596
-187.644
-159.501
-134.851
-113.389
-94.8119
-78.8319
-65.1711
-53.5667
-43.7721
-35.5585
-28.7153
-23.0512
-18.3938
-14.5892
-11.5019
-9.01311
-7.02005
-5.43452
-4.18152
-3.19782
-2.43063
-1.83623
-1.37872
-1.02889
-0.763132
-0.562566
-0.412183
-0.300159
-0.217248
-0.156282
-0.111741
-0.0794081
-0.0560882
-0.0393763
-0.0274762
-0.0190563
-0.0131367
-0.00900117
-0.00613028
-0.00414986
-0.00279229
-0.00186752
-0.00124152
-0.000820431
-0.000538964
-0.000352039
-0.00022874
-0.00014803
-9.57167e-05
-6.23292e-05
-4.16594e-05
-2.97719e-05
-2.43596e-05
-1824.72
-1795.65
-1740.32
-1663.58
-1571.17
-1468.77
-1361.27
-1252.55
-1145.44
-1041.89
-943.136
-849.901
-762.566
-681.278
-606.031
-536.726
-473.203
-415.26
-362.669
-315.18
-272.524
-234.421
-200.577
-170.693
-144.463
-121.581
-101.744
-84.657
-70.0319
-57.5953
-47.0886
-38.2706
-30.9187
-24.8295
-19.8197
-15.7253
-12.4012
-9.72042
-7.57283
-5.86379
-4.51275
-3.4518
-2.62415
-1.98275
-1.48897
-1.11132
-0.824385
-0.607797
-0.445375
-0.324365
-0.234793
-0.16892
-0.120787
-0.0858445
-0.0606393
-0.0425746
-0.0297101
-0.0206071
-0.0142066
-0.00973488
-0.00663037
-0.00448864
-0.0030204
-0.00202019
-0.00134308
-0.000887585
-0.000583106
-0.000380887
-0.000247495
-0.000160174
-0.000103573
-6.74481e-05
-4.50827e-05
-3.22197e-05
-2.63632e-05
-1745.48
-1721.92
-1676.62
-1612.82
-1534.54
-1445.96
-1350.95
-1252.79
-1154.11
-1056.89
-962.57
-872.157
-786.324
-705.493
-629.913
-559.696
-494.859
-435.345
-381.038
-331.774
-287.352
-247.539
-212.076
-180.686
-153.075
-128.946
-107.995
-89.9226
-74.436
-61.253
-50.1055
-40.7419
-32.9295
-26.4547
-21.1246
-16.7661
-13.2259
-10.3697
-8.08073
-6.25852
-4.81758
-3.6857
-2.80248
-2.11786
-1.59069
-1.18742
-0.880956
-0.64959
-0.476059
-0.346751
-0.251024
-0.180615
-0.129163
-0.091805
-0.0648553
-0.0455382
-0.0317806
-0.0220448
-0.0151988
-0.0104154
-0.00709432
-0.004803
-0.00323212
-0.00216191
-0.00143737
-0.000949944
-0.000624102
-0.000407684
-0.000264919
-0.000171458
-0.000110874
-7.22058e-05
-4.8265e-05
-3.44955e-05
-2.82261e-05
-1683.66
-1663.91
-1625.63
-1571.1
-1503.22
-1425.13
-1339.91
-1250.34
-1158.76
-1067.11
-976.907
-889.302
-805.162
-725.114
-649.593
-578.887
-513.163
-452.486
-396.845
-346.157
-300.285
-259.044
-222.209
-189.528
-160.726
-135.51
-113.582
-94.6421
-78.3929
-64.5464
-52.8272
-42.9754
-34.7497
-27.928
-22.3091
-17.712
-13.9764
-10.9611
-8.54379
-6.61873
-5.09597
-3.89947
-2.96559
-2.24152
-1.68384
-1.25714
-0.932819
-0.687924
-0.504214
-0.367303
-0.265931
-0.191361
-0.13686
-0.0972852
-0.0687327
-0.0482647
-0.033686
-0.0233682
-0.0161124
-0.0110422
-0.0075217
-0.00509265
-0.00342723
-0.00229254
-0.0015243
-0.00100745
-0.000661912
-0.000432403
-0.000280994
-0.00018187
-0.000117613
-7.65974e-05
-5.12029e-05
-3.65968e-05
-2.99465e-05
-1635.1
-1618.02
-1584.77
-1536.97
-1476.79
-1406.68
-1329.12
-1246.45
-1160.77
-1073.91
-987.38
-902.416
-820.001
-740.9
-665.692
-594.799
-528.509
-466.996
-410.335
-358.519
-311.47
-269.047
-231.062
-197.288
-167.464
-141.311
-118.535
-98.8372
-81.9188
-67.4876
-55.2627
-44.9777
-36.3842
-29.253
-23.3758
-18.565
-14.6539
-11.4957
-8.96273
-6.94492
-5.34829
-4.09338
-3.11365
-2.35384
-1.7685
-1.32056
-0.980014
-0.722826
-0.529863
-0.386032
-0.279522
-0.201162
-0.143884
-0.102288
-0.0722733
-0.0507551
-0.0354269
-0.0245777
-0.0169475
-0.0116153
-0.00791261
-0.00535765
-0.00360577
-0.0024121
-0.00160389
-0.0010601
-0.00069654
-0.000455045
-0.000295721
-0.000191411
-0.000123788
-8.0623e-05
-5.38963e-05
-3.85237e-05
-3.15242e-05
-1596.73
-1581.59
-1551.98
-1509.13
-1454.72
-1390.7
-1319.1
-1241.94
-1161.11
-1078.28
-994.955
-912.384
-831.621
-753.525
-678.777
-607.902
-541.284
-479.186
-421.759
-369.061
-321.065
-277.675
-238.735
-204.041
-173.351
-146.396
-122.89
-102.536
-85.0354
-70.0933
-57.4248
-46.7586
-37.8404
-30.4354
-24.3291
-19.3283
-15.2609
-11.9751
-9.33888
-7.23808
-5.57526
-4.26795
-3.24704
-2.45511
-1.84489
-1.37781
-1.02265
-0.754372
-0.553057
-0.402978
-0.291825
-0.210037
-0.150248
-0.106821
-0.0754832
-0.0530138
-0.0370064
-0.0256754
-0.0177057
-0.0121358
-0.00826767
-0.0055984
-0.00376802
-0.00252078
-0.00167624
-0.00110798
-0.000728033
-0.000475642
-0.000309121
-0.000200093
-0.000129409
-8.42874e-05
-5.63487e-05
-4.02784e-05
-3.29612e-05
-1566.32
-1552.59
-1525.66
-1486.48
-1436.42
-1377.05
-1310.11
-1237.34
-1160.43
-1080.97
-1000.38
-919.918
-840.676
-763.569
-689.351
-618.624
-551.848
-489.356
-431.364
-377.984
-329.235
-285.061
-245.333
-209.872
-178.453
-150.819
-126.689
-105.772
-87.7686
-72.3837
-59.3293
-48.3302
-39.1279
-31.4824
-25.1745
-20.0061
-15.8006
-12.4019
-9.67408
-7.49958
-5.7779
-4.42395
-3.36635
-2.54575
-1.91331
-1.42912
-1.06088
-0.782678
-0.57388
-0.418199
-0.302881
-0.218017
-0.155971
-0.110901
-0.0783727
-0.0550477
-0.0384291
-0.0266645
-0.018389
-0.012605
-0.00858789
-0.00581559
-0.00391442
-0.00261887
-0.00174156
-0.00115121
-0.000756477
-0.000494248
-0.000321227
-0.000207939
-0.000134489
-8.76003e-05
-5.85661e-05
-4.18653e-05
-3.42609e-05
-1542.15
-1529.47
-1504.52
-1468.11
-1421.33
-1365.54
-1302.23
-1232.94
-1159.2
-1082.51
-1004.22
-925.583
-847.699
-771.521
-697.851
-627.348
-560.53
-497.786
-439.385
-385.483
-336.142
-291.335
-250.965
-214.87
-182.842
-154.636
-129.978
-108.581
-90.1473
-74.3816
-60.994
-49.7067
-40.2574
-32.4025
-25.9185
-20.6035
-16.2768
-12.779
-9.97055
-7.7311
-5.95749
-4.56233
-3.47226
-2.62628
-1.97414
-1.47477
-1.09492
-0.807893
-0.59244
-0.431773
-0.312745
-0.225141
-0.161083
-0.114545
-0.0809553
-0.0568662
-0.0397017
-0.0275495
-0.0190007
-0.0130251
-0.00887466
-0.00601015
-0.00404561
-0.00270678
-0.00180011
-0.00118997
-0.000781987
-0.000510939
-0.00033209
-0.00021498
-0.000139049
-9.05746e-05
-6.05574e-05
-4.32906e-05
-3.54283e-05
-1522.93
-1511.02
-1487.57
-1453.23
-1408.96
-1355.92
-1295.44
-1228.89
-1157.71
-1083.28
-1006.91
-929.822
-853.125
-777.79
-704.651
-634.409
-567.624
-504.731
-446.039
-391.744
-341.939
-296.629
-255.737
-219.122
-186.59
-157.906
-132.804
-111.001
-92.2019
-76.1112
-62.4383
-50.9032
-41.241
-33.205
-26.5685
-21.1261
-16.694
-13.1096
-10.2308
-7.93459
-6.11549
-4.68417
-3.5656
-2.69731
-2.02783
-1.51509
-1.125
-0.830194
-0.608864
-0.443792
-0.321484
-0.231454
-0.165615
-0.117779
-0.0832473
-0.0584808
-0.040832
-0.0283358
-0.0195443
-0.0133986
-0.0091297
-0.00618322
-0.00416234
-0.00278503
-0.00185224
-0.00122449
-0.00080471
-0.000525809
-0.00034177
-0.000221256
-0.000143114
-9.32265e-05
-6.23332e-05
-4.4562e-05
-3.64698e-05
-1507.63
-1496.31
-1473.97
-1441.21
-1398.85
-1347.94
-1289.66
-1225.29
-1156.15
-1083.55
-1008.76
-932.979
-857.302
-782.712
-710.068
-640.095
-573.391
-510.42
-451.527
-396.938
-346.774
-301.064
-259.752
-222.714
-189.767
-160.687
-135.215
-113.071
-93.9636
-77.5976
-63.682
-51.9355
-42.0912
-33.8998
-27.132
-21.5798
-17.0567
-13.3975
-10.4577
-8.11213
-6.25347
-4.79069
-3.64726
-2.75951
-2.07489
-1.55045
-1.1514
-0.849777
-0.623295
-0.454358
-0.329171
-0.23701
-0.169606
-0.120627
-0.0852671
-0.0599042
-0.0418288
-0.0290295
-0.0200241
-0.0137284
-0.00935494
-0.00633612
-0.00426549
-0.00285419
-0.00189833
-0.00125502
-0.000824808
-0.000538965
-0.000350336
-0.00022681
-0.000146713
-9.55747e-05
-6.3906e-05
-4.56882e-05
-3.73925e-05
-1495.45
-1484.57
-1463.09
-1431.53
-1390.64
-1341.37
-1284.81
-1222.15
-1154.63
-1083.51
-1010.02
-935.319
-860.505
-786.564
-714.364
-644.654
-578.054
-515.054
-456.026
-401.22
-350.781
-304.757
-263.109
-225.728
-192.442
-163.036
-137.257
-114.829
-95.4633
-78.8658
-64.7454
-52.8198
-42.8208
-34.497
-27.6172
-21.971
-17.3698
-13.6463
-10.654
-8.26591
-6.37312
-4.88313
-3.7182
-2.81358
-2.11582
-1.58124
-1.17441
-0.86685
-0.635885
-0.463581
-0.335884
-0.241866
-0.173095
-0.123118
-0.0870346
-0.0611503
-0.0427018
-0.0296373
-0.0204446
-0.0140175
-0.00955247
-0.00647025
-0.00435601
-0.0029149
-0.0019388
-0.00128183
-0.000842464
-0.000550524
-0.000357864
-0.000231693
-0.000149877
-9.76398e-05
-6.52894e-05
-4.6679e-05
-3.82044e-05
-1485.77
-1475.23
-1454.4
-1423.75
-1383.99
-1335.99
-1280.77
-1219.46
-1153.23
-1083.3
-1010.85
-937.045
-862.954
-789.566
-717.758
-648.293
-581.806
-518.809
-459.694
-404.73
-354.081
-307.811
-265.897
-228.24
-194.679
-165.006
-138.974
-116.311
-96.7309
-79.9401
-65.648
-53.5719
-43.4423
-35.0066
-28.0318
-22.3058
-17.6381
-13.8598
-10.8226
-8.39817
-6.47611
-4.96279
-3.77938
-2.86025
-2.15119
-1.60786
-1.19431
-0.881631
-0.646791
-0.471576
-0.341707
-0.246079
-0.176124
-0.125282
-0.0885705
-0.0622336
-0.0434611
-0.030166
-0.0208105
-0.0142692
-0.00972451
-0.0065871
-0.00443489
-0.00296782
-0.00197408
-0.00130521
-0.000857866
-0.000560611
-0.000364434
-0.000235955
-0.00015264
-9.94433e-05
-6.64979e-05
-4.75448e-05
-3.8914e-05
-1478.09
-1467.81
-1447.47
-1417.52
-1378.63
-1331.61
-1277.44
-1217.18
-1151.97
-1082.98
-1011.39
-938.312
-864.82
-791.899
-720.43
-651.184
-584.811
-521.837
-462.668
-407.59
-356.783
-310.322
-268.197
-230.32
-196.538
-166.648
-140.409
-117.553
-97.795
-80.8439
-66.4089
-54.2071
-43.9681
-35.4385
-28.3837
-22.5903
-17.8664
-14.0417
-10.9665
-8.5111
-6.56416
-5.03094
-3.83178
-2.90026
-2.18153
-1.63071
-1.2114
-0.894338
-0.656172
-0.478457
-0.346721
-0.249709
-0.178735
-0.127148
-0.0898958
-0.0631688
-0.0441168
-0.0306229
-0.0211268
-0.0144868
-0.00987331
-0.00668821
-0.00450316
-0.00301363
-0.00200464
-0.00132547
-0.000871211
-0.000569352
-0.000370129
-0.000239651
-0.000155036
-0.000101008
-6.75463e-05
-4.8296e-05
-3.95297e-05
-1472.01
-1461.92
-1441.95
-1412.55
-1374.32
-1328.07
-1274.7
-1215.27
-1150.87
-1082.64
-1011.72
-939.237
-866.237
-793.705
-722.524
-653.472
-587.206
-524.265
-465.066
-409.909
-358.982
-312.374
-270.084
-232.031
-198.071
-168.006
-141.599
-118.586
-98.6822
-81.599
-67.0458
-54.7397
-44.4099
-35.8018
-28.6802
-22.8304
-18.0594
-14.1955
-11.0883
-8.60686
-6.63888
-5.08885
-3.87634
-2.93431
-2.20737
-1.65019
-1.22599
-0.905184
-0.664186
-0.484338
-0.351009
-0.252815
-0.180971
-0.128747
-0.0910316
-0.0639706
-0.0446792
-0.0310149
-0.0213984
-0.0146737
-0.0100011
-0.00677508
-0.00456184
-0.00305302
-0.00203092
-0.00134289
-0.000882694
-0.000576876
-0.000375032
-0.000242833
-0.000157099
-0.000102355
-6.84498e-05
-4.89434e-05
-4.00605e-05
-1467.2
-1457.26
-1437.58
-1408.59
-1370.88
-1325.21
-1272.48
-1213.69
-1149.92
-1082.29
-1011.92
-939.91
-867.31
-795.099
-724.16
-655.274
-589.107
-526.204
-466.991
-411.777
-360.762
-314.041
-271.622
-233.431
-199.329
-169.124
-142.581
-119.439
-99.417
-82.2256
-67.5754
-55.1834
-44.7784
-36.1055
-28.9284
-23.0316
-18.2213
-14.3248
-11.1908
-8.68749
-6.70187
-5.1377
-3.91396
-2.96308
-2.22923
-1.66668
-1.23834
-0.914379
-0.670984
-0.48933
-0.354651
-0.255455
-0.182871
-0.130107
-0.0919982
-0.0646533
-0.0451583
-0.031349
-0.0216298
-0.014833
-0.0101102
-0.00684922
-0.00461193
-0.00308666
-0.00205336
-0.00135778
-0.000892507
-0.000583307
-0.000379224
-0.000245554
-0.000158864
-0.000103508
-6.92228e-05
-4.94976e-05
-4.05148e-05
-1463.41
-1453.58
-1434.13
-1405.46
-1368.14
-1322.92
-1270.68
-1212.39
-1149.12
-1081.96
-1012.02
-940.396
-868.12
-796.171
-725.433
-656.689
-590.609
-527.744
-468.527
-413.275
-362.194
-315.387
-272.868
-234.569
-200.354
-170.036
-143.385
-120.14
-100.021
-82.7422
-68.0128
-55.5505
-45.0839
-36.3575
-29.1346
-23.1991
-18.3562
-14.4327
-11.2764
-8.75492
-6.7546
-5.17864
-3.94552
-2.98724
-2.24759
-1.68054
-1.24874
-0.92212
-0.67671
-0.493539
-0.357723
-0.257683
-0.184476
-0.131255
-0.0928152
-0.0652306
-0.0455636
-0.0316317
-0.0218258
-0.014968
-0.0102025
-0.00691205
-0.0046544
-0.00311518
-0.0020724
-0.00137041
-0.000900836
-0.000588766
-0.000382784
-0.000247866
-0.000160364
-0.000104488
-6.98799e-05
-4.99687e-05
-4.09012e-05
-1460.43
-1450.69
-1431.41
-1402.98
-1365.96
-1321.1
-1269.23
-1211.34
-1148.45
-1081.67
-1012.07
-940.745
-868.729
-796.993
-726.42
-657.795
-591.79
-528.961
-469.747
-414.47
-363.34
-316.469
-273.872
-235.487
-201.185
-170.778
-144.039
-120.711
-100.516
-83.1652
-68.3717
-55.8521
-45.3353
-36.5652
-29.3049
-23.3375
-18.4679
-14.5221
-11.3474
-8.81092
-6.79843
-5.2127
-3.9718
-3.00737
-2.26291
-1.69211
-1.25742
-0.928593
-0.681501
-0.497061
-0.360296
-0.25955
-0.185822
-0.132219
-0.093501
-0.0657154
-0.0459041
-0.0318693
-0.0219906
-0.0150815
-0.0102803
-0.00696494
-0.00469016
-0.00313921
-0.00208845
-0.00138106
-0.000907857
-0.00059337
-0.000385786
-0.000249816
-0.000161629
-0.000105315
-7.04346e-05
-5.03665e-05
-4.12274e-05
-1458.09
-1448.42
-1429.27
-1401.03
-1364.25
-1319.65
-1268.08
-1210.48
-1147.9
-1081.41
-1012.08
-940.994
-869.186
-797.621
-727.183
-658.656
-592.715
-529.919
-470.711
-415.417
-364.253
-317.332
-274.676
-236.225
-201.853
-171.376
-144.569
-121.174
-100.917
-83.5094
-68.6641
-56.0984
-45.5408
-36.7353
-29.4445
-23.4512
-18.5597
-14.5957
-11.4059
-8.85711
-6.83462
-5.24085
-3.99354
-3.02404
-2.2756
-1.70171
-1.26463
-0.933967
-0.685482
-0.499991
-0.362437
-0.261104
-0.186943
-0.133022
-0.0940727
-0.0661197
-0.0461882
-0.0320677
-0.0221282
-0.0151764
-0.0103453
-0.00700916
-0.00472007
-0.00315931
-0.00210187
-0.00138997
-0.000913736
-0.000597225
-0.000388301
-0.000251449
-0.000162689
-0.000106008
-7.08996e-05
-5.07e-05
-4.1501e-05
-1456.27
-1446.65
-1427.6
-1399.5
-1362.9
-1318.5
-1267.16
-1209.8
-1147.45
-1081.18
-1012.06
-941.171
-869.527
-798.099
-727.77
-659.323
-593.436
-530.67
-471.47
-416.165
-364.975
-318.018
-275.316
-236.815
-202.388
-171.856
-144.994
-121.547
-101.241
-83.7876
-68.901
-56.2982
-45.7078
-36.8737
-29.5582
-23.5439
-18.6346
-14.6558
-11.4538
-8.89495
-6.8643
-5.26396
-4.0114
-3.03775
-2.28605
-1.70962
-1.27057
-0.9384
-0.688768
-0.50241
-0.364206
-0.262389
-0.187871
-0.133687
-0.0945462
-0.0664547
-0.0464237
-0.0322322
-0.0222423
-0.0152551
-0.0103992
-0.00704588
-0.00474491
-0.00317601
-0.00211303
-0.00139737
-0.000918624
-0.000600432
-0.000390393
-0.000252809
-0.000163572
-0.000106585
-7.12868e-05
-5.09778e-05
-4.17289e-05
-1454.86
-1445.27
-1426.3
-1398.3
-1361.84
-1317.6
-1266.43
-1209.26
-1147.09
-1080.99
-1012.04
-941.295
-869.781
-798.462
-728.22
-659.838
-593.995
-531.255
-472.063
-416.752
-365.544
-318.559
-275.823
-237.282
-202.814
-172.239
-145.334
-121.846
-101.5
-84.0112
-69.0915
-56.4591
-45.8425
-36.9856
-29.6503
-23.619
-18.6955
-14.7047
-11.4927
-8.92575
-6.88848
-5.2828
-4.02598
-3.04895
-2.29458
-1.71608
-1.27543
-0.942031
-0.691461
-0.504394
-0.365658
-0.263445
-0.188632
-0.134234
-0.0949356
-0.0667304
-0.0466175
-0.0323676
-0.0223364
-0.01532
-0.0104436
-0.00707617
-0.0047654
-0.00318979
-0.00212224
-0.00140349
-0.000922662
-0.000603082
-0.000392122
-0.000253933
-0.000164301
-0.000107062
-7.1607e-05
-5.12076e-05
-4.19174e-05
-1453.76
-1444.21
-1425.29
-1397.38
-1361.02
-1316.9
-1265.86
-1208.82
-1146.8
-1080.84
-1012.01
-941.382
-869.97
-798.737
-728.563
-660.234
-594.428
-531.708
-472.525
-417.211
-365.99
-318.984
-276.222
-237.651
-203.15
-172.542
-145.604
-122.084
-101.707
-84.1896
-69.2439
-56.588
-45.9506
-37.0754
-29.7243
-23.6795
-18.7445
-14.7441
-11.5242
-8.95065
-6.90805
-5.29806
-4.0378
-3.05803
-2.30152
-1.72134
-1.27938
-0.944986
-0.693654
-0.50601
-0.366842
-0.264305
-0.189254
-0.13468
-0.0952537
-0.0669556
-0.0467761
-0.0324785
-0.0224133
-0.0153731
-0.0104801
-0.00710098
-0.0047822
-0.00320109
-0.00212979
-0.00140851
-0.000925975
-0.000605256
-0.000393541
-0.000254855
-0.000164901
-0.000107454
-7.18701e-05
-5.13964e-05
-4.20723e-05
-1452.91
-1443.38
-1424.51
-1396.66
-1360.38
-1316.36
-1265.42
-1208.48
-1146.57
-1080.71
-1011.98
-941.442
-870.109
-798.943
-728.824
-660.537
-594.76
-532.059
-472.883
-417.567
-366.337
-319.316
-276.535
-237.941
-203.415
-172.781
-145.817
-122.272
-101.871
-84.3311
-69.3649
-56.6905
-46.0367
-37.147
-29.7834
-23.7279
-18.7837
-14.7757
-11.5494
-8.97064
-6.92377
-5.31034
-4.04731
-3.06535
-2.30711
-1.72558
-1.28258
-0.947374
-0.695428
-0.507319
-0.3678
-0.265003
-0.189758
-0.135042
-0.0955118
-0.0671385
-0.0469048
-0.0325685
-0.0224759
-0.0154163
-0.0105097
-0.00712116
-0.00479587
-0.00321029
-0.00213594
-0.0014126
-0.000928674
-0.000607028
-0.000394698
-0.000255607
-0.000165389
-0.000107774
-7.20848e-05
-5.15504e-05
-4.21987e-05
-1452.26
-1442.75
-1423.91
-1396.11
-1359.88
-1315.93
-1265.07
-1208.22
-1146.38
-1080.6
-1011.95
-941.483
-870.212
-799.099
-729.022
-660.768
-595.015
-532.328
-473.159
-417.843
-366.607
-319.574
-276.778
-238.167
-203.622
-172.968
-145.984
-122.419
-102
-84.4427
-69.4605
-56.7716
-46.1048
-37.2038
-29.8303
-23.7663
-18.8149
-14.8008
-11.5695
-8.98659
-6.93633
-5.32016
-4.05493
-3.07121
-2.31159
-1.72898
-1.28514
-0.949292
-0.696853
-0.50837
-0.368571
-0.265564
-0.190164
-0.135333
-0.0957199
-0.067286
-0.0470087
-0.0326412
-0.0225264
-0.0154512
-0.0105336
-0.00713748
-0.00480693
-0.00321773
-0.00214092
-0.0014159
-0.000930859
-0.000608463
-0.000395635
-0.000256217
-0.000165785
-0.000108033
-7.22587e-05
-5.16753e-05
-4.23012e-05
-1451.77
-1442.26
-1423.45
-1395.68
-1359.51
-1315.61
-1264.8
-1208.01
-1146.24
-1080.52
-1011.93
-941.512
-870.288
-799.215
-729.172
-660.943
-595.209
-532.534
-473.37
-418.054
-366.814
-319.774
-276.966
-238.342
-203.783
-173.113
-146.114
-122.535
-102.101
-84.5301
-69.5355
-56.8353
-46.1585
-37.2485
-29.8673
-23.7966
-18.8396
-14.8207
-11.5854
-8.99924
-6.9463
-5.32795
-4.06097
-3.07587
-2.31515
-1.73168
-1.28718
-0.950821
-0.69799
-0.50921
-0.369187
-0.266013
-0.190489
-0.135567
-0.0958865
-0.0674042
-0.0470919
-0.0326994
-0.0225669
-0.0154792
-0.0105528
-0.00715059
-0.00481581
-0.00322371
-0.00214492
-0.00141856
-0.000932616
-0.000609616
-0.000396389
-0.000256707
-0.000166104
-0.000108241
-7.23987e-05
-5.17758e-05
-4.23837e-05
-1451.39
-1441.89
-1423.09
-1395.36
-1359.22
-1315.36
-1264.6
-1207.85
-1146.13
-1080.46
-1011.91
-941.53
-870.343
-799.301
-729.284
-661.076
-595.356
-532.691
-473.532
-418.217
-366.973
-319.927
-277.111
-238.477
-203.907
-173.226
-146.215
-122.624
-102.18
-84.5982
-69.5939
-56.8851
-46.2004
-37.2835
-29.8963
-23.8204
-18.859
-14.8364
-11.598
-9.0092
-6.95415
-5.3341
-4.06575
-3.07956
-2.31797
-1.73383
-1.2888
-0.952033
-0.698892
-0.509876
-0.369676
-0.266369
-0.190747
-0.135752
-0.096019
-0.0674982
-0.0471582
-0.0327458
-0.0225992
-0.0155015
-0.0105682
-0.00716104
-0.00482289
-0.00322848
-0.00214811
-0.00142069
-0.000934019
-0.000610538
-0.000396991
-0.000257099
-0.000166358
-0.000108408
-7.25107e-05
-5.18562e-05
-4.24497e-05
-1451.1
-1441.61
-1422.83
-1395.11
-1358.99
-1315.17
-1264.44
-1207.73
-1146.04
-1080.4
-1011.89
-941.543
-870.383
-799.365
-729.368
-661.175
-595.467
-532.809
-473.654
-418.34
-367.094
-320.044
-277.222
-238.581
-204.003
-173.313
-146.293
-122.693
-102.24
-84.6509
-69.6392
-56.9236
-46.2329
-37.3108
-29.9188
-23.8389
-18.8741
-14.8486
-11.6078
-9.01699
-6.9603
-5.33892
-4.0695
-3.08245
-2.32019
-1.73551
-1.29007
-0.952987
-0.699602
-0.510402
-0.370062
-0.26665
-0.190951
-0.135899
-0.0961237
-0.0675725
-0.0472106
-0.0327825
-0.0226248
-0.0155191
-0.0105803
-0.00716931
-0.0048285
-0.00323226
-0.00215064
-0.00142237
-0.000935132
-0.00061127
-0.000397469
-0.00025741
-0.00016656
-0.00010854
-7.25996e-05
-5.19201e-05
-4.25021e-05
-1450.88
-1441.4
-1422.63
-1394.93
-1358.83
-1315.02
-1264.32
-1207.64
-1145.97
-1080.36
-1011.87
-941.551
-870.412
-799.412
-729.43
-661.25
-595.55
-532.899
-473.747
-418.433
-367.187
-320.133
-277.307
-238.66
-204.076
-173.379
-146.353
-122.746
-102.287
-84.6914
-69.6741
-56.9534
-46.2581
-37.3318
-29.9363
-23.8533
-18.8858
-14.8581
-11.6154
-9.02305
-6.96509
-5.34267
-4.07242
-3.0847
-2.32192
-1.73683
-1.29107
-0.953733
-0.700158
-0.510813
-0.370364
-0.266871
-0.19111
-0.136014
-0.0962058
-0.0676309
-0.0472518
-0.0328114
-0.0226448
-0.015533
-0.0105898
-0.00717583
-0.00483292
-0.00323524
-0.00215264
-0.0014237
-0.00093601
-0.000611846
-0.000397846
-0.000257655
-0.00016672
-0.000108644
-7.26698e-05
-5.19705e-05
-4.25435e-05
-1450.72
-1441.24
-1422.48
-1394.79
-1358.7
-1314.91
-1264.23
-1207.57
-1145.92
-1080.33
-1011.86
-941.556
-870.433
-799.447
-729.477
-661.306
-595.613
-532.966
-473.817
-418.504
-367.256
-320.2
-277.371
-238.72
-204.131
-173.43
-146.399
-122.787
-102.322
-84.7224
-69.7009
-56.9762
-46.2774
-37.348
-29.9497
-23.8644
-18.8948
-14.8654
-11.6212
-9.02773
-6.96879
-5.34557
-4.07468
-3.08645
-2.32326
-1.73785
-1.29184
-0.954312
-0.70059
-0.511132
-0.370599
-0.267042
-0.191235
-0.136103
-0.0962699
-0.0676764
-0.0472839
-0.0328339
-0.0226605
-0.0155439
-0.0105973
-0.00718093
-0.00483638
-0.00323757
-0.0021542
-0.00142474
-0.000936696
-0.000612298
-0.000398141
-0.000257847
-0.000166845
-0.000108726
-7.27248e-05
-5.201e-05
-4.25759e-05
-1450.6
-1441.12
-1422.36
-1394.68
-1358.61
-1314.83
-1264.16
-1207.51
-1145.88
-1080.31
-1011.85
-941.56
-870.448
-799.473
-729.511
-661.347
-595.659
-533.016
-473.869
-418.556
-367.308
-320.251
-277.419
-238.765
-204.173
-173.468
-146.433
-122.817
-102.349
-84.746
-69.7212
-56.9936
-46.2921
-37.3603
-29.96
-23.8728
-18.9017
-14.871
-11.6258
-9.03132
-6.97163
-5.3478
-4.07642
-3.0878
-2.32429
-1.73864
-1.29243
-0.95476
-0.700924
-0.51138
-0.37078
-0.267175
-0.191331
-0.136173
-0.0963196
-0.0677117
-0.0473088
-0.0328514
-0.0226727
-0.0155523
-0.0106031
-0.00718488
-0.00483906
-0.00323938
-0.00215541
-0.00142554
-0.00093723
-0.000612649
-0.000398371
-0.000257996
-0.000166942
-0.00010879
-7.27675e-05
-5.20407e-05
-4.26012e-05
-1450.51
-1441.04
-1422.28
-1394.6
-1358.54
-1314.77
-1264.11
-1207.47
-1145.85
-1080.29
-1011.84
-941.562
-870.459
-799.492
-729.536
-661.377
-595.694
-533.053
-473.907
-418.596
-367.347
-320.289
-277.455
-238.799
-204.204
-173.497
-146.459
-122.841
-102.37
-84.7638
-69.7366
-57.0068
-46.3032
-37.3697
-29.9678
-23.8793
-18.907
-14.8752
-11.6292
-9.03406
-6.9738
-5.34951
-4.07775
-3.08883
-2.32508
-1.73924
-1.29289
-0.955103
-0.70118
-0.511569
-0.37092
-0.267277
-0.191405
-0.136226
-0.0963578
-0.0677389
-0.047328
-0.0328649
-0.0226821
-0.0155588
-0.0106076
-0.00718794
-0.00484114
-0.00324078
-0.00215635
-0.00142617
-0.000937643
-0.00061292
-0.000398548
-0.000258112
-0.000167017
-0.000108839
-7.28006e-05
-5.20645e-05
-4.26207e-05
-1450.44
-1440.97
-1422.22
-1394.54
-1358.49
-1314.72
-1264.07
-1207.44
-1145.83
-1080.28
-1011.84
-941.563
-870.467
-799.505
-729.555
-661.4
-595.719
-533.08
-473.936
-418.625
-367.376
-320.317
-277.482
-238.825
-204.228
-173.518
-146.478
-122.858
-102.385
-84.7772
-69.7482
-57.0167
-46.3116
-37.3767
-29.9737
-23.8841
-18.911
-14.8785
-11.6318
-9.03614