/*--------------------------------*- C++ -*----------------------------------*\
  =========                 |
  \\      /  F ield         | OpenFOAM: The Open Source CFD Toolbox
   \\    /   O peration     | Website:  https://openfoam.org
    \\  /    A nd           | Version:  10
     \\/     M anipulation  |
\*---------------------------------------------------------------------------*/
FoamFile
{
    format      ascii;
    class       volScalarField;
    location    "340";
    object      gradTx;
}
// * * * * * * * * * * * * * * * * * * * * * * * * * * * * * * * * * * * * * //

dimensions      [0 -1 0 1 0 0 0];

internalField   nonuniform List<scalar> 
11250
(
14300.5
8106
5313.58
3832.13
2935.27
2335.88
1905.51
1580.05
1324.45
1118.08
948.025
805.807
685.588
583.207
495.586
420.378
355.74
300.185
252.485
211.604
176.658
146.878
121.592
100.207
82.1987
67.1044
54.5132
44.0627
35.4339
28.3471
22.5584
17.8562
14.0581
11.0077
8.57202
6.6384
5.11238
3.91514
2.98143
2.25757
1.69977
1.27251
0.947204
0.701025
0.51585
0.377405
0.274525
0.198538
0.142753
0.102048
0.0725275
0.0512476
0.0360011
0.0251437
0.0174586
0.012052
0.00827128
0.00564355
0.00382821
0.00258168
0.00173089
0.00115372
0.00076452
0.000503656
0.000329861
0.000214767
0.000139001
8.94142e-05
5.71411e-05
3.62366e-05
2.27342e-05
1.39937e-05
8.25304e-06
4.31703e-06
1.3391e-06
4096.37
4704.82
4004.11
3249.6
2640.38
2169.92
1804.08
1514.01
1279.33
1086.09
924.679
788.378
672.344
573
487.634
414.131
350.801
296.262
249.358
209.107
174.662
145.282
120.316
99.188
81.387
66.4589
54.0013
43.6579
35.1148
28.0965
22.3623
17.7034
13.9395
10.9161
8.50155
6.58445
5.07127
3.88397
2.95791
2.23992
1.68659
1.26271
0.939965
0.695703
0.511958
0.374575
0.272478
0.197065
0.141699
0.101299
0.071997
0.0508744
0.03574
0.024962
0.0173329
0.0119655
0.00821212
0.00560331
0.003801
0.00256338
0.00171866
0.00114559
0.000759145
0.000500124
0.000327553
0.000213268
0.000138033
8.87929e-05
5.6745e-05
3.5986e-05
2.25772e-05
1.38973e-05
8.19632e-06
4.2874e-06
1.32995e-06
1476.83
2613.72
2749.92
2523.84
2209.29
1902.39
1630.31
1396.4
1196.87
1026.57
880.682
755.224
646.971
553.341
472.253
402.006
341.188
288.608
243.247
204.219
170.749
142.149
117.81
97.1859
79.7904
65.1885
52.9932
42.8603
34.4859
27.6024
21.9756
17.4019
13.7055
10.7353
8.3624
6.47789
4.99006
3.82239
2.91144
2.20503
1.66052
1.24334
0.925648
0.685176
0.50426
0.368975
0.268427
0.19415
0.139614
0.0998145
0.0709469
0.0501354
0.0352229
0.0246022
0.017084
0.0117942
0.00809496
0.00552362
0.0037471
0.00252713
0.00169442
0.00112947
0.000748494
0.000493124
0.000322979
0.000210297
0.000136114
8.75611e-05
5.59594e-05
3.54888e-05
2.22659e-05
1.3706e-05
8.08366e-06
4.22853e-06
1.31171e-06
674.357
1524.19
1859.5
1888.57
1773.08
1603.03
1421.77
1248.14
1089.23
946.875
820.659
709.347
611.477
525.605
450.407
384.691
327.4
277.591
234.424
197.144
165.073
137.597
114.163
94.2683
77.4609
63.3332
51.5195
41.6935
33.5652
26.8785
21.4087
16.9598
13.3622
10.4698
8.15811
6.32141
4.87077
3.73189
2.84313
2.15373
1.6222
1.21486
0.904588
0.669689
0.492932
0.360734
0.262464
0.189859
0.136543
0.0976294
0.0694005
0.0490471
0.0344613
0.0240722
0.0167172
0.0115419
0.00792233
0.00540618
0.00366766
0.00247371
0.0016587
0.00110572
0.000732793
0.000482805
0.000316236
0.000205916
0.000133284
8.57448e-05
5.48009e-05
3.47555e-05
2.18067e-05
1.34238e-05
7.91747e-06
4.14171e-06
1.28477e-06
371.054
950.079
1276.76
1399.82
1393.93
1317.82
1208.95
1088.84
969.004
855.207
750.043
654.425
568.399
491.576
423.368
363.108
310.113
263.711
223.263
188.165
157.849
131.79
109.5
90.5313
74.4725
60.9497
49.6242
40.1913
32.3787
25.9449
20.6771
16.3888
12.9185
10.1266
7.89381
6.11886
4.7163
3.61467
2.75462
2.08724
1.5725
1.17792
0.877269
0.649594
0.47823
0.350037
0.254723
0.184288
0.132555
0.0947911
0.0673915
0.0476331
0.0334716
0.0233834
0.0162406
0.0112139
0.0076979
0.00525349
0.00356438
0.00240424
0.00161224
0.00107483
0.00071237
0.00046938
0.000307463
0.000200216
0.000129603
8.33812e-05
5.32933e-05
3.38012e-05
2.1209e-05
1.30565e-05
7.70114e-06
4.02868e-06
1.24974e-06
231.122
629.162
899.057
1041.97
1087.42
1068.22
1010.62
932.842
846.592
758.966
674.082
594.193
520.419
453.196
392.56
338.31
290.112
247.56
210.213
177.622
149.337
124.926
103.975
86.0934
70.9168
58.1089
47.3617
38.3956
30.9588
24.8265
19.7997
15.7035
12.3856
9.71405
7.57598
5.87514
4.53033
3.47348
2.64796
2.00708
1.51258
1.13335
0.844304
0.625339
0.46048
0.337118
0.245372
0.177556
0.127736
0.0913605
0.0649629
0.0459234
0.0322748
0.0225504
0.015664
0.0108171
0.00742635
0.00506873
0.00343937
0.00232015
0.001556
0.00103743
0.000687642
0.000453125
0.000296839
0.000193313
0.000125144
8.05182e-05
5.1467e-05
3.26451e-05
2.04849e-05
1.26115e-05
7.43902e-06
3.8917e-06
1.20728e-06
155.67
437.218
649.697
783.435
847.92
859.798
835.598
788.791
729.284
663.912
597.193
531.991
470.049
412.358
359.411
311.378
268.221
229.766
195.757
165.887
139.825
117.229
97.7606
81.0884
66.8974
54.8912
44.7946
36.3549
29.3429
23.5521
18.7989
14.921
11.7765
9.24218
7.21214
5.59597
4.31718
3.31155
2.52558
1.91507
1.44376
1.08215
0.806414
0.597451
0.440065
0.322255
0.23461
0.169808
0.122188
0.0874096
0.0621653
0.0439536
0.0308957
0.0215902
0.0149993
0.0103596
0.00711322
0.00485563
0.00329519
0.00222315
0.00149111
0.000994275
0.000659106
0.000434364
0.000284576
0.000185344
0.000119995
7.72124e-05
4.93581e-05
3.13099e-05
1.96486e-05
1.20975e-05
7.13624e-06
3.73346e-06
1.15821e-06
110.277
315.14
480.389
595.953
663.276
690.115
686.213
660.777
621.424
573.985
522.695
470.513
419.432
370.744
325.235
283.339
245.239
210.953
180.379
153.339
129.608
108.93
91.0375
75.6579
62.525
51.3829
41.9899
34.1215
27.5715
22.1531
17.6989
14.0599
11.1055
8.72188
6.81061
5.28763
4.0816
3.13247
2.39015
1.81319
1.36752
1.0254
0.764401
0.566516
0.417411
0.305756
0.22266
0.161201
0.116023
0.0830187
0.0590554
0.0417634
0.0293618
0.0205221
0.0142598
0.00985042
0.00676469
0.00461841
0.00313465
0.00211513
0.00141885
0.000946205
0.000627315
0.00041346
0.000270911
0.000176462
0.000114257
7.35273e-05
4.70069e-05
2.98212e-05
1.87159e-05
1.15242e-05
6.79855e-06
3.55696e-06
1.10348e-06
80.8318
233.435
362.016
458.431
521.265
553.717
561.252
549.864
525.077
491.517
452.824
411.738
370.246
329.743
291.163
255.1
221.894
191.7
164.541
140.345
118.977
100.259
83.9865
69.9442
57.9117
47.672
39.0167
31.7491
25.6866
20.6621
16.5247
13.1396
10.3877
8.1646
6.38013
4.95678
3.8286
2.94001
2.24451
1.70355
1.28543
0.964268
0.719119
0.533159
0.392973
0.287951
0.20976
0.151905
0.109363
0.0782737
0.0556938
0.0393952
0.027703
0.0193667
0.0134596
0.00929941
0.00638743
0.00436158
0.00296081
0.00199813
0.00134056
0.000894126
0.000592867
0.000390806
0.000256099
0.000166834
0.000108036
6.95315e-05
4.44571e-05
2.82065e-05
1.77043e-05
1.09022e-05
6.43213e-06
3.36547e-06
1.04412e-06
60.6887
176.477
276.995
356.12
411.678
444.65
457.957
455.372
440.753
417.606
388.89
356.979
323.701
290.415
258.099
227.42
198.81
172.519
148.658
127.239
108.2
91.4293
76.7797
64.0843
53.1659
43.8444
35.9426
29.291
23.7298
19.1115
15.3018
12.1798
9.63796
7.58193
5.92957
4.61015
3.56331
2.73803
2.09155
1.58833
1.1991
0.899939
0.671445
0.498021
0.367218
0.269178
0.196152
0.142097
0.102333
0.0732635
0.0521431
0.0368931
0.0259498
0.0181453
0.0126135
0.00871664
0.00598833
0.00408983
0.00277683
0.00187429
0.00125768
0.000838977
0.000556383
0.000366809
0.000240407
0.000156633
0.000101442
6.52961e-05
4.1754e-05
2.64945e-05
1.66316e-05
1.02426e-05
6.04348e-06
3.16233e-06
9.81141e-07
46.3632
135.468
214.487
278.912
326.603
357.524
373.14
375.764
368.023
352.493
331.494
306.992
280.582
253.511
226.72
200.89
176.494
153.834
133.084
114.312
97.5167
82.6367
69.5739
58.2044
48.3889
39.9806
32.8316
26.7977
21.7409
17.5327
14.0546
11.1993
8.8711
6.98518
5.46759
4.25437
3.29075
2.53034
1.93413
1.46966
1.11013
0.833599
0.622251
0.461743
0.340614
0.249777
0.182083
0.131952
0.0950588
0.0680769
0.0484661
0.0343012
0.0241332
0.0168793
0.0117363
0.00811226
0.00557432
0.00380786
0.00258589
0.00174574
0.00117163
0.000781707
0.000518488
0.00034188
0.000224102
0.000146031
9.45893e-05
6.08932e-05
3.89437e-05
2.47143e-05
1.55159e-05
9.55656e-06
5.6392e-06
2.95097e-06
9.15582e-07
35.8731
105.184
167.621
219.877
260.099
287.835
303.737
309.19
305.95
295.873
280.73
262.101
241.328
219.505
197.493
175.944
155.332
135.984
118.106
101.808
87.1287
74.0479
62.5064
52.4163
43.671
36.1534
29.742
24.3156
19.7569
15.9546
12.8057
10.216
8.10089
6.38504
5.00242
3.89572
3.01572
2.32056
1.775
1.3496
1.02005
0.766383
0.572375
0.424941
0.31361
0.230074
0.167788
0.121639
0.0876611
0.0628004
0.044724
0.0316624
0.022283
0.0155895
0.0108423
0.00749618
0.00515219
0.00352029
0.00239111
0.00161457
0.00108381
0.000723245
0.000479797
0.000316422
0.000207448
0.0001352
8.75869e-05
5.63935e-05
3.6071e-05
2.28944e-05
1.43751e-05
8.85498e-06
5.22572e-06
2.73478e-06
8.48548e-07
28.0174
82.3663
131.911
174.216
207.76
231.962
247.039
253.794
253.386
247.133
236.365
222.323
206.106
188.645
170.699
152.866
135.596
119.216
103.945
89.9183
77.1997
65.8007
55.692
46.8147
39.0899
32.4261
26.7249
21.8859
17.8103
14.4031
11.5757
9.24596
7.33991
5.79125
4.54159
3.54001
2.74264
2.11207
1.61669
1.23006
0.930288
0.699357
0.522606
0.388193
0.28663
0.210377
0.15349
0.11132
0.080255
0.0575156
0.0409745
0.0290174
0.0204279
0.0142958
0.00994529
0.00687783
0.00472838
0.00323149
0.00219544
0.00148277
0.000995543
0.000664476
0.000440893
0.000290818
0.000190695
0.000124303
8.05405e-05
5.18647e-05
3.31792e-05
2.1062e-05
1.32263e-05
8.14835e-06
4.80922e-06
2.51705e-06
7.81046e-07
22.0317
64.9011
104.344
138.554
166.315
187.047
200.745
207.856
209.136
205.51
197.965
187.462
174.884
161.003
146.472
131.819
117.457
103.697
90.7576
78.7826
67.8536
58.0023
49.2217
41.4762
34.7095
28.8512
23.8232
19.5433
15.9292
12.9009
10.3824
8.30324
6.59919
5.21244
4.09178
3.19237
2.47546
1.90786
1.46149
1.11277
0.842137
0.633482
0.473657
0.352027
0.26006
0.190969
0.139394
0.10114
0.0729458
0.0522975
0.0372707
0.0264036
0.0185939
0.0130164
0.00905791
0.0062659
0.00430884
0.00294551
0.00200164
0.00135219
0.000908071
0.00060622
0.000402321
0.000265427
0.000174078
0.000113491
7.35478e-05
4.73696e-05
3.03084e-05
1.92425e-05
1.20855e-05
7.44653e-06
4.39551e-06
2.30072e-06
7.13931e-07
17.409
51.366
82.8385
110.477
133.323
150.852
162.953
169.86
172.058
170.196
164.997
157.197
147.495
136.522
124.826
112.864
101.002
89.5248
78.6415
68.4959
59.1772
50.7302
43.1637
36.4595
30.5792
25.4703
21.0713
17.3161
14.1367
11.4663
9.24062
7.39965
5.88808
4.65594
3.65871
2.85725
2.21759
1.71056
1.31138
0.999216
0.756725
0.569603
0.426155
0.316905
0.23424
0.172096
0.125679
0.09123
0.0658268
0.0472128
0.03366
0.0238544
0.0168045
0.0117676
0.00819144
0.0056682
0.00389892
0.002666
0.00181216
0.00122449
0.000822503
0.000549219
0.000364569
0.000240569
0.000157806
0.000102902
6.66978e-05
4.29652e-05
2.74949e-05
1.74591e-05
1.09671e-05
6.75832e-06
3.98974e-06
2.08851e-06
6.48104e-07
13.8017
40.7752
65.923
88.2306
106.947
121.622
132.102
138.496
141.111
140.398
136.886
131.134
123.687
115.056
105.692
95.9819
86.2458
76.7363
67.6456
59.1112
51.2239
44.035
37.5641
31.8056
26.735
22.314
18.4952
15.2258
12.4505
10.1139
8.16223
6.54467
5.21411
4.12769
3.24705
2.53828
1.97186
1.52234
1.16803
0.890668
0.675004
0.508432
0.38063
0.28322
0.209461
0.153972
0.1125
0.0817021
0.0589784
0.042319
0.0301831
0.0213985
0.0150799
0.0105635
0.0073557
0.00509147
0.00350325
0.00239613
0.00162916
0.00110111
0.00073981
0.000494117
0.000328066
0.000216528
0.000142065
9.26557e-05
6.00678e-05
3.87014e-05
2.47707e-05
1.57318e-05
9.88364e-06
6.09152e-06
3.59652e-06
1.88284e-06
5.84328e-07
10.9643
32.4266
52.5332
70.5167
85.7903
97.9791
106.922
112.654
115.369
115.376
113.063
108.848
103.159
96.3987
88.9376
81.0983
73.1528
65.3219
57.7776
50.647
44.0176
37.9432
32.4494
27.5397
23.1998
19.4027
16.1126
13.2877
10.8834
8.85438
7.15592
5.74539
4.58299
3.63227
2.86041
2.23831
1.74048
1.3449
1.03275
0.788129
0.597735
0.450544
0.337514
0.251293
0.185957
0.13677
0.0999831
0.0726477
0.0524667
0.0376633
0.0268738
0.0190599
0.0134369
0.009416
0.00655886
0.00454139
0.00312572
0.00213853
0.00145442
0.000983277
0.000660807
0.000441458
0.000293171
0.00019354
0.00012701
8.28536e-05
5.37238e-05
3.46205e-05
2.21627e-05
1.40779e-05
8.84599e-06
5.45282e-06
3.21982e-06
1.68576e-06
5.23173e-07
8.71914
25.8091
41.8838
56.3599
68.7802
78.8372
86.3797
91.4021
94.023
94.4565
92.9822
89.9161
85.5865
80.3135
74.3949
68.0965
61.6471
55.2357
49.0132
43.0936
37.5585
32.4608
27.8293
23.6729
19.9852
16.7478
13.9338
11.511
9.44358
7.69469
6.22754
5.00667
3.99871
3.1729
2.50139
1.95938
1.52506
1.17951
0.906519
0.692354
0.525494
0.396374
0.297134
0.221369
0.163911
0.120624
0.0882272
0.0641385
0.0463436
0.033283
0.0237586
0.0168574
0.0118888
0.00833428
0.00580742
0.00402244
0.00276942
0.00189534
0.0012894
0.000871954
0.000586148
0.00039168
0.000260177
0.000171798
0.000112767
7.35777e-05
4.77188e-05
3.07568e-05
1.9693e-05
1.25114e-05
7.86295e-06
4.84758e-06
2.86281e-06
1.49897e-06
4.65217e-07
6.93495
20.5429
33.3853
45.0174
55.0829
63.3331
69.6332
73.9577
76.3769
77.0376
76.1423
73.9278
70.6459
66.5479
61.872
56.8349
51.6263
46.4059
41.3033
36.4192
31.8272
27.5774
23.699
20.2047
17.093
14.3523
11.9628
9.89976
8.13488
6.6384
5.38029
4.33129
3.46362
2.75155
2.17161
1.70282
1.32666
1.02701
0.789998
0.603854
0.458676
0.346226
0.259719
0.193621
0.143453
0.10563
0.0773028
0.0562261
0.0406466
0.0292052
0.0208571
0.014805
0.0104455
0.0073253
0.00510621
0.00353798
0.00243668
0.00166814
0.00113518
0.00076788
0.000516328
0.000345114
0.000229302
0.000151447
9.9431e-05
6.48906e-05
4.20935e-05
2.71365e-05
1.73784e-05
1.10428e-05
6.94123e-06
4.27996e-06
2.52793e-06
1.32378e-06
4.10861e-07
5.51294
16.3407
26.5884
35.9157
44.0452
50.7776
55.9969
59.669
61.8336
62.5911
62.0878
60.5006
58.0221
54.8484
51.1686
47.1577
42.9714
38.7429
34.5821
30.576
26.7898
23.2693
20.0429
17.1247
14.517
12.2127
10.1978
8.4535
6.95754
5.68617
4.61504
3.72017
2.97864
2.36905
1.87181
1.46927
1.14583
0.887841
0.683545
0.522916
0.397507
0.300275
0.225407
0.168152
0.124662
0.0918478
0.0672543
0.0489435
0.0353999
0.0254476
0.0181818
0.0129116
0.00911345
0.00639365
0.00445846
0.00309027
0.00212906
0.00145802
0.000992491
0.000671558
0.000451686
0.000301988
0.000200699
0.000132588
8.70697e-05
5.6836e-05
3.68765e-05
2.37781e-05
1.52306e-05
9.67986e-06
6.08551e-06
3.75292e-06
2.21694e-06
1.16105e-06
3.60387e-07
4.37757
12.9823
21.1458
28.6071
35.1506
40.6173
44.9098
47.9922
49.885
50.6564
50.4123
49.2842
47.4192
44.9695
42.0843
38.9039
35.5548
32.1469
28.7723
25.5051
22.4019
19.5034
16.8364
14.4152
12.2443
10.32
8.63266
7.16796
5.90876
4.83619
3.93065
3.17266
2.54342
2.02527
1.60195
1.25876
0.98263
0.762098
0.587253
0.449627
0.342064
0.258587
0.194251
0.145007
0.107571
0.0793036
0.0581023
0.0423062
0.0306151
0.0220188
0.0157394
0.0111821
0.00789604
0.00554179
0.00386592
0.00268054
0.00184741
0.00126556
0.000861755
0.000583272
0.000392418
0.000262434
0.000174457
0.000115281
7.57221e-05
4.94399e-05
3.20848e-05
2.06927e-05
1.32569e-05
8.42704e-06
5.29881e-06
3.26831e-06
1.93092e-06
1.01134e-06
3.13956e-07
3.47034
10.2964
16.7861
22.7389
27.9873
32.4053
35.9124
38.4743
40.0999
40.8354
40.757
39.9628
38.5644
36.6796
34.4256
31.914
29.2467
26.5136
23.7909
21.141
18.6122
16.2403
14.0492
12.0531
10.2576
8.66122
7.25752
6.03594
4.98327
4.08463
3.32439
2.6868
2.15658
1.71924
1.36138
1.07084
0.836759
0.64957
0.500985
0.383898
0.292291
0.221127
0.166229
0.124173
0.0921751
0.0679951
0.049846
0.0363146
0.026293
0.0189198
0.0135306
0.00961721
0.00679393
0.00477024
0.00332899
0.0023091
0.00159198
0.00109095
0.000743095
0.000503112
0.000338586
0.000226497
0.000150607
9.9546e-05
6.54025e-05
4.2712e-05
2.77247e-05
1.78844e-05
1.14601e-05
7.28622e-06
4.58232e-06
2.82682e-06
1.67028e-06
8.74926e-07
2.71592e-07
2.74542
8.14882
13.2952
18.0306
22.2251
25.779
28.6269
30.7377
32.1136
32.7855
32.8083
32.2551
31.2104
29.7649
28.0102
26.0346
23.9196
21.7381
19.5527
17.415
15.3659
13.4362
11.6471
10.0117
8.53595
7.2202
6.06014
5.04809
4.17397
3.42615
2.79224
2.25961
1.81589
1.44931
1.14889
0.90464
0.707582
0.549803
0.424414
0.325495
0.248022
0.187778
0.141261
0.105594
0.0784346
0.0578948
0.0424666
0.0309557
0.0224249
0.0161446
0.0115514
0.00821425
0.00580537
0.00407784
0.00284691
0.00197546
0.00136245
0.000933975
0.000636382
0.000430996
0.00029014
0.000194143
0.000129129
8.53714e-05
5.61033e-05
3.66476e-05
2.37935e-05
1.53517e-05
9.83913e-06
6.25685e-06
3.93563e-06
2.42825e-06
1.43499e-06
7.51753e-07
2.33369e-07
2.1666
6.43302
10.503
14.2581
17.5977
20.4435
22.7427
24.4682
25.6184
26.2139
26.2942
25.9135
25.1358
24.0308
22.6696
21.1216
19.4519
17.7189
15.9734
14.258
12.6069
11.046
9.59373
8.26196
7.05666
5.97905
5.02652
4.19353
3.47247
2.85431
2.32928
1.88734
1.51854
1.21336
0.962893
0.758962
0.594216
0.462144
0.357061
0.27407
0.209003
0.158357
0.119214
0.0891747
0.0662816
0.0489548
0.0359302
0.0262059
0.0189942
0.0136817
0.009794
0.00696777
0.00492661
0.00346203
0.00241796
0.00167846
0.00115803
0.00079412
0.000541268
0.000366695
0.000246927
0.000165276
0.000109958
7.27159e-05
4.77983e-05
3.12299e-05
2.02806e-05
1.3088e-05
8.38993e-06
5.33627e-06
3.35716e-06
2.07167e-06
1.22446e-06
6.41533e-07
1.99188e-07
1.70506
5.06416
8.27302
11.2408
13.8895
16.158
18.0038
19.4042
20.3554
20.8712
20.9799
20.7217
20.1449
19.3028
18.2506
17.0425
15.7299
14.3595
12.9723
11.603
10.2798
9.02428
7.85234
6.77433
5.79592
4.91886
4.14169
3.4605
2.86956
2.36193
1.92997
1.56572
1.26125
1.00891
0.801497
0.632389
0.495596
0.385798
0.298336
0.229185
0.174914
0.132628
0.099917
0.0747915
0.0556273
0.0411112
0.0301914
0.0220327
0.0159781
0.0115151
0.00824711
0.00587001
0.00415228
0.00291914
0.00203962
0.00141638
0.000977572
0.000670605
0.000457234
0.000309862
0.00020872
0.000139743
9.29966e-05
6.15151e-05
4.04457e-05
2.64322e-05
1.71688e-05
1.10821e-05
7.10553e-06
4.5202e-06
2.84426e-06
1.75547e-06
1.03769e-06
5.43736e-07
1.68817e-07
1.33772
3.97419
6.49584
8.83294
10.9254
12.7254
14.1992
15.328
16.1072
16.5459
16.6643
16.4922
16.066
15.4263
14.6158
13.6766
12.6492
11.5706
10.4736
9.38615
8.33134
7.32715
6.38684
5.51938
4.72994
4.0205
3.39037
2.83684
2.35565
1.9415
1.58843
1.2902
1.0405
0.833242
0.662639
0.523352
0.410537
0.319874
0.247572
0.190345
0.145386
0.110322
0.0831721
0.0623
0.0463669
0.0342888
0.0251961
0.0183978
0.0133493
0.00962552
0.00689721
0.00491151
0.00347583
0.00244463
0.00170877
0.00118709
0.000819624
0.000562452
0.000383622
0.00026006
0.000175227
0.000117352
7.81176e-05
5.16864e-05
3.39919e-05
2.22197e-05
1.44358e-05
9.32001e-06
5.97691e-06
3.80293e-06
2.39333e-06
1.47737e-06
8.73404e-07
4.57672e-07
1.42113e-07
1.04603
3.10836
5.08303
6.91662
8.56283
9.98454
11.1551
12.0591
12.6919
13.0593
13.1759
13.0637
12.75
12.2657
11.6436
10.9164
10.1156
9.2705
8.40714
7.54799
6.71165
5.91288
5.1627
4.46874
3.83557
3.26519
2.75743
2.31046
1.92112
1.5854
1.29869
1.05609
0.852665
0.683556
0.544161
0.430201
0.337783
0.263425
0.204057
0.157018
0.120024
0.091145
0.0687638
0.0515427
0.0383858
0.0284044
0.0208845
0.0152582
0.0110773
0.00799142
0.00572913
0.00408165
0.00288985
0.00203337
0.00142189
0.000988176
0.000682539
0.000468547
0.000319682
0.000216784
0.000146112
9.78822e-05
6.51749e-05
4.31342e-05
2.83745e-05
1.8552e-05
1.20557e-05
7.78496e-06
4.99346e-06
3.17776e-06
2.00021e-06
1.23486e-06
7.30135e-07
3.82656e-07
1.18845e-07
0.815046
2.42248
3.96309
5.39602
6.68573
7.80346
8.72831
9.44776
9.95758
10.2614
10.3696
10.2984
10.0684
9.70298
9.22718
8.66631
8.04488
7.38579
6.70962
6.03425
5.37464
4.74274
4.14761
3.59564
3.0908
2.63498
2.22833
1.86963
1.55659
1.28617
1.05483
0.858772
0.694115
0.557038
0.44389
0.351269
0.276063
0.215482
0.167061
0.128654
0.0984195
0.0747942
0.0564681
0.042355
0.0315639
0.0233709
0.0171939
0.0125689
0.00912984
0.00658992
0.00472671
0.00336908
0.00238642
0.00167987
0.00117518
0.00081704
0.000564545
0.000387685
0.0002646
0.00017949
0.000121013
8.10913e-05
5.40095e-05
3.5754e-05
2.35254e-05
1.53852e-05
9.9999e-06
6.45879e-06
4.14361e-06
2.63742e-06
1.66036e-06
1.02518e-06
6.0624e-07
3.17753e-07
9.86703e-08
0.632688
1.88084
3.07813
4.19342
5.19946
6.0741
6.80101
7.37016
7.7778
8.02613
8.12262
8.0792
7.91123
7.63644
7.27391
6.84307
6.3629
5.85124
5.32423
4.79603
4.27853
3.78134
3.31185
2.87533
2.47516
2.11305
1.78935
1.50326
1.25312
1.03667
0.851191
0.693756
0.561339
0.450947
0.359704
0.284918
0.224122
0.175091
0.13586
0.10471
0.0801638
0.0609654
0.0460601
0.0345716
0.0257801
0.0191002
0.0140602
0.010284
0.00747417
0.00539765
0.00387346
0.00276221
0.00195744
0.00137849
0.000964742
0.000670996
0.000463807
0.000318619
0.000217535
0.000147611
9.95505e-05
6.67284e-05
4.44556e-05
2.94369e-05
1.93736e-05
1.26729e-05
8.23876e-06
5.32239e-06
3.4152e-06
2.17416e-06
1.36893e-06
8.45377e-07
4.99961e-07
2.62046e-07
8.13609e-08
0.489205
1.45454
2.38127
3.24569
4.02701
4.70818
5.27655
5.72416
6.04779
6.24872
6.33229
6.30727
6.18512
5.97919
5.70399
5.37438
5.00498
4.60961
4.20086
3.78983
3.38595
2.99687
2.62854
2.28528
1.96991
1.68395
1.42782
1.20102
1.00239
0.830208
0.682435
0.556815
0.451005
0.362674
0.289571
0.22958
0.180752
0.141331
0.109754
0.084656
0.06486
0.0493625
0.0373199
0.0280301
0.0209155
0.0155055
0.0114208
0.00835818
0.00607779
0.00439148
0.00315296
0.00224947
0.00159481
0.0011236
0.000786677
0.000547362
0.00037849
0.000260101
0.000177642
0.00012058
8.13449e-05
5.45409e-05
3.63459e-05
2.40731e-05
1.58473e-05
1.03685e-05
6.74213e-06
4.35636e-06
2.79583e-06
1.78018e-06
1.12105e-06
6.92417e-07
4.09535e-07
2.14673e-07
6.66638e-08
0.376718
1.12026
1.83457
2.50166
3.10571
3.63368
4.07579
4.42579
4.68097
4.84204
4.9128
4.89969
4.81123
4.65747
4.44936
4.19824
3.9153
3.6112
3.29571
2.97748
2.66392
2.36108
2.07371
1.80531
1.5582
1.33369
1.13223
0.953527
0.796747
0.660631
0.543632
0.444028
0.360015
0.289787
0.231594
0.18378
0.144819
0.11333
0.0880798
0.067991
0.0521307
0.0397032
0.0300377
0.0225755
0.016856
0.0125037
0.00921511
0.00674773
0.00490934
0.00354904
0.00254936
0.00181969
0.00129068
0.000909719
0.000637192
0.000443525
0.000306802
0.000210911
0.000144095
9.78396e-05
6.6024e-05
4.4281e-05
2.95166e-05
1.95548e-05
1.28759e-05
8.4263e-06
5.48033e-06
3.54173e-06
2.27343e-06
1.44778e-06
9.11879e-07
5.63267e-07
3.3316e-07
1.74659e-07
5.42585e-08
0.288872
0.859148
1.40735
1.91989
2.38475
2.79199
3.13411
3.40622
3.60611
3.73412
3.79295
3.78731
3.72353
3.60912
3.45236
3.26184
3.0461
2.8133
2.57097
2.32584
2.08366
1.84921
1.62624
1.41755
1.22503
1.0498
0.892272
0.752307
0.629314
0.522368
0.430307
0.351823
0.285536
0.230055
0.184025
0.146161
0.115274
0.0902824
0.070223
0.0542482
0.0416242
0.0317236
0.024017
0.0180622
0.0134946
0.0100162
0.00738612
0.00541145
0.00393921
0.00284916
0.00204762
0.00146224
0.00103761
0.000731653
0.000512678
0.000356993
0.000247036
0.000169884
0.000116104
7.88586e-05
5.32311e-05
3.57111e-05
2.38104e-05
1.57783e-05
1.03917e-05
6.80205e-06
4.42484e-06
2.86017e-06
1.83628e-06
1.16954e-06
7.36725e-07
4.55121e-07
2.69228e-07
1.41145e-07
4.38345e-08
0.220547
0.656023
1.07489
1.46689
1.82296
2.13555
2.39893
2.60929
2.76486
2.86577
2.91393
2.91278
2.86699
2.78219
2.66458
2.52065
2.35688
2.1795
1.99429
1.80642
1.62035
1.43982
1.26776
1.1064
0.957273
0.821291
0.698841
0.589868
0.493962
0.410445
0.338452
0.276993
0.225019
0.181464
0.145286
0.115492
0.0911614
0.071455
0.0556218
0.0430006
0.0330177
0.0251817
0.019077
0.0143562
0.0107324
0.00797074
0.0058811
0.00431115
0.0031399
0.00227218
0.00163374
0.00116722
0.000828627
0.00058454
0.000409759
0.000285437
0.000197592
0.000135929
9.29287e-05
6.31374e-05
4.26315e-05
2.86081e-05
1.90794e-05
1.26464e-05
8.33089e-06
5.45428e-06
3.54878e-06
2.29432e-06
1.47322e-06
9.38466e-07
5.91231e-07
3.65299e-07
2.1613e-07
1.13321e-07
3.51655e-08
0.167632
0.498682
0.817274
1.11571
1.38715
1.6259
1.8276
1.98932
2.10965
2.18859
2.22749
2.22885
2.19614
2.13352
2.04563
1.93737
1.81362
1.67911
1.53824
1.39499
1.25278
1.1145
0.982462
0.858398
0.743533
0.638618
0.543992
0.459651
0.385314
0.320489
0.264532
0.216702
0.176203
0.142224
0.113968
0.0906721
0.0716284
0.0561884
0.0437711
0.0338637
0.0260203
0.0198585
0.0150541
0.011336
0.00847971
0.00630137
0.00465199
0.00341199
0.00248631
0.00180011
0.00129493
0.000925578
0.000657369
0.000463923
0.000325336
0.000226714
0.000156998
0.000108041
7.38865e-05
5.02152e-05
3.39161e-05
2.27657e-05
1.51869e-05
1.00687e-05
6.63433e-06
4.34444e-06
2.82722e-06
1.82813e-06
1.17404e-06
7.4801e-07
4.71327e-07
2.91259e-07
1.72319e-07
9.03636e-08
2.80562e-08
0.12683
0.377343
0.618545
0.844674
1.05061
1.23205
1.38571
1.50935
1.60184
1.66314
1.69419
1.69681
1.67354
1.62748
1.56208
1.481
1.38792
1.28641
1.17981
1.07113
0.96301
0.857669
0.756887
0.662028
0.574055
0.493574
0.420875
0.355982
0.298707
0.248693
0.205465
0.16847
0.137107
0.110763
0.0888315
0.0707316
0.0559201
0.0438996
0.0342234
0.026496
0.0203731
0.0155589
0.0118023
0.00889287
0.00665613
0.00494909
0.00365569
0.00268268
0.00195587
0.00141676
0.00101964
0.000729138
0.000518076
0.000365771
0.000256606
0.000178886
0.000123921
8.53072e-05
5.83583e-05
3.96738e-05
2.68039e-05
1.79966e-05
1.20085e-05
7.96331e-06
5.24817e-06
3.43741e-06
2.23738e-06
1.44696e-06
9.29399e-07
5.9221e-07
3.732e-07
2.30649e-07
1.36481e-07
7.15493e-08
2.22377e-08
0.0955127
0.284195
0.465945
0.636468
0.791937
0.929139
1.04559
1.13959
1.21026
1.25752
1.28204
1.28513
1.26866
1.23492
1.18645
1.126
1.05631
0.980074
0.899799
0.817775
0.736006
0.656185
0.579684
0.507557
0.440561
0.379177
0.323647
0.274011
0.230143
0.191787
0.158595
0.130154
0.106015
0.0857172
0.068801
0.0548258
0.0433783
0.0340791
0.0265866
0.0205979
0.0158487
0.0121115
0.00919306
0.00693104
0.00519079
0.00386173
0.00285406
0.00209551
0.00152855
0.00110776
0.000797624
0.000570629
0.000405623
0.000286493
0.000201067
0.00014022
9.71702e-05
6.69141e-05
4.57901e-05
3.11388e-05
2.10435e-05
1.41327e-05
9.43251e-06
6.25651e-06
4.12418e-06
2.70173e-06
1.75885e-06
1.13768e-06
7.30866e-07
4.65755e-07
2.93514e-07
1.81405e-07
1.07356e-07
5.62759e-08
1.74993e-08
0.0715871
0.213024
0.34932
0.477287
0.594078
0.697297
0.785082
0.856151
0.909825
0.946016
0.965189
0.968295
0.956696
0.93207
0.896312
0.851443
0.799516
0.742534
0.682389
0.6208
0.559282
0.499123
0.44137
0.386833
0.336098
0.289547
0.247377
0.209633
0.176232
0.146992
0.121659
0.0999268
0.0814621
0.0659186
0.0529514
0.042228
0.0334358
0.0262871
0.0205221
0.0159103
0.01225
0.00936735
0.00711452
0.00536714
0.00402186
0.00299376
0.00221376
0.00162622
0.00118682
0.000860512
0.000619882
0.000443665
0.000315504
0.000222931
0.000156518
0.000109192
7.56945e-05
5.21424e-05
3.56927e-05
2.42793e-05
1.64124e-05
1.10252e-05
7.36029e-06
4.88309e-06
3.21952e-06
2.10947e-06
1.37349e-06
8.88571e-07
5.70928e-07
3.63893e-07
2.29348e-07
1.41739e-07
8.38909e-08
4.40024e-08
1.36653e-08
0.0533961
0.158905
0.260618
0.356176
0.443473
0.52073
0.586557
0.639993
0.680518
0.708046
0.722902
0.72577
0.717641
0.699744
0.673474
0.640324
0.601814
0.559436
0.514599
0.468592
0.422555
0.377458
0.334096
0.293087
0.254884
0.219782
0.187943
0.159409
0.134127
0.11197
0.0927501
0.0762447
0.0622061
0.0503762
0.0404974
0.0323202
0.0256094
0.0201482
0.0157403
0.0122111
0.00940789
0.00719854
0.00547061
0.00412939
0.0030961
0.0023059
0.00170601
0.00125387
0.000915519
0.000664114
0.000478619
0.000342707
0.00024381
0.000172341
0.000121044
8.4475e-05
5.85799e-05
4.0366e-05
2.76398e-05
1.88069e-05
1.27165e-05
8.54463e-06
5.70559e-06
3.7861e-06
2.49672e-06
1.63617e-06
1.0655e-06
6.89412e-07
4.43008e-07
2.82391e-07
1.78017e-07
1.10021e-07
6.51348e-08
3.41787e-08
1.06162e-08
0.0396328
0.117955
0.193485
0.264487
0.329409
0.386935
0.436035
0.475992
0.506409
0.527211
0.538623
0.541136
0.535468
0.522516
0.503301
0.478922
0.4505
0.419138
0.385883
0.351695
0.317425
0.283801
0.251422
0.220757
0.192151
0.165833
0.141932
0.120486
0.101462
0.0847707
0.0702767
0.0578164
0.0472075
0.0382589
0.030779
0.0245819
0.0194916
0.0153455
0.0119962
0.00931256
0.00717922
0.0054966
0.00417966
0.00315674
0.00236814
0.00176467
0.00130626
0.000960537
0.000701677
0.000509227
0.000367156
0.000263007
0.000187186
0.000132366
9.30023e-05
6.49277e-05
4.50397e-05
3.10455e-05
2.12641e-05
1.44727e-05
9.78847e-06
6.57879e-06
4.3939e-06
2.91629e-06
1.92348e-06
1.26073e-06
8.21122e-07
5.31358e-07
3.41463e-07
2.17655e-07
1.37216e-07
8.48458e-08
5.02358e-08
2.63494e-08
8.19481e-09
0.0292714
0.0871235
0.142931
0.195422
0.243457
0.286069
0.322498
0.35221
0.374908
0.390527
0.399221
0.401343
0.397412
0.388078
0.374087
0.356242
0.335367
0.312274
0.287735
0.262461
0.237085
0.212151
0.188105
0.165302
0.144003
0.124383
0.106544
0.0905187
0.0762881
0.0637883
0.052923
0.0435728
0.0356041
0.0288761
0.0232473
0.0185796
0.0147422
0.0116141
0.00908512
0.00705712
0.00544379
0.00417037
0.00317301
0.00239779
0.00179976
0.00134183
0.000993756
0.0007311
0.000534322
0.000387948
0.000279834
0.000200538
0.000142783
0.000101006
7.09935e-05
4.95797e-05
3.44042e-05
2.37218e-05
1.62526e-05
1.10649e-05
7.48549e-06
5.03216e-06
3.36163e-06
2.23163e-06
1.47218e-06
9.6512e-07
6.28689e-07
4.06845e-07
2.61469e-07
1.66697e-07
1.05085e-07
6.49877e-08
3.84748e-08
2.0183e-08
6.25862e-09
0.0215104
0.0640279
0.105055
0.143663
0.179021
0.21042
0.237303
0.259276
0.276116
0.287769
0.294341
0.296085
0.293373
0.286675
0.276534
0.263534
0.248276
0.231357
0.213342
0.194756
0.176067
0.157675
0.139916
0.123054
0.107284
0.0927406
0.0795021
0.067597
0.0570139
0.0477084
0.0396116
0.0326372
0.0266876
0.0216599
0.0174498
0.0139555
0.0110805
0.00873497
0.00683722
0.00531425
0.00410179
0.00314411
0.00239352
0.00180973
0.00135908
0.00101379
0.000751183
0.000552903
0.000404273
0.000293654
0.000211908
0.000151922
0.00010821
7.65774e-05
5.38428e-05
3.76149e-05
2.61099e-05
1.80083e-05
1.23416e-05
8.40445e-06
5.6871e-06
3.82408e-06
2.55515e-06
1.69656e-06
1.11941e-06
7.3397e-07
4.78188e-07
3.09474e-07
1.98908e-07
1.26854e-07
7.99922e-08
4.9429e-08
2.92746e-08
1.53568e-08
4.74939e-09
0.0157271
0.0468161
0.0768234
0.105075
0.130967
0.153982
0.173714
0.189874
0.202295
0.210935
0.215866