/*--------------------------------*- C++ -*----------------------------------*\
  =========                 |
  \\      /  F ield         | OpenFOAM: The Open Source CFD Toolbox
   \\    /   O peration     | Website:  https://openfoam.org
    \\  /    A nd           | Version:  10
     \\/     M anipulation  |
\*---------------------------------------------------------------------------*/
FoamFile
{
    format      ascii;
    class       volScalarField;
    location    "76";
    object      gradTx;
}
// * * * * * * * * * * * * * * * * * * * * * * * * * * * * * * * * * * * * * //

dimensions      [0 -1 0 1 0 0 0];

internalField   nonuniform List<scalar> 
11250
(
14218.8
7865.2
4926.51
3318.7
2320.55
1647.85
1172.72
829.558
580.186
399.773
270.724
179.871
117.11
74.652
46.5636
28.407
16.9457
9.88279
5.63447
3.14036
1.71112
0.911584
0.474885
0.241949
0.120582
0.0587969
0.0280565
0.0131044
0.00599258
0.00268365
0.00117723
0.000505981
0.000213132
8.80076e-05
3.56333e-05
1.41503e-05
5.51266e-06
2.10738e-06
7.90723e-07
2.91264e-07
1.05358e-07
3.74562e-08
1.30496e-08
4.44974e-09
1.46642e-09
4.82952e-10
1.30616e-10
3.29285e-12
2.19524e-12
0
1.09762e-12
0
1.4269e-11
0
1.09762e-12
0
1.09762e-12
-2.19524e-12
0
2.19524e-12
0
1.09762e-12
0
-2.19524e-11
9.87856e-12
-1.09762e-12
-1.09762e-12
0
1.09762e-12
0
-5.48809e-12
0
-7.68332e-12
0
-9.87856e-12
4016.09
4468.3
3623.89
2745.19
2036.35
1493.7
1083.68
775.99
547.184
379.207
257.874
171.873
112.173
71.6415
44.754
27.337
16.3242
9.52848
5.43642
3.03186
1.65288
0.880971
0.459125
0.234004
0.11666
0.0569008
0.0271588
0.0126881
0.00580346
0.00259947
0.00114051
0.00049028
0.000206552
8.53028e-05
3.4543e-05
1.37192e-05
5.34532e-06
2.04366e-06
7.66888e-07
2.82529e-07
1.02201e-07
3.63191e-08
1.26753e-08
4.33339e-09
1.45434e-09
4.81854e-10
1.47081e-10
3.95142e-11
-2.19523e-12
0
-1.75619e-11
0
-1.4269e-11
8.78094e-12
-1.31714e-11
-6.5857e-12
-1.4269e-11
0
-4.39047e-12
0
0
-1.09762e-12
0
2.41476e-11
5.48809e-12
0
-1.09762e-12
1.09762e-12
-1.09762e-12
0
-8.78094e-12
0
8.78094e-12
2.19523e-12
0
1399.37
2385.5
2382.99
2036.92
1626
1249.1
933.973
682.59
488.264
341.896
234.299
157.08
102.988
66.0142
41.3596
25.3241
15.1523
8.85919
5.0617
2.82629
1.54242
0.822845
0.429173
0.218892
0.109195
0.0532894
0.0254478
0.0118942
0.00544258
0.00243875
0.00107037
0.000460276
0.000193969
8.01286e-05
3.24562e-05
1.28935e-05
5.02479e-06
1.92154e-06
7.21207e-07
2.65752e-07
9.61535e-08
3.41655e-08
1.19355e-08
4.10728e-09
1.39946e-09
4.62097e-10
1.55862e-10
7.13451e-11
4.39047e-12
0
1.09762e-12
-1.09762e-12
4.39047e-12
8.78094e-12
0
-2.19523e-12
0
4.39047e-12
0
-2.19524e-12
0
0
0
-1.4269e-11
-1.09762e-11
2.19524e-12
3.29285e-12
2.19523e-12
0
0
3.29285e-12
8.78094e-12
0
-1.09762e-12
8.78094e-12
600.927
1307.82
1511.51
1426.6
1219.39
982.48
759.808
568.95
414.297
294.004
203.545
137.549
90.7513
58.4651
36.7807
22.5971
13.5589
7.94652
4.54948
2.54472
1.39086
0.742969
0.387961
0.198076
0.0989004
0.048305
0.0230846
0.0107968
0.00494342
0.00221631
0.000973235
0.000418702
0.000176526
7.29525e-05
2.95607e-05
1.17475e-05
4.57972e-06
1.75189e-06
6.5776e-07
2.42454e-07
8.77534e-08
3.11668e-08
1.08895e-08
3.74946e-09
1.27104e-09
4.11607e-10
1.49276e-10
4.71976e-11
1.75619e-11
0
1.53666e-11
0
1.09762e-12
-8.78094e-12
1.31714e-11
5.48809e-12
1.4269e-11
-4.39047e-12
5.48809e-12
6.58571e-12
0
-2.19523e-12
0
-1.09762e-12
-4.39047e-12
3.29285e-12
0
1.09762e-12
0
2.19524e-12
5.48809e-12
0
-1.09762e-12
-1.09762e-12
-5.48809e-12
302.627
748.408
952.308
968.871
877.045
738.006
589.794
452.806
336.099
242.082
169.567
115.658
76.881
49.8325
31.508
19.439
11.7052
6.88067
3.94939
2.21396
1.21241
0.648735
0.339258
0.173438
0.0867005
0.042391
0.0202776
0.00949213
0.00434947
0.00195142
0.000857481
0.000369128
0.000155713
6.43852e-05
2.6102e-05
1.03778e-05
4.04751e-06
1.54893e-06
5.8179e-07
2.14525e-07
7.7674e-08
2.7593e-08
9.64696e-09
3.30602e-09
1.11189e-09
3.46847e-10
1.06469e-10
2.74404e-11
2.52452e-11
3.29285e-12
8.78094e-12
1.09762e-12
-5.48809e-12
-9.87856e-12
0
5.48809e-12
1.09762e-12
-8.78094e-12
-5.48809e-12
0
0
0
0
1.86595e-11
0
-1.09762e-12
-1.09762e-12
-3.29285e-12
0
-1.09762e-12
-9.87856e-12
-1.20738e-11
-7.68332e-12
-1.09762e-12
-1.09762e-12
168.406
444.283
601.486
646.46
612.634
535.049
440.527
346.339
261.995
191.599
135.865
93.6009
62.7319
40.9386
26.032
16.1375
9.75673
5.7553
3.31336
1.86225
1.02213
0.548015
0.287094
0.147002
0.0735886
0.0360257
0.0172525
0.00808447
0.00370796
0.00166505
0.000732233
0.000315445
0.000133159
5.50945e-05
2.23489e-05
8.8906e-06
3.46933e-06
1.32835e-06
4.99158e-07
1.84119e-07
6.66726e-08
2.37129e-08
8.27384e-09
2.82197e-09
9.45049e-10
3.13919e-10
9.32975e-11
2.96357e-11
-7.68332e-12
-2.19523e-12
-6.58571e-12
-1.09762e-12
0
-3.29285e-12
-1.09762e-12
0
-1.09762e-12
2.19524e-12
1.09762e-12
-6.58571e-12
1.09762e-12
2.19523e-12
1.09762e-12
0
-1.09762e-12
-4.39047e-12
0
0
0
-2.19524e-12
4.39047e-12
1.09762e-12
-4.39047e-12
0
0
99.0973
270.402
381.059
426.1
418.504
376.954
318.529
255.894
197.067
146.263
104.994
73.0737
49.3935
32.466
20.7701
12.9424
7.85977
4.65411
2.68833
1.51536
0.833858
0.448085
0.235214
0.120654
0.0604962
0.0296593
0.0142224
0.00667254
0.00306374
0.00137715
0.000606184
0.000261368
0.00011042
4.57203e-05
1.85593e-05
7.38791e-06
2.88472e-06
1.10516e-06
4.15503e-07
1.53348e-07
5.55581e-08
1.979e-08
6.89962e-09
2.33683e-09
7.62844e-10
2.56842e-10
8.78094e-11
1.64643e-11
-1.64643e-11
-4.39047e-12
-9.87856e-12
0
0
-1.09762e-12
0
-9.87856e-12
-1.09762e-12
-7.68332e-12
4.39047e-12
-4.39047e-12
0
-2.19523e-12
1.09762e-12
-5.48809e-12
2.19523e-12
2.19524e-12
0
0
-1.20738e-11
1.09762e-12
1.31714e-11
2.19524e-12
0
-7.68332e-12
0
60.0113
166.875
241.479
277.873
280.572
259.152
223.886
183.332
143.511
108.002
78.447
55.1467
37.5949
24.8914
16.0241
10.039
6.12507
3.6417
2.11104
1.19369
0.658674
0.35482
0.186666
0.09594
0.0481902
0.0236641
0.0113641
0.0053387
0.0024543
0.00110445
0.000486656
0.000210034
8.88126e-05
3.68047e-05
1.4952e-05
5.95638e-06
2.32739e-06
8.9223e-07
3.35651e-07
1.23941e-07
4.49419e-08
1.59978e-08
5.59236e-09
1.90546e-09
6.10275e-10
1.844e-10
5.04904e-11
3.29285e-11
9.87856e-12
-3.29285e-12
5.48809e-12
0
0
4.39047e-12
1.09762e-12
4.39047e-12
2.305e-11
3.29285e-12
-3.29285e-12
0
0
0
-3.29285e-12
0
0
0
7.68332e-12
-1.09762e-12
0
1.09762e-12
-1.09762e-12
0
6.5857e-12
0
4.39047e-12
36.7998
103.514
152.519
179.224
184.877
174.275
153.39
127.71
101.442
77.3216
56.7868
40.3041
27.7051
18.4758
11.9686
7.53928
4.62197
2.75959
1.60563
0.910888
0.504096
0.272261
0.143569
0.0739456
0.0372136
0.0183057
0.00880483
0.00414239
0.00190687
0.000859161
0.000379007
0.000163748
6.93091e-05
2.8749e-05
1.16895e-05
4.66057e-06
1.82252e-06
6.99217e-07
2.63234e-07
9.72489e-08
3.52741e-08
1.25436e-08
4.3784e-09
1.52349e-09
5.13685e-10
1.71228e-10
5.26856e-11
3.51238e-11
2.08547e-11
-1.20738e-11
-2.19524e-12
0
-1.09762e-12
-3.29285e-12
0
8.78094e-12
1.4269e-11
1.4269e-11
-4.39047e-12
4.39047e-12
-1.09762e-12
2.19523e-12
8.78094e-12
0
-1.09762e-12
0
1.4269e-11
2.19523e-12
1.31714e-11
-1.09762e-12
2.19523e-12
5.48809e-12
6.58571e-12
8.78094e-12
2.19524e-12
22.6235
64.118
95.681
114.201
119.779
114.785
102.614
86.6674
69.7366
53.7708
39.8955
28.5714
19.7961
13.2938
8.66466
5.48765
3.38035
2.02685
1.18375
0.67382
0.374027
0.20256
0.107076
0.0552719
0.027872
0.0137357
0.00661783
0.00311829
0.0014375
0.000648534
0.000286443
0.000123897
5.24978e-05
2.17976e-05
8.87148e-06
3.54021e-06
1.38559e-06
5.3201e-07
2.00441e-07
7.4121e-08
2.68993e-08
9.5833e-09
3.37627e-09
1.18543e-09
4.32461e-10
1.6135e-10
5.92713e-11
0
1.09762e-11
5.48809e-12
-2.19524e-12
-1.09762e-12
0
0
0
-5.48809e-12
-1.97571e-11
-1.09762e-12
2.19523e-12
-1.09762e-12
-1.09762e-12
0
1.09762e-12
-1.09762e-12
-1.09762e-12
-1.09762e-12
-6.58571e-12
0
-1.09762e-12
0
1.09762e-12
0
-6.58571e-12
0
1.09762e-12
13.8534
39.4679
59.443
71.7907
76.2872
74.0897
67.1011
57.3727
46.6907
36.3743
27.2403
19.6717
13.7317
9.28275
6.08627
3.87506
2.39828
1.44408
0.846588
0.483538
0.269228
0.146208
0.0774822
0.0400874
0.0202572
0.0100021
0.00482746
0.00227836
0.00105187
0.000475219
0.000210166
9.10149e-05
3.86088e-05
1.60479e-05
6.53801e-06
2.61154e-06
1.02305e-06
3.93152e-07
1.48271e-07
5.49072e-08
1.99657e-08
7.12903e-09
2.52562e-09
8.90168e-10
3.32578e-10
1.00981e-10
3.18309e-11
-1.31714e-11
-1.4269e-11
1.31714e-11
2.19523e-12
0
2.19523e-12
4.39047e-12
2.19523e-12
1.09762e-12
-1.4269e-11
0
4.39047e-12
-1.09762e-12
3.29285e-12
1.4269e-11
-8.78094e-12
0
0
-9.87856e-12
-3.7319e-11
-1.09762e-12
0
0
-3.29285e-12
-5.48809e-12
0
-2.19523e-12
-3.29285e-12
8.41208
24.0568
36.4834
44.4644
47.7418
46.8744
42.9172
37.0821
30.478
23.9627
18.097
13.1693
9.25673
6.29694
4.15198
2.657
1.65197
0.998823
0.58775
0.336837
0.188123
0.102449
0.0544303
0.0282265
0.014294
0.00707163
0.00341927
0.00161646
0.000747448
0.000338174
0.00014976
6.49378e-05
2.75797e-05
1.14766e-05
4.68059e-06
1.87151e-06
7.33873e-07
2.82338e-07
1.066e-07
3.95022e-08
1.43876e-08
5.14673e-09
1.80997e-09
6.3113e-10
2.06352e-10
6.69547e-11
1.64643e-11
1.97571e-11
3.29285e-12
4.39047e-12
4.39047e-12
4.39047e-12
0
1.09762e-12
-1.09762e-12
-1.09762e-12
-3.29285e-12
0
-1.09762e-12
2.19524e-12
0
-1.09762e-12
5.48809e-12
0
-1.09762e-11
-5.48809e-12
-2.19524e-12
-1.09762e-12
0
1.09762e-12
0
0
4.39047e-12
0
1.09762e-12
5.04937
14.4814
22.0784
27.1008
29.3416
29.0675
26.8576
23.4153
19.4118
15.3867
11.7087
8.58022
6.06984
4.1533
2.75318
1.77043
1.10562
0.671174
0.396393
0.227929
0.127685
0.0697289
0.0371411
0.0193058
0.00979765
0.00485683
0.0023527
0.00111415
0.000516004
0.000233808
0.000103687
4.50189e-05
1.91437e-05
7.97547e-06
3.25632e-06
1.30341e-06
5.11654e-07
1.97057e-07
7.44821e-08
2.76172e-08
1.0052e-08
3.59799e-09
1.23701e-09
3.98435e-10
1.07567e-10
2.19524e-11
5.48809e-12
2.41476e-11
1.75619e-11
7.68332e-12
0
1.09762e-12
0
0
-1.09762e-12
0
1.09762e-12
-8.78094e-12
-7.68332e-12
-3.29285e-12
-1.09762e-12
-1.4269e-11
1.09762e-12
-1.20738e-11
-1.09762e-12
1.09762e-11
2.305e-11
-2.19523e-12
0
0
-1.09762e-12
-4.39047e-12
-8.78094e-12
1.09762e-12
6.58571e-12
2.98924
8.59194
13.1538
16.2381
17.7
17.665
16.4481
14.4509
12.0704
9.6367
7.38312
5.44488
3.87461
2.66567
1.77592
1.14726
0.719486
0.438459
0.259871
0.149914
0.0842326
0.0461259
0.0246312
0.0128332
0.00652689
0.00324196
0.00157337
0.000746385
0.00034624
0.000157125
6.97798e-05
3.03381e-05
1.29173e-05
5.38799e-06
2.2024e-06
8.82531e-07
3.46797e-07
1.33674e-07
5.0565e-08
1.87758e-08
6.84804e-09
2.44439e-09
8.45165e-10
2.70014e-10
6.69547e-11
-1.09762e-11
-8.78094e-12
-1.09762e-11
-1.53666e-11
-3.29285e-12
0
-2.19523e-12
-1.09762e-12
1.09762e-12
0
0
4.39047e-12
0
1.09762e-12
0
-1.09762e-12
-1.09762e-12
-6.5857e-12
0
1.20738e-11
8.78094e-12
2.19523e-12
0
-1.09762e-12
-2.19523e-12
-6.5857e-12
4.39047e-12
0
0
0
1.74236
5.01677
7.7059
9.55665
10.475
10.5192
9.85855
8.71909
7.33076
5.89004
4.54017
3.3676
2.40938
1.66598
1.11511
0.723502
0.455551
0.278643
0.165714
0.0958985
0.0540399
0.0296721
0.0158844
0.00829514
0.00422795
0.00210427
0.00102314
0.000486214
0.00022592
0.000102681
4.56675e-05
1.98821e-05
8.47639e-06
3.54001e-06
1.44874e-06
5.81168e-07
2.28584e-07
8.81969e-08
3.33753e-08
1.24009e-08
4.53975e-09
1.64423e-09
5.8503e-10
2.16231e-10
6.91499e-11
1.75619e-11
2.19523e-11
-1.20738e-11
-1.64643e-11
-5.48809e-12
0
-3.29285e-12
-8.78094e-12
0
-1.4269e-11
-1.09762e-12
0
7.68332e-12
8.78094e-12
6.58571e-12
1.09762e-12
-4.39047e-12
0
1.31714e-11
9.87856e-12
0
-1.09762e-12
2.19523e-12
-4.39047e-12
0
-7.68332e-12
3.29285e-12
8.78094e-12
9.87856e-12
-3.29285e-12
0.998648
2.87945
4.43483
5.52074
6.07925
6.13668
5.78336
5.14428
4.35005
3.51488
2.72415
2.03115
1.46039
1.0145
0.682012
0.444301
0.280813
0.172368
0.102846
0.0596979
0.0337355
0.0185721
0.00996654
0.00521657
0.00266449
0.00132876
0.00064728
0.000308135
0.000143411
6.52821e-05
2.90768e-05
1.26767e-05
5.41163e-06
2.26291e-06
9.27217e-07
3.72395e-07
1.46636e-07
5.6625e-08
2.14683e-08
7.99834e-09
2.93174e-09
1.07676e-09
4.0063e-10
1.51471e-10
8.56142e-11
4.93928e-11
2.74404e-11
1.64643e-11
8.78094e-12
1.09762e-12
1.09762e-12
-1.09762e-12
0
-2.19524e-12
0
-4.39047e-12
-4.39047e-12
0
8.78094e-12
-1.09762e-12
0
1.09762e-12
0
-2.19524e-12
5.48809e-12
-4.39047e-12
-1.09762e-12
-1.09762e-12
0
1.09762e-12
-4.39047e-12
-7.68332e-12
-2.19524e-12
2.19523e-12
5.48809e-12
0.562304
1.62318
2.50551
3.1288
3.45867
3.50677
3.32066
2.96843
2.5228
2.04866
1.59555
1.19527
0.863281
0.602274
0.406525
0.265842
0.168621
0.103849
0.0621565
0.0361846
0.0205038
0.0113165
0.00608737
0.00319329
0.00163446
0.000816696
0.00039857
0.000190068
8.8606e-05
4.03969e-05
1.80194e-05
7.86694e-06
3.36286e-06
1.40801e-06
5.77643e-07
2.32275e-07
9.15611e-08
3.53949e-08
1.34403e-08
5.01392e-09
1.844e-09
6.57473e-10
2.5355e-10
1.06469e-10
4.60999e-11
5.37833e-11
1.20738e-11
2.305e-11
9.87856e-12
-4.39047e-12
-1.09762e-12
4.39047e-12
8.78094e-12
0
1.4269e-11
2.19523e-12
1.09762e-12
3.29285e-12
0
-2.19523e-12
-2.19523e-12
5.48809e-12
1.09762e-12
0
-9.87856e-12
-1.09762e-12
0
-3.29285e-12
4.39047e-12
-1.09762e-12
-3.29285e-12
5.48809e-12
-3.29285e-12
-9.87856e-12
-1.09762e-12
0.310814
0.898074
1.38881
1.73886
1.9285
1.9627
1.8662
1.67548
1.43028
1.16664
0.912595
0.686574
0.497919
0.348747
0.236282
0.155063
0.0986849
0.0609692
0.0366003
0.0213664
0.0121389
0.00671624
0.00362116
0.0019037
0.000976391
0.000488817
0.000238991
0.000114165
5.33082e-05
2.43417e-05
1.08738e-05
4.75396e-06
2.03489e-06
8.53105e-07
3.50415e-07
1.4106e-07
5.56679e-08
2.15528e-08
8.16847e-09
3.05686e-09
1.12725e-09
4.26973e-10
1.51471e-10
6.14666e-11
5.48809e-12
1.4269e-11
-2.19523e-12
-8.78094e-12
1.75619e-11
1.09762e-12
0
0
0
-1.09762e-12
-2.19524e-12
5.48809e-12
-1.09762e-12
-2.19524e-12
-9.87856e-12
0
0
-4.39047e-12
0
2.19524e-12
-4.39047e-12
1.09762e-12
8.78094e-12
4.39047e-12
0
0
9.87856e-12
1.20738e-11
5.48809e-12
-5.48809e-12
-4.39047e-12
0.168565
0.487449
0.75498
0.947384
1.05364
1.07581
1.02658
0.925168
0.792869
0.649285
0.509903
0.385101
0.280335
0.197061
0.133976
0.0882148
0.0563184
0.0348982
0.0210088
0.0122971
0.00700393
0.00388434
0.00209898
0.0011058
0.000568289
0.000285044
0.000139612
6.68053e-05
3.12444e-05
1.42888e-05
6.39239e-06
2.79864e-06
1.19954e-06
5.03545e-07
2.07072e-07
8.34661e-08
3.29911e-08
1.27905e-08
4.86684e-09
1.83851e-09
6.82718e-10
2.84283e-10
9.54927e-11
2.85381e-11
3.40261e-11
5.48809e-12
8.78094e-12
-2.19524e-12
2.305e-11
0
0
0
0
0
1.09762e-12
-2.19523e-12
-1.09762e-12
-1.09762e-12
-1.09762e-12
2.19524e-12
-1.09762e-12
-8.78094e-12
-1.09762e-12
0
-8.78094e-12
-9.87856e-12
0
2.19523e-12
4.39047e-12
1.09762e-12
1.31714e-11
-4.39047e-12
3.29285e-12
-1.09762e-12
-1.09762e-12
0.0896614
0.259455
0.402388
0.5059
0.563997
0.577484
0.552778
0.499837
0.42985
0.353254
0.278406
0.211003
0.154128
0.108706
0.0741436
0.0489695
0.0313556
0.0194844
0.011761
0.00690155
0.00394029
0.00219024
0.0011861
0.000626152
0.000322414
0.000162015
7.9493e-05
3.81014e-05
1.78481e-05
8.17473e-06
3.66244e-06
1.60569e-06
6.89155e-07
2.89672e-07
1.19279e-07
4.81404e-08
1.90524e-08
7.39136e-09
2.84283e-09
1.08115e-09
4.09411e-10
1.62447e-10
6.25642e-11
2.63428e-11
1.86595e-11
-1.09762e-12
8.78094e-12
1.53666e-11
-7.68332e-12
-8.78094e-12
0
-1.09762e-12
0
1.09762e-12
3.29285e-12
3.29285e-12
1.86595e-11
0
2.19523e-12
0
0
-6.5857e-12
-1.09762e-12
3.29285e-12
0
-1.09762e-12
-7.68332e-12
0
0
1.09762e-12
-4.39047e-12
-8.78094e-12
0
0
-5.48809e-12
0.0467619
0.135395
0.210224
0.264738
0.295757
0.303573
0.291382
0.264254
0.227958
0.187932
0.148588
0.112974
0.0827814
0.0585647
0.0400636
0.0265369
0.0170387
0.0106159
0.00642408
0.00377886
0.00216242
0.00120463
0.00065371
0.000345783
0.000178384
8.98004e-05
4.41361e-05
2.11893e-05
9.94137e-06
4.56013e-06
2.04593e-06
8.98214e-07
3.86033e-07
1.62488e-07
6.70052e-08
2.70672e-08
1.07204e-08
4.15558e-09
1.59703e-09
6.04787e-10
2.52452e-10
9.65903e-11
6.0369e-11
2.63428e-11
-1.4269e-11
-8.78094e-12
-1.75619e-11
-2.63428e-11
-2.305e-11
0
0
2.19524e-12
-1.09762e-12
2.19524e-12
-1.09762e-12
-1.09762e-12
9.87856e-12
0
0
-2.19524e-12
3.29285e-12
8.78094e-12
0
-1.86595e-11
8.78094e-12
1.09762e-11
0
1.09762e-12
-4.39047e-12
0
-1.20738e-11
0
0
-3.29285e-12
2.19524e-12
0.0239083
0.0692598
0.107644
0.135752
0.151934
0.156286
0.150373
0.136731
0.118277
0.0977882
0.0775401
0.0591263
0.0434497
0.030826
0.0211461
0.014044
0.0090407
0.00564681
0.00342527
0.00201948
0.00115816
0.000646536
0.000351556
0.000186313
9.62915e-05
4.85589e-05
2.39062e-05
1.14955e-05
5.40161e-06
2.48137e-06
1.11486e-06
4.9012e-07
2.10932e-07
8.89081e-08
3.67241e-08
1.4865e-08
5.91287e-09
2.30939e-09
8.8468e-10
3.30383e-10
1.383e-10
3.51238e-11
2.41476e-11
7.68332e-12
-5.48809e-12
0
-1.20738e-11
-2.52452e-11
-9.87856e-12
8.78094e-12
0
1.09762e-12
0
1.09762e-12
-1.09762e-12
-2.19523e-12
-1.86595e-11
-7.68332e-12
-1.09762e-12
0
-1.09762e-12
1.09762e-11
1.09762e-12
-2.19524e-12
-1.09762e-12
-4.39047e-12
9.87856e-12
-1.09762e-12
2.19524e-12
-2.19524e-12
3.29285e-12
0
-2.19524e-12
3.29285e-12
-8.78094e-12
0.011982
0.0347259
0.0540178
0.0682084
0.076462
0.0788016
0.0759834
0.0692519
0.060054
0.0497792
0.0395758
0.0302577
0.022294
0.0158581
0.0109063
0.00726145
0.00468583
0.00293363
0.00178353
0.00105383
0.00060563
0.000338767
0.00018456
9.79913e-05
5.07342e-05
2.56282e-05
1.26377e-05
6.08642e-06
2.86425e-06
1.31768e-06
5.92857e-07
2.60981e-07
1.1247e-07
4.74577e-08
1.96386e-08
7.97858e-09
3.19955e-09
1.26885e-09
4.8844e-10
1.87693e-10
5.26856e-11
8.78094e-12
-6.5857e-12
-1.4269e-11
0
-1.09762e-12
9.87856e-12
7.68332e-12
0
1.09762e-12
1.09762e-12
-2.19523e-12
7.68332e-12
-3.29285e-12
-2.19523e-12
5.48809e-12
-7.68332e-12
1.20738e-11
1.09762e-12
0
1.09762e-12
-2.19523e-12
-1.09762e-12
1.31714e-11
0
1.31714e-11
0
-2.19523e-12
0
1.09762e-12
4.39047e-12
-2.19523e-12
0
2.19523e-12
-1.09762e-12
0.00588588
0.017065
0.0265656
0.0335816
0.0376986
0.0389179
0.037598
0.0343392
0.0298449
0.0247965
0.0197612
0.0151451
0.0111861
0.00797614
0.00549858
0.00366953
0.00237334
0.00148915
0.000907281
0.000537192
0.000309338
0.000173365
9.4624e-05
5.03294e-05
2.61023e-05
1.32072e-05
6.52297e-06
3.14632e-06
1.48285e-06
6.83149e-07
3.07794e-07
1.35667e-07
5.85162e-08
2.47216e-08
1.02474e-08
4.17534e-09
1.67935e-09
6.78328e-10
2.68916e-10
1.17445e-10
2.74404e-11
1.09762e-11
-1.20738e-11
-1.53666e-11
9.87856e-12
8.78094e-12
1.09762e-11
-1.09762e-12
4.39047e-12
1.09762e-12
-7.68332e-12
-7.68332e-12
-1.09762e-12
0
-1.31714e-11
6.5857e-12
1.09762e-12
1.09762e-11
0
-1.09762e-12
1.09762e-12
0
-1.09762e-12
4.39047e-12
3.29285e-12
4.39047e-12
-9.87856e-12
0
-1.09762e-12
1.09762e-12
1.09762e-12
1.09762e-12
0
1.09762e-12
1.31714e-11
0.00283399
0.00821946
0.0128041
0.0162016
0.0182109
0.0188283
0.0182211
0.0166732
0.0145204
0.0120898
0.00965589
0.00741685
0.00549037
0.0039236
0.00271084
0.00181305
0.00117514
0.000738877
0.000451081
0.000267605
0.000154392
8.66864e-05
4.73982e-05
2.52538e-05
1.3119e-05
6.64854e-06
3.28875e-06
1.58867e-06
7.49787e-07
3.45904e-07
1.56063e-07
6.8892e-08
2.97465e-08
1.25776e-08
5.24112e-09
2.15243e-09
8.80289e-10
3.57823e-10
1.6574e-10
9.32975e-11
5.70761e-11
3.07333e-11
-1.09762e-12
0
4.39047e-12
1.64643e-11
-4.39047e-12
0
5.48809e-12
0
-1.09762e-12
-3.29285e-12
-7.68332e-12
1.09762e-12
1.09762e-12
-4.39047e-12
0
-3.29285e-12
-2.19523e-12
2.19524e-12
-1.09762e-12
2.19523e-12
0
6.58571e-12
-2.19523e-12
-1.31714e-11
2.19524e-12
1.09762e-12
0
-1.09762e-12
7.68332e-12
3.29285e-12
0
3.29285e-12
-4.39047e-12
0.00133754
0.0038805
0.0060486
0.0076603
0.00862005
0.00892439
0.00864996
0.0079287
0.00691767
0.00577088
0.00461834
0.0035547
0.00263685
0.0018883
0.00130734
0.000876154
0.000569023
0.000358482
0.000219272
0.000130327
7.53275e-05
4.23686e-05
2.32057e-05
1.23845e-05
6.44385e-06
3.27068e-06
1.62031e-06
7.83871e-07
3.70469e-07
1.7115e-07
7.73337e-08
3.4193e-08
1.48069e-08
6.28606e-09
2.63428e-09
1.07457e-09
4.34657e-10
1.58057e-10
7.79308e-11
3.18309e-11
3.84166e-11
3.51238e-11
2.74404e-11
2.19523e-11
9.87856e-12
1.97571e-11
1.09762e-11
3.40261e-11
1.4269e-11
3.29285e-12
7.68332e-12
6.5857e-12
2.19523e-12
-2.19523e-12
1.4269e-11
-6.5857e-12
-1.09762e-12
-3.29285e-12
1.09762e-12
2.19523e-12
-1.09762e-12
-2.19523e-12
2.19523e-12
-1.20738e-11
-3.29285e-12
-1.09762e-12
0
1.09762e-12
1.09762e-12
0
-7.68332e-12
0
-4.39047e-12
-1.4269e-11
-1.09762e-12
0.000618836
0.00179587
0.00280077
0.00354986
0.00399869
0.00414494
0.00402312
0.0036934
0.00322784
0.00269752
0.00216276
0.00166782
0.00123955
0.000889386
0.000616943
0.000414257
0.000269551
0.000170132
0.000104254
6.2075e-05
3.59407e-05
2.02493e-05
1.1109e-05
5.93807e-06
3.09442e-06
1.57297e-06
7.80378e-07
3.78066e-07
1.78952e-07
8.27955e-08
3.74573e-08
1.65828e-08
7.19818e-09
3.07882e-09
1.27653e-09
5.07099e-10
1.844e-10
4.82952e-11
-5.48809e-12
-1.86595e-11
-1.31714e-11
0
1.86595e-11
1.4269e-11
1.09762e-11
4.39047e-12
3.62214e-11
3.84166e-11
2.52452e-11
4.39047e-12
-1.09762e-12
3.29285e-12
-6.5857e-12
0
-2.19524e-12
0
0
-7.68332e-12
4.39047e-12
-3.29285e-12
0
-1.09762e-12
-5.48809e-12
-2.08547e-11
2.19523e-12
0
-2.19524e-12
-3.29285e-12
1.09762e-12
-1.09762e-12
1.09762e-12
-2.19524e-12
0
0
1.31714e-11
0.000280703
0.000814809
0.00127136
0.00161255
0.00181811
0.0018867
0.00183359
0.0016857
0.00147548
0.00123508
0.000991924
0.000766265
0.000570521
0.000410091
0.000284984
0.000191702
0.00012496
7.90098e-05
4.84996e-05
2.89267e-05
1.6776e-05
9.46703e-06
5.20187e-06
2.7848e-06
1.45335e-06
7.39839e-07
3.67546e-07
1.78286e-07
8.44957e-08
3.91597e-08
1.77452e-08
7.86333e-09
3.4081e-09
1.43349e-09
5.74054e-10
2.31597e-10
5.37833e-11
1.4269e-11
-2.85381e-11
-1.86595e-11
-3.7319e-11
-3.18309e-11
-2.63428e-11
-8.78094e-12
1.20738e-11
1.97571e-11
3.07333e-11
1.53666e-11
2.74404e-11
-6.5857e-12
-1.09762e-12
1.09762e-12
0
3.29285e-12
0
-1.09762e-12
0
0
-1.09762e-12
0
0
3.29285e-12
-1.09762e-12
7.68332e-12
0
-1.09762e-12
0
0
6.58571e-12
4.39047e-12
6.5857e-12
-1.97571e-11
2.19524e-12
1.09762e-11
0
0.000124847
0.000362482
0.000565838
0.000718153
0.000810379
0.000841804
0.000819063
0.000753982
0.000660888
0.000554039
0.000445665
0.000344839
0.000257177
0.000185171
0.000128899
8.68547e-05
5.67115e-05
3.59174e-05
2.20839e-05
1.31929e-05
7.66336e-06
4.33129e-06
2.38352e-06
1.2779e-06
6.67876e-07
3.40443e-07
1.6936e-07
8.22434e-08
3.90214e-08
1.8103e-08
8.20469e-09
3.63531e-09
1.5685e-09
6.41009e-10
2.39281e-10
7.4638e-11
-8.78094e-12
-6.5857e-12
-2.19523e-11
-2.63428e-11
-2.85381e-11
-3.07333e-11
-3.18309e-11
-9.87856e-12
-6.5857e-12
3.29285e-12
2.19523e-12
-1.31714e-11
4.39047e-12
-5.48809e-12
2.19523e-12
0
2.08547e-11
0
0
0
8.78094e-12
0
-1.09762e-12
-2.19523e-12
-1.09762e-12
1.09762e-12
4.39047e-12
1.86595e-11
1.09762e-12
0
-1.09762e-12
1.31714e-11
0
1.09762e-12
-7.68332e-12
0
0
0
-7.68332e-12
5.44547e-05
0.000158137
0.000246953
0.000313615
0.000354161
0.000368236
0.000358672
0.000330568
0.000290131
0.000243563
0.000196207
0.000152049
0.000113573
8.19036e-05
5.7105e-05
3.85401e-05
2.52048e-05
1.59884e-05
9.84599e-06
5.89106e-06
3.42714e-06
1.93988e-06
1.06909e-06
5.73999e-07
3.00416e-07
1.53342e-07
7.63667e-08
3.71214e-08
1.76321e-08
8.15859e-09
3.6858e-09
1.62228e-09
6.92597e-10
2.766e-10
8.56142e-11
1.4269e-11
-1.86595e-11
-2.41476e-11
-1.20738e-11
-2.19524e-11
-2.96357e-11
-1.64643e-11
-1.75619e-11
-2.52452e-11
-3.84166e-11
-3.95142e-11
-2.96357e-11
-2.305e-11
-2.41476e-11
2.19523e-12
-2.19524e-12
-1.31714e-11
-1.09762e-12
-2.19524e-12
1.09762e-12
3.29285e-12
7.68332e-12
-1.20738e-11
-1.09762e-12
2.19524e-12
-1.09762e-12
-5.48809e-12
-3.29285e-12
0
0
2.19524e-12
1.09762e-12
0
-8.78094e-12
4.39047e-12
1.09762e-12
2.41476e-11
2.19524e-12
4.39047e-12
0
2.32963e-05
6.7666e-05
0.000105709
0.000134317
0.000151789
0.000157956
0.000154006
0.000142096
0.000124865
0.000104959
8.46672e-05
6.5705e-05
4.91501e-05
3.54977e-05
2.47871e-05
1.67541e-05
1.09736e-05
6.97151e-06
4.29964e-06
2.57636e-06
1.501e-06
8.50857e-07
4.69567e-07
2.52444e-07
1.32312e-07
6.76341e-08
3.37342e-08
1.64247e-08
7.80296e-09
3.61555e-09
1.63874e-09
7.0028e-10
3.00747e-10
1.10859e-10
5.48809e-12
-3.29285e-12
-2.19524e-12
-2.08547e-11
-7.68332e-12
-1.20738e-11
-3.51238e-11
-1.75619e-11
-1.31714e-11
-1.97571e-11
-2.305e-11
-3.18309e-11
-4.50023e-11
-1.75619e-11
-2.41476e-11
-1.09762e-12
-4.39047e-12
-5.48809e-12
-1.4269e-11
2.19524e-12
2.19524e-12
0
-8.78094e-12
-1.64643e-11
-8.78094e-12
-1.20738e-11
-3.29285e-12
-1.09762e-12
1.09762e-12
-2.19524e-12
-1.09762e-12
-1.09762e-11
1.09762e-12
-6.5857e-12
-1.09762e-12
-1.09762e-12
-2.19523e-12
0
-9.87856e-12
0
5.48809e-12
9.77716e-06
2.84036e-05
4.43877e-05
5.64284e-05
6.38103e-05
6.64554e-05
6.48528e-05
5.9899e-05
5.26946e-05
4.43476e-05
3.58195e-05
2.78344e-05
2.08499e-05
1.50796e-05
1.05447e-05
7.13768e-06
4.6818e-06
2.97863e-06
1.83966e-06
1.10392e-06
6.44058e-07
3.6561e-07
2.0206e-07
1.08789e-07
5.70904e-08
2.92241e-08
1.46225e-08
7.14439e-09
3.41579e-09
1.58715e-09
7.07963e-10
2.88673e-10
1.03176e-10
4.71976e-11
-1.09762e-12
-1.97571e-11
-9.87856e-12
-3.29285e-11
-3.40261e-11
-2.52452e-11
-6.5857e-12
-7.68332e-12
8.78094e-12
1.20738e-11
-5.48809e-12
-2.19523e-12
-6.5857e-12
-1.09762e-12
4.39047e-12
-4.39047e-12
1.09762e-12
1.31714e-11
1.09762e-12
0
-3.29285e-12
6.5857e-12
-7.68332e-12
7.68332e-12
-8.78094e-12
-2.19523e-12
-1.31714e-11
5.48809e-12
4.39047e-12
-7.68332e-12
1.09762e-12
-1.09762e-12
-1.09762e-12
1.09762e-12
2.19523e-12
-8.78094e-12
-1.31714e-11
-4.39047e-12
-6.5857e-12
-7.68332e-12
-1.09762e-12
4.02615e-06
1.16983e-05
1.82873e-05
2.32588e-05
2.63174e-05
2.74284e-05
2.67898e-05
2.47672e-05
2.18112e-05
1.8377e-05
1.48609e-05
1.15625e-05
8.67236e-06
6.28063e-06
4.39781e-06
2.98093e-06
1.95797e-06
1.24739e-06
7.71468e-07
4.63579e-07
2.70825e-07
1.53939e-07
8.52037e-08
4.59507e-08
2.4152e-08
1.23954e-08
6.21032e-09
3.0393e-09
1.46751e-09
6.76132e-10
3.10626e-10
1.26226e-10
2.74404e-11
2.08547e-11
1.09762e-12
-2.19524e-11
-2.41476e-11
-3.18309e-11
-3.95142e-11
-2.41476e-11
-5.48809e-12
-1.09762e-12
4.39047e-12
-2.19523e-12
1.20738e-11
3.29285e-12
2.63428e-11
-3.29285e-12
-2.19524e-12
5.48809e-12
0
1.09762e-12
-1.09762e-12
-1.31714e-11
-1.09762e-12
4.39047e-12
0
4.39047e-12
1.86595e-11
1.31714e-11
4.39047e-12
2.19523e-12
0
2.19524e-12
0
1.09762e-11
-2.19524e-12
0
0
5.48809e-12
8.78094e-12
0
9.87856e-12
2.19523e-12
-6.58571e-12
1.62714e-06
4.72839e-06
7.39389e-06
9.40796e-06
1.06511e-05
1.11084e-05
1.08584e-05
1.00476e-05
8.85715e-06
7.47053e-06
6.04802e-06
4.71123e-06
3.53797e-06
2.56549e-06
1.79872e-06
1.22081e-06
8.02915e-07
5.12197e-07
3.17205e-07
1.90824e-07
1.1164e-07
6.35575e-08
3.52127e-08
1.90074e-08
1.00136e-08
5.17636e-09
2.60574e-09
1.2919e-09
6.27837e-10
3.0404e-10
1.59155e-10
9.21999e-11
5.70761e-11
7.68332e-12
1.97571e-11
0
1.31714e-11
1.4269e-11
2.08547e-11
1.09762e-12
2.08547e-11
1.53666e-11
1.64643e-11
0
2.52452e-11
1.64643e-11
9.87856e-12
1.09762e-12
-2.08547e-11
-4.39047e-12
1.09762e-12
3.29285e-12
0
-2.19524e-12
2.19524e-12
-2.305e-11
-1.09762e-12
0
7.68332e-12
1.09762e-12
1.4269e-11
-2.19523e-12
-1.09762e-12
-1.09762e-12
-4.39047e-12
1.09762e-12
-1.09762e-12
1.20738e-11
0
0
2.08547e-11
9.87856e-12
6.58571e-12
4.39047e-12
0
6.45447e-07
1.87589e-06
2.93422e-06
3.735e-06
4.23078e-06
4.41528e-06
4.31916e-06
4.00001e-06
3.52936e-06
2.9798e-06
2.41498e-06
1.88333e-06
1.41595e-06
1.02796e-06
7.21625e-07
4.90401e-07
3.22953e-07
2.06308e-07
1.2793e-07
7.70582e-08
4.51472e-08
2.57391e-08
1.42734e-08
7.72503e-09
4.09082e-09
2.12389e-09
1.09323e-09
5.8064e-10
2.98552e-10
1.69033e-10
9.21999e-11
7.13451e-11
5.04904e-11
1.75619e-11
4.17095e-11
1.53666e-11
2.305e-11
3.51238e-11
1.97571e-11
1.09762e-12
4.06118e-11
1.31714e-11
3.7319e-11
5.1588e-11
3.84166e-11
4.06118e-11
1.97571e-11
3.51238e-11
2.19523e-12
-1.20738e-11
4.39047e-12
6.5857e-12
1.53666e-11
2.08547e-11
1.09762e-12
5.48809e-12
4.39047e-12
1.4269e-11
-1.09762e-11
0
0
-2.19523e-12
-1.09762e-12
0
-3.29285e-12
0
4.39047e-12
-4.39047e-12
-2.19523e-12
-1.31714e-11
-5.48809e-12
6.5857e-12
-1.09762e-12
-5.48809e-12
2.19523e-12
2.51306e-07
7.30587e-07
1.14302e-06
1.45555e-06
1.64964e-06
1.72268e-06
1.68639e-06
1.56303e-06
1.38034e-06
1.1665e-06
9.46356e-07
7.3881e-07
5.56093e-07
4.04177e-07
2.84074e-07
1.93283e-07
1.27452e-07
8.15277e-08
5.05914e-08
3.05247e-08
1.79021e-08
1.01969e-08
5.67688e-09
3.09528e-09
1.6563e-09
8.59434e-10
4.62097e-10
2.52452e-10
1.383e-10
8.45165e-11
4.82952e-11
3.29285e-11
2.74404e-11
3.29285e-11
3.29285e-12
0
-8.78094e-12
1.20738e-11
-4.39047e-12
1.09762e-11
5.48809e-12
4.39047e-12
1.97571e-11
4.93928e-11
4.06118e-11
3.95142e-11
1.4269e-11
1.09762e-12
2.74404e-11
8.78094e-12
1.09762e-12
4.39047e-12
1.4269e-11
1.09762e-12
-2.19524e-12
1.4269e-11
1.31714e-11
2.19524e-12
2.19523e-12
0
0
-2.19523e-12
2.19524e-12
8.78094e-12
3.29285e-12
-1.09762e-12
0
-1.20738e-11
1.09762e-12
0
-1.64643e-11
-9.87856e-12
1.09762e-12
-7.68332e-12
0
9.60942e-08
2.7951e-07
4.37409e-07
5.57212e-07
6.31844e-07
6.60199e-07
6.46734e-07
5.99852e-07
5.302e-07
4.48463e-07
3.64189e-07
2.84594e-07
2.1444e-07
1.56045e-07
1.09802e-07
7.47982e-08
4.93851e-08
3.16081e-08
1.96342e-08
1.1829e-08
6.94682e-09
3.9602e-09
2.20731e-09
1.20189e-09
6.37716e-10
3.47945e-10
1.86595e-10
8.45165e-11
4.93928e-11
4.82952e-11
3.40261e-11
2.08547e-11
-4.39047e-12
0
-1.53666e-11
-4.39047e-12
-1.53666e-11
8.78094e-12
1.53666e-11
3.62214e-11
3.29285e-12
8.78094e-12
-1.75619e-11
8.78094e-12
2.63428e-11
1.75619e-11
-8.78094e-12
-6.58571e-12
2.19524e-12
1.31714e-11
0
-2.19524e-12
-1.4269e-11
-8.78094e-12
0
-2.08547e-11
-4.39047e-12
-4.39047e-12
1.09762e-12
0
0
-2.19523e-12
4.39047e-12
0
5.48809e-12
0
-1.09762e-12
0
6.58571e-12
1.53666e-11
5.48809e-12
-5.48809e-12
-8.78094e-12
1.09762e-12
-4.39047e-12
3.6138e-08
1.05068e-07
1.64401e-07
2.09491e-07
2.37636e-07
2.48415e-07
2.43465e-07
2.25984e-07
1.99894e-07
1.69198e-07
1.37528e-07
1.07574e-07
8.11392e-08
5.91144e-08
4.16315e-08
2.83998e-08
1.87572e-08
1.2009e-08
7.48465e-09
4.49584e-09
2.61782e-09
1.50044e-09
8.40775e-10
4.35754e-10
2.35988e-10
1.35007e-10
6.5857e-11
2.85381e-11
2.08547e-11
2.85381e-11
3.51238e-11
3.62214e-11
-3.29285e-12
-2.19523e-11
-1.20738e-11
4.39047e-12
5.48809e-12
4.39047e-12