/*--------------------------------*- C++ -*----------------------------------*\
  =========                 |
  \\      /  F ield         | OpenFOAM: The Open Source CFD Toolbox
   \\    /   O peration     | Website:  https://openfoam.org
    \\  /    A nd           | Version:  10
     \\/     M anipulation  |
\*---------------------------------------------------------------------------*/
FoamFile
{
    format      ascii;
    class       volScalarField;
    location    "1550";
    object      T;
}
// * * * * * * * * * * * * * * * * * * * * * * * * * * * * * * * * * * * * * //

dimensions      [0 0 0 1 0 0 0];

internalField   nonuniform List<scalar> 
11250
(
249.966
167.925
139.97
127.789
121.239
117.155
114.348
112.29
110.708
109.451
108.424
107.568
106.842
106.217
105.672
105.192
104.766
104.385
104.042
103.732
103.449
103.191
102.954
102.737
102.536
102.351
102.179
102.02
101.872
101.735
101.608
101.489
101.378
101.275
101.179
101.09
101.007
100.929
100.857
100.79
100.728
100.669
100.615
100.565
100.519
100.476
100.436
100.399
100.364
100.333
100.303
100.276
100.251
100.228
100.207
100.188
100.17
100.153
100.138
100.124
100.111
100.099
100.088
100.078
100.069
100.061
100.053
100.045
100.038
100.032
100.025
100.02
100.014
100.008
100.003
331.869
249.692
204.136
177.735
161.253
150.19
142.299
136.393
131.801
128.123
125.105
122.578
120.427
118.572
116.953
115.526
114.257
113.121
112.097
111.169
110.325
109.554
108.846
108.196
107.596
107.041
106.528
106.052
105.61
105.199
104.817
104.462
104.13
103.822
103.535
103.267
103.018
102.785
102.569
102.368
102.181
102.007
101.845
101.695
101.555
101.426
101.306
101.195
101.092
100.997
100.909
100.828
100.753
100.684
100.621
100.562
100.508
100.459
100.413
100.372
100.333
100.298
100.265
100.235
100.207
100.182
100.158
100.136
100.115
100.095
100.076
100.059
100.041
100.025
100.008
359.688
294.839
249.146
217.765
195.851
180.055
168.268
159.185
151.986
146.142
141.299
137.217
133.724
130.699
128.049
125.708
123.623
121.752
120.064
118.533
117.138
115.862
114.691
113.614
112.619
111.7
110.849
110.059
109.326
108.644
108.009
107.419
106.869
106.356
105.879
105.434
105.02
104.634
104.274
103.94
103.628
103.339
103.069
102.819
102.587
102.372
102.173
101.988
101.817
101.659
101.513
101.378
101.253
101.139
101.033
100.936
100.846
100.764
100.688
100.619
100.555
100.496
100.441
100.391
100.345
100.302
100.263
100.226
100.191
100.158
100.127
100.098
100.069
100.041
100.014
371.733
320.832
279.848
248.332
224.336
205.915
191.538
180.101
170.825
163.168
156.743
151.276
146.565
142.46
138.85
135.648
132.787
130.214
127.888
125.774
123.846
122.08
120.458
118.963
117.584
116.307
115.124
114.026
113.005
112.056
111.173
110.351
109.584
108.87
108.205
107.585
107.007
106.469
105.967
105.5
105.066
104.662
104.286
103.937
103.614
103.313
103.035
102.777
102.538
102.317
102.113
101.925
101.751
101.591
101.443
101.307
101.182
101.067
100.962
100.864
100.775
100.693
100.617
100.547
100.482
100.423
100.367
100.315
100.267
100.221
100.178
100.136
100.096
100.057
100.019
378.147
336.908
301.086
271.382
247.253
227.738
211.879
198.864
188.057
178.972
171.243
164.594
158.814
153.744
149.26
145.264
141.681
138.449
135.519
132.851
130.413
128.176
126.118
124.221
122.466
120.842
119.335
117.936
116.635
115.425
114.298
113.247
112.269
111.356
110.506
109.713
108.974
108.285
107.644
107.047
106.491
105.973
105.493
105.046
104.631
104.246
103.89
103.559
103.253
102.97
102.709
102.468
102.245
102.04
101.85
101.676
101.516
101.369
101.233
101.108
100.994
100.888
100.791
100.701
100.619
100.542
100.471
100.404
100.342
100.284
100.228
100.175
100.124
100.074
100.024
382.097
347.568
316.211
288.865
265.563
245.916
229.385
215.432
203.581
193.437
184.681
177.06
170.373
164.463
159.203
154.491
150.248
146.407
142.914
139.725
136.804
134.12
131.646
129.362
127.248
125.288
123.468
121.777
120.203
118.738
117.373
116.1
114.914
113.807
112.775
111.813
110.915
110.079
109.3
108.574
107.898
107.27
106.685
106.142
105.637
105.169
104.735
104.333
103.961
103.617
103.299
103.005
102.734
102.484
102.254
102.042
101.847
101.667
101.502
101.35
101.21
101.082
100.964
100.855
100.754
100.66
100.574
100.493
100.417
100.346
100.278
100.213
100.151
100.09
100.03
384.77
355.058
327.332
302.31
280.227
260.989
244.328
229.914
217.416
206.532
197.004
188.613
181.18
174.557
168.623
163.278
158.442
154.046
150.036
146.364
142.992
139.886
137.019
134.367
131.909
129.627
127.507
125.534
123.697
121.985
120.389
118.9
117.511
116.215
115.006
113.878
112.826
111.845
110.931
110.079
109.286
108.547
107.861
107.223
106.63
106.08
105.57
105.098
104.66
104.256
103.881
103.536
103.217
102.923
102.652
102.403
102.173
101.962
101.768
101.589
101.425
101.274
101.134
101.006
100.887
100.777
100.675
100.58
100.491
100.407
100.327
100.251
100.177
100.106
100.035
386.697
360.568
335.754
312.824
292.057
273.497
257.04
242.498
229.656
218.294
208.214
199.236
191.206
183.993
177.485
171.59
166.229
161.336
156.856
152.74
148.951
145.452
142.216
139.217
136.433
133.846
131.438
129.196
127.105
125.156
123.337
121.639
120.054
118.574
117.193
115.904
114.701
113.579
112.533
111.558
110.65
109.804
109.018
108.287
107.608
106.977
106.393
105.851
105.349
104.885
104.456
104.06
103.694
103.356
103.046
102.759
102.496
102.253
102.03
101.825
101.637
101.463
101.303
101.156
101.019
100.893
100.776
100.667
100.564
100.468
100.376
100.288
100.204
100.121
100.04
388.148
364.767
342.3
321.187
301.692
283.92
267.855
253.405
240.437
228.802
218.35
208.941
200.448
192.757
185.772
179.406
173.588
168.254
163.352
158.834
154.662
150.801
147.222
143.898
140.808
137.932
135.251
132.752
130.419
128.242
126.209
124.31
122.536
120.878
119.33
117.885
116.536
115.277
114.102
113.007
111.987
111.037
110.153
109.331
108.567
107.858
107.201
106.591
106.026
105.504
105.021
104.575
104.163
103.783
103.433
103.11
102.813
102.54
102.289
102.058
101.845
101.649
101.469
101.303
101.149
101.007
100.875
100.752
100.636
100.527
100.424
100.325
100.23
100.137
100.045
389.275
368.057
347.499
327.942
309.619
292.653
277.075
262.853
249.913
238.156
227.475
217.765
208.923
200.855
193.479
186.718
180.507
174.788
169.511
164.632
160.113
155.92
152.023
148.398
145.022
141.873
138.936
136.193
133.631
131.236
128.998
126.906
124.95
123.122
121.414
119.817
118.326
116.934
115.635
114.424
113.295
112.243
111.264
110.354
109.508
108.722
107.993
107.317
106.691
106.111
105.575
105.08
104.623
104.202
103.813
103.455
103.125
102.822
102.543
102.286
102.05
101.833
101.633
101.448
101.277
101.119
100.972
100.835
100.707
100.586
100.471
100.361
100.255
100.152
100.051
390.174
370.694
351.705
333.477
316.207
300.017
284.963
271.047
258.234
246.465
235.666
225.759
216.664
208.306
200.615
193.527
186.982
180.931
175.325
170.124
165.292
160.797
156.611
152.707
149.065
145.663
142.484
139.512
136.733
134.132
131.699
129.423
127.293
125.301
123.438
121.697
120.069
118.549
117.13
115.806
114.571
113.421
112.35
111.353
110.427
109.566
108.768
108.027
107.341
106.706
106.118
105.576
105.074
104.612
104.186
103.793
103.431
103.099
102.792
102.511
102.252
102.013
101.793
101.59
101.403
101.229
101.068
100.918
100.777
100.644
100.518
100.397
100.281
100.167
100.056
390.905
372.844
355.161
338.068
321.731
306.266
291.737
278.166
265.545
253.84
243.004
232.982
223.713
215.138
207.2
199.844
193.021
186.684
180.792
175.307
170.196
165.429
160.978
156.819
152.931
149.294
145.89
142.703
139.719
136.924
134.306
131.855
129.56
127.411
125.401
123.52
121.761
120.118
118.583
117.15
115.813
114.568
113.407
112.327
111.323
110.39
109.524
108.72
107.976
107.287
106.649
106.06
105.516
105.013
104.55
104.124
103.731
103.369
103.037
102.73
102.449
102.189
101.95
101.73
101.526
101.337
101.162
100.998
100.845
100.7
100.563
100.432
100.305
100.182
100.06
391.508
374.624
358.037
341.917
326.405
311.604
297.58
284.368
271.974
260.385
249.572
239.497
230.116
221.385
213.257
205.686
198.632
192.053
185.914
180.181
174.822
169.811
165.121
160.73
156.617
152.762
149.149
145.761
142.585
139.608
136.816
134.199
131.747
129.449
127.298
125.284
123.4
121.638
119.991
118.454
117.019
115.681
114.435
113.274
112.195
111.192
110.26
109.396
108.595
107.853
107.167
106.532
105.946
105.405
104.906
104.447
104.024
103.634
103.275
102.945
102.641
102.362
102.104
101.866
101.647
101.443
101.254
101.077
100.912
100.756
100.608
100.466
100.329
100.196
100.065
392.012
376.116
360.456
345.174
330.388
316.189
302.642
289.785
277.637
266.196
255.447
245.367
235.924
227.085
218.814
211.075
203.831
197.05
190.7
184.75
179.174
173.945
169.04
164.438
160.119
156.064
152.258
148.684
145.329
142.18
139.224
136.451
133.85
131.412
129.126
126.986
124.982
123.107
121.354
119.716
118.187
116.761
115.432
114.194
113.041
111.97
110.976
110.052
109.197
108.404
107.67
106.992
106.365
105.787
105.253
104.762
104.309
103.892
103.508
103.155
102.829
102.53
102.254
101.999
101.764
101.546
101.343
101.154
100.977
100.81
100.651
100.499
100.353
100.21
100.07
392.438
377.378
362.511
347.954
333.806
320.15
307.044
294.532
282.634
271.359
260.703
250.652
241.185
232.278
223.904
216.033
208.637
201.688
195.158
189.022
183.255
177.833
172.736
167.943
163.437
159.199
155.215
151.469
147.948
144.639
141.53
138.61
135.869
133.297
130.885
128.624
126.506
124.524
122.669
120.935
119.316
117.805
116.396
115.083
113.861
112.725
111.669
110.689
109.781
108.939
108.159
107.439
106.773
106.158
105.591
105.068
104.586
104.143
103.734
103.359
103.013
102.694
102.4
102.129
101.879
101.647
101.431
101.229
101.041
100.863
100.694
100.532
100.376
100.224
100.074
392.801
378.456
364.271
350.343
336.758
323.588
310.889
298.702
287.052
275.953
265.407
255.409
245.947
237.003
228.557
220.587
213.07
205.983
199.302
193.005
187.072
181.48
176.212
171.248
166.572
162.168
158.021
154.116
150.441
146.983
143.731
140.674
137.802
135.104
132.572
130.197
127.971
125.886
123.935
122.11
120.404
118.812
117.327
115.943
114.654
113.455
112.34
111.306
110.346
109.457
108.633
107.872
107.168
106.518
105.918
105.365
104.856
104.386
103.954
103.557
103.191
102.853
102.542
102.255
101.99
101.744
101.516
101.303
101.103
100.914
100.735
100.564
100.398
100.237
100.079
393.113
379.383
365.787
352.408
339.32
326.586
314.259
302.376
290.965
280.044
269.619
259.692
250.255
241.297
232.806
224.763
217.151
209.951
203.145
196.711
190.634
184.893
179.473
174.356
169.528
164.972
160.676
156.626
152.809
149.213
145.828
142.643
139.647
136.831
134.187
131.704
129.376
127.194
125.151
123.239
121.451
119.782
118.224
116.771
115.418
114.159
112.988
111.901
110.893
109.957
109.092
108.291
107.55
106.866
106.235
105.653
105.117
104.623
104.168
103.749
103.363
103.008
102.68
102.378
102.098
101.839
101.598
101.374
101.163
100.964
100.775
100.594
100.42
100.25
100.083
393.382
380.185
367.102
354.204
341.555
329.212
317.221
305.621
294.438
283.692
273.394
263.547
254.151
245.199
236.682
228.588
220.903
213.613
206.701
200.153
193.951
188.08
182.526
177.273
172.307
167.615
163.183
158.999
155.051
151.329
147.82
144.515
141.405
138.479
135.728
133.145
130.72
128.447
126.316
124.322
122.456
120.713
119.086
117.568
116.153
114.837
113.613
112.475
111.419
110.441
109.534
108.695
107.919
107.203
106.542
105.932
105.369
104.851
104.374
103.935
103.53
103.158
102.814
102.497
102.203
101.931
101.678
101.442
101.221
101.012
100.814
100.624
100.441
100.263
100.087
393.617
380.884
368.248
355.772
343.512
331.519
319.835
308.495
297.527
286.95
276.778
267.019
257.674
248.741
240.214
232.087
224.348
216.986
209.988
203.342
197.034
191.05
185.378
180.003
174.915
170.099
165.544
161.238
157.171
153.331
149.709
146.293
143.075
140.046
137.197
134.519
132.003
129.643
127.431
125.358
123.419
121.606
119.912
118.332
116.86
115.488
114.213
113.027
111.927
110.906
109.96
109.085
108.276
107.528
106.837
106.2
105.613
105.072
104.574
104.115
103.692
103.302
102.943
102.611
102.305
102.02
101.756
101.509
101.277
101.059
100.852
100.653
100.462
100.275
100.091
393.822
381.494
369.251
357.148
345.233
333.553
322.146
311.045
300.277
289.863
279.816
270.147
260.86
251.956
243.432
235.285
227.506
220.088
213.021
206.293
199.894
193.812
188.036
182.555
177.356
172.429
167.763
163.347
159.17
155.223
151.495
147.977
144.66
141.535
138.593
135.826
133.225
130.784
128.494
126.348
124.339
122.46
120.704
119.065
117.537
116.113
114.789
113.557
112.414
111.353
110.37
109.46
108.618
107.84
107.122
106.459
105.848
105.285
104.766
104.288
103.848
103.442
103.068
102.722
102.403
102.106
101.831
101.573
101.332
101.104
100.888
100.681
100.481
100.287
100.095
394.002
382.03
370.133
358.359
346.751
335.351
324.195
313.313
302.731
292.47
282.545
272.966
263.741
254.873
246.362
238.206
230.4
222.939
215.815
209.019
202.543
196.377
190.51
184.934
179.638
174.612
169.845
165.328
161.051
157.005
153.181
149.568
146.159
142.945
139.917
137.067
134.387
131.869
129.506
127.291
125.216
123.275
121.46
119.765
118.184
116.711
115.34
114.065
112.881
111.782
110.763
109.82
108.947
108.141
107.396
106.708
106.074
105.49
104.951
104.455
103.998
103.577
103.188
102.829
102.497
102.189
101.903
101.635
101.385
101.148
100.923
100.708
100.501
100.298
100.099
394.16
382.502
370.911
359.428
348.094
336.946
326.016
315.334
304.924
294.807
284.997
275.508
266.347
257.519
249.028
240.872
233.049
225.555
218.386
211.534
204.993
198.754
192.809
187.149
181.766
176.651
171.794
167.186
162.818
158.682
154.769
151.069
147.575
144.278
141.17
138.243
135.489
132.9
130.469
128.188
126.051
124.051
122.18
120.433
118.802
117.282
115.867
114.551
113.327
112.192
111.14
110.165
109.263
108.428
107.658
106.947
106.291
105.686
105.129
104.615
104.142
103.706
103.303
102.932
102.588
102.269
101.972
101.695
101.435
101.19
100.957
100.734
100.519
100.309
100.103
394.3
382.919
371.598
360.375
349.285
338.362
327.637
317.138
306.886
296.903
287.203
277.801
268.704
259.92
251.453
243.303
235.471
227.955
220.75
213.852
207.256
200.954
194.941
189.208
183.749
178.553
173.615
168.925
164.475
160.257
156.262
152.482
148.91
145.537
142.354
139.355
136.532
133.876
131.381
129.04
126.845
124.789
122.866
121.068
119.391
117.827
116.369
115.014
113.754
112.584
111.5
110.495
109.564
108.704
107.909
107.176
106.499
105.875
105.299
104.769
104.28
103.83
103.414
103.03
102.675
102.345
102.039
101.753
101.484
101.23
100.99
100.759
100.537
100.32
100.106
394.424
383.289
372.208
361.215
350.343
339.623
329.084
318.75
308.644
298.785
289.189
279.87
270.837
262.098
253.658
245.52
237.685
230.153
222.92
215.985
209.343
202.988
196.916
191.119
185.591
180.325
175.314
170.55
166.025
161.732
157.663
153.81
150.166
146.722
143.471
140.405
137.517
134.8
132.245
129.847
127.597
125.489
123.517
121.673
119.951
118.344
116.848
115.455
114.161
112.958
111.843
110.809
109.852
108.967
108.149
107.394
106.697
106.055
105.462
104.916
104.413
103.949
103.52
103.125
102.759
102.419
102.103
101.808
101.531
101.269
101.021
100.783
100.553
100.33
100.11
394.534
383.617
372.75
361.962
351.286
340.748
330.375
320.192
310.22
300.476
290.978
281.738
272.767
264.074
255.663
247.541
239.708
232.165
224.912
217.947
211.266
204.866
198.742
192.889
187.302
181.973
176.896
172.066
167.473
163.112
158.975
155.055
151.345
147.836
144.521
141.394
138.446
135.671
133.061
130.609
128.309
126.152
124.133
122.245
120.482
118.836
117.303
115.875
114.547
113.314
112.17
111.109
110.127
109.218
108.379
107.603
106.887
106.227
105.618
105.057
104.54
104.062
103.622
103.215
102.839
102.489
102.164
101.86
101.575
101.306
101.051
100.806
100.57
100.339
100.113
394.632
383.909
373.232
362.628
352.126
341.752
331.531
321.485
311.634
301.998
292.59
283.425
274.514
265.865
257.486
249.381
241.554
234.006
226.737
219.748
213.036
206.597
200.429
194.528
188.887
183.503
178.368
173.477
168.824
164.401
160.203
156.221
152.45
148.881
145.508
142.324
139.321
136.492
133.831
131.329
128.981
126.779
124.717
122.788
120.985
119.303
117.734
116.273
114.915
113.652
112.481
111.394
110.388
109.457
108.597
107.802
107.068
106.391
105.767
105.191
104.661
104.171
103.719
103.301
102.915
102.556
102.222
101.911
101.618
101.342
101.079
100.828
100.585
100.349
100.116
394.719
384.17
373.662
363.223
352.878
342.651
332.566
322.644
312.905
303.367
294.043
284.949
276.095
267.49
259.142
251.056
243.238
235.688
228.409
221.401
214.663
208.192
201.986
196.042
190.355
184.921
179.734
174.789
170.081
165.603
161.348
157.311
153.484
149.861
146.434
143.197
140.143
137.265
134.555
132.008
129.615
127.371
125.268
123.3
121.461
119.744
118.142
116.65
115.263
113.973
112.775
111.665
110.636
109.684
108.804
107.991
107.24
106.547
105.908
105.319
104.776
104.274
103.812
103.384
102.988
102.62
102.278
101.959
101.659
101.376
101.106
100.849
100.6
100.357
100.119
394.797
384.402
374.047
363.754
353.55
343.455
333.494
323.685
314.048
304.599
295.354
286.326
277.525
268.963
260.646
252.581
244.773
237.225
229.939
222.917
216.157
209.659
203.42
197.439
191.711
186.233
181
176.008
171.25
166.721
162.416
158.328
154.45
150.776
147.3
144.015
140.914
137.99
135.236
132.645
130.212
127.928
125.788
123.784
121.91
120.16
118.528
117.007
115.592
114.276
113.055
111.922
110.872
109.9
109.001
108.17
107.403
106.696
106.043
105.441
104.885
104.373
103.899
103.462
103.057
102.681
102.331
102.004
101.698
101.408
101.132
100.869
100.614
100.366
100.122
394.866
384.61
374.39
364.23
354.151
344.177
334.326
324.62
315.076
305.71
296.537
287.57
278.821
270.299
262.012
253.969
246.173
238.628
231.339
224.305
217.528
211.007
204.74
198.727
192.964
187.447
182.173
177.137
172.335
167.761
163.409
159.275
155.351
151.631
148.11
144.78
141.636
138.669
135.874
133.244
130.772
128.452
126.276
124.239
122.333
120.553
118.892
117.344
115.903
114.563
113.319
112.164
111.094
110.104
109.187
108.34
107.558
106.836
106.17
105.556
104.989
104.466
103.983
103.537
103.123
102.739
102.382
102.048
101.734
101.438
101.157
100.888
100.628
100.374
100.124
394.928
384.796
374.698
364.656
354.691
344.824
335.074
325.461
316.001
306.711
297.604
288.694
279.993
271.509
263.253
255.23
247.447
239.908
232.617
225.575
218.784
212.244
205.954
199.913
194.118
188.568
183.257
178.183
173.341
168.725
164.332
160.156
156.19
152.428
148.866
145.495
142.31
139.305
136.472
133.805
131.298
128.944
126.735
124.667
122.731
120.923
119.235
117.661
116.196
114.834
113.568
112.393
111.304
110.296
109.363
108.501
107.705
106.969
106.291
105.665
105.088
104.555
104.062
103.607
103.186
102.794
102.43
102.089
101.769
101.468
101.181
100.906
100.64
100.382
100.127
394.984
384.963
374.974
365.038
355.175
345.404
335.746
326.217
316.834
307.613
298.567
289.711
281.054
272.607
264.379
256.377
248.608
241.076
233.784
226.737
219.935
213.379
207.069
201.004
195.182
189.601
184.258
179.149
174.271
169.619
165.189
160.974
156.969
153.17
149.569
146.161
142.94
139.899
137.031
134.33
131.79
129.404
127.166
125.068
123.105
121.27
119.557
117.96
116.472
115.088
113.803
112.609
111.503
110.478
109.53
108.653
107.843
107.095
106.405
105.768
105.181
104.638
104.137
103.674
103.245
102.846
102.475
102.128
101.803
101.495
101.203
100.923
100.652
100.389
100.129
395.034
385.113
375.221
365.38
355.609
345.926
336.35
326.897
317.584
308.426
299.437
290.629
282.014
273.601
265.401
257.419
249.664
242.139
234.85
227.799
220.988
214.419
208.091
202.006
196.16
190.553
185.181
180.042
175.132
170.447
165.982
161.732
157.693
153.859
150.224
146.782
143.527
140.452
137.553
134.821
132.25
129.835
127.569
125.444
123.455
121.596
119.859
118.24
116.731
115.328
114.023
112.812
111.689
110.649
109.687
108.796
107.974
107.214
106.513
105.866
105.269
104.717
104.208
103.737
103.301
102.895
102.518
102.165
101.834
101.521
101.224
100.939
100.664
100.396
100.131
395.079
385.247
375.443
365.688
355.999
346.395
336.893
327.509
318.26
309.16
300.222
291.459
282.883
274.502
266.328
258.366
250.624
243.108
235.821
228.768
221.95
215.37
209.029
202.925
197.059
191.428
186.031
180.865
175.926
171.211
166.716
162.435
158.364
154.499
150.832
147.358
144.073
140.968
138.039
135.278
132.68
130.238
127.945
125.796
123.783
121.901
120.143
118.503
116.975
115.552
114.231
113.003
111.865
110.81
109.834
108.931
108.097
107.326
106.614
105.958
105.352
104.792
104.275
103.797
103.353
102.942
102.559
102.2
101.864
101.546
101.244
100.954
100.675
100.402
100.134
395.119
385.367
375.642
365.964
356.35
346.816
337.381
328.061
318.869
309.821
300.931
292.209
283.669
275.318
267.168
259.225
251.497
243.989
236.706
229.652
222.83
216.241
209.887
203.768
197.884
192.232
186.813
181.622
176.658
171.916
167.393
163.085
158.985
155.091
151.395
147.894
144.58
141.447
138.491
135.704
133.08
130.613
128.296
126.124
124.089
122.186
120.408
118.748
117.202
115.763
114.425
113.182
112.03
110.961
109.972
109.058
108.212
107.431
106.71
106.044
105.43
104.862
104.338
103.853
103.403
102.986
102.597
102.233
101.892
101.569
101.262
100.969
100.685
100.408
100.136
395.155
385.475
375.821
366.212
356.665
347.195
337.821
328.557
319.418
310.418
301.571
292.887
284.38
276.057
267.93
260.005
252.29
244.79
237.512
230.458
223.632
217.036
210.672
204.54
198.64
192.971
187.531
182.319
177.332
172.567
168.019
163.685
159.56
155.639
151.917
148.39
145.05
141.892
138.911
136.1
133.452
130.962
128.624
126.43
124.375
122.452
120.655
118.978
117.415
115.96
114.607
113.35
112.184
111.103
110.102
109.176
108.32
107.53
106.799
106.125
105.503
104.928
104.397
103.905
103.45
103.027
102.633
102.264
101.918
101.591
101.28
100.982
100.694
100.414
100.137
395.188
385.572
375.982
366.435
356.948
347.536
338.217
329.004
319.913
310.956
302.148
293.5
285.022
276.726
268.62
260.712
253.01
245.519
238.245
231.192
224.364
217.762
211.389
205.246
199.332
193.648
188.191
182.96
177.952
173.165
168.595
164.238
160.089
156.145
152.4
148.848
145.485
142.305
139.3
136.467
133.798
131.287
128.928
126.715
124.641
122.7
120.886
119.192
117.614
116.144
114.777
113.507
112.328
111.235
110.224
109.287
108.422
107.622
106.883
106.201
105.572
104.99
104.452
103.955
103.494
103.066
102.667
102.293
101.943
101.612
101.297
100.995
100.703
100.419
100.139
395.217
385.659
376.127
366.636
357.202
347.843
338.573
329.406
320.358
311.441
302.669
294.053
285.603
277.331
269.245
261.353
253.663
246.181
238.912
231.86
225.03
218.424
212.044
205.891
199.966
194.267
188.795
183.547
178.521
173.715
169.125
164.747
160.578
156.612
152.845
149.272
145.888
142.686
139.661
136.807
134.118
131.588
129.211
126.979
124.888
122.931
121.101
119.392
117.799
116.315
114.935
113.653
112.463
111.359
110.337
109.391
108.517
107.709
106.962
106.273
105.636
105.048
104.504
104.001
103.535
103.102
102.698
102.321
101.966
101.631
101.312
101.007
100.712
100.424
100.141
395.243
385.738
376.256
366.816
357.431
348.119
338.893
329.769
320.76
311.879
303.139
294.552
286.128
277.878
269.811
261.934
254.255
246.781
239.517
232.468
225.637
219.028
212.642
206.481
200.545
194.834
189.348
184.085
179.043
174.22
169.612
165.216
161.027
157.042
153.256
149.664
146.26
143.039
139.995
137.122
134.415
131.868
129.473
127.225
125.118
123.145
121.3
119.578
117.971
116.475
115.083
113.789
112.588
111.475
110.443
109.488
108.605
107.789
107.036
106.339
105.696
105.102
104.553
104.045
103.574
103.136
102.728
102.346
101.988
101.649
101.327
101.018
100.72
100.429
100.143
395.267
385.808
376.373
366.978
357.637
348.367
339.181
330.095
321.121
312.273
303.563
295.003
286.603
278.373
270.323
262.46
254.792
247.326
240.067
233.02
226.189
219.577
213.186
207.018
201.073
195.352
189.854
184.578
179.522
174.683
170.059
165.646
161.44
157.438
153.634
150.024
146.602
143.364
140.303
137.413
134.69
132.126
129.715
127.452
125.33
123.343
121.485
119.75
118.131
116.623
115.22
113.916
112.705
111.582
110.542
109.579
108.688
107.865
107.104
106.401
105.753
105.153
104.599
104.085
103.61
103.168
102.756
102.37
102.008
101.666
101.341
101.029
100.727
100.433
100.144
395.288
385.871
376.478
367.123
357.822
348.59
339.441
330.389
321.447
312.628
303.945
295.409
287.031
278.82
270.785
262.936
255.279
247.82
240.566
233.522
226.691
220.077
213.682
207.508
201.556
195.825
190.317
185.029
179.96
175.107
170.469
166.041
161.82
157.802
153.982
150.356
146.918
143.664
140.587
137.682
134.943
132.364
129.94
127.663
125.527
123.527
121.657
119.91
118.28
116.761
115.347
114.033
112.813
111.682
110.633
109.663
108.765
107.935
107.168
106.459
105.805
105.2
104.641
104.123
103.643
103.197
102.782
102.393
102.027
101.682
101.353
101.039
100.734
100.438
100.145
395.307
385.928
376.572
367.254
357.989
348.791
339.674
330.653
321.74
312.948
304.29
295.776
287.417
279.223
271.204
263.366
255.719
248.267
241.018
233.977
227.146
220.531
214.133
207.954
201.995
196.257
190.739
185.44
180.36
175.495
170.844
166.402
162.168
158.135
154.301
150.66
147.208
143.94
140.848
137.929
135.177
132.585
130.147
127.857
125.709
123.698
121.816
120.057
118.417
116.888
115.465
114.142
112.914
111.775
110.719
109.741
108.836
108
107.227
106.513
105.854
105.244
104.68
104.159
103.675
103.225
102.806
102.414
102.045
101.697
101.365
101.048
100.741
100.441
100.147
395.324
385.979
376.657
367.371
358.138
348.971
339.884
330.891
322.004
313.237
304.6
296.107
287.766
279.588
271.581
263.755
256.117
248.672
241.428
234.389
227.56
220.943
214.542
208.359
202.394
196.649
191.123
185.816
180.725
175.85
171.187
166.733
162.486
158.441
154.594
150.94
147.475
144.193
141.089
138.157
135.392
132.787
130.337
128.036
125.877
123.855
121.962
120.194
118.544
117.006
115.575
114.243
113.007
111.86
110.797
109.813
108.903
108.061
107.282
106.563
105.899
105.285
104.717
104.191
103.704
103.251
102.828
102.433
102.061
101.71
101.376
101.056
100.747
100.445
100.148
395.339
386.025
376.733
367.477
358.272
349.133
340.072
331.104
322.241
313.496
304.88
296.404
288.08
279.916
271.922
264.107
256.476
249.039
241.799
234.763
227.934
221.317
214.914
208.727
202.758
197.007
191.473
186.158
181.058
176.173
171.5
167.036
162.777
158.721
154.862
151.196
147.719
144.425
141.31
138.366
135.59
132.974
130.513
128.201
126.032
123.999
122.097
120.32
118.661
117.115
115.676
114.337
113.094
111.94
110.871
109.88
108.964
108.117
107.333
106.61
105.941
105.323
104.751
104.222
103.731
103.275
102.849
102.451
102.077
101.723
101.387
101.064
100.752
100.448
100.149
395.353
386.066
376.801
367.572
358.393
349.279
340.242
331.296
322.455
313.729
305.132
296.673
288.363
280.212
272.23
264.424
256.801
249.37
242.134
235.101
228.274
221.656
215.251
209.061
203.088
197.331
191.792
186.469
181.362
176.468
171.786
167.312
163.043
158.976
155.107
151.431
147.943
144.639
141.512
138.558
135.771
133.145
130.674
128.353
126.174
124.133
122.222
120.436
118.769
117.216
115.769
114.423
113.173
112.013
110.938
109.942
109.021
108.168
107.381
106.653
105.98
105.358
104.783
104.25
103.756
103.297
102.868
102.468
102.091
101.735
101.396
101.071
100.758
100.451
100.15
395.365
386.103
376.862
367.657
358.501
349.409
340.394
331.469
322.647
313.939
305.358
296.914
288.618
280.479
272.507
264.71
257.095
249.668
242.437
235.407
228.581
221.963
215.557
209.365
203.387
197.626
192.081
186.752
181.638
176.736
172.046
167.563
163.286
159.21
155.331
151.645
148.148
144.833
141.697
138.734
135.937
133.302
130.822
128.492
126.305
124.255
122.336
120.543
118.869
117.308
115.854
114.503
113.247
112.081
111
110
109.073
108.216
107.424
106.692
106.016
105.39
104.812
104.276
103.779
103.317
102.886
102.483
102.104
101.746
101.405
101.078
100.762
100.454
100.151
395.376
386.136
376.917
367.733
358.598
349.527
340.531
331.624
322.819
314.128
305.561
297.131
288.847
280.72
272.757
264.968
257.359
249.938
242.711
235.683
228.858
222.241
215.834
209.639
203.659
197.894
192.344
187.009
181.889
176.98
172.283
167.792
163.507
159.423
155.535
151.841
148.335
145.012
141.867
138.895
136.09
133.446
130.958
128.62
126.425
124.367
122.442
120.641
118.96
117.393
115.933
114.576
113.314
112.143
111.058
110.052
109.122
108.261
107.465
106.729
106.049
105.42
104.839
104.3
103.801
103.336
102.903
102.498
102.116
101.756
101.413
101.085
100.767
100.457
100.152
395.386
386.166
376.966
367.801
358.686
349.632
340.653
331.763
322.974
314.297
305.744
297.326
289.054
280.936
272.982
265.2
257.597
250.181
242.958
235.932
229.109
222.492
216.084
209.887
203.905
198.136
192.582
187.242
182.116
177.202
172.498
168.001
163.708
159.616
155.721
152.019
148.505
145.174
142.022
139.042
136.229
133.578
131.082
128.736
126.535
124.47
122.538
120.731
119.044
117.471
116.006
114.643
113.376
112.201
111.111
110.101
109.166
108.301
107.502
106.763
106.08
105.448
104.864
104.323
103.82
103.354
102.918
102.511
102.128
101.765
101.421
101.09
100.771
100.459
100.153
395.395
386.192
377.01
367.863
358.764
349.726
340.763
331.888
323.113
314.449
305.908
297.502
289.239
281.13
273.184
265.409
257.812
250.4
243.18
236.157
229.335
222.718
216.31
210.112
204.127
198.355
192.798
187.454
182.323
177.403
172.693
168.19
163.891
159.792
155.891
152.181
148.66
145.322
142.163
139.176
136.356
133.698
131.196
128.843
126.635
124.565
122.626
120.814
119.121
117.543
116.072
114.704
113.433
112.253
111.159
110.145
109.207
108.339
107.536
106.794
106.108
105.474
104.887
104.343
103.839
103.37
102.932
102.523
102.138
101.774
101.428
101.096
100.775
100.462
100.153
395.403
386.216
377.05
367.918
358.834
349.811
340.862
332
323.237
314.585
306.056
297.659
289.406
281.305
273.366
265.597
258.005
250.598
243.381
236.36
229.539
222.922
216.514
210.315
204.328
198.553
192.993
187.645
182.51
177.585
172.87
168.362
164.057
159.952
156.045
152.329
148.802
145.457
142.291
139.298
136.472
133.807
131.299
128.941
126.727
124.651
122.707
120.889
119.192
117.608
116.133
114.761
113.486
112.302
111.204
110.186
109.244
108.373
107.567
106.822
106.134
105.497
104.908
104.362
103.855
103.384
102.945
102.534
102.148
101.782
101.434
101.101
100.778
100.464
100.154
395.41
386.237
377.085
367.967
358.896
349.886
340.95
332.1
323.349
314.708
306.188
297.8
289.555
281.462
273.529
265.766
258.179
250.775
243.561
236.542
229.722
223.107
216.697
210.498
204.509
198.732
193.169
187.818
182.679
177.75
173.031
168.517
164.207
160.097
156.184
152.463
148.93
145.58
142.408
139.409
136.577