/*--------------------------------*- C++ -*----------------------------------*\
  =========                 |
  \\      /  F ield         | OpenFOAM: The Open Source CFD Toolbox
   \\    /   O peration     | Website:  https://openfoam.org
    \\  /    A nd           | Version:  10
     \\/     M anipulation  |
\*---------------------------------------------------------------------------*/
FoamFile
{
    format      ascii;
    class       volScalarField;
    location    "147";
    object      gradTz;
}
// * * * * * * * * * * * * * * * * * * * * * * * * * * * * * * * * * * * * * //

dimensions      [0 -1 0 1 0 0 0];

internalField   nonuniform List<scalar> 
11250
(
-14378
-4172.55
-1550.47
-744.348
-436.445
-291.167
-209.851
-158.306
-122.641
-96.4118
-76.3042
-60.4686
-47.7977
-37.5818
-29.3331
-22.6931
-17.3819
-13.1703
-9.86522
-7.30159
-5.33781
-3.85319
-2.74596
-1.93159
-1.34102
-0.918794
-0.621217
-0.414475
-0.272887
-0.177296
-0.113671
-0.0719182
-0.0449008
-0.0276603
-0.0168102
-0.0100755
-0.00595306
-0.00346499
-0.0019851
-0.00111823
-0.000618637
-0.000335686
-0.000178423
-9.27742e-05
-4.71335e-05
-2.33713e-05
-1.12998e-05
-5.32296e-06
-2.44152e-06
-1.08991e-06
-4.73393e-07
-2.0001e-07
-8.22083e-08
-3.28846e-08
-1.27861e-08
-4.8372e-09
-1.78253e-09
-6.43204e-10
-2.23914e-10
-7.68332e-11
-2.305e-11
0
-2.08547e-11
-1.09762e-12
2.19523e-11
1.09762e-12
-1.09762e-12
0
1.09762e-12
-1.09762e-12
0
-5.48809e-12
-1.09762e-12
6.5857e-12
0
-8337.8
-4932.73
-2834.05
-1733.6
-1145.73
-808.836
-599.358
-458.881
-358.578
-283.419
-225.118
-178.844
-141.622
-111.501
-87.1155
-67.4482
-51.6938
-39.1877
-29.3653
-21.7413
-15.8983
-11.4791
-8.18209
-5.75649
-3.99705
-2.7389
-1.85203
-1.23579
-0.813702
-0.528705
-0.338996
-0.214491
-0.133921
-0.0825046
-0.0501441
-0.030057
-0.0177604
-0.0103385
-0.00592369
-0.0033374
-0.00184669
-0.00100228
-0.00053287
-0.000277158
-0.000140857
-6.98701e-05
-3.37953e-05
-1.59267e-05
-7.30854e-06
-3.26414e-06
-1.41841e-06
-5.99599e-07
-2.46558e-07
-9.86374e-08
-3.83958e-08
-1.45292e-08
-5.35637e-09
-1.9329e-09
-6.60766e-10
-2.35988e-10
-7.79308e-11
-1.09762e-12
1.09762e-12
8.78094e-12
-1.09762e-12
-1.20738e-11
1.09762e-12
2.19523e-12
-1.09762e-12
-4.39047e-12
1.09762e-12
4.39047e-12
0
-8.78094e-12
8.78094e-12
-5697.79
-4381.89
-3115.15
-2206.66
-1601.15
-1196.98
-918.592
-718.819
-569.645
-454.48
-363.326
-289.969
-230.388
-181.841
-142.344
-110.372
-84.6908
-64.2623
-48.1919
-35.7027
-26.1212
-18.8687
-13.4544
-9.46883
-6.57656
-4.50754
-3.04862
-2.03461
-1.3399
-0.870727
-0.558366
-0.353335
-0.220635
-0.135941
-0.082631
-0.0495364
-0.0292751
-0.0170446
-0.00976844
-0.00550516
-0.00304728
-0.00165461
-0.000880138
-0.000458049
-0.000232941
-0.000115631
-5.59731e-05
-2.64005e-05
-1.21255e-05
-5.4205e-06
-2.35769e-06
-9.97595e-07
-4.10611e-07
-1.64441e-07
-6.40745e-08
-2.42881e-08
-8.95766e-09
-3.20724e-09
-1.10091e-09
-3.69897e-10
-1.26226e-10
-2.41476e-11
-1.09762e-12
5.48809e-12
-1.09762e-12
-5.48809e-12
0
0
0
-1.09762e-11
0
1.20738e-11
1.09762e-12
-1.09762e-12
-1.09762e-12
-4365.64
-3774.2
-3031.05
-2370.72
-1850.42
-1455.89
-1157.11
-927.39
-747.156
-603.035
-486.085
-390.288
-311.49
-246.691
-193.616
-150.438
-115.625
-87.8515
-65.9536
-48.9053
-35.8075
-25.882
-18.4652
-13.0013
-9.03365
-6.19377
-4.19035
-2.79733
-1.84262
-1.19767
-0.768168
-0.486181
-0.303638
-0.187112
-0.113754
-0.0682067
-0.0403178
-0.0234803
-0.0134614
-0.00758961
-0.00420328
-0.00228373
-0.00121568
-0.000633209
-0.000322326
-0.000160169
-7.76205e-05
-3.66553e-05
-1.6857e-05
-7.5456e-06
-3.28651e-06
-1.39258e-06
-5.73998e-07
-2.30184e-07
-8.98126e-08
-3.40975e-08
-1.25875e-08
-4.50792e-09
-1.5685e-09
-5.47711e-10
-1.92083e-10
-4.39047e-11
-1.20738e-11
-1.09762e-12
1.4269e-11
1.09762e-12
0
0
-2.19524e-12
0
8.78094e-12
1.09762e-12
-9.87856e-12
0
0
-3613.84
-3307.65
-2854.5
-2386.51
-1967.31
-1614.27
-1323.68
-1085.42
-889.177
-726.492
-590.929
-477.707
-383.236
-304.728
-239.916
-186.877
-143.918
-109.527
-82.3361
-61.1211
-44.7936
-32.4028
-23.133
-16.2974
-11.3295
-7.77132
-5.25964
-3.51233
-2.3143
-1.50465
-0.965289
-0.611073
-0.381715
-0.235272
-0.143062
-0.0858002
-0.0507315
-0.0295551
-0.0169513
-0.00956235
-0.0052993
-0.0028815
-0.00153532
-0.000800558
-0.000408005
-0.000203015
-9.85268e-05
-4.65998e-05
-2.14651e-05
-9.62459e-06
-4.19935e-06
-1.78255e-06
-7.36078e-07
-2.95698e-07
-1.15568e-07
-4.39552e-08
-1.62711e-08
-5.84701e-09
-2.02401e-09
-6.99182e-10
-2.56842e-10
-6.47594e-11
2.19523e-12
1.09762e-12
5.48809e-12
-2.19523e-12
-4.39047e-12
1.09762e-12
2.19523e-12
-5.48809e-12
-2.19523e-12
4.39047e-12
0
-5.48809e-12
5.48809e-12
-3154.26
-2974.72
-2680.66
-2343.08
-2009.71
-1704.15
-1434.28
-1200.09
-998.43
-825.442
-677.514
-551.538
-444.877
-355.257
-280.651
-219.205
-169.191
-128.995
-97.1183
-72.1858
-52.9591
-38.3445
-27.3962
-19.3139
-13.4344
-9.2198
-6.24278
-4.17051
-2.74893
-1.78779
-1.14725
-0.726451
-0.453895
-0.279826
-0.170195
-0.1021
-0.0603882
-0.0351946
-0.0201958
-0.0113996
-0.00632228
-0.00344092
-0.00183539
-0.000958229
-0.000489056
-0.000243727
-0.000118486
-5.61419e-05
-2.59099e-05
-1.16407e-05
-5.08944e-06
-2.16491e-06
-8.95876e-07
-3.60654e-07
-1.41241e-07
-5.38217e-08
-1.99744e-08
-7.20586e-09
-2.50257e-09
-8.59435e-10
-2.97454e-10
-8.34189e-11
-9.87856e-12
0
-5.48809e-12
1.09762e-12
0
0
0
-1.09762e-11
-2.19523e-12
4.39047e-12
1.09762e-12
4.39047e-12
3.29285e-12
-2857.56
-2740.38
-2535.86
-2283.02
-2014.37
-1751.14
-1504.86
-1280.64
-1079.95
-902.45
-747.021
-612.214
-496.466
-398.156
-315.633
-247.224
-191.261
-146.103
-110.176
-82.0025
-60.2305
-43.6523
-31.215
-22.0223
-15.3281
-10.5254
-7.13033
-4.76553
-3.14235
-2.04436
-1.31231
-0.831198
-0.519479
-0.320339
-0.194887
-0.116946
-0.069193
-0.0403431
-0.0231625
-0.0130829
-0.00726193
-0.00395634
-0.00211286
-0.00110463
-0.000564666
-0.000281899
-0.000137303
-6.51896e-05
-3.01495e-05
-1.35754e-05
-5.9488e-06
-2.5363e-06
-1.05201e-06
-4.24526e-07
-1.6665e-07
-6.36355e-08
-2.3657e-08
-8.55483e-09
-3.00967e-09
-1.03944e-09
-3.53433e-10
-1.02078e-10
-1.86595e-11
-5.48809e-12
1.09762e-12
-1.09762e-12
0
0
0
0
0
-4.39047e-12
-1.09762e-12
0
5.48809e-12
-2658.89
-2575.08
-2422.76
-2224.5
-2002.18
-1772.91
-1548.39
-1335.84
-1139.35
-960.973
-801.5
-660.911
-538.643
-433.75
-345.006
-270.983
-210.127
-160.826
-121.477
-90.539
-66.5795
-48.3031
-34.5713
-24.409
-17.0008
-11.6809
-7.91724
-5.29392
-3.49221
-2.27281
-1.45944
-0.924665
-0.578054
-0.356555
-0.216979
-0.130242
-0.0770863
-0.0449647
-0.0258301
-0.0145999
-0.00811099
-0.00442363
-0.00236541
-0.00123849
-0.000634153
-0.000317176
-0.000154797
-7.36534e-05
-3.41409e-05
-1.54087e-05
-6.76838e-06
-2.8928e-06
-1.20285e-06
-4.86568e-07
-1.91477e-07
-7.32923e-08
-2.73153e-08
-9.92905e-09
-3.49701e-09
-1.1975e-09
-3.98435e-10
-1.29519e-10
-3.07333e-11
-3.29285e-12
0
-1.09762e-12
0
-1.20738e-11
0
1.31714e-11
1.09762e-12
-8.78094e-12
-8.78094e-12
4.39047e-12
1.09762e-11
-2522.62
-2457.85
-2337.03
-2174.1
-1984.17
-1780.71
-1574.36
-1372.94
-1181.84
-1004.59
-843.351
-699.194
-572.414
-462.675
-369.166
-290.72
-225.93
-173.245
-131.066
-97.8196
-72.0181
-52.302
-37.4666
-26.4737
-18.4515
-12.6853
-8.60261
-5.75493
-3.79793
-2.47272
-1.58834
-1.00665
-0.629482
-0.388381
-0.23641
-0.141947
-0.0840432
-0.0490436
-0.0281885
-0.0159439
-0.00886536
-0.00484023
-0.0025915
-0.0013589
-0.000696992
-0.000349265
-0.000170808
-8.14496e-05
-3.78417e-05
-1.71197e-05
-7.53832e-06
-3.22985e-06
-1.34633e-06
-5.45955e-07
-2.15349e-07
-8.26374e-08
-3.08826e-08
-1.12638e-08
-3.98216e-09
-1.36324e-09
-4.73073e-10
-1.72326e-10
-4.39047e-11
0
1.09762e-12
6.58571e-12
-1.09762e-12
-6.5857e-12
1.09762e-12
-1.09762e-12
0
1.09762e-12
0
-1.09762e-12
0
-2427.71
-2374.34
-2273.09
-2133.25
-1965.74
-1781.28
-1589.3
-1397.48
-1211.78
-1036.6
-874.952
-728.752
-598.953
-485.735
-388.658
-306.804
-238.916
-183.523
-139.051
-103.914
-76.5912
-55.6779
-39.9193
-28.2281
-19.6874
-13.543
-9.18914
-6.1502
-4.0605
-2.64467
-1.69937
-1.07734
-0.673876
-0.41588
-0.253215
-0.152079
-0.0900711
-0.052582
-0.0302377
-0.0171142
-0.00952402
-0.00520521
-0.00279038
-0.00146533
-0.000752829
-0.000377944
-0.000185206
-8.8505e-05
-4.12125e-05
-1.86881e-05
-8.24857e-06
-3.54269e-06
-1.48029e-06
-6.01702e-07
-2.37929e-07
-9.15413e-08
-3.42907e-08
-1.25271e-08
-4.44096e-09
-1.53447e-09
-5.24661e-10
-1.62447e-10
-5.59785e-11
-2.305e-11
0
1.64643e-11
1.09762e-12
-1.64643e-11
-1.09762e-12
2.19524e-12
5.48809e-12
-2.19524e-12
-5.48809e-12
0
0
-2360.99
-2314.7
-2225.9
-2101.29
-1949.24
-1778.53
-1597.51
-1413.5
-1232.64
-1059.76
-898.461
-751.208
-619.459
-503.801
-404.106
-319.675
-249.395
-191.876
-145.58
-108.924
-80.3679
-58.4771
-41.9603
-29.6927
-20.7221
-14.2628
-9.68248
-6.48333
-4.28219
-2.79007
-1.79339
-1.13728
-0.711558
-0.439243
-0.267503
-0.160701
-0.095205
-0.0555989
-0.0319872
-0.0181152
-0.0100888
-0.00551914
-0.00296211
-0.00155763
-0.000801503
-0.000403081
-0.000197899
-9.47625e-05
-4.422e-05
-2.0096e-05
-8.88984e-06
-3.82672e-06
-1.60258e-06
-6.52897e-07
-2.58757e-07
-9.97767e-08
-3.74628e-08
-1.37049e-08
-4.88001e-09
-1.68704e-09
-5.72956e-10
-1.98669e-10
-5.48809e-11
-2.19523e-12
1.09762e-12
1.09762e-12
1.09762e-12
-1.09762e-12
0
0
1.09762e-12
-6.5857e-12
0
5.48809e-12
0
-2313.86
-2272.07
-2191.35
-2076.89
-1935.47
-1774.59
-1601.72
-1423.83
-1247.02
-1076.34
-915.723
-768.025
-635.06
-517.728
-416.146
-329.802
-257.706
-198.548
-150.826
-112.97
-83.4329
-60.7582
-43.6296
-30.8944
-21.5735
-14.8567
-10.0904
-6.75938
-4.46623
-2.91099
-1.87169
-1.18726
-0.743011
-0.458762
-0.27945
-0.167915
-0.0995029
-0.0581264
-0.0334544
-0.0189558
-0.010564
-0.005784
-0.00310746
-0.00163607
-0.00084305
-0.000424643
-0.000208844
-0.000100187
-4.68413e-05
-2.13296e-05
-9.45466e-06
-4.07815e-06
-1.71138e-06
-6.98624e-07
-2.77421e-07
-1.07212e-07
-4.03309e-08
-1.47772e-08
-5.27405e-09
-1.81326e-09
-6.04787e-10
-2.19523e-10
-7.24428e-11
-2.19524e-12
-9.87856e-12
-2.08547e-11
8.78094e-12
2.19523e-11
0
0
0
0
-2.19524e-12
-3.29285e-12
5.48809e-12
-2280.53
-2241.66
-2166.24
-2058.58
-1924.48
-1770.55
-1603.66
-1430.42
-1256.85
-1088.08
-928.248
-780.452
-646.761
-528.302
-425.384
-337.641
-264.19
-203.788
-154.971
-116.185
-85.8785
-62.5858
-44.9718
-31.8639
-22.2623
-15.3385
-10.4222
-6.98433
-4.6165
-3.00988
-1.93582
-1.22825
-0.768835
-0.474801
-0.289272
-0.173848
-0.103039
-0.0602067
-0.0346626
-0.0196487
-0.0109562
-0.00600297
-0.00322793
-0.00170128
-0.000877714
-0.000442706
-0.000218052
-0.000104772
-4.90669e-05
-2.23817e-05
-9.93851e-06
-4.29449e-06
-1.80535e-06
-7.3827e-07
-2.93693e-07
-1.1369e-07
-4.28367e-08
-1.57201e-08
-5.60224e-09
-1.92961e-09
-6.67351e-10
-2.25012e-10
-6.14666e-11
-2.63428e-11
-4.39047e-12
9.87856e-12
3.29285e-12
3.29285e-12
1.09762e-12
0
-1.09762e-12
0
0
1.09762e-12
-1.09762e-12
-2256.97
-2220.02
-2148.11
-2045.04
-1915.96
-1766.92
-1604.34
-1434.57
-1263.51
-1096.32
-937.237
-789.524
-655.419
-536.216
-432.366
-343.616
-269.169
-207.838
-158.193
-118.696
-87.798
-64.0261
-46.0335
-32.6331
-22.8106
-15.7229
-10.6875
-7.16466
-4.73719
-3.08945
-1.9875
-1.26132
-0.789692
-0.487763
-0.297214
-0.178646
-0.105899
-0.0618885
-0.0356393
-0.0202087
-0.0112733
-0.00618019
-0.00332557
-0.00175423
-0.000905937
-0.000457456
-0.000225596
-0.00010854
-5.09031e-05
-2.32528e-05
-1.03405e-05
-4.47485e-06
-1.88396e-06
-7.7156e-07
-3.07376e-07
-1.19141e-07
-4.49562e-08
-1.65169e-08
-5.8986e-09
-2.03498e-09
-6.8162e-10
-2.38183e-10
-7.90285e-11
-1.09762e-12
1.31714e-11
2.19523e-12
-2.19523e-12
-1.09762e-12
1.09762e-12
-1.09762e-12
-4.39047e-12
-7.68332e-12
3.29285e-12
1.31714e-11
-3.29285e-12
-2240.38
-2204.69
-2135.14
-2035.15
-1909.52
-1763.89
-1604.39
-1437.16
-1267.99
-1102.05
-943.621
-796.068
-661.745
-542.06
-437.568
-348.104
-272.935
-210.92
-160.659
-120.627
-89.2805
-65.1429
-46.8596
-33.2337
-23.2398
-16.0247
-10.8963
-7.3069
-4.83257
-3.15245
-2.02848
-1.28758
-0.806265
-0.49807
-0.30353
-0.182461
-0.108171
-0.063224
-0.0364141
-0.0206527
-0.0115245
-0.00632053
-0.0034029
-0.0017962
-0.000928326
-0.000469176
-0.000231602
-0.000111548
-5.2372e-05
-2.39515e-05
-1.06638e-05
-4.62025e-06
-1.94748e-06
-7.98523e-07
-3.18499e-07
-1.23573e-07
-4.66597e-08
-1.71393e-08
-6.11922e-09
-2.14474e-09
-7.33208e-10
-2.40378e-10
-6.47594e-11
-5.48809e-12
4.39047e-12
0
-4.39047e-12
-1.09762e-12
0
-4.39047e-12
4.39047e-12
5.48809e-12
-4.39047e-12
1.09762e-12
-1.09762e-12
-2228.75
-2193.9
-2125.91
-2028.02
-1904.73
-1761.48
-1604.15
-1438.75
-1270.99
-1106
-948.11
-800.736
-666.31
-546.318
-441.391
-351.426
-275.741
-213.23
-162.517
-122.089
-90.4077
-65.9953
-47.4924
-33.6952
-23.5706
-16.2579
-11.0581
-7.41731
-4.90677
-3.20154
-2.06046
-1.30809
-0.819225
-0.506132
-0.30847
-0.185443
-0.109946
-0.0642657
-0.0370174
-0.0209977
-0.0117194
-0.00642917
-0.00346268
-0.00182861
-0.000945615
-0.000478227
-0.000236244
-0.000113875
-5.35097e-05
-2.44934e-05
-1.0915e-05
-4.73342e-06
-1.997e-06
-8.19556e-07
-3.27165e-07
-1.27048e-07
-4.80109e-08
-1.76233e-08
-6.27727e-09
-2.19084e-09
-7.57356e-10
-2.55745e-10
-8.45165e-11
-1.20738e-11
0
-8.78094e-12
0
-4.39047e-12
0
-6.58571e-12
-1.09762e-12
9.87856e-12
9.87856e-12
1.09762e-12
-8.78094e-12
-2220.64
-2186.36
-2119.41
-2022.92
-1901.24
-1759.62
-1603.81
-1439.72
-1272.97
-1108.7
-951.236
-804.03
-669.565
-549.382
-444.163
-353.852
-277.803
-214.937
-163.896
-123.179
-91.2518
-66.6359
-47.9696
-34.0443
-23.8216
-16.4353
-11.1814
-7.50168
-4.96357
-3.23918
-2.08502
-1.32387
-0.829198
-0.512339
-0.312272
-0.187737
-0.111308
-0.0650637
-0.0374783
-0.0212604
-0.0118673
-0.00651141
-0.00350779
-0.00185301
-0.000958601
-0.000485016
-0.000239722
-0.000115617
-5.4362e-05
-2.48996e-05
-1.11034e-05
-4.81833e-06
-2.0342e-06
-8.3537e-07
-3.33708e-07
-1.29679e-07
-4.90075e-08
-1.79998e-08
-6.43204e-09
-2.25121e-09
-7.74918e-10
-2.63428e-10
-8.67118e-11
-1.86595e-11
1.09762e-12
-5.48809e-12
-2.19523e-12
0
2.19523e-12
-6.5857e-12
-4.39047e-12
6.5857e-12
4.39047e-12
8.78094e-12
-7.68332e-12
-2215.03
-2181.12
-2114.87
-2019.33
-1898.73
-1758.23
-1603.48
-1440.29
-1274.28
-1110.53
-953.392
-806.33
-671.859
-551.559
-446.148
-355.6
-279.296
-216.179
-164.905
-123.98
-91.8744
-67.1102
-48.324
-34.3043
-24.0091
-16.5682
-11.274
-7.56516
-5.0064
-3.26762
-2.1036
-1.33581
-0.836753
-0.517041
-0.315151
-0.189471
-0.112337
-0.0656642
-0.037824
-0.0214567
-0.0119773
-0.00657226
-0.00354102
-0.0018709
-0.000968089
-0.00048996
-0.000242249
-0.000116881
-5.49791e-05
-2.51934e-05
-1.12396e-05
-4.8797e-06
-2.0611e-06
-8.4685e-07
-3.38436e-07
-1.31559e-07
-4.97704e-08
-1.83137e-08
-6.54729e-09
-2.28634e-09
-7.83699e-10
-2.43671e-10
-8.45165e-11
-3.62214e-11
0
0
-1.09762e-12
0
1.09762e-12
-1.4269e-11
4.39047e-12
9.87856e-12
-3.29285e-12
4.39047e-12
-1.09762e-12
-2211.17
-2177.51
-2111.73
-2016.82
-1896.95
-1757.21
-1603.18
-1440.63
-1275.14
-1111.76
-954.864
-807.918
-673.458
-553.088
-447.55
-356.842
-280.363
-217.072
-165.633
-124.56
-92.3269
-67.4561
-48.5834
-34.4952
-24.147
-16.6662
-11.3425
-7.61219
-5.03819
-3.28876
-2.11743
-1.34472
-0.842387
-0.520546
-0.317296
-0.190761
-0.1131
-0.0661084
-0.0380785
-0.0216005
-0.0120574
-0.00661631
-0.00356493
-0.0018837
-0.000974835
-0.000493458
-0.000244028
-0.000117768
-5.5411e-05
-2.53987e-05
-1.13345e-05
-4.92247e-06
-2.07983e-06
-8.5481e-07
-3.41722e-07
-1.32897e-07
-5.02917e-08
-1.84992e-08
-6.62083e-09
-2.31378e-09
-7.99066e-10
-2.79892e-10
-8.78094e-11
-1.4269e-11
1.09762e-12
8.78094e-12
0
-9.87856e-12
0
0
9.87856e-12
3.29285e-12
-1.4269e-11
-2.19523e-12
3.29285e-12
-2208.55
-2175.05
-2109.58
-2015.08
-1895.71
-1756.47
-1602.94
-1440.83
-1275.69
-1112.58
-955.86
-809.003
-674.559
-554.148
-448.528
-357.713
-281.116
-217.704
-166.151
-124.974
-92.651
-67.7046
-48.7703
-34.6331
-24.247
-16.7374
-11.3923
-7.64652
-5.06144
-3.30424
-2.12758
-1.35125
-0.846523
-0.52312
-0.318868
-0.191705
-0.113657
-0.0664312
-0.0382626
-0.0217039
-0.0121146
-0.00664753
-0.00358173
-0.00189262
-0.000979505
-0.000495863
-0.000245245
-0.000118371
-5.57035e-05
-2.55372e-05
-1.13985e-05
-4.9512e-06
-2.09236e-06
-8.60131e-07
-3.43923e-07
-1.33783e-07
-5.0632e-08
-1.86606e-08
-6.70425e-09
-2.3478e-09
-8.18823e-10
-2.73307e-10
-7.24428e-11
-2.19523e-11
-1.09762e-11
9.87856e-12
9.87856e-12
5.48809e-12
-1.09762e-12
-4.39047e-12
0
-1.09762e-12
0
0
1.09762e-12
-2206.77
-2173.38
-2108.11
-2013.9
-1894.85
-1755.96
-1602.75
-1440.94
-1276.05
-1113.13
-956.527
-809.736
-675.309
-554.874
-449.202
-358.316
-281.639
-218.145
-166.514
-125.266
-92.8799
-67.8807
-48.9031
-34.7314
-24.3184
-16.7884
-11.4281
-7.67121
-5.07819
-3.31542
-2.1349
-1.35597
-0.849514
-0.524979
-0.320003
-0.192385
-0.114056
-0.0666619
-0.0383935
-0.0217768
-0.0121546
-0.0066692
-0.00359329
-0.0018987
-0.000982658
-0.000497472
-0.000246052
-0.000118768
-5.58952e-05
-2.56275e-05
-1.144e-05
-4.96983e-06
-2.1005e-06
-8.63569e-07
-3.45329e-07
-1.3434e-07
-5.0857e-08
-1.87429e-08
-6.73279e-09
-2.36646e-09
-8.27604e-10
-2.93064e-10
-7.35404e-11
-7.68332e-12
-2.19523e-12
0
1.09762e-12
-1.09762e-12
0
-2.19524e-12
-2.19523e-12
6.58571e-12
-3.29285e-12
-7.68332e-12
8.78094e-12
-2205.59
-2172.26
-2107.13
-2013.1
-1894.26
-1755.6
-1602.61
-1441
-1276.27
-1113.48
-956.969
-810.226
-675.814
-555.366
-449.661
-358.729
-281.999
-218.449
-166.765
-125.468
-93.0393
-68.0037
-48.9961
-34.8004
-24.3687
-16.8243
-11.4534
-7.6887
-5.09007
-3.32336
-2.14012
-1.35934
-0.851644
-0.526303
-0.32081
-0.192867
-0.114339
-0.066824
-0.0384849
-0.0218274
-0.0121822
-0.00668395
-0.00360108
-0.00190276
-0.000984736
-0.000498522
-0.000246574
-0.000119023
-5.60171e-05
-2.56846e-05
-1.14661e-05
-4.98149e-06
-2.10557e-06
-8.65706e-07
-3.46229e-07
-1.34695e-07
-5.09843e-08
-1.87846e-08
-6.74486e-09
-2.37524e-09
-8.12237e-10
-2.82088e-10
-1.07567e-10
-1.09762e-11
1.64643e-11
0
1.09762e-12
0
0
-1.31714e-11
0
1.20738e-11
-3.29285e-12
1.09762e-12
2.19524e-12
-2204.8
-2171.52
-2106.48
-2012.57
-1893.87
-1755.35
-1602.51
-1441.03
-1276.42
-1113.71
-957.26
-810.551
-676.15
-555.695
-449.97
-359.008
-282.242
-218.656
-166.936
-125.607
-93.1488
-68.0884
-49.0603
-34.8481
-24.4036
-16.8494
-11.471
-7.70091
-5.09839
-3.32892
-2.14378
-1.3617
-0.853138
-0.52723
-0.321374
-0.193203
-0.114535
-0.0669361
-0.0385476
-0.0218619
-0.0122008
-0.00669382
-0.00360623
-0.0019054
-0.000986078
-0.000499192
-0.000246903
-0.000119182
-5.60924e-05
-2.57195e-05
-1.1482e-05
-4.98854e-06
-2.10862e-06
-8.6701e-07
-3.46763e-07
-1.34897e-07
-5.10601e-08
-1.88208e-08
-6.75145e-09
-2.36646e-09
-8.1992e-10
-2.84283e-10
-7.79308e-11
-7.68332e-12
-4.39047e-12
1.20738e-11
4.39047e-12
-1.09762e-11
-2.19523e-12
-1.09762e-12
2.19523e-12
0
0
-1.09762e-11
1.20738e-11
-2204.29
-2171.04
-2106.05
-2012.21
-1893.61
-1755.18
-1602.44
-1441.05
-1276.51
-1113.86
-957.448
-810.763
-676.371
-555.913
-450.174
-359.193
-282.405
-218.795
-167.051
-125.7
-93.2229
-68.1459
-49.104
-34.8807
-24.4274
-16.8665
-11.4831
-7.70931
-5.10412
-3.33276
-2.1463
-1.36333
-0.854171
-0.527871
-0.321763
-0.193434
-0.114669
-0.0670125
-0.0385901
-0.0218851
-0.0122132
-0.00670031
-0.00360958
-0.0019071
-0.000986926
-0.000499609
-0.000247106
-0.000119279
-5.61377e-05
-2.57404e-05
-1.14914e-05
-4.99267e-06
-2.1104e-06
-8.67772e-07
-3.47046e-07
-1.34999e-07
-5.1104e-08
-1.88219e-08
-6.75474e-09
-2.35219e-09
-8.13335e-10
-3.06235e-10
-9.43951e-11
-6.58571e-12
1.75619e-11
0
-1.4269e-11
0
1.09762e-12
-5.48809e-12
-2.19523e-12
6.58571e-12
-1.09762e-12
-1.09762e-12
2.19524e-12
-2203.95
-2170.72
-2105.77
-2011.98
-1893.43
-1755.07
-1602.39
-1441.06
-1276.56
-1113.95
-957.57
-810.901
-676.515
-556.056
-450.309
-359.316
-282.513
-218.887
-167.128
-125.762
-93.2724
-68.1843
-49.1333
-34.9026
-24.4435
-16.8781
-11.4913
-7.71501
-5.10802
-3.33538
-2.14802
-1.36444
-0.854875
-0.528307
-0.322027
-0.19359
-0.11476
-0.0670636
-0.0386184
-0.0219004
-0.0122213
-0.00670451
-0.00361172
-0.00190817
-0.000987453
-0.000499865
-0.000247228
-0.000119336
-5.61643e-05
-2.57525e-05
-1.14968e-05
-4.99504e-06
-2.1114e-06
-8.68175e-07
-3.47215e-07
-1.35068e-07
-5.11369e-08
-1.88406e-08
-6.76023e-09
-2.3478e-09
-8.01261e-10
-2.91966e-10
-8.8907e-11
-4.39047e-12
-4.39047e-12
-2.19524e-12
0
0
0
0
0
0
1.09762e-12
1.09762e-12
-2.19524e-12
-2203.74
-2170.52
-2105.59
-2011.83
-1893.32
-1755
-1602.36
-1441.06
-1276.6
-1114.01
-957.647
-810.989
-676.608
-556.147
-450.396
-359.395
-282.583
-218.948
-167.178
-125.803
-93.3049
-68.2097
-49.1527
-34.9171
-24.4541
-16.8858
-11.4968
-7.71882
-5.11062
-3.33713
-2.14918
-1.36519
-0.855347
-0.528599
-0.322204
-0.193695
-0.11482
-0.0670975
-0.038637
-0.0219103
-0.0122265
-0.00670718
-0.00361306
-0.00190884
-0.000987776
-0.000500019
-0.000247301
-0.00011937
-5.61796e-05
-2.57594e-05
-1.14999e-05
-4.99635e-06
-2.11195e-06
-8.68395e-07
-3.47323e-07
-1.35108e-07
-5.11215e-08
-1.88494e-08
-6.75913e-09
-2.35439e-09
-8.27604e-10
-2.86478e-10
-8.01261e-11
-1.53666e-11
-2.19523e-12
4.39047e-12
1.09762e-12
-3.29285e-12
0
0
2.19523e-12
0
-2.19523e-12
-5.48809e-12
5.48809e-12
-2203.6
-2170.39
-2105.47
-2011.74
-1893.25
-1754.95
-1602.34
-1441.06
-1276.62
-1114.05
-957.695
-811.045
-676.667
-556.206
-450.452
-359.446
-282.628
-218.987
-167.211
-125.83
-93.3261
-68.2262
-49.1653
-34.9266
-24.4611
-16.8908
-11.5004
-7.72133
-5.11235
-3.33829
-2.14995
-1.36568
-0.855661
-0.528793
-0.322321
-0.193764
-0.114859
-0.0671196
-0.038649
-0.0219167
-0.0122298
-0.00670887
-0.0036139
-0.00190925
-0.000987971
-0.000500111
-0.000247343
-0.000119389
-5.61883e-05
-2.57632e-05
-1.15015e-05
-4.99705e-06
-2.11225e-06
-8.68525e-07
-3.4737e-07
-1.35128e-07
-5.11292e-08
-1.88384e-08
-6.76132e-09
-2.35658e-09
-8.1992e-10
-2.88673e-10
-9.43951e-11
-1.86595e-11
5.48809e-12
1.09762e-12
0
2.19523e-12
-1.09762e-12
-6.58571e-12
0
2.19524e-12
-1.4269e-11
4.39047e-12
1.31714e-11
-2203.52
-2170.31
-2105.4
-2011.68
-1893.2
-1754.93
-1602.32
-1441.06
-1276.63
-1114.07
-957.726
-811.08
-676.704
-556.243
-450.487
-359.479
-282.657
-219.011
-167.232
-125.847
-93.3397
-68.2368
-49.1734
-34.9327
-24.4656
-16.8941
-11.5027
-7.72296
-5.11347
-3.33905
-2.15045
-1.36601
-0.855865
-0.528919
-0.322397
-0.193808
-0.114885
-0.0671338
-0.0386567
-0.0219208
-0.0122319
-0.00670992
-0.00361442
-0.00190949
-0.000988087
-0.000500165
-0.000247367
-0.0001194
-5.61932e-05
-2.57653e-05
-1.15024e-05
-4.99742e-06
-2.11242e-06
-8.6859e-07
-3.47394e-07
-1.35145e-07
-5.11402e-08
-1.88263e-08
-6.75364e-09
-2.35878e-09
-8.16627e-10
-2.98552e-10
-9.98832e-11
-2.19524e-12
1.86595e-11
0
-1.09762e-12
1.09762e-12
0
0
0
0
0
8.78094e-12
-8.78094e-12
-2203.47
-2170.26
-2105.36
-2011.64
-1893.18
-1754.91
-1602.31
-1441.06
-1276.64
-1114.09
-957.745
-811.102
-676.727
-556.266
-450.509
-359.499
-282.675
-219.027
-167.245
-125.858
-93.3482
-68.2435
-49.1786
-34.9366
-24.4685
-16.8962
-11.5042
-7.724
-5.11418
-3.33953
-2.15077
-1.36621
-0.855997
-0.529001
-0.322446
-0.193837
-0.114901
-0.0671428
-0.0386616
-0.0219233
-0.0122332
-0.00671057
-0.00361473
-0.00190964
-0.000988156
-0.000500196
-0.000247381
-0.000119406
-5.61958e-05
-2.57665e-05
-1.15029e-05
-4.99761e-06
-2.11248e-06
-8.68623e-07
-3.47419e-07
-1.35153e-07
-5.11545e-08
-1.88406e-08
-6.75145e-09
-2.35768e-09
-7.99066e-10
-2.8099e-10
-8.8907e-11
-4.39047e-12
-3.29285e-12
0
3.29285e-12
9.87856e-12
3.29285e-12
-8.78094e-12
-2.41476e-11
-1.09762e-12
1.64643e-11
2.19523e-12
2.19523e-12
-2203.43
-2170.23
-2105.33
-2011.62
-1893.16
-1754.89
-1602.31
-1441.06
-1276.64
-1114.1
-957.756
-811.115
-676.741
-556.281
-450.523
-359.512
-282.686
-219.036
-167.253
-125.864
-93.3535
-68.2477
-49.1818
-34.939
-24.4703
-16.8975
-11.5051
-7.72465
-5.11463
-3.33984
-2.15097
-1.36634
-0.856081
-0.529052
-0.322477
-0.193855
-0.114911
-0.0671485
-0.0386646
-0.0219249
-0.012234
-0.00671096
-0.00361492
-0.00190973
-0.000988197
-0.000500214
-0.000247389
-0.00011941
-5.61973e-05
-2.57671e-05
-1.15032e-05
-4.99772e-06
-2.11253e-06
-8.68647e-07
-3.47411e-07
-1.35152e-07
-5.11621e-08
-1.88439e-08
-6.75584e-09
-2.35988e-09
-7.88089e-10
-2.73307e-10
-8.01261e-11
-1.09762e-12
0
0
9.87856e-12
2.19523e-12
-9.87856e-12
-6.58571e-12
-1.09762e-12
5.48809e-12
0
0
0
-2203.41
-2170.21
-2105.31
-2011.6
-1893.15
-1754.89
-1602.31
-1441.06
-1276.65
-1114.1
-957.763
-811.123
-676.75
-556.289
-450.531
-359.519
-282.693
-219.042
-167.258
-125.868
-93.3568
-68.2502
-49.1837
-34.9405
-24.4714
-16.8983
-11.5057
-7.72505
-5.11491
-3.34003
-2.1511
-1.36643
-0.856133
-0.529084
-0.322496
-0.193866
-0.114918
-0.067152
-0.0386665
-0.0219259
-0.0122345
-0.0067112
-0.00361503
-0.00190978
-0.00098822
-0.000500225
-0.000247394
-0.000119412
-5.61981e-05
-2.57674e-05
-1.15033e-05
-4.99779e-06
-2.11253e-06
-8.68615e-07
-3.474e-07
-1.35165e-07
-5.11863e-08
-1.88626e-08
-6.74705e-09
-2.36756e-09
-8.05651e-10
-2.55745e-10
-5.59785e-11
2.19524e-12
0
0
1.09762e-12
-1.09762e-12
7.68332e-12
1.09762e-12
-4.39047e-12
0
-2.19524e-12
0
-2.19524e-12
-2203.4
-2170.2
-2105.3
-2011.59
-1893.14
-1754.88
-1602.3
-1441.06
-1276.65
-1114.1
-957.767
-811.128
-676.755
-556.294
-450.536
-359.524
-282.697
-219.046
-167.261
-125.871
-93.3587
-68.2518
-49.1849
-34.9413
-24.472
-16.8987
-11.506
-7.7253
-5.11508
-3.34014
-2.15117
-1.36648
-0.856165
-0.529104
-0.322508
-0.193873
-0.114922
-0.0671541
-0.0386676
-0.0219265
-0.0122348
-0.00671134
-0.0036151
-0.00190981
-0.000988234
-0.000500231
-0.000247396
-0.000119413
-5.61985e-05
-2.57675e-05
-1.15034e-05
-4.99781e-06
-2.11253e-06
-8.68624e-07
-3.4741e-07
-1.35161e-07
-5.11929e-08
-1.88735e-08
-6.75145e-09
-2.34561e-09
-7.83699e-10
-2.59038e-10
-7.02475e-11
0
-7.68332e-12
0
1.4269e-11
0
-4.39047e-12
-7.68332e-12
-1.09762e-12
-1.09762e-12
0
1.64643e-11
-6.5857e-12
-2203.39
-2170.19
-2105.3
-2011.59
-1893.14
-1754.88
-1602.3
-1441.06
-1276.65
-1114.11
-957.77
-811.131
-676.758
-556.298
-450.539
-359.527
-282.7
-219.048
-167.263
-125.872
-93.3599
-68.2527
-49.1856
-34.9419
-24.4724
-16.899
-11.5062
-7.72544
-5.11518
-3.34021
-2.15122
-1.36651
-0.856184
-0.529116
-0.322515
-0.193877
-0.114924
-0.0671554
-0.0386683
-0.0219268
-0.0122349
-0.00671142
-0.00361514
-0.00190983
-0.000988242
-0.000500234
-0.000247398
-0.000119413
-5.61987e-05
-2.57677e-05
-1.15034e-05
-4.9978e-06
-2.11255e-06
-8.68638e-07
-3.47409e-07
-1.35155e-07
-5.11896e-08
-1.88669e-08
-6.74705e-09
-2.35549e-09
-7.95773e-10
-2.59038e-10
-7.90285e-11
-3.29285e-12
6.5857e-12
0
1.09762e-12
0
-1.09762e-12
-1.31714e-11
0
6.58571e-12
-4.39047e-12
6.5857e-12
4.39047e-12
-2203.39
-2170.19
-2105.29
-2011.59
-1893.13
-1754.88
-1602.3
-1441.06
-1276.65
-1114.11
-957.771
-811.132
-676.76
-556.299
-450.541
-359.528
-282.701
-219.049
-167.264
-125.873
-93.3605
-68.2532
-49.186
-34.9422
-24.4726
-16.8992
-11.5064
-7.72552
-5.11524
-3.34025
-2.15125
-1.36652
-0.856195
-0.529123
-0.322519
-0.19388
-0.114925
-0.0671561
-0.0386687
-0.021927
-0.012235
-0.00671147
-0.00361516
-0.00190984
-0.000988246
-0.000500236
-0.000247399
-0.000119413
-5.61988e-05
-2.57677e-05
-1.15034e-05
-4.99782e-06
-2.11257e-06
-8.68644e-07
-3.4741e-07
-1.35172e-07
-5.11775e-08
-1.88296e-08
-6.73388e-09
-2.3511e-09
-7.90285e-10
-2.68916e-10
-9.11023e-11
-1.86595e-11
1.09762e-12
-3.29285e-12
4.39047e-12
4.39047e-12
1.09762e-12
-2.19524e-12
-5.48809e-12
1.09762e-12
1.09762e-12
-1.09762e-12
0
-2203.39
-2170.19
-2105.29
-2011.59
-1893.13
-1754.88
-1602.3
-1441.06
-1276.65
-1114.11
-957.772
-811.133
-676.761
-556.3
-450.542
-359.529
-282.702
-219.05
-167.264
-125.873
-93.3609
-68.2535
-49.1862
-34.9423
-24.4727
-16.8993
-11.5064
-7.72557
-5.11527
-3.34027
-2.15126
-1.36653
-0.856201
-0.529127
-0.322522
-0.193881
-0.114926
-0.0671566
-0.0386689
-0.0219271
-0.0122351
-0.0067115
-0.00361517
-0.00190985
-0.000988249
-0.000500237
-0.000247399
-0.000119414
-5.61989e-05
-2.57677e-05
-1.15034e-05
-4.99781e-06
-2.11257e-06
-8.68654e-07
-3.47438e-07
-1.35176e-07
-5.11567e-08
-1.8834e-08
-6.75035e-09
-2.35549e-09
-7.9687e-10
-2.75502e-10
-8.56142e-11
-8.78094e-12
7.68332e-12
4.39047e-12
1.31714e-11
0
-1.31714e-11
8.78094e-12
1.31714e-11
-1.09762e-11
-1.09762e-11
-1.09762e-12
1.09762e-12
-2203.39
-2170.19
-2105.29
-2011.58
-1893.13
-1754.88
-1602.3
-1441.06
-1276.65
-1114.11
-957.773
-811.134
-676.761
-556.301
-450.543
-359.53
-282.702
-219.05
-167.264
-125.874
-93.3611
-68.2536
-49.1863
-34.9424
-24.4728
-16.8993
-11.5065
-7.7256
-5.11529
-3.34029
-2.15127
-1.36654
-0.856205
-0.529129
-0.322523
-0.193882
-0.114927
-0.0671568
-0.0386691
-0.0219272
-0.0122351
-0.00671151
-0.00361518
-0.00190985
-0.00098825
-0.000500237
-0.000247399
-0.000119414
-5.6199e-05
-2.57677e-05
-1.15034e-05
-4.99781e-06
-2.11256e-06
-8.68663e-07
-3.47441e-07
-1.35179e-07
-5.11709e-08
-1.88472e-08
-6.76023e-09
-2.35768e-09
-7.91382e-10
-2.60135e-10
-8.67118e-11
-2.74404e-11
0
4.39047e-12
0
-1.09762e-12
-8.78094e-12
-6.58571e-12
1.53666e-11
5.48809e-12
-8.78094e-12
0
3.29285e-12
-2203.38
-2170.19
-2105.29
-2011.58
-1893.13
-1754.88
-1602.3
-1441.06
-1276.65
-1114.11
-957.773
-811.134
-676.762
-556.301
-450.543
-359.53
-282.703
-219.051
-167.265
-125.874
-93.3613
-68.2537
-49.1864
-34.9425
-24.4729
-16.8994
-11.5065
-7.72561
-5.1153
-3.34029
-2.15127
-1.36654
-0.856207
-0.52913
-0.322524
-0.193882
-0.114927
-0.0671569
-0.0386691
-0.0219272
-0.0122351
-0.00671152
-0.00361518
-0.00190985
-0.000988251
-0.000500238
-0.000247399
-0.000119414
-5.6199e-05
-2.57677e-05
-1.15034e-05
-4.99782e-06
-2.11259e-06
-8.68696e-07
-3.47452e-07
-1.35154e-07
-5.11567e-08
-1.88428e-08
-6.76352e-09
-2.37524e-09
-8.07846e-10
-2.72209e-10
-7.57356e-11
-5.48809e-12
0
0
0
1.09762e-12
-1.09762e-12
-7.68332e-12
1.09762e-12
7.68332e-12
-8.78094e-12
0
7.68332e-12
-2203.38
-2170.18
-2105.29
-2011.58
-1893.13
-1754.88
-1602.3
-1441.06
-1276.65
-1114.11
-957.773
-811.135
-676.762
-556.302
-450.543
-359.53
-282.703
-219.051
-167.265
-125.874
-93.3613
-68.2538
-49.1864
-34.9425
-24.4729
-16.8994
-11.5065
-7.72562
-5.11531
-3.3403
-2.15128
-1.36655
-0.856208
-0.529131
-0.322524
-0.193883
-0.114927
-0.067157
-0.0386692
-0.0219272
-0.0122352
-0.00671153
-0.00361518
-0.00190985
-0.000988251
-0.000500238
-0.000247399
-0.000119414
-5.6199e-05
-2.57677e-05
-1.15034e-05
-4.99782e-06
-2.1126e-06
-8.68689e-07
-3.4746e-07
-1.35162e-07