/*--------------------------------*- C++ -*----------------------------------*\
  =========                 |
  \\      /  F ield         | OpenFOAM: The Open Source CFD Toolbox
   \\    /   O peration     | Website:  https://openfoam.org
    \\  /    A nd           | Version:  10
     \\/     M anipulation  |
\*---------------------------------------------------------------------------*/
FoamFile
{
    format      ascii;
    class       volScalarField;
    location    "299";
    object      gradTx;
}
// * * * * * * * * * * * * * * * * * * * * * * * * * * * * * * * * * * * * * //

dimensions      [0 -1 0 1 0 0 0];

internalField   nonuniform List<scalar> 
11250
(
14297.3
8096.42
5297.83
3810.54
2908.29
2304.04
1869.43
1540.42
1281.98
1073.52
902.115
759.258
639.074
537.345
450.928
377.401
314.837
261.668
216.582
178.467
146.364
119.439
96.9627
78.2948
62.873
50.2041
39.8573
31.4576
24.6804
19.2466
14.9177
11.4912
8.79678
6.692
5.05874
3.79986
2.83607
2.10319
1.54967
1.13446
0.825133
0.596256
0.428065
0.305315
0.216344
0.152299
0.106511
0.0740019
0.051078
0.035024
0.0238581
0.0161452
0.0108539
0.00724869
0.00480909
0.00316952
0.00207514
0.00134966
0.000872001
0.000559658
0.000356811
0.000225973
0.000142158
8.88335e-05
5.51398e-05
3.39957e-05
2.08179e-05
1.26607e-05
7.645e-06
4.58024e-06
2.71688e-06
1.58535e-06
8.91607e-07
4.49608e-07
1.36646e-07
4093.18
4695.31
3988.47
3228.17
2613.58
2138.3
1768.25
1474.66
1237.17
1041.84
879.09
742.154
626.153
527.458
443.288
371.453
310.183
258.013
213.705
176.2
144.578
118.033
95.8581
77.4287
62.1957
49.6761
39.4472
31.1403
24.436
19.0592
14.7746
11.3826
8.7147
6.6303
5.01262
3.76558
2.81073
2.08456
1.53606
1.12458
0.817995
0.591132
0.42441
0.302724
0.214519
0.15102
0.105622
0.0733868
0.0506553
0.0347354
0.0236624
0.0160132
0.0107655
0.00718986
0.00477019
0.00314397
0.00205847
0.00133884
0.000865033
0.000555199
0.000353976
0.000224182
0.000141034
8.81334e-05
5.47064e-05
3.37292e-05
2.0655e-05
1.25619e-05
7.58555e-06
4.54473e-06
2.69586e-06
1.57313e-06
8.84803e-07
4.46169e-07
1.35626e-07
1473.68
2604.34
2734.51
2502.7
2182.87
1871.21
1594.98
1357.59
1155.29
982.938
835.727
709.642
601.422
508.431
428.523
359.921
301.134
250.89
208.089
171.769
141.082
115.279
93.6913
75.7282
60.8649
48.6382
38.6406
30.516
23.9549
18.6901
14.4928
11.1685
8.55288
6.50865
4.92166
3.69794
2.76072
2.0478
1.50919
1.10506
0.803899
0.581014
0.417191
0.297606
0.210912
0.148494
0.103864
0.0721711
0.0498199
0.0341649
0.0232753
0.0157523
0.0105907
0.0070735
0.00469324
0.00309341
0.00202546
0.00131744
0.000851245
0.000546374
0.000348364
0.000220637
0.00013881
8.67469e-05
5.38479e-05
3.32013e-05
2.03326e-05
1.23663e-05
7.46771e-06
4.47432e-06
2.65424e-06
1.5489e-06
8.71188e-07
4.39302e-07
1.3355e-07
671.273
1515.01
1844.4
1867.87
1747.21
1572.5
1387.18
1210.14
1048.52
904.151
776.636
664.711
566.873
481.628
407.584
343.479
288.176
240.655
199.995
165.366
136.022
111.284
90.544
73.255
58.9274
47.1255
37.4641
29.6047
23.252
18.1506
14.0807
10.8552
8.31602
6.3305
4.78841
3.59883
2.68742
1.9939
1.46979
1.07643
0.783218
0.566166
0.406596
0.290092
0.205616
0.144785
0.101282
0.0703853
0.0485925
0.0333267
0.0227064
0.0153687
0.0103337
0.00690247
0.00458013
0.00301908
0.00197694
0.00128597
0.000830968
0.000533394
0.00034011
0.000215423
0.000135538
8.47072e-05
5.25849e-05
3.24245e-05
1.9858e-05
1.20784e-05
7.29428e-06
4.37068e-06
2.59289e-06
1.51319e-06
8.51134e-07
4.29226e-07
1.30464e-07
368.055
941.146
1262.08
1379.7
1368.77
1288.13
1175.31
1051.88
929.41
813.662
707.235
611.02
525.026
448.811
381.726
323.032
271.97
227.793
189.783
157.263
129.598
106.201
86.5314
70.0964
56.449
45.1879
35.9553
28.4348
22.349
17.4568
13.5503
10.4518
8.01082
6.10084
4.61654
3.47093
2.59279
1.92429
1.41889
1.03943
0.756486
0.546969
0.392894
0.280372
0.198764
0.139985
0.0979404
0.0680736
0.0470034
0.0322413
0.0219698
0.0148719
0.0100009
0.00668087
0.00443356
0.00292276
0.00191405
0.00124518
0.000804681
0.000516565
0.000329407
0.000208661
0.000131294
8.20615e-05
5.09466e-05
3.14167e-05
1.92423e-05
1.17048e-05
7.06925e-06
4.23616e-06
2.51329e-06
1.46683e-06
8.25109e-07
4.16139e-07
1.26504e-07
228.226
620.536
884.881
1022.53
1063.13
1039.55
978.133
897.158
808.358
718.849
632.745
552.28
478.535
411.9
352.348
299.61
253.279
212.874
177.882
147.78
122.055
100.215
81.794
66.359
53.5109
42.8871
34.161
27.0417
21.2724
16.6289
12.9168
9.96958
7.64571
5.82591
4.41067
3.31765
2.47933
1.84079
1.35781
0.995008
0.724379
0.523904
0.376426
0.268687
0.190525
0.134211
0.0939201
0.0652918
0.0450908
0.0309346
0.0210828
0.0142737
0.00959994
0.00641392
0.00425696
0.0028067
0.00183826
0.00119601
0.000772992
0.000496276
0.000316502
0.000200507
0.000126176
7.88702e-05
4.897e-05
3.02008e-05
1.84994e-05
1.1254e-05
6.79763e-06
4.07381e-06
2.41723e-06
1.41089e-06
7.93705e-07
4.00315e-07
1.21704e-07
152.893
428.947
636.104
764.801
824.625
832.308
804.45
754.574
692.621
625.443
557.554
491.799
429.886
372.758
320.85
274.267
232.9
196.504
164.752
137.269
113.662
93.5312
76.4888
62.1628
50.2048
40.293
32.1345
25.4659
20.053
15.6899
12.1975
9.42155
7.2304
5.51293
4.17614
3.14292
2.3499
1.74549
1.28805
0.94426
0.687684
0.497532
0.357591
0.255318
0.181094
0.127601
0.0893161
0.0621053
0.0428994
0.0294371
0.020066
0.0135878
0.00914019
0.00610774
0.00405438
0.00267352
0.00175129
0.00113958
0.000736617
0.000472982
0.000301683
0.000191142
0.000120297
7.52041e-05
4.66992e-05
2.88036e-05
1.76455e-05
1.07358e-05
6.48537e-06
3.88714e-06
2.30675e-06
1.34656e-06
7.57596e-07
3.82118e-07
1.16164e-07
107.633
307.263
467.445
578.209
641.094
663.938
656.553
628.194
586.513
537.353
484.949
432.24
381.187
333.035
288.515
247.998
211.604
179.278
150.853
126.087
104.693
86.362
70.7794
57.634
46.6275
37.4799
29.9326
23.7507
18.7236
14.6649
11.4114
8.82185
6.77547
5.16978
3.91879
2.95103
2.20767
1.6407
1.2113
0.888394
0.647267
0.468473
0.336826
0.240574
0.17069
0.120306
0.0842333
0.0585863
0.0404786
0.0277825
0.0189423
0.0128295
0.00863182
0.00576912
0.00383028
0.00252618
0.00165504
0.00107712
0.000696347
0.00044719
0.000285273
0.000180769
0.000113784
7.11421e-05
4.41825e-05
2.72549e-05
1.6699e-05
1.01612e-05
6.13907e-06
3.68004e-06
2.1841e-06
1.27514e-06
7.17524e-07
3.61936e-07
1.1003e-07
78.3318
225.988
349.776
441.652
500.29
528.964
533.205
519.053
492.064
456.877
417.13
375.546
334.08
294.083
256.438
221.68
190.086
161.746
136.619
114.572
95.4141
78.9151
64.8277
52.8982
42.8764
34.5229
27.613
21.9403
17.3181
13.5794
10.5777
8.18511
6.29191
4.80465
3.64469
2.74648
2.05593
1.52882
1.12931
0.828675
0.604038
0.437375
0.314595
0.224781
0.159542
0.112486
0.0787825
0.0548113
0.0378809
0.0260064
0.0177357
0.0120151
0.00808568
0.00540524
0.00358941
0.00236777
0.00155155
0.00100994
0.000653028
0.00041944
0.000267612
0.000169605
0.000106773
6.67682e-05
4.14722e-05
2.55867e-05
1.56791e-05
9.54203e-06
5.76581e-06
3.45677e-06
2.05189e-06
1.19813e-06
6.74268e-07
3.40174e-07
1.03436e-07
58.341
169.483
265.501
340.364
391.982
421.407
431.62
426.44
409.753
385.078
355.372
322.993
289.738
256.928
225.489
196.035
168.939
144.388
122.435
103.035
86.0711
71.3843
58.7862
48.0749
39.0447
31.4944
25.2318
20.078
15.8695
12.4589
9.71573
7.52587
5.79062
4.4257
3.35993
2.53378
1.89801
1.41228
1.04385
0.766383
0.558919
0.404898
0.291366
0.20827
0.147881
0.104303
0.0730767
0.0508582
0.0351596
0.0241451
0.0164709
0.0111611
0.00751284
0.00502348
0.00333664
0.0022015
0.00144288
0.000939391
0.000607524
0.000390283
0.000249053
0.000157869
9.94016e-05
6.21688e-05
3.86216e-05
2.38318e-05
1.4606e-05
8.89037e-06
5.3729e-06
3.22173e-06
1.91268e-06
1.11698e-06
6.28663e-07
3.17217e-07
9.64696e-08
44.1741
128.947
203.769
264.22
308.236
335.85
348.581
348.785
339.114
322.16
300.237
275.298
248.91
222.283
196.31
171.622
148.637
127.6
108.628
91.7389
76.8782
63.9416
52.792
43.2727
35.218
28.4615
22.8413
18.2043
14.4091
11.3271
8.84376
6.85799
5.28208
4.04081
3.07037
2.31727
1.73711
1.29345
0.956628
0.702766
0.512808
0.371687
0.267597
0.191367
0.135937
0.0959172
0.0672268
0.0468036
0.0323674
0.0222346
0.0151722
0.010284
0.00692426
0.0046311
0.00307676
0.0020305
0.00133111
0.000866802
0.000560693
0.000360269
0.000229944
0.000145783
9.18082e-05
5.74299e-05
3.56838e-05
2.20227e-05
1.34996e-05
8.21831e-06
4.96759e-06
2.97921e-06
1.76897e-06
1.03321e-06
5.81611e-07
2.93479e-07
8.92418e-08
33.8459
99.1448
157.696
206.272
243.091
267.764
280.995
284.206
279.18
267.783
251.785
232.751
211.998
190.585
169.33
148.838
129.533
111.687
95.4565
80.9017
68.0138
56.7327
46.9629
38.5861
31.4716
25.4837
20.4881
16.3556
12.9652
10.2061
7.97855
6.19424
4.77597
3.65725
2.78148
2.10102
1.57625
1.17453
0.869271
0.638998
0.466555
0.338351
0.243723
0.17438
0.123927
0.0874805
0.0613385
0.0427205
0.0295543
0.0203091
0.0138627
0.00939929
0.00633042
0.00423509
0.0028144
0.00185782
0.00121819
0.000793455
0.000513361
0.000329925
0.00021062
0.000133558
8.41256e-05
5.2634e-05
3.271e-05
2.01911e-05
1.23791e-05
7.53752e-06
4.55691e-06
2.7334e-06
1.62328e-06
9.48291e-07
5.33884e-07
2.69411e-07
8.19328e-08
26.1532
76.8129
122.785
161.705
192.12
213.504
226.124
230.818
228.767
221.3
209.745
195.331
179.132
162.048
144.798
127.937
111.868
96.8696
83.1139
70.6893
59.6185
49.8745
41.395
34.0934
27.8684
22.6115
18.2124
14.5634
11.5624
9.11482
7.13484
5.54593
4.2809
3.28155
2.49815
1.88869
1.41813
1.05753
0.783245
0.576149
0.420932
0.305445
0.220143
0.15759
0.11205
0.0791325
0.0555092
0.0386763
0.0267668
0.0184003
0.0125641
0.00852156
0.00574104
0.00384191
0.00255383
0.00168626
0.00110598
0.000720541
0.000466294
0.000299744
0.000191394
0.000121392
7.6478e-05
4.78588e-05
2.97481e-05
1.83664e-05
1.12626e-05
6.85894e-06
4.14745e-06
2.48825e-06
1.47796e-06
8.63538e-07
4.86247e-07
2.45438e-07
7.46676e-08
20.3293
59.8296
96.0093
127.128
152.032
170.192
181.646
186.874
186.653
181.918
173.655
162.811
150.249
136.712
122.816
109.051
95.7858
83.2871
71.7309
61.2191
51.7948
43.4549
36.1623
29.8558
24.4588
19.8855
16.0468
12.8538
10.2213
8.06943
6.3251
4.92269
3.80424
2.9193
2.22461
1.68345
1.26513
0.944197
0.699834
0.515158
0.376622
0.273462
0.197206
0.141248
0.100482
0.0709975
0.0498255
0.0347311
0.0240462
0.0165364
0.0112955
0.00766379
0.00516484
0.00345739
0.0022989
0.00151836
0.000996125
0.000649137
0.000420189
0.00027017
0.000172549
0.000109464
6.89779e-05
4.31743e-05
2.68419e-05
1.65754e-05
1.01663e-05
6.19252e-06
3.74519e-06
2.24734e-06
1.33514e-06
7.80269e-07
4.39451e-07
2.2185e-07
6.74826e-08
15.8652
46.7667
75.2798
100.115
120.369
135.565
145.632
150.83
151.668
148.799
142.949
134.839
125.152
114.491
103.371
92.2126
81.3451
71.0121
61.3831
52.5644
44.6104
37.534
31.317
25.918
21.28
17.3366
14.0164
11.247
8.95803
7.08268
5.55933
4.33227
3.35196
2.57509
1.96434
1.48793
1.1192
0.835988
0.620118
0.456814
0.334198
0.242816
0.175213
0.125567
0.0893751
0.0631818
0.0443617
0.0309365
0.0214282
0.0147419
0.0100736
0.00683721
0.00460937
0.00308655
0.00205296
0.00135632
0.000890067
0.000580179
0.000375648
0.000241591
0.000154333
9.79304e-05
6.17237e-05
3.86421e-05
2.40292e-05
1.48416e-05
9.10473e-06
5.54704e-06
3.35548e-06
2.0139e-06
1.19669e-06
6.99489e-07
3.94015e-07
1.98942e-07
6.05062e-08
12.4113
36.6329
59.1155
78.8985
95.2802
107.854
116.502
121.357
122.746
121.127
117.028
110.996
103.563
95.2113
86.3659
77.3807
68.5398
60.0605
52.0993
44.7599
38.1015
32.1471
26.8916
22.3087
18.3571
14.9859
12.1388
9.75755
7.78436
6.16402
4.84506
3.78059
2.92868
2.25247
1.72005
1.30418
0.981892
0.734064
0.544955
0.401751
0.294125
0.213844
0.154404
0.110721
0.0788519
0.0557721
0.0391787
0.0273349
0.0189419
0.013037
0.00891209
0.00605114
0.00408088
0.0027336
0.00181878
0.00120198
0.00078901
0.000514449
0.000333178
0.000214332
0.000136953
8.69225e-05
5.47982e-05
3.4314e-05
2.13424e-05
1.31849e-05
8.09008e-06
4.92988e-06
2.98277e-06
1.79057e-06
1.06421e-06
6.22141e-07
3.50491e-07
1.76985e-07
5.38502e-08
9.72067
28.7218
46.4445
62.1699
75.3556
85.6649
92.9686
97.3248
98.9424
98.1394
95.2999
90.8361
85.1574
78.6479
71.6505
64.4589
57.3139
50.4042
43.8701
37.8083
32.278
27.3077
22.9011
19.0428
15.7039
12.8459
10.425
8.39465
6.708
5.31978
4.1874
3.27174
2.53762
1.95396
1.49371
1.13371
0.854353
0.639282
0.474987
0.350443
0.256751
0.1868
0.134966
0.0968409
0.0690071
0.0488355
0.0343236
0.0239591
0.0166103
0.0114372
0.00782172
0.00531287
0.00358432
0.00240181
0.00159856
0.00105678
0.000693905
0.000452569
0.000293183
0.000188652
0.000120575
7.65458e-05
4.82677e-05
3.02315e-05
1.88073e-05
1.16212e-05
7.13214e-06
4.34704e-06
2.63066e-06
1.5795e-06
9.38934e-07
5.49034e-07
3.09353e-07
1.56201e-07
4.75137e-08
7.6145
22.5184
36.4756
48.946
59.5116
67.8991
73.9852
77.7854
79.4319
79.1451
77.2036
73.9157
69.5957
64.5448
59.0378
53.3146
47.576
41.9828
36.6574
31.687
27.1282
23.0113
19.3454
16.1231
13.3246
10.9214
8.87974
7.16277
5.73294
4.55342
3.58926
2.80812
2.18074
1.68112
1.28654
0.977469
0.737322
0.552211
0.410641
0.303211
0.222314
0.16186
0.117024
0.0840206
0.0599072
0.0424195
0.02983
0.0208329
0.0144498
0.00995403
0.00681029
0.00462772
0.00312328
0.00209363
0.00139393
0.000921793
0.00060546
0.000395
0.00025596
0.000164745
0.000105322
6.6879e-05
4.2182e-05
2.64258e-05
1.64434e-05
1.01627e-05
6.23836e-06
3.80308e-06
2.30193e-06
1.3824e-06
8.21939e-07
4.80698e-07
2.709e-07
1.36783e-07
4.16008e-08
5.96053
17.64
28.6146
38.4774
46.9068
53.6842
58.6995
61.9457
63.5052
63.5304
62.2228
59.8123
56.5386
52.6363
48.3234
43.7935
39.2117
34.7128
30.4016
26.3547
22.6239
19.2392
16.2127
13.5424
11.2152
9.21054
7.50245
6.06221
4.8599
3.86584
3.05159
2.39064
1.85885
1.43465
1.09913
0.835944
0.631181
0.47315
0.352153
0.260236
0.190951
0.139126
0.100656
0.0723152
0.0515925
0.036553
0.0257185
0.0179707
0.0124707
0.00859463
0.00588278
0.00399911
0.00270008
0.00181062
0.00120592
0.000797732
0.000524138
0.000342049
0.000221711
0.00014274
9.12773e-05
5.79752e-05
3.65748e-05
2.29183e-05
1.4264e-05
8.81764e-06
5.41379e-06
3.30105e-06
1.99848e-06
1.20042e-06
7.13883e-07
4.17545e-07
2.35348e-07
1.1887e-07
3.615e-08
4.6593
13.7977
22.409
30.1863
36.8825
42.3246
46.4182
49.1455
50.5568
50.7574
49.8927
48.1336
45.6621
42.6596
39.2976
35.7308
32.0936
28.497
25.0293
21.7567
18.7249
15.9623
13.4822
11.2859
9.36556
7.70623
6.28842
5.08984
4.08688
3.2558
2.57366
2.01889
1.57175
1.21449
0.931484
0.709178
0.53599
0.402164
0.29958
0.221567
0.162704
0.118632
0.0858886
0.0617461
0.0440794
0.0312483
0.0219984
0.0153793
0.0106777
0.00736238
0.00504158
0.00342871
0.00231588
0.00155357
0.00103509
0.000684957
0.000450185
0.000293877
0.000190542
0.000122706
7.8487e-05
4.98637e-05
3.1465e-05
1.97209e-05
1.22766e-05
7.5907e-06
4.66142e-06
2.84286e-06
1.72141e-06
1.03419e-06
6.15105e-07
3.59844e-07
2.02869e-07
1.02485e-07
3.11811e-08
3.63488
10.7697
17.5096
23.6223
28.9187
33.2627
36.5758
38.8361
40.0733
40.36
39.8013
38.5235
36.6644
34.3635
31.7545
28.9604
26.0888
23.2307
20.459
17.8298
15.3829
13.1439
11.1262
9.33325
7.76044
6.3974
5.22958
4.23984
3.4097
2.72034
2.15337
1.69142
1.31844
1.01994
0.783135
0.596853
0.45154
0.339113
0.252834
0.187149
0.137537
0.100357
0.0727082
0.0523053
0.0373633
0.0265029
0.0186682
0.0130581
0.00907067
0.0062573
0.00428679
0.00291663
0.0019708
0.00132258
0.000881511
0.000583528
0.000383646
0.000250518
0.000162476
0.000104661
6.6962e-05
4.25523e-05
2.68576e-05
1.6837e-05
1.04836e-05
6.48338e-06
3.98223e-06
2.42913e-06
1.47115e-06
8.83986e-07
5.25852e-07
3.07703e-07
1.73488e-07
8.76426e-08
2.66897e-08
2.8286
8.38466
13.6442
18.4316
22.6025
26.0503
28.711
30.5625
31.6215
31.938
31.5876
30.6639
29.2704
27.5141
25.4986
23.3205
21.0657
18.8075
16.6058
14.5071
12.5454
10.7433
9.11336
7.66012
6.38141
5.2701
4.31545
3.50439
2.82257
2.25518
1.78761
1.40594
1.09725
0.849821
0.653226
0.498362
0.377397
0.283694
0.211701
0.156833
0.115348
0.0842288
0.0610668
0.04396
0.0314219
0.0223019
0.015718
0.0110004
0.00764523
0.00527652
0.00361652
0.00246167
0.00166406
0.00111716
0.000744868
0.000493245
0.000324394
0.000211892
0.000137465
8.85739e-05
5.66842e-05
3.60299e-05
2.27462e-05
1.42626e-05
8.88252e-06
5.49433e-06
3.37539e-06
2.05931e-06
1.24741e-06
7.49668e-07
4.46062e-07
2.61044e-07
1.4717e-07
7.4368e-08
2.26186e-08
2.19472
6.50824
10.599
14.3344
17.604
20.3254
22.4468
23.9479
24.8374
25.1496
24.9389
24.2744
23.2338
21.8983
20.3482
18.6587
16.8976
15.1235
13.385
11.7204
10.1579
8.71719
7.40965
6.24012
5.20802
4.30858
3.53397
2.87432
2.31855
1.85511
1.47247
1.15957
0.906067
0.702553
0.540614
0.412872
0.312964
0.235477
0.175874
0.130399
0.0959824
0.0701403
0.0508885
0.0366577
0.026219
0.0186204
0.0131308
0.00919479
0.00639361
0.00441484
0.00302732
0.00206151
0.00139413
0.000936312
0.000624515
0.000413692
0.000272163
0.00017783
0.0001154
7.4377e-05
4.76109e-05
3.02699e-05
1.91142e-05
1.19878e-05
7.4673e-06
4.61982e-06
2.83861e-06
1.7321e-06
1.04937e-06
6.30769e-07
3.75359e-07
2.19696e-07
1.23891e-07
6.2607e-08
1.90415e-08
1.69725
5.03478
8.20498
11.1078
13.6592
15.7954
17.4753
18.6811
19.4167
19.7055
19.5866
19.1109
18.3366
17.3252
16.1382
14.834
13.4657
12.0799
10.7153
9.40305
8.16664
7.02246
5.98067
5.04602
4.21888
3.49616
2.87223
2.33968
1.89004
1.51435
1.20359
0.949009
0.742424
0.576318
0.443953
0.339397
0.257518
0.193937
0.144975
0.107579
0.0792478
0.0579546
0.0420774
0.030331
0.0217078
0.0154259
0.0108844
0.00762592
0.00530544
0.00366525
0.00251448
0.00171303
0.00115894
0.000778662
0.000519555
0.000344283
0.000226573
0.000148087
9.61262e-05
6.19714e-05
3.96797e-05
2.52334e-05
1.59373e-05
9.99742e-06
6.22869e-06
3.85419e-06
2.36856e-06
1.44553e-06
8.75882e-07
5.26542e-07
3.13372e-07
1.83437e-07
1.03486e-07
5.23146e-08
1.59352e-08
1.30777
3.88059
6.32783
8.57409
10.5556
12.2233
13.545
14.5053
15.1055
15.3616
15.3016
14.9628
14.3887
13.6258
12.7209
11.719
10.6616
9.58498
8.52015
7.49205
6.51982
5.61711
4.79262
4.0508
3.39255
2.81597
2.31702
1.89022
1.52913
1.22684
0.976329
0.770767
0.603688
0.469144
0.361777
0.276853
0.210264
0.158495
0.118584
0.0880681
0.0649259
0.0475163
0.0345232
0.0249024
0.017834
0.0126809
0.0089527
0.00627592
0.00436849
0.00301944
0.0020724
0.00141247
0.000955999
0.000642559
0.000428898
0.000284307
0.000187164
0.000122366
7.94526e-05
5.12356e-05
3.28137e-05
2.08718e-05
1.31854e-05
8.27277e-06
5.15509e-06
3.1904e-06
1.96098e-06
1.19696e-06
7.25366e-07
4.36106e-07
2.59598e-07
1.52001e-07
8.57525e-08
4.33537e-08
1.31901e-08
1.00371
2.97916
4.8605
6.59104
8.1225
9.41741
10.4505
11.2092
11.6933
11.9135
11.89
11.6501
11.226
10.6528
9.96607
9.2002
8.38719
7.55549
6.7294
5.9288
5.16911
4.4615
3.81332
3.22854
2.70831
2.25153
1.85538
1.51579
1.22791
0.986463
0.786024
0.621275
0.487159
0.378999
0.292567
0.224113
0.17037
0.128539
0.0962538
0.0715429
0.0527843
0.0386591
0.0281078
0.0202885
0.014539
0.0103442
0.00730722
0.00512523
0.00356937
0.00246831
0.00169491
0.0011557
0.000782529
0.000526168
0.000351337
0.000232973
0.000153418
0.000100333
6.51649e-05
4.20329e-05
2.69262e-05
1.71307e-05
1.08242e-05
6.79254e-06
4.23341e-06
2.62042e-06
1.61086e-06
9.83381e-07
5.96024e-07
3.58389e-07
2.13335e-07
1.24924e-07
7.0467e-08
3.56034e-08
1.0839e-08
0.767138
2.27752
3.71753
5.04462
6.2224
7.22234
8.02486
8.61979
9.00608
9.19101
9.18901
9.02005
8.70805
8.27918
7.76031
7.1777
6.5559
5.91693
5.27977
4.66008
4.07015
3.51903
3.01279
2.55489
2.14655
1.7872
1.47487
1.2066
0.978747
0.787296
0.628094
0.497027
0.390169
0.303869
0.23481
0.180045
0.136998
0.103453
0.0775343
0.057676
0.0425861
0.031213
0.0227099
0.0164031
0.0117622
0.00837362
0.00591858
0.0041535
0.00289412
0.00200233
0.00137557
0.000938362
0.00063563
0.000427558
0.000285595
0.000189443
0.000124792
8.1636e-05
5.30356e-05
3.42177e-05
2.19249e-05
1.39517e-05
8.81717e-06
5.53403e-06
3.44962e-06
2.13555e-06
1.31295e-06
8.01599e-07
4.85888e-07
2.92179e-07
1.73928e-07
1.01819e-07
5.7446e-08
2.90463e-08
8.86326e-09
0.583751
1.73344
2.83063
3.8435
4.7447
5.51261
6.13218
6.59528
6.90057
7.05296
7.06272
6.94444
6.71577
6.39621
6.00599
5.56498
5.09191
4.60372
4.11511
3.63832
3.18305
2.75653
2.36373
2.00757
1.68922
1.40845
1.16393
0.953491
0.77443
0.623716
0.498183
0.394675
0.310161
0.241809
0.187042
0.143556
0.109333
0.0826342
0.0619834
0.0461449
0.034098
0.0250099
0.0182093
0.0131611
0.00944338
0.00672687
0.00475735
0.00334038
0.00232874
0.00161195
0.00110789
0.000756086
0.000512368
0.000344777
0.000230382
0.000152869
0.000100731
6.59143e-05
4.28331e-05
2.76419e-05
1.77153e-05
1.12752e-05
7.12696e-06
4.47394e-06
2.78919e-06
1.7269e-06
1.06183e-06
6.48339e-07
3.93017e-07
2.36357e-07
1.40705e-07
8.23597e-08
4.64687e-08
2.34967e-08
7.15098e-09
0.442166
1.31325
2.1453
2.91456
3.60057
4.18702
4.66243
5.02038
5.2595
5.38307
5.3984
5.3161
5.14917
4.91209
4.61997
4.28781
3.9298
3.55887
3.18634
2.82168
2.47249
2.1445
1.84168
1.56647
1.31994
1.10207
0.911956
0.748037
0.608314
0.490515
0.392242
0.31109
0.244734
0.190996
0.147882
0.113607
0.0866015
0.0655101
0.0491793
0.0366415
0.027096
0.0198884
0.0144904
0.0104801
0.00752437
0.00536307
0.00379499
0.00266609
0.0018596
0.00128783
0.000885527
0.000604589
0.000409869
0.000275908
0.000184428
0.000122416
8.06885e-05
5.2814e-05
3.43289e-05
2.21588e-05
1.42042e-05
9.04226e-06
5.71648e-06
3.58903e-06
2.23778e-06
1.38564e-06
8.52072e-07
5.20322e-07
3.15428e-07
1.89708e-07
1.12922e-07
6.61172e-08
3.73025e-08
1.88373e-08
5.72298e-09
0.333328
0.990169
1.61806
2.19938
2.71884
3.16421
3.52678
3.80156
3.98727
4.08608
4.10319
4.04631
3.92494
3.74981
3.53217
3.28325
3.01375
2.73349
2.45109
2.17386
1.90767
1.65702
1.42507
1.21381
1.02417
0.85625
0.709447
0.582649
0.474386
0.382964
0.30658
0.243412
0.19169
0.149748
0.116056
0.0892392
0.0680862
0.0515476
0.0387288
0.0288776
0.0213705
0.0156971
0.0114444
0.00828244
0.0059502
0.00424355
0.00300448
0.00211185
0.00147376
0.00102111
0.000702439
0.000479789
0.000325391
0.000219121
0.00014652
9.72854e-05
6.41427e-05
4.19953e-05
2.73034e-05
1.76279e-05
1.1302e-05
7.19597e-06
4.54996e-06
2.857e-06
1.78156e-06
1.10326e-06
6.78467e-07
4.14303e-07
2.5115e-07
1.51065e-07
8.9941e-08
5.26791e-08
2.97059e-08
1.5011e-08
4.56609e-09
0.250046
0.74289
1.21435
1.65137
2.04261
2.37894
2.65379
2.86331
3.00637
3.08441
3.10112
3.06207
2.9742
2.84541
2.68403
2.49844
2.29666
2.08607
1.87324
1.66373
1.46205
1.27171
1.09518
0.934057
0.789148
0.660594
0.548006
0.450598
0.367295
0.296843
0.237892
0.189073
0.149047
0.116548
0.0904101
0.0695814
0.0531337
0.0402605
0.0302725
0.0225895
0.0167293
0.0122966
0.00897116
0.00649666
0.00467011
0.00333255
0.00236078
0.00166026
0.00115919
0.000803532
0.000553009
0.00037788
0.000256376
0.000172708
0.000115523
7.67284e-05
5.06033e-05
3.31394e-05
2.15507e-05
1.39167e-05
8.92426e-06
5.68297e-06
3.59377e-06
2.25684e-06
1.40745e-06
8.71633e-07
5.36058e-07
3.2734e-07
1.98442e-07
1.19358e-07
7.10751e-08
4.16041e-08
2.34363e-08
1.18455e-08
3.61775e-09
0.186625
0.554542
0.906722
1.23354
1.52661
1.77916
1.98624
2.14494
2.25429
2.31524
2.33041
2.30379
2.24044
2.14616
2.02709
1.88942
1.73915
1.58181
1.42234
1.26494
1.11308
0.969433
0.835937
0.713855
0.603853
0.506092
0.420331
0.346012
0.282357
0.228442
0.183266
0.145804
0.11505
0.0900485
0.0699167
0.0538563
0.0411603
0.0312132
0.023488
0.0175399
0.012999
0.00956121
0.00698011
0.00505797
0.00363809
0.00259759
0.00184113
0.00129548
0.00090494
0.000627577
0.0004321
0.000295381
0.00020048
0.000135102
9.03981e-05
6.00587e-05
3.96203e-05
2.59533e-05
1.68813e-05
1.09035e-05
6.9932e-06
4.45393e-06
2.81689e-06
1.76912e-06
1.10336e-06
6.83347e-07
4.20271e-07
2.5666e-07
1.55609e-07
9.35609e-08
5.56986e-08
3.25959e-08
1.83686e-08
9.27157e-09
2.81758e-09
0.138569
0.4118
0.673496
0.916595
1.13492
1.32347
1.47856
1.59797
1.68093
1.72805
1.74116
1.72315
1.67769
1.60899
1.52156
1.41998
1.30868
1.19179
1.07298
0.955448
0.841793
0.734062
0.633749
0.541844
0.458887
0.385038
0.32015
0.263833
0.215525
0.174553
0.140175
0.11163
0.088167
0.0690704
0.0536758
0.0413812
0.031652
0.0240217
0.0180901
0.0135188
0.0100259
0.0073794
0.00539075
0.00390869
0.00281309
0.00200967
0.00142518
0.00100331
0.000701185
0.000486493
0.000335103
0.000229166
0.000155596
0.000104891
7.02061e-05
4.66571e-05
3.07875e-05
2.01721e-05
1.31237e-05
8.47808e-06
5.43848e-06
3.46419e-06
2.19117e-06
1.37626e-06
8.58391e-07
5.31667e-07
3.26988e-07
1.99688e-07
1.21056e-07
7.27995e-08
4.33274e-08
2.53703e-08
1.43096e-08
7.2344e-09
2.17109e-09
0.102344
0.304181
0.4976
0.67744
0.839179
0.979129
1.09457
1.18384
1.24632
1.2824
1.29336
1.28128
1.24879
1.19897
1.1351
1.06054
0.978554
0.892197
0.804211
0.716965
0.632423
0.552131
0.47723
0.408488
0.346335
0.290919
0.242152
0.199765
0.163355
0.132432
0.106453
0.0848549
0.0670809
0.0525979
0.0409097
0.0315653
0.0241632
0.0183523
0.0138308
0.0103433
0.0076761
0.00565357
0.00413262
0.00299826
0.00215909
0.0015433
0.00109502
0.000771266
0.00053927
0.00037432
0.000257944
0.000176468
0.00011986
8.08272e-05
5.41163e-05
3.59743e-05
2.37443e-05
1.55609e-05
1.01257e-05
6.54244e-06
4.19742e-06
2.67397e-06
1.6915e-06
1.06249e-06
6.62729e-07
4.1049e-07
2.52461e-07
1.54168e-07
9.34402e-08
5.62068e-08
3.34697e-08
1.961e-08
1.10453e-08
5.58687e-09
1.69253e-09
0.0751817
0.223475
0.365653
0.49796
0.617101
0.720378
0.805793
0.872098
0.918812
0.946182
0.955113
0.947072
0.923963
0.888001
0.84158
0.787146
0.72709
0.663658
0.598875
0.5345
0.471998
0.412529
0.356957
0.30587
0.259608
0.218297
0.18189
0.150202
0.122947
0.0997688
0.0802719
0.0640437
0.0506736
0.039767
0.0309557
0.0239041
0.0183127
0.0139192
0.0104975
0.00785592
0.00583406
0.00429964
0.00314487
0.00228299
0.00164494
0.00117643
0.000835142
0.000588507
0.000411674
0.000285877
0.000197078
0.000134879
9.1644e-05
6.18201e-05
4.14028e-05
2.75303e-05
1.81754e-05
1.19138e-05
7.75395e-06
5.01078e-06
3.21516e-06
2.04844e-06
1.29591e-06
8.14055e-07
5.07745e-07
3.1449e-07
1.93432e-07
1.18101e-07
7.158e-08
4.30365e-08
2.56206e-08
1.50099e-08
8.45934e-09
4.25546e-09
1.31056e-09
0.0549262
0.163282
0.267215
0.364008
0.45127
0.527038
0.589849
0.638782
0.673464
0.69405
0.701171
0.695869
0.679507
0.653679
0.620113
0.580586
0.536838
0.490512
0.443094
0.395879
0.349954
0.306181
0.265211
0.227488
0.193276
0.162683
0.135684
0.112154
0.0918894
0.0746349
0.0601037
0.0479948
0.0380074
0.0298517
0.023256
0.0179723
0.0137788
0.0104807
0.00790983
0.00592341
0.0044018
0.00324612
0.00237573
0.00172563
0.00124404
0.00089018
0.000632253
0.000445748
0.000311951
0.000216718
0.000149461
0.000102328
6.95508e-05
4.69316e-05
3.14405e-05
2.09115e-05
1.38088e-05
9.05343e-06
5.89332e-06
3.80894e-06
2.44428e-06
1.55744e-06
9.85336e-07
6.18984e-07
3.86077e-07
2.39107e-07
1.47058e-07
8.97917e-08
5.44341e-08
3.27123e-08
1.94487e-08
1.1379e-08
6.41996e-09
3.2237e-09
9.96637e-10
0.0399049
0.118638
0.194189
0.264599
0.328143
0.383402
0.42931
0.465192
0.490762
0.506117
0.511695
0.508233
0.496703
0.478244
0.454101
0.425554
0.393865
0.360227
0.325723
0.291303
0.257764
0.225746
0.195731
0.168054
0.142919
0.120411
0.100522
0.0831661
0.0682007
0.0554433
0.0446871
0.0357142
0.0283056
0.0222495
0.0173469
0.0134159
0.0102931
0.00783483
0.00591703
0.004434
0.00329708
0.00243293
0.00178163
0.00129483
0.000933975
0.000668654
0.000475146
0.000335141
0.000234647
0.000163081
0.000112513
7.70592e-05
5.23936e-05
3.5365e-05
2.36984e-05
1.57659e-05
1.04133e-05
6.82853e-06
4.44575e-06
2.87373e-06
1.84432e-06
1.17521e-06
7.43544e-07
4.6708e-07
2.91346e-07
1.8041e-07
1.10934e-07
6.7746e-08
4.10783e-08
2.47019e-08
1.46916e-08
8.57788e-09
4.84488e-09
2.45427e-09
7.45282e-10
0.0288285
0.0857147
0.140322
0.191247
0.237252
0.277313
0.310662
0.336805
0.355529
0.36689
0.371193
0.368956
0.360869
0.347744
0.33047
0.309967
0.287143
0.262859
0.237901
0.21296
0.188617
0.165343
0.143492
0.123316
0.104968
0.0885176
0.0739627
0.0612464
0.0502688
0.0409003
0.0329929
0.0263895
0.0209318
0.016466
0.0128475
0.0099433
0.00763419
0.00581495
0.00439449
0.00329518
0.00245178
0.00181026
0.00132641
0.00096452
0.000696085
0.000498593
0.00035447
0.000250136
0.000175206
0.000121818
8.40766e-05
5.76035e-05
3.9178e-05
2.64524e-05
1.77307e-05
1.17986e-05
7.79452e-06
5.11219e-06
3.32881e-06
2.152e-06
1.38124e-06
8.80185e-07
5.56893e-07
3.49814e-07
2.18169e-07
1.35085e-07
8.30545e-08
5.07121e-08
3.07366e-08
1.84839e-08
1.10047e-08
6.41777e-09
3.62872e-09
1.85827e-09
5.65273e-10
0.020708
0.0615748
0.100818
0.137438
0.170548
0.199419
0.223496
0.242422
0.256039
0.264379
0.267654
0.266226
0.260581
0.251296
0.239003
0.224359
0.208014
0.190585
0.17264
0.154676
0.137116
0.120303
0.104497
0.0898831
0.0765764
0.064631
0.0540498
0.0447948
0.0367963
0.029963
0.0241894
0.0193631
0.0153702
0.0121
0.00944776
0.00731726
0.00562184
0.00428499
0.00324035
0.00243127
0.00181007
0.00133723
0.000980361
0.000713268
0.000515023
0.000369082
0.000262517
0.00018533
0.000129868
9.03302e-05
6.23669e-05
4.2744e-05
2.90807e-05
1.96404e-05
1.31681e-05
8.76448e-06
5.79121e-06
3.79891e-06
2.47399e-06
1.59953e-06
1.02672e-06
6.54299e-07
4.13964e-07
2.60027e-07
1.62141e-07
1.00395e-07
6.17081e-08
3.76615e-08
2.28019e-08
1.3684e-08
8.14213e-09
4.77903e-09
2.70672e-09
1.37202e-09
4.26973e-10
0.0147892
0.0439786
0.0720175
0.098196
0.121886
0.142567
0.159843
0.173458
0.183294
0.18937
0.191831
0.190931
0.18701
0.180476
0.171775
0.161374
0.149736
0.1373
0.124474
0.111614
0.099026
0.086956
0.0755945
0.0650768
0.0554885
0.0468712
0.0392295
0.0325383
0.0267495
0.0217989
0.0176119
0.0141085
0.0112074
0.00882919
0.00689871
0.00534667
0.00411055
0.0031351
0.00237227
0.00178101
0.00132674
0.000980709
0.000719373
0.000523657
0.000378301
0.000271232
0.000193007
0.000136316
9.55601e-05
6.64927e-05
4.5925e-05
3.14856e-05
2.14275e-05
1.44756e-05
9.70766e-06
6.46264e-06
4.27103e-06
2.80212e-06
1.82506e-06
1.18009e-06
7.57527e-07
4.8276e-07
3.05411e-07
1.91846e-07
1.19634e-07
7.40925e-08
4.55358e-08
2.77587e-08
1.67925e-08
1.00882e-08
5.9897e-09
3.51896e-09
1.99437e-09
1.00542e-09
2.90869e-10
0.0105008
0.0312282
0.0511445
0.0697489
0.0865977
0.101322
0.113643
0.123374
0.130432
0.134825
0.136655
0.136095
0.133385
0.12881
0.122686
0.11534
0.107101
0.0982811
0.0891684
0.0800187
0.0710497
0.062439
0.0543238
0.0468026
0.0399382
0.0337623
0.0282798
0.0234742
0.0193125
0.0157501
0.0127342
0.0102084
0.008115
0.0063974
0.00500199