/*--------------------------------*- C++ -*----------------------------------*\
  =========                 |
  \\      /  F ield         | OpenFOAM: The Open Source CFD Toolbox
   \\    /   O peration     | Website:  https://openfoam.org
    \\  /    A nd           | Version:  10
     \\/     M anipulation  |
\*---------------------------------------------------------------------------*/
FoamFile
{
    format      ascii;
    class       volScalarField;
    location    "479";
    object      gradTz;
}
// * * * * * * * * * * * * * * * * * * * * * * * * * * * * * * * * * * * * * //

dimensions      [0 -1 0 1 0 0 0];

internalField   nonuniform List<scalar> 
11250
(
-14340.6
-4136.21
-1516.29
-713.252
-409.209
-268.371
-191.861
-145.272
-114.508
-92.9413
-77.1053
-65.0358
-55.5505
-47.9027
-41.6031
-36.3204
-31.8247
-27.9521
-24.5841
-21.6325
-19.0311
-16.7289
-14.6857
-12.8696
-11.2543
-9.8181
-8.54229
-7.41075
-6.40926
-5.52508
-4.74671
-4.06363
-3.46624
-2.94566
-2.49374
-2.10297
-1.76645
-1.47785
-1.2314
-1.02186
-0.844476
-0.694984
-0.569561
-0.464807
-0.377713
-0.305632
-0.246251
-0.197556
-0.157809
-0.125515
-0.099398
-0.0783746
-0.0615297
-0.0480954
-0.0374308
-0.0290041
-0.0223766
-0.0171882
-0.0131453
-0.0100095
-0.00758856
-0.0057282
-0.00430523
-0.00322193
-0.00240114
-0.00178229
-0.00131813
-0.000971998
-0.000715657
-0.000527541
-0.000391354
-0.000294973
-0.000229614
-0.000189198
-0.000169907
-8225.83
-4824.08
-2731.83
-1640.62
-1064.29
-740.66
-545.549
-419.89
-334.24
-273.021
-227.491
-192.48
-164.784
-142.344
-123.79
-108.185
-94.8724
-83.3839
-73.3767
-64.5962
-56.8495
-49.9879
-43.8943
-38.4747
-33.6523
-29.3626
-25.5508
-22.169
-19.1752
-16.5315
-14.2038
-12.1607
-10.3737
-8.81624
-7.46408
-6.29476
-5.2877
-4.42398
-3.68637
-3.05918
-2.52822
-2.08072
-1.70526
-1.39166
-1.13092
-0.915122
-0.737336
-0.591542
-0.472535
-0.375841
-0.297641
-0.234691
-0.184252
-0.144024
-0.11209
-0.0868561
-0.0670099
-0.051473
-0.0393661
-0.0299756
-0.0227258
-0.0171546
-0.0128933
-0.00964908
-0.00719101
-0.0053377
-0.00394763
-0.00291102
-0.00214332
-0.00157994
-0.00117208
-0.000883429
-0.000687686
-0.000566644
-0.000508872
-5512.41
-4201.98
-2945.91
-2052.68
-1466.26
-1084.06
-829.448
-654.2
-529.281
-437.193
-367.184
-312.477
-268.675
-232.854
-203.021
-177.787
-156.161
-137.43
-121.066
-106.672
-93.9484
-82.6598
-72.6212
-63.683
-55.7221
-48.6352
-42.3334
-36.7395
-31.7849
-27.408
-23.5528
-20.168
-17.2066
-14.6251
-12.3833
-10.4444
-8.77423
-7.3416
-6.11798
-5.07741
-4.19642
-3.45384
-2.83075
-2.31028
-1.87751
-1.51931
-1.22419
-0.982167
-0.784598
-0.624067
-0.494233
-0.389715
-0.305966
-0.23917
-0.186143
-0.144241
-0.111285
-0.0854841
-0.0653786
-0.0497839
-0.0377439
-0.0284915
-0.0214142
-0.0160262
-0.0119437
-0.00886564
-0.00655688
-0.00483516
-0.00356006
-0.00262432
-0.00194686
-0.00146742
-0.00114229
-0.000941244
-0.000845287
-4108.64
-3524.79
-2796.39
-2157.22
-1663.37
-1299.26
-1033.42
-837.684
-691.06
-578.923
-491.287
-421.35
-364.437
-317.3
-277.644
-243.83
-214.664
-189.269
-166.988
-147.322
-129.887
-114.382
-100.567
-88.2467
-77.2581
-67.4645
-58.7475
-51.0032
-44.1392
-38.0718
-32.7248
-28.0281
-23.9173
-20.3326
-17.2188
-14.5248
-12.2037
-10.2123
-8.51118
-7.06427
-5.83906
-4.80621
-3.93944
-3.21535
-2.61321
-2.11478
-1.70409
-1.36725
-1.09228
-0.868831
-0.688105
-0.542609
-0.426018
-0.333025
-0.259197
-0.200857
-0.15497
-0.119044
-0.0910477
-0.0693318
-0.0525654
-0.0396805
-0.0298246
-0.0223209
-0.0166352
-0.0123483
-0.00913272
-0.00673474
-0.00495878
-0.00365544
-0.00271185
-0.00204406
-0.00159119
-0.00131115
-0.00117749
-3287.65
-2991.07
-2556.63
-2115.46
-1729.8
-1415.33
-1166.52
-971.357
-817.753
-695.648
-597.288
-516.895
-450.221
-394.156
-346.411
-305.295
-269.547
-238.216
-210.579
-186.079
-164.279
-144.834
-127.465
-111.942
-98.0729
-85.6937
-74.6616
-64.8502
-56.1459
-48.4458
-41.6553
-35.6873
-30.461
-25.9015
-21.9394
-18.5104
-15.5551
-13.0188
-10.8517
-9.00806
-7.4466
-6.13006
-5.02505
-4.1018
-3.33393
-2.69824
-2.1744
-1.74473
-1.39392
-1.10883
-0.878233
-0.69257
-0.543784
-0.425104
-0.330877
-0.256414
-0.197841
-0.151982
-0.116243
-0.0885209
-0.0671161
-0.050666
-0.0380824
-0.0285018
-0.0212423
-0.0157684
-0.0116625
-0.00860047
-0.00633264
-0.0046683
-0.00346333
-0.00261053
-0.0020322
-0.00167457
-0.00150388
-2761.88
-2593.88
-2322.3
-2016.94
-1723.86
-1464.64
-1244.98
-1062.58
-912.178
-787.986
-684.807
-598.333
-525.137
-462.553
-408.528
-361.483
-320.204
-283.752
-251.398
-222.568
-196.806
-173.745
-153.085
-134.575
-118.003
-103.185
-89.9594
-78.182
-67.7223
-58.4604
-50.286
-43.0965
-36.7967
-31.2977
-26.5169
-22.3776
-18.8087
-15.745
-13.1263
-10.8979
-9.01019
-7.4182
-6.08172
-4.96489
-4.03587
-3.26666
-2.6327
-2.11263
-1.68798
-1.34285
-1.06366
-0.838847
-0.658675
-0.514948
-0.400828
-0.310637
-0.23969
-0.184138
-0.140844
-0.107259
-0.0813259
-0.0613951
-0.0461484
-0.0345397
-0.025743
-0.0191099
-0.0141343
-0.0104236
-0.00767521
-0.00565816
-0.0041978
-0.00316422
-0.00246329
-0.00202983
-0.00182296
-2402.45
-2298.64
-2120.15
-1904.62
-1682.63
-1473.08
-1284.95
-1120.75
-979.458
-858.529
-754.995
-666.022
-589.124
-522.227
-463.643
-412.016
-366.266
-325.534
-289.134
-256.513
-227.226
-200.906
-177.246
-155.99
-136.914
-119.822
-104.542
-90.9145
-78.7966
-68.0549
-58.5655
-50.2127
-42.8882
-36.4908
-30.9258
-26.1052
-21.9472
-18.3762
-15.323
-12.7241
-10.5218
-8.66404
-7.10413
-5.8003
-4.71554
-3.81722
-3.07673
-2.46919
-1.97305
-1.56977
-1.24349
-0.980745
-0.770148
-0.602137
-0.468723
-0.363276
-0.280321
-0.215364
-0.164736
-0.125459
-0.0951301
-0.0718192
-0.0539859
-0.0404071
-0.0301172
-0.0223578
-0.0165371
-0.0121959
-0.0089805
-0.00662062
-0.00491199
-0.00370267
-0.00288254
-0.00237537
-0.00213331
-2144.9
-2076.16
-1953.18
-1796.98
-1627.27
-1458.53
-1299.59
-1154.75
-1025.28
-910.761
-809.892
-721.084
-642.739
-573.393
-511.772
-456.8
-407.584
-363.388
-323.606
-287.74
-255.375
-226.165
-199.813
-176.066
-154.699
-135.514
-118.329
-102.979
-89.3099
-77.1787
-66.4507
-56.999
-48.7044
-41.4545
-35.1442
-29.6749
-24.9551
-20.8999
-17.4313
-14.4778
-11.9742
-9.86179
-8.08753
-6.6042
-5.36984
-4.34742
-3.5045
-2.81281
-2.24785
-1.78857
-1.41694
-1.11764
-0.877719
-0.686291
-0.534269
-0.414103
-0.319562
-0.245526
-0.187817
-0.143045
-0.10847
-0.081894
-0.0615618
-0.0460795
-0.0343464
-0.0254984
-0.0188607
-0.01391
-0.0102431
-0.00755167
-0.00560294
-0.00422366
-0.00328823
-0.00270976
-0.00243366
-1953.86
-1905.74
-1817.32
-1700.83
-1569.01
-1432.41
-1298.53
-1171.93
-1054.93
-948.296
-851.889
-765.056
-686.934
-616.612
-553.22
-495.976
-444.195
-397.287
-354.753
-316.167
-281.164
-249.433
-220.699
-194.722
-171.286
-150.193
-131.262
-114.322
-99.2159
-85.7918
-73.907
-63.4259
-54.22
-46.1675
-39.1539
-33.0714
-27.8197
-23.3054
-19.4424
-16.1518
-13.3615
-11.0065
-9.02787
-7.37328
-5.99608
-4.85512
-3.91427
-3.14208
-2.51128
-1.99839
-1.58332
-1.24899
-0.980958
-0.767077
-0.597206
-0.462919
-0.357257
-0.274505
-0.209998
-0.159948
-0.121294
-0.0915807
-0.0688469
-0.0515348
-0.0384144
-0.0285196
-0.0210963
-0.0155595
-0.0114581
-0.00844777
-0.00626804
-0.00472521
-0.00367883
-0.00303173
-0.00272287
-1808.47
-1773.19
-1707.13
-1617.75
-1513.37
-1401.59
-1288.37
-1177.91
-1072.8
-974.439
-883.374
-799.613
-722.856
-652.65
-588.486
-529.855
-476.28
-427.328
-382.613
-341.796
-304.572
-270.675
-239.862
-211.914
-186.629
-163.816
-143.299
-124.908
-108.482
-93.8649
-80.9087
-69.4709
-59.4155
-50.613
-42.9405
-36.2825
-30.5306
-25.5839
-21.3489
-17.74
-14.6787
-12.094
-9.92177
-8.10479
-6.59205
-5.33849
-4.30459
-3.45586
-2.7624
-2.19848
-1.74204
-1.37433
-1.0795
-0.844212
-0.657314
-0.509552
-0.393275
-0.302202
-0.231202
-0.176109
-0.133557
-0.100846
-0.0758161
-0.0567544
-0.0423072
-0.0314112
-0.0232363
-0.0171385
-0.0126215
-0.00930586
-0.006905
-0.0052056
-0.004053
-0.00334019
-0.00299997
-1695.63
-1668.72
-1617.65
-1547.14
-1462.78
-1370
-1273.46
-1176.75
-1082.38
-991.998
-906.522
-826.389
-751.705
-682.372
-618.179
-558.859
-504.126
-453.699
-407.306
-364.697
-325.636
-289.905
-257.301
-227.631
-200.711
-176.364
-154.422
-134.716
-117.088
-101.379
-87.4387
-75.1187
-64.2775
-54.779
-46.4938
-39.2994
-33.0803
-27.729
-23.1455
-19.2378
-15.9218
-13.1211
-10.7666
-8.79658
-7.15596
-5.79611
-4.67429
-3.75319
-3.00047
-2.38824
-1.89262
-1.49329
-1.17306
-0.917466
-0.714415
-0.553863
-0.427509
-0.328533
-0.251365
-0.19148
-0.145224
-0.109661
-0.0824485
-0.0617227
-0.0460132
-0.0341644
-0.0252742
-0.0186425
-0.0137297
-0.0101234
-0.00751194
-0.00566341
-0.00440963
-0.00363423
-0.00326412
-1606.71
-1585.47
-1544.75
-1487.65
-1418.02
-1339.79
-1256.56
-1171.31
-1086.32
-1003.24
-923.2
-846.871
-774.634
-706.656
-642.957
-583.474
-528.087
-476.653
-429.01
-384.993
-344.437
-307.177
-273.048
-241.89
-213.54
-187.838
-164.624
-143.74
-125.026
-108.327
-93.4885
-80.3609
-68.7979
-58.6583
-49.8072
-42.1161
-35.4636
-29.7362
-24.8282
-20.642
-17.0883
-14.0856
-11.5605
-9.44706
-7.68653
-6.22692
-5.02251
-4.03339
-3.22492
-2.56722
-2.03471
-1.60559
-1.26141
-0.986662
-0.768369
-0.595745
-0.459875
-0.353434
-0.270437
-0.206023
-0.156265
-0.118006
-0.0887279
-0.0664275
-0.0495232
-0.0367725
-0.027205
-0.0200677
-0.01478
-0.0108983
-0.00808736
-0.0060975
-0.00474783
-0.00391311
-0.00351468
-1535.82
-1518.54
-1485.14
-1437.75
-1379.07
-1312.01
-1239.35
-1163.51
-1086.52
-1009.95
-934.951
-862.348
-792.694
-726.336
-663.474
-604.204
-548.549
-496.482
-447.942
-402.847
-361.095
-322.575
-287.165
-254.734
-225.146
-198.257
-173.92
-151.985
-132.299
-114.707
-99.0568
-85.1954
-72.9742
-62.2482
-52.8779
-44.73
-37.6781
-31.6034
-26.3951
-21.9508
-18.1764
-14.9861
-12.3022
-10.0552
-8.18293
-6.63022
-5.34869
-4.29599
-3.43537
-2.73512
-2.16806
-1.71101
-1.34439
-1.05168
-0.819081
-0.635123
-0.490315
-0.37686
-0.288385
-0.219712
-0.166659
-0.125864
-0.0946424
-0.0708598
-0.0528307
-0.0392306
-0.0290251
-0.0214113
-0.0157704
-0.0116292
-0.00863014
-0.00650705
-0.00506696
-0.00417629
-0.00375116
-1478.79
-1464.34
-1436.23
-1395.98
-1345.54
-1287.09
-1222.79
-1154.64
-1084.39
-1013.46
-943.007
-873.903
-806.802
-742.175
-680.351
-621.549
-565.906
-513.496
-464.345
-418.444
-375.753
-336.21
-299.734
-266.226
-235.573
-207.653
-182.333
-159.47
-138.92
-120.53
-104.15
-89.6262
-76.8087
-65.5498
-55.7063
-47.1411
-39.7233
-33.3299
-27.8456
-23.1636
-19.1856
-15.822
-12.9913
-10.6207
-8.64476
-7.00568
-5.65253
-4.54075
-3.63163
-2.89178
-2.29253
-1.80946
-1.4219
-1.11244
-0.866491
-0.67195
-0.518793
-0.398782
-0.305185
-0.23253
-0.176395
-0.133226
-0.100185
-0.0750141
-0.0559313
-0.0415354
-0.030732
-0.0226717
-0.0166996
-0.012315
-0.00913955
-0.00689149
-0.00536657
-0.00442342
-0.00397323
-1432.58
-1420.19
-1395.99
-1361.06
-1316.88
-1265.09
-1207.43
-1145.52
-1080.88
-1014.78
-948.338
-882.421
-817.741
-754.846
-694.154
-635.977
-580.542
-528.006
-478.469
-431.984
-388.569
-348.206
-310.852
-276.44
-244.883
-216.075
-189.898
-166.223
-144.909
-125.811
-108.779
-93.662
-80.3081
-68.568
-58.2961
-49.352
-41.6013
-34.9171
-29.1806
-24.281
-20.1164
-16.5935
-13.628
-11.1435
-9.07205
-7.3533
-5.93401
-4.76763
-3.81366
-3.03715
-2.40809
-1.90091
-1.49394
-1.16892
-0.910583
-0.706212
-0.545296
-0.419191
-0.320831
-0.24447
-0.185466
-0.140087
-0.105351
-0.0788878
-0.0588232
-0.0436856
-0.0323248
-0.023848
-0.0175669
-0.0129553
-0.00961525
-0.00725056
-0.00564647
-0.00465432
-0.00418073
-1394.93
-1384.07
-1362.78
-1331.88
-1292.49
-1245.9
-1193.5
-1136.65
-1076.65
-1014.66
-951.688
-888.615
-826.164
-764.927
-705.386
-647.918
-592.82
-540.314
-490.561
-443.671
-399.708
-358.697
-320.628
-285.465
-253.143
-223.576
-196.661
-172.277
-150.294
-130.571
-112.962
-97.3163
-83.4828
-71.3111
-60.6536
-51.3675
-43.3156
-36.368
-30.4023
-25.3046
-20.9699
-17.3018
-14.2128
-11.6241
-9.46522
-7.67338
-6.19338
-4.97681
-3.98158
-3.17132
-2.51481
-1.9854
-1.56052
-1.22116
-0.951372
-0.737919
-0.569832
-0.438092
-0.335325
-0.255535
-0.193875
-0.146449
-0.110143
-0.0824815
-0.0615067
-0.0456812
-0.0338034
-0.0249403
-0.0183725
-0.0135502
-0.0100572
-0.00758425
-0.00590663
-0.00486898
-0.00437366
-1364.13
-1354.42
-1335.34
-1307.51
-1271.82
-1229.3
-1181.09
-1128.34
-1072.16
-1013.61
-953.623
-893.047
-832.604
-772.911
-714.487
-657.758
-603.071
-550.702
-500.861
-453.704
-409.336
-367.819
-329.175
-293.393
-260.43
-230.219
-202.669
-177.673
-155.107
-134.837
-116.719
-100.606
-86.3462
-73.7896
-62.7873
-53.1945
-44.8718
-37.6866
-31.514
-26.2372
-21.7483
-17.9483
-14.7472
-12.0637
-9.82502
-7.96652
-6.43106
-5.16863
-4.13566
-3.29451
-2.61284
-2.06305
-1.62175
-1.26921
-0.988911
-0.767111
-0.59243
-0.455506
-0.348683
-0.265736
-0.20163
-0.152318
-0.114565
-0.0857986
-0.0639843
-0.0475242
-0.0351692
-0.0259494
-0.0191169
-0.0140999
-0.0104659
-0.00789281
-0.00614725
-0.00506754
-0.00455214
-1338.84
-1330.01
-1312.62
-1287.16
-1254.35
-1215.04
-1170.16
-1120.72
-1067.69
-1012.01
-954.569
-896.158
-837.495
-779.206
-721.832
-665.834
-611.595
-559.431
-509.594
-462.275
-417.617
-375.71
-336.607
-300.318
-266.822
-236.068
-207.978
-182.456
-159.386
-138.638
-120.075
-103.55
-88.9142
-76.0165
-64.7076
-54.8413
-46.2765
-38.8785
-32.52
-27.0821
-22.4542
-18.5352
-15.2327
-12.4634
-10.1525
-8.23352
-6.64772
-5.34359
-4.27629
-3.40701
-2.70241
-2.13404
-1.67775
-1.31318
-1.02328
-0.793848
-0.613135
-0.471468
-0.360932
-0.275093
-0.208745
-0.157705
-0.118625
-0.0888447
-0.0662601
-0.0492175
-0.0364244
-0.026877
-0.0198014
-0.0146056
-0.0108417
-0.00817671
-0.00636868
-0.00525031
-0.00471644
-1318.04
-1309.89
-1293.8
-1270.18
-1239.63
-1202.84
-1160.64
-1113.88
-1063.42
-1010.14
-954.839
-898.288
-841.183
-784.149
-727.74
-672.438
-618.655
-566.737
-516.965
-469.564
-424.703
-382.502
-343.036
-306.336
-272.4
-241.19
-212.643
-186.671
-163.167
-142.006
-123.055
-106.171
-91.2045
-78.0062
-66.4262
-56.3174
-47.5374
-39.9498
-33.4255
-27.8433
-23.091
-19.0652
-15.6716
-12.825
-10.449
-8.47544
-6.84416
-5.50233
-4.40396
-3.5092
-2.78383
-2.1986
-1.7287
-1.3532
-1.05458
-0.818209
-0.632009
-0.486023
-0.372105
-0.283631
-0.215241
-0.162624
-0.122333
-0.0916278
-0.06834
-0.0507654
-0.0375721
-0.0277255
-0.0204276
-0.0150682
-0.0111858
-0.00843662
-0.00657145
-0.0054177
-0.00486694
-1300.9
-1293.28
-1278.2
-1256.02
-1227.24
-1192.46
-1152.4
-1107.8
-1059.46
-1008.16
-954.665
-899.699
-843.942
-788.015
-732.477
-677.823
-624.484
-572.828
-523.162
-475.735
-430.741
-388.321
-348.57
-311.54
-277.241
-245.653
-216.721
-190.367
-166.491
-144.975
-125.688
-108.491
-93.236
-79.7743
-67.9559
-57.6334
-48.6632
-40.9076
-34.236
-28.5256
-23.6623
-19.5411
-16.0661
-13.1504
-10.716
-8.69346
-7.02132
-5.64561
-4.51926
-3.60156
-2.85745
-2.25701
-1.77482
-1.38946
-1.08293
-0.840291
-0.649124
-0.499227
-0.382246
-0.291383
-0.22114
-0.167092
-0.125703
-0.0941579
-0.0702313
-0.0521734
-0.0386164
-0.0284976
-0.0209976
-0.0154895
-0.0114991
-0.00867339
-0.00675621
-0.00557026
-0.00500411
-1286.77
-1279.55
-1265.27
-1244.22
-1216.84
-1183.67
-1145.32
-1102.48
-1055.86
-1006.2
-954.211
-900.588
-845.989
-791.028
-736.264
-682.199
-629.279
-577.888
-528.352
-480.939
-435.863
-393.283
-353.312
-316.017
-281.424
-249.521
-220.267
-193.59
-169.398
-147.577
-128.002
-110.534
-95.0284
-81.337
-69.3103
-58.8004
-49.663
-41.7594
-34.9576
-29.1337
-24.1721
-19.9663
-16.4188
-13.4415
-10.9551
-8.88892
-7.18027
-5.77424
-4.62286
-3.68458
-2.92367
-2.30958
-1.81636
-1.42212
-1.1085
-0.860206
-0.664566
-0.511146
-0.391402
-0.298385
-0.22647
-0.171132
-0.12875
-0.0964464
-0.0719425
-0.0534477
-0.0395617
-0.0291968
-0.0215139
-0.0158712
-0.0117831
-0.00888801
-0.00692373
-0.0057086
-0.00512852
-1275.11
-1268.21
-1254.56
-1234.4
-1208.13
-1176.23
-1139.26
-1097.85
-1052.64
-1004.33
-953.597
-901.105
-847.494
-793.367
-739.283
-685.747
-633.214
-582.079
-532.684
-485.311
-440.19
-397.497
-357.358
-319.853
-285.02
-252.859
-223.336
-196.388
-171.927
-149.847
-130.024
-112.323
-96.6015
-82.7111
-70.5032
-59.8297
-50.5461
-42.5128
-35.5968
-29.673
-24.6247
-20.3441
-16.7326
-13.7008
-11.1683
-9.06323
-7.32214
-5.88913
-4.71545
-3.75884
-2.98294
-2.35665
-1.85357
-1.45139
-1.13142
-0.878074
-0.678428
-0.521849
-0.399629
-0.304679
-0.231263
-0.174765
-0.131492
-0.0985059
-0.073483
-0.0545952
-0.0404132
-0.0298267
-0.0219792
-0.0162152
-0.0120391
-0.00908158
-0.00707486
-0.00583344
-0.0052408
-1265.49
-1258.85
-1245.69
-1226.24
-1200.86
-1169.98
-1134.11
-1093.85
-1049.8
-1002.6
-952.906
-901.362
-848.588
-795.177
-741.684
-688.616
-636.432
-585.539
-536.286
-488.97
-443.832
-401.06
-360.793
-323.123
-288.097
-255.724
-225.978
-198.803
-174.117
-151.817
-131.783
-113.883
-97.9751
-83.9131
-71.5483
-60.7331
-51.3222
-43.1757
-36.16
-30.1487
-25.0244
-20.6781
-17.0103
-13.9304
-11.3572
-9.21789
-7.44811
-5.99122
-4.79777
-3.82491
-3.0357
-2.39859
-1.88674
-1.4775
-1.15188
-0.894025
-0.690807
-0.531412
-0.406981
-0.310306
-0.23555
-0.178016
-0.133946
-0.10035
-0.074863
-0.0556234
-0.0411764
-0.0303915
-0.0223965
-0.0165239
-0.0122688
-0.00925532
-0.00721053
-0.00594554
-0.00534163
-1257.56
-1251.12
-1238.35
-1219.46
-1194.79
-1164.72
-1129.76
-1090.42
-1047.31
-1001.02
-952.195
-901.442
-849.373
-796.572
-743.588
-690.929
-639.058
-588.386
-539.272
-492.022
-446.885
-404.062
-363.699
-325.899
-290.718
-258.173
-228.243
-200.879
-176.004
-153.519
-133.306
-115.236
-99.1685
-84.9591
-72.4594
-61.5217
-52.0008
-43.7562
-36.6536
-30.5663
-25.3756
-20.9719
-17.2547
-14.1328
-11.5238
-9.3544
-7.55938
-6.08147
-4.87061
-3.88339
-3.08244
-2.43576
-1.91615
-1.50067
-1.17004
-0.908193
-0.701808
-0.539913
-0.413521
-0.315313
-0.239365
-0.18091
-0.136132
-0.101993
-0.0760929
-0.0565401
-0.0418571
-0.0308954
-0.0227688
-0.0167994
-0.0124739
-0.00941049
-0.00733174
-0.00604571
-0.00543174
-1251.03
-1244.75
-1232.29
-1213.85
-1189.74
-1160.33
-1126.08
-1087.5
-1045.15
-999.617
-951.5
-901.405
-849.928
-797.643
-745.095
-692.791
-641.195
-590.724
-541.74
-494.558
-449.435
-406.58
-366.147
-328.247
-292.942
-260.256
-230.175
-202.655
-177.622
-154.981
-134.617
-116.403
-100.2
-85.865
-73.2497
-62.2068
-52.591
-44.2617
-37.0841
-30.9308
-25.6825
-21.2289
-17.4688
-14.3102
-11.67
-9.47429
-7.65718
-6.16085
-4.93471
-3.93491
-3.12363
-2.46853
-1.94211
-1.52112
-1.18608
-0.920713
-0.711534
-0.547433
-0.419308
-0.319746
-0.242745
-0.183475
-0.138069
-0.10345
-0.0771837
-0.0573533
-0.0424611
-0.0313426
-0.0230995
-0.0170441
-0.0126562
-0.00954839
-0.00743948
-0.00613477
-0.00551188
-1245.66
-1239.5
-1227.29
-1209.21
-1185.54
-1156.66
-1122.99
-1085.03
-1043.3
-998.375
-950.844
-901.295
-850.312
-798.462
-746.285
-694.286
-642.93
-592.636
-543.773
-496.659
-451.558
-408.685
-368.201
-330.223
-294.82
-262.021
-231.817
-204.167
-179.003
-156.231
-135.741
-117.405
-101.088
-86.6456
-73.9318
-62.7989
-53.102
-44.6999
-37.4577
-31.2475
-25.9495
-21.4528
-17.6554
-14.4649
-11.7977
-9.57904
-7.74271
-6.23031
-4.99085
-3.98005
-3.15975
-2.49729
-1.9649
-1.53909
-1.20018
-0.931722
-0.720091
-0.554052
-0.424404
-0.32365
-0.245723
-0.185736
-0.139778
-0.104736
-0.0781463
-0.0580713
-0.0429945
-0.0317377
-0.0233916
-0.0172603
-0.0128173
-0.00967034
-0.0075348
-0.00621357
-0.00558279
-1241.24
-1235.18
-1223.17
-1205.37
-1182.07
-1153.61
-1120.41
-1082.94
-1041.71
-997.292
-950.242
-901.144
-850.572
-799.086
-747.221
-695.483
-644.335
-594.198
-545.443
-498.394
-453.319
-410.438
-369.918
-331.881
-296.4
-263.51
-233.205
-205.449
-180.176
-157.296
-136.699
-118.262
-101.848
-87.3151
-74.5176
-63.3082
-53.542
-45.0778
-37.7803
-31.5213
-26.1805
-21.6466
-17.8172
-14.5992
-11.9086
-9.67012
-7.81712
-6.2908
-5.03977
-4.01941
-3.19127
-2.5224
-1.9848
-1.55479
-1.21251
-0.941355
-0.727581
-0.559849
-0.428868
-0.327073
-0.248334
-0.187719
-0.141277
-0.105864
-0.0789916
-0.0587019
-0.0434632
-0.032085
-0.0236485
-0.0174505
-0.0129591
-0.00977766
-0.0076187
-0.00628296
-0.00564524
-1237.62
-1231.64
-1219.78
-1202.22
-1179.2
-1151.08
-1118.25
-1081.18
-1040.37
-996.355
-949.7
-900.973
-850.741
-799.559
-747.958
-696.44
-645.47
-595.468
-546.811
-499.821
-454.774
-411.892
-371.348
-333.265
-297.723
-264.76
-234.374
-206.531
-181.169
-158.199
-137.513
-118.99
-102.495
-87.8864
-75.0183
-63.7442
-53.9192
-45.4022
-38.0575
-31.7568
-26.3795
-21.8138
-17.9569
-14.7152
-12.0044
-9.74891
-7.88154
-6.34321
-5.08218
-4.05356
-3.21863
-2.54421
-2.0021
-1.56845
-1.22324
-0.949741
-0.734105
-0.5649
-0.43276
-0.330058
-0.250613
-0.18945
-0.142586
-0.106849
-0.0797303
-0.0592532
-0.0438731
-0.0323887
-0.0238732
-0.017617
-0.0130832
-0.00987165
-0.0076922
-0.00634376
-0.00569997
-1234.65
-1228.74
-1217.01
-1199.62
-1176.84
-1148.99
-1116.47
-1079.72
-1039.23
-995.552
-949.219
-900.797
-850.846
-799.915
-748.534
-697.203
-646.384
-596.5
-547.927
-500.993
-455.973
-413.095
-372.534
-334.417
-298.828
-265.806
-235.354
-207.441
-182.004
-158.96
-138.202
-119.607
-103.044
-88.3718
-75.4443
-64.1156
-54.241
-45.6791
-38.2945
-31.9584
-26.55
-21.9571
-18.0767
-14.8149
-12.0869
-9.81674
-7.93705
-6.38839
-5.11878
-4.08305
-3.24227
-2.56307
-2.01707
-1.58027
-1.23253
-0.957006
-0.73976
-0.56928
-0.436137
-0.332649
-0.252591
-0.190954
-0.143724
-0.107706
-0.0803726
-0.0597328
-0.0442297
-0.0326531
-0.0240689
-0.017762
-0.0131913
-0.00995355
-0.00775627
-0.00639677
-0.00574769
-1232.23
-1226.37
-1214.73
-1197.49
-1174.9
-1147.27
-1114.98
-1078.49
-1038.28
-994.869
-948.799
-900.626
-850.906
-800.184
-748.985
-697.809
-647.118
-597.335
-548.836
-501.951
-456.958
-414.086
-373.514
-335.372
-299.745
-266.677
-236.172
-208.201
-182.705
-159.6
-138.781
-120.128
-103.508
-88.7822
-75.805
-64.4305
-54.5141
-45.9146
-38.4962
-32.1302
-26.6954
-22.0795
-18.1792
-14.9002
-12.1575
-9.87484
-7.98463
-6.42716
-5.15019
-4.10838
-3.26259
-2.57929
-2.02995
-1.59045
-1.24053
-0.96327
-0.744637
-0.57306
-0.439052
-0.334886
-0.254301
-0.192254
-0.144707
-0.108447
-0.0809284
-0.0601479
-0.0445385
-0.0328821
-0.0242385
-0.0178877
-0.013285
-0.0100246
-0.00781185
-0.00644277
-0.00578911
-1230.25
-1224.43
-1212.88
-1195.75
-1173.31
-1145.85
-1113.76
-1077.48
-1037.49
-994.291
-948.434
-900.465
-850.934
-800.384
-749.337
-698.291
-647.708
-598.009
-549.574
-502.732
-457.763
-414.899
-374.321
-336.16
-300.505
-267.4
-236.853
-208.835
-183.29
-160.135
-139.266
-120.564
-103.898
-89.1275
-76.109
-64.6963
-54.7449
-46.1138
-38.6671
-32.2758
-26.8188
-22.1835
-18.2663
-14.9727
-12.2176
-9.92437
-8.02523
-6.46025
-5.17703
-4.13004
-3.27997
-2.59317
-2.04098
-1.59917
-1.24739
-0.968643
-0.748823
-0.576306
-0.441557
-0.336809
-0.25577
-0.193372
-0.145554
-0.109085
-0.0814071
-0.0605054
-0.0448046
-0.0330795
-0.0243847
-0.0179961
-0.0133659
-0.0100859
-0.00785984
-0.0064825
-0.00582489
-1228.64
-1222.86
-1211.37
-1194.34
-1172.01
-1144.69
-1112.76
-1076.65
-1036.83
-993.806
-948.122
-900.318
-850.942
-800.533
-749.611
-698.672
-648.179
-598.552
-550.171
-503.366
-458.42
-415.565
-374.983
-336.808
-301.131
-267.997
-237.416
-209.361
-183.776
-160.58
-139.67
-120.929
-104.224
-89.4169
-76.364
-64.9195
-54.939
-46.2815
-38.811
-32.3987
-26.923
-22.2714
-18.34
-15.0342
-12.2685
-9.96639
-8.05969
-6.48837
-5.19985
-4.14846
-3.29477
-2.605
-2.05038
-1.60661
-1.25325
-0.97323
-0.752399
-0.579079
-0.443698
-0.338454
-0.257028
-0.194329
-0.146279
-0.109632
-0.0818172
-0.0608119
-0.0450328
-0.0332489
-0.0245101
-0.0180891
-0.0134353
-0.0101386
-0.00790107
-0.00651663
-0.00585564
-1227.34
-1221.58
-1210.14
-1193.18
-1170.95
-1143.74
-1111.94
-1075.96
-1036.28
-993.401
-947.857
-900.187
-850.937
-800.642
-749.823
-698.974
-648.555
-598.988
-550.653
-503.881
-458.955
-416.108
-375.524
-337.34
-301.645
-268.489
-237.881
-209.796
-184.179
-160.949
-140.006
-121.232
-104.495
-89.6582
-76.5769
-65.1061
-55.1015
-46.422
-38.9318
-32.5018
-27.0106
-22.3453
-18.402
-15.086
-12.3115
-10.0019
-8.08881
-6.51214
-5.21916
-4.16406
-3.30731
-2.61502
-2.05836
-1.61293
-1.25822
-0.977127
-0.755438
-0.581438
-0.445519
-0.339854
-0.258099
-0.195144
-0.146896
-0.110098
-0.082167
-0.0610734
-0.0452275
-0.0333934
-0.0246172
-0.0181686
-0.0134947
-0.0101836
-0.00793632
-0.00654583
-0.00588194
-1226.28
-1220.54
-1209.14
-1192.25
-1170.09
-1142.97
-1111.26
-1075.39
-1035.83
-993.064
-947.633
-900.072
-850.923
-800.723
-749.988
-699.211
-648.854
-599.337
-551.04
-504.296
-459.387
-416.549
-375.965
-337.774
-302.066
-268.892
-238.263
-210.153
-184.51
-161.254
-140.284
-121.483
-104.72
-89.8586
-76.754
-65.2615
-55.2369
-46.5393
-39.0327
-32.5881
-27.084
-22.4073
-18.4541
-15.1294
-12.3476
-10.0317
-8.1133
-6.53215
-5.23542
-4.1772
-3.31788
-2.62348
-2.06509
-1.61826
-1.26242
-0.980422
-0.758009
-0.583434
-0.447062
-0.34104
-0.259006
-0.195835
-0.14742
-0.110493
-0.0824639
-0.0612954
-0.0453929
-0.0335162
-0.0247083
-0.0182362
-0.0135451
-0.0102219
-0.00796632
-0.00657068
-0.00590433
-1225.43
-1219.71
-1208.34
-1191.49
-1169.39
-1142.34
-1110.72
-1074.93
-1035.46
-992.786
-947.445
-899.972
-850.906
-800.781
-750.115
-699.398
-649.091
-599.616
-551.351
-504.63
-459.737
-416.906
-376.323
-338.126
-302.409
-269.221
-238.575
-210.446
-184.783
-161.505
-140.513
-121.69
-104.906
-90.0242
-76.9005
-65.3902
-55.3492
-46.6366
-39.1166
-32.6599
-27.145
-22.4589
-18.4975
-15.1657
-12.3778
-10.0566
-8.13379
-6.54891
-5.24905
-4.18823
-3.32675
-2.63058
-2.07075
-1.62274
-1.26596
-0.983194
-0.760173
-0.585115
-0.448361
-0.34204
-0.259772
-0.196418
-0.147862
-0.110827
-0.0827146
-0.061483
-0.0455327
-0.0336201
-0.0247853
-0.0182933
-0.0135878
-0.0102543
-0.00799172
-0.00659173
-0.0059233
-1224.75
-1219.04
-1207.69
-1190.88
-1168.83
-1141.84
-1110.28
-1074.56
-1035.15
-992.557
-947.289
-899.886
-850.887
-800.824
-750.212
-699.544
-649.279
-599.837
-551.6
-504.898
-460.018
-417.194
-376.612
-338.412
-302.688
-269.489
-238.829
-210.685
-185.005
-161.71
-140.7
-121.86
-105.059
-90.1605
-77.0212
-65.4964
-55.442
-46.7171
-39.186
-32.7193
-27.1956
-22.5018
-18.5335
-15.1959
-12.4028
-10.0774
-8.15086
-6.56287
-5.26041
-4.19743
-3.33416
-2.63651
-2.07548
-1.62649
-1.26891
-0.985516
-0.761986
-0.586524
-0.449451
-0.342878
-0.260414
-0.196908
-0.148234
-0.111107
-0.0829254
-0.0616408
-0.0456502
-0.0337074
-0.0248501
-0.0183415
-0.0136238
-0.0102816
-0.00801313
-0.00660948
-0.00593929
-1224.2
-1218.5
-1207.17
-1190.39
-1168.37
-1141.43
-1109.92
-1074.26
-1034.91
-992.37
-947.16
-899.813
-850.867
-800.854
-750.287
-699.659
-649.427
-600.014
-551.798
-505.113
-460.243
-417.425
-376.845
-338.643
-302.913
-269.706
-239.036
-210.88
-185.186
-161.877
-140.853
-121.999
-105.184
-90.2722
-77.1203
-65.5836
-55.5182
-46.7833
-39.2431
-32.7683
-27.2374
-22.5371
-18.5633
-15.2208
-12.4236
-10.0945
-8.16502
-6.57446
-5.26985
-4.20507
-3.34031
-2.64145
-2.07941
-1.62961
-1.27138
-0.987451
-0.763498
-0.5877
-0.45036
-0.343579
-0.260951
-0.197317
-0.148544
-0.111341
-0.0831017
-0.0617728
-0.0457487
-0.0337806
-0.0249044
-0.0183818
-0.013654
-0.0103045
-0.00803109
-0.00662437
-0.00595271
-1223.76
-1218.06
-1206.76
-1190
-1168.01
-1141.1
-1109.63
-1074.01
-1034.71
-992.217
-947.053
-899.752
-850.849
-800.875
-750.345
-699.748
-649.544
-600.153
-551.955
-505.284
-460.423
-417.611
-377.032
-338.829
-303.095
-269.881
-239.203
-211.037
-185.333
-162.013
-140.978
-122.112
-105.286
-90.3633
-77.2012
-65.6549
-55.5806
-46.8376
-39.29
-32.8086
-27.2717
-22.5662
-18.5878
-15.2414
-12.4407
-10.1087
-8.17669
-6.58403
-5.27765
-4.21139
-3.34541
-2.64553
-2.08267
-1.6322
-1.27342
-0.989056
-0.764753
-0.588676
-0.451116
-0.344161
-0.261397
-0.197657
-0.148803
-0.111537
-0.0832485
-0.0618827
-0.0458307
-0.0338416
-0.0249496
-0.0184154
-0.0136791
-0.0103236
-0.00804608
-0.0066368
-0.00596392
-1223.41
-1217.72
-1206.43
-1189.68
-1167.72
-1140.84
-1109.4
-1073.82
-1034.55
-992.094
-946.967
-899.701
-850.832
-800.89
-750.389
-699.817
-649.635
-600.263
-552.08
-505.42
-460.567
-417.759
-377.182
-338.978
-303.24
-270.022
-239.337
-211.164
-185.452
-162.123
-141.079
-122.203
-105.369
-90.4373
-77.2669
-65.7129
-55.6314
-46.8818
-39.3282
-32.8414
-27.2998
-22.59
-18.6079
-15.2582
-12.4548
-10.1204
-8.18629
-6.59189
-5.28406
-4.21659
-3.3496
-2.6489
-2.08536
-1.63433
-1.27511
-0.990381
-0.765789
-0.589482
-0.451741
-0.344642
-0.261766
-0.197939
-0.149016
-0.111698
-0.0833702
-0.0619738
-0.0458987
-0.0338922
-0.0249872
-0.0184433
-0.0137
-0.0103395
-0.00805854
-0.00664714
-0.00597324
-1223.13
-1217.45
-1206.16
-1189.43
-1167.49
-1140.63
-1109.21
-1073.66
-1034.42
-991.994
-946.896
-899.659
-850.817
-800.901
-750.422
-699.871
-649.707
-600.35
-552.179
-505.527
-460.681
-417.876
-377.302
-339.097
-303.357
-270.135
-239.445
-211.266
-185.547
-162.211
-141.16
-122.277
-105.435
-90.4972
-77.3202
-65.7599
-55.6727
-46.9177
-39.3593
-32.8681
-27.3226
-22.6094
-18.6243
-15.2719
-12.4662
-10.1299
-8.19413
-6.59832
-5.28931
-4.22085
-3.35304
-2.65166
-2.08756
-1.63608
-1.27649
-0.99147
-0.766641
-0.590146
-0.452254
-0.345038
-0.26207
-0.198171
-0.149193
-0.111832
-0.0834705
-0.062049
-0.0459548
-0.0339339
-0.0250182
-0.0184664
-0.0137173
-0.0103526
-0.00806884
-0.00665568
-0.00598095
-1222.91
-1217.23
-1205.95
-1189.24
-1167.31
-1140.46
-1109.07
-1073.53
-1034.32
-991.914
-946.839
-899.624
-850.804
-800.907
-750.447
-699.913
-649.763
-600.417
-552.256
-505.612
-460.771
-417.97
-377.396
-339.191
-303.45
-270.225
-239.531
-211.348
-185.624
-162.282
-141.225
-122.337
-105.489
-90.5454
-77.3631
-65.7979
-55.706
-46.9468
-39.3845
-32.8898
-27.3411
-22.6252
-18.6376
-15.2831
-12.4755
-10.1376
-8.20051
-6.60356
-5.29358
-4.22432
-3.35584
-2.65391
-2.08936
-1.63751
-1.27762
-0.99236
-0.767339
-0.590689
-0.452675
-0.345363
-0.262319
-0.198361
-0.149337
-0.111941
-0.0835528
-0.0621108
-0.0460009
-0.0339683
-0.0250437
-0.0184854
-0.0137315
-0.0103634
-0.00807732
-0.00666272
-0.00598729
-1222.73
-1217.06
-1205.79
-1189.08
-1167.16
-1140.33
-1108.95
-1073.43
-1034.24
-991.85
-946.793
-899.596
-850.793
-800.912
-750.467
-699.945
-649.806
-600.471
-552.317
-505.679
-460.842
-418.044
-377.471
-339.266
-303.523
-270.296
-239.599
-211.412
-185.684
-162.339
-141.277
-122.384
-105.532
-90.584
-77.3975
-65.8283
-55.7328
-46.9701
-39.4047