/*--------------------------------*- C++ -*----------------------------------*\
  =========                 |
  \\      /  F ield         | OpenFOAM: The Open Source CFD Toolbox
   \\    /   O peration     | Website:  https://openfoam.org
    \\  /    A nd           | Version:  10
     \\/     M anipulation  |
\*---------------------------------------------------------------------------*/
FoamFile
{
    format      ascii;
    class       volScalarField;
    location    "254";
    object      gradTz;
}
// * * * * * * * * * * * * * * * * * * * * * * * * * * * * * * * * * * * * * //

dimensions      [0 -1 0 1 0 0 0];

internalField   nonuniform List<scalar> 
11250
(
-14355.2
-4150.62
-1530.11
-726.23
-421.107
-278.988
-201.038
-152.895
-120.51
-97.3019
-79.8473
-66.2229
-55.2815
-46.3057
-38.8284
-32.5337
-27.1999
-22.6656
-18.8079
-15.5303
-12.7537
-10.4113
-8.44543
-6.80537
-5.44608
-4.32741
-3.41356
-2.67276
-2.077
-1.60174
-1.22573
-0.930704
-0.701168
-0.524092
-0.388644
-0.285919
-0.208676
-0.151089
-0.108522
-0.0773264
-0.0546584
-0.0383271
-0.0266609
-0.0183976
-0.0125942
-0.00855265
-0.00576173
-0.00385059
-0.00255285
-0.00167897
-0.00109543
-0.000708988
-0.000455205
-0.000289923
-0.000183171
-0.000114794
-7.13612e-05
-4.40017e-05
-2.69108e-05
-1.63236e-05
-9.82014e-06
-5.85884e-06
-3.4664e-06
-2.0337e-06
-1.18305e-06
-6.82368e-07
-3.90234e-07
-2.21256e-07
-1.24366e-07
-6.93222e-08
-3.83628e-08
-2.11851e-08
-1.18148e-08
-6.97426e-09
-4.95794e-09
-8269.82
-4867.19
-2773.21
-1679.47
-1099.9
-772.441
-573.021
-442.711
-352.209
-286.075
-235.7
-196.035
-163.981
-137.566
-115.486
-96.8514
-81.0307
-67.5608
-56.0879
-46.3312
-38.0597
-31.0776
-25.2151
-20.3223
-16.2658
-12.9264
-10.1979
-7.98565
-6.20621
-4.7865
-3.66312
-2.78162
-2.09572
-1.56654
-1.16173
-0.854705
-0.623825
-0.451688
-0.324443
-0.231186
-0.163419
-0.114594
-0.0797151
-0.0550095
-0.0376578
-0.0255737
-0.0172288
-0.0115143
-0.00763379
-0.00502072
-0.00327575
-0.00212018
-0.00136128
-0.000867017
-0.000547782
-0.000343302
-0.000213415
-0.000131594
-8.04821e-05
-4.88196e-05
-2.93699e-05
-1.75228e-05
-1.03674e-05
-6.08255e-06
-3.53853e-06
-2.04104e-06
-1.1672e-06
-6.61762e-07
-3.71999e-07
-2.07382e-07
-1.14747e-07
-6.3293e-08
-3.53334e-08
-2.09338e-08
-1.48244e-08
-5585.4
-4273.51
-3014.56
-2117.14
-1525.36
-1136.8
-875.034
-692.07
-559.101
-458.858
-380.812
-318.382
-267.348
-224.932
-189.249
-158.987
-133.199
-111.18
-92.3822
-76.3681
-62.7724
-51.283
-41.6269
-33.5619
-26.8712
-21.3604
-16.8556
-13.2018
-10.262
-7.91575
-6.05881
-4.60139
-3.46717
-2.59196
-1.92235
-1.41443
-1.03243
-0.747594
-0.537024
-0.382685
-0.270524
-0.189709
-0.131973
-0.0910756
-0.0623501
-0.0423439
-0.0285277
-0.0190661
-0.012641
-0.00831415
-0.00542469
-0.00351114
-0.00225441
-0.0014359
-0.000907225
-0.000568584
-0.00035347
-0.000217959
-0.000133305
-8.08637e-05
-4.86489e-05
-2.90258e-05
-1.71738e-05
-1.00761e-05
-5.86191e-06
-3.38128e-06
-1.93371e-06
-1.09637e-06
-6.16307e-07
-3.43589e-07
-1.90139e-07
-1.04878e-07
-5.85458e-08
-3.46737e-08
-2.46031e-08
-4210.15
-3624.26
-2891.87
-2246.87
-1745.56
-1372.6
-1096.83
-890.358
-732.541
-609.065
-510.251
-429.575
-362.606
-306.295
-258.503
-217.696
-182.74
-152.77
-127.104
-105.182
-86.5325
-70.7466
-57.4617
-46.3535
-37.1298
-29.5269
-23.308
-18.2611
-14.1984
-10.9548
-8.38667
-6.37049
-4.801
-3.58964
-2.66266
-1.95937
-1.43036
-1.03585
-0.744156
-0.530333
-0.374928
-0.262943
-0.182932
-0.12625
-0.0864354
-0.0587043
-0.0395518
-0.0264352
-0.0175275
-0.0115286
-0.00752232
-0.00486902
-0.00312639
-0.00199136
-0.00125822
-0.000788587
-0.000490255
-0.000302315
-0.000184905
-0.000112168
-6.74844e-05
-4.02653e-05
-2.38248e-05
-1.39789e-05
-8.13276e-06
-4.69134e-06
-2.68305e-06
-1.52131e-06
-8.5521e-07
-4.76772e-07
-2.63861e-07
-1.45579e-07
-8.12874e-08
-4.81404e-08
-3.41282e-08
-3417.02
-3117.85
-2678.31
-2229.71
-1834.55
-1508.81
-1247.34
-1038.5
-870.634
-734.081
-621.477
-527.399
-447.909
-380.152
-322.037
-272.008
-228.878
-191.714
-159.76
-132.381
-109.03
-89.2238
-72.527
-58.5464
-46.924
-37.3347
-29.4843
-23.1091
-17.974
-13.8721
-10.6229
-8.07112
-6.08397
-4.54978
-3.37545
-2.48429
-1.81382
-1.31372
-0.943897
-0.672756
-0.475665
-0.333623
-0.232125
-0.160214
-0.109696
-0.0745077
-0.0502026
-0.033556
-0.0222501
-0.0146357
-0.00955015
-0.0061819
-0.00396957
-0.00252855
-0.0015977
-0.00100141
-0.00062259
-0.000383936
-0.000234837
-0.000142465
-8.5716e-05
-5.11458e-05
-3.02643e-05
-1.77581e-05
-1.0332e-05
-5.96034e-06
-3.409e-06
-1.93303e-06
-1.08673e-06
-6.05893e-07
-3.35342e-07
-1.85021e-07
-1.03302e-07
-6.11988e-08
-4.3391e-08
-2918.27
-2747.14
-2469.4
-2155.07
-1850.5
-1577.67
-1342.69
-1143.78
-976.133
-834.477
-714.08
-611.063
-522.374
-445.656
-379.093
-321.269
-271.062
-227.554
-189.976
-157.661
-130.019
-106.516
-86.6646
-70.015
-56.1549
-44.7062
-35.3245
-27.6993
-21.5531
-16.6404
-12.747
-9.68778
-7.30451
-5.46383
-4.05444
-2.98459
-2.17948
-1.57882
-1.13453
-0.80874
-0.571882
-0.401153
-0.27914
-0.192683
-0.13194
-0.0896233
-0.0603922
-0.0403698
-0.0267701
-0.01761
-0.0114917
-0.00743912
-0.00477715
-0.00304313
-0.00192295
-0.00120533
-0.000749413
-0.00046217
-0.000282704
-0.000171513
-0.000103199
-6.15814e-05
-3.64414e-05
-2.1384e-05
-1.24425e-05
-7.17827e-06
-4.10589e-06
-2.32837e-06
-1.30909e-06
-7.29917e-07
-4.0403e-07
-2.22957e-07
-1.24486e-07
-7.37303e-08
-5.23015e-08
-2584.89
-2477.43
-2291.76
-2065.76
-1830.38
-1604.95
-1398.97
-1215.5
-1054.1
-912.803
-789.187
-680.916
-585.945
-502.558
-429.345
-365.141
-308.971
-260.002
-217.501
-180.808
-149.321
-122.478
-99.755
-80.663
-64.7456
-51.5805
-40.7806
-31.9945
-24.9067
-19.2376
-14.742
-11.2077
-8.45304
-6.32463
-4.69435
-3.45641
-2.52453
-1.82911
-1.31462
-0.937255
-0.662853
-0.465028
-0.323626
-0.223416
-0.153
-0.103939
-0.0700454
-0.0468266
-0.0310542
-0.0204298
-0.0133327
-0.00863153
-0.00554324
-0.00353137
-0.00223162
-0.00139889
-0.000869813
-0.000536454
-0.000328163
-0.000199105
-0.000119809
-7.14976e-05
-4.23123e-05
-2.48308e-05
-1.44491e-05
-8.3366e-06
-4.76885e-06
-2.70453e-06
-1.52069e-06
-8.47967e-07
-4.69449e-07
-2.59112e-07
-1.44681e-07
-8.57031e-08
-6.08025e-08
-2352.28
-2279.39
-2148.26
-1980.17
-1795.23
-1608.46
-1429.23
-1262.49
-1110.18
-972.506
-848.812
-738.073
-639.184
-551.092
-472.838
-403.565
-342.499
-288.932
-242.207
-201.703
-166.828
-137.014
-111.719
-90.4246
-72.642
-57.9139
-45.8176
-35.9668
-28.0133
-21.647
-16.5951
-12.6211
-9.52214
-7.12666
-5.29106
-3.89672
-2.84677
-2.063
-1.48299
-1.05748
-0.748001
-0.52484
-0.365301
-0.252218
-0.172745
-0.117365
-0.0791014
-0.0528858
-0.0350757
-0.0230773
-0.0150618
-0.00975167
-0.00626308
-0.00399024
-0.00252177
-0.00158088
-0.000983038
-0.000606327
-0.000370932
-0.000225069
-0.000135442
-8.08329e-05
-4.78406e-05
-2.80773e-05
-1.63395e-05
-9.42813e-06
-5.39372e-06
-3.05921e-06
-1.72028e-06
-9.59342e-07
-5.3118e-07
-2.93243e-07
-1.63774e-07
-9.70338e-08
-6.88195e-08
-2184.97
-2132.23
-2034.71
-1904.99
-1756.21
-1599.52
-1443.04
-1292.04
-1149.59
-1017.17
-895.33
-784.058
-683.043
-591.829
-509.899
-436.711
-371.715
-314.356
-264.074
-220.309
-182.498
-150.084
-122.517
-99.2637
-79.8129
-63.6801
-50.4138
-39.5988
-30.8588
-23.8572
-18.2974
-13.9211
-10.5067
-7.86602
-5.84167
-4.30336
-3.1446
-2.27933
-1.63884
-1.16883
-0.8269
-0.580292
-0.403956
-0.278945
-0.191074
-0.129834
-0.0875147
-0.0585169
-0.0388142
-0.0255394
-0.0166702
-0.0107939
-0.00693301
-0.0044174
-0.00279194
-0.00175038
-0.00108852
-0.000671434
-0.000410793
-0.000249274
-0.00015002
-8.95399e-05
-5.29981e-05
-3.11068e-05
-1.81041e-05
-1.04473e-05
-5.97734e-06
-3.39058e-06
-1.90682e-06
-1.06351e-06
-5.88905e-07
-3.25119e-07
-1.81622e-07
-1.07654e-07
-7.63558e-08
-2062
-2021.65
-1945.62
-1841.72
-1718.76
-1584.94
-1446.94
-1309.73
-1176.71
-1050.07
-931.11
-820.543
-718.673
-625.547
-541.041
-464.912
-396.832
-336.403
-283.177
-236.665
-196.348
-161.689
-132.143
-107.172
-86.2488
-68.8694
-54.5602
-42.8824
-33.4362
-25.8627
-19.8444
-15.1042
-11.4038
-8.54047
-6.34446
-4.67504
-3.41705
-2.47739
-1.78162
-1.27091
-0.899281
-0.631193
-0.439457
-0.303503
-0.207924
-0.141301
-0.0952554
-0.0636997
-0.0422563
-0.027807
-0.018152
-0.0117544
-0.00755059
-0.00481129
-0.00304113
-0.00190676
-0.00118586
-0.000731533
-0.000447597
-0.000271628
-0.000163486
-9.75854e-05
-5.77651e-05
-3.39078e-05
-1.97361e-05
-1.13901e-05
-6.51742e-06
-3.69733e-06
-2.07958e-06
-1.15998e-06
-6.42391e-07
-3.54718e-07
-1.98186e-07
-1.17469e-07
-8.33805e-08
-1970.2
-1937.8
-1875.95
-1789.72
-1685.24
-1568.61
-1445.25
-1319.58
-1195
-1073.99
-958.315
-849.155
-747.274
-653.116
-566.887
-488.609
-418.156
-355.286
-299.661
-250.87
-208.442
-171.872
-140.626
-114.166
-91.9591
-73.4869
-58.2591
-45.8183
-35.7454
-27.6628
-21.2352
-16.1695
-12.2126
-9.14932
-6.79886
-5.01128
-3.66377
-2.65689
-1.91113
-1.36357
-0.965025
-0.677454
-0.471742
-0.325848
-0.223264
-0.151745
-0.102308
-0.068424
-0.0453952
-0.0298755
-0.0195042
-0.0126312
-0.00811452
-0.00517106
-0.00326881
-0.00204967
-0.00127484
-0.000786489
-0.00048126
-0.000292081
-0.00017581
-0.000104951
-6.21303e-05
-3.64734e-05
-2.12315e-05
-1.22543e-05
-7.01264e-06
-3.97869e-06
-2.23808e-06
-1.24854e-06
-6.91548e-07
-3.81924e-07
-2.13374e-07
-1.26496e-07
-8.98323e-08
-1900.91
-1873.79
-1821.52
-1747.6
-1656.42
-1552.65
-1440.69
-1324.42
-1207.07
-1091.2
-978.802
-871.376
-769.999
-675.417
-588.102
-508.296
-436.053
-371.272
-313.72
-263.063
-218.883
-180.705
-148.016
-120.283
-96.9695
-77.5505
-61.523
-48.415
-37.7922
-29.2614
-22.4726
-17.1187
-12.9343
-9.69331
-7.20533
-5.3124
-3.88493
-2.81795
-2.02742
-1.44684
-1.02415
-0.719088
-0.500815
-0.345983
-0.237093
-0.161166
-0.108673
-0.0726892
-0.0482301
-0.0317446
-0.0207264
-0.013424
-0.00862458
-0.00549658
-0.00347487
-0.00217906
-0.00135543
-0.000836271
-0.000511763
-0.000310619
-0.000186984
-0.00011163
-6.60904e-05
-3.88017e-05
-2.2589e-05
-1.30392e-05
-7.46251e-06
-4.23437e-06
-2.38218e-06
-1.3291e-06
-7.3627e-07
-4.06656e-07
-2.27255e-07
-1.34751e-07
-9.56607e-08
-1848.22
-1824.7
-1779.04
-1713.79
-1632.26
-1538.08
-1434.93
-1326.18
-1214.84
-1103.45
-994.108
-888.491
-787.896
-693.287
-605.342
-524.482
-450.915
-384.66
-325.582
-273.416
-227.797
-188.284
-154.384
-125.574
-101.318
-81.0884
-64.3723
-50.6875
-39.5874
-30.6663
-23.5619
-17.9557
-13.5717
-10.1744
-7.56527
-5.57934
-4.08119
-2.96102
-2.13083
-1.52094
-1.07681
-0.756192
-0.526741
-0.363949
-0.24944
-0.169581
-0.114362
-0.0765031
-0.0507662
-0.0334173
-0.0218206
-0.014134
-0.00908158
-0.00578833
-0.00365962
-0.0022951
-0.00142772
-0.000880944
-0.000539145
-0.000327264
-0.00019702
-0.000117632
-6.96496e-05
-4.0895e-05
-2.38098e-05
-1.37452e-05
-7.86739e-06
-4.46459e-06
-2.51197e-06
-1.4017e-06
-7.76595e-07
-4.28977e-07
-2.39758e-07
-1.42169e-07
-1.00954e-07
-1807.94
-1786.91
-1745.91
-1686.85
-1612.34
-1525.34
-1428.93
-1326.13
-1219.69
-1112.09
-1005.46
-901.581
-801.881
-707.486
-619.226
-537.666
-463.136
-395.76
-335.486
-282.114
-235.328
-194.718
-159.814
-130.102
-105.054
-84.1363
-66.8339
-52.6557
-41.1457
-31.8883
-24.5113
-18.6864
-14.129
-10.5956
-7.88081
-5.81364
-4.25365
-3.08686
-2.22186
-1.58624
-1.12325
-0.788938
-0.549639
-0.379826
-0.260358
-0.177027
-0.119398
-0.079881
-0.0530135
-0.0349001
-0.0227911
-0.0147639
-0.00948717
-0.00604735
-0.0038237
-0.00239819
-0.00149197
-0.000920659
-0.000563494
-0.000342071
-0.000205951
-0.000122974
-7.28186e-05
-4.27594e-05
-2.48975e-05
-1.43744e-05
-8.22841e-06
-4.66995e-06
-2.62779e-06
-1.4665e-06
-8.12591e-07
-4.48909e-07
-2.50911e-07
-1.48801e-07
-1.05732e-07
-1777.05
-1757.79
-1720.09
-1665.5
-1596.14
-1514.5
-1423.25
-1325.09
-1222.59
-1118.14
-1013.84
-911.531
-812.735
-718.683
-630.316
-548.309
-473.092
-404.875
-343.675
-289.351
-241.627
-200.125
-164.396
-133.939
-108.229
-86.7355
-68.9389
-54.3429
-42.4846
-32.9405
-25.3302
-19.3178
-14.6114
-10.9607
-8.1547
-6.01727
-4.40371
-3.19647
-2.30123
-1.64322
-1.1638
-0.817559
-0.569668
-0.393724
-0.269921
-0.183552
-0.123813
-0.0828444
-0.0549859
-0.0362022
-0.0236436
-0.0153176
-0.00984377
-0.00627517
-0.00396806
-0.00248893
-0.00154853
-0.000955634
-0.000584944
-0.000355119
-0.000213823
-0.000127684
-7.56137e-05
-4.44043e-05
-2.58575e-05
-1.49301e-05
-8.54726e-06
-4.85138e-06
-2.73018e-06
-1.5238e-06
-8.44392e-07
-4.66523e-07
-2.6082e-07
-1.54729e-07
-1.09943e-07
-1753.34
-1735.34
-1700.02
-1648.67
-1583.1
-1505.46
-1418.14
-1323.58
-1224.22
-1122.32
-1019.98
-919.052
-821.107
-727.45
-639.105
-556.831
-481.134
-412.292
-350.384
-295.314
-246.844
-204.625
-168.226
-137.157
-110.901
-88.9298
-70.721
-55.775
-43.6237
-33.8375
-26.0297
-19.8581
-15.0248
-11.2741
-8.39011
-6.19251
-4.53299
-3.29101
-2.36976
-1.69246
-1.19888
-0.842337
-0.587019
-0.405773
-0.278217
-0.189216
-0.127649
-0.0854197
-0.0567009
-0.0373349
-0.0243856
-0.0157996
-0.0101544
-0.00647367
-0.00409388
-0.00256804
-0.00159787
-0.000986148
-0.000603664
-0.00036651
-0.000220697
-0.000131798
-7.80561e-05
-4.58421e-05
-2.66969e-05
-1.5416e-05
-8.82624e-06
-5.01019e-06
-2.81981e-06
-1.57398e-06
-8.72313e-07
-4.82017e-07
-2.69487e-07
-1.59887e-07
-1.13663e-07
-1735.13
-1718.03
-1684.44
-1635.46
-1572.68
-1498.04
-1413.7
-1321.94
-1225.03
-1125.19
-1024.47
-924.709
-827.526
-734.27
-646.022
-563.602
-487.576
-418.277
-355.832
-300.183
-251.126
-208.335
-171.395
-139.831
-113.129
-90.7644
-72.215
-56.9787
-44.5833
-34.5948
-26.6214
-20.316
-15.3757
-11.5405
-8.59049
-6.34186
-4.64332
-3.37178
-2.42837
-1.73461
-1.22894
-0.863583
-0.601909
-0.416119
-0.285346
-0.194087
-0.130948
-0.0876367
-0.0581781
-0.0383109
-0.0250252
-0.0162153
-0.0104223
-0.006645
-0.00420253
-0.00263637
-0.00164049
-0.00101252
-0.000619849
-0.000376361
-0.000226644
-0.000135359
-8.01702e-05
-4.70871e-05
-2.74239e-05
-1.5837e-05
-9.06801e-06
-5.14786e-06
-2.89755e-06
-1.61752e-06
-8.96528e-07
-4.95456e-07
-2.77044e-07
-1.64387e-07
-1.16873e-07
-1721.15
-1704.72
-1672.38
-1625.14
-1564.43
-1492.04
-1409.96
-1320.33
-1225.35
-1127.14
-1027.72
-928.944
-832.423
-739.543
-651.428
-568.941
-492.696
-423.066
-360.217
-304.124
-254.608
-211.365
-173.995
-142.031
-114.968
-92.2836
-73.4556
-57.9806
-45.3839
-35.2279
-27.1171
-20.7002
-15.6706
-11.7648
-8.75943
-6.46795
-4.73656
-3.44012
-2.47801
-1.77035
-1.25445
-0.881629
-0.614567
-0.424921
-0.291414
-0.198236
-0.133761
-0.0895274
-0.0594385
-0.0391441
-0.0255715
-0.0165705
-0.0106514
-0.0067915
-0.00429546
-0.00269484
-0.00167698
-0.0010351
-0.000633711
-0.0003848
-0.00023174
-0.000138411
-8.19829e-05
-4.81548e-05
-2.80477e-05
-1.61983e-05
-9.27553e-06
-5.26607e-06
-2.96435e-06
-1.65495e-06
-9.17329e-07
-5.06993e-07
-2.8356e-07
-1.68279e-07
-1.19611e-07
-1710.45
-1694.5
-1663.07
-1617.11
-1557.94
-1487.23
-1406.85
-1318.87
-1225.37
-1128.45
-1030.08
-932.099
-836.138
-743.596
-655.626
-573.123
-496.735
-426.869
-363.718
-307.286
-257.416
-213.818
-176.107
-143.825
-116.473
-93.53
-74.4761
-58.8068
-46.0456
-35.7523
-27.5283
-21.0195
-15.9162
-11.9518
-8.9005
-6.57338
-4.81463
-3.4974
-2.51966
-1.80037
-1.27589
-0.896813
-0.625225
-0.432339
-0.296532
-0.201737
-0.136136
-0.0911249
-0.0605039
-0.0398489
-0.0260337
-0.0168712
-0.0108454
-0.00691562
-0.00437422
-0.00274441
-0.00170792
-0.00105426
-0.000645473
-0.000391963
-0.000236066
-0.000141002
-8.35226e-05
-4.90619e-05
-2.85777e-05
-1.65054e-05
-9.45199e-06
-5.36663e-06
-3.02116e-06
-1.68677e-06
-9.35061e-07
-5.16851e-07
-2.89105e-07
-1.71599e-07
-1.21954e-07
-1702.27
-1686.67
-1655.92
-1610.9
-1552.87
-1483.41
-1404.32
-1317.58
-1225.23
-1129.31
-1031.77
-934.44
-838.942
-746.693
-658.865
-576.375
-499.897
-429.864
-366.491
-309.803
-259.659
-215.786
-177.808
-145.275
-117.693
-94.5431
-75.3078
-59.4818
-46.5874
-36.1825
-27.8664
-21.2825
-16.1187
-12.1063
-9.01721
-6.66071
-4.87938
-3.54496
-2.55428
-1.82535
-1.29375
-0.90947
-0.634117
-0.438532
-0.300808
-0.204664
-0.138123
-0.092462
-0.0613963
-0.0404394
-0.0264213
-0.0171234
-0.0110082
-0.0070198
-0.00444035
-0.00278604
-0.00173391
-0.00107036
-0.00065536
-0.000397986
-0.000239705
-0.000143182
-8.4818e-05
-4.98254e-05
-2.90239e-05
-1.6764e-05
-9.6006e-06
-5.4513e-06
-3.069e-06
-1.71361e-06
-9.50024e-07
-5.2517e-07
-2.93758e-07
-1.74384e-07
-1.23931e-07
-1696.04
-1680.7
-1650.44
-1606.12
-1548.93
-1480.4
-1402.28
-1316.49
-1225.02
-1129.88
-1032.99
-936.17
-841.049
-749.048
-661.348
-578.888
-502.356
-432.206
-368.67
-311.79
-261.438
-217.353
-179.166
-146.437
-118.672
-95.3594
-75.9795
-60.0282
-47.0269
-36.5322
-28.1418
-21.4971
-16.2843
-12.2327
-9.11286
-6.73238
-4.93258
-3.58409
-2.5828
-1.84594
-1.30848
-0.919923
-0.641467
-0.443654
-0.304348
-0.207089
-0.139769
-0.093571
-0.0621367
-0.0409296
-0.0267431
-0.017333
-0.0111434
-0.00710643
-0.00449536
-0.00282068
-0.00175555
-0.00108376
-0.000663593
-0.000403002
-0.000242736
-0.000144999
-8.58976e-05
-5.04617e-05
-2.93958e-05
-1.69796e-05
-9.72453e-06
-5.52195e-06
-3.10895e-06
-1.73601e-06
-9.6251e-07
-5.32063e-07
-2.97656e-07
-1.76722e-07
-1.256e-07
-1691.31
-1676.16
-1646.27
-1602.46
-1545.9
-1478.06
-1400.67
-1315.59
-1224.79
-1130.24
-1033.86
-937.442
-842.624
-750.827
-663.242
-580.816
-504.255
-434.023
-370.37
-313.346
-262.837
-218.589
-180.242
-147.359
-119.453
-96.0111
-76.5172
-60.4666
-47.3803
-36.8139
-28.364
-21.6706
-16.4183
-12.3353
-9.19054
-6.79066
-4.97589
-3.61598
-2.60606
-1.86276
-1.32053
-0.928477
-0.647486
-0.447853
-0.307251
-0.209079
-0.141122
-0.0944822
-0.0627455
-0.0413329
-0.027008
-0.0175055
-0.0112549
-0.0071778
-0.0045407
-0.00284924
-0.00177339
-0.00109481
-0.000670385
-0.000407141
-0.000245238
-0.000146498
-8.6789e-05
-5.09872e-05
-2.9703e-05
-1.71577e-05
-9.82688e-06
-5.5803e-06
-3.14196e-06
-1.75454e-06
-9.72815e-07
-5.37814e-07
-3.00892e-07
-1.78627e-07
-1.26981e-07
-1687.74
-1672.72
-1643.1
-1599.67
-1543.57
-1476.25
-1399.39
-1314.85
-1224.56
-1130.46
-1034.47
-938.373
-843.796
-752.164
-664.676
-582.287
-505.711
-435.424
-371.685
-314.555
-263.928
-219.556
-181.086
-148.085
-120.069
-96.527
-76.9438
-60.8152
-47.6618
-37.0389
-28.5417
-21.8095
-16.5258
-12.4177
-9.25305
-6.83762
-5.01084
-3.64173
-2.62487
-1.87637
-1.33029
-0.935412
-0.652371
-0.451263
-0.30961
-0.210698
-0.142222
-0.0952242
-0.0632414
-0.0416616
-0.027224
-0.0176462
-0.0113458
-0.00723607
-0.00457772
-0.00287257
-0.00178797
-0.00110385
-0.000675937
-0.000410525
-0.000247283
-0.000147725
-8.75179e-05
-5.14169e-05
-2.99542e-05
-1.73034e-05
-9.91065e-06
-5.62807e-06
-3.16895e-06
-1.76966e-06
-9.81247e-07
-5.4253e-07
-3.0354e-07
-1.80223e-07
-1.28084e-07
-1685.05
-1670.13
-1640.71
-1597.55
-1541.79
-1474.86
-1398.4
-1314.26
-1224.35
-1130.6
-1034.9
-939.052
-844.663
-753.164
-665.756
-583.401
-506.819
-436.495
-372.695
-315.488
-264.772
-220.307
-181.744
-148.652
-120.551
-96.9319
-77.2794
-61.0899
-47.8842
-37.2169
-28.6826
-21.9199
-16.6114
-12.4833
-9.3029
-6.87512
-5.03877
-3.66235
-2.63994
-1.88728
-1.33813
-0.940984
-0.656299
-0.454007
-0.31151
-0.212002
-0.14311
-0.0958228
-0.0636418
-0.041927
-0.0273985
-0.01776
-0.0114194
-0.0072832
-0.00460768
-0.00289145
-0.00179977
-0.00111116
-0.000680433
-0.000413265
-0.00024894
-0.000148718
-8.81084e-05
-5.1765e-05
-3.01578e-05
-1.74214e-05
-9.97854e-06
-5.66675e-06
-3.1908e-06
-1.78193e-06
-9.88096e-07
-5.46317e-07
-3.05677e-07
-1.81491e-07
-1.29002e-07
-1683.04
-1668.2
-1638.91
-1595.96
-1540.45
-1473.79
-1397.64
-1313.8
-1224.17
-1130.68
-1035.21
-939.545
-845.302
-753.907
-666.564
-584.239
-507.658
-437.309
-373.466
-316.201
-265.42
-220.885
-182.252
-149.092
-120.926
-97.2469
-77.5411
-61.3047
-48.0584
-37.3565
-28.7933
-22.0067
-16.6788
-12.5351
-9.34229
-6.90479
-5.0609
-3.6787
-2.65191
-1.89596
-1.34436
-0.945421
-0.659429
-0.456195
-0.313027
-0.213043
-0.143819
-0.0963015
-0.0639621
-0.0421395
-0.0275383
-0.0178511
-0.0114783
-0.00732098
-0.00463169
-0.00290659
-0.00180923
-0.00111703
-0.00068404
-0.000415464
-0.000250269
-0.000149515
-8.85822e-05
-5.20444e-05
-3.03211e-05
-1.75161e-05
-1.0033e-05
-5.6978e-06
-3.20837e-06
-1.79176e-06
-9.93561e-07
-5.49348e-07
-3.07371e-07
-1.82523e-07
-1.29772e-07
-1681.53
-1666.75
-1637.57
-1594.76
-1539.44
-1472.99
-1397.05
-1313.43
-1224.01
-1130.72
-1035.42
-939.901
-845.77
-754.456
-667.166
-584.867
-508.288
-437.923
-374.049
-316.743
-265.914
-221.327
-182.641
-149.429
-121.214
-97.4901
-77.7434
-61.471
-48.1935
-37.465
-28.8795
-22.0745
-16.7314
-12.5756
-9.37315
-6.92807
-5.07828
-3.69155
-2.66133
-1.90279
-1.34927
-0.948922
-0.6619
-0.457925
-0.314226
-0.213868
-0.144381
-0.0966808
-0.064216
-0.042308
-0.0276491
-0.0179235
-0.0115251
-0.00735098
-0.00465077
-0.00291862
-0.00181675
-0.00112169
-0.000686906
-0.000417212
-0.000251325
-0.000150148
-8.89588e-05
-5.22664e-05
-3.04509e-05
-1.75913e-05
-1.00762e-05
-5.72245e-06
-3.22231e-06
-1.79958e-06
-9.97891e-07
-5.51768e-07
-3.0876e-07
-1.83358e-07
-1.30356e-07
-1680.42
-1665.68
-1636.57
-1593.87
-1538.68
-1472.38
-1396.61
-1313.15
-1223.89
-1130.74
-1035.57
-940.157
-846.111
-754.86
-667.61
-585.333
-508.758
-438.383
-374.488
-317.152
-266.287
-221.662
-182.936
-149.686
-121.434
-97.6761
-77.8986
-61.5988
-48.2975
-37.5487
-28.9461
-22.1268
-16.7722
-12.607
-9.39712
-6.94616
-5.09181
-3.70157
-2.66867
-1.90813
-1.35311
-0.951661
-0.663835
-0.459279
-0.315166
-0.214514
-0.144821
-0.0969786
-0.0644155
-0.0424405
-0.0277363
-0.0179804
-0.0115619
-0.0073746
-0.00466579
-0.00292809
-0.00182268
-0.00112536
-0.000689164
-0.000418588
-0.000252157
-0.000150647
-8.92553e-05
-5.24412e-05
-3.05531e-05
-1.76506e-05
-1.01103e-05
-5.74183e-06
-3.23328e-06
-1.80575e-06
-1.00132e-06
-5.53668e-07
-3.0983e-07
-1.83983e-07
-1.30818e-07
-1679.6
-1664.88
-1635.84
-1593.22
-1538.12
-1471.93
-1396.28
-1312.94
-1223.79
-1130.75
-1035.68
-940.34
-846.358
-755.155
-667.937
-585.677
-509.106
-438.725
-374.815
-317.458
-266.567
-221.915
-183.159
-149.88
-121.601
-97.8173
-78.0166
-61.6962
-48.3769
-37.6127
-28.9971
-22.167
-16.8035
-12.6312
-9.41556
-6.9601
-5.10225
-3.7093
-2.67435
-1.91226
-1.35609
-0.953783
-0.665336
-0.460331
-0.315897
-0.215017
-0.145164
-0.0972104
-0.0645708
-0.0425436
-0.0278043
-0.0180247
-0.0115906
-0.00739301
-0.00467751
-0.00293548
-0.0018273
-0.00112823
-0.000690926
-0.000419662
-0.000252807
-0.000151036
-8.94866e-05
-5.25775e-05
-3.06328e-05
-1.76968e-05
-1.01368e-05
-5.75695e-06
-3.24182e-06
-1.81054e-06
-1.004e-06
-5.55141e-07
-3.10627e-07
-1.84463e-07
-1.31209e-07
-1679
-1664.3
-1635.3
-1592.73
-1537.71
-1471.6
-1396.03
-1312.77
-1223.71
-1130.75
-1035.75
-940.471
-846.536
-755.369
-668.176
-585.929
-509.363
-438.978
-375.057
-317.685
-266.776
-222.103
-183.326
-150.026
-121.726
-97.9236
-78.1056
-61.7698
-48.437
-37.6612
-29.0358
-22.1975
-16.8274
-12.6496
-9.42964
-6.97076
-5.11023
-3.71523
-2.6787
-1.91543
-1.35837
-0.955414
-0.66649
-0.46114
-0.316459
-0.215404
-0.145429
-0.0973891
-0.0646907
-0.0426233
-0.0278567
-0.018059
-0.0116128
-0.00740725
-0.00468656
-0.00294119
-0.00183087
-0.00113044
-0.000692288
-0.000420493
-0.000253309
-0.000151337
-8.96653e-05
-5.26829e-05
-3.06943e-05
-1.77324e-05
-1.01573e-05
-5.7686e-06
-3.24839e-06
-1.81424e-06
-1.00609e-06
-5.56289e-07
-3.11263e-07
-1.84855e-07
-1.3145e-07
-1678.56
-1663.88
-1634.9
-1592.38
-1537.4
-1471.35
-1395.85
-1312.65
-1223.65
-1130.75
-1035.79
-940.563
-846.664
-755.524
-668.349
-586.113
-509.551
-439.163
-375.235
-317.852
-266.93
-222.242
-183.45
-150.134
-121.82
-98.003
-78.1721
-61.8249
-48.4821
-37.6976
-29.0649
-22.2205
-16.8454
-12.6635
-9.44029
-6.97882
-5.11628
-3.71972
-2.68201
-1.91783
-1.36011
-0.956656
-0.66737
-0.461758
-0.316888
-0.2157
-0.145631
-0.0975258
-0.0647823
-0.0426843
-0.0278969
-0.0180852
-0.0116298
-0.00741815
-0.0046935
-0.00294557
-0.00183361
-0.00113214
-0.000693331
-0.000421129
-0.000253693
-0.000151567
-8.98021e-05
-5.27634e-05
-3.07414e-05
-1.77597e-05
-1.01729e-05
-5.7775e-06
-3.25344e-06
-1.81707e-06
-1.00765e-06
-5.57146e-07
-3.11765e-07
-1.85147e-07
-1.31649e-07
-1678.25
-1663.57
-1634.61
-1592.12
-1537.18
-1471.17
-1395.71
-1312.56
-1223.61
-1130.74
-1035.83
-940.628
-846.755
-755.635
-668.474
-586.246
-509.687
-439.298
-375.366
-317.975
-267.043
-222.345
-183.541
-150.214
-121.889
-98.0618
-78.2215
-61.8659
-48.5156
-37.7248
-29.0866
-22.2377
-16.8588
-12.6739
-9.44828
-6.98488
-5.12083
-3.7231
-2.6845
-1.91965
-1.36142
-0.957594
-0.668035
-0.462225
-0.317213
-0.215924
-0.145784
-0.0976294
-0.0648519
-0.0427305
-0.0279274
-0.0181051
-0.0116426
-0.00742643
-0.00469877
-0.00294889
-0.00183569
-0.00113343
-0.000694123
-0.000421611
-0.000253985
-0.000151742
-8.99059e-05
-5.28245e-05
-3.07771e-05
-1.77803e-05
-1.01848e-05
-5.78428e-06
-3.25722e-06
-1.81916e-06
-1.00882e-06
-5.57818e-07
-3.12146e-07
-1.85373e-07
-1.31798e-07
-1678.02
-1663.35
-1634.41
-1591.93
-1537.02
-1471.04
-1395.61
-1312.5
-1223.57
-1130.74
-1035.85
-940.673
-846.82
-755.714
-668.564
-586.342
-509.785
-439.396
-375.46
-318.064
-267.126
-222.419
-183.608
-150.273
-121.939
-98.105
-78.2579
-61.8961
-48.5404
-37.7448
-29.1027
-22.2505
-16.8688
-12.6817
-9.45422
-6.98939
-5.12422
-3.72563
-2.68635
-1.92101
-1.3624
-0.958296
-0.668533
-0.462574
-0.317457
-0.216092
-0.145898
-0.0977072
-0.0649041
-0.0427652
-0.0279503
-0.0181201
-0.0116523
-0.00743266
-0.00470274
-0.0029514
-0.00183725
-0.0011344
-0.000694719
-0.000421974
-0.000254204
-0.000151873
-8.99839e-05
-5.28704e-05
-3.08038e-05
-1.77958e-05
-1.01936e-05
-5.78932e-06
-3.26008e-06
-1.82076e-06
-1.00971e-06
-5.58336e-07
-3.1242e-07
-1.85494e-07
-1.31911e-07
-1677.86
-1663.2
-1634.26
-1591.8
-1536.91
-1470.95
-1395.54
-1312.45
-1223.55
-1130.73
-1035.87
-940.705
-846.866
-755.771
-668.628
-586.41
-509.856
-439.466
-375.528
-318.128
-267.185
-222.474
-183.657
-150.315
-121.976
-98.1365
-78.2844
-61.9181
-48.5586
-37.7596
-29.1145
-22.2599
-16.8762
-12.6874
-9.4586
-6.99272
-5.12672
-3.72749
-2.68773
-1.92201
-1.36313
-0.958817
-0.668903
-0.462834
-0.317638
-0.216217
-0.145984
-0.0977652
-0.064943
-0.0427911
-0.0279674
-0.0181313
-0.0116596
-0.00743731
-0.00470569
-0.00295326
-0.00183842
-0.00113512
-0.000695164
-0.000422245
-0.000254367
-0.000151971
-9.00419e-05
-5.29046e-05
-3.08238e-05
-1.78073e-05
-1.02002e-05
-5.79306e-06
-3.2622e-06
-1.82196e-06
-1.01037e-06
-5.58688e-07
-3.12623e-07
-1.85635e-07
-1.31971e-07
-1677.74
-1663.08
-1634.16
-1591.71
-1536.82
-1470.88
-1395.49
-1312.41
-1223.53
-1130.73
-1035.88
-940.727
-846.898
-755.81
-668.673
-586.459
-509.906
-439.516
-375.576
-318.175
-267.228
-222.513
-183.691
-150.346
-122.003
-98.1592
-78.3036
-61.9341
-48.5717
-37.7703
-29.1231
-22.2667
-16.8815
-12.6916
-9.4618
-6.99516
-5.12856
-3.72886
-2.68874
-1.92275
-1.36366
-0.959201
-0.669175
-0.463026
-0.317771
-0.216309
-0.146047
-0.0978079
-0.0649717
-0.0428103
-0.02798
-0.0181395
-0.0116649
-0.00744074
-0.00470788
-0.00295464
-0.00183928
-0.00113566
-0.000695492
-0.000422445
-0.000254488
-0.000152043
-9.00848e-05
-5.29298e-05
-3.08384e-05
-1.78158e-05
-1.02051e-05
-5.79583e-06
-3.26375e-06
-1.82282e-06
-1.01086e-06
-5.58957e-07
-3.12763e-07
-1.85733e-07
-1.32036e-07
-1677.66
-1663.01
-1634.08
-1591.64
-1536.77
-1470.84
-1395.45
-1312.39
-1223.52
-1130.73
-1035.88
-940.742
-846.92
-755.838
-668.704
-586.493
-509.941
-439.552
-375.611
-318.207
-267.259
-222.54
-183.716
-150.368
-122.022
-98.1756
-78.3175
-61.9457
-48.5812
-37.778
-29.1293
-22.2716
-16.8854
-12.6946
-9.46412
-6.99693
-5.12989
-3.72986
-2.68948
-1.92329
-1.36405
-0.95948
-0.669374
-0.463166
-0.317869
-0.216377
-0.146093
-0.0978392
-0.0649928
-0.0428243
-0.0279893
-0.0181456
-0.0116689
-0.00744326
-0.00470948
-0.00295565
-0.00183991
-0.00113605
-0.000695732
-0.000422591
-0.000254576
-0.000152096
-9.01161e-05
-5.29482e-05
-3.08491e-05
-1.7822e-05
-1.02087e-05
-5.79785e-06
-3.26488e-06
-1.82342e-06
-1.01118e-06
-5.59175e-07
-3.129e-07
-1.85796e-07
-1.32076e-07
-1677.6
-1662.95
-1634.03
-1591.59
-1536.73
-1470.8
-1395.43
-1312.37
-1223.51
-1130.72
-1035.89
-940.753
-846.935
-755.857
-668.727
-586.517
-509.966
-439.577
-375.635
-318.23
-267.28
-222.56
-183.734
-150.384
-122.036
-98.1872
-78.3273
-61.9539
-48.588
-37.7835
-29.1338
-22.2752
-16.8882
-12.6967
-9.46579
-6.9982
-5.13085
-3.73057
-2.69001
-1.92368
-1.36433
-0.959682
-0.669517
-0.463267
-0.31794
-0.216425
-0.146127
-0.097862
-0.0650081
-0.0428345
-0.027996
-0.01815
-0.0116717
-0.00744509
-0.00471064
-0.00295638
-0.00184037
-0.00113633
-0.000695907
-0.000422698
-0.00025464
-0.000152134
-9.01387e-05
-5.29615e-05
-3.08569e-05
-1.78264e-05
-1.02112e-05
-5.79932e-06
-3.26571e-06
-1.8239e-06
-1.01143e-06
-5.59287e-07
-3.12981e-07
-1.85838e-07
-1.32108e-07
-1677.56
-1662.91
-1633.99
-1591.56
-1536.7
-1470.78
-1395.41
-1312.36
-1223.5
-1130.72
-1035.89
-940.76
-846.946
-755.871
-668.742
-586.534
-509.983
-439.594
-375.652
-318.247
-267.295
-222.574
-183.746
-150.395
-122.045
-98.1954
-78.3343
-61.9597
-48.5928
-37.7874
-29.1369
-22.2777
-16.8902
-12.6983
-9.46699
-6.99911
-5.13154
-3.73109
-2.69039
-1.92395
-1.36453
-0.959827
-0.66962
-0.46334
-0.31799
-0.216461
-0.146151
-0.0978783
-0.065019
-0.0428418
-0.0280008
-0.0181531
-0.0116737
-0.0074464
-0.00471148
-0.00295691
-0.0018407
-0.00113654
-0.000696032
-0.000422774
-0.000254686
-0.000152162
-9.0155e-05
-5.29711e-05
-3.08625e-05
-1.78297e-05
-1.0213e-05
-5.80033e-06
-3.26629e-06
-1.82424e-06
-1.01162e-06
-5.59389e-07
-3.13043e-07
-1.85863e-07
-1.32128e-07
-1677.53
-1662.88
-1633.97
-1591.54
-1536.68
-1470.76
-1395.4
-1312.35
-1223.49
-1130.72
-1035.89
-940.765
-846.953
-755.88
-668.752
-586.545
-509.995
-439.606
-375.664
-318.258
-267.306
-222.583
-183.755
-150.402
-122.052
-98.2012
-78.3391
-61.9638
-48.5962
-37.7902
-29.1392
-22.2795
-16.8916
-12.6994
-9.46783
-6.99975
-5.13203
-3.73145
-2.69066
-1.92415
-1.36468
-0.95993
-0.669694
-0.463392
-0.318026
-0.216486
-0.146168
-0.0978899
-0.0650269
-0.042847
-0.0280043
-0.0181554
-0.0116752
-0.00744734
-0.00471208
-0.00295729
-0.00184094
-0.00113668
-0.000696122
-0.000422828
-0.000254719
-0.000152181
-9.01666e-05
-5.29779e-05
-3.08664e-05
-1.78319e-05
-1.02143e-05
-5.80105e-06
-3.26668e-06
-1.82447e-06
-1.01178e-06
-5.5946e-07
-3.1306e-07
-1.85895e-07
-1.32159e-07
-1677.52
-1662.87