/*--------------------------------*- C++ -*----------------------------------*\
  =========                 |
  \\      /  F ield         | OpenFOAM: The Open Source CFD Toolbox
   \\    /   O peration     | Website:  https://openfoam.org
    \\  /    A nd           | Version:  10
     \\/     M anipulation  |
\*---------------------------------------------------------------------------*/
FoamFile
{
    format      ascii;
    class       volScalarField;
    location    "1250";
    object      gradTz;
}
// * * * * * * * * * * * * * * * * * * * * * * * * * * * * * * * * * * * * * //

dimensions      [0 -1 0 1 0 0 0];

internalField   nonuniform List<scalar> 
11250
(
-14330.3
-4126.07
-1506.34
-703.594
-399.928
-259.55
-183.575
-137.586
-107.479
-86.6152
-71.5177
-60.2114
-51.5029
-44.6353
-39.109
-34.5833
-30.8194
-27.6461
-24.9377
-22.6008
-20.5644
-18.7742
-17.1877
-15.7718
-14.5001
-13.3513
-12.3084
-11.3573
-10.4868
-9.68715
-8.95063
-8.27058
-7.6414
-7.05832
-6.51727
-6.01471
-5.54757
-5.11316
-4.70909
-4.33324
-3.98369
-3.65872
-3.35675
-3.07633
-2.81612
-2.57488
-2.35144
-2.14473
-1.95371
-1.77741
-1.61493
-1.4654
-1.32799
-1.20193
-1.08648
-0.980951
-0.88467
-0.797018
-0.717407
-0.645286
-0.580136
-0.521476
-0.468856
-0.42186
-0.380109
-0.343251
-0.310973
-0.282989
-0.25905
-0.238936
-0.22246
-0.209465
-0.199827
-0.193454
-0.190283
-8195.14
-4793.69
-2702.03
-1611.68
-1036.48
-714.226
-520.716
-396.857
-313.175
-254.062
-210.745
-178.021
-152.654
-132.552
-116.315
-102.977
-91.8586
-82.4654
-74.4353
-67.4967
-61.4432
-56.116
-51.3912
-47.1712
-43.3782
-39.9501
-36.8362
-33.9956
-31.3942
-29.0041
-26.8019
-24.768
-22.8859
-21.1412
-19.5221
-18.0179
-16.6195
-15.3189
-14.109
-12.9834
-11.9366
-10.9633
-10.0588
-9.21874
-8.43921
-7.71648
-7.04705
-6.42769
-5.85533
-5.32707
-4.84019
-4.39209
-3.98031
-3.60254
-3.25655
-2.94027
-2.65171
-2.38901
-2.15041
-1.93425
-1.73898
-1.56316
-1.40544
-1.26457
-1.13943
-1.02895
-0.932198
-0.848319
-0.776562
-0.71627
-0.666881
-0.627929
-0.59904
-0.579936
-0.570429
-5461.37
-4151.44
-2896.33
-2004.54
-1420.01
-1040.1
-788.148
-615.892
-494.245
-405.66
-339.332
-288.427
-248.497
-216.564
-190.585
-169.122
-151.145
-135.898
-122.822
-111.492
-101.584
-92.8475
-85.0856
-78.1426
-71.8942
-66.2405
-61.1
-56.4064
-52.105
-48.1503
-44.5043
-41.1353
-38.0161
-35.1237
-32.4382
-29.9427
-27.622
-25.4631
-23.4542
-21.5851
-19.8463
-18.2293
-16.7264
-15.3305
-14.035
-12.8337
-11.7209
-10.6912
-9.73963
-8.86128
-8.05167
-7.3065
-6.62169
-5.9934
-5.41795
-4.89187
-4.41189
-3.97491
-3.57799
-3.21839
-2.89354
-2.60103
-2.33863
-2.10428
-1.89606
-1.71225
-1.55127
-1.41171
-1.29231
-1.19199
-1.10981
-1.045
-0.996929
-0.96514
-0.949322
-4037.41
-3454.25
-2727.21
-2090.05
-1598.82
-1237.91
-975.785
-784.22
-642.163
-534.913
-452.412
-387.781
-336.271
-294.558
-260.28
-231.729
-207.654
-187.122
-169.429
-154.038
-140.534
-128.591
-117.954
-108.418
-99.8202
-92.0275
-84.932
-78.4451
-72.4935
-67.0162
-61.9622
-57.2884
-52.9583
-48.9406
-45.2084
-41.7383
-38.5101
-35.5057
-32.7093
-30.1065
-27.6845
-25.4317
-23.3374
-21.3917
-19.5856
-17.9106
-16.3588
-14.9227
-13.5953
-12.3699
-11.2403
-10.2006
-9.24495
-8.36811
-7.56496
-6.83068
-6.16069
-5.55068
-4.99657
-4.49454
-4.041
-3.63259
-3.26622
-2.93898
-2.64824
-2.39156
-2.16676
-1.97187
-1.80513
-1.66503
-1.55027
-1.45975
-1.39262
-1.34823
-1.32613
-3196.47
-2900.77
-2468.06
-2029.46
-1647.16
-1336.78
-1092.72
-902.903
-755.144
-639.296
-547.508
-473.907
-414.148
-365.027
-324.165
-289.788
-260.556
-235.451
-213.689
-194.662
-177.895
-163.011
-149.711
-137.754
-126.947
-117.131
-108.176
-99.9762
-92.4417
-85.4988
-79.0851
-73.1479
-67.6423
-62.5299
-57.7775
-53.3561
-49.2405
-45.4084
-41.8398
-38.5171
-35.424
-32.5461
-29.8698
-27.3828
-25.0737
-22.9317
-20.9468
-19.1096
-17.4112
-15.8431
-14.3974
-13.0664
-11.8431
-10.7204
-9.69203
-8.75173
-7.89369
-7.11241
-6.40267
-5.75959
-5.17859
-4.65539
-4.186
-3.76674
-3.39422
-3.06534
-2.77729
-2.52755
-2.31389
-2.13436
-1.98729
-1.87129
-1.78526
-1.72836
-1.70005
-2651.02
-2484.09
-2214.61
-1912.38
-1623.38
-1369.14
-1155.25
-979.352
-836.05
-719.461
-624.271
-546.052
-481.261
-427.119
-381.462
-342.608
-309.25
-280.367
-255.155
-232.98
-213.337
-195.823
-180.111
-165.939
-153.091
-141.391
-130.693
-120.877
-111.842
-103.503
-95.7894
-88.6398
-82.0028
-75.8337
-70.094
-64.7501
-59.7723
-55.1345
-50.8133
-46.7877
-43.0388
-39.5492
-36.3029
-33.2852
-30.4826
-27.882
-25.4717
-23.2401
-21.1767
-19.2713
-17.5143
-15.8965
-14.4092
-13.0443
-11.7937
-10.6502
-9.60661
-8.65627
-7.79289
-7.01053
-6.30365
-5.66704
-5.09587
-4.58567
-4.13232
-3.73207
-3.38149
-3.07753
-2.81747
-2.59894
-2.41992
-2.27873
-2.174
-2.10475
-2.07029
-2272.26
-2169.7
-1993.69
-1781.82
-1564.62
-1360.91
-1179.57
-1022.99
-890.039
-778.037
-683.882
-604.6
-537.571
-480.585
-431.826
-389.817
-353.37
-321.526
-293.513
-268.708
-246.608
-226.802
-208.957
-192.797
-178.097
-164.67
-152.362
-141.041
-130.6
-120.945
-112
-103.697
-95.98
-88.7987
-82.1105
-75.8779
-70.0675
-64.6501
-59.5993
-54.8912
-50.5044
-46.4191
-42.617
-39.0814
-35.7965
-32.7475
-29.9206
-27.3028
-24.8817
-22.6454
-20.5829
-18.6834
-16.937
-15.3339
-13.8649
-12.5215
-11.2953
-10.1786
-9.16396
-8.24445
-7.41356
-6.66522
-5.99376
-5.39394
-4.86091
-4.39029
-3.97805
-3.62061
-3.31479
-3.0578
-2.84727
-2.68121
-2.55805
-2.47659
-2.43606
-1995.77
-1928.47
-1808.33
-1656.33
-1492.09
-1330.04
-1178.87
-1042.76
-922.841
-818.539
-728.408
-650.699
-583.655
-525.658
-475.288
-431.331
-392.769
-358.753
-328.578
-301.665
-277.534
-255.788
-236.098
-218.191
-201.841
-186.857
-173.081
-160.377
-148.633
-137.751
-127.651
-118.261
-109.521
-101.377
-93.7842
-86.7009
-80.0916
-73.9241
-68.1698
-62.8024
-57.7983
-53.1355
-48.7939
-44.7548
-41.0006
-37.5148
-34.2818
-31.287
-28.5165
-25.9568
-23.5955
-21.4204
-19.4201
-17.5836
-15.9007
-14.3612
-12.9559
-11.6759
-10.5128
-9.45857
-8.50588
-7.64776
-6.87772
-6.18979
-5.57843
-5.0386
-4.56571
-4.15567
-3.80483
-3.50999
-3.26845
-3.07792
-2.93661
-2.84315
-2.79665
-1786.25
-1739.74
-1654.5
-1542.73
-1417.07
-1287.98
-1162.83
-1046.03
-939.758
-844.611
-760.269
-685.906
-620.481
-562.911
-512.162
-467.297
-427.488
-392.021
-360.286
-331.764
-306.017
-282.677
-261.434
-242.026
-224.232
-207.867
-192.771
-178.812
-165.875
-153.861
-142.688
-132.282
-122.58
-113.528
-105.077
-97.1852
-89.8136
-82.9287
-76.4996
-70.4985
-64.8997
-59.6798
-54.8168
-50.2904
-46.0813
-42.1716
-38.5442
-35.1828
-32.0722
-29.1975
-26.5449
-24.1009
-21.8528
-19.7885
-17.8963
-16.1652
-14.5847
-13.1449
-11.8364
-10.6503
-9.57826
-8.61255
-7.74589
-6.97157
-6.28338
-5.67567
-5.14329
-4.68163
-4.28659
-3.95461
-3.68262
-3.46808
-3.30895
-3.2037
-3.15134
-1622.87
-1589.37
-1526.84
-1442.67
-1345.12
-1241.64
-1138.08
-1038.47
-945.236
-859.587
-781.877
-711.918
-649.216
-593.126
-542.958
-498.031
-457.712
-421.428
-388.672
-358.999
-332.027
-307.426
-284.912
-264.242
-245.21
-227.639
-211.376
-196.292
-182.274
-169.226
-157.065
-145.717
-135.119
-125.216
-115.958
-107.301
-99.2069
-91.6393
-84.5665
-77.9592
-71.7905
-66.0354
-60.6707
-55.6745
-51.0263
-46.7069
-42.6976
-38.9811
-35.5406
-32.3601
-29.4244
-26.719
-24.2298
-21.9436
-19.8475
-17.9296
-16.1782
-14.5825
-13.132
-11.8171
-10.6285
-9.55765
-8.59653
-7.73772
-6.97438
-6.30025
-5.70964
-5.19746
-4.75917
-4.39081
-4.08901
-3.85094
-3.67436
-3.55757
-3.49946
-1492.57
-1467.61
-1420.39
-1355.59
-1278.69
-1195
-1109.02
-1024.17
-942.788
-866.3
-795.427
-730.388
-671.074
-617.18
-568.295
-523.964
-483.732
-447.162
-413.852
-383.438
-355.595
-330.038
-306.518
-284.816
-264.744
-246.139
-228.858
-212.779
-197.794
-183.811
-170.748
-158.534
-147.108
-136.413
-126.4
-117.025
-108.249
-100.035
-92.3514
-85.1671
-78.4545
-72.1876
-66.342
-60.8949
-55.8246
-51.1105
-46.7331
-42.6736
-38.9143
-35.4379
-32.2282
-29.2693
-26.5462
-24.0445
-21.7504
-19.6509
-17.7333
-15.9859
-14.3972
-12.9568
-11.6546
-10.4812
-9.42801
-8.4868
-7.65013
-6.91117
-6.26373
-5.70221
-5.22167
-4.8178
-4.48687
-4.22583
-4.03219
-3.90412
-3.8404
-1386.77
-1367.64
-1331.09
-1280.17
-1218.61
-1150.22
-1078.42
-1006
-935.069
-867.043
-802.808
-742.819
-687.224
-635.961
-588.838
-545.586
-505.903
-469.477
-436.004
-405.198
-376.796
-350.56
-326.276
-303.755
-282.831
-263.356
-245.201
-228.252
-212.412
-197.591
-183.713
-170.711
-158.523
-147.096
-136.382
-126.336
-116.921
-108.099
-99.8384
-92.1075
-84.8783
-78.124
-71.8196
-65.9412
-60.4665
-55.3738
-50.6426
-46.2532
-42.1867
-38.425
-34.9506
-31.7468
-28.7975
-26.0873
-23.6015
-21.3259
-19.2471
-17.3524
-15.6296
-14.0673
-12.6547
-11.3817
-10.2389
-9.21747
-8.30944
-7.50738
-6.80458
-6.19501
-5.67333
-5.23483
-4.87553
-4.59209
-4.38183
-4.24277
-4.17357
-1299.61
-1284.58
-1255.66
-1214.9
-1164.89
-1108.38
-1047.98
-985.934
-924.031
-863.606
-805.577
-750.516
-698.726
-650.314
-605.249
-563.408
-524.615
-488.666
-455.345
-424.439
-395.745
-369.069
-344.239
-321.092
-299.488
-279.296
-260.403
-242.707
-226.117
-210.555
-195.947
-182.231
-169.349
-157.251
-145.889
-135.221
-125.209
-115.818
-107.015
-98.7684
-91.0506
-83.8341
-77.0936
-70.8046
-64.9439
-59.4892
-54.4193
-49.7135
-45.3522
-41.3161
-37.5871
-34.1473
-30.9799
-28.0685
-25.3974
-22.9517
-20.717
-18.6798
-16.8271
-15.1467
-13.6271
-12.2575
-11.0277
-9.92853
-8.95122
-8.08788
-7.33132
-6.67507
-6.11339
-5.64125
-5.25436
-4.94914
-4.72272
-4.57297
-4.49845
-1226.93
-1214.88
-1191.55
-1158.36
-1117.15
-1069.94
-1018.71
-965.256
-911.074
-857.355
-804.984
-754.573
-706.511
-661.011
-618.155
-577.931
-540.264
-505.038
-472.114
-441.345
-412.579
-385.672
-360.482
-336.883
-314.753
-293.985
-274.48
-256.15
-238.914
-222.7
-207.444
-193.088
-179.578
-166.867
-154.911
-143.668
-133.104
-123.182
-113.871
-105.141
-96.9627
-89.3098
-82.1564
-75.4777
-69.25
-63.4506
-58.0574
-53.0493
-48.4057
-44.1068
-40.1335
-36.4671
-33.09
-29.985
-27.1355
-24.5258
-22.1408
-19.9661
-17.9879
-16.1934
-14.5703
-13.1073
-11.7934
-10.6189
-9.57451
-8.65181
-7.84315
-7.14166
-6.5412
-6.03644
-5.6228
-5.29646
-5.05436
-4.89424
-4.81455
-1165.72
-1155.88
-1136.73
-1109.28
-1074.87
-1034.99
-991.158
-944.806
-897.178
-849.308
-802.008
-755.887
-711.369
-668.73
-628.128
-589.629
-553.237
-518.906
-486.562
-456.113
-427.456
-400.487
-375.1
-351.196
-328.68
-307.462
-287.46
-268.6
-250.812
-234.034
-218.208
-203.282
-189.208
-175.942
-163.443
-151.673
-140.598
-130.184
-120.4
-111.218
-102.608
-94.545
-87.0021
-79.955
-73.3796
-67.2529
-61.5524
-56.2563
-51.3435
-46.7935
-42.5864
-38.7032
-35.1251
-31.8342
-28.8135
-26.0462
-23.5165
-21.2094
-19.1104
-17.206
-15.4832
-13.9299
-12.5349
-11.2877
-10.1785
-9.1984
-8.33939
-7.59414
-6.95619
-6.41988
-5.98035
-5.63357
-5.3763
-5.20614
-5.12146
-1113.74
-1105.56
-1089.6
-1066.57
-1037.46
-1003.41
-965.576
-925.104
-883.02
-840.21
-797.405
-755.177
-713.959
-674.057
-635.676
-598.937
-563.899
-530.573
-498.937
-468.945
-440.538
-413.646
-388.197
-364.116
-341.332
-319.776
-299.382
-280.087
-261.835
-244.572
-228.249
-212.82
-198.242
-184.476
-171.485
-159.234
-147.689
-136.821
-126.6
-116.996
-107.983
-99.5354
-91.6266
-84.2325
-77.3289
-70.8925
-64.9007
-59.3311
-54.1623
-49.3731
-44.9433
-40.8529
-37.0827
-33.6141
-30.4293
-27.5109
-24.8426
-22.4084
-20.1933
-18.1832
-16.3644
-14.7244
-13.2513
-11.934
-10.7623
-9.72699
-8.81942
-8.03198
-7.35785
-6.79109
-6.32657
-5.96006
-5.68815
-5.50829
-5.41879
-1069.29
-1062.39
-1048.88
-1029.3
-1004.39
-974.998
-942.051
-906.454
-869.052
-830.602
-791.746
-753.013
-714.821
-677.487
-641.241
-606.24
-572.583
-540.323
-509.478
-480.043
-451.991
-425.286
-399.882
-375.732
-352.784
-330.986
-310.29
-290.647
-272.01
-254.336
-237.583
-221.714
-206.69
-192.476
-179.041
-166.352
-154.379
-143.094
-132.467
-122.474
-113.086
-104.279
-96.0276
-88.3077
-81.0952
-74.3669
-68.0998
-62.2714
-56.8599
-51.8437
-47.202
-42.9144
-38.9611
-35.323
-31.9815
-28.9187
-26.1176
-23.5618
-21.2356
-19.1241
-17.2133
-15.49
-13.9418
-12.5572
-11.3255
-10.237
-9.28275
-8.45471
-7.74576
-7.14967
-6.6611
-6.27559
-5.98957
-5.80038
-5.70622
-1031.03
-1025.14
-1013.56
-996.704
-975.132
-949.511
-920.562
-889.015
-855.569
-820.863
-785.46
-749.839
-714.392
-679.433
-645.203
-611.88
-579.59
-548.417
-518.412
-489.597
-461.977
-435.542
-410.271
-386.138
-363.112
-341.157
-320.238
-300.321
-281.371
-263.352
-246.233
-229.98
-214.563
-199.952
-186.119
-173.034
-160.671
-149.004
-138.006
-127.651
-117.916
-108.775
-100.204
-92.1796
-84.6775
-77.6747
-71.1483
-65.0758
-59.4348
-54.2037
-49.3612
-44.8864
-40.7591
-36.9596
-33.4689
-30.2685
-27.3408
-24.6688
-22.2362
-20.0279
-18.029
-16.226
-14.6059
-13.1568
-11.8676
-10.7281
-9.72896
-8.86194
-8.11956
-7.49532
-6.98363
-6.57986
-6.28029
-6.08212
-5.9835
-997.955
-992.849
-982.8
-968.119
-949.239
-926.683
-901.024
-872.855
-842.752
-811.258
-778.863
-745.995
-713.018
-680.233
-647.88
-616.151
-585.187
-555.094
-525.945
-497.788
-470.652
-444.548
-419.477
-395.431
-372.396
-350.354
-329.282
-309.158
-289.956
-271.653
-254.223
-237.64
-221.88
-206.918
-192.729
-179.288
-166.572
-154.557
-143.218
-132.532
-122.476
-113.025
-104.157
-95.8485
-88.0757
-80.8158
-74.0459
-67.7436
-61.8864
-56.4524
-51.42
-46.7681
-42.4759
-38.5233
-34.8908
-31.5595
-28.5113
-25.7286
-23.1948
-20.894
-18.8111
-16.9319
-15.2431
-13.7324
-12.3881
-11.1997
-10.1577
-9.25339
-8.47899
-7.82776
-7.29393
-6.87265
-6.56008
-6.35331
-6.2504
-969.221
-964.747
-955.925
-942.997
-926.303
-906.257
-883.321
-857.976
-830.705
-801.966
-772.186
-741.745
-710.976
-680.162
-649.541
-619.304
-589.604
-560.562
-532.267
-504.785
-478.163
-452.431
-427.609
-403.705
-380.719
-358.646
-337.479
-317.205
-297.808
-279.274
-261.583
-244.719
-228.661
-213.389
-198.884
-185.125
-172.09
-159.759
-148.11
-137.12
-126.769
-117.032
-107.889
-99.316
-91.2909
-83.7907
-76.793
-70.2751
-64.2148
-58.5899
-53.3785
-48.5592
-44.1111
-40.0137
-36.2469
-32.7915
-29.6289
-26.7411
-24.111
-21.7222
-19.5592
-17.6075
-15.8532
-14.2836
-12.8868
-11.6519
-10.5689
-9.62886
-8.82384
-8.14682
-7.5918
-7.15379
-6.82879
-6.61379
-6.50678
-944.168
-940.204
-932.376
-920.874
-905.969
-887.992
-867.319
-844.346
-819.477
-793.102
-765.592
-737.283
-708.479
-679.444
-650.405
-621.553
-593.045
-565.008
-537.546
-510.738
-484.645
-459.312
-434.774
-411.051
-388.159
-366.104
-344.89
-324.513
-304.969
-286.25
-268.345
-251.242
-234.927
-219.385
-204.602
-190.558
-177.238
-164.621
-152.689
-141.422
-130.8
-120.8
-111.402
-102.585
-94.3252
-86.6013
-79.3909
-72.6714
-66.4207
-60.6165
-55.2369
-50.2601
-45.6651
-41.4308
-37.5372
-33.9644
-30.6934
-27.706
-24.9845
-22.5122
-20.2733
-18.2525
-16.436
-14.8104
-13.3636
-12.0842
-10.9622
-9.9882
-9.15399
-8.45237
-7.87715
-7.42317
-7.0863
-6.86344
-6.75253
-922.255
-918.707
-911.69
-901.357
-887.925
-871.664
-852.881
-831.907
-809.08
-784.735
-759.194
-732.756
-705.695
-678.257
-650.655
-623.077
-595.679
-568.595
-541.934
-515.786
-490.223
-465.303
-441.07
-417.558
-394.794
-372.794
-351.572
-331.135
-311.484
-292.621
-274.54
-257.237
-240.702
-224.927
-209.898
-195.603
-182.026
-169.153
-156.965
-145.446
-134.575
-124.334
-114.702
-105.659
-97.1818
-89.2501
-81.8416
-74.9342
-68.5055
-62.5335
-56.9961
-51.8714
-47.1382
-42.7752
-38.7619
-35.0784
-31.7051
-28.6235
-25.8156
-23.2642
-20.9532
-18.8671
-16.9914
-15.3127
-13.8184
-12.4969
-11.3377
-10.3314
-9.4694
-8.74437
-8.14991
-7.68073
-7.33256
-7.10222
-6.98758
-903.036
-899.829
-893.479
-884.11
-871.9
-857.07
-839.874
-820.589
-799.503
-776.903
-753.07
-728.27
-702.752
-676.74
-650.438
-624.024
-597.654
-571.462
-545.562
-520.051
-495.01
-470.505
-446.59
-423.309
-400.697
-378.782
-357.584
-337.119
-317.397
-298.424
-280.203
-262.734
-246.013
-230.035
-214.792
-200.274
-186.47
-173.366
-160.948
-149.199
-138.103
-127.641
-117.794
-108.542
-99.8644
-91.7404
-84.1481
-77.0657
-70.4712
-64.3425
-58.6575
-53.3944
-48.5315
-44.0476
-39.9218
-36.134
-32.6644
-29.4939
-26.6044
-23.9784
-21.5993
-19.4513
-17.5197
-15.7906
-14.2513
-12.8898
-11.6954
-10.6584
-9.77007
-9.02281
-8.4101
-7.92647
-7.56757
-7.33012
-7.21194
-886.139
-883.214
-877.417
-868.85
-857.658
-844.026
-828.167
-810.315
-790.716
-769.618
-747.267
-723.902
-699.746
-675.007
-649.874
-624.518
-599.092
-573.729
-548.546
-523.644
-499.108
-475.013
-451.42
-428.381
-405.94
-384.13
-362.982
-342.516
-322.751
-303.699
-285.367
-267.762
-250.884
-234.733
-219.304
-204.59
-190.584
-177.274
-164.648
-152.692
-141.391
-130.727
-120.683
-111.24
-102.378
-94.076
-86.3135
-79.0689
-72.3202
-66.0455
-60.2229
-54.8304
-49.8462
-45.2491
-41.0179
-37.1321
-33.5719
-30.3178
-27.3515
-24.6551
-22.2118
-20.0054
-18.021
-16.2444
-14.6624
-13.2631
-12.0354
-10.9694
-10.0561
-9.28778
-8.65775
-8.16044
-7.79136
-7.54718
-7.42564
-871.255
-868.565
-863.228
-855.33
-844.992
-832.369
-817.641
-801.008
-782.681
-762.877
-741.815
-719.704
-696.75
-673.142
-649.058
-624.661
-600.098
-575.501
-550.986
-526.658
-502.607
-478.91
-455.638
-432.846
-410.586
-388.898
-367.818
-347.374
-327.59
-308.483
-290.067
-272.352
-255.343
-239.044
-223.453
-208.568
-194.383
-180.89
-168.078
-155.935
-144.448
-133.601
-123.377
-113.759
-104.727
-96.2616
-88.342
-80.9471
-74.0555
-67.6452
-61.6945
-56.1814
-51.0841
-46.381
-42.0512
-38.0737
-34.4285
-31.096
-28.0576
-25.295
-22.7912
-20.5299
-18.4956
-16.6742
-15.0521
-13.6171
-12.358
-11.2645
-10.3276
-9.53938
-8.89299
-8.38273
-8.00404
-7.75348
-7.62877
-858.121
-855.627
-850.676
-843.34
-833.721
-821.95
-808.183
-792.589
-775.354
-756.669
-736.724
-715.712
-693.816
-671.212
-648.068
-624.535
-600.758
-576.863
-552.969
-529.179
-505.587
-482.274
-459.314
-436.77
-414.697
-393.141
-372.144
-351.739
-331.954
-312.813
-294.335
-276.532
-259.416
-242.991
-227.262
-212.227
-197.885
-184.229
-171.25
-158.94
-147.285
-136.271
-125.884
-116.106
-106.918
-98.302
-90.2377
-82.7042
-75.6803
-69.1445
-63.0748
-57.4496
-52.2469
-47.4452
-43.0232
-38.96
-35.2353
-31.8294
-28.7233
-25.8987
-23.3381
-21.0251
-18.9441
-17.0805
-15.4206
-13.952
-12.6632
-11.5439
-10.5848
-9.77779
-9.11597
-8.5935
-8.20572
-7.94915
-7.82144
-846.515
-844.186
-839.56
-832.698
-823.686
-812.639
-799.689
-784.986
-768.69
-750.97
-731.998
-711.946
-690.982
-669.27
-646.963
-624.209
-601.143
-577.891
-554.568
-531.279
-508.119
-485.172
-462.514
-440.213
-418.328
-396.91
-376.006
-355.652
-335.883
-316.726
-298.203
-280.332
-263.127
-246.598
-230.75
-215.586
-201.105
-187.304
-174.178
-161.717
-149.911
-138.747
-128.211
-118.286
-108.957
-100.203
-92.0054
-84.3443
-77.1984
-70.5464
-64.3666
-58.6374
-53.3368
-48.4433
-43.9355
-39.7924
-35.9936
-32.519
-29.3497
-26.467
-23.8533
-21.4919
-19.367
-17.4637
-15.7684
-14.2682
-12.9516
-11.8079
-10.8279
-10.0032
-9.32689
-8.79292
-8.39659
-8.13436
-8.00383
-836.248
-834.058
-829.707
-823.245
-814.75
-804.318
-792.067
-778.126
-762.639
-745.755
-727.63
-708.418
-688.275
-667.351
-645.792
-623.736
-601.313
-578.646
-555.848
-533.023
-510.266
-487.664
-465.295
-443.23
-421.531
-400.254
-379.448
-359.156
-339.414
-320.255
-301.703
-283.78
-266.504
-249.887
-233.938
-218.661
-204.06
-190.132
-176.874
-164.278
-152.336
-141.037
-130.366
-120.309
-110.849
-101.97
-93.6502
-85.8718
-78.6135
-71.8544
-65.573
-59.7474
-54.3562
-49.3775
-44.79
-40.5726
-36.7046
-33.1662
-29.9378
-27.0008
-24.3375
-21.9308
-19.7648
-17.8245
-16.0959
-14.5661
-13.2233
-12.0569
-11.0572
-10.216
-9.52598
-8.98121
-8.57686
-8.30929
-8.17611
-827.155
-825.084
-820.966
-814.845
-806.789
-796.883
-785.23
-771.945
-757.156
-740.997
-723.608
-705.132
-685.711
-665.485
-644.591
-623.16
-601.317
-579.181
-556.862
-534.463
-512.081
-489.802
-467.707
-445.869
-424.352
-403.216
-382.513
-362.288
-342.583
-323.432
-304.863
-286.903
-269.57
-252.881
-236.846
-221.473
-206.766
-192.727
-179.352
-166.636
-154.572
-143.15
-132.358
-122.181
-112.603
-103.608
-95.1774
-87.2914
-79.93
-73.0723
-66.697
-60.7827
-55.3075
-50.25
-45.5885
-41.3021
-37.37
-33.7721
-30.4887
-27.5012
-24.7916
-22.3427
-20.1383
-18.1634
-16.4037
-14.8462
-13.479
-12.2911
-11.2731
-10.4163
-9.71354
-9.15864
-8.74675
-8.47419
-8.33853
-819.097
-817.127
-813.207
-807.377
-799.696
-790.24
-779.101
-766.381
-752.195
-736.665
-719.918
-702.086
-683.3
-663.692
-643.389
-622.516
-601.195
-579.538
-557.656
-535.649
-513.613
-491.635
-469.798
-448.175
-426.834
-405.836
-385.236
-365.084
-345.422
-326.287
-307.713
-289.726
-272.349
-255.6
-239.493
-224.038
-209.24
-195.102
-181.624
-168.802
-156.629
-145.097
-134.195
-123.909
-114.224
-105.125
-96.5923
-88.6079
-81.152
-74.2037
-67.7422
-61.746
-56.1935
-51.0631
-46.3333
-41.983
-37.9914
-34.3382
-31.0038
-27.9693
-25.2166
-22.7283
-20.4882
-18.481
-16.6923
-15.109
-13.7189
-12.5111
-11.4759
-10.6046
-9.88985
-9.32548
-8.90654
-8.62932
-8.49132
-811.952
-810.068
-806.317
-800.736
-793.376
-784.307
-773.609
-761.376
-747.712
-732.729
-716.543
-699.275
-681.048
-661.984
-642.206
-621.832
-600.979
-579.756
-558.269
-536.62
-514.902
-493.204
-471.607
-450.187
-429.014
-408.151
-387.654
-367.576
-347.961
-328.85
-310.278
-292.274
-274.864
-258.067
-241.899
-226.373
-211.496
-197.273
-183.704
-170.787
-158.518
-146.887
-135.886
-125.502
-115.72
-106.526
-97.9004
-89.8263
-82.2839
-75.2528
-68.7121
-62.6406
-57.0168
-51.8192
-47.0264
-42.617
-38.5704
-34.8661
-31.4844
-28.4063
-25.6135
-23.0887
-20.8154
-18.7781
-16.9624
-15.355
-13.9437
-12.7173
-11.666
-10.7812
-10.0553
-9.48205
-9.05653
-8.77495
-8.63478
-805.613
-803.802
-800.196
-794.828
-787.745
-779.008
-768.691
-756.879
-743.668
-729.16
-713.463
-696.689
-678.953
-660.371
-641.059
-621.13
-600.695
-579.862
-558.734
-537.411
-515.984
-494.544
-473.17
-451.942
-430.928
-410.193
-389.797
-369.794
-350.229
-331.147
-312.583
-294.57
-277.135
-260.3
-244.082
-228.496
-213.551
-199.253
-185.604
-172.604
-160.248
-148.53
-137.44
-126.967
-117.098
-107.817
-99.1074
-90.9516
-83.3303
-76.2233
-69.6101
-63.4696
-57.7804
-52.521
-47.6701
-43.2063
-39.1088
-35.3573
-31.9318
-28.8134
-25.9835
-23.4248
-21.1207
-19.0555
-17.2147
-15.5849
-14.1538
-12.9101
-11.8439
-10.9464
-10.2101
-9.62868
-9.19704
-8.91139
-8.76919
-799.988
-798.24
-794.759
-789.574
-782.728
-774.277
-764.289
-752.842
-740.024
-725.93
-710.659
-694.318
-677.015
-658.858
-639.959
-620.425
-600.365
-579.882
-559.079
-538.05
-516.89
-495.686
-474.52
-453.469
-432.605
-411.994
-391.695
-371.765
-352.253
-333.202
-314.652
-296.636
-279.184
-262.318
-246.059
-230.423
-215.419
-201.056
-187.337
-174.263
-161.83
-150.033
-138.864
-128.312
-118.363
-109.004
-100.219
-91.9888
-84.2956
-77.1195
-70.44
-64.2363
-58.4871
-53.171
-48.2666
-43.7527
-39.6084
-35.8133
-32.3475
-29.1918
-26.3277
-23.7376
-21.4049
-19.3139
-17.4498
-15.7993
-14.3498
-13.09
-12.01
-11.1008
-10.3548
-9.76573
-9.32839
-9.03896
-8.89489
-794.995
-793.301
-789.927
-784.9
-778.258
-770.055
-760.351
-749.221
-736.744
-723.01
-708.113
-692.151
-675.228
-657.447
-638.913
-619.731
-600.006
-579.837
-559.325
-538.565
-517.647
-496.659
-475.684
-454.798
-434.074
-413.579
-393.374
-373.516
-354.056
-335.039
-316.506
-298.492
-281.028
-264.139
-247.847
-232.168
-217.114
-202.695
-188.915
-175.775
-163.275
-151.408
-140.167
-129.544
-119.524
-110.095
-101.24
-92.9429
-85.1844
-77.9452
-71.2054
-64.944
-59.1399
-53.7718
-48.8184
-44.2585
-40.0712
-36.236
-32.733
-29.5429
-26.6471
-24.0281
-21.669
-19.5541
-17.6686
-15.9988
-14.5323
-13.2576
-12.1647
-11.2447
-10.4898
-9.89357
-9.45094
-9.15801
-9.01218
-790.563
-788.916
-785.634
-780.743
-774.278
-766.288
-756.832
-745.975
-733.796
-720.376
-705.805
-690.176
-673.586
-656.136
-637.926
-619.057
-599.63
-579.743
-559.493
-538.974
-518.277
-497.486
-476.686
-455.953
-435.359
-414.973
-394.857
-375.069
-355.66
-336.679
-318.165
-300.157
-282.687
-265.78
-249.461
-233.746
-218.65
-204.182
-190.348
-177.152
-164.591
-152.662
-141.358
-130.67
-120.587
-111.094
-102.177
-93.8188
-86.001
-78.7047
-71.9098
-65.5958
-59.7416
-54.326
-49.3277
-44.7257
-40.4989
-36.6269
-33.0897
-29.8679
-26.9431
-24.2974
-21.914
-19.777
-17.8716
-16.1841
-14.7018
-13.4134
-12.3087
-11.3786
-10.6153
-10.0126
-9.56505
-9.26887
-9.12143
-786.63
-785.023
-781.821
-777.047
-770.735
-762.93
-753.687
-743.069
-731.148
-718.002
-703.716
-688.379
-672.083
-654.925
-637.001
-618.41
-599.248
-579.613
-559.599
-539.298
-518.799
-498.189
-477.548
-456.955
-436.482
-416.198
-396.166
-376.445
-357.086
-338.14
-319.648
-301.649
-284.175
-267.256
-250.915
-235.171
-220.038
-205.528
-191.648
-178.402
-165.788
-153.804
-142.443
-131.698
-121.558
-112.008
-103.035
-94.6214
-86.75
-79.4018
-72.5569
-66.195
-60.2951
-54.8362
-49.797
-45.1563
-40.8934
-36.9876
-33.4191
-30.1683
-27.2167
-24.5464
-22.1406
-19.9834
-18.0597
-16.3558
-14.8591
-13.558
-12.4422
-11.5028
-10.732
-10.1231
-9.67109
-9.37192
-9.22298
-783.139
-781.566
-778.433
-773.761
-767.582
-759.937
-750.88
-740.469
-728.773
-715.866
-701.83
-686.748
-670.711
-653.81
-636.14
-617.794
-598.869
-579.459
-559.655
-539.55
-519.231
-498.784
-478.289
-457.824
-437.463
-417.274
-397.32
-377.662
-358.352
-339.441
-320.971
-302.983
-285.51
-268.582
-252.224
-236.455
-221.292
-206.746
-192.826
-179.535
-166.874
-154.841
-143.431
-132.635
-122.443
-112.842
-103.818
-95.3554
-87.4356
-80.0403
-73.1501
-66.7447
-60.8034
-55.305
-50.2284
-45.5526
-41.2566
-37.32
-33.7227
-30.4453
-27.4692
-24.7764
-22.35
-20.1741
-18.2336
-16.5146
-15.0046
-13.6918
-12.566
-11.618
-10.8401
-10.2257
-9.76944
-9.4675
-9.31718
-780.041
-778.499
-775.426
-770.841
-764.777
-757.272
-748.375
-738.145
-726.645
-713.947
-700.129
-685.271
-669.461
-652.787
-635.341
-617.213
-598.498
-579.288
-559.673
-539.744
-519.587
-499.287
-478.925
-458.577
-438.319
-418.217
-398.337
-378.738
-359.475
-340.597
-322.151
-304.175
-286.705
-269.771
-253.4
-237.611
-222.422
-207.845
-193.89
-180.561
-167.859
-155.783
-144.328
-133.487
-123.249
-113.602
-104.533
-96.0254
-88.0619
-80.6242
-73.693
-67.2482
-61.2691
-55.7348
-50.6243
-45.9164
-41.5903
-37.6255
-34.0019
-30.7002
-27.7016
-24.9883
-22.5431
-20.35
-18.3941
-16.6613
-15.139
-13.8154
-12.6803
-11.7245
-10.9401
-10.3205
-9.86047
-9.55598
-9.4044
-777.294
-775.778
-772.756
-768.248
-762.283
-754.899
-746.143
-736.069
-724.741
-712.225
-698.598
-683.937
-668.326
-651.852
-634.603
-616.669
-598.14
-579.108
-559.662
-539.89
-519.879
-499.712
-479.47
-459.229
-439.064
-419.043
-399.231
-379.688
-360.469
-341.625
-323.201
-305.239
-287.773
-270.837
-254.455
-238.65
-223.439
-208.836
-194.851
-181.488
-168.75
-156.636
-145.142
-134.26
-123.981
-114.294
-105.184
-96.6359
-88.6331
-81.1571
-74.1888
-67.7084
-61.6951
-56.1283
-50.9869
-46.2498
-41.8963
-37.9058
-34.2583
-30.9344
-27.9153
-25.1831
-22.7207
-20.5119
-18.5419
-16.7964
-15.2629
-13.9295
-12.7859
-11.8228
-11.0325
-10.4081
-9.94457
-9.63774
-9.48499
-774.858
-773.365
-770.388
-765.946
-760.067
-752.788
-744.154
-734.217
-723.038
-710.682
-697.221
-682.733
-667.297
-650.999
-633.924
-616.161
-597.798
-578.924
-559.628
-539.997
-520.117
-500.07
-479.937
-459.793
-439.714
-419.767
-400.017
-380.526
-361.348
-342.536
-324.135
-306.186
-288.727
-271.789
-255.4
-239.582
-224.353
-209.728
-195.716
-182.324
-169.555
-157.408
-145.878
-134.961
-124.646
-114.922
-105.775
-97.1911
-89.1529
-81.6425
-74.6408
-68.1282
-62.0841
-56.4878
-51.3183
-46.5548
-42.1764
-38.1625
-34.4933
-31.1492
-28.1114
-25.3619
-22.8838
-20.6607
-18.6777
-16.9207
-15.3769
-14.0345
-12.883
-11.9134
-11.1176
-10.4889
-10.0221
-9.71314
-9.55932
-772.699
-771.226
-768.288
-763.903
-758.1
-750.912
-742.384
-732.566
-721.517
-709.3
-695.986
-681.649
-666.367
-650.224
-633.302
-615.69
-597.474
-578.741
-559.579
-540.074
-520.311
-500.371
-480.336
-460.281
-440.279
-420.399
-400.708
-381.264
-362.126
-343.343
-324.964
-307.029
-289.577
-272.64
-256.245
-240.417
-225.173
-210.529
-196.495
-183.078
-170.281
-158.104
-146.544
-135.595
-125.247
-115.49
-106.311
-97.6952
-89.6253
-82.0839
-75.0521
-68.5104
-62.4384
-56.8155
-51.6207
-46.8332
-42.4322
-38.3972
-34.7082
-31.3456
-28.2908
-25.5257
-23.0332
-20.7971
-18.8023
-17.0348
-15.4815
-14.1309
-12.9724
-11.9967
-11.1958
-10.5632
-10.0935
-9.78253
-9.62773
-770.787
-769.331
-766.426
-762.092
-756.353
-749.245
-740.809
-731.096
-720.16
-708.065
-694.879
-680.674
-665.528
-649.52
-632.735
-615.255
-597.169
-578.561
-559.518
-540.125
-520.467
-500.624
-480.677
-460.701
-440.77
-420.952
-401.313
-381.914
-362.812
-344.058
-325.699
-307.779
-290.334
-273.399
-257.001
-241.164
-225.907
-211.247
-197.194
-183.755
-170.934
-158.732
-147.144
-136.167
-125.791
-116.005
-106.797
-98.1519
-90.0536
-82.4844
-75.4257
-68.8579
-62.7608
-57.1138
-51.8962
-47.087
-42.6655
-38.6113
-34.9043
-31.5251
-28.4548
-25.6755
-23.1699
-20.922
-18.9165
-17.1393
-15.5775
-14.2193
-13.0543
-12.0731
-11.2677
-10.6315
-10.159
-9.84627
-9.69058
-769.094
-767.653
-764.778
-760.487
-754.805
-747.766
-739.411
-729.787
-718.951
-706.962
-693.888
-679.799
-664.771
-648.884
-632.217
-614.856
-596.884
-578.387
-559.45
-540.157
-520.592
-500.836
-480.968
-461.064
-441.196
-421.435
-401.844
-382.486
-363.417
-344.689
-326.351
-308.444
-291.008
-274.075
-257.675
-241.831
-226.565
-211.891
-197.821
-184.363
-171.521
-159.296
-147.685
-136.683
-126.281
-116.47
-107.236
-98.5651
-90.4414
-82.8473
-75.7644
-69.1731
-63.0534
-57.3848
-52.1465
-47.3177
-42.8778
-38.8062
-35.083
-31.6887
-28.6044
-25.8121
-23.2948
-21.036
-19.0208
-17.2348
-15.6652
-14.3002
-13.1293
-12.143
-11.3335
-10.694
-10.2191
-9.90471
-9.7482
-767.597
-766.168
-763.319
-759.065
-753.433
-746.454
-738.169
-728.624
-717.874
-705.979
-693.002
-679.015
-664.092
-648.309
-631.748
-614.49
-596.619
-578.22
-559.377
-540.174
-520.692
-501.014
-481.217
-461.377
-441.567
-421.856
-402.309
-382.988
-363.95
-345.247
-326.927
-309.034
-291.606
-274.676
-258.275
-242.427
-227.152
-212.466
-198.382
-184.908
-172.048
-159.803
-148.171
-137.147
-126.723
-116.889
-107.632
-98.9382
-90.7918
-83.1755
-76.0708
-69.4585
-63.3185
-57.6305
-52.3736
-47.5273
-43.0707
-38.9834
-35.2455
-31.8375
-28.7406
-25.9366
-23.4085
-21.14
-19.1159
-17.322
-15.7454
-14.3742
-13.1978
-12.207