/*--------------------------------*- C++ -*----------------------------------*\
  =========                 |
  \\      /  F ield         | OpenFOAM: The Open Source CFD Toolbox
   \\    /   O peration     | Website:  https://openfoam.org
    \\  /    A nd           | Version:  10
     \\/     M anipulation  |
\*---------------------------------------------------------------------------*/
FoamFile
{
    format      ascii;
    class       volScalarField;
    location    "434";
    object      gradTz;
}
// * * * * * * * * * * * * * * * * * * * * * * * * * * * * * * * * * * * * * //

dimensions      [0 -1 0 1 0 0 0];

internalField   nonuniform List<scalar> 
11250
(
-14342.3
-4137.91
-1517.94
-714.825
-410.687
-269.735
-193.094
-146.361
-115.442
-93.7139
-77.7124
-65.4772
-55.8288
-48.0237
-41.5752
-36.1543
-31.5327
-27.5483
-24.0831
-21.0499
-18.3825
-16.0294
-13.9503
-12.1121
-10.4876
-9.05375
-7.79049
-6.68027
-5.70737
-4.85761
-4.11808
-3.47698
-2.92349
-2.44767
-2.04045
-1.69351
-1.39932
-1.15104
-0.942513
-0.768233
-0.623292
-0.503351
-0.404595
-0.32369
-0.257744
-0.204265
-0.161115
-0.126476
-0.0988124
-0.0768312
-0.0594544
-0.0457877
-0.0350937
-0.0267685
-0.0203203
-0.0153515
-0.011542
-0.0086362
-0.00643096
-0.00476587
-0.00351497
-0.00257999
-0.00188468
-0.00137023
-0.000991538
-0.000714228
-0.000512254
-0.000366
-0.000260797
-0.00018576
-0.000132889
-9.63903e-05
-7.21648e-05
-5.74327e-05
-5.04758e-05
-8230.99
-4829.16
-2736.76
-1645.33
-1068.72
-744.746
-549.244
-423.152
-337.039
-275.335
-229.31
-193.801
-165.618
-142.707
-123.707
-107.687
-93.998
-82.1743
-71.8764
-62.8513
-54.9067
-47.8931
-41.6917
-36.206
-31.3559
-27.0733
-23.2991
-19.9812
-17.073
-14.5324
-12.321
-10.4036
-8.74808
-7.32471
-6.10641
-5.06838
-4.1881
-3.44514
-2.82111
-2.29954
-1.86574
-1.50676
-1.21117
-0.968997
-0.771599
-0.611512
-0.482342
-0.378649
-0.295832
-0.230027
-0.178005
-0.137089
-0.105072
-0.0801469
-0.0608414
-0.0459645
-0.0345587
-0.0258585
-0.0192558
-0.0142702
-0.0105248
-0.00772525
-0.00564333
-0.00410293
-0.00296902
-0.00213867
-0.00153389
-0.00109595
-0.000780939
-0.000556247
-0.000397929
-0.000288638
-0.000216097
-0.000171983
-0.000151151
-5520.97
-4210.42
-2954.1
-2060.5
-1473.62
-1090.85
-835.586
-659.62
-533.931
-441.037
-370.205
-314.672
-270.059
-233.457
-202.883
-176.96
-154.709
-135.421
-118.573
-103.774
-90.7209
-79.1798
-68.9621
-59.9141
-51.9073
-44.832
-38.5927
-33.1049
-28.2926
-24.0869
-20.425
-17.249
-14.5061
-12.1473
-10.1279
-8.40707
-6.94752
-5.71549
-4.68056
-3.81545
-3.09587
-2.50034
-2.00993
-1.60812
-1.28058
-1.01493
-0.800578
-0.628493
-0.491047
-0.381829
-0.295484
-0.22757
-0.174426
-0.133052
-0.101005
-0.0763089
-0.0573744
-0.0429311
-0.0319695
-0.0236926
-0.0174744
-0.0128265
-0.00936995
-0.00681242
-0.00492975
-0.00355108
-0.00254693
-0.00181978
-0.00129673
-0.000923642
-0.000660764
-0.00047929
-0.000358837
-0.000285587
-0.000250997
-4120.57
-3536.54
-2807.8
-2168.12
-1673.61
-1308.72
-1041.97
-845.234
-697.538
-584.279
-495.496
-424.409
-366.367
-318.139
-277.451
-242.678
-212.64
-186.469
-163.515
-143.283
-125.391
-109.534
-95.4696
-82.9958
-71.9432
-62.1659
-53.536
-45.9395
-39.2736
-33.4448
-28.3671
-23.9614
-20.1549
-16.8805
-14.0764
-11.6864
-9.65872
-7.94682
-6.50854
-5.30607
-4.30575
-3.47776
-2.79585
-2.23708
-1.78155
-1.41206
-1.11389
-0.874504
-0.683291
-0.531337
-0.4112
-0.316702
-0.242752
-0.185177
-0.14058
-0.106211
-0.0798589
-0.059757
-0.0445004
-0.03298
-0.0243248
-0.0178552
-0.0130438
-0.00948365
-0.00686289
-0.00494368
-0.00354579
-0.00253352
-0.00180534
-0.00128594
-0.000919963
-0.000667312
-0.000499614
-0.000397632
-0.000349475
-3302.89
-3006.09
-2571.21
-2129.39
-1742.89
-1427.41
-1177.44
-981.003
-826.028
-702.491
-602.665
-520.803
-452.686
-395.228
-346.164
-303.824
-266.962
-234.64
-206.143
-180.92
-158.535
-138.641
-120.953
-105.234
-91.2835
-78.9252
-68.0042
-58.3815
-49.9304
-42.5351
-36.0886
-30.4922
-25.6547
-21.4916
-17.9253
-14.8844
-12.3039
-10.1247
-8.29341
-6.76204
-5.48787
-4.43302
-3.56415
-2.8521
-2.27152
-1.80055
-1.42045
-1.11525
-0.871452
-0.677693
-0.524492
-0.40398
-0.309665
-0.23623
-0.179345
-0.135504
-0.101888
-0.0762435
-0.0567797
-0.0420817
-0.0310388
-0.0227841
-0.0166449
-0.0121022
-0.00875805
-0.006309
-0.00452515
-0.00323335
-0.00230408
-0.00164122
-0.00117415
-0.000851711
-0.000637685
-0.000507529
-0.000446067
-2780.36
-2612.09
-2339.97
-2033.83
-1739.73
-1479.29
-1258.22
-1074.28
-922.212
-796.282
-691.326
-603.071
-528.125
-463.853
-408.23
-359.7
-317.07
-279.416
-246.02
-216.313
-189.842
-166.236
-145.19
-126.443
-109.771
-94.9784
-81.8876
-70.339
-60.1862
-51.2938
-43.5365
-36.7977
-30.9692
-25.9508
-21.6498
-17.9812
-14.8668
-12.2359
-10.0244
-8.17468
-6.63526
-5.36056
-4.31041
-3.44964
-2.7477
-2.17821
-1.71854
-1.3494
-1.05449
-0.820096
-0.634745
-0.48893
-0.374804
-0.285938
-0.217094
-0.164033
-0.123345
-0.092304
-0.0687429
-0.0509501
-0.0375814
-0.0275877
-0.0201548
-0.0146546
-0.0106055
-0.00764004
-0.00547999
-0.00391571
-0.0027904
-0.00198768
-0.00142205
-0.00103156
-0.000772356
-0.000614724
-0.000540288
-2424.08
-2319.95
-2140.84
-1924.39
-1701.2
-1490.22
-1300.46
-1134.44
-991.204
-868.24
-762.627
-671.568
-592.622
-523.749
-463.293
-409.928
-362.598
-320.459
-282.839
-249.192
-219.074
-192.115
-168.004
-146.47
-127.278
-110.216
-95.0931
-81.7337
-69.9751
-59.6659
-50.6647
-42.8393
-36.0666
-30.2318
-25.2285
-20.9588
-17.3328
-14.2686
-11.692
-9.53623
-7.74167
-6.25537
-5.03062
-4.02654
-3.2076
-2.54306
-2.0066
-1.57574
-1.23148
-0.957817
-0.741397
-0.571123
-0.437841
-0.33405
-0.253637
-0.191655
-0.144124
-0.107859
-0.0803311
-0.0595416
-0.0439204
-0.0322423
-0.0235563
-0.0171285
-0.0123962
-0.00893036
-0.0064057
-0.00457731
-0.00326196
-0.00232366
-0.00166247
-0.00120599
-0.000902983
-0.000718709
-0.000631692
-2169.58
-2100.48
-1976.79
-1819.54
-1648.47
-1478.1
-1317.29
-1170.37
-1038.69
-921.843
-818.6
-727.414
-646.731
-575.13
-511.373
-454.418
-403.398
-357.597
-316.423
-279.385
-246.072
-216.134
-189.266
-165.202
-143.703
-124.552
-107.547
-92.502
-79.243
-67.6054
-57.4345
-48.5848
-40.9198
-34.3119
-28.6425
-23.8019
-19.6893
-16.2124
-13.2877
-10.8399
-8.80163
-7.11303
-5.72125
-4.57999
-3.64897
-2.89336
-2.28326
-1.79319
-1.40156
-1.09021
-0.843947
-0.650173
-0.498482
-0.380344
-0.288807
-0.218244
-0.164128
-0.122837
-0.0914915
-0.0678171
-0.0500272
-0.0367271
-0.026834
-0.0195126
-0.0141222
-0.0101742
-0.00729814
-0.0052152
-0.00371667
-0.00264766
-0.00189433
-0.00137423
-0.00102899
-0.000819024
-0.000719873
-1981.49
-1932.96
-1843.74
-1726.08
-1592.74
-1454.31
-1318.33
-1189.42
-1069.93
-960.699
-861.636
-772.141
-691.402
-618.555
-552.774
-493.31
-439.509
-390.805
-346.713
-306.816
-270.752
-238.206
-208.894
-182.563
-158.979
-137.923
-119.193
-102.596
-87.9486
-75.0768
-63.8156
-54.0083
-45.507
-38.1731
-31.8768
-26.498
-21.9258
-18.0587
-14.8045
-12.0799
-9.8105
-7.92983
-6.37933
-5.10762
-4.06994
-3.2276
-2.54735
-2.00083
-1.56402
-1.21671
-0.941964
-0.725751
-0.556475
-0.424626
-0.322456
-0.24369
-0.183276
-0.137176
-0.102178
-0.0757426
-0.0558767
-0.0410235
-0.0299745
-0.0217973
-0.0157764
-0.0113664
-0.00815369
-0.00582679
-0.00415268
-0.00295837
-0.00211671
-0.00153561
-0.00114987
-0.000915265
-0.000804479
-1838.92
-1803.19
-1736.25
-1645.57
-1539.53
-1425.73
-1310.2
-1197.18
-1089.33
-988.11
-894.117
-807.422
-727.781
-654.793
-587.994
-526.917
-471.116
-420.183
-373.752
-331.489
-293.096
-258.301
-226.851
-198.513
-173.064
-150.293
-129.998
-111.984
-96.063
-82.0548
-69.7858
-59.0906
-49.812
-41.8014
-34.9196
-29.0372
-24.0342
-19.8008
-16.2369
-13.2519
-10.7646
-8.70277
-7.00244
-5.60747
-4.46896
-3.54455
-2.79789
-2.1979
-1.71828
-1.33686
-1.03509
-0.797581
-0.611607
-0.466736
-0.354463
-0.267899
-0.201499
-0.150826
-0.112352
-0.0832895
-0.0614478
-0.0451162
-0.0329667
-0.0239744
-0.017353
-0.0125028
-0.00896928
-0.00640989
-0.00456843
-0.00325468
-0.00232882
-0.00168956
-0.00126519
-0.00100709
-0.000885208
-1728.77
-1701.37
-1649.35
-1577.43
-1491.25
-1396.28
-1297.22
-1197.73
-1100.38
-1006.88
-918.217
-834.89
-757.066
-684.705
-617.644
-555.661
-498.505
-445.922
-397.66
-353.478
-313.144
-276.436
-243.138
-213.043
-185.945
-161.644
-139.942
-120.648
-103.57
-88.5238
-75.3312
-63.8195
-53.8236
-45.1872
-37.7628
-31.4125
-26.0087
-21.4339
-17.5807
-14.3522
-11.6611
-9.42959
-7.58875
-6.07809
-4.84484
-3.84329
-3.03413
-2.38381
-1.86386
-1.45029
-1.12305
-0.865446
-0.663713
-0.506547
-0.384731
-0.290799
-0.21874
-0.163743
-0.121983
-0.090435
-0.0667236
-0.0489927
-0.0358013
-0.0260372
-0.018847
-0.0135799
-0.00974243
-0.00696274
-0.00496267
-0.00353569
-0.00253
-0.00183559
-0.0013746
-0.00109422
-0.000961816
-1642.41
-1620.65
-1578.89
-1520.28
-1448.69
-1368.1
-1282.16
-1193.91
-1105.7
-1019.28
-935.799
-856.029
-780.41
-709.169
-642.381
-580.029
-522.033
-468.276
-418.619
-372.908
-330.981
-292.667
-257.792
-226.175
-197.634
-171.98
-149.027
-128.584
-110.463
-94.4778
-80.4455
-68.1886
-57.5363
-48.3254
-40.4015
-33.6198
-27.8456
-22.9546
-18.8334
-15.3789
-12.4983
-10.1088
-8.13699
-6.51843
-5.19675
-4.12313
-3.25556
-2.55814
-2.00043
-1.55676
-1.20563
-0.929188
-0.712671
-0.543964
-0.413188
-0.312335
-0.234959
-0.175898
-0.131047
-0.0971618
-0.0716914
-0.0526437
-0.0384715
-0.0279807
-0.0202549
-0.0145951
-0.0104713
-0.00748399
-0.00533443
-0.00380073
-0.00271977
-0.00197336
-0.00147783
-0.00117644
-0.00103411
-1573.95
-1556.1
-1521.6
-1472.59
-1411.82
-1342.24
-1266.67
-1187.64
-1107.23
-1027.07
-948.403
-872.127
-798.861
-729.02
-662.86
-600.527
-542.084
-487.537
-436.847
-389.943
-346.727
-307.082
-270.875
-237.954
-208.161
-181.324
-157.265
-135.802
-116.749
-99.9195
-85.1295
-72.1978
-60.949
-51.2145
-42.8343
-35.6575
-29.5433
-24.3618
-19.9937
-16.3307
-13.275
-10.7395
-8.64649
-6.92794
-5.52423
-4.38369
-3.46184
-2.72064
-2.12779
-1.65608
-1.28271
-0.988707
-0.758403
-0.578929
-0.439788
-0.332473
-0.250129
-0.187269
-0.13953
-0.103459
-0.0763428
-0.0560629
-0.0409727
-0.0298016
-0.0215743
-0.0155467
-0.0111545
-0.0079727
-0.00568305
-0.00404931
-0.00289778
-0.00210262
-0.0015747
-0.00125361
-0.00110197
-1519.19
-1504.14
-1474.87
-1432.91
-1380.25
-1319.12
-1251.75
-1180.22
-1106.33
-1031.6
-957.263
-884.266
-813.338
-745.019
-679.7
-617.652
-559.056
-504.018
-452.588
-404.77
-360.527
-319.792
-282.471
-248.444
-217.574
-189.709
-164.683
-142.321
-122.441
-104.859
-89.3904
-75.8521
-64.0651
-53.8569
-45.0626
-37.5264
-31.1025
-25.6556
-21.0617
-17.2076
-13.9913
-11.3215
-9.11707
-7.30644
-5.82712
-4.62484
-3.65287
-2.8712
-2.24586
-1.74821
-1.35423
-1.04396
-0.800873
-0.611411
-0.464509
-0.351194
-0.264236
-0.197848
-0.147423
-0.10932
-0.0806733
-0.0592469
-0.0433025
-0.0314981
-0.0228038
-0.0164335
-0.0117915
-0.00842838
-0.00600816
-0.00428116
-0.00306385
-0.00222323
-0.00166511
-0.00132563
-0.00116531
-1475.11
-1462.1
-1436.67
-1399.94
-1353.41
-1298.81
-1237.92
-1172.44
-1103.97
-1033.88
-963.346
-893.331
-824.622
-757.84
-693.469
-631.875
-573.331
-518.028
-466.091
-417.589
-372.54
-330.922
-292.678
-257.72
-225.934
-197.184
-171.318
-148.168
-127.56
-109.313
-93.2409
-79.161
-66.8919
-56.258
-47.0906
-39.2298
-32.5253
-26.8377
-22.0385
-18.0105
-14.6478
-11.8555
-9.54908
-7.65418
-6.10559
-4.8467
-3.82872
-3.00988
-2.35467
-1.83315
-1.42021
-1.09495
-0.840085
-0.641415
-0.487353
-0.368499
-0.277281
-0.207633
-0.154727
-0.114744
-0.0846823
-0.0621954
-0.0454605
-0.0330699
-0.0239431
-0.0172555
-0.0123819
-0.00885091
-0.00630968
-0.00449623
-0.00321793
-0.00233514
-0.00174901
-0.00139249
-0.00122411
-1439.45
-1427.94
-1405.36
-1372.57
-1330.73
-1281.19
-1225.41
-1164.83
-1100.83
-1034.65
-967.397
-900.035
-833.367
-768.063
-704.669
-643.625
-585.272
-529.87
-477.606
-428.604
-382.93
-340.606
-301.606
-265.871
-233.31
-203.804
-177.212
-153.379
-132.135
-113.303
-96.6981
-82.138
-69.44
-58.4261
-48.9247
-40.7725
-33.8157
-27.911
-22.9264
-18.7411
-15.2458
-12.3423
-9.94329
-7.97175
-6.36008
-5.0496
-3.98965
-3.13686
-2.45436
-1.91102
-1.48073
-1.14174
-0.876082
-0.66897
-0.50834
-0.384404
-0.289275
-0.216632
-0.161446
-0.119736
-0.0883729
-0.0649105
-0.0474481
-0.0345179
-0.0249929
-0.0180132
-0.0129263
-0.00924053
-0.00658777
-0.00469463
-0.00336008
-0.00243842
-0.00182646
-0.00145421
-0.0012784
-1410.48
-1400.1
-1379.68
-1349.88
-1311.64
-1266.05
-1214.32
-1157.68
-1097.34
-1034.42
-969.983
-904.94
-840.106
-776.176
-713.741
-653.288
-595.212
-539.827
-487.371
-438.014
-391.866
-348.98
-309.366
-272.989
-239.777
-209.628
-182.417
-157.994
-136.198
-116.854
-99.7825
-84.7996
-71.7224
-60.3715
-50.573
-42.161
-34.9787
-28.8797
-23.7287
-19.402
-15.7872
-12.7834
-10.3009
-8.26003
-6.59129
-5.23406
-4.13605
-3.25246
-2.54517
-1.98199
-1.53591
-1.18443
-0.908938
-0.694131
-0.527511
-0.398939
-0.30024
-0.224863
-0.167593
-0.124304
-0.0917513
-0.0673966
-0.0492686
-0.0358445
-0.025955
-0.0187077
-0.0134254
-0.00959782
-0.00684284
-0.00487664
-0.00349053
-0.00253321
-0.00189755
-0.00151088
-0.00132826
-1386.9
-1377.36
-1358.58
-1331.09
-1295.63
-1253.13
-1204.61
-1151.14
-1093.79
-1033.59
-971.529
-908.487
-845.272
-782.591
-721.06
-661.2
-603.448
-548.159
-495.61
-446.011
-399.506
-356.182
-316.073
-279.167
-245.412
-214.723
-186.984
-162.056
-139.783
-119.996
-102.518
-87.1645
-73.7544
-62.1065
-52.0455
-43.4032
-36.0206
-29.7486
-24.4492
-19.9961
-16.2744
-13.1809
-10.6233
-8.5202
-6.80011
-5.40078
-4.26847
-3.35708
-2.62741
-2.04629
-1.58593
-1.22315
-0.938755
-0.716976
-0.544926
-0.412148
-0.310207
-0.232347
-0.173185
-0.128462
-0.0948267
-0.0696604
-0.0509268
-0.0370532
-0.0268318
-0.0193408
-0.0138805
-0.00992366
-0.00707551
-0.00504271
-0.00360958
-0.00261974
-0.00196246
-0.00156263
-0.00137379
-1367.65
-1358.78
-1341.25
-1315.53
-1282.25
-1242.18
-1196.21
-1145.28
-1090.37
-1032.42
-972.349
-911.018
-849.212
-787.644
-726.943
-667.655
-610.245
-555.099
-502.528
-452.772
-406.006
-362.341
-321.836
-284.499
-250.295
-219.153
-190.967
-165.609
-142.928
-122.759
-104.928
-89.2533
-75.5524
-63.6445
-53.3529
-44.5079
-36.9484
-30.5233
-25.0925
-20.5272
-16.7104
-13.5368
-10.9123
-8.75362
-6.98761
-5.5506
-4.38754
-3.45123
-2.70145
-2.10423
-1.63103
-1.25807
-0.965662
-0.7376
-0.560655
-0.424082
-0.319218
-0.239115
-0.178244
-0.132224
-0.0976107
-0.0717103
-0.0524288
-0.0381483
-0.0276265
-0.0199146
-0.0142931
-0.0102192
-0.00728659
-0.0051934
-0.00371762
-0.00269829
-0.0020214
-0.00160962
-0.00141514
-1351.94
-1343.57
-1327.02
-1302.67
-1271.08
-1232.93
-1188.99
-1140.11
-1087.18
-1031.08
-972.678
-912.794
-852.203
-791.612
-731.658
-672.902
-615.832
-560.856
-508.311
-458.462
-411.507
-367.581
-326.761
-289.075
-254.503
-222.983
-194.423
-168.7
-145.671
-125.175
-107.04
-91.0873
-77.1342
-64.9998
-54.5069
-45.4845
-37.7698
-31.2101
-25.6634
-20.999
-17.0982
-13.8537
-11.1699
-8.96182
-7.15499
-5.68444
-4.494
-3.53545
-2.76774
-2.15613
-1.67145
-1.28939
-0.989804
-0.756115
-0.574781
-0.434806
-0.327317
-0.245202
-0.182795
-0.135609
-0.100117
-0.0735562
-0.0537817
-0.0391351
-0.0283427
-0.020432
-0.0146652
-0.0104858
-0.00747703
-0.0053294
-0.00381515
-0.00276921
-0.00207462
-0.00165208
-0.0014525
-1339.1
-1331.12
-1315.33
-1292.06
-1261.8
-1225.16
-1182.83
-1135.61
-1084.29
-1029.7
-972.682
-914.015
-854.46
-794.716
-735.424
-677.155
-620.408
-565.613
-513.125
-463.228
-416.141
-372.017
-330.95
-292.983
-258.108
-226.276
-197.403
-171.373
-148.049
-127.275
-108.88
-92.6883
-78.5176
-66.1873
-55.5197
-46.3428
-38.4928
-31.8154
-26.1671
-21.4159
-17.4411
-14.1343
-11.3981
-9.14648
-7.30357
-5.80334
-4.58864
-3.61038
-2.82675
-2.20236
-1.70748
-1.31732
-1.01134
-0.772643
-0.587398
-0.444388
-0.334557
-0.250645
-0.186866
-0.138639
-0.10236
-0.0752094
-0.0549938
-0.0400194
-0.0289847
-0.0208959
-0.0149989
-0.0107249
-0.00764792
-0.00545145
-0.00390271
-0.00283289
-0.00212243
-0.00169021
-0.00148607
-1328.62
-1320.94
-1305.73
-1283.31
-1254.1
-1218.65
-1177.62
-1131.72
-1081.7
-1028.36
-972.482
-914.834
-856.155
-797.139
-738.425
-680.59
-624.145
-569.53
-517.116
-467.204
-420.027
-375.754
-334.495
-296.303
-261.182
-229.093
-199.959
-173.673
-150.101
-129.09
-110.474
-94.078
-79.7207
-67.2218
-56.4034
-47.0928
-39.1254
-32.3458
-26.6091
-21.782
-17.7427
-14.3812
-11.5992
-9.30932
-7.4347
-5.90837
-4.6723
-3.67667
-2.87898
-2.2433
-1.73941
-1.34209
-1.03046
-0.787314
-0.598603
-0.452901
-0.340993
-0.255485
-0.190488
-0.141336
-0.104358
-0.0766817
-0.0560736
-0.0408074
-0.029557
-0.0213096
-0.0152966
-0.0109383
-0.00780042
-0.00556041
-0.00398089
-0.00288977
-0.00216514
-0.00172429
-0.00151606
-1320.05
-1312.61
-1297.87
-1276.11
-1247.73
-1213.23
-1173.23
-1128.39
-1079.43
-1027.1
-972.164
-915.362
-857.42
-799.024
-740.809
-683.358
-627.185
-572.742
-520.412
-470.506
-423.271
-378.889
-337.48
-299.109
-263.789
-231.489
-202.14
-175.64
-151.86
-130.65
-111.848
-95.2775
-80.7611
-68.1179
-57.1701
-47.7446
-39.6759
-32.8079
-26.9947
-22.1018
-18.0064
-14.5974
-11.7754
-9.4521
-7.54978
-6.00061
-4.74583
-3.73497
-2.92496
-2.27937
-1.76755
-1.36393
-1.04732
-0.800265
-0.608499
-0.460424
-0.346682
-0.259766
-0.193692
-0.143723
-0.106127
-0.0779858
-0.0570303
-0.0415058
-0.0300644
-0.0216765
-0.0155607
-0.0111276
-0.00793579
-0.00565714
-0.00405032
-0.0029403
-0.00220309
-0.00175457
-0.00154273
-1313.07
-1305.81
-1291.44
-1270.2
-1242.47
-1208.73
-1169.55
-1125.56
-1077.46
-1025.95
-971.786
-915.685
-858.359
-800.486
-742.699
-685.581
-629.651
-575.369
-523.123
-473.238
-425.969
-381.507
-339.982
-301.469
-265.989
-233.518
-203.992
-177.315
-153.361
-131.985
-113.024
-96.3073
-81.6558
-68.8899
-57.8316
-48.3078
-40.1523
-33.2083
-27.3292
-22.3795
-18.2356
-14.7855
-11.9289
-9.5766
-7.65022
-6.08118
-4.8101
-3.78596
-2.9652
-2.31095
-1.79221
-1.38308
-1.06211
-0.811635
-0.617191
-0.467035
-0.351684
-0.26353
-0.196512
-0.145823
-0.107684
-0.0791345
-0.0578734
-0.0421215
-0.0305118
-0.0220001
-0.0157937
-0.0112947
-0.00805528
-0.00574256
-0.00411164
-0.00298493
-0.00223662
-0.00178134
-0.0015663
-1307.38
-1300.27
-1286.18
-1265.36
-1238.14
-1205
-1166.48
-1123.17
-1075.76
-1024.92
-971.389
-915.865
-859.051
-801.617
-744.193
-687.362
-631.646
-577.509
-525.346
-475.489
-428.201
-383.683
-342.07
-303.446
-267.837
-235.227
-205.556
-178.733
-154.635
-133.119
-114.027
-97.1865
-82.4212
-69.5514
-58.3993
-48.7917
-40.5622
-33.5533
-27.6177
-22.6194
-18.4338
-14.9483
-12.0618
-9.68456
-7.73738
-6.15115
-4.86597
-3.83032
-3.00024
-2.33847
-1.8137
-1.39978
-1.07502
-0.821562
-0.624783
-0.472812
-0.356057
-0.266824
-0.198979
-0.147663
-0.109048
-0.0801409
-0.0586122
-0.0426612
-0.0309042
-0.0222839
-0.0159981
-0.0114414
-0.00816019
-0.00581757
-0.00416551
-0.00302416
-0.0022661
-0.00180488
-0.00158702
-1302.75
-1295.76
-1281.9
-1261.4
-1234.59
-1201.93
-1163.93
-1121.17
-1074.31
-1024.02
-970.999
-915.948
-859.557
-802.489
-745.371
-688.785
-633.255
-579.246
-527.162
-477.337
-430.043
-385.484
-343.805
-305.093
-269.382
-236.659
-206.871
-179.927
-155.71
-134.079
-114.877
-97.9333
-83.0723
-70.115
-58.8839
-49.2054
-40.9131
-33.849
-27.8653
-22.8254
-18.6042
-15.0884
-12.1764
-9.77765
-7.8126
-6.2116
-4.91427
-3.8687
-3.03056
-2.3623
-1.83233
-1.41427
-1.08623
-0.830181
-0.631379
-0.477833
-0.359859
-0.269689
-0.201126
-0.149264
-0.110236
-0.0810178
-0.0592563
-0.0431319
-0.0312464
-0.0225316
-0.0161765
-0.0115694
-0.00825182
-0.0058831
-0.00421258
-0.00305844
-0.00229187
-0.00182546
-0.00160515
-1299
-1292.1
-1278.41
-1258.17
-1231.69
-1199.4
-1161.82
-1119.5
-1073.09
-1023.23
-970.63
-915.967
-859.924
-803.16
-746.298
-689.919
-634.548
-580.653
-528.64
-478.849
-431.555
-386.968
-345.239
-306.46
-270.668
-237.855
-207.97
-180.928
-156.614
-134.888
-115.594
-98.5643
-83.6234
-70.5928
-59.2952
-49.5571
-41.2117
-34.1009
-28.0766
-23.0014
-18.75
-15.2084
-12.2745
-9.85749
-7.87717
-6.26352
-4.95579
-3.90171
-3.05667
-2.38284
-1.84839
-1.42676
-1.0959
-0.837623
-0.637078
-0.482173
-0.363148
-0.272167
-0.202985
-0.15065
-0.111265
-0.0817778
-0.0598146
-0.04354
-0.0315433
-0.0227465
-0.0163314
-0.0116806
-0.0083314
-0.00594004
-0.00425349
-0.00308824
-0.00231427
-0.00184336
-0.00162092
-1295.95
-1289.13
-1275.58
-1255.54
-1229.32
-1197.33
-1160.08
-1118.11
-1072.06
-1022.56
-970.293
-915.945
-860.187
-803.674
-747.025
-690.82
-635.584
-581.788
-529.839
-480.081
-432.792
-388.187
-346.421
-307.588
-271.732
-238.847
-208.885
-181.764
-157.369
-135.565
-116.196
-99.0947
-84.0874
-70.9957
-59.6425
-49.8545
-41.4646
-34.3146
-28.2559
-23.151
-18.874
-15.3105
-12.3582
-9.9256
-7.9323
-6.30789
-4.99129
-3.92997
-3.07903
-2.40043
-1.86217
-1.43748
-1.1042
-0.844016
-0.641975
-0.485905
-0.365977
-0.274301
-0.204585
-0.151845
-0.112152
-0.0824328
-0.060296
-0.0438921
-0.0317995
-0.0229321
-0.0164652
-0.0117766
-0.00840015
-0.00598924
-0.00428885
-0.00311401
-0.00233366
-0.00185885
-0.00163456
-1293.5
-1286.72
-1273.29
-1253.41
-1227.39
-1195.65
-1158.65
-1116.97
-1071.2
-1021.98
-969.992
-915.9
-860.375
-804.067
-747.595
-691.534
-636.413
-582.701
-530.808
-481.08
-433.8
-389.184
-347.39
-308.517
-272.61
-239.667
-209.643
-182.457
-157.997
-136.129
-116.698
-99.5383
-84.476
-71.3337
-59.9343
-50.1046
-41.6776
-34.4947
-28.4073
-23.2774
-18.9788
-15.397
-12.4291
-9.98338
-7.97911
-6.34559
-5.02149
-3.95401
-3.09807
-2.41542
-1.87391
-1.44663
-1.11128
-0.849476
-0.64616
-0.489096
-0.368397
-0.276126
-0.205956
-0.152868
-0.112912
-0.0829944
-0.0607089
-0.0441941
-0.0320193
-0.0230913
-0.01658
-0.0118591
-0.00845923
-0.00603153
-0.00431925
-0.00313618
-0.00235033
-0.00187217
-0.00164631
-1291.51
-1284.79
-1271.44
-1251.69
-1225.83
-1194.27
-1157.49
-1116.03
-1070.49
-1021.5
-969.728
-915.842
-860.506
-804.367
-748.039
-692.099
-637.073
-583.433
-531.589
-481.889
-434.618
-389.995
-348.181
-309.277
-273.331
-240.342
-210.268
-183.03
-158.517
-136.597
-117.115
-99.9073
-84.7999
-71.6158
-60.1782
-50.314
-41.8561
-34.6459
-28.5344
-23.3837
-19.0671
-15.4699
-12.4889
-10.0321
-8.01864
-6.37746
-5.04703
-3.97436
-3.11419
-2.42813
-1.88387
-1.45439
-1.1173
-0.854116
-0.649718
-0.49181
-0.370456
-0.277681
-0.207123
-0.15374
-0.11356
-0.0834733
-0.0610612
-0.0444519
-0.032207
-0.0232273
-0.0166781
-0.0119296
-0.00850973
-0.00606769
-0.00434526
-0.00315514
-0.0023646
-0.00188358
-0.00165636
-1289.92
-1283.23
-1269.95
-1250.3
-1224.57
-1193.16
-1156.54
-1115.26
-1069.9
-1021.09
-969.499
-915.78
-860.597
-804.594
-748.385
-692.544
-637.598
-584.017
-532.215
-482.541
-435.279
-390.653
-348.825
-309.897
-273.92
-240.895
-210.781
-183.501
-158.946
-136.983
-117.46
-100.213
-85.0684
-71.85
-60.3809
-50.4882
-42.0048
-34.772
-28.6406
-23.4725
-19.141
-15.531
-12.539
-10.0731
-8.05186
-6.40425
-5.06852
-3.9915
-3.12778
-2.43885
-1.89227
-1.46095
-1.12238
-0.858037
-0.652727
-0.494106
-0.372199
-0.278997
-0.208111
-0.154478
-0.114109
-0.0838795
-0.06136
-0.0446707
-0.0323664
-0.0233429
-0.0167615
-0.0119895
-0.00855266
-0.00609844
-0.00436738
-0.00317127
-0.00237674
-0.00189329
-0.00166492
-1288.64
-1281.98
-1268.76
-1249.18
-1223.55
-1192.26
-1155.78
-1114.63
-1069.42
-1020.76
-969.304
-915.718
-860.659
-804.767
-748.654
-692.894
-638.013
-584.483
-532.717
-483.064
-435.812
-391.185
-349.346
-310.4
-274.399
-241.346
-211.2
-183.887
-159.297
-137.3
-117.744
-100.465
-85.29
-72.0435
-60.5487
-50.6326
-42.1282
-34.8767
-28.7289
-23.5465
-19.2025
-15.5818
-12.5808
-10.1072
-8.07961
-6.42666
-5.0865
-4.00585
-3.13917
-2.44784
-1.89932
-1.46645
-1.12665
-0.861333
-0.655257
-0.496038
-0.373666
-0.280105
-0.208944
-0.155101
-0.114572
-0.0842222
-0.0616123
-0.0448554
-0.032501
-0.0234405
-0.0168319
-0.0120401
-0.00858897
-0.00612445
-0.0043861
-0.00318493
-0.00238703
-0.00190152
-0.00167217
-1287.62
-1280.98
-1267.8
-1248.28
-1222.73
-1191.54
-1155.16
-1114.12
-1069.02
-1020.48
-969.138
-915.66
-860.7
-804.897
-748.862
-693.168
-638.341
-584.853
-533.116
-483.482
-436.239
-391.613
-349.766
-310.807
-274.787
-241.711
-211.541
-184.201
-159.584
-137.559
-117.976
-100.671
-85.4719
-72.2026
-60.6867
-50.7515
-42.23
-34.9631
-28.8018
-23.6076
-19.2535
-15.624
-12.6156
-10.1356
-8.10268
-6.4453
-5.10147
-4.01781
-3.14867
-2.45533
-1.90521
-1.47105
-1.13022
-0.864089
-0.657373
-0.497655
-0.374895
-0.281034
-0.209643
-0.155623
-0.114961
-0.0845098
-0.061824
-0.0450105
-0.0326141
-0.0235225
-0.0168912
-0.0120827
-0.00861951
-0.00614634
-0.00440185
-0.00319643
-0.00239569
-0.00190845
-0.00167828
-1286.81
-1280.18
-1267.04
-1247.57
-1222.08
-1190.96
-1154.66
-1113.71
-1068.7
-1020.25
-969
-915.607
-860.726
-804.995
-749.023
-693.383
-638.6
-585.145
-533.434
-483.816
-436.581
-391.955
-350.104
-311.134
-275.1
-242.007
-211.817
-184.456
-159.817
-137.77
-118.165
-100.839
-85.6205
-72.3327
-60.7998
-50.8491
-42.3135
-35.0342
-28.8619
-23.658
-19.2955
-15.6589
-12.6442
-10.1591
-8.12176
-6.46072
-5.11387
-4.02772
-3.15654
-2.46155
-1.9101
-1.47486
-1.13319
-0.866381
-0.659135
-0.499001
-0.375919
-0.281808
-0.210225
-0.156059
-0.115285
-0.0847498
-0.0620009
-0.0451401
-0.0327086
-0.0235911
-0.0169407
-0.0121184
-0.00864506
-0.00616466
-0.00441505
-0.00320606
-0.00240295
-0.00191425
-0.0016834
-1286.16
-1279.55
-1266.43
-1247
-1221.56
-1190.49
-1154.26
-1113.38
-1068.45
-1020.07
-968.885
-915.56
-860.742
-805.068
-749.147
-693.55
-638.802
-585.376
-533.685
-484.081
-436.853
-392.229
-350.374
-311.397
-275.352
-242.245
-212.04
-184.661
-160.005
-137.941
-118.319
-100.976
-85.7413
-72.4386
-60.892
-50.9286
-42.3817
-35.0923
-28.911
-23.6993
-19.33
-15.6874
-12.6678
-10.1784
-8.13745
-6.47342
-5.12409
-4.03589
-3.16304
-2.46669
-1.91413
-1.47802
-1.13564
-0.868277
-0.660593
-0.500116
-0.376767
-0.28245
-0.210708
-0.15642
-0.115554
-0.0849492
-0.0621478
-0.0452478
-0.0327871
-0.0236481
-0.0169819
-0.012148
-0.00866634
-0.00617992
-0.00442603
-0.00321408
-0.00240899
-0.00191909
-0.00168767
-1285.65
-1279.05
-1265.95
-1246.55
-1221.15
-1190.13
-1153.94
-1113.12
-1068.24
-1019.92
-968.791
-915.519
-860.751
-805.123
-749.242
-693.68
-638.961
-585.558
-533.883
-484.29
-437.069
-392.446
-350.589
-311.606
-275.553
-242.435
-212.218
-184.827
-160.157
-138.078
-118.443
-101.087
-85.8391
-72.5244
-60.9667
-50.9933
-42.4372
-35.1395
-28.951
-23.7329
-19.3581
-15.7107
-12.687
-10.1941
-8.1503
-6.48383
-5.13246
-4.04259
-3.16837
-2.47091
-1.91745
-1.48061
-1.13766
-0.869838
-0.661794
-0.501035
-0.377466
-0.282979
-0.211106
-0.156719
-0.115776
-0.0851138
-0.0622692
-0.0453369
-0.0328521
-0.0236952
-0.017016
-0.0121726
-0.00868395
-0.00619255
-0.00443514
-0.00322073
-0.00241401
-0.00192311
-0.00169121
-1285.25
-1278.65
-1265.57
-1246.19
-1220.82
-1189.83
-1153.69
-1112.91
-1068.07
-1019.79
-968.713
-915.484
-860.756
-805.164
-749.315
-693.78
-639.085
-585.7
-534.039
-484.455
-437.239
-392.619
-350.76
-311.773
-275.713
-242.587
-212.361
-184.959
-160.278
-138.189
-118.542
-101.175
-85.9178
-72.5935
-61.027
-51.0454
-42.482
-35.1778
-28.9834
-23.7602
-19.3809
-15.7297
-12.7026
-10.207
-8.16076
-6.4923
-5.13929
-4.04806
-3.17272
-2.47435
-1.92016
-1.48274
-1.13931
-0.871116
-0.662778
-0.501788
-0.378039
-0.283413
-0.211433
-0.156964
-0.115959
-0.0852492
-0.0623689
-0.0454101
-0.0329055
-0.0237341
-0.0170441
-0.0121928
-0.00869846
-0.00620296
-0.00444264
-0.00322622
-0.00241814
-0.00192642
-0.00169413
-1284.93
-1278.34
-1265.27
-1245.91
-1220.56
-1189.6
-1153.49
-1112.74
-1067.94
-1019.7
-968.651
-915.455
-860.758
-805.194
-749.371
-693.858
-639.181
-585.81
-534.161
-484.585
-437.374
-392.754
-350.895
-311.904
-275.84
-242.708
-212.474
-185.064
-160.375
-138.277
-118.622
-101.247
-85.9808
-72.649
-61.0754
-51.0874
-42.5181
-35.2086
-29.0096
-23.7822
-19.3993
-15.745
-12.7153
-10.2173
-8.16923
-6.49917
-5.14483
-4.0525
-3.17626
-2.47715
-1.92237
-1.48446
-1.14066
-0.872157
-0.663579
-0.502402
-0.378507
-0.283767
-0.2117
-0.157164
-0.116108
-0.0853598
-0.0624505
-0.04547
-0.0329493
-0.0237658
-0.017067
-0.0122093
-0.00871035
-0.0062115
-0.00444879
-0.00323071
-0.00242153
-0.00192914
-0.00169653
-1284.68
-1278.1
-1265.04
-1245.69
-1220.36
-1189.42
-1153.33
-1112.61
-1067.84
-1019.62
-968.6
-915.43
-860.758
-805.216
-749.413
-693.918
-639.255
-585.897
-534.256
-484.687
-437.479
-392.861
-351.001
-312.008
-275.94
-242.803
-212.564
-185.148
-160.452
-138.347
-118.685
-101.303
-86.0311
-72.6933
-61.1141
-51.121
-42.547
-35.2333
-29.0305
-23.7999
-19.4141
-15.7573
-12.7255
-10.2257
-8.17606
-6.50471
-5.1493
-4.05608
-3.17911
-2.47942
-1.92415
-1.48586
-1.14174
-0.873001
-0.664229
-0.5029
-0.378886
-0.284055
-0.211917
-0.157326
-0.116229
-0.0854497
-0.0625169
-0.0455187
-0.0329849
-0.0237917
-0.0170858
-0.0122228
-0.00872004
-0.00621846
-0.00445381
-0.00323438
-0.0024243
-0.00193136
-0.00169849
-1284.49
-1277.91
-1264.85
-1245.52
-1220.2
-1189.28
-1153.21
-1112.51
-1067.75
-1019.56
-968.559
-915.41
-860.756
-805.233
-749.445
-693.964
-639.313
-585.963
-534.33
-484.766
-437.561
-392.944
-351.084
-312.09
-276.019
-242.879
-212.634
-185.213
-160.512
-138.402
-118.735
-101.348
-86.071
-72.7285
-61.1449
-51.1477
-42.57
-35.253
-29.0473
-23.814
-19.4259
-15.7672
-12.7336
-10.2324
-8.18154
-6.50916
-5.15289
-4.05896
-3.18141
-2.48124
-1.92559
-1.48699
-1.14262
-0.873681
-0.664754
-0.503302
-0.379193
-0.284287
-0.212092
-0.157458
-0.116327
-0.0855225
-0.0625706
-0.0455582
-0.0330137
-0.0238127
-0.0171009
-0.0122337
-0.00872789
-0.0062241
-0.00445788
-0.00323736
-0.00242655
-0.00193316
-0.00170008
-1284.34
-1277.76
-1264.71
-1245.39
-1220.08
-1189.17
-1153.11
-1112.43
-1067.69
-1019.51
-968.527
-915.393
-860.755
-805.245
-749.47
-693.999
-639.357
-586.015
-534.387
-484.827
-437.625
-393.009
-351.149
-312.154
-276.08
-242.937
-212.69
-185.265
-160.56
-138.446
-118.774
-101.384
-86.1026
-72.7563
-61.1693
-51.1688
-42.5883
-35.2686
-29.0605
-23.8253
-19.4353
-15.775
-12.7401
-10.2378
-8.18591
-6.51271
-5.15576
-4.06126
-3.18325
-2.4827
-1.92674
-1.48789
-1.14333
-0.874227
-0.665174
-0.503625
-0.379439
-0.284474
-0.212233
-0.157563
-0.116406
-0.085581
-0.0626139
-0.0455899
-0.0330369
-0.0238296
-0.0171132
-0.0122426
-0.00873423
-0.00622865
-0.00446117
-0.00323976
-0.00242836
-0.00193461
-0.00170137
-1284.22
-1277.65