/*--------------------------------*- C++ -*----------------------------------*\
  =========                 |
  \\      /  F ield         | OpenFOAM: The Open Source CFD Toolbox
   \\    /   O peration     | Website:  https://openfoam.org
    \\  /    A nd           | Version:  10
     \\/     M anipulation  |
\*---------------------------------------------------------------------------*/
FoamFile
{
    format      ascii;
    class       volScalarField;
    location    "434";
    object      T;
}
// * * * * * * * * * * * * * * * * * * * * * * * * * * * * * * * * * * * * * //

dimensions      [0 0 0 1 0 0 0];

internalField   nonuniform List<scalar> 
11250
(
249.878
167.662
139.533
127.184
120.471
116.232
113.278
111.083
109.375
108.004
106.876
105.932
105.13
104.443
103.85
103.335
102.886
102.494
102.151
101.851
101.59
101.361
101.162
100.989
100.839
100.71
100.598
100.502
100.42
100.35
100.29
100.24
100.197
100.162
100.132
100.107
100.087
100.07
100.056
100.045
100.036
100.028
100.022
100.018
100.014
100.011
100.008
100.006
100.005
100.004
100.003
100.002
100.002
100.001
100.001
100.001
100.001
100
100
100
100
100
100
100
100
100
100
100
100
100
100
100
100
100
100
331.605
248.902
202.827
175.922
158.952
147.423
139.092
132.776
127.808
123.788
120.466
117.674
115.298
113.257
111.492
109.958
108.62
107.452
106.429
105.535
104.753
104.071
103.476
102.959
102.51
102.123
101.789
101.501
101.256
101.046
100.868
100.718
100.591
100.484
100.395
100.321
100.26
100.21
100.168
100.135
100.107
100.085
100.067
100.053
100.041
100.032
100.025
100.019
100.015
100.011
100.009
100.006
100.005
100.004
100.003
100.002
100.001
100.001
100.001
100.001
100
100
100
100
100
100
100
100
100
100
100
100
100
100
100
359.249
293.525
246.971
214.749
192.024
175.453
162.935
153.171
145.345
138.932
133.584
129.06
125.193
121.859
118.967
116.449
114.248
112.323
110.637
109.161
107.87
106.742
105.758
104.903
104.161
103.519
102.965
102.489
102.082
101.735
101.44
101.19
100.98
100.803
100.656
100.533
100.432
100.348
100.279
100.223
100.178
100.141
100.111
100.087
100.068
100.053
100.041
100.032
100.024
100.019
100.014
100.011
100.008
100.006
100.005
100.003
100.002
100.002
100.001
100.001
100.001
100.001
100
100
100
100
100
100
100
100
100
100
100
100
100
371.12
318.998
276.812
244.123
218.996
199.494
184.097
171.708
161.557
153.107
145.976
139.893
134.659
130.124
126.175
122.725
119.704
117.055
114.731
112.694
110.91
109.35
107.989
106.805
105.776
104.886
104.118
103.458
102.893
102.411
102.001
101.655
101.362
101.117
100.912
100.742
100.601
100.484
100.389
100.311
100.247
100.196
100.154
100.121
100.095
100.074
100.057
100.044
100.034
100.026
100.02
100.015
100.011
100.008
100.006
100.005
100.003
100.003
100.002
100.001
100.001
100.001
100.001
100
100
100
100
100
100
100
100
100
100
100
100
377.362
334.56
297.2
265.995
240.416
219.518
202.352
188.119
176.192
166.092
157.459
150.021
143.571
137.949
133.031
128.718
124.929
121.599
118.672
116.102
113.848
111.874
110.151
108.649
107.344
106.215
105.24
104.401
103.683
103.07
102.549
102.107
101.736
101.423
101.162
100.945
100.766
100.617
100.496
100.396
100.315
100.25
100.197
100.155
100.121
100.094
100.073
100.056
100.043
100.033
100.025
100.019
100.014
100.011
100.008
100.006
100.004
100.003
100.002
100.002
100.001
100.001
100.001
100
100
100
100
100
100
100
100
100
100
100
100
381.143
344.715
311.487
282.315
257.252
235.922
217.804
202.37
189.156
177.778
167.922
159.342
151.84
145.259
139.471
134.373
129.879
125.918
122.428
119.357
116.659
114.295
112.226
110.423
108.855
107.496
106.322
105.312
104.446
103.707
103.078
102.546
102.097
101.72
101.405
101.143
100.926
100.746
100.599
100.479
100.381
100.302
100.238
100.187
100.146
100.114
100.088
100.068
100.052
100.04
100.03
100.023
100.017
100.013
100.01
100.007
100.005
100.004
100.003
100.002
100.002
100.001
100.001
100.001
100
100
100
100
100
100
100
100
100
100
100
383.65
351.708
321.784
294.619
270.467
249.254
230.728
214.575
200.476
188.143
177.323
167.806
159.415
152.003
145.448
139.648
134.517
129.979
125.971
122.437
119.326
116.595
114.203
112.115
110.297
108.721
107.358
106.185
105.178
104.319
103.587
102.968
102.445
102.006
101.639
101.333
101.08
100.871
100.699
100.559
100.445
100.353
100.278
100.219
100.171
100.133
100.103
100.08
100.061
100.047
100.036
100.027
100.02
100.015
100.011
100.008
100.006
100.005
100.003
100.002
100.002
100.001
100.001
100.001
100
100
100
100
100
100
100
100
100
100
100
385.414
356.731
329.401
304.017
280.88
260.057
241.464
224.93
210.254
197.231
185.671
175.402
166.274
158.156
150.937
144.519
138.819
133.762
129.283
125.324
121.833
118.762
116.069
113.715
111.664
109.883
108.343
107.015
105.876
104.902
104.073
103.37
102.777
102.279
101.862
101.515
101.228
100.99
100.795
100.636
100.506
100.401
100.317
100.249
100.194
100.151
100.117
100.091
100.07
100.053
100.04
100.031
100.023
100.017
100.013
100.01
100.007
100.005
100.004
100.003
100.002
100.001
100.001
100.001
100.001
100
100
100
100
100
100
100
100
100
100
386.705
360.455
335.16
311.289
289.131
268.816
250.349
233.66
218.632
205.129
193.013
182.152
172.423
163.714
155.928
148.974
142.773
137.253
132.351
128.008
124.17
120.788
117.817
115.217
112.949
110.978
109.271
107.799
106.535
105.454
104.533
103.752
103.093
102.539
102.075
101.689
101.368
101.104
100.887
100.709
100.565
100.448
100.353
100.277
100.217
100.169
100.131
100.101
100.078
100.059
100.045
100.034
100.026
100.019
100.014
100.011
100.008
100.006
100.004
100.003
100.002
100.002
100.001
100.001
100.001
100
100
100
100
100
100
100
100
100
100
387.679
363.283
339.594
316.983
295.712
275.929
257.693
240.991
225.768
211.942
199.418
188.099
177.887
168.691
160.426
153.011
146.375
140.448
135.17
130.482
126.33
122.666
119.442
116.616
114.148
112.001
110.141
108.535
107.154
105.973
104.966
104.112
103.39
102.784
102.276
101.852
101.501
101.212
100.973
100.779
100.62
100.492
100.388
100.305
100.238
100.186
100.144
100.111
100.085
100.065
100.05
100.038
100.028
100.021
100.016
100.012
100.009
100.006
100.005
100.003
100.003
100.002
100.001
100.001
100.001
100
100
100
100
100
100
100
100
100
100
388.428
365.472
343.058
321.489
300.993
281.722
263.759
247.13
231.82
217.786
204.97
193.3
182.706
173.112
164.447
156.642
149.629
143.348
137.738
132.744
128.312
124.393
120.94
117.91
115.259
112.951
110.949
109.219
107.732
106.457
105.371
104.449
103.669
103.013
102.464
102.006
101.626
101.313
101.055
100.844
100.672
100.533
100.421
100.331
100.259
100.201
100.156
100.12
100.093
100.071
100.054
100.041
100.031
100.023
100.017
100.013
100.01
100.007
100.005
100.004
100.003
100.002
100.001
100.001
100.001
100.001
100
100
100
100
100
100
100
100
100
389.014
367.189
345.796
325.085
305.255
286.453
268.773
252.262
236.935
222.777
209.755
197.822
186.927
177.011
168.016
159.881
152.549
145.96
140.061
134.797
130.117
125.971
122.312
119.097
116.281
113.826
111.695
109.852
108.266
106.907
105.747
104.761
103.928
103.227
102.64
102.15
101.743
101.407
101.131
100.905
100.721
100.572
100.451
100.355
100.278
100.216
100.168
100.129
100.099
100.076
100.058
100.044
100.033
100.025
100.019
100.014
100.01
100.008
100.006
100.004
100.003
100.002
100.002
100.001
100.001
100.001
100
100
100
100
100
100
100
100
100
389.477
368.551
347.981
327.975
308.712
290.327
272.919
256.549
241.248
227.023
213.86
201.732
190.603
180.429
171.162
162.753
155.148
148.297
142.147
136.648
131.749
127.402
123.56
120.178
117.214
114.627
112.379
110.434
108.758
107.32
106.093
105.05
104.168
103.425
102.802
102.283
101.851
101.495
101.202
100.962
100.766
100.608
100.48
100.377
100.295
100.23
100.178
100.138
100.106
100.081
100.062
100.047
100.035
100.026
100.02
100.015
100.011
100.008
100.006
100.004
100.003
100.002
100.002
100.001
100.001
100.001
100
100
100
100
100
100
100
100
100
389.847
369.642
349.736
330.312
311.525
293.505
276.349
260.125
244.876
230.623
217.367
205.096
193.786
183.407
173.919
165.282
157.449
150.373
144.008
138.304
133.214
128.69
124.686
121.158
118.061
115.356
113.002
110.964
109.207
107.699
106.411
105.315
104.388
103.607
102.952
102.405
101.951
101.576
101.267
101.014
100.808
100.641
100.506
100.398
100.312
100.243
100.188
100.145
100.112
100.085
100.065
100.049
100.037
100.028
100.021
100.016
100.011
100.008
100.006
100.005
100.003
100.002
100.002
100.001
100.001
100.001
100
100
100
100
100
100
100
100
100
390.144
370.52
351.155
332.209
313.823
296.118
279.188
263.107
247.923
233.667
220.353
207.978
196.53
185.988
176.321
167.496
159.471
152.207
145.657
139.778
134.522
129.843
125.697
122.038
118.824
116.014
113.566
111.445
109.615
108.044
106.7
105.557
104.589
103.773
103.089
102.518
102.043
101.65
101.327
101.063
100.847
100.672
100.531
100.417
100.327
100.254
100.197
100.152
100.117
100.09
100.068
100.052
100.039
100.029
100.022
100.016
100.012
100.009
100.007
100.005
100.003
100.003
100.002
100.001
100.001
100.001
100
100
100
100
100
100
100
100
100
390.384
371.23
352.306
333.754
315.704
298.268
281.539
265.59
250.477
236.235
222.886
210.438
198.885
188.214
178.403
169.423
161.24
153.816
147.11
141.08
135.681
130.868
126.598
122.826
119.508
116.604
114.073
111.878
109.983
108.355
106.962
105.776
104.771
103.924
103.213
102.62
102.126
101.718
101.382
101.107
100.882
100.7
100.553
100.435
100.34
100.265
100.206
100.159
100.122
100.093
100.071
100.054
100.041
100.031
100.023
100.017
100.013
100.009
100.007
100.005
100.004
100.003
100.002
100.001
100.001
100.001
100
100
100
100
100
100
100
100
100
390.579
371.808
353.243
335.016
317.246
300.039
283.485
267.657
252.614
238.395
225.029
212.529
200.897
190.126
180.199
171.093
162.778
155.221
148.383
142.224
136.702
131.774
127.396
123.525
120.117
117.131
114.526
112.266
110.313
108.634
107.197
105.973
104.936
104.061
103.326
102.712
102.202
101.779
101.432
101.147
100.914
100.726
100.573
100.451
100.353
100.275
100.213
100.165
100.127
100.097
100.074
100.056
100.042
100.032
100.024
100.018
100.013
100.01
100.007
100.005
100.004
100.003
100.002
100.001
100.001
100.001
100.001
100
100
100
100
100
100
100
100
390.738
372.278
354.008
336.049
318.513
301.499
285.096
269.376
254.399
240.208
226.836
214.301
202.61
191.76
181.741
172.532
164.109
156.44
149.491
143.224
137.598
132.57
128.099
124.142
120.655
117.597
114.929
112.611
110.607
108.884
107.408
106.15
105.083
104.183
103.427
102.795
102.27
101.835
101.476
101.183
100.943
100.749
100.592
100.465
100.364
100.284
100.22
100.17
100.131
100.1
100.076
100.058
100.044
100.033
100.024
100.018
100.014
100.01
100.007
100.005
100.004
100.003
100.002
100.001
100.001
100.001
100.001
100
100
100
100
100
100
100
100
390.867
372.662
354.633
336.895
319.553
302.702
286.428
270.803
255.887
241.727
228.356
215.797
204.062
193.152
183.058
173.766
165.254
157.493
150.451
144.092
138.377
133.266
128.715
124.683
121.128
118.009
115.284
112.916
110.868
109.105
107.594
106.307
105.214
104.292
103.517
102.869
102.33
101.884
101.516
101.215
100.969
100.769
100.608
100.478
100.375
100.292
100.227
100.175
100.135
100.103
100.078
100.059
100.045
100.034
100.025
100.019
100.014
100.01
100.008
100.005
100.004
100.003
100.002
100.001
100.001
100.001
100.001
100
100
100
100
100
100
100
100
390.973
372.975
355.145
337.588
320.407
303.693
287.529
271.986
257.126
242.995
229.63
217.057
205.289
194.331
184.179
174.82
166.235
158.398
151.279
144.843
139.053
133.87
129.251
125.156
121.543
118.369
115.596
113.185
111.098
109.3
107.76
106.446
105.331
104.389
103.597
102.935
102.384
101.928
101.552
101.244
100.992
100.788
100.623
100.49
100.384
100.299
100.232
100.179
100.138
100.106
100.08
100.061
100.046
100.035
100.026
100.019
100.014
100.011
100.008
100.006
100.004
100.003
100.002
100.002
100.001
100.001
100.001
100
100
100
100
100
100
100
100
391.059
373.231
355.563
338.156
321.108
304.508
288.437
272.966
258.154
244.051
230.695
218.113
206.322
195.328
185.129
175.716
167.072
159.172
151.989
145.489
139.636
134.392
129.716
125.566
121.903
118.684
115.869
113.419
111.299
109.471
107.905
106.568
105.433
104.474
103.668
102.994
102.432
101.967
101.584
101.269
101.013
100.804
100.636
100.5
100.392
100.306
100.237
100.183
100.141
100.108
100.082
100.062
100.047
100.035
100.026
100.02
100.015
100.011
100.008
100.006
100.004
100.003
100.002
100.002
100.001
100.001
100.001
100
100
100
100
100
100
100
100
391.13
373.441
355.905
338.621
321.683
305.178
289.186
273.775
259.007
244.93
231.584
218.997
207.188
196.166
185.931
176.475
167.782
159.831
152.595
146.041
140.136
134.84
130.116
125.921
122.214
118.956
116.105
113.624
111.474
109.621
108.031
106.675
105.523
104.549
103.73
103.045
102.474
102.002
101.612
101.292
101.031
100.819
100.647
100.51
100.399
100.311
100.242
100.187
100.144
100.11
100.084
100.063
100.048
100.036
100.027
100.02
100.015
100.011
100.008
100.006
100.004
100.003
100.002
100.002
100.001
100.001
100.001
100
100
100
100
100
100
100
100
391.187
373.611
356.184
339.001
322.155
305.729
289.802
274.443
259.711
245.658
232.322
219.734
207.912
196.869
186.605
177.114
168.382
160.389
153.109
146.511
140.562
135.224
130.459
126.225
122.482
119.19
116.309
113.8
111.625
109.75
108.141
106.768
105.601
104.614
103.784
103.09
102.511
102.032
101.636
101.312
101.047
100.832
100.658
100.518
100.405
100.316
100.245
100.19
100.146
100.112
100.085
100.065
100.049
100.037
100.027
100.02
100.015
100.011
100.008
100.006
100.004
100.003
100.002
100.002
100.001
100.001
100.001
100
100
100
100
100
100
100
100
391.234
373.751
356.412
339.312
322.54
306.18
290.308
274.992
260.293
246.26
232.934
220.345
208.516
197.456
187.169
177.651
168.887
160.86
153.544
146.91
140.924
135.551
130.751
126.485
122.712
119.392
116.485
113.952
111.756
109.862
108.237
106.848
105.668
104.671
103.831
103.128
102.543
102.058
101.657
101.329
101.061
100.843
100.666
100.525
100.411
100.321
100.249
100.192
100.148
100.113
100.086
100.065
100.049
100.037
100.028
100.021
100.015
100.011
100.008
100.006
100.004
100.003
100.002
100.002
100.001
100.001
100.001
100
100
100
100
100
100
100
100
391.272
373.864
356.598
339.566
322.855
306.549
290.722
275.443
260.771
246.756
233.439
220.852
209.016
197.944
187.64
178.099
169.31
161.255
153.91
147.246
141.23
135.827
130.999
126.705
122.907
119.563
116.634
114.082
111.868
109.958
108.318
106.917
105.727
104.719
103.872
103.162
102.571
102.08
101.676
101.344
101.073
100.852
100.674
100.531
100.416
100.324
100.252
100.195
100.15
100.115
100.087
100.066
100.05
100.038
100.028
100.021
100.016
100.011
100.008
100.006
100.004
100.003
100.002
100.002
100.001
100.001
100.001
100
100
100
100
100
100
100
100
391.303
373.957
356.75
339.773
323.112
306.85
291.061
275.812
261.163
247.164
233.856
221.271
209.431
198.349
188.031
178.473
169.663
161.586
154.217
147.528
141.488
136.06
131.208
126.892
123.072
119.709
116.761
114.192
111.963
110.04
108.388
106.976
105.776
104.761
103.907
103.191
102.594
102.1
101.692
101.357
101.083
100.861
100.681
100.536
100.42
100.328
100.254
100.197
100.151
100.116
100.088
100.067
100.051
100.038
100.028
100.021
100.016
100.012
100.008
100.006
100.005
100.003
100.002
100.002
100.001
100.001
100.001
100
100
100
100
100
100
100
100
391.328
374.032
356.873
339.941
323.321
307.096
291.337
276.114
261.484
247.498
234.198
221.615
209.772
198.683
188.354
178.782
169.957
161.861
154.472
147.764
141.703
136.256
131.384
127.049
123.212
119.832
116.869
114.286
112.044
110.109
108.447
107.027
105.819
104.797
103.936
103.216
102.615
102.117
101.705
101.368
101.092
100.868
100.687
100.541
100.424
100.331
100.257
100.198
100.153
100.117
100.089
100.068
100.051
100.038
100.029
100.021
100.016
100.012
100.009
100.006
100.005
100.003
100.002
100.002
100.001
100.001
100.001
100
100
100
100
100
100
100
100
391.349
374.092
356.972
340.077
323.491
307.295
291.562
276.36
261.746
247.771
234.478
221.897
210.052
198.959
188.621
179.038
170.199
162.089
154.685
147.96
141.883
136.419
131.531
127.181
123.329
119.935
116.959
114.364
112.112
110.168
108.497
107.069
105.855
104.827
103.962
103.237
102.632
102.131
101.717
101.377
101.1
100.874
100.691
100.544
100.427
100.333
100.259
100.2
100.154
100.118
100.09
100.068
100.051
100.039
100.029
100.022
100.016
100.012
100.009
100.006
100.005
100.003
100.002
100.002
100.001
100.001
100.001
100
100
100
100
100
100
100
100
391.365
374.141
357.053
340.187
323.628
307.457
291.745
276.559
261.959
247.994
234.706
222.127
210.282
199.184
188.84
179.248
170.399
162.277
154.86
148.122
142.032
136.554
131.653
127.291
123.426
120.021
117.035
114.43
112.17
110.217
108.54
107.105
105.885
104.853
103.983
103.254
102.647
102.143
101.727
101.385
101.106
100.879
100.696
100.548
100.429
100.335
100.26
100.201
100.155
100.119
100.09
100.069
100.052
100.039
100.029
100.022
100.016
100.012
100.009
100.006
100.005
100.003
100.002
100.002
100.001
100.001
100.001
100
100
100
100
100
100
100
100
391.379
374.181
357.118
340.276
323.739
307.587
291.892
276.721
262.131
248.174
234.891
222.315
210.469
199.368
189.019
179.42
170.563
162.432
155.005
148.256
142.155
136.666
131.755
127.381
123.507
120.093
117.098
114.485
112.217
110.258
108.575
107.135
105.911
104.874
104.001
103.269
102.659
102.153
101.735
101.392
101.112
100.884
100.699
100.551
100.432
100.337
100.262
100.202
100.156
100.119
100.091
100.069
100.052
100.039
100.029
100.022
100.016
100.012
100.009
100.006
100.005
100.003
100.002
100.002
100.001
100.001
100.001
100
100
100
100
100
100
100
100
391.389
374.213
357.17
340.347
323.829
307.692
292.011
276.851
262.271
248.32
235.042
222.467
210.621
199.518
189.165
179.561
170.697
162.558
155.123
148.366
142.256
136.758
131.838
127.457
123.574
120.152
117.15
114.531
112.257
110.293
108.604
107.16
105.932
104.892
104.016
103.282
102.669
102.162
101.742
101.398
101.116
100.887
100.702
100.553
100.434
100.338
100.263
100.203
100.156
100.12
100.091
100.069
100.052
100.039
100.029
100.022
100.016
100.012
100.009
100.006
100.005
100.003
100.002
100.002
100.001
100.001
100.001
100
100
100
100
100
100
100
100
391.398
374.238
357.212
340.405
323.9
307.777
292.107
276.956
262.383
248.438
235.163
222.59
210.744
199.639
189.283
179.675
170.806
162.661
155.22
148.456
142.338
136.834
131.907
127.518
123.629
120.201
117.193
114.569
112.29
110.321
108.628
107.181
105.949
104.907
104.028
103.292
102.678
102.169
101.748
101.403
101.12
100.89
100.705
100.555
100.435
100.34
100.264
100.204
100.157
100.12
100.092
100.07
100.053
100.039
100.03
100.022
100.016
100.012
100.009
100.006
100.005
100.003
100.002
100.002
100.001
100.001
100.001
100
100
100
100
100
100
100
100
391.405
374.259
357.245
340.451
323.958
307.844
292.183
277.04
262.473
248.533
235.261
222.689
210.843
199.737
189.379
179.768
170.895
162.745
155.298
148.529
142.406
136.896
131.963
127.569
123.674
120.241
117.229
114.6
112.317
110.344
108.649
107.198
105.964
104.919
104.039
103.301
102.685
102.175
101.753
101.406
101.123
100.893
100.707
100.557
100.436
100.341
100.265
100.205
100.157
100.121
100.092
100.07
100.053
100.04
100.03
100.022
100.016
100.012
100.009
100.006
100.005
100.003
100.002
100.002
100.001
100.001
100.001
100
100
100
100
100
100
100
100
391.41
374.275
357.272
340.487
324.003
307.898
292.245
277.108
262.546
248.609
235.339
222.769
210.923
199.816
189.456
179.842
170.966
162.813
155.362
148.588
142.46
136.946
132.008
127.61
123.711
120.274
117.258
114.625
112.339
110.363
108.665
107.212
105.976
104.929
104.047
103.308
102.691
102.179
101.757
101.41
101.126
100.895
100.708
100.558
100.437
100.341
100.265
100.205
100.158
100.121
100.092
100.07
100.053
100.04
100.03
100.022
100.016
100.012
100.009
100.006
100.005
100.003
100.002
100.002
100.001
100.001
100.001
100
100
100
100
100
100
100
100
391.415
374.288
357.293
340.516
324.04
307.941
292.293
277.161
262.603
248.669
235.401
222.832
210.986
199.879
189.518
179.902
171.023
162.867
155.413
148.636
142.504
136.986
132.045
127.643
123.741
120.3
117.281
114.646
112.357
110.379
108.678
107.224
105.986
104.937
104.054
103.314
102.696
102.183
101.76
101.412
101.128
100.897
100.71
100.559
100.438
100.342
100.266
100.205
100.158
100.121
100.092
100.07
100.053
100.04
100.03
100.022
100.016
100.012
100.009
100.007
100.005
100.003
100.002
100.002
100.001
100.001
100.001
100
100
100
100
100
100
100
100
391.418
374.298
357.31
340.539
324.069
307.975
292.332
277.204
262.649
248.717
235.451
222.883
211.037
199.929
189.567
179.95
171.069
162.911
155.454
148.674
142.54
137.019
132.075
127.67
123.765
120.322
117.3
114.662
112.371
110.392
108.689
107.233
105.994
104.944
104.06
103.318
102.7
102.187
101.763
101.415
101.13
100.898
100.711
100.56
100.439
100.343
100.266
100.206
100.158
100.121
100.093
100.07
100.053
100.04
100.03
100.022
100.016
100.012
100.009
100.007
100.005
100.003
100.002
100.002
100.001
100.001
100.001
100
100
100
100
100
100
100
100
391.421
374.306
357.323
340.558
324.091
308.002
292.362
277.237
262.685
248.755
235.49
222.923
211.077
199.969
189.606
179.988
171.106
162.945
155.487
148.704
142.568
137.045
132.098
127.691
123.784
120.339
117.315
114.676
112.383
110.402
108.698
107.241
106
104.949
104.064
103.322
102.703
102.189
101.765
101.416
101.131
100.9
100.712
100.561
100.44
100.343
100.267
100.206
100.159
100.122
100.093
100.07
100.053
100.04
100.03
100.022
100.016
100.012
100.009
100.007
100.005
100.003
100.002
100.002
100.001
100.001
100.001
100
100
100
100
100
100
100
100
391.423
374.312
357.334
340.572
324.109
308.023
292.386
277.264
262.713
248.785
235.521
222.955
211.109
200.001
189.637
180.018
171.135
162.973
155.513
148.729
142.591
137.065
132.117
127.708
123.8
120.353
117.328
114.687
112.393
110.41
108.705
107.247
106.005
104.954
104.068
103.325
102.706
102.191
101.767
101.418
101.133
100.9
100.713
100.561
100.44
100.344
100.267
100.206
100.159
100.122
100.093
100.07
100.053
100.04
100.03
100.022
100.017
100.012
100.009
100.007
100.005
100.003
100.002
100.002
100.001
100.001
100.001
100
100
100
100
100
100
100
100
391.424
374.317
357.342
340.583
324.123
308.04
292.405
277.285
262.736
248.809
235.546
222.98
211.134
200.026
189.662
180.042
171.157
162.995
155.534
148.748
142.609
137.082
132.132
127.722
123.812
120.364
117.337
114.695
112.4
110.416
108.711
107.252
106.009
104.957
104.071
103.328
102.708
102.193
101.768
101.419
101.133
100.901
100.713
100.562
100.441
100.344
100.267
100.207
100.159
100.122
100.093
100.07
100.053
100.04
100.03
100.022
100.017
100.012
100.009
100.007
100.005
100.003
100.002
100.002
100.001
100.001
100.001
100
100
100
100
100
100
100
100
391.426
374.321
357.348
340.592
324.134
308.053
292.42
277.301
262.753
248.827
235.565
222.999
211.154
200.046
189.681
180.06
171.176
163.012
155.55
148.763
142.623
137.095
132.144
127.733
123.822
120.372
117.345
114.702
112.406
110.422
108.715
107.255
106.013
104.96
104.073
103.33
102.709
102.194
101.769
101.42
101.134
100.902
100.714
100.562
100.441
100.344
100.267
100.207
100.159
100.122
100.093
100.071
100.053
100.04
100.03
100.022
100.017
100.012
100.009
100.007
100.005
100.003
100.002
100.002
100.001
100.001
100.001
100
100
100
100
100
100
100
100
391.427
374.324
357.353
340.599
324.143
308.063
292.432
277.313
262.767
248.842
235.58
223.014
211.169
200.061
189.696
180.075
171.19
163.026
155.563
148.775
142.634
137.105
132.154
127.741
123.83
120.379
117.351
114.707
112.411
110.426
108.719
107.259
106.015
104.962
104.075
103.331
102.711
102.196
101.77
101.421
101.135
100.902
100.714
100.563
100.441
100.344
100.267
100.207
100.159
100.122
100.093
100.071
100.053
100.04
100.03
100.022
100.017
100.012
100.009
100.007
100.005
100.003
100.002
100.002
100.001
100.001
100.001
100
100
100
100
100
100
100
100
391.428
374.327
357.357
340.604
324.149
308.071
292.44
277.323
262.777
248.853
235.592
223.026
211.181
200.073
189.708
180.087
171.201
163.036
155.573
148.785
142.643
137.113
132.161
127.748
123.836
120.385
117.356
114.712
112.415
110.429
108.722
107.261
106.017
104.964
104.077
103.333
102.712
102.196
101.771
101.421
101.135
100.903
100.714
100.563
100.441
100.344
100.268
100.207
100.159
100.122
100.093
100.071
100.053
100.04
100.03
100.022
100.017
100.012
100.009
100.007
100.005
100.003
100.002
100.002
100.001
100.001
100.001
100
100
100
100
100
100
100
100
391.428
374.328
357.36
340.608
324.154
308.077
292.447
277.331
262.786
248.862
235.601
223.035
211.191
200.082
189.717
180.095
171.209
163.044
155.58
148.792
142.649
137.12
132.167
127.753
123.84
120.389
117.36
114.715
112.417
110.432
108.724
107.263
106.019
104.966
104.078
103.333
102.713
102.197
101.771
101.422
101.136
100.903
100.715
100.563
100.442
100.345
100.268
100.207
100.159
100.122
100.093
100.071
100.053
100.04
100.03
100.022
100.017
100.012
100.009
100.007
100.005
100.003
100.002
100.002
100.001
100.001
100.001
100
100
100
100
100
100
100
100
391.429
374.33
357.362
340.611
324.158
308.082
292.453
277.337
262.792
248.868
235.608
223.043
211.198
200.089
189.724
180.102
171.216
163.051
155.586
148.798
142.655
137.124
132.171
127.757
123.844
120.392
117.363
114.718
112.42
110.434
108.726
107.264
106.02
104.967
104.079
103.334
102.713
102.198
101.772
101.422
101.136
100.903
100.715
100.563
100.442
100.345
100.268
100.207
100.159
100.122
100.093
100.071
100.053
100.04
100.03
100.022
100.017
100.012
100.009
100.007
100.005
100.003
100.002
100.002
100.001
100.001
100.001
100
100
100
100
100
100
100
100
391.429
374.331
357.364
340.613
324.161
308.085
292.457
277.341
262.797
248.873
235.613
223.048
211.203
200.095
189.73
180.108
171.221
163.056
155.591
148.802
142.659
137.128
132.175
127.76
123.847
120.395
117.365
114.72
112.422
110.435
108.727
107.265
106.021
104.968
104.079
103.335
102.714
102.198
101.772
101.422
101.136
100.903
100.715
100.563
100.442
100.345
100.268
100.207
100.159
100.122
100.093
100.071
100.053
100.04
100.03
100.022
100.017
100.012
100.009
100.007
100.005
100.003
100.002
100.002
100.001
100.001
100.001
100
100
100
100
100
100
100
100
391.429
374.332
357.365
340.615
324.164
308.088
292.46
277.345
262.801
248.877
235.617
223.052
211.208
200.099
189.734
180.112
171.225
163.059
155.595
148.805
142.662
137.131
132.177
127.763
123.849
120.397
117.367
114.721
112.423
110.436
108.728
107.266
106.022
104.968
104.08
103.335
102.714
102.198
101.773
101.423
101.136
100.904
100.715
100.563
100.442
100.345
100.268
100.207
100.159
100.122
100.093
100.071
100.053
100.04
100.03
100.022
100.017
100.012
100.009
100.007
100.005
100.003
100.002
100.002
100.001
100.001
100.001
100
100
100
100
100
100
100
100
391.429
374.332
357.366
340.617
324.165
308.09
292.462
277.347
262.803
248.88
235.62
223.055
211.211
200.102
189.737
180.115
171.228
163.062
155.597
148.808
142.664
137.133
132.179
127.765
123.851
120.398
117.368
114.722
112.424
110.437
108.729
107.267
106.023
104.969
104.08
103.336
102.714
102.199
101.773
101.423
101.137
100.904
100.715
100.564
100.442
100.345
100.268
100.207
100.159
100.122
100.093
100.071
100.053
100.04
100.03
100.022
100.017
100.012
100.009
100.007
100.005
100.003
100.002
100.002
100.001
100.001
100.001
100
100
100
100
100
100
100
100
391.43
374.333
357.367
340.618
324.167
308.092
292.464
277.349
262.805
248.883
235.622
223.058
211.213
200.105
189.739
180.117
171.23
163.064
155.599
148.81
142.666
137.135
132.181
127.766
123.852
120.399
117.369
114.723
112.425
110.438
108.729
107.268
106.023
104.969
104.081
103.336
102.715
102.199
101.773
101.423
101.137
100.904
100.715
100.564
100.442
100.345
100.268
100.207
100.159
100.122
100.093
100.071
100.053
100.04
100.03
100.022
100.017
100.012
100.009
100.007
100.005
100.003
100.002
100.002
100.001
100.001
100.001
100
100
100
100
100
100
100
100
391.43
374.333
357.368
340.619
324.168
308.093
292.465
277.351
262.807
248.884
235.624
223.06
211.215
200.106
189.741
180.119
171.232
163.066
155.601
148.811
142.667
137.136
132.182
127.767
123.853
120.4
117.37
114.724
112.425
110.439
108.73
107.268
106.023
104.969
104.081
103.336
102.715
102.199
101.773
101.423
101.137
100.904
100.715
100.564
100.442
100.345
100.268
100.207
100.159
100.122
100.093
100.071
100.053
100.04
100.03
100.022
100.017
100.012
100.009
100.007
100.005
100.003
100.002
100.002
100.001
100.001
100.001
100
100
100
100
100
100
100
100
391.43
374.333
357.368
340.619
324.169
308.094
292.466
277.352
262.808
248.886
235.625
223.061
211.216
200.108
189.743
180.12
171.233
163.067
155.602
148.812
142.668
137.137
132.183
127.768
123.854
120.401
117.37
114.725
112.426
110.439
108.73
107.268
106.024
104.97
104.081
103.336
102.715
102.199
101.773
101.423
101.137
100.904
100.715
100.564
100.442
100.345
100.268
100.207
100.16
100.122
100.093
100.071
100.053
100.04
100.03
100.022
100.017
100.012
100.009
100.007
100.005
100.003
100.002
100.002
100.001
100.001
100.001
100
100
100
100
100
100
100
100
391.43
374.334
357.368
340.62
324.169
308.094
292.467
277.353
262.809
248.887
235.626
223.062
211.218
200.109
189.744
180.121
171.234
163.068
155.603
148.813
142.669
137.138
132.184
127.769
123.854
120.401
117.371
114.725
112.426
110.439
108.731
107.269
106.024
104.97
104.081
103.336
102.715
102.199
101.773
101.423
101.137
100.904
100.715
100.564
100.442
100.345
100.268
100.207
100.16
100.122
100.093
100.071
100.053
100.04
100.03
100.022
100.017
100.012
100.009
100.007
100.005
100.003
100.002
100.002
100.001
100.001
100.001
100
100
100
100
100
100
100
100
391.43
374.334
357.369
340.62
324.17
308.095
292.468
277.353
262.81
248.887
235.627
223.063
211.218
200.11
189.744
180.122
171.235
163.069
155.604
148.814
142.67
137.139
132.184
127.769
123.855
120.402
117.371
114.725
112.426
110.439
108.731
107.269
106.024
104.97
104.081
103.337
102.715
102.199
101.773
101.423
101.137
100.904
100.716
100.564
100.442
100.345
100.268
100.207
100.16
100.122
100.093
100.071
100.053
100.04
100.03
100.022
100.017
100.012
100.009
100.007
100.005
100.003
100.002
100.002
100.001
100.001
100.001
100
100
100
100
100
100
100
100
391.43
374.334
357.369
340.62
324.17
308.095
292.468
277.354
262.81
248.888
235.628
223.063
211.219
200.11
189.745
180.122
171.235
163.069
155.604
148.814
142.67
137.139
132.184
127.769
123.855
120.402
117.372
114.725
112.427
110.44
108.731
107.269
106.024
104.97
104.082
103.337
102.715
102.199
101.773