/*--------------------------------*- C++ -*----------------------------------*\
  =========                 |
  \\      /  F ield         | OpenFOAM: The Open Source CFD Toolbox
   \\    /   O peration     | Website:  https://openfoam.org
    \\  /    A nd           | Version:  10
     \\/     M anipulation  |
\*---------------------------------------------------------------------------*/
FoamFile
{
    format      ascii;
    class       volScalarField;
    location    "74";
    object      gradTx;
}
// * * * * * * * * * * * * * * * * * * * * * * * * * * * * * * * * * * * * * //

dimensions      [0 -1 0 1 0 0 0];

internalField   nonuniform List<scalar> 
11250
(
14215.9
7856.89
4913.48
3302.04
2301.57
1627.91
1153.06
811.186
563.813
385.799
259.267
170.827
110.223
69.5866
42.9598
25.9245
15.2884
8.80956
4.95983
2.72839
1.46657
0.770392
0.395544
0.198533
0.0974344
0.046766
0.0219578
0.0100878
0.00453585
0.00199661
0.00086062
0.000363354
0.000150302
6.09299e-05
2.42126e-05
9.43437e-06
3.60544e-06
1.3517e-06
4.97283e-07
1.79555e-07
6.36519e-08
2.21818e-08
7.56258e-09
2.51684e-09
7.99066e-10
2.56842e-10
5.37833e-11
-2.19524e-12
2.19524e-12
0
1.09762e-12
0
1.4269e-11
0
1.09762e-12
0
1.09762e-12
-2.19524e-12
0
2.19524e-12
0
1.09762e-12
0
-2.19524e-11
9.87856e-12
-1.09762e-12
-1.09762e-12
0
1.09762e-12
0
-5.48809e-12
0
-7.68332e-12
0
-9.87856e-12
4013.32
4460.24
3611.24
2729.02
2017.93
1474.35
1064.6
758.159
531.293
365.645
246.754
163.095
105.489
66.725
41.2562
24.9275
14.7155
8.48677
4.78157
2.63197
1.41551
0.743916
0.382107
0.191858
0.0941892
0.0452215
0.0212382
0.00975948
0.00438919
0.00193244
0.000833113
0.000351801
0.000145546
5.90109e-05
2.34534e-05
9.13977e-06
3.49328e-06
1.30982e-06
4.81917e-07
1.74038e-07
6.16938e-08
2.1487e-08
7.34526e-09
2.44878e-09
8.04554e-10
2.56842e-10
6.80523e-11
7.68332e-12
-2.19523e-12
0
-1.75619e-11
0
-1.4269e-11
8.78094e-12
-1.31714e-11
-6.5857e-12
-1.4269e-11
0
-4.39047e-12
0
0
-1.09762e-12
0
2.41476e-11
5.48809e-12
0
-1.09762e-12
1.09762e-12
-1.09762e-12
0
-8.78094e-12
0
8.78094e-12
2.19523e-12
0
1396.76
2377.9
2371.07
2021.69
1608.65
1230.87
915.999
665.793
473.294
329.12
223.824
148.81
96.6911
61.3825
38.0643
23.0541
13.6367
7.87773
4.44472
2.44952
1.31876
0.693703
0.356601
0.179178
0.0880193
0.0422831
0.0198682
0.00913413
0.00410967
0.00181006
0.00078063
0.000329746
0.000136463
5.53439e-05
2.20018e-05
8.57624e-06
3.27867e-06
1.22964e-06
4.52505e-07
1.63445e-07
5.79575e-08
2.01742e-08
6.9128e-09
2.33353e-09
7.82601e-10
2.5355e-10
8.78094e-11
3.40261e-11
0
0
1.09762e-12
-1.09762e-12
4.39047e-12
8.78094e-12
0
-2.19523e-12
0
4.39047e-12
0
-2.19524e-12
0
0
0
-1.4269e-11
-1.09762e-11
2.19524e-12
3.29285e-12
2.19523e-12
0
0
3.29285e-12
8.78094e-12
0
-1.09762e-12
8.78094e-12
598.54
1300.87
1500.62
1412.67
1203.53
965.813
743.374
553.591
400.609
282.321
193.967
129.988
84.9933
54.2295
33.7672
20.5211
12.1728
7.0489
3.98519
2.20011
1.18629
0.624842
0.321577
0.161746
0.0795289
0.0382358
0.0179797
0.00827148
0.00372381
0.00164103
0.000708096
0.000299249
0.000123897
5.02682e-05
1.99917e-05
7.79554e-06
2.98125e-06
1.11845e-06
4.11746e-07
1.4878e-07
5.27756e-08
1.83522e-08
6.28166e-09
2.12828e-09
7.06866e-10
2.23914e-10
8.56142e-11
2.41476e-11
0
0
1.53666e-11
0
1.09762e-12
-8.78094e-12
1.31714e-11
5.48809e-12
1.4269e-11
-4.39047e-12
5.48809e-12
6.58571e-12
0
-2.19523e-12
0
-1.09762e-12
-4.39047e-12
3.29285e-12
0
1.09762e-12
0
2.19524e-12
5.48809e-12
0
-1.09762e-12
-1.09762e-12
-5.48809e-12
300.509
742.243
942.638
956.51
862.965
723.212
575.207
439.173
323.95
231.712
161.065
108.945
71.7696
46.0724
28.8327
17.5959
10.4746
6.0837
3.44834
1.90796
1.03075
0.543834
0.280303
0.141173
0.0694952
0.0334472
0.015743
0.00724878
0.00326597
0.00144031
0.000621901
0.000262984
0.000108945
4.42253e-05
1.75972e-05
6.86507e-06
2.62657e-06
9.85791e-07
3.63058e-07
1.31238e-07
4.65675e-08
1.61942e-08
5.54736e-09
1.86375e-09
6.12471e-10
1.83302e-10
4.82952e-11
1.09762e-11
1.09762e-11
3.29285e-12
8.78094e-12
1.09762e-12
-5.48809e-12
-9.87856e-12
0
5.48809e-12
1.09762e-12
-8.78094e-12
-5.48809e-12
0
0
0
0
1.86595e-11
0
-1.09762e-12
-1.09762e-12
-3.29285e-12
0
-1.09762e-12
-9.87856e-12
-1.20738e-11
-7.68332e-12
-1.09762e-12
-1.09762e-12
166.581
438.97
593.154
635.81
600.502
522.302
427.958
334.592
251.525
182.663
128.537
87.8162
58.3267
37.6979
23.7261
14.5489
8.69598
5.06828
2.88142
1.59844
0.865501
0.457565
0.236257
0.119177
0.0587505
0.0283119
0.0133413
0.00614934
0.00277327
0.0012241
0.000528971
0.000223855
9.27993e-05
3.76957e-05
1.50082e-05
5.8584e-06
2.24263e-06
8.42133e-07
3.10284e-07
1.12191e-07
3.98095e-08
1.38728e-08
4.73402e-09
1.57289e-09
5.10392e-10
1.69033e-10
4.60999e-11
1.75619e-11
-2.19524e-12
-2.19523e-12
-6.58571e-12
-1.09762e-12
0
-3.29285e-12
-1.09762e-12
0
-1.09762e-12
2.19524e-12
1.09762e-12
-6.58571e-12
1.09762e-12
2.19523e-12
1.09762e-12
0
-1.09762e-12
-4.39047e-12
0
0
0
-2.19524e-12
4.39047e-12
1.09762e-12
-4.39047e-12
0
0
97.5702
265.958
374.088
417.19
408.355
366.289
308.012
246.065
188.307
138.785
98.8624
68.233
45.707
29.7538
18.8402
11.6127
6.97188
4.07902
2.32673
1.2945
0.702722
0.37235
0.192645
0.0973525
0.0480692
0.0231984
0.0109461
0.00505144
0.00228064
0.00100768
0.000435858
0.00018461
7.65925e-05
3.1136e-05
1.24054e-05
4.84564e-06
1.85611e-06
6.97404e-07
2.57089e-07
9.30077e-08
3.30218e-08
1.1536e-08
3.93167e-09
1.2919e-09
4.01728e-10
1.35007e-10
4.71976e-11
1.09762e-11
-9.87856e-12
-4.39047e-12
-9.87856e-12
0
0
-1.09762e-12
0
-9.87856e-12
-1.09762e-12
-7.68332e-12
4.39047e-12
-4.39047e-12
0
-2.19523e-12
1.09762e-12
-5.48809e-12
2.19523e-12
2.19524e-12
0
0
-1.20738e-11
1.09762e-12
1.31714e-11
2.19524e-12
0
-7.68332e-12
0
58.7707
163.265
235.816
270.634
272.325
250.487
215.341
175.346
136.392
101.926
73.4644
51.2127
34.5987
22.687
14.4554
8.9581
5.40328
3.17416
1.81705
1.0141
0.552036
0.293229
0.152044
0.076987
0.0380812
0.0184079
0.0086985
0.00401959
0.00181702
0.000803745
0.000348015
0.000147548
6.12717e-05
2.49291e-05
9.94039e-06
3.88573e-06
1.48948e-06
5.60031e-07
2.06569e-07
7.47631e-08
2.65744e-08
9.26609e-09
3.16992e-09
1.04822e-09
3.20504e-10
8.56142e-11
1.86595e-11
2.08547e-11
1.09762e-12
-3.29285e-12
5.48809e-12
0
0
4.39047e-12
1.09762e-12
4.39047e-12
2.305e-11
3.29285e-12
-3.29285e-12
0
0
0
-3.29285e-12
0
0
0
7.68332e-12
-1.09762e-12
0
1.09762e-12
-1.09762e-12
0
6.5857e-12
0
4.39047e-12
35.8207
100.664
148.049
173.511
178.369
167.437
146.645
121.407
95.8241
72.5254
52.8537
37.1985
25.3397
16.7354
10.7301
6.68581
4.05199
2.39034
1.37343
0.769037
0.419859
0.223603
0.116214
0.0589694
0.0292249
0.0141515
0.00669783
0.0030996
0.00140303
0.000621389
0.000269366
0.000114326
4.75233e-05
1.93537e-05
7.72405e-06
3.02189e-06
1.1593e-06
4.36232e-07
1.61029e-07
5.83087e-08
2.07241e-08
7.21025e-09
2.46086e-09
8.44068e-10
2.82088e-10
9.32975e-11
2.85381e-11
2.52452e-11
3.29285e-12
-1.20738e-11
-2.19524e-12
0
-1.09762e-12
-3.29285e-12
0
8.78094e-12
1.4269e-11
1.4269e-11
-4.39047e-12
4.39047e-12
-1.09762e-12
2.19523e-12
8.78094e-12
0
-1.09762e-12
0
1.4269e-11
2.19523e-12
1.31714e-11
-1.09762e-12
2.19523e-12
5.48809e-12
6.58571e-12
8.78094e-12
2.19524e-12
21.8729
61.9335
92.2543
109.82
114.789
109.541
97.4433
81.8341
65.4283
50.0927
36.8791
26.1895
17.9818
11.9588
7.71453
4.83288
2.94303
1.74352
1.00556
0.564954
0.309371
0.165208
0.086075
0.0437733
0.0217376
0.0105454
0.00499951
0.00231725
0.0010504
0.000465835
0.000202185
8.59116e-05
3.57506e-05
1.45741e-05
5.82215e-06
2.27991e-06
8.75418e-07
3.29675e-07
1.21795e-07
4.4155e-08
1.56959e-08
5.47382e-09
1.89998e-09
6.65156e-10
2.51354e-10
9.65903e-11
4.06118e-11
-5.48809e-12
1.09762e-12
4.39047e-12
-2.19524e-12
-1.09762e-12
0
0
0
-5.48809e-12
-1.97571e-11
-1.09762e-12
2.19523e-12
-1.09762e-12
-1.09762e-12
0
1.09762e-12
-1.09762e-12
-1.09762e-12
-1.09762e-12
-6.58571e-12
0
-1.09762e-12
0
1.09762e-12
0
-6.58571e-12
0
1.09762e-12
13.2941
37.8403
56.89
68.527
72.5693
70.1827
63.248
53.7711
43.4801
33.6333
24.9923
17.8964
12.3794
8.2876
5.37794
3.38688
2.0722
1.2328
0.713697
0.402338
0.220997
0.118343
0.061813
0.0315069
0.0156789
0.00762076
0.00361935
0.00168029
0.000762819
0.000338771
0.000147228
6.26363e-05
2.60951e-05
1.06495e-05
4.2587e-06
1.66931e-06
6.41569e-07
2.4183e-07
8.94361e-08
3.24818e-08
1.15832e-08
4.0557e-09
1.41922e-09
5.00514e-10
1.97571e-10
5.1588e-11
1.4269e-11
-1.31714e-11
-4.39047e-12
1.20738e-11
2.19523e-12
0
2.19523e-12
4.39047e-12
2.19523e-12
1.09762e-12
-1.4269e-11
0
4.39047e-12
-1.09762e-12
3.29285e-12
1.4269e-11
-8.78094e-12
0
0
-9.87856e-12
-3.7319e-11
-1.09762e-12
0
0
-3.29285e-12
-5.48809e-12
0
-2.19523e-12
-3.29285e-12
8.0071
22.8782
34.6346
42.1008
45.0492
44.0449
40.1265
34.4735
28.1524
21.9771
16.4685
11.8831
8.27691
5.57585
3.63867
2.30319
1.41562
0.845668
0.491407
0.277962
0.153149
0.0822395
0.0430648
0.0220019
0.0109723
0.00534363
0.00254248
0.00118234
0.0005376
0.000239099
0.000104053
4.43249e-05
1.84886e-05
7.55392e-06
3.02405e-06
1.18658e-06
4.56506e-07
1.72288e-07
6.38012e-08
2.31806e-08
8.28482e-09
2.90759e-09
1.00761e-09
3.43554e-10
1.05371e-10
3.51238e-11
5.48809e-12
7.68332e-12
7.68332e-12
2.19523e-12
4.39047e-12
4.39047e-12
0
1.09762e-12
-1.09762e-12
-1.09762e-12
-3.29285e-12
0
-1.09762e-12
2.19524e-12
0
-1.09762e-12
5.48809e-12
0
-1.09762e-11
-5.48809e-12
-2.19524e-12
-1.09762e-12
0
1.09762e-12
0
0
4.39047e-12
0
1.09762e-12
4.76423
13.6515
20.7766
25.4366
27.4457
27.075
24.8924
21.5782
17.774
13.9883
10.5616
7.67421
5.37957
3.64525
2.3915
1.5211
0.939048
0.563222
0.328477
0.18642
0.103024
0.0554771
0.0291248
0.0149148
0.00745411
0.00363748
0.00173391
0.000807714
0.000367852
0.000163849
7.14059e-05
3.04581e-05
1.27205e-05
5.20341e-06
2.08542e-06
8.19177e-07
3.15513e-07
1.19211e-07
4.41989e-08
1.60691e-08
5.72847e-09
2.00754e-09
6.65156e-10
1.96474e-10
3.62214e-11
0
-2.19523e-12
1.20738e-11
2.08547e-11
1.09762e-12
0
1.09762e-12
0
0
-1.09762e-12
0
1.09762e-12
-8.78094e-12
-7.68332e-12
-3.29285e-12
-1.09762e-12
-1.4269e-11
1.09762e-12
-1.20738e-11
-1.09762e-12
1.09762e-11
2.305e-11
-2.19523e-12
0
0
-1.09762e-12
-4.39047e-12
-8.78094e-12
1.09762e-12
6.58571e-12
2.79399
8.02368
12.2624
15.0985
16.4017
16.3005
15.1021
13.1926
10.9486
8.67874
6.59727
4.82415
3.40164
2.31753
1.52805
0.976376
0.605302
0.36445
0.213304
0.12145
0.067319
0.0363499
0.0191316
0.00982024
0.00491858
0.00240501
0.00114856
0.000535976
0.000244495
0.00010907
4.76019e-05
2.03323e-05
8.50251e-06
3.48226e-06
1.39726e-06
5.49475e-07
2.11859e-07
8.01085e-08
2.97224e-08
1.08269e-08
3.8713e-09
1.35666e-09
4.45633e-10
1.32812e-10
1.86595e-11
-2.63428e-11
-9.87856e-12
-3.29285e-12
-8.78094e-12
-1.09762e-12
0
-2.19523e-12
-1.09762e-12
1.09762e-12
0
0
4.39047e-12
0
1.09762e-12
0
-1.09762e-12
-1.09762e-12
-6.5857e-12
0
1.20738e-11
8.78094e-12
2.19523e-12
0
-1.09762e-12
-2.19523e-12
-6.5857e-12
4.39047e-12
0
0
0
1.61229
4.63821
7.11205
8.79741
9.61004
9.61001
8.96176
7.88066
6.58319
5.25163
4.01642
2.95386
2.0941
1.43388
0.949842
0.609548
0.3794
0.229279
0.134649
0.0769072
0.0427534
0.0231475
0.0122134
0.00628365
0.00315402
0.0015453
0.000739377
0.000345636
0.000157928
7.0562e-05
3.08408e-05
1.31914e-05
5.52363e-06
2.26509e-06
9.09966e-07
3.58248e-07
1.38239e-07
5.23223e-08
1.94147e-08
7.07414e-09
2.54757e-09
9.16511e-10
3.23797e-10
1.21836e-10
3.62214e-11
6.58571e-12
1.64643e-11
-1.31714e-11
-2.41476e-11
-1.09762e-12
0
-3.29285e-12
-8.78094e-12
0
-1.4269e-11
-1.09762e-12
0
7.68332e-12
8.78094e-12
6.58571e-12
1.09762e-12
-4.39047e-12
0
1.31714e-11
9.87856e-12
0
-1.09762e-12
2.19523e-12
-4.39047e-12
0
-7.68332e-12
3.29285e-12
8.78094e-12
9.87856e-12
-3.29285e-12
0.914324
2.63403
4.04983
5.0285
5.51843
5.5472
5.20186
4.60059
3.86524
3.10083
2.38444
1.76276
1.25585
0.863912
0.574768
0.370347
0.231386
0.140323
0.0826772
0.0473659
0.0264054
0.014334
0.00758154
0.00390951
0.00196653
0.000965414
0.000462782
0.000216716
9.91864e-05
4.43856e-05
1.94285e-05
8.32173e-06
3.48924e-06
1.43267e-06
5.7627e-07
2.27146e-07
8.77534e-08
3.3237e-08
1.23625e-08
4.51999e-09
1.63545e-09
5.97104e-10
2.27207e-10
9.00046e-11
6.36618e-11
4.17095e-11
2.305e-11
9.87856e-12
4.39047e-12
0
1.09762e-12
-1.09762e-12
0
-2.19524e-12
0
-4.39047e-12
-4.39047e-12
0
8.78094e-12
-1.09762e-12
0
1.09762e-12
0
-2.19524e-12
5.48809e-12
-4.39047e-12
-1.09762e-12
-1.09762e-12
0
1.09762e-12
-4.39047e-12
-7.68332e-12
-2.19524e-12
2.19523e-12
5.48809e-12
0.509087
1.4683
2.26253
2.81812
3.1047
3.1347
2.95361
2.62521
2.21673
1.78724
1.38104
1.02579
0.7341
0.507154
0.338777
0.219117
0.137388
0.0835964
0.0494079
0.0283883
0.015869
0.00863627
0.0045788
0.00236638
0.00119281
0.00058673
0.000281777
0.000132184
6.05977e-05
2.71597e-05
1.1906e-05
5.10687e-06
2.14417e-06
8.81537e-07
3.55039e-07
1.4011e-07
5.41949e-08
2.05463e-08
7.65917e-09
2.80661e-09
1.01749e-09
3.52335e-10
1.41593e-10
6.80523e-11
3.18309e-11
4.71976e-11
9.87856e-12
2.85381e-11
1.97571e-11
0
-1.09762e-12
4.39047e-12
8.78094e-12
0
1.4269e-11
2.19523e-12
1.09762e-12
3.29285e-12
0
-2.19523e-12
-2.19523e-12
5.48809e-12
1.09762e-12
0
-9.87856e-12
-1.09762e-12
0
-3.29285e-12
4.39047e-12
-1.09762e-12
-3.29285e-12
5.48809e-12
-3.29285e-12
-9.87856e-12
-1.09762e-12
0.278108
0.802883
1.23947
1.54792
1.71093
1.73399
1.64056
1.46449
1.2421
1.0059
0.78069
0.582343
0.418466
0.290236
0.194602
0.126313
0.0794645
0.0485042
0.0287524
0.0165664
0.00928479
0.00506544
0.00269182
0.0013942
0.000704205
0.000347061
0.000166981
7.84676e-05
3.60313e-05
1.61743e-05
7.10088e-06
3.05011e-06
1.28236e-06
5.27918e-07
2.1288e-07
8.41038e-08
3.25663e-08
1.2368e-08
4.59353e-09
1.69143e-09
6.12471e-10
2.38183e-10
8.56142e-11
3.40261e-11
-5.48809e-12
9.87856e-12
-5.48809e-12
-7.68332e-12
6.58571e-12
0
0
0
0
-1.09762e-12
-2.19524e-12
5.48809e-12
-1.09762e-12
-2.19524e-12
-9.87856e-12
0
0
-4.39047e-12
0
2.19524e-12
-4.39047e-12
1.09762e-12
8.78094e-12
4.39047e-12
0
0
9.87856e-12
1.20738e-11
5.48809e-12
-5.48809e-12
-4.39047e-12
0.148985
0.430459
0.665572
0.833062
0.923376
0.938868
0.891464
0.798812
0.68017
0.553009
0.430887
0.322656
0.232729
0.161998
0.108996
0.0709816
0.0447954
0.027424
0.0163022
0.0094179
0.00529162
0.00289376
0.00154121
0.000799942
0.000404857
0.000199908
9.63542e-05
4.53561e-05
2.08607e-05
9.37879e-06
4.12361e-06
1.77378e-06
7.46759e-07
3.07831e-07
1.24274e-07
4.91678e-08
1.90744e-08
7.25854e-09
2.71002e-09
1.0131e-09
3.7319e-10
1.71228e-10
5.37833e-11
1.31714e-11
2.85381e-11
4.39047e-12
8.78094e-12
-1.20738e-11
5.48809e-12
1.09762e-12
0
0
0
0
1.09762e-12
-2.19523e-12
-1.09762e-12
-1.09762e-12
-1.09762e-12
2.19524e-12
-1.09762e-12
-8.78094e-12
-1.09762e-12
0
-8.78094e-12
-9.87856e-12
0
2.19523e-12
4.39047e-12
1.09762e-12
1.31714e-11
-4.39047e-12
3.29285e-12
-1.09762e-12
-1.09762e-12
0.0782381
0.226206
0.350224
0.439198
0.487989
0.497576
0.473931
0.426096
0.364073
0.297057
0.232279
0.174545
0.12633
0.0882291
0.0595533
0.0389025
0.0246231
0.0151167
0.00901014
0.00521841
0.00293911
0.00161094
0.000859838
0.000447201
0.000226773
0.000112182
5.4166e-05
2.55399e-05
1.17654e-05
5.29772e-06
2.33267e-06
1.00483e-06
4.23618e-07
1.74863e-07
7.06877e-08
2.80013e-08
1.08807e-08
4.13802e-09
1.57289e-09
5.96006e-10
2.28304e-10
9.7688e-11
3.95142e-11
1.97571e-11
1.64643e-11
-3.29285e-12
9.87856e-12
1.31714e-11
-5.48809e-12
-8.78094e-12
0
-1.09762e-12
0
1.09762e-12
3.29285e-12
3.29285e-12
1.86595e-11
0
2.19523e-12
0
0
-6.5857e-12
-1.09762e-12
3.29285e-12
0
-1.09762e-12
-7.68332e-12
0
0
1.09762e-12
-4.39047e-12
-8.78094e-12
0
0
-5.48809e-12
0.0402651
0.116485
0.180556
0.2268
0.252523
0.258119
0.246529
0.222302
0.190532
0.155955
0.122337
0.0922233
0.0669578
0.046907
0.0317558
0.0208037
0.0132039
0.00812764
0.00485664
0.0028196
0.00159171
0.000874329
0.000467646
0.000243705
0.000123815
6.13604e-05
2.96783e-05
1.40167e-05
6.46723e-06
2.91644e-06
1.28599e-06
5.54723e-07
2.34188e-07
9.68132e-08
3.92025e-08
1.55456e-08
6.0347e-09
2.29073e-09
8.67118e-10
3.28188e-10
1.48178e-10
5.59785e-11
3.95142e-11
1.97571e-11
-2.08547e-11
-9.87856e-12
-1.64643e-11
-1.75619e-11
-1.20738e-11
0
0
2.19524e-12
-1.09762e-12
2.19524e-12
-1.09762e-12
-1.09762e-12
9.87856e-12
0
0
-2.19524e-12
3.29285e-12
8.78094e-12
0
-1.86595e-11
8.78094e-12
1.09762e-11
0
1.09762e-12
-4.39047e-12
0
-1.20738e-11
0
0
-3.29285e-12
2.19524e-12
0.0203051
0.0587718
0.0911885
0.114709
0.127953
0.131071
0.12549
0.113455
0.0975108
0.0800429
0.0629714
0.0476086
0.0346654
0.0243534
0.0165326
0.0108598
0.00691046
0.00426432
0.00255422
0.0014863
0.000840877
0.000462866
0.000248067
0.000129523
6.59253e-05
3.27287e-05
1.58565e-05
7.50091e-06
3.46622e-06
1.56543e-06
6.9126e-07
2.98591e-07
1.26239e-07
5.22598e-08
2.12027e-08
8.4308e-09
3.29175e-09
1.26665e-09
4.78561e-10
1.69033e-10
7.57356e-11
1.20738e-11
1.4269e-11
3.29285e-12
-4.39047e-12
-3.29285e-12
-1.31714e-11
-2.52452e-11
-4.39047e-12
7.68332e-12
0
1.09762e-12
0
1.09762e-12
-1.09762e-12
-2.19523e-12
-1.86595e-11
-7.68332e-12
-1.09762e-12
0
-1.09762e-12
1.09762e-11
1.09762e-12
-2.19524e-12
-1.09762e-12
-4.39047e-12
9.87856e-12
-1.09762e-12
2.19524e-12
-2.19524e-12
3.29285e-12
0
-2.19524e-12
3.29285e-12
-8.78094e-12
0.0100325
0.0290513
0.0451142
0.0568222
0.063485
0.0651564
0.0625165
0.0566539
0.0488133
0.0401725
0.0316879
0.0240208
0.0175366
0.0123522
0.00840695
0.00553609
0.00353135
0.00218425
0.00131127
0.000764691
0.000433532
0.00023912
0.000128401
6.7166e-05
3.42472e-05
1.7031e-05
8.26478e-06
3.91578e-06
1.81226e-06
8.19661e-07
3.62466e-07
1.56773e-07
6.63773e-08
2.75052e-08
1.11869e-08
4.4684e-09
1.77375e-09
7.03573e-10
2.71112e-10
1.00981e-10
1.86595e-11
-8.78094e-12
-5.48809e-12
-1.53666e-11
2.19523e-12
-2.19523e-12
7.68332e-12
3.29285e-12
1.09762e-12
2.19523e-12
1.09762e-12
-2.19523e-12
7.68332e-12
-3.29285e-12
-2.19523e-12
5.48809e-12
-7.68332e-12
1.20738e-11
1.09762e-12
0
1.09762e-12
-2.19523e-12
-1.09762e-12
1.31714e-11
0
1.31714e-11
0
-2.19523e-12
0
1.09762e-12
4.39047e-12
-2.19523e-12
0
2.19523e-12
-1.09762e-12
0.00485651
0.0140686
0.0218642
0.027569
0.0308457
0.0317115
0.0304853
0.0276847
0.0239068
0.019721
0.0155932
0.0118491
0.00867165
0.00612278
0.00417713
0.00275712
0.00176271
0.00109271
0.000657393
0.000384164
0.000218233
0.000120601
6.48792e-05
3.39987e-05
1.73654e-05
8.65002e-06
4.20434e-06
1.99504e-06
9.24711e-07
4.18839e-07
1.85474e-07
8.03313e-08
3.40272e-08
1.41198e-08
5.75152e-09
2.31048e-09
9.25292e-10
3.76483e-10
1.47081e-10
7.24428e-11
1.20738e-11
8.78094e-12
-1.75619e-11
-1.97571e-11
6.58571e-12
8.78094e-12
1.09762e-11
-4.39047e-12
-1.09762e-12
2.19523e-12
-7.68332e-12
-7.68332e-12
-1.09762e-12
0
-1.31714e-11
6.5857e-12
1.09762e-12
1.09762e-11
0
-1.09762e-12
1.09762e-12
0
-1.09762e-12
4.39047e-12
3.29285e-12
4.39047e-12
-9.87856e-12
0
-1.09762e-12
1.09762e-12
1.09762e-12
1.09762e-12
0
1.09762e-12
1.31714e-11
0.00230337
0.00667489
0.0103805
0.013102
0.0146779
0.0151128
0.0145535
0.0132417
0.0114579
0.00947192
0.00750581
0.00571634
0.00419285
0.00296708
0.00202872
0.00134199
0.000859812
0.000534111
0.000321984
0.00018853
0.000107303
5.94078e-05
3.20163e-05
1.68064e-05
8.59841e-06
4.28992e-06
2.08835e-06
9.92451e-07
4.60648e-07
2.08936e-07
9.26554e-08
4.0198e-08
1.70438e-08
7.07854e-09
2.90649e-09
1.18982e-09
4.87342e-10
1.99766e-10
1.03176e-10
7.13451e-11
4.60999e-11
2.52452e-11
-6.58571e-12
0
3.29285e-12
1.4269e-11
-6.5857e-12
-2.19524e-12
-4.39047e-12
-1.09762e-12
-1.09762e-12
-3.29285e-12
-7.68332e-12
1.09762e-12
1.09762e-12
-4.39047e-12
0
-3.29285e-12
-2.19523e-12
2.19524e-12
-1.09762e-12
2.19523e-12
0
6.58571e-12
-2.19523e-12
-1.31714e-11
2.19524e-12
1.09762e-12
0
-1.09762e-12
7.68332e-12
3.29285e-12
0
3.29285e-12
-4.39047e-12
0.00107042
0.00310293
0.00482848
0.00609975
0.00684119
0.00705353
0.0068031
0.0062005
0.00537518
0.00445214
0.00353511
0.00269784
0.00198295
0.00140616
0.000963448
0.000638622
0.00040999
0.000255186
0.000154133
9.04183e-05
5.15559e-05
2.85941e-05
1.54365e-05
8.11658e-06
4.15923e-06
2.07833e-06
1.01329e-06
4.82271e-07
2.24159e-07
1.0182e-07
4.52273e-08
1.96561e-08
8.36824e-09
3.49811e-09
1.45325e-09
5.81737e-10
2.33793e-10
8.12237e-11
4.93928e-11
2.08547e-11
3.62214e-11
3.07333e-11
2.96357e-11
2.74404e-11
9.87856e-12
1.86595e-11
8.78094e-12
3.51238e-11
9.87856e-12
-2.19523e-12
7.68332e-12
6.5857e-12
2.19523e-12
-2.19523e-12
1.4269e-11
-6.5857e-12
-1.09762e-12
-3.29285e-12
1.09762e-12
2.19523e-12
-1.09762e-12
-2.19523e-12
2.19523e-12
-1.20738e-11
-3.29285e-12
-1.09762e-12
0
1.09762e-12
1.09762e-12
0
-7.68332e-12
0
-4.39047e-12
-1.4269e-11
-1.09762e-12
0.000487461
0.00141344
0.00220066
0.00278228
0.00312367
0.0032246
0.00311451
0.00284308
0.00246881
0.00204851
0.00162958
0.00124599
0.000917589
0.000651952
0.000447558
0.000297235
0.000191185
0.00011922
7.21407e-05
4.23952e-05
2.42155e-05
1.34533e-05
7.27471e-06
3.83119e-06
1.96626e-06
9.83994e-07
4.80437e-07
2.28996e-07
1.06616e-07
4.85004e-08
2.15704e-08
9.38682e-09
4.0085e-09
1.69692e-09
6.90401e-10
2.62331e-10
8.78094e-11
1.31714e-11
-1.86595e-11
-2.305e-11
-1.64643e-11
2.19524e-12
2.305e-11
1.4269e-11
8.78094e-12
4.39047e-12
3.62214e-11
3.40261e-11
2.41476e-11
5.48809e-12
-1.09762e-12
3.29285e-12
-6.5857e-12
0
-2.19524e-12
0
0
-7.68332e-12
4.39047e-12
-3.29285e-12
0
-1.09762e-12
-5.48809e-12
-2.08547e-11
2.19523e-12
0
-2.19524e-12
-3.29285e-12
1.09762e-12
-1.09762e-12
1.09762e-12
-2.19524e-12
0
0
1.31714e-11
0.000217556
0.000630985
0.000982897
0.00124356
0.00139745
0.00144422
0.00139671
0.00127681
0.00111044
0.000922908
0.000735429
0.000563307
0.000415583
0.00029581
0.00020344
0.000135354
8.72176e-05
5.44837e-05
3.30258e-05
1.94415e-05
1.11232e-05
6.18971e-06
3.35231e-06
1.76818e-06
9.08817e-07
4.55465e-07
2.22681e-07
1.0626e-07
4.95344e-08
2.25824e-08
1.00575e-08
4.3773e-09
1.86266e-09
7.68332e-10
2.91966e-10
1.14152e-10
5.48809e-12
-2.19524e-12
-3.62214e-11
-2.41476e-11
-3.84166e-11
-3.51238e-11
-2.63428e-11
-9.87856e-12
1.20738e-11
1.97571e-11
2.85381e-11
1.53666e-11
3.18309e-11
-1.09762e-12
-1.09762e-12
1.09762e-12
0
3.29285e-12
0
-1.09762e-12
0
0
-1.09762e-12
0
0
3.29285e-12
-1.09762e-12
7.68332e-12
0
-1.09762e-12
0
0
6.58571e-12
4.39047e-12
6.5857e-12
-1.97571e-11
2.19524e-12
1.09762e-11
0
9.51729e-05
0.000276096
0.000430273
0.000544738
0.000612668
0.000633819
0.000613691
0.000561744
0.000489246
0.000407237
0.000325027
0.000249365
0.000184279
0.000131392
9.05177e-05
6.03269e-05
3.89386e-05
2.43653e-05
1.47937e-05
8.7229e-06
4.99868e-06
2.78595e-06
1.51115e-06
7.98243e-07
4.10873e-07
2.06182e-07
1.00936e-07
4.8215e-08
2.24935e-08
1.02671e-08
4.57267e-09
1.98669e-09
8.41873e-10
3.24895e-10
1.05371e-10
1.86595e-11
-3.51238e-11
-1.53666e-11
-2.41476e-11
-2.74404e-11
-2.74404e-11
-2.85381e-11
-3.29285e-11
-1.20738e-11
-6.5857e-12
4.39047e-12
2.19523e-12
-1.53666e-11
-2.19523e-12
-5.48809e-12
2.19523e-12
0
2.08547e-11
0
0
0
8.78094e-12
0
-1.09762e-12
-2.19523e-12
-1.09762e-12
1.09762e-12
4.39047e-12
1.86595e-11
1.09762e-12
0
-1.09762e-12
1.31714e-11
0
1.09762e-12
-7.68332e-12
0
0
0
-7.68332e-12
4.08166e-05
0.000118434
0.000184645
0.000233905
0.000263278
0.000272623
0.00026425
0.000242175
0.000211198
0.000176044
0.000140713
0.000108122
8.00271e-05
5.71509e-05
3.94355e-05
2.63248e-05
1.70189e-05
1.06664e-05
6.48651e-06
3.83063e-06
2.19852e-06
1.22714e-06
6.66604e-07
3.52633e-07
1.81769e-07
9.13393e-08
4.47597e-08
2.14024e-08
9.9949e-09
4.53536e-09
2.01084e-09
8.60532e-10
3.55628e-10
1.29519e-10
2.74404e-11
-1.20738e-11
-2.85381e-11
-2.96357e-11
-1.53666e-11
-2.08547e-11
-2.63428e-11
-1.31714e-11
-1.75619e-11
-2.52452e-11
-3.7319e-11
-3.84166e-11
-2.74404e-11
-2.74404e-11
-3.18309e-11
1.09762e-12
-2.19524e-12
-1.31714e-11
-1.09762e-12
-2.19524e-12
1.09762e-12
3.29285e-12
7.68332e-12
-1.20738e-11
-1.09762e-12
2.19524e-12
-1.09762e-12
-5.48809e-12
-3.29285e-12
0
0
2.19524e-12
1.09762e-12
0
-8.78094e-12
4.39047e-12
1.09762e-12
2.41476e-11
2.19524e-12
4.39047e-12
0
1.71641e-05
4.98132e-05
7.76905e-05
9.84715e-05
0.000110916
0.000114952
0.000111534
0.000102331
8.93504e-05
7.45754e-05
5.96907e-05
4.59315e-05
3.40466e-05
2.43508e-05
1.68282e-05
1.12507e-05
7.28468e-06
4.57252e-06
2.78488e-06
1.64707e-06
9.46707e-07
5.29202e-07
2.87872e-07
1.52482e-07
7.87178e-08
3.96196e-08
1.94498e-08
9.31767e-09
4.34766e-09
1.97132e-09
8.74801e-10
3.57823e-10
1.44886e-10
4.28071e-11
-1.75619e-11
-1.20738e-11
-6.58571e-12
-2.41476e-11
-7.68332e-12
-9.87856e-12
-3.51238e-11
-1.97571e-11
-1.53666e-11
-1.64643e-11
-2.41476e-11
-3.29285e-11
-4.28071e-11
-1.20738e-11
-2.63428e-11
-1.09762e-12
-4.39047e-12
-5.48809e-12
-1.4269e-11
2.19524e-12
2.19524e-12
0
-8.78094e-12
-1.64643e-11
-8.78094e-12
-1.20738e-11
-3.29285e-12
-1.09762e-12
1.09762e-12
-2.19524e-12
-1.09762e-12
-1.09762e-11
1.09762e-12
-6.5857e-12
-1.09762e-12
-1.09762e-12
-2.19523e-12
0
-9.87856e-12
0
5.48809e-12
7.07857e-06
2.0547e-05
3.20569e-05
4.06523e-05
4.58201e-05
4.75254e-05
4.61549e-05
4.23907e-05
3.70558e-05
3.09661e-05
2.48175e-05
1.91226e-05
1.41943e-05
1.01665e-05
7.03596e-06
4.71082e-06
3.05465e-06
1.92018e-06
1.17115e-06
6.93666e-07
3.99285e-07
2.23525e-07
1.21775e-07
6.46047e-08
3.3395e-08
1.68331e-08
8.30457e-09
3.99423e-09
1.8879e-09
8.57239e-10
3.67702e-10
1.33909e-10
3.29285e-11
1.53666e-11
-1.53666e-11
-2.19523e-11
-8.78094e-12
-3.29285e-11
-3.51238e-11
-2.19523e-11
-6.5857e-12
-8.78094e-12
9.87856e-12
1.4269e-11
-4.39047e-12
-3.29285e-12
-8.78094e-12
1.09762e-12
2.52452e-11
-3.29285e-12
1.09762e-12
1.31714e-11
1.09762e-12
0
-3.29285e-12
6.5857e-12
-7.68332e-12
7.68332e-12
-8.78094e-12
-2.19523e-12
-1.31714e-11
5.48809e-12
4.39047e-12
-7.68332e-12
1.09762e-12
-1.09762e-12
-1.09762e-12
1.09762e-12
2.19523e-12
-8.78094e-12
-1.31714e-11
-4.39047e-12
-6.5857e-12
-7.68332e-12
-1.09762e-12
2.86352e-06
8.31332e-06
1.29744e-05
1.6461e-05
1.85649e-05
1.92702e-05
1.87307e-05
1.72199e-05
1.50688e-05
1.26069e-05
1.0116e-05
7.80457e-06
5.8008e-06
4.16037e-06
2.88323e-06
1.93311e-06
1.25524e-06
7.90142e-07
4.82589e-07
2.86244e-07
1.64987e-07
9.2482e-08
5.04652e-08
2.68225e-08
1.38914e-08
7.03024e-09
3.46847e-09
1.67496e-09
8.06749e-10
3.61116e-10
1.63545e-10
6.14666e-11
5.48809e-12
5.48809e-12
-1.09762e-11
-2.63428e-11
-2.305e-11
-3.29285e-11
-3.62214e-11
-2.52452e-11
-3.29285e-12
2.19524e-12
7.68332e-12
-3.29285e-12
1.4269e-11
2.19524e-12
2.305e-11
2.19524e-12
9.87856e-12
0
0
1.09762e-12
-1.09762e-12
-1.31714e-11
-1.09762e-12
4.39047e-12
0
4.39047e-12
1.86595e-11
1.31714e-11
4.39047e-12
2.19523e-12
0
2.19524e-12
0
1.09762e-11
-2.19524e-12
0
0
5.48809e-12
8.78094e-12
0
9.87856e-12
2.19523e-12
-6.58571e-12
1.13656e-06
3.30009e-06
5.152e-06
6.53929e-06
7.37934e-06
7.66504e-06
7.45652e-06
6.86132e-06
6.01025e-06
5.03374e-06
4.0438e-06
3.1236e-06
2.32454e-06
1.66932e-06
1.15839e-06
7.77695e-07
5.05656e-07
3.18718e-07
1.94935e-07
1.15748e-07
6.6812e-08
3.75166e-08
2.04859e-08
1.08993e-08
5.66151e-09
2.89661e-09
1.44007e-09
7.07963e-10
3.46847e-10
1.71228e-10
9.65903e-11
6.25642e-11
4.50023e-11
-1.09762e-12
1.20738e-11
-5.48809e-12
8.78094e-12
1.4269e-11
2.305e-11
-3.29285e-12
1.86595e-11
1.31714e-11
1.53666e-11
-4.39047e-12
2.08547e-11
1.31714e-11
8.78094e-12
1.09762e-12
-2.08547e-11
-4.39047e-12
1.09762e-12
3.29285e-12
0
-2.19524e-12
2.19524e-12
-2.305e-11
-1.09762e-12
0
7.68332e-12
1.09762e-12
1.4269e-11
-2.19523e-12
-1.09762e-12
-1.09762e-12
-4.39047e-12
1.09762e-12
-1.09762e-12
1.20738e-11
0
0
2.08547e-11
9.87856e-12
6.58571e-12
4.39047e-12
0
4.42656e-07
1.28546e-06
2.00742e-06
2.54902e-06
2.87803e-06
2.99146e-06
2.91228e-06
2.68212e-06
2.35167e-06
1.97159e-06
1.58557e-06
1.22617e-06
9.13576e-07
6.56855e-07
4.56389e-07
3.06806e-07
1.99755e-07
1.261e-07
7.72251e-08
4.59111e-08
2.65426e-08
1.49298e-08
8.16188e-09
4.35644e-09
2.28085e-09
1.17555e-09
6.0808e-10
3.35871e-10
1.76716e-10
1.16347e-10
6.80523e-11
6.0369e-11
4.50023e-11
1.75619e-11
4.28071e-11
1.53666e-11
2.305e-11
3.62214e-11
1.64643e-11
1.09762e-12
4.06118e-11
8.78094e-12
3.7319e-11
4.71976e-11
3.7319e-11
4.17095e-11
1.97571e-11
3.18309e-11
-4.39047e-12
-6.5857e-12
4.39047e-12
6.5857e-12
1.53666e-11
2.08547e-11
1.09762e-12
5.48809e-12
4.39047e-12
1.4269e-11
-1.09762e-11
0
0
-2.19523e-12
-1.09762e-12
0
-3.29285e-12
0
4.39047e-12
-4.39047e-12
-2.19523e-12
-1.31714e-11
-5.48809e-12
6.5857e-12
-1.09762e-12
-5.48809e-12
2.19523e-12
1.69178e-07
4.91399e-07
7.67529e-07
9.75031e-07
1.10151e-06
1.14568e-06
1.11618e-06
1.02882e-06
9.02874e-07
7.57689e-07
6.09977e-07
4.72235e-07
3.52247e-07
2.53561e-07
1.76404e-07
1.1873e-07
7.74117e-08
4.89329e-08
2.99792e-08
1.78582e-08
1.03341e-08
5.80091e-09
3.18858e-09
1.71777e-09
9.17608e-10
4.75268e-10
2.62331e-10
1.52569e-10
8.56142e-11
6.25642e-11
4.06118e-11
3.29285e-11
2.74404e-11
2.96357e-11
6.5857e-12
-3.29285e-12
-7.68332e-12
1.31714e-11
-5.48809e-12
1.31714e-11
6.5857e-12
7.68332e-12
1.86595e-11
5.04904e-11
4.06118e-11
3.84166e-11
1.31714e-11
-2.19524e-12
6.58571e-12
8.78094e-12
1.09762e-12
4.39047e-12
1.4269e-11
1.09762e-12
-2.19524e-12
1.4269e-11
1.31714e-11
2.19524e-12
2.19523e-12
0
0
-2.19523e-12
2.19524e-12
8.78094e-12
3.29285e-12
-1.09762e-12
0
-1.20738e-11
1.09762e-12
0
-1.64643e-11
-9.87856e-12
1.09762e-12
-7.68332e-12
0
6.34818e-08
1.84496e-07
2.88287e-07
3.66367e-07
4.14118e-07
4.30984e-07
4.20194e-07
3.87571e-07
3.4043e-07
2.85939e-07
2.30435e-07
1.78578e-07
1.33352e-07
9.61162e-08
6.69481e-08
4.51143e-08
2.94502e-08
1.86244e-08
1.14196e-08
6.78218e-09
3.92947e-09
2.20511e-09
1.21067e-09
6.53082e-10
3.42457e-10
1.95376e-10
1.08664e-10
4.60999e-11
2.85381e-11
3.7319e-11
2.85381e-11
1.64643e-11
-7.68332e-12
2.19524e-12
-1.31714e-11
1.09762e-12
-1.20738e-11
7.68332e-12
1.4269e-11
3.62214e-11
4.39047e-12
1.64643e-11
-2.08547e-11
1.20738e-11
2.74404e-11
1.86595e-11
-7.68332e-12
-1.09762e-12
-4.39047e-12
5.48809e-12
0
-2.19524e-12
-1.4269e-11
-8.78094e-12
0
-2.08547e-11
-4.39047e-12
-4.39047e-12
1.09762e-12
0
0
-2.19523e-12
4.39047e-12
0
5.48809e-12
0
-1.09762e-12
0
6.58571e-12
1.53666e-11
5.48809e-12
-5.48809e-12
-8.78094e-12
1.09762e-12
-4.39047e-12
2.341e-08
6.80698e-08
1.06315e-07
1.35145e-07
1.52813e-07
1.59119e-07
1.55197e-07
1.43259e-07
1.25927e-07
1.05829e-07
8.5376e-08
6.62248e-08
4.95058e-08
3.57253e-08
2.48995e-08
1.68067e-08
1.09751e-08
6.93804e-09
4.27522e-09
2.52672e-09
1.43788e-09
8.10042e-10
4.4673e-10
2.25012e-10