/*--------------------------------*- C++ -*----------------------------------*\
  =========                 |
  \\      /  F ield         | OpenFOAM: The Open Source CFD Toolbox
   \\    /   O peration     | Website:  https://openfoam.org
    \\  /    A nd           | Version:  10
     \\/     M anipulation  |
\*---------------------------------------------------------------------------*/
FoamFile
{
    format      ascii;
    class       volScalarField;
    location    "145";
    object      gradTx;
}
// * * * * * * * * * * * * * * * * * * * * * * * * * * * * * * * * * * * * * //

dimensions      [0 -1 0 1 0 0 0];

internalField   nonuniform List<scalar> 
11250
(
14268.9
8012.31
5160.82
3625.21
2680.66
2041.27
1579.39
1231.3
961.932
750.26
582.667
449.714
344.457
261.541
196.69
146.409
107.812
78.5041
56.5062
40.1937
28.2474
19.6102
13.4463
9.10527
6.08853
4.02005
2.62074
1.68681
1.07187
0.672378
0.416334
0.254423
0.15341
0.0912375
0.0534933
0.0308985
0.0175679
0.00982206
0.00539365
0.00290544
0.00153328
0.000791674
0.000399438
0.000196714
9.44643e-05
4.41957e-05
2.01313e-05
8.92305e-06
3.8472e-06
1.6131e-06
6.57691e-07
2.60747e-07
1.00543e-07
3.76922e-08
1.37334e-08
4.85806e-09
1.67277e-09
5.41125e-10
1.53666e-10
4.39047e-11
0
1.09762e-12
0
-2.19524e-11
9.87856e-12
-1.09762e-12
-1.09762e-12
0
1.09762e-12
0
-5.48809e-12
0
-7.68332e-12
0
-9.87856e-12
4065.14
4612.15
3853.01
3044.93
2388.53
1878.5
1481.47
1169
920.688
722.177
563.176
436.018
334.762
254.656
191.798
142.941
105.364
76.7855
55.3081
39.3649
27.6792
19.2242
13.1867
8.93253
5.97481
3.946
2.57308
1.6565
1.05281
0.660546
0.409082
0.250038
0.150796
0.0897033
0.0526079
0.0303971
0.0172897
0.00967125
0.00531396
0.00286451
0.00151291
0.000781882
0.000394907
0.000194704
9.36148e-05
4.38559e-05
2.00043e-05
8.87964e-06
3.83421e-06
1.61011e-06
6.57455e-07
2.61051e-07
1.0079e-07
3.78568e-08
1.38058e-08
4.89098e-09
1.66289e-09
5.46614e-10
1.60252e-10
4.93928e-11
1.09762e-12
-1.09762e-12
0
2.41476e-11
5.48809e-12
0
-1.09762e-12
1.09762e-12
-1.09762e-12
0
-8.78094e-12
0
8.78094e-12
2.19523e-12
0
1446.27
2523.05
2602.1
2323.59
1962.87
1617.22
1314.6
1058.74
845.836
670.334
526.76
410.204
316.37
241.528
182.436
136.284
100.652
73.4714
52.9937
37.7619
26.5788
18.476
12.6832
8.59714
5.75385
3.80206
2.48038
1.59749
1.0157
0.637499
0.39495
0.241488
0.145696
0.0867081
0.0508779
0.0294162
0.0167448
0.00937539
0.00515733
0.00278388
0.00147267
0.000762466
0.000385883
0.00019068
9.19014e-05
4.31641e-05
1.9742e-05
8.78793e-06
3.80563e-06
1.60285e-06
6.56488e-07
2.6145e-07
1.01268e-07
3.81444e-08
1.39683e-08
4.97221e-09
1.7068e-09
5.79542e-10
1.96474e-10
5.92713e-11
9.87856e-12
0
0
-1.4269e-11
-1.09762e-11
2.19524e-12
3.29285e-12
2.19523e-12
0
0
3.29285e-12
8.78094e-12
0
-1.09762e-12
8.78094e-12
644.786
1436.45
1716.44
1694.76
1534.57
1326.99
1116.13
921.206
749.288
601.837
477.792
375.033
291.061
223.324
169.374
126.952
94.022
68.7928
49.7179
35.488
25.0149
17.4111
11.9654
8.11854
5.43824
3.59627
2.34774
1.51301
0.962539
0.604455
0.374673
0.229211
0.138367
0.0823992
0.0483861
0.0280011
0.0159573
0.00894677
0.00492978
0.00266634
0.00141376
0.000733902
0.000372527
0.000184679
8.93215e-05
4.21089e-05
1.93349e-05
8.64162e-06
3.75787e-06
1.58945e-06
6.53804e-07
2.6151e-07
1.01713e-07
3.84671e-08
1.4168e-08
5.07209e-09
1.77485e-09
5.94909e-10
2.15133e-10
7.57356e-11
1.31714e-11
-2.19523e-12
0
-1.09762e-12
-4.39047e-12
3.29285e-12
0
1.09762e-12
0
2.19524e-12
5.48809e-12
0
-1.09762e-12
-1.09762e-12
-5.48809e-12
342.746
866.083
1139.8
1214.27
1165.55
1053.46
916.204
775.639
643.272
524.518
421.35
333.841
261.048
201.524
153.611
115.618
85.9285
63.0576
45.6883
32.6826
23.0808
16.0912
11.0742
7.52336
5.0452
3.33969
2.18219
1.40746
0.896055
0.563096
0.349271
0.213816
0.129167
0.0769823
0.0452483
0.0262156
0.014961
0.00840292
0.00463997
0.00251597
0.00133798
0.000696924
0.000355099
0.000176772
8.58804e-05
4.0679e-05
1.8771e-05
8.43256e-06
3.68616e-06
1.5674e-06
6.48154e-07
2.60633e-07
1.01894e-07
3.8725e-08
1.43195e-08
5.15661e-09
1.80997e-09
5.96006e-10
1.95376e-10
6.36618e-11
1.53666e-11
1.09762e-12
0
1.86595e-11
0
-1.09762e-12
-1.09762e-12
-3.29285e-12
0
-1.09762e-12
-9.87856e-12
-1.20738e-11
-7.68332e-12
-1.09762e-12
-1.09762e-12
204.313
549.612
769.338
866.206
871.069
817.745
733.185
635.957
537.745
445.329
362.237
289.933
228.607
177.696
136.225
103.026
76.8817
56.6145
41.1422
29.5064
20.8844
14.5884
10.0573
6.84288
4.59506
3.04539
1.99204
1.28608
0.819515
0.515428
0.319961
0.19603
0.118523
0.0707052
0.0416049
0.0241372
0.0137979
0.00776556
0.00429879
0.00233798
0.00124771
0.000652518
0.000333971
0.000167074
8.15983e-05
3.88665e-05
1.80387e-05
8.15182e-06
3.58492e-06
1.53359e-06
6.38002e-07
2.58095e-07
1.01519e-07
3.88227e-08
1.44271e-08
5.22466e-09
1.85278e-09
6.42106e-10
2.25012e-10
5.81737e-11
3.62214e-11
4.39047e-12
1.09762e-12
0
-1.09762e-12
-4.39047e-12
0
0
0
-2.19524e-12
4.39047e-12
1.09762e-12
-4.39047e-12
0
0
130.55
362.676
528.136
618.707
645.113
624.962
575.428
510.302
439.483
369.513
304.363
246.163
195.79
153.302
118.251
89.902
67.389
49.8157
36.3222
26.1251
18.538
12.9782
8.9648
6.11022
4.10945
2.72733
1.78623
1.15451
0.736435
0.463619
0.288062
0.176645
0.106903
0.0638395
0.0376105
0.0218521
0.0125145
0.00705928
0.00391873
0.00213844
0.00114573
0.000601898
0.00030962
0.000155747
7.65152e-05
3.66711e-05
1.71286e-05
7.79089e-06
3.44861e-06
1.48488e-06
6.21716e-07
2.53099e-07
1.00165e-07
3.85461e-08
1.4426e-08
5.24661e-09
1.88461e-09
6.64059e-10
2.21719e-10
6.0369e-11
3.84166e-11
-2.19523e-12
1.09762e-12
-5.48809e-12
2.19523e-12
2.19524e-12
0
0
-1.20738e-11
1.09762e-12
1.31714e-11
2.19524e-12
0
-7.68332e-12
0
86.9866
246.022
367.662
443.176
475.148
472.226
444.753
402.232
352.28
300.459
250.505
204.7
164.244
129.565
100.582
76.8903
57.9099
42.9851
31.4545
22.6952
16.1488
11.3332
7.84548
5.35765
3.60952
2.39925
1.57354
1.01832
0.65031
0.409832
0.254895
0.156458
0.0947795
0.0566611
0.0334234
0.019449
0.0111595
0.00631001
0.00351316
0.00192398
0.00103518
0.000546456
0.000282621
0.000143003
7.06946e-05
3.41029e-05
1.60357e-05
7.3432e-06
3.27239e-06
1.41837e-06
5.97753e-07
2.4487e-07
9.7509e-08
3.77383e-08
1.42295e-08
5.23564e-09
1.89559e-09
6.75035e-10
2.25012e-10
8.56142e-11
3.29285e-11
1.4269e-11
-3.29285e-12
0
0
0
7.68332e-12
-1.09762e-12
0
1.09762e-12
-1.09762e-12
0
6.5857e-12
0
4.39047e-12
59.4599
170.008
258.559
318.196
348.545
353.621
339.44
312.271
277.642
239.937
202.345
166.991
135.14
107.401
83.9144
64.5092
48.8232
36.3958
26.7332
19.3528
13.811
9.71794
6.74295
4.61432
3.11454
2.07371
1.36209
0.882684
0.564387
0.356084
0.221697
0.136217
0.0825998
0.0494325
0.0291951
0.0170139
0.00978062
0.00554347
0.00309554
0.00170142
0.000919366
0.000487719
0.000253636
0.000129106
6.42305e-05
3.11888e-05
1.47637e-05
6.8061e-06
3.05317e-06
1.33195e-06
5.64855e-07
2.32801e-07
9.32514e-08
3.63158e-08
1.37729e-08
5.09953e-09
1.83741e-09
6.60766e-10
2.29402e-10
9.32975e-11
2.96357e-11
2.305e-11
8.78094e-12
0
-1.09762e-12
0
1.4269e-11
2.19523e-12
1.31714e-11
-1.09762e-12
2.19523e-12
5.48809e-12
6.58571e-12
8.78094e-12
2.19524e-12
41.2768
118.863
183.01
228.7
254.706
262.745
256.239
239.215
215.538
188.499
160.656
133.829
109.197
87.4115
68.7314
53.1334
40.4123
30.2574
22.3104
16.2065
11.6011
8.18525
5.69338
3.90464
2.64073
1.76137
1.15879
0.752025
0.481469
0.304125
0.189549
0.116578
0.0707587
0.0423879
0.0250623
0.0146252
0.00842184
0.00478385
0.00267883
0.00147747
0.000801659
0.000427313
0.000223412
0.000114383
5.72551e-05
2.79778e-05
1.33286e-05
6.18361e-06
2.79126e-06
1.22509e-06
5.22555e-07
2.1658e-07
8.72079e-08
3.41513e-08
1.29925e-08
4.80866e-09
1.71667e-09
6.00397e-10
1.99766e-10
5.81737e-11
1.09762e-11
0
1.09762e-12
-1.09762e-12
-1.09762e-12
-1.09762e-12
-6.58571e-12
0
-1.09762e-12
0
1.09762e-12
0
-6.58571e-12
0
1.09762e-12
28.9075
83.6572
129.957
164.288
185.357
193.791
191.503
181.038
165.032
145.878
125.536
105.484
86.7389
69.916
55.3143
42.9962
32.8622
24.7119
18.2924
13.3342
9.57485
6.77459
4.72409
3.24727
2.20067
1.47057
0.969099
0.629862
0.403797
0.255365
0.159326
0.098081
0.0595821
0.0357223
0.0211403
0.0123499
0.00712156
0.00405273
0.00227489
0.00125851
0.000685388
0.000366923
0.000192777
9.92245e-05
4.99469e-05
2.45481e-05
1.17629e-05
5.48874e-06
2.49155e-06
1.0995e-06
4.71419e-07
1.96348e-07
7.94488e-08
3.12217e-08
1.19311e-08
4.43328e-09
1.58057e-09
5.52102e-10
1.73424e-10
5.04904e-11
1.75619e-11
1.64643e-11
-6.5857e-12
0
0
-9.87856e-12
-3.7319e-11
-1.09762e-12
0
0
-3.29285e-12
-5.48809e-12
0
-2.19523e-12
-3.29285e-12
20.3301
59.0465
92.3366
117.769
134.241
141.887
141.762
135.457
124.743
111.315
96.6334
81.8486
67.7923
55.0025
43.7726
34.2057
26.2687
19.8386
14.742
10.7836
7.76776
5.51165
3.85331
2.65489
1.80301
1.20714
0.796867
0.518716
0.332992
0.210834
0.131673
0.0811255
0.049316
0.029585
0.0175187
0.0102413
0.00591112
0.00336826
0.00189408
0.00105033
0.000573729
0.000308253
0.000162622
8.4084e-05
4.25305e-05
2.10076e-05
1.01171e-05
4.74437e-06
2.1641e-06
9.59455e-07
4.13233e-07
1.72847e-07
7.02003e-08
2.76863e-08
1.06184e-08
3.94923e-09
1.41593e-09
4.89537e-10
1.54764e-10
5.59785e-11
2.85381e-11
0
5.48809e-12
0
-1.09762e-11
-5.48809e-12
-2.19524e-12
-1.09762e-12
0
1.09762e-12
0
0
4.39047e-12
0
1.09762e-12
14.3099
41.6742
65.502
84.1246
96.6794
103.101
103.961
100.249
93.1393
83.8136
73.3328
62.5668
52.1699
42.5875
34.0822
26.7688
20.6524
15.6626
11.6831
8.57557
6.19661
4.40937
3.09068
2.13447
1.45268
0.974478
0.644399
0.420116
0.270058
0.171181
0.107006
0.0659731
0.040124
0.0240779
0.0142603
0.00833792
0.00481393
0.00274458
0.00154482
0.000857898
0.00046956
0.000252935
0.000133851
6.94506e-05
3.52627e-05
1.74874e-05
8.45617e-06
3.98156e-06
1.82337e-06
8.11487e-07
3.50792e-07
1.47229e-07
5.99727e-08
2.37239e-08
9.09705e-09
3.37737e-09
1.21945e-09
4.06118e-10
1.35007e-10
2.74404e-11
1.09762e-12
-2.305e-11
-1.09762e-12
-1.20738e-11
-1.09762e-12
1.09762e-11
2.305e-11
-2.19523e-12
0
0
-1.09762e-12
-4.39047e-12
-8.78094e-12
1.09762e-12
6.58571e-12
10.0557
29.3464
46.3094
59.8038
69.186
74.3252
75.5263
73.4
68.7202
62.2994
54.8938
47.1455
39.554
32.4733
26.1247
20.6181
15.9775
12.1662
9.10867
6.70854
4.86252
3.46985
2.43842
1.68799
1.15129
0.773802
0.51259
0.334697
0.215432
0.136701
0.0855208
0.0527536
0.0320909
0.019256
0.0114011
0.00666312
0.00384512
0.00219141
0.00123333
0.000685108
0.000375274
0.000202409
0.000107305
5.58022e-05
2.84063e-05
1.41271e-05
6.85164e-06
3.23585e-06
1.48632e-06
6.63431e-07
2.87587e-07
1.21017e-07
4.94224e-08
1.95903e-08
7.50002e-09
2.78027e-09
1.00103e-09
3.42457e-10
1.29519e-10
3.95142e-11
-6.5857e-12
2.19523e-12
-6.5857e-12
0
1.20738e-11
8.78094e-12
2.19523e-12
0
-1.09762e-12
-2.19523e-12
-6.5857e-12
4.39047e-12
0
0
0
7.04106
20.5824
32.5827
42.2645
49.161
53.1362
54.3478
53.1722
50.1158
45.7311
40.5493
35.0346
29.5594
24.3962
19.7232
15.6369
12.1684
9.30177
6.98901
5.16436
3.75459
2.6867
1.89289
1.31342
0.89773
0.604552
0.401168
0.26234
0.169072
0.107389
0.0672277
0.0414821
0.0252322
0.0151332
0.00895237
0.00522592
0.00301161
0.00171391
0.000963299
0.000534534
0.000292597
0.000157784
8.36735e-05
4.35472e-05
2.21948e-05
1.10551e-05
5.37133e-06
2.54167e-06
1.16984e-06
5.23225e-07
2.27244e-07
9.57792e-08
3.91663e-08
1.5539e-08
5.95238e-09
2.20621e-09
7.83699e-10
2.77697e-10
1.21836e-10
6.80523e-11
3.07333e-11
1.20738e-11
4.39047e-12
1.31714e-11
9.87856e-12
0
-1.09762e-12
2.19523e-12
-4.39047e-12
0
-7.68332e-12
3.29285e-12
8.78094e-12
9.87856e-12
-3.29285e-12
4.90513
14.3578
22.7872
29.666
34.6619
37.6568
38.729
38.1099
36.1291
33.1587
29.5671
25.6844
21.7822
18.065
14.6716
11.6816
9.12672
7.00245
5.27945
3.91353
2.85358
2.04751
1.44618
1.00578
0.688911
0.464818
0.308969
0.202344
0.130562
0.0830025
0.0519877
0.032081
0.0195059
0.0116881
0.0069044
0.00402267
0.00231281
0.00131282
0.000735894
0.000407297
0.000222439
0.000119727
6.34061e-05
3.29724e-05
1.68001e-05
8.36934e-06
4.06858e-06
1.92682e-06
8.87767e-07
3.97524e-07
1.72863e-07
7.29499e-08
2.9864e-08
1.18499e-08
4.57267e-09
1.69143e-09
6.01494e-10
2.23914e-10
9.00046e-11
3.95142e-11
2.96357e-11
2.08547e-11
6.58571e-12
-2.19524e-12
5.48809e-12
-4.39047e-12
-1.09762e-12
-1.09762e-12
0
1.09762e-12
-4.39047e-12
-7.68332e-12
-2.19524e-12
2.19523e-12
5.48809e-12
3.39571
9.95035
15.8255
20.6648
24.2355
26.4435
27.3252
27.0224
25.7485
23.7523
21.286
18.5811
15.8321
13.1892
10.7571
8.59906
6.74357
5.19216
3.92743
2.9202
2.13535
1.53622
1.08771
0.758183
0.520399
0.35178
0.234221
0.153608
0.0992266
0.0631298
0.0395542
0.0244047
0.0148278
0.00887287
0.00523078
0.00303941
0.00174176
0.00098496
0.000549877
0.000303083
0.000164864
8.84148e-05
4.66768e-05
2.42113e-05
1.23125e-05
6.1256e-06
2.97542e-06
1.40862e-06
6.49008e-07
2.90685e-07
1.2647e-07
5.34529e-08
2.19414e-08
8.73923e-09
3.38176e-09
1.27982e-09
4.77464e-10
1.76716e-10
5.04904e-11
1.53666e-11
-4.39047e-12
4.39047e-12
1.09762e-12
0
-9.87856e-12
-1.09762e-12
0
-3.29285e-12
4.39047e-12
-1.09762e-12
-3.29285e-12
5.48809e-12
-3.29285e-12
-9.87856e-12
-1.09762e-12
2.33374
6.84468
10.9052
14.2757
16.7955
18.3932
19.0837
18.9538
18.1409
16.8101
15.1324
13.2676
11.353
9.49662
7.77582
6.23905
4.91003
3.79298
2.87802
2.14618
1.57366
1.13502
0.805559
0.562752
0.387042
0.262113
0.1748
0.114793
0.0742291
0.0472561
0.0296135
0.0182642
0.0110854
0.00662164
0.00389357
0.00225472
0.00128667
0.00072406
0.000402041
0.000220338
0.00011917
6.35608e-05
3.33884e-05
1.72432e-05
8.73703e-06
4.33413e-06
2.10055e-06
9.9282e-07
4.5694e-07
2.04518e-07
8.89465e-08
3.75978e-08
1.54556e-08
6.16532e-09
2.38951e-09
9.3517e-10
3.51238e-10
1.29519e-10
3.84166e-11
1.53666e-11
2.19524e-12
-1.20738e-11
-6.58571e-12
2.19524e-12
-4.39047e-12
1.09762e-12
8.78094e-12
4.39047e-12
0
0
9.87856e-12
1.20738e-11
5.48809e-12
-5.48809e-12
-4.39047e-12
1.59102
4.66986
7.45117
9.7749
11.5312
12.6679
13.1896
13.1492
12.6347
11.7547
10.624
9.35182
8.03338
6.7451
5.54288
4.46281
3.52373
2.73058
2.07801
1.55393
1.14239
0.825993
0.587585
0.411359
0.283477
0.192317
0.128452
0.0844627
0.0546672
0.0348201
0.0218202
0.0134492
0.00815198
0.00485887
0.00284826
0.00164274
0.000932754
0.000521801
0.00028781
0.000156606
8.40762e-05
4.45173e-05
2.32244e-05
1.19194e-05
6.00671e-06
2.96605e-06
1.43216e-06
6.74898e-07
3.09913e-07
1.38469e-07
6.01714e-08
2.54011e-08
1.04372e-08
4.17534e-09
1.65411e-09
6.46497e-10
2.5794e-10
1.16347e-10
4.60999e-11
1.20738e-11
2.19524e-12
-1.97571e-11
-4.39047e-12
0
-8.78094e-12
-9.87856e-12
0
2.19523e-12
4.39047e-12
1.09762e-12
1.31714e-11
-4.39047e-12
3.29285e-12
-1.09762e-12
-1.09762e-12
1.07526
3.15806
5.04528
6.6307
7.8401
8.6364
9.01951
9.02148
8.69852
8.1215
7.36668
6.50778
5.61003
4.72661
3.89711
3.1478
2.49308
1.93758
1.47865
1.10866
0.817085
0.592185
0.4222
0.296189
0.2045
0.138976
0.0929617
0.0611986
0.0396422
0.0252592
0.0158258
0.00974621
0.00589787
0.0035065
0.00204829
0.00117595
0.000663913
0.000368895
0.000201902
0.000108931
5.79609e-05
3.04139e-05
1.57285e-05
8.00681e-06
4.00553e-06
1.96535e-06
9.43904e-07
4.42874e-07
2.02633e-07
9.02977e-08
3.9174e-08
1.65082e-08
6.7723e-09
2.70782e-09
1.08554e-09
4.26973e-10
1.95376e-10
8.78094e-11
4.39047e-11
1.31714e-11
4.39047e-12
-5.48809e-12
0
3.29285e-12
0
-1.09762e-12
-7.68332e-12
0
0
1.09762e-12
-4.39047e-12
-8.78094e-12
0
0
-5.48809e-12
0.720008
2.11583
3.38384
4.4541
5.27699
5.82668
6.10136
6.12036
5.91933
5.5442
5.04514
4.47134
3.86688
3.26822
2.70293
2.18972
1.73924
1.35542
1.0371
0.779541
0.575899
0.418332
0.298891
0.210105
0.145333
0.09893
0.0662684
0.043674
0.0283106
0.018043
0.0113005
0.00695194
0.00419902
0.00248943
0.00144856
0.000827462
0.000464258
0.000256039
0.000138931
7.4241e-05
3.90986e-05
2.02999e-05
1.03884e-05
5.23557e-06
2.59509e-06
1.2629e-06
6.02229e-07
2.80865e-07
1.27893e-07
5.67896e-08
2.4546e-08
1.03231e-08
4.20168e-09
1.66399e-09
6.43204e-10
2.27207e-10
9.00046e-11
2.52452e-11
2.41476e-11
6.58571e-12
8.78094e-12
2.305e-11
2.19524e-12
-1.86595e-11
8.78094e-12
1.09762e-11
0
1.09762e-12
-4.39047e-12
0
-1.20738e-11
0
0
-3.29285e-12
2.19524e-12
0.477474
1.40377
2.24713
2.96185
3.51512
3.88927
4.08213
4.1053
3.98125
3.73949
3.41274
3.03343
2.631
2.23007
1.84954
1.50248
1.19655
0.934881
0.717085
0.540278
0.400045
0.291224
0.208504
0.146853
0.101764
0.0693836
0.0465401
0.030704
0.0199155
0.012694
0.00794625
0.0048823
0.00294273
0.00173926
0.00100784
0.00057263
0.000319153
0.000174616
9.38745e-05
4.96428e-05
2.58484e-05
1.3261e-05
6.7046e-06
3.33936e-06
1.63693e-06
7.88592e-07
3.72707e-07
1.72482e-07
7.80483e-08
3.44751e-08
1.48233e-08
6.21142e-09
2.51135e-09
9.88953e-10
3.52335e-10
1.03176e-10
2.52452e-11
-6.58571e-12
-1.53666e-11
-8.78094e-12
-8.78094e-12
1.09762e-11
1.09762e-12
-2.19524e-12
-1.09762e-12
-4.39047e-12
9.87856e-12
-1.09762e-12
2.19524e-12
-2.19524e-12
3.29285e-12
0
-2.19524e-12
3.29285e-12
-8.78094e-12
0.313469
0.921974
1.47706
1.94914
2.31672
2.56795
2.70082
2.72229
2.64641
2.49199
2.28016
2.03208
1.76715
1.50178
1.24874
1.01697
0.811883
0.635844
0.488835
0.369125
0.273903
0.199809
0.14334
0.101148
0.0702162
0.0479503
0.0322065
0.021269
0.0138036
0.00879846
0.0055042
0.0033771
0.00203083
0.00119636
0.00069021
0.000389969
0.000215849
0.00011712
6.23562e-05
3.26133e-05
1.67757e-05
8.49503e-06
4.23758e-06
2.08247e-06
1.00772e-06
4.79675e-07
2.24283e-07
1.02823e-07
4.61427e-08
2.02434e-08
8.64813e-09
3.59031e-09
1.45215e-09
5.47711e-10
1.75619e-10
6.47594e-11
1.09762e-11
6.5857e-12
-8.78094e-12
0
2.305e-11
-2.19523e-12
-4.39047e-12
1.31714e-11
0
1.31714e-11
0
-2.19523e-12
0
1.09762e-12
4.39047e-12
-2.19523e-12
0
2.19523e-12
-1.09762e-12
0.203678
0.599271
0.960741
1.2691
1.51043
1.67688
1.76685
1.78445
1.73844
1.6407
1.50473
1.34419
1.17174
0.998149
0.831912
0.679067
0.543341
0.42646
0.328558
0.248612
0.184852
0.135113
0.0971154
0.0686573
0.047745
0.032657
0.0219644
0.01452
0.00942883
0.00600995
0.00375712
0.00230172
0.00138081
0.000810649
0.000465565
0.000261535
0.00014374
7.7335e-05
4.07674e-05
2.10809e-05
1.07067e-05
5.34752e-06
2.62904e-06
1.27302e-06
6.07142e-07
2.8503e-07
1.31582e-07
5.96347e-08
2.64965e-08
1.1525e-08
4.87123e-09
1.99327e-09
7.88089e-10
2.93064e-10
9.21999e-11
4.28071e-11
0
2.19524e-12
-1.09762e-11
-4.39047e-12
1.20738e-11
1.4269e-11
-2.19524e-12
4.39047e-12
3.29285e-12
4.39047e-12
-9.87856e-12
0
-1.09762e-12
1.09762e-12
1.09762e-12
1.09762e-12
0
1.09762e-12
1.31714e-11
0.130948
0.385402
0.618249
0.817417
0.973986
1.08283
1.14275
1.15617
1.1285
1.06719
0.980788
0.878011
0.767002
0.654769
0.546874
0.447325
0.358645
0.282054
0.217725
0.165062
0.122961
0.090044
0.0648414
0.0459249
0.0319934
0.0219192
0.0147636
0.00977051
0.00634871
0.00404687
0.00252819
0.0015465
0.000925477
0.000541442
0.000309529
0.000172873
9.43379e-05
5.03255e-05
2.62657e-05
1.3427e-05
6.73172e-06
3.31464e-06
1.60493e-06
7.64919e-07
3.59032e-07
1.65962e-07
7.5481e-08
3.3766e-08
1.48321e-08
6.37716e-09
2.68258e-09
1.09213e-09
4.20388e-10
1.70131e-10
6.69547e-11
7.68332e-12
5.48809e-12
1.09762e-12
-7.68332e-12
7.68332e-12
-1.97571e-11
-4.39047e-12
1.09762e-12
6.58571e-12
-2.19523e-12
-1.31714e-11
2.19524e-12
1.09762e-12
0
-1.09762e-12
7.68332e-12
3.29285e-12
0
3.29285e-12
-4.39047e-12
0.0832898
0.245202
0.393555
0.520745
0.62112
0.691372
0.730651
0.740385
0.723876
0.685759
0.631393
0.56629
0.495629
0.423905
0.354715
0.290679
0.233473
0.183937
0.142233
0.108015
0.080604
0.0591299
0.0426564
0.0302671
0.0211237
0.0144974
0.00977986
0.00648039
0.00421419
0.00268677
0.00167757
0.00102472
0.000611771
0.000356686
0.000202982
0.000112716
6.10785e-05
3.23101e-05
1.66977e-05
8.43913e-06
4.17673e-06
2.02724e-06
9.66371e-07
4.53021e-07
2.0904e-07
9.50054e-08
4.25162e-08
1.8755e-08
8.12566e-09
3.44762e-09
1.44337e-09
5.91616e-10
2.41476e-10
9.00046e-11
4.50023e-11
0
8.78094e-12
1.53666e-11
1.86595e-11
1.4269e-11
4.39047e-12
-6.5857e-12
6.5857e-12
-1.20738e-11
-3.29285e-12
-1.09762e-12
0
1.09762e-12
1.09762e-12
0
-7.68332e-12
0
-4.39047e-12
-1.4269e-11
-1.09762e-12
0.0524052
0.154315
0.247793
0.328098
0.391682
0.436444
0.461798
0.468578
0.458793
0.435299
0.401425
0.360616
0.316134
0.270825
0.226985
0.186301
0.149867
0.118248
0.0915747
0.0696491
0.0520545
0.0382482
0.0276396
0.0196473
0.0137376
0.00944573
0.00638304
0.00423574
0.00275732
0.00175869
0.00109774
0.000669735
0.000398968
0.000231861
0.000131371
7.25456e-05
3.90439e-05
2.04861e-05
1.04861e-05
5.2413e-06
2.56141e-06
1.22568e-06
5.75204e-07
2.65132e-07
1.20194e-07
5.36428e-08
2.36119e-08
1.02441e-08
4.36852e-09
1.81546e-09
7.26623e-10
3.02942e-10
1.16347e-10
3.51238e-11
3.29285e-12
-2.19523e-12
-1.97571e-11
-1.31714e-11
3.29285e-12
-1.09762e-11
4.39047e-12
1.09762e-12
-5.48809e-12
-2.08547e-11
2.19523e-12
0
-2.19524e-12
-3.29285e-12
1.09762e-12
-1.09762e-12
1.09762e-12
-2.19524e-12
0
0
1.31714e-11
0.0326158
0.096061
0.154311
0.204436
0.244234
0.272386
0.288502
0.293066
0.287293
0.272929
0.252021
0.226704
0.199007
0.170712
0.143265
0.117736
0.0948287
0.074913
0.058085
0.0442329
0.0331026
0.024358
0.0176301
0.0125543
0.0087949
0.00605914
0.00410239
0.00272696
0.00177749
0.00113456
0.000708173
0.000431681
0.000256679
0.000148734
8.39319e-05
4.61077e-05
2.46556e-05
1.28369e-05
6.51106e-06
3.22016e-06
1.55467e-06
7.33761e-07
3.39096e-07
1.53696e-07
6.84518e-08
2.99957e-08
1.29563e-08
5.50455e-09
2.31707e-09
9.39561e-10
3.66604e-10
1.44886e-10
5.04904e-11
2.63428e-11
-2.19524e-12
-1.09762e-11
-2.08547e-11
-2.63428e-11
-1.86595e-11
-1.86595e-11
-1.64643e-11
2.19523e-12
-5.48809e-12
7.68332e-12
0
-1.09762e-12
0
0
6.58571e-12
4.39047e-12
6.5857e-12
-1.97571e-11
2.19524e-12
1.09762e-11
0
0.0200795
0.059148
0.0950434
0.125973
0.150584
0.168058
0.178143
0.18112
0.17772
0.169001
0.156212
0.140663
0.123603
0.106135
0.0891556
0.0733364
0.0591202
0.0467444
0.0362758
0.0276505
0.0207143
0.0152608
0.0110616
0.00789021
0.00553807
0.00382331
0.00259404
0.0017277
0.00112798
0.000720772
0.000450066
0.000274218
0.000162818
9.41124e-05
5.2919e-05
2.89339e-05
1.53809e-05
7.95098e-06
3.99883e-06
1.95823e-06
9.34715e-07
4.35465e-07
1.9831e-07
8.84416e-08
3.86866e-08
1.66311e-08
7.02914e-09
2.91088e-09
1.1986e-09
4.90635e-10
1.97571e-10
6.14666e-11
2.96357e-11
3.29285e-12
-5.48809e-12
-4.39047e-12
-8.78094e-12
-2.63428e-11
-2.52452e-11
-2.74404e-11
-2.63428e-11
2.19523e-12
4.39047e-12
1.86595e-11
1.09762e-12
0
-1.09762e-12
1.31714e-11
0
1.09762e-12
-7.68332e-12
0
0
0
-7.68332e-12
0.0122284
0.0360248
0.0578993
0.0767646
0.0917978
0.102499
0.108709
0.110591
0.108584
0.103324
0.0955684
0.0861119
0.0757156
0.0650535
0.0546768
0.0449984
0.0362927
0.0287086
0.0222898
0.0169993
0.012744
0.00939754
0.00681997
0.00487221
0.00342617
0.00237034
0.00161184
0.00107587
0.000703761
0.000450348
0.000281429
0.000171467
0.000101714
5.86788e-05
3.28961e-05
1.79128e-05
9.4726e-06
4.86545e-06
2.42837e-06
1.17854e-06
5.56718e-07
2.56289e-07
1.15139e-07
5.05552e-08
2.17175e-08
9.13767e-09
3.77141e-09
1.5224e-09
5.96006e-10
2.3489e-10
9.00046e-11
5.48809e-12
-1.20738e-11
-1.53666e-11
5.48809e-12
6.5857e-12
0
-2.85381e-11
-2.41476e-11
-2.305e-11
-3.18309e-11
-3.07333e-11
-3.29285e-12
0
0
2.19524e-12
1.09762e-12
0
-8.78094e-12
4.39047e-12
1.09762e-12
2.41476e-11
2.19524e-12
4.39047e-12
0
0.0073672
0.0217047
0.0348868
0.0462596
0.0553279
0.0617899
0.0655484
0.0667003
0.0655066
0.0623495
0.0576837
0.0519871
0.045719
0.0392862
0.0330225
0.0271781
0.02192
0.0173391
0.0134626
0.0102684
0.00770021
0.00568143
0.00412694
0.00295225
0.00207968
0.00144181
0.000982704
0.000657471
0.000430997
0.000276286
0.000172856
0.000105361
6.2473e-05
3.59916e-05
2.01299e-05
1.09243e-05
5.75137e-06
2.93777e-06
1.45649e-06
7.01296e-07
3.28213e-07
1.49488e-07
6.634e-08
2.87246e-08
1.21429e-08
5.00953e-09
2.00205e-09
7.94675e-10
2.87576e-10
9.43951e-11
2.63428e-11
-8.78094e-12
-2.19523e-11
2.19524e-12
5.48809e-12
5.48809e-12
2.19524e-12
-2.19524e-11
-2.52452e-11
-1.75619e-11
-1.31714e-11
-1.53666e-11
0
-2.19524e-12
-1.09762e-12
-1.09762e-11
1.09762e-12
-6.5857e-12
-1.09762e-12
-1.09762e-12
-2.19523e-12
0
-9.87856e-12
0
5.48809e-12
0.00439122
0.0129365
0.0207917
0.0275666
0.0329661
0.0368108
0.0390436
0.0397229
0.0390047
0.037117
0.034331
0.0309317
0.0271931
0.0233578
0.0196249
0.0161435
0.0130133
0.0102881
0.00798393
0.00608724
0.00456396
0.00336788
0.00244777
0.00175287
0.0012367
0.000859089
0.000586874
0.000393588
0.000258606
0.000166106
0.000104077
6.34898e-05
3.76473e-05
2.16717e-05
1.21002e-05
6.54927e-06
3.43562e-06
1.74682e-06
8.61141e-07
4.11848e-07
1.91242e-07
8.63046e-08
3.79139e-08
1.62349e-08
6.76791e-09
2.75722e-09
1.09432e-09
4.2368e-10
1.64643e-10
4.06118e-11
4.39047e-12
2.41476e-11
1.20738e-11
1.20738e-11
-6.5857e-12
7.68332e-12
5.48809e-12
4.39047e-12
-3.29285e-12
7.68332e-12
6.5857e-12
1.09762e-11
4.39047e-12
-7.68332e-12
1.09762e-12
-1.09762e-12
-1.09762e-12
1.09762e-12
2.19523e-12
-8.78094e-12
-1.31714e-11
-4.39047e-12
-6.5857e-12
-7.68332e-12
-1.09762e-12
0.00258967
0.00762802
0.0122562
0.016243
0.0194145
0.0216659
0.0229652
0.0233486
0.0229097
0.0217843
0.0201328
0.0181237
0.0159185
0.0136599
0.0114649
0.0094208
0.00758551
0.00599022
0.00464362
0.00353713
0.00265012
0.00195492
0.001421
0.00101828
0.000719327
0.000500576
0.000342703
0.000230378
0.000151726
9.76622e-05
6.12961e-05
3.74347e-05
2.22075e-05
1.27799e-05
7.12763e-06
3.85038e-06
2.01419e-06
1.02034e-06
5.00689e-07
2.38124e-07
1.09855e-07
4.91985e-08
2.14244e-08
9.07181e-09
3.75824e-09
1.50703e-09
6.17959e-10
2.22816e-10
7.90285e-11
3.18309e-11
2.19524e-11
2.85381e-11
2.08547e-11
-3.29285e-12
3.29285e-12
-5.48809e-12
-8.78094e-12
9.87856e-12
2.96357e-11
2.85381e-11
2.85381e-11
2.85381e-11
1.09762e-11
2.19524e-12
0
1.09762e-11
-2.19524e-12
0
0
5.48809e-12
8.78094e-12
0
9.87856e-12
2.19523e-12
-6.58571e-12
0.00151114
0.00444983
0.00714562
0.00946233
0.0112985
0.0125943
0.0133328
0.0135375
0.0132648
0.0125953
0.0116234
0.0104477
0.00916213
0.00784944
0.00657706
0.00539509
0.00433644
0.00341848
0.00264556
0.00201208
0.00150559
0.00110965
0.000806287
0.000577917
0.000408606
0.000284767
0.000195336
0.000131606
8.68743e-05
5.60394e-05
3.52365e-05
2.15486e-05
1.27932e-05
7.36299e-06
4.10415e-06
2.2142e-06
1.15593e-06
5.83943e-07
2.85542e-07
1.35192e-07
6.20527e-08
2.76226e-08
1.19454e-08
5.00953e-09
2.07559e-09
8.3858e-10
3.35871e-10
1.25128e-10
3.18309e-11
2.96357e-11
3.29285e-11
1.97571e-11
2.41476e-11
4.39047e-12
6.58571e-12
-2.41476e-11
-1.75619e-11
1.09762e-11
1.86595e-11
5.48809e-12
1.64643e-11
1.09762e-11
-1.09762e-12
-1.09762e-12
-4.39047e-12
1.09762e-12
-1.09762e-12
1.20738e-11
0
0
2.08547e-11
9.87856e-12
6.58571e-12
4.39047e-12
0
0.000872518
0.00256807
0.00412008
0.00544879
0.00649569
0.00722739
0.00763606
0.00773721
0.00756522
0.00716786
0.0066003
0.00591951
0.00517938
0.00442709
0.00370077
0.00302847
0.00242838
0.00190978
0.00147457
0.00111909
0.000835828
0.000615126
0.000446553
0.00031999
0.000226343
0.000157917
0.000108502
7.32488e-05
4.84566e-05
3.13232e-05
1.97319e-05
1.20847e-05
7.18167e-06
4.13516e-06
2.30462e-06
1.24239e-06
6.4769e-07
3.26548e-07
1.59235e-07
7.5133e-08
3.43719e-08
1.5213e-08
6.56705e-09
2.77697e-09
1.1514e-09
4.87342e-10
1.95376e-10
1.06469e-10
4.06118e-11
2.52452e-11
3.07333e-11
3.84166e-11
4.82952e-11
4.60999e-11
2.52452e-11
2.19523e-11
2.08547e-11
2.63428e-11
3.29285e-12
-2.19523e-12
-5.48809e-12
-5.48809e-12
-5.48809e-12
0
-3.29285e-12
0
4.39047e-12
-4.39047e-12
-2.19523e-12
-1.31714e-11
-5.48809e-12
6.5857e-12
-1.09762e-12
-5.48809e-12
2.19523e-12
0.000498479
0.00146616
0.00234911
0.00310083
0.00368803
0.00409262
0.00431174
0.00435595
0.00424636
0.00401125
0.00368257
0.00329286
0.00287252
0.00244791
0.0020401
0.0016644
0.00133054
0.00104325
0.00080316
0.000607865
0.000452887
0.000332622
0.000241113
0.000172639
0.000122109
8.52515e-05
5.86493e-05
3.96615e-05
2.62883e-05
1.70265e-05
1.07452e-05
6.59081e-06
3.92116e-06
2.25931e-06
1.25935e-06
6.78671e-07
3.53487e-07
1.77966e-07
8.66009e-08
4.07765e-08
1.85794e-08
8.1992e-09
3.52116e-09
1.50593e-09
6.35521e-10
2.77697e-10
1.05371e-10
4.71976e-11
4.71976e-11
3.07333e-11
4.60999e-11
5.1588e-11
4.28071e-11
3.40261e-11
2.19524e-12
2.305e-11
3.18309e-11
2.305e-11
2.08547e-11
1.09762e-11
0
-5.48809e-12
0
8.78094e-12
3.29285e-12
-1.09762e-12
0
-1.20738e-11
1.09762e-12
0
-1.64643e-11
-9.87856e-12
1.09762e-12
-7.68332e-12
0
0.00028176
0.000827962
0.00132419
0.00174349
0.00206714
0.00228573
0.00239889
0.00241391
0.00234382
0.00220533
0.00201678
0.00179648
0.00156126
0.00132551
0.00110059
0.000894589
0.000712519
0.000556647
0.000427036
0.00032212
0.000239263
0.000175266
0.000126788
9.06601e-05
6.40881e-05
4.47522e-05
3.0814e-05
2.08663e-05
1.38535e-05
8.98857e-06
5.68215e-06
3.49044e-06
2.07905e-06
1.19889e-06
6.68531e-07
3.60281e-07
1.87559e-07
9.4349e-08
4.58705e-08
2.15803e-08
9.79733e-09
4.32352e-09
1.81656e-09
7.70527e-10
3.33676e-10
1.40495e-10
4.39047e-11
2.305e-11
2.85381e-11
3.51238e-11
2.41476e-11
3.18309e-11
9.87856e-12
-4.39047e-12
-1.31714e-11
-2.52452e-11
1.09762e-12
1.20738e-11
1.97571e-11
1.31714e-11
-4.39047e-12
-2.08547e-11
0
0
5.48809e-12
0
-1.09762e-12
0
6.58571e-12
1.53666e-11
5.48809e-12
-5.48809e-12
-8.78094e-12
1.09762e-12
-4.39047e-12
0.000157531
0.000462363
0.00073778
0.000968233
0.00114335
0.00125847
0.00131428
0.00131583
0.00127116
0.00119012
0.00108312
0.00096029
0.000830752
0.000702164
0.000580454
0.000469766
0.000372557
0.000289832
0.000221438
0.000166383
0.000123139
8.99156e-05
6.48756e-05
4.63012e-05
3.26944e-05
2.28233e-05
1.57214e-05
1.06565e-05
7.08456e-06
4.60367e-06
2.91469e-06
1.79296e-06
1.06921e-06
6.17093e-07
3.44318e-07
1.85603e-07
9.66211e-08
4.85762e-08
2.36021e-08
1.10794e-08
5.0227e-09
2.20072e-09
9.23096e-10
3.7758e-10
1.54764e-10
5.59785e-11
2.96357e-11
3.51238e-11
1.09762e-11
2.63428e-11
-4.39047e-12
-5.48809e-12
0
-1.09762e-11
1.09762e-12
0
4.39047e-12
2.52452e-11
1.97571e-11
1.97571e-11
9.87856e-12
4.39047e-12
5.48809e-12
-1.09762e-12
0
-4.39047e-12
-1.09762e-12
-1.09762e-12
0
6.5857e-12
8.78094e-12
-2.19523e-12
-4.39047e-12
8.78094e-12
0
8.70783e-05
0.000255213
0.000406103
0.000530839
0.000623761
0.000682709
0.000708682
0.000705098
0.000676939
0.000629942
0.000569962
0.000502497
0.000432375
0.000363549
0.000299013
0.000240796
0.000190041