/*--------------------------------*- C++ -*----------------------------------*\
  =========                 |
  \\      /  F ield         | OpenFOAM: The Open Source CFD Toolbox
   \\    /   O peration     | Website:  https://openfoam.org
    \\  /    A nd           | Version:  10
     \\/     M anipulation  |
\*---------------------------------------------------------------------------*/
FoamFile
{
    format      ascii;
    class       volScalarField;
    location    "366";
    object      gradTz;
}
// * * * * * * * * * * * * * * * * * * * * * * * * * * * * * * * * * * * * * //

dimensions      [0 -1 0 1 0 0 0];

internalField   nonuniform List<scalar> 
11250
(
-14345.7
-4141.26
-1521.17
-717.893
-413.543
-272.336
-195.406
-148.355
-117.099
-95.0223
-78.6693
-66.0872
-56.1038
-47.9823
-41.2411
-35.5559
-30.7017
-26.5186
-22.8899
-19.7283
-16.9666
-14.5521
-12.4416
-10.5995
-8.99517
-7.60212
-6.39677
-5.35802
-4.46677
-3.70568
-3.05898
-2.5123
-2.05267
-1.66833
-1.34876
-1.08456
-0.867394
-0.689931
-0.545765
-0.429343
-0.335884
-0.261307
-0.202154
-0.155516
-0.118967
-0.090496
-0.0684511
-0.0514847
-0.0385051
-0.0286353
-0.0211751
-0.01557
-0.011384
-0.00827637
-0.00598311
-0.00430087
-0.00307417
-0.00218497
-0.00154422
-0.00108523
-0.000758374
-0.000526985
-0.00036414
-0.000250207
-0.000170963
-0.000116171
-7.85114e-05
-5.27871e-05
-3.53313e-05
-2.35777e-05
-1.57452e-05
-1.06129e-05
-7.3593e-06
-5.45169e-06
-4.57202e-06
-8241.18
-4839.18
-2746.45
-1654.52
-1077.27
-752.535
-556.164
-429.123
-342
-279.253
-232.175
-195.628
-166.442
-142.583
-122.706
-105.895
-91.5097
-79.0911
-68.3034
-58.8938
-50.6672
-43.4692
-37.174
-31.6766
-26.8869
-22.7265
-19.1257
-16.0218
-13.3581
-11.083
-9.14958
-7.51498
-6.14047
-4.99103
-4.03521
-3.24492
-2.59529
-2.06439
-1.63308
-1.28475
-1.00511
-0.781969
-0.604966
-0.465409
-0.356037
-0.270836
-0.204864
-0.154088
-0.115244
-0.0857051
-0.0633777
-0.0466022
-0.0340735
-0.0247723
-0.0179085
-0.0128734
-0.00920172
-0.00654019
-0.0046223
-0.00324843
-0.00227007
-0.00157745
-0.00109001
-0.00074897
-0.000511764
-0.00034775
-0.00023502
-0.000158017
-0.000105764
-7.05799e-05
-4.71336e-05
-3.177e-05
-2.20304e-05
-1.63201e-05
-1.36868e-05
-5537.89
-4227.06
-2970.17
-2075.76
-1487.82
-1103.78
-847.078
-669.533
-542.168
-447.543
-374.963
-317.706
-271.427
-233.251
-201.222
-173.985
-150.577
-130.301
-112.641
-97.2023
-83.6814
-71.8342
-61.4608
-52.3931
-44.4867
-37.6144
-31.663
-26.5305
-22.1242
-18.3594
-15.1589
-12.4525
-10.1762
-8.27221
-6.68869
-5.37922
-4.30265
-3.42274
-2.70782
-2.13039
-1.66679
-1.29681
-1.00332
-0.771904
-0.590529
-0.44923
-0.339816
-0.255601
-0.191172
-0.142176
-0.10514
-0.0773123
-0.0565287
-0.0410988
-0.0297118
-0.0213586
-0.0152671
-0.0108514
-0.00766939
-0.00538993
-0.00376665
-0.00261745
-0.00180866
-0.00124279
-0.000849197
-0.000577047
-0.000389991
-0.000262214
-0.000175508
-0.000117123
-7.82164e-05
-5.27217e-05
-3.65594e-05
-2.70834e-05
-2.27137e-05
-4144.12
-3559.7
-2830.18
-2189.36
-1693.38
-1326.72
-1057.97
-859.036
-709.007
-593.337
-502.12
-428.632
-368.271
-317.852
-275.139
-238.536
-206.888
-179.342
-155.256
-134.135
-115.59
-99.3074
-85.0261
-72.525
-61.6121
-52.1173
-43.8882
-36.7865
-30.6858
-25.4707
-21.0355
-17.2834
-14.1266
-11.4854
-9.28818
-7.4708
-5.97636
-4.7547
-3.76194
-2.96
-2.31607
-1.80211
-1.39436
-1.07282
-0.820789
-0.624431
-0.47237
-0.355322
-0.265768
-0.197662
-0.146178
-0.107493
-0.0785987
-0.0571465
-0.0413146
-0.0297002
-0.0212303
-0.0150902
-0.0106655
-0.00749573
-0.00523836
-0.00364023
-0.00251546
-0.00172848
-0.00118109
-0.000802589
-0.000542431
-0.000364715
-0.000244118
-0.000162912
-0.000108796
-7.33351e-05
-5.08545e-05
-3.76738e-05
-3.15957e-05
-3332.95
-3035.65
-2599.77
-2156.5
-1768.12
-1450.39
-1197.86
-998.617
-840.665
-714.05
-611.119
-526.193
-455.117
-394.862
-343.213
-298.538
-259.621
-225.544
-195.603
-169.244
-146.028
-125.589
-107.624
-91.871
-78.0984
-66.1006
-55.6913
-46.6999
-38.9701
-32.358
-26.7315
-21.9693
-17.9609
-14.606
-11.8141
-9.50411
-7.60414
-6.05062
-4.78791
-3.76771
-2.94839
-2.29435
-1.77539
-1.3661
-1.04526
-0.795257
-0.601638
-0.452588
-0.33854
-0.2518
-0.186224
-0.136948
-0.100141
-0.0728122
-0.0526424
-0.0378449
-0.0270533
-0.0192298
-0.0135917
-0.00955257
-0.00667597
-0.00463937
-0.00320597
-0.00220302
-0.00150538
-0.00102298
-0.000691396
-0.000464884
-0.000311171
-0.000207664
-0.000138686
-9.34841e-05
-6.48281e-05
-4.80267e-05
-4.02789e-05
-2816.76
-2647.88
-2374.56
-2066.66
-1770.28
-1507.12
-1282.95
-1095.61
-939.938
-810.281
-701.565
-609.599
-531.07
-463.411
-404.656
-353.299
-308.18
-268.401
-233.255
-202.174
-174.695
-150.43
-129.049
-110.259
-93.8035
-79.4471
-66.9757
-56.1918
-46.9124
-38.9686
-32.2043
-26.4757
-21.6513
-17.6116
-14.2485
-11.465
-9.17481
-7.30168
-5.77881
-4.54814
-3.55959
-2.77031
-2.14394
-1.64986
-1.26249
-0.960624
-0.726804
-0.546789
-0.409033
-0.304252
-0.225031
-0.165496
-0.121023
-0.0880001
-0.0636263
-0.0457434
-0.0327009
-0.0232452
-0.0164305
-0.0115481
-0.00807089
-0.00560894
-0.00387609
-0.00266358
-0.00182015
-0.00123691
-0.00083601
-0.000562135
-0.000376275
-0.000251119
-0.00016771
-0.000113051
-7.83993e-05
-5.80819e-05
-4.87127e-05
-2466.64
-2361.79
-2181.27
-1962.76
-1736.92
-1522.75
-1329.36
-1159.38
-1011.93
-884.606
-774.596
-679.2
-596.065
-523.232
-459.116
-402.446
-352.207
-307.583
-267.917
-232.663
-201.368
-173.639
-149.135
-127.552
-108.612
-92.06
-77.6613
-65.1955
-54.458
-45.2576
-37.4171
-30.7726
-25.1737
-20.483
-16.576
-13.3411
-10.6785
-8.50012
-6.72855
-5.29653
-4.14596
-3.22712
-2.4978
-1.92241
-1.47122
-1.11956
-0.847138
-0.637377
-0.476839
-0.354716
-0.262375
-0.192973
-0.141126
-0.102624
-0.0742041
-0.0533511
-0.0381415
-0.0271139
-0.0191659
-0.0134713
-0.00941536
-0.00654355
-0.00452213
-0.00310764
-0.00212367
-0.00144322
-0.000975479
-0.000655934
-0.000439074
-0.000293038
-0.000195711
-0.00013193
-9.14941e-05
-6.7785e-05
-5.68516e-05
-2218.07
-2148.16
-2022.86
-1863.27
-1689.16
-1515.16
-1350.22
-1198.78
-1062.3
-940.491
-832.239
-736.11
-650.655
-574.542
-506.615
-445.894
-391.56
-342.927
-299.422
-260.554
-225.899
-195.082
-167.768
-143.647
-122.435
-103.865
-87.6849
-73.6584
-61.5627
-51.1884
-42.3399
-34.8356
-28.508
-23.2037
-18.7835
-15.1219
-12.107
-9.63937
-7.63195
-6.0088
-4.70433
-3.66234
-2.83509
-2.1823
-1.67033
-1.27123
-0.962006
-0.723877
-0.541604
-0.40293
-0.298063
-0.219239
-0.160346
-0.116609
-0.0843216
-0.0606291
-0.0433472
-0.0308162
-0.021784
-0.0153123
-0.0107026
-0.00743849
-0.00514082
-0.00353295
-0.00241441
-0.00164086
-0.00110911
-0.000745812
-0.000499254
-0.000333212
-0.000222549
-0.000150027
-0.000104048
-7.70878e-05
-6.46553e-05
-2035.66
-1986.23
-1895.21
-1774.93
-1638.2
-1495.72
-1355.13
-1221.16
-1096.31
-981.535
-876.875
-781.858
-695.787
-617.9
-547.459
-483.788
-426.283
-374.416
-327.719
-285.776
-248.213
-214.686
-184.875
-158.48
-135.216
-114.81
-97.0017
-81.5419
-68.194
-56.7336
-46.9499
-38.6457
-31.6387
-25.7613
-20.8607
-16.7992
-13.4535
-10.7141
-8.48479
-6.68166
-5.23212
-4.07395
-3.15423
-2.42833
-1.8589
-1.41493
-1.07088
-0.805894
-0.603033
-0.448675
-0.331933
-0.244173
-0.178597
-0.129891
-0.0939332
-0.0675447
-0.0482946
-0.0343355
-0.0242732
-0.0170629
-0.0119268
-0.00828975
-0.00572941
-0.00393762
-0.00269107
-0.00182896
-0.0012363
-0.000831371
-0.000556548
-0.000371464
-0.000248106
-0.000167262
-0.000116004
-8.59493e-05
-7.20892e-05
-1898.52
-1861.79
-1792.88
-1699.32
-1589.54
-1471.28
-1350.68
-1232.1
-1118.35
-1011.03
-910.883
-818.113
-732.606
-654.073
-582.149
-516.442
-456.567
-402.155
-352.858
-308.345
-268.302
-232.427
-200.428
-172.019
-146.922
-124.866
-105.584
-88.8216
-74.3304
-61.8748
-51.2311
-42.1896
-34.5546
-28.1463
-22.8
-18.3667
-14.7131
-11.7203
-9.28389
-7.31257
-5.72733
-4.46039
-3.45404
-2.65957
-2.03622
-1.55012
-1.17335
-0.883116
-0.660892
-0.491777
-0.363856
-0.267681
-0.195809
-0.142421
-0.103002
-0.0740715
-0.052965
-0.0376584
-0.026624
-0.0187165
-0.0130834
-0.00909412
-0.00628566
-0.00432012
-0.00295261
-0.00200681
-0.00135657
-0.000912286
-0.000610739
-0.000407649
-0.000272285
-0.000183569
-0.000127319
-9.4336e-05
-7.91254e-05
-1793.51
-1765.03
-1710.86
-1635.81
-1545.58
-1445.77
-1341.2
-1235.66
-1131.91
-1031.78
-936.43
-846.505
-762.309
-683.925
-611.296
-544.284
-482.703
-426.34
-374.965
-328.338
-286.211
-248.33
-214.436
-184.264
-157.549
-134.023
-113.423
-95.4867
-79.9614
-66.602
-55.1749
-45.4593
-37.2491
-30.3531
-24.5965
-19.8205
-15.8824
-12.6553
-10.0271
-7.8998
-6.1886
-4.82058
-3.73365
-2.87536
-2.20178
-1.6764
-1.26912
-0.955317
-0.715011
-0.532107
-0.393738
-0.289693
-0.21193
-0.154161
-0.111502
-0.08019
-0.0573443
-0.040775
-0.0288293
-0.0202681
-0.0141688
-0.00984914
-0.00680788
-0.00467928
-0.00319824
-0.00217385
-0.00146955
-0.000988312
-0.000661663
-0.000441657
-0.000295012
-0.000198899
-0.000137957
-0.000102222
-8.57423e-05
-1712
-1689.07
-1645.01
-1583.03
-1507.09
-1421.29
-1329.43
-1234.68
-1139.59
-1046.04
-955.377
-868.515
-786.047
-708.332
-635.56
-567.802
-505.049
-447.229
-394.225
-345.887
-302.032
-262.458
-226.941
-195.242
-167.111
-142.291
-120.521
-101.538
-85.0863
-70.9136
-58.7787
-48.4525
-39.7194
-32.3793
-26.2481
-21.1586
-16.9599
-13.5177
-10.7132
-8.44238
-6.61513
-5.15388
-3.99256
-3.0753
-2.35528
-1.79355
-1.358
-1.02236
-0.765282
-0.569586
-0.421517
-0.310163
-0.226928
-0.165085
-0.119414
-0.0858871
-0.0614231
-0.0436784
-0.0308843
-0.0217142
-0.0151807
-0.0105532
-0.00729492
-0.00501431
-0.00342741
-0.00232973
-0.001575
-0.00105928
-0.000709204
-0.000473411
-0.000316236
-0.000213217
-0.000147895
-0.00010959
-9.19247e-05
-1648.08
-1628.99
-1592.04
-1539.44
-1474.04
-1398.91
-1317.03
-1231.09
-1143.33
-1055.58
-969.262
-885.43
-804.869
-728.131
-655.595
-587.503
-523.993
-465.117
-410.862
-361.158
-315.889
-274.901
-238.009
-205
-175.645
-149.695
-126.896
-106.989
-89.7135
-74.815
-62.0463
-51.1713
-41.967
-34.2255
-27.7552
-22.3811
-17.9454
-14.3073
-11.342
-8.9401
-7.00671
-5.46011
-4.23062
-3.25926
-2.49658
-1.90145
-1.43991
-1.08417
-0.811658
-0.604175
-0.447165
-0.329071
-0.240786
-0.175183
-0.126729
-0.0911565
-0.0651967
-0.0463654
-0.0327865
-0.0230532
-0.0161179
-0.0112053
-0.00774618
-0.00532479
-0.00363982
-0.00247424
-0.00167278
-0.00112509
-0.0007533
-0.000502868
-0.000335928
-0.000226504
-0.000157118
-0.000116429
-9.76642e-05
-1597.56
-1581.2
-1549.34
-1503.58
-1446.02
-1379.03
-1304.99
-1226.14
-1144.5
-1061.75
-979.316
-898.332
-819.691
-744.082
-672.022
-603.886
-539.932
-480.318
-425.119
-374.34
-327.927
-285.772
-247.726
-213.606
-183.199
-156.272
-132.578
-111.86
-93.8588
-78.3181
-64.9863
-53.6221
-43.9965
-35.8952
-29.12
-23.4896
-18.8402
-15.0251
-11.9141
-9.39338
-7.36364
-5.73947
-4.44794
-3.42731
-2.62576
-2.00015
-1.51488
-1.14078
-0.854148
-0.635881
-0.470686
-0.346418
-0.253504
-0.184454
-0.133448
-0.0959976
-0.0686647
-0.0488355
-0.0345357
-0.0242848
-0.0169801
-0.0118055
-0.00816155
-0.00561063
-0.00383542
-0.00260734
-0.00176285
-0.00118573
-0.000793936
-0.000530018
-0.00035408
-0.000238755
-0.000165624
-0.000122737
-0.000102958
-1557.41
-1543.01
-1514.86
-1474.15
-1422.48
-1361.73
-1293.82
-1220.68
-1144.06
-1065.54
-986.507
-908.105
-831.296
-756.858
-685.408
-617.421
-553.251
-493.142
-437.247
-385.635
-338.306
-295.197
-256.193
-221.136
-189.835
-162.07
-137.602
-116.179
-97.5442
-81.4397
-67.6117
-55.8149
-45.8155
-37.3941
-30.3471
-24.4876
-19.6468
-15.6727
-12.431
-9.80326
-7.68669
-5.99253
-4.64496
-3.57978
-2.74303
-2.08981
-1.58302
-1.19226
-0.892812
-0.664746
-0.492109
-0.362224
-0.265099
-0.192909
-0.139578
-0.100416
-0.0718308
-0.0510912
-0.0361335
-0.0254102
-0.0177681
-0.0123541
-0.00854137
-0.00587208
-0.00401436
-0.00272912
-0.00184528
-0.00124123
-0.00083114
-0.00055488
-0.000370706
-0.000249977
-0.000173416
-0.000128517
-0.00010781
-1525.37
-1512.41
-1487
-1450.05
-1402.84
-1346.88
-1283.78
-1215.19
-1142.68
-1067.7
-991.58
-915.461
-840.337
-767.04
-696.257
-628.538
-564.311
-503.891
-447.494
-395.245
-347.191
-303.308
-263.515
-227.677
-195.622
-167.143
-142.011
-119.981
-100.797
-84.201
-69.939
-57.7624
-47.434
-38.73
-31.4423
-25.3797
-20.3686
-16.253
-12.8946
-10.1713
-7.97703
-6.22016
-4.82233
-3.71714
-2.84876
-2.17071
-1.64454
-1.23876
-0.927756
-0.690848
-0.511491
-0.376531
-0.275597
-0.200568
-0.145133
-0.104421
-0.074702
-0.0531375
-0.0375835
-0.0264317
-0.0184836
-0.0128524
-0.00888641
-0.00610964
-0.00417699
-0.00283984
-0.00192024
-0.00129171
-0.000864982
-0.0005775
-0.000385835
-0.000260191
-0.00018051
-0.00013378
-0.000112228
-1499.72
-1487.84
-1464.47
-1430.36
-1386.54
-1334.28
-1274.95
-1209.99
-1140.81
-1068.76
-995.103
-920.965
-847.348
-775.117
-705.006
-637.62
-573.443
-512.846
-456.097
-403.368
-354.746
-310.242
-269.803
-233.318
-200.631
-171.55
-145.854
-123.303
-103.646
-86.6259
-71.9872
-59.4798
-48.8638
-39.912
-32.4129
-26.1713
-21.01
-16.7694
-13.3075
-10.4994
-8.23616
-6.42351
-4.98092
-3.84005
-2.94344
-2.24319
-1.6997
-1.28049
-0.959125
-0.714293
-0.528908
-0.389394
-0.285041
-0.20746
-0.150133
-0.108028
-0.0772886
-0.0549816
-0.0388907
-0.0273529
-0.019129
-0.0133021
-0.00919784
-0.00632411
-0.00432385
-0.00293984
-0.00198795
-0.00133733
-0.000895568
-0.000597948
-0.000399514
-0.000269427
-0.000186927
-0.000138542
-0.000116226
-1479.16
-1468.09
-1446.25
-1414.29
-1373.07
-1323.67
-1267.3
-1205.22
-1138.74
-1069.1
-997.503
-925.059
-852.763
-781.499
-712.031
-645.003
-580.942
-520.264
-463.276
-410.19
-361.128
-316.13
-275.167
-238.149
-204.938
-175.351
-149.179
-126.186
-106.125
-88.7404
-73.777
-60.9835
-50.1179
-40.9507
-33.267
-26.869
-21.576
-17.2255
-13.6728
-10.79
-8.46585
-6.60392
-5.12173
-3.94927
-3.02764
-2.30771
-1.74883
-1.31767
-0.987096
-0.735209
-0.544455
-0.400882
-0.293478
-0.213621
-0.154605
-0.111255
-0.0796036
-0.0566327
-0.0400614
-0.0281781
-0.0197074
-0.0137051
-0.00947708
-0.00651647
-0.00445561
-0.00302957
-0.00204873
-0.00137828
-0.000923033
-0.000616312
-0.000411803
-0.000277726
-0.000192693
-0.000142821
-0.000119819
-1462.67
-1452.2
-1431.53
-1401.21
-1361.99
-1314.82
-1260.76
-1200.98
-1136.66
-1068.98
-999.1
-928.085
-856.929
-786.522
-717.648
-650.978
-587.072
-526.376
-469.234
-415.887
-366.486
-321.097
-279.712
-242.26
-208.615
-178.608
-152.036
-128.67
-108.266
-90.5714
-75.3302
-62.291
-51.2104
-41.8569
-34.0135
-27.4795
-22.072
-17.6258
-13.9936
-11.0456
-8.66805
-6.76289
-5.24592
-4.04569
-3.10202
-2.36474
-1.79228
-1.35058
-1.01187
-0.753746
-0.558241
-0.411073
-0.300968
-0.219092
-0.158578
-0.114123
-0.0816619
-0.0581012
-0.041103
-0.0289127
-0.0202224
-0.0140641
-0.00972585
-0.00668788
-0.00457305
-0.00310957
-0.00210293
-0.0014148
-0.000947537
-0.000632701
-0.000422771
-0.000285136
-0.000197843
-0.000146644
-0.000123029
-1449.43
-1439.42
-1419.65
-1390.59
-1352.91
-1307.46
-1255.22
-1197.26
-1134.68
-1068.6
-1000.13
-930.309
-860.123
-790.463
-722.123
-655.794
-592.057
-531.387
-474.151
-420.617
-370.958
-325.263
-283.541
-245.736
-211.736
-181.381
-154.475
-130.797
-110.104
-92.1463
-76.6689
-63.4202
-52.1556
-42.6423
-34.6614
-28.0103
-22.5038
-17.9747
-14.2736
-11.2688
-8.84485
-6.90202
-5.35472
-4.13022
-3.16729
-2.41481
-1.83047
-1.37952
-1.03367
-0.770065
-0.570385
-0.420056
-0.307572
-0.223919
-0.162085
-0.116656
-0.0834801
-0.0593989
-0.0420238
-0.0295622
-0.020678
-0.0143817
-0.00994604
-0.00683965
-0.00467705
-0.00318044
-0.00215096
-0.00144718
-0.00096926
-0.000647232
-0.000432498
-0.000291708
-0.000202411
-0.000150036
-0.000125878
-1438.81
-1429.16
-1410.07
-1381.97
-1345.49
-1301.39
-1250.58
-1194.06
-1132.86
-1068.08
-1000.76
-931.932
-862.564
-793.545
-725.676
-659.659
-596.095
-535.475
-478.188
-424.523
-374.67
-328.736
-286.745
-248.656
-214.367
-183.726
-156.544
-132.605
-111.671
-93.4919
-77.8152
-64.3888
-52.9679
-43.3184
-35.22
-28.4685
-22.8771
-18.2766
-14.5163
-11.4624
-8.9984
-7.02298
-5.44938
-4.20384
-3.22418
-2.4585
-1.8638
-1.4048
-1.05272
-0.784338
-0.581012
-0.42792
-0.313357
-0.228149
-0.165159
-0.118877
-0.0850756
-0.0605381
-0.0428325
-0.0301329
-0.0210783
-0.0146609
-0.0101397
-0.00697315
-0.00476857
-0.00324282
-0.00219324
-0.00147569
-0.000988392
-0.000660034
-0.00044107
-0.000297501
-0.000206439
-0.000153027
-0.000128391
-1430.31
-1420.92
-1402.36
-1375.01
-1339.45
-1296.4
-1246.71
-1191.33
-1131.25
-1067.5
-1001.12
-933.109
-864.423
-795.947
-728.486
-662.75
-599.351
-538.795
-481.487
-427.731
-377.734
-331.614
-289.412
-251.095
-216.571
-185.696
-158.288
-134.133
-112.998
-94.6341
-78.7901
-65.2143
-53.6614
-43.8965
-35.6984
-28.8616
-23.1977
-18.5363
-14.7252
-11.6294
-9.13089
-7.12744
-5.53122
-4.26753
-3.27343
-2.49635
-1.89271
-1.42673
-1.06927
-0.796739
-0.59025
-0.434761
-0.318391
-0.231832
-0.167838
-0.120813
-0.0864667
-0.0615318
-0.0435381
-0.030631
-0.0214279
-0.0149049
-0.0103089
-0.00708984
-0.00484857
-0.00329737
-0.00223022
-0.00150063
-0.00100514
-0.000671241
-0.000448575
-0.000302575
-0.000209967
-0.000155648
-0.000130593
-1423.5
-1414.33
-1396.17
-1369.4
-1334.56
-1292.33
-1243.52
-1189.03
-1129.83
-1066.92
-1001.3
-933.956
-865.834
-797.814
-730.701
-665.212
-601.965
-541.479
-484.17
-430.353
-380.248
-333.987
-291.619
-253.12
-218.407
-187.342
-159.749
-135.416
-114.114
-95.5974
-79.614
-65.9132
-54.2496
-44.3877
-36.1055
-29.1964
-23.4712
-18.7582
-14.9038
-11.7723
-9.24444
-7.21707
-5.60149
-4.32227
-3.3158
-2.52893
-1.91761
-1.44565
-1.08354
-0.807443
-0.59823
-0.440672
-0.322745
-0.235018
-0.170156
-0.122489
-0.0876718
-0.062393
-0.0441498
-0.031063
-0.0217312
-0.0151165
-0.0104558
-0.00719117
-0.00491808
-0.00334477
-0.00226237
-0.00152231
-0.0010197
-0.000680988
-0.000455105
-0.00030699
-0.000213039
-0.00015793
-0.00013251
-1418.07
-1409.05
-1391.21
-1364.88
-1330.6
-1289.01
-1240.89
-1187.11
-1128.62
-1066.37
-1001.36
-934.56
-866.901
-799.26
-732.442
-667.166
-604.056
-543.639
-486.34
-432.485
-382.302
-335.933
-293.435
-254.792
-219.927
-188.709
-160.964
-136.487
-115.048
-96.4048
-80.3059
-66.5012
-54.7452
-44.8023
-36.4496
-29.4799
-23.703
-18.9464
-15.0557
-11.8939
-9.34114
-7.29346
-5.66144
-4.36901
-3.35201
-2.5568
-1.93892
-1.46184
-1.09577
-0.816623
-0.605077
-0.445748
-0.326484
-0.237757
-0.172149
-0.123931
-0.088709
-0.0631345
-0.0446768
-0.0314353
-0.0219926
-0.0152991
-0.0105825
-0.0072786
-0.00497807
-0.00338569
-0.00229013
-0.00154105
-0.00103228
-0.000689413
-0.00046075
-0.000310807
-0.000215695
-0.000159904
-0.000134169
-1413.74
-1404.85
-1387.24
-1361.27
-1327.41
-1286.32
-1238.74
-1185.53
-1127.58
-1065.87
-1001.35
-934.987
-867.706
-800.378
-733.806
-668.711
-605.722
-545.371
-488.089
-434.21
-383.971
-337.52
-294.92
-256.164
-221.178
-189.837
-161.97
-137.375
-115.825
-97.0772
-80.8833
-66.9927
-55.1603
-45.1499
-36.7386
-29.7184
-23.8983
-19.1052
-15.1838
-11.9966
-9.42294
-7.35815
-5.71226
-4.40867
-3.38276
-2.58048
-1.95705
-1.47563
-1.10619
-0.824445
-0.610914
-0.450078
-0.329676
-0.240095
-0.173852
-0.125164
-0.089596
-0.0637689
-0.0451278
-0.0317541
-0.0222166
-0.0154555
-0.0106911
-0.00735357
-0.00502952
-0.0034208
-0.00231395
-0.00155713
-0.00104308
-0.000696648
-0.000465599
-0.000314088
-0.000217978
-0.0001616
-0.000135595
-1410.29
-1401.5
-1384.09
-1358.38
-1324.86
-1284.16
-1237
-1184.22
-1126.71
-1065.42
-1001.29
-935.285
-868.311
-801.239
-734.871
-669.929
-607.044
-546.752
-489.491
-435.599
-385.32
-338.807
-296.129
-257.284
-222.203
-190.763
-162.798
-138.107
-116.466
-97.6339
-81.3621
-67.4011
-55.5057
-45.4397
-36.9798
-29.9177
-24.0617
-19.2382
-15.2913
-12.0829
-9.49171
-7.41259
-5.75506
-4.4421
-3.40869
-2.60048
-1.97236
-1.48728
-1.115
-0.831068
-0.61586
-0.453748
-0.332383
-0.24208
-0.175298
-0.126211
-0.0903497
-0.0643081
-0.0455114
-0.0320252
-0.0224072
-0.0155887
-0.0107836
-0.00741744
-0.00507337
-0.00345073
-0.00233427
-0.00157084
-0.0010523
-0.000702822
-0.000469737
-0.000316888
-0.000219927
-0.00016305
-0.000136814
-1407.57
-1398.85
-1381.58
-1356.08
-1322.82
-1282.42
-1235.59
-1183.15
-1125.99
-1065.03
-1001.22
-935.492
-868.764
-801.9
-735.7
-670.885
-608.088
-547.85
-490.61
-436.713
-386.406
-339.846
-297.108
-258.193
-223.037
-191.518
-163.475
-138.707
-116.993
-98.0919
-81.7568
-67.7383
-55.7913
-45.6797
-37.1799
-30.0832
-24.1976
-19.349
-15.3809
-12.1549
-9.54915
-7.4581
-5.79088
-4.4701
-3.43043
-2.61725
-1.98522
-1.49707
-1.12241
-0.836638
-0.620022
-0.456839
-0.334664
-0.243753
-0.176518
-0.127095
-0.0909861
-0.0647637
-0.0458355
-0.0322545
-0.0225684
-0.0157013
-0.0108618
-0.00747151
-0.0051105
-0.00347608
-0.00235148
-0.00158246
-0.00106011
-0.000708057
-0.000473248
-0.000319264
-0.000221582
-0.00016428
-0.000137848
-1405.41
-1396.75
-1379.59
-1354.25
-1321.2
-1281.03
-1234.46
-1182.29
-1125.4
-1064.7
-1001.13
-935.632
-869.102
-802.407
-736.343
-671.632
-608.91
-548.718
-491.5
-437.601
-387.274
-340.68
-297.896
-258.928
-223.711
-192.131
-164.025
-139.196
-117.423
-98.4666
-82.0802
-68.015
-56.0261
-45.8773
-37.3448
-30.2198
-24.3099
-19.4406
-15.4552
-12.2146
-9.59682
-7.49591
-5.82066
-4.4934
-3.44854
-2.63123
-1.99594
-1.50524
-1.1286
-0.841295
-0.623504
-0.459426
-0.336574
-0.245154
-0.17754
-0.127836
-0.09152
-0.065146
-0.0461077
-0.0324471
-0.0227038
-0.015796
-0.0109277
-0.007517
-0.00514174
-0.00349742
-0.00236597
-0.00159225
-0.00106669
-0.000712469
-0.000476207
-0.000321267
-0.000222977
-0.000165318
-0.000138721
-1403.72
-1395.1
-1378.02
-1352.81
-1319.91
-1279.92
-1233.55
-1181.59
-1124.91
-1064.42
-1001.05
-935.725
-869.354
-802.793
-736.84
-672.215
-609.555
-549.403
-492.203
-438.307
-387.966
-341.346
-298.528
-259.517
-224.255
-192.626
-164.47
-139.592
-117.772
-98.7712
-82.3436
-68.2408
-56.2179
-46.0389
-37.4799
-30.3318
-24.4021
-19.5159
-15.5163
-12.2638
-9.63614
-7.52712
-5.84527
-4.51267
-3.46353
-2.64281
-2.00483
-1.51202
-1.13373
-0.845162
-0.626397
-0.461577
-0.338163
-0.246321
-0.178391
-0.128454
-0.0919651
-0.0654649
-0.0463347
-0.0326078
-0.0228169
-0.0158751
-0.0109827
-0.00755502
-0.00516787
-0.00351527
-0.0023781
-0.00160045
-0.0010722
-0.000716163
-0.000478685
-0.000322945
-0.000224146
-0.000166187
-0.000139452
-1402.38
-1393.8
-1376.79
-1351.67
-1318.89
-1279.05
-1232.83
-1181.03
-1124.52
-1064.19
-1000.97
-935.787
-869.541
-803.087
-737.222
-672.668
-610.059
-549.939
-492.758
-438.864
-388.515
-341.876
-299.031
-259.988
-224.69
-193.022
-164.828
-139.911
-118.054
-99.0174
-82.5569
-68.4238
-56.3737
-46.1704
-37.59
-30.4232
-24.4774
-19.5775
-15.5662
-12.304
-9.66838
-7.55273
-5.86548
-4.5285
-3.47586
-2.65235
-2.01215
-1.51761
-1.13797
-0.848355
-0.628787
-0.463354
-0.339477
-0.247287
-0.179096
-0.128965
-0.0923338
-0.0657292
-0.0465231
-0.0327412
-0.0229108
-0.0159408
-0.0110284
-0.0075866
-0.00518958
-0.00353011
-0.00238818
-0.00160726
-0.00107679
-0.000719237
-0.000480748
-0.000324343
-0.000225119
-0.000166912
-0.000140061
-1401.34
-1392.78
-1375.83
-1350.78
-1318.09
-1278.36
-1232.26
-1180.59
-1124.2
-1064
-1000.9
-935.826
-869.678
-803.31
-737.516
-673.018
-610.45
-550.359
-493.192
-439.302
-388.947
-342.295
-299.43
-260.363
-225.036
-193.339
-165.114
-140.167
-118.28
-99.2153
-82.7285
-68.5714
-56.4994
-46.2766
-37.679
-30.4972
-24.5385
-19.6275
-15.6069
-12.3368
-9.69463
-7.57361
-5.88197
-4.54144
-3.48594
-2.66014
-2.01815
-1.52219
-1.14144
-0.850973
-0.630748
-0.464814
-0.340557
-0.24808
-0.179676
-0.129386
-0.0926374
-0.0659469
-0.0466782
-0.0328511
-0.0229882
-0.015995
-0.011066
-0.00761267
-0.00520751
-0.00354236
-0.00239651
-0.00161289
-0.00108058
-0.000721779
-0.000482454
-0.000325498
-0.000225925
-0.000167511
-0.000140566
-1400.53
-1391.99
-1375.07
-1350.08
-1317.47
-1277.81
-1231.81
-1180.24
-1123.95
-1063.84
-1000.83
-935.849
-869.779
-803.479
-737.741
-673.287
-610.754
-550.685
-493.531
-439.646
-389.287
-342.625
-299.745
-260.659
-225.311
-193.59
-165.341
-140.37
-118.46
-99.3734
-82.8659
-68.6896
-56.6003
-46.362
-37.7506
-30.5569
-24.5877
-19.6679
-15.6397
-12.3633
-9.71589
-7.59054
-5.89534
-4.55194
-3.49413
-2.66648
-2.02303
-1.52592
-1.14427
-0.853108
-0.632348
-0.466006
-0.341439
-0.248728
-0.180149
-0.12973
-0.0928858
-0.0661251
-0.0468053
-0.0329411
-0.0230516
-0.0160394
-0.011097
-0.00763406
-0.00522222
-0.00355242
-0.00240335
-0.00161752
-0.00108369
-0.000723868
-0.000483856
-0.000326449
-0.000226587
-0.000168005
-0.000140981
-1399.9
-1391.38
-1374.49
-1349.54
-1316.98
-1277.39
-1231.46
-1179.96
-1123.75
-1063.71
-1000.78
-935.863
-869.854
-803.606
-737.913
-673.495
-610.988
-550.938
-493.795
-439.913
-389.552
-342.883
-299.992
-260.891
-225.527
-193.789
-165.521
-140.532
-118.603
-99.4991
-82.9752
-68.7838
-56.6808
-46.4302
-37.8079
-30.6046
-24.6272
-19.7003
-15.6661
-12.3847
-9.733
-7.60416
-5.90613
-4.56041
-3.50073
-2.67161
-2.02697
-1.52893
-1.14656
-0.854837
-0.633645
-0.466972
-0.342154
-0.249255
-0.180534
-0.130009
-0.0930878
-0.06627
-0.0469086
-0.0330144
-0.0231033
-0.0160756
-0.0111222
-0.0076515
-0.00523421
-0.00356063
-0.00240893
-0.00162129
-0.00108623
-0.000725573
-0.000485002
-0.000327225
-0.000227129
-0.000168408
-0.00014132
-1399.42
-1390.9
-1374.04
-1349.12
-1316.6
-1277.06
-1231.18
-1179.74
-1123.59
-1063.61
-1000.74
-935.87
-869.908
-803.701
-738.043
-673.653
-611.168
-551.133
-493.999
-440.12
-389.759
-343.084
-300.185
-261.073
-225.696
-193.944
-165.662
-140.659
-118.716
-99.5983
-83.0617
-68.8585
-56.7446
-46.4843
-37.8535
-30.6426
-24.6587
-19.7261
-15.6871
-12.4017
-9.74668
-7.61507
-5.91476
-4.5672
-3.50604
-2.67572
-2.03014
-1.53136
-1.14841
-0.856229
-0.634689
-0.467751
-0.342731
-0.24968
-0.180845
-0.130235
-0.0932509
-0.0663872
-0.0469923
-0.0330737
-0.0231451
-0.0161049
-0.0111426
-0.00766563
-0.00524394
-0.00356728
-0.00241345
-0.00162436
-0.00108829
-0.000726958
-0.000485931
-0.000327855
-0.000227568
-0.000168735
-0.000141595
-1399.04
-1390.54
-1373.69
-1348.8
-1316.31
-1276.81
-1230.97
-1179.57
-1123.46
-1063.53
-1000.7
-935.873
-869.947
-803.773
-738.142
-673.774
-611.305
-551.282
-494.156
-440.281
-389.918
-343.24
-300.335
-261.215
-225.829
-194.066
-165.773
-140.758
-118.804
-99.6763
-83.1297
-68.9172
-56.795
-46.5271
-37.8895
-30.6727
-24.6836
-19.7466
-15.7039
-12.4152
-9.75756
-7.62376
-5.92164
-4.57262
-3.51027
-2.679
-2.03267
-1.53329
-1.14988
-0.857343
-0.635526
-0.468375
-0.343194
-0.25002
-0.181094
-0.130417
-0.093382
-0.0664813
-0.0470595
-0.0331214
-0.0231787
-0.0161285
-0.011159
-0.007677
-0.00525177
-0.00357264
-0.0024171
-0.00162682
-0.00108996
-0.000728074
-0.000486682
-0.000328364
-0.000227923
-0.000168999
-0.000141818
-1398.75
-1390.26
-1373.42
-1348.55
-1316.09
-1276.61
-1230.8
-1179.44
-1123.36
-1063.47
-1000.67
-935.873
-869.976
-803.826
-738.216
-673.865
-611.41
-551.397
-494.276
-440.404
-390.041
-343.36
-300.45
-261.325
-225.931
-194.161
-165.859
-140.836
-118.873
-99.7372
-83.1829
-68.9633
-56.8345
-46.5607
-37.9178
-30.6963
-24.7032
-19.7627
-15.717
-12.4259
-9.76615
-7.63062
-5.92709
-4.5769
-3.51362
-2.68161
-2.03468
-1.53483
-1.15105
-0.858229
-0.636191
-0.468871
-0.343562
-0.250292
-0.181293
-0.130561
-0.0934866
-0.0665565
-0.0471131
-0.0331595
-0.0232056
-0.0161473
-0.0111721
-0.0076861
-0.00525804
-0.00357693
-0.00242002
-0.0016288
-0.00109129
-0.000728969
-0.000487283
-0.000328772
-0.000228208
-0.000169212
-0.000141996
-1398.53
-1390.04
-1373.22
-1348.36
-1315.92
-1276.46
-1230.68
-1179.34
-1123.29
-1063.42
-1000.64
-935.872
-869.996
-803.865
-738.272
-673.934
-611.49
-551.484
-494.368
-440.498
-390.135
-343.453
-300.54
-261.409
-226.01
-194.234
-165.926
-140.896
-118.927
-99.7845
-83.2243
-68.9991
-56.8652
-46.5868
-37.9399
-30.7148
-24.7186
-19.7754
-15.7274
-12.4343
-9.77291
-7.63602
-5.93137
-4.58028
-3.51626
-2.68366
-2.03626
-1.53605
-1.15198
-0.858929
-0.636718
-0.469264
-0.343854
-0.250507
-0.181451
-0.130676
-0.0935695
-0.0666162
-0.0471558
-0.0331898
-0.023227
-0.0161623
-0.0111826
-0.00769334
-0.00526302
-0.00358035
-0.00242235
-0.00163038
-0.00109235
-0.000729682
-0.000487762
-0.000329097
-0.000228435
-0.000169381
-0.000142139
-1398.37
-1389.88
-1373.06
-1348.21
-1315.78
-1276.34
-1230.58
-1179.26
-1123.23
-1063.38
-1000.62
-935.87
-870.011
-803.895
-738.313
-673.986
-611.55
-551.55
-494.437
-440.569
-390.207
-343.523
-300.608
-261.474
-226.071
-194.29
-165.977
-140.942
-118.968
-99.8211
-83.2563
-69.0269
-56.8891
-46.6072
-37.957
-30.7292
-24.7305
-19.7852
-15.7354
-12.4408
-9.77818
-7.64024
-5.93472
-4.58292
-3.51833
-2.68527
-2.03751
-1.537
-1.15271
-0.859479
-0.637131
-0.469574
-0.344083
-0.250676
-0.181575
-0.130766
-0.093635
-0.0666632
-0.0471894
-0.0332137
-0.0232438
-0.0161741
-0.0111908
-0.00769907
-0.00526697
-0.00358305
-0.00242419
-0.00163162
-0.00109319
-0.000730246
-0.000488142
-0.000329354
-0.000228614
-0.000169515
-0.000142252
-1398.24
-1389.76
-1372.94
-1348.1
-1315.68
-1276.26
-1230.5
-1179.2
-1123.19
-1063.35
-1000.61
-935.868
-870.021
-803.916
-738.345
-674.025
-611.595
-551.599
-494.49
-440.624
-390.262
-343.577
-300.66
-261.523
-226.117
-194.333
-166.016
-140.977
-119
-99.8492
-83.2809
-69.0482
-56.9075
-46.6228
-37.9703
-30.7403
-24.7398
-19.7929
-15.7417
-12.4459
-9.78227
-7.64352
-5.93733
-4.58498
-3.51994
-2.68652
-2.03847
-1.53775
-1.15327
-0.859909
-0.637455
-0.469815
-0.344263
-0.250808
-0.181672
-0.130837
-0.0936862
-0.0667001
-0.0472158
-0.0332324
-0.0232571
-0.0161834
-0.0111973
-0.00770356
-0.00527007
-0.00358517
-0.00242563
-0.0016326
-0.00109385
-0.00073069
-0.00048844
-0.000329557
-0.000228756
-0.00016962
-0.00014234
-1398.15
-1389.66
-1372.85
-1348.02
-1315.61
-1276.19
-1230.45
-1179.15
-1123.15
-1063.33
-1000.6
-935.867
-870.029
-803.932
-738.368
-674.054
-611.629
-551.637
-494.53
-440.664
-390.303
-343.618
-300.699
-261.561
-226.152
-194.365
-166.046
-141.005
-119.024
-99.8706
-83.2997
-69.0646
-56.9216
-46.6349
-37.9805
-30.7489
-24.7469
-19.7987
-15.7465
-12.4498
-9.78543
-7.64605
-5.93934
-4.58657
-3.52119
-2.68749
-2.03923
-1.53832
-1.15371
-0.860242
-0.637706
-0.470003
-0.344402
-0.250912
-0.181747
-0.130892
-0.0937261
-0.0667288
-0.0472363
-0.033247
-0.0232674
-0.0161907
-0.0112024
-0.00770707
-0.00527249
-0.00358683
-0.00242677
-0.00163337
-0.00109437
-0.000731037
-0.000488674