/*--------------------------------*- C++ -*----------------------------------*\
  =========                 |
  \\      /  F ield         | OpenFOAM: The Open Source CFD Toolbox
   \\    /   O peration     | Website:  https://openfoam.org
    \\  /    A nd           | Version:  10
     \\/     M anipulation  |
\*---------------------------------------------------------------------------*/
FoamFile
{
    format      ascii;
    class       volScalarField;
    location    "407";
    object      T;
}
// * * * * * * * * * * * * * * * * * * * * * * * * * * * * * * * * * * * * * //

dimensions      [0 0 0 1 0 0 0];

internalField   nonuniform List<scalar> 
11250
(
249.869
167.638
139.493
127.128
120.402
116.149
113.184
110.978
109.261
107.883
106.749
105.8
104.996
104.308
103.715
103.201
102.755
102.367
102.03
101.736
101.48
101.259
101.067
100.901
100.758
100.636
100.531
100.441
100.366
100.302
100.248
100.203
100.165
100.134
100.108
100.087
100.069
100.055
100.044
100.035
100.027
100.021
100.016
100.013
100.01
100.008
100.006
100.004
100.003
100.002
100.002
100.001
100.001
100.001
100.001
100
100
100
100
100
100
100
100
100
100
100
100
100
100
100
100
100
100
100
100
331.581
248.829
202.708
175.757
158.744
147.175
138.809
132.461
127.466
123.424
120.084
117.279
114.895
112.851
111.088
109.559
108.23
107.073
106.066
105.188
104.425
103.763
103.19
102.694
102.267
101.901
101.588
101.321
101.094
100.903
100.742
100.607
100.494
100.401
100.323
100.26
100.208
100.166
100.131
100.103
100.081
100.063
100.049
100.038
100.029
100.023
100.017
100.013
100.01
100.007
100.006
100.004
100.003
100.002
100.002
100.001
100.001
100.001
100
100
100
100
100
100
100
100
100
100
100
100
100
100
100
100
100
359.208
293.405
246.772
214.475
191.679
175.042
162.465
152.648
144.777
138.327
132.95
128.405
124.524
121.185
118.295
115.785
113.6
111.695
110.033
108.585
107.326
106.231
105.283
104.463
103.757
103.15
102.632
102.19
101.814
101.497
101.23
101.006
100.82
100.665
100.536
100.431
100.345
100.275
100.218
100.172
100.135
100.105
100.082
100.063
100.049
100.037
100.029
100.022
100.016
100.012
100.009
100.007
100.005
100.004
100.003
100.002
100.001
100.001
100.001
100.001
100
100
100
100
100
100
100
100
100
100
100
100
100
100
100
371.064
318.83
276.535
243.741
218.515
198.921
183.442
170.979
160.766
152.264
145.093
138.981
133.728
129.186
125.24
121.801
118.801
116.179
113.89
111.893
110.152
108.639
107.327
106.192
105.214
104.373
103.654
103.041
102.52
102.08
101.709
101.398
101.139
100.924
100.746
100.599
100.479
100.382
100.303
100.239
100.187
100.147
100.114
100.088
100.068
100.052
100.04
100.03
100.023
100.017
100.013
100.01
100.007
100.005
100.004
100.003
100.002
100.001
100.001
100.001
100.001
100
100
100
100
100
100
100
100
100
100
100
100
100
100
377.291
334.346
296.846
265.507
239.802
218.787
201.516
187.19
175.182
165.016
156.331
148.856
142.383
136.751
131.837
127.539
123.776
120.482
117.599
115.079
112.88
110.966
109.305
107.867
106.627
105.56
104.647
103.868
103.206
102.647
102.175
101.78
101.45
101.176
100.95
100.763
100.611
100.486
100.386
100.304
100.239
100.187
100.145
100.112
100.087
100.066
100.051
100.038
100.029
100.022
100.016
100.012
100.009
100.007
100.005
100.004
100.003
100.002
100.001
100.001
100.001
100
100
100
100
100
100
100
100
100
100
100
100
100
100
381.056
344.454
311.058
281.724
256.508
235.037
216.791
201.243
187.933
176.474
166.556
157.931
150.401
143.808
138.024
132.944
128.482
124.564
121.127
118.117
115.487
113.194
111.202
109.475
107.985
106.702
105.604
104.666
103.869
103.194
102.626
102.149
101.751
101.421
101.147
100.922
100.738
100.588
100.466
100.368
100.289
100.226
100.176
100.136
100.105
100.08
100.061
100.047
100.035
100.026
100.02
100.015
100.011
100.008
100.006
100.004
100.003
100.002
100.002
100.001
100.001
100.001
100
100
100
100
100
100
100
100
100
100
100
100
100
383.548
351.404
321.283
293.928
269.598
248.218
229.543
213.257
199.045
186.618
175.725
166.155
157.731
150.305
143.755
137.977
132.883
128.395
124.449
120.986
117.955
115.308
113.004
111.006
109.28
107.793
106.518
105.429
104.503
103.719
103.058
102.504
102.041
101.656
101.337
101.075
100.861
100.686
100.544
100.429
100.337
100.263
100.205
100.159
100.122
100.094
100.072
100.054
100.041
100.031
100.023
100.017
100.013
100.009
100.007
100.005
100.004
100.003
100.002
100.001
100.001
100.001
100
100
100
100
100
100
100
100
100
100
100
100
100
385.297
356.384
328.829
303.229
279.888
258.877
240.113
223.428
208.622
195.493
183.849
173.52
164.354
156.221
149.007
142.614
136.956
131.956
127.548
123.671
120.269
117.295
114.703
112.452
110.504
108.825
107.385
106.153
105.106
104.218
103.47
102.841
102.316
101.88
101.519
101.221
100.978
100.779
100.618
100.488
100.383
100.299
100.233
100.18
100.139
100.107
100.081
100.062
100.047
100.035
100.026
100.02
100.015
100.011
100.008
100.006
100.004
100.003
100.002
100.002
100.001
100.001
100.001
100
100
100
100
100
100
100
100
100
100
100
100
386.576
360.067
334.52
310.408
288.022
267.496
248.838
231.98
216.807
203.185
190.976
180.047
170.276
161.55
153.77
146.844
140.69
135.235
130.411
126.159
122.421
119.147
116.29
113.804
111.652
109.795
108.2
106.836
105.674
104.689
103.858
103.161
102.577
102.092
101.691
101.36
101.089
100.868
100.688
100.543
100.427
100.334
100.26
100.201
100.155
100.119
100.091
100.069
100.052
100.039
100.029
100.022
100.016
100.012
100.009
100.006
100.005
100.003
100.002
100.002
100.001
100.001
100.001
100
100
100
100
100
100
100
100
100
100
100
100
387.536
362.856
338.89
316.013
294.491
274.476
256.029
239.141
223.759
209.802
197.175
185.781
175.523
166.309
158.05
150.666
144.081
138.226
133.034
128.446
124.405
120.86
117.76
115.061
112.72
110.699
108.961
107.474
106.206
105.131
104.223
103.461
102.823
102.292
101.853
101.491
101.194
100.951
100.755
100.596
100.468
100.366
100.285
100.221
100.17
100.131
100.1
100.076
100.057
100.043
100.032
100.024
100.018
100.013
100.01
100.007
100.005
100.004
100.003
100.002
100.001
100.001
100.001
100
100
100
100
100
100
100
100
100
100
100
100
388.272
365.007
342.293
320.434
299.666
280.143
261.951
245.119
229.636
215.459
202.531
190.781
180.136
170.522
161.864
154.092
147.136
140.931
135.416
130.531
126.22
122.43
119.112
116.219
113.707
111.535
109.667
108.066
106.701
105.542
104.563
103.74
103.052
102.479
102.004
101.613
101.292
101.03
100.817
100.645
100.507
100.397
100.309
100.239
100.184
100.141
100.108
100.082
100.062
100.047
100.035
100.026
100.019
100.014
100.01
100.008
100.006
100.004
100.003
100.002
100.001
100.001
100.001
100.001
100
100
100
100
100
100
100
100
100
100
100
388.846
366.689
344.973
323.95
303.827
284.754
266.827
250.099
234.586
220.274
207.131
195.112
184.162
174.225
165.237
157.138
149.866
143.36
137.563
132.416
127.866
123.859
120.345
117.277
114.611
112.303
110.316
108.611
107.157
105.922
104.878
104
103.264
102.652
102.145
101.726
101.383
101.103
100.875
100.691
100.543
100.425
100.331
100.256
100.198
100.152
100.116
100.088
100.067
100.05
100.037
100.028
100.021
100.015
100.011
100.008
100.006
100.004
100.003
100.002
100.002
100.001
100.001
100.001
100
100
100
100
100
100
100
100
100
100
100
389.298
368.019
347.103
326.765
307.189
288.514
270.844
254.242
238.743
224.353
211.062
198.841
187.655
177.457
168.199
159.827
152.288
145.525
139.483
134.109
129.348
125.149
121.462
118.238
115.433
113.003
110.908
109.11
107.575
106.27
105.167
104.238
103.46
102.812
102.275
101.831
101.468
101.17
100.929
100.734
100.577
100.451
100.352
100.272
100.21
100.161
100.123
100.094
100.071
100.053
100.04
100.03
100.022
100.016
100.012
100.009
100.006
100.005
100.003
100.002
100.002
100.001
100.001
100.001
100
100
100
100
100
100
100
100
100
100
100
389.658
369.078
348.807
329.031
309.914
291.587
274.153
257.684
242.225
227.798
214.406
202.037
190.667
180.262
170.783
162.186
154.421
147.439
141.189
135.617
130.674
126.306
122.466
119.105
116.176
113.637
111.446
109.564
107.956
106.588
105.43
104.456
103.639
102.958
102.394
101.928
101.545
101.232
100.978
100.773
100.608
100.476
100.37
100.287
100.221
100.17
100.13
100.099
100.075
100.056
100.042
100.031
100.023
100.017
100.013
100.009
100.007
100.005
100.003
100.002
100.002
100.001
100.001
100.001
100
100
100
100
100
100
100
100
100
100
100
389.945
369.927
350.178
330.863
312.129
294.101
276.88
260.541
245.136
230.697
217.24
204.762
193.251
182.682
173.025
164.241
156.289
149.122
142.694
136.953
131.851
127.337
123.363
119.88
116.843
114.207
111.93
109.973
108.299
106.875
105.669
104.653
103.802
103.091
102.502
102.015
101.616
101.289
101.024
100.809
100.636
100.498
100.388
100.301
100.232
100.178
100.136
100.103
100.078
100.059
100.044
100.033
100.024
100.018
100.013
100.01
100.007
100.005
100.004
100.003
100.002
100.001
100.001
100.001
100
100
100
100
100
100
100
100
100
100
100
390.177
370.611
351.285
332.347
313.934
296.161
279.127
262.908
247.564
233.131
219.633
207.077
195.457
184.759
174.958
166.022
157.914
150.593
144.013
138.128
132.889
128.249
124.158
120.57
117.437
114.715
112.363
110.34
108.608
107.134
105.884
104.831
103.948
103.212
102.6
102.095
101.68
101.341
101.065
100.842
100.662
100.518
100.404
100.313
100.241
100.185
100.142
100.108
100.081
100.061
100.046
100.034
100.025
100.019
100.014
100.01
100.007
100.005
100.004
100.003
100.002
100.001
100.001
100.001
100
100
100
100
100
100
100
100
100
100
100
390.364
371.164
352.182
333.554
315.406
297.848
280.977
264.869
249.585
235.168
221.646
209.034
197.333
186.534
176.617
167.556
159.32
151.869
145.162
139.155
133.8
129.051
124.86
121.179
117.963
115.167
112.748
110.666
108.883
107.364
106.077
104.991
104.08
103.319
102.688
102.166
101.737
101.387
101.102
100.871
100.685
100.536
100.418
100.324
100.25
100.192
100.147
100.112
100.084
100.064
100.048
100.035
100.026
100.019
100.014
100.01
100.008
100.005
100.004
100.003
100.002
100.001
100.001
100.001
100
100
100
100
100
100
100
100
100
100
100
390.515
371.612
352.91
334.535
316.607
299.231
282.5
266.49
251.264
236.868
223.335
210.684
198.921
188.042
178.033
168.872
160.529
152.971
146.158
140.047
134.593
129.751
125.474
121.714
118.426
115.565
113.088
110.955
109.127
107.569
106.248
105.133
104.197
103.416
102.767
102.23
101.789
101.428
101.135
100.897
100.706
100.553
100.431
100.334
100.258
100.198
100.151
100.115
100.087
100.066
100.049
100.037
100.027
100.02
100.015
100.011
100.008
100.006
100.004
100.003
100.002
100.001
100.001
100.001
100.001
100
100
100
100
100
100
100
100
100
100
390.637
371.975
353.501
335.334
317.588
300.364
283.752
267.828
252.655
238.283
224.747
212.069
200.259
189.318
179.236
169.993
161.564
153.917
147.015
140.817
135.281
130.36
126.008
122.181
118.831
115.914
113.387
111.209
109.342
107.75
106.399
105.259
104.301
103.501
102.836
102.287
101.835
101.465
101.164
100.921
100.725
100.568
100.442
100.343
100.265
100.203
100.155
100.118
100.089
100.067
100.05
100.038
100.028
100.021
100.015
100.011
100.008
100.006
100.004
100.003
100.002
100.002
100.001
100.001
100.001
100
100
100
100
100
100
100
100
100
100
390.737
372.27
353.981
335.985
318.389
301.291
284.78
268.93
253.806
239.458
225.923
213.227
201.383
190.394
180.253
170.944
162.445
154.725
147.749
141.479
135.872
130.885
126.471
122.585
119.182
116.217
113.647
111.431
109.53
107.909
106.532
105.369
104.393
103.576
102.898
102.337
101.876
101.498
101.191
100.942
100.741
100.581
100.453
100.351
100.271
100.208
100.159
100.121
100.092
100.069
100.052
100.039
100.029
100.021
100.016
100.011
100.008
100.006
100.004
100.003
100.002
100.002
100.001
100.001
100.001
100
100
100
100
100
100
100
100
100
100
390.817
372.509
354.372
336.515
319.042
302.049
285.623
269.837
254.756
240.43
226.9
214.192
202.323
191.296
181.109
171.748
163.191
155.411
148.375
142.044
136.379
131.336
126.869
122.934
119.486
116.48
113.873
111.624
109.694
108.047
106.648
105.466
104.473
103.642
102.952
102.381
101.911
101.527
101.214
100.96
100.756
100.592
100.462
100.358
100.276
100.212
100.162
100.123
100.093
100.07
100.053
100.039
100.029
100.022
100.016
100.012
100.008
100.006
100.004
100.003
100.002
100.002
100.001
100.001
100.001
100
100
100
100
100
100
100
100
100
100
390.883
372.703
354.689
336.946
319.574
302.668
286.312
270.581
255.537
241.233
227.709
214.994
203.105
192.051
181.827
172.424
163.82
155.991
148.905
142.525
136.811
131.721
127.21
123.234
119.747
116.706
114.068
111.791
109.836
108.166
106.748
105.55
104.542
103.7
102.999
102.42
101.942
101.552
101.234
100.976
100.769
100.602
100.47
100.364
100.281
100.216
100.165
100.126
100.095
100.072
100.054
100.04
100.03
100.022
100.016
100.012
100.009
100.006
100.004
100.003
100.002
100.002
100.001
100.001
100.001
100
100
100
100
100
100
100
100
100
100
390.936
372.861
354.946
337.295
320.007
303.173
286.876
271.19
256.178
241.893
228.376
215.657
203.755
192.678
182.426
172.989
164.348
156.479
149.352
142.931
137.177
132.047
127.499
123.489
119.97
116.9
114.235
111.934
109.957
108.269
106.835
105.622
104.602
103.749
103.04
102.453
101.97
101.574
101.251
100.99
100.78
100.611
100.476
100.37
100.285
100.219
100.168
100.128
100.097
100.073
100.055
100.041
100.03
100.022
100.016
100.012
100.009
100.006
100.005
100.003
100.002
100.002
100.001
100.001
100.001
100
100
100
100
100
100
100
100
100
100
390.978
372.988
355.154
337.579
320.359
303.583
287.335
271.687
256.703
242.435
228.925
216.204
204.292
193.199
182.924
173.46
164.789
156.888
149.727
143.272
137.485
132.323
127.745
123.705
120.159
117.064
114.377
112.056
110.061
108.357
106.909
105.684
104.654
103.792
103.075
102.482
101.993
101.593
101.267
101.002
100.789
100.619
100.482
100.374
100.289
100.222
100.17
100.129
100.098
100.074
100.055
100.041
100.031
100.023
100.017
100.012
100.009
100.006
100.005
100.003
100.002
100.002
100.001
100.001
100.001
100
100
100
100
100
100
100
100
100
100
391.013
373.091
355.323
337.809
320.644
303.916
287.709
272.093
257.132
242.879
229.376
216.654
204.734
193.628
183.336
173.85
165.155
157.228
150.04
143.558
137.743
132.555
127.951
123.887
120.319
117.204
114.497
112.159
110.15
108.432
106.972
105.737
104.698
103.829
103.105
102.506
102.013
101.609
101.28
101.013
100.798
100.625
100.488
100.378
100.292
100.225
100.172
100.131
100.099
100.075
100.056
100.042
100.031
100.023
100.017
100.012
100.009
100.006
100.005
100.003
100.002
100.002
100.001
100.001
100.001
100
100
100
100
100
100
100
100
100
100
391.041
373.174
355.459
337.994
320.874
304.186
288.011
272.422
257.48
243.24
229.743
217.022
205.097
193.981
183.675
174.173
165.458
157.51
150.301
143.796
137.959
132.749
128.124
124.04
120.454
117.321
114.599
112.247
110.225
108.496
107.026
105.782
104.736
103.86
103.131
102.527
102.03
101.623
101.291
101.022
100.805
100.631
100.492
100.382
100.295
100.227
100.173
100.132
100.1
100.075
100.056
100.042
100.031
100.023
100.017
100.012
100.009
100.007
100.005
100.003
100.002
100.002
100.001
100.001
100.001
100
100
100
100
100
100
100
100
100
100
391.063
373.241
355.569
338.144
321.06
304.404
288.256
272.688
257.763
243.534
230.043
217.322
205.394
194.27
183.954
174.438
165.708
157.743
150.516
143.993
138.137
132.91
128.268
124.168
120.566
117.419
114.684
112.32
110.287
108.549
107.071
105.82
104.767
103.886
103.152
102.545
102.044
101.634
101.3
101.029
100.811
100.636
100.496
100.385
100.297
100.228
100.175
100.133
100.101
100.076
100.057
100.042
100.031
100.023
100.017
100.013
100.009
100.007
100.005
100.003
100.002
100.002
100.001
100.001
100.001
100
100
100
100
100
100
100
100
100
100
391.082
373.295
355.657
338.264
321.209
304.579
288.454
272.903
257.992
243.772
230.285
217.566
205.635
194.506
184.181
174.655
165.913
157.935
150.693
144.155
138.285
133.043
128.387
124.274
120.659
117.501
114.755
112.381
110.34
108.594
107.109
105.852
104.794
103.908
103.171
102.56
102.057
101.644
101.308
101.036
100.816
100.64
100.499
100.387
100.299
100.23
100.176
100.134
100.101
100.076
100.057
100.043
100.032
100.023
100.017
100.013
100.009
100.007
100.005
100.003
100.002
100.002
100.001
100.001
100.001
100
100
100
100
100
100
100
100
100
100
391.096
373.338
355.727
338.36
321.329
304.72
288.612
273.077
258.176
243.963
230.481
217.763
205.831
194.697
184.366
174.831
166.08
158.091
150.838
144.289
138.407
133.153
128.485
124.361
120.736
117.568
114.814
112.432
110.384
108.631
107.14
105.878
104.816
103.927
103.186
102.572
102.067
101.653
101.315
101.041
100.82
100.643
100.502
100.389
100.301
100.231
100.177
100.135
100.102
100.077
100.058
100.043
100.032
100.024
100.017
100.013
100.009
100.007
100.005
100.003
100.002
100.002
100.001
100.001
100.001
100
100
100
100
100
100
100
100
100
100
391.108
373.372
355.783
338.437
321.425
304.833
288.739
273.215
258.324
244.118
230.639
217.922
205.989
194.852
184.516
174.975
166.216
158.218
150.956
144.397
138.506
133.243
128.566
124.433
120.8
117.624
114.862
112.474
110.42
108.662
107.166
105.9
104.834
103.942
103.199
102.583
102.075
101.66
101.321
101.046
100.824
100.646
100.504
100.391
100.302
100.232
100.178
100.135
100.102
100.077
100.058
100.043
100.032
100.024
100.017
100.013
100.009
100.007
100.005
100.003
100.002
100.002
100.001
100.001
100.001
100
100
100
100
100
100
100
100
100
100
391.117
373.399
355.828
338.499
321.502
304.923
288.841
273.326
258.442
244.241
230.766
218.05
206.116
194.977
184.637
175.091
166.326
158.322
151.052
144.486
138.587
133.316
128.632
124.491
120.852
117.67
114.902
112.509
110.449
108.687
107.188
105.918
104.85
103.955
103.209
102.592
102.083
101.665
101.325
101.049
100.827
100.648
100.506
100.393
100.303
100.233
100.178
100.136
100.103
100.077
100.058
100.043
100.032
100.024
100.017
100.013
100.009
100.007
100.005
100.003
100.002
100.002
100.001
100.001
100.001
100
100
100
100
100
100
100
100
100
100
391.124
373.421
355.864
338.547
321.562
304.994
288.921
273.415
258.537
244.34
230.867
218.152
206.218
195.077
184.734
175.184
166.414
158.405
151.13
144.557
138.652
133.375
128.685
124.539
120.894
117.707
114.935
112.537
110.474
108.708
107.205
105.933
104.862
103.965
103.218
102.599
102.088
101.67
101.329
101.052
100.829
100.65
100.507
100.394
100.304
100.234
100.179
100.136
100.103
100.078
100.058
100.043
100.032
100.024
100.018
100.013
100.009
100.007
100.005
100.003
100.002
100.002
100.001
100.001
100.001
100
100
100
100
100
100
100
100
100
100
391.13
373.438
355.892
338.586
321.611
305.051
288.985
273.485
258.612
244.418
230.948
218.234
206.299
195.157
184.812
175.259
166.485
158.472
151.192
144.615
138.705
133.423
128.728
124.578
120.928
117.737
114.961
112.56
110.493
108.725
107.22
105.946
104.872
103.974
103.225
102.605
102.093
101.674
101.332
101.055
100.831
100.652
100.509
100.395
100.305
100.235
100.179
100.137
100.103
100.078
100.058
100.044
100.032
100.024
100.018
100.013
100.009
100.007
100.005
100.004
100.003
100.002
100.001
100.001
100.001
100
100
100
100
100
100
100
100
100
100
391.134
373.452
355.914
338.616
321.649
305.096
289.036
273.541
258.671
244.48
231.012
218.299
206.364
195.22
184.873
175.318
166.542
158.525
151.242
144.661
138.747
133.461
128.763
124.609
120.956
117.761
114.982
112.578
110.509
108.739
107.232
105.955
104.881
103.981
103.231
102.609
102.097
101.677
101.335
101.057
100.833
100.653
100.51
100.396
100.306
100.235
100.18
100.137
100.104
100.078
100.059
100.044
100.032
100.024
100.018
100.013
100.009
100.007
100.005
100.004
100.003
100.002
100.001
100.001
100.001
100
100
100
100
100
100
100
100
100
100
391.138
373.462
355.932
338.64
321.678
305.131
289.076
273.584
258.718
244.529
231.062
218.35
206.415
195.271
184.922
175.365
166.587
158.567
151.282
144.698
138.781
133.492
128.791
124.634
120.978
117.781
114.999
112.593
110.522
108.75
107.241
105.963
104.887
103.986
103.235
102.613
102.1
101.68
101.337
101.059
100.834
100.654
100.511
100.396
100.306
100.235
100.18
100.137
100.104
100.078
100.059
100.044
100.033
100.024
100.018
100.013
100.009
100.007
100.005
100.004
100.003
100.002
100.001
100.001
100.001
100
100
100
100
100
100
100
100
100
100
391.141
373.47
355.945
338.659
321.702
305.158
289.107
273.618
258.755
244.568
231.102
218.39
206.455
195.31
184.961
175.403
166.622
158.601
151.313
144.727
138.808
133.517
128.813
124.654
120.996
117.796
115.013
112.605
110.533
108.759
107.249
105.97
104.893
103.991
103.239
102.616
102.103
101.682
101.339
101.06
100.835
100.655
100.511
100.397
100.307
100.236
100.18
100.137
100.104
100.078
100.059
100.044
100.033
100.024
100.018
100.013
100.009
100.007
100.005
100.004
100.003
100.002
100.001
100.001
100.001
100
100
100
100
100
100
100
100
100
100
391.143
373.477
355.956
338.674
321.72
305.18
289.131
273.645
258.783
244.598
231.133
218.421
206.486
195.342
184.992
175.432
166.65
158.628
151.338
144.75
138.829
133.536
128.83
124.669
121.01
117.809
115.024
112.614
110.541
108.766
107.255
105.975
104.897
103.994
103.242
102.619
102.105
101.684
101.34
101.061
100.836
100.656
100.512
100.397
100.307
100.236
100.181
100.137
100.104
100.078
100.059
100.044
100.033
100.024
100.018
100.013
100.009
100.007
100.005
100.004
100.003
100.002
100.001
100.001
100.001
100
100
100
100
100
100
100
100
100
100
391.144
373.482
355.964
338.685
321.734
305.197
289.15
273.666
258.806
244.622
231.157
218.446
206.511
195.366
185.015
175.455
166.672
158.648
151.357
144.768
138.846
133.551
128.844
124.682
121.021
117.819
115.033
112.622
110.547
108.771
107.259
105.979
104.901
103.997
103.245
102.621
102.107
101.685
101.341
101.062
100.837
100.656
100.512
100.398
100.307
100.236
100.181
100.138
100.104
100.079
100.059
100.044
100.033
100.024
100.018
100.013
100.009
100.007
100.005
100.004
100.003
100.002
100.001
100.001
100.001
100
100
100
100
100
100
100
100
100
100
391.146
373.486
355.971
338.694
321.745
305.21
289.165
273.682
258.823
244.64
231.176
218.465
206.53
195.385
185.034
175.473
166.69
158.665
151.373
144.782
138.859
133.563
128.855
124.691
121.03
117.826
115.039
112.628
110.552
108.776
107.263
105.982
104.903
104
103.246
102.622
102.108
101.686
101.342
101.063
100.838
100.657
100.513
100.398
100.308
100.236
100.181
100.138
100.104
100.079
100.059
100.044
100.033
100.024
100.018
100.013
100.009
100.007
100.005
100.004
100.003
100.002
100.001
100.001
100.001
100
100
100
100
100
100
100
100
100
100
391.147
373.489
355.975
338.7
321.754
305.22
289.177
273.695
258.836
244.654
231.191
218.48
206.545
195.4
185.048
175.487
166.703
158.677
151.384
144.793
138.869
133.573
128.863
124.699
121.036
117.832
115.045
112.633
110.556
108.779
107.266
105.985
104.906
104.001
103.248
102.624
102.109
101.687
101.343
101.063
100.838
100.657
100.513
100.398
100.308
100.237
100.181
100.138
100.104
100.079
100.059
100.044
100.033
100.024
100.018
100.013
100.009
100.007
100.005
100.004
100.003
100.002
100.001
100.001
100.001
100
100
100
100
100
100
100
100
100
100
391.148
373.491
355.979
338.706
321.76
305.227
289.185
273.704
258.847
244.665
231.202
218.491
206.557
195.411
185.059
175.498
166.713
158.687
151.394
144.802
138.877
133.58
128.87
124.705
121.042
117.837
115.049
112.636
110.56
108.782
107.268
105.987
104.907
104.003
103.249
102.625
102.11
101.687
101.343
101.064
100.838
100.658
100.513
100.398
100.308
100.237
100.181
100.138
100.104
100.079
100.059
100.044
100.033
100.024
100.018
100.013
100.009
100.007
100.005
100.004
100.003
100.002
100.001
100.001
100.001
100
100
100
100
100
100
100
100
100
100
391.148
373.493
355.982
338.71
321.765
305.233
289.192
273.712
258.855
244.673
231.211
218.5
206.565
195.42
185.068
175.506
166.721
158.695
151.401
144.809
138.883
133.585
128.875
124.71
121.046
117.841
115.052
112.639
110.562
108.784
107.27
105.988
104.909
104.004
103.25
102.625
102.11
101.688
101.344
101.064
100.839
100.658
100.513
100.399
100.308
100.237
100.181
100.138
100.104
100.079
100.059
100.044
100.033
100.024
100.018
100.013
100.009
100.007
100.005
100.004
100.003
100.002
100.001
100.001
100.001
100
100
100
100
100
100
100
100
100
100
391.149
373.494
355.984
338.713
321.769
305.238
289.197
273.717
258.861
244.679
231.217
218.507
206.572
195.426
185.075
175.512
166.727
158.7
151.406
144.814
138.888
133.59
128.879
124.713
121.049
117.844
115.055
112.641
110.564
108.786
107.272
105.99
104.91
104.005
103.251
102.626
102.111
101.688
101.344
101.064
100.839
100.658
100.513
100.399
100.308
100.237
100.181
100.138
100.104
100.079
100.059
100.044
100.033
100.024
100.018
100.013
100.009
100.007
100.005
100.004
100.003
100.002
100.001
100.001
100.001
100
100
100
100
100
100
100
100
100
100
391.149
373.495
355.986
338.715
321.772
305.241
289.201
273.722
258.865
244.684
231.222
218.512
206.577
195.431
185.08
175.517
166.732
158.705
151.41
144.818
138.891
133.593
128.882
124.716
121.051
117.846
115.057
112.643
110.565
108.787
107.273
105.99
104.91
104.005
103.251
102.626
102.111
101.689
101.344
101.065
100.839
100.658
100.514
100.399
100.308
100.237
100.181
100.138
100.105
100.079
100.059
100.044
100.033
100.024
100.018
100.013
100.009
100.007
100.005
100.004
100.003
100.002
100.001
100.001
100.001
100
100
100
100
100
100
100
100
100
100
391.149
373.496
355.987
338.717
321.774
305.244
289.204
273.725
258.869
244.688
231.226
218.516
206.581
195.435
185.083
175.521
166.735
158.708
151.414
144.82
138.894
133.596
128.884
124.718
121.053
117.847
115.058
112.644
110.567
108.788
107.274
105.991
104.911
104.006
103.252
102.627
102.111
101.689
101.344
101.065
100.839
100.658
100.514
100.399
100.308
100.237
100.181
100.138
100.105
100.079
100.059
100.044
100.033
100.024
100.018
100.013
100.009
100.007
100.005
100.004
100.003
100.002
100.001
100.001
100.001
100
100
100
100
100
100
100
100
100
100
391.149
373.497
355.988
338.718
321.776
305.246
289.206
273.727
258.871
244.691
231.229
218.519
206.584
195.438
185.086
175.523
166.738
158.711
151.416
144.823
138.896
133.597
128.886
124.719
121.055
117.849
115.059
112.645
110.567
108.789
107.274
105.992
104.911
104.006
103.252
102.627
102.112
101.689
101.344
101.065
100.839
100.658
100.514
100.399
100.308
100.237
100.181
100.138
100.105
100.079
100.059
100.044
100.033
100.024
100.018
100.013
100.009
100.007
100.005
100.004
100.003
100.002
100.001
100.001
100.001
100
100
100
100
100
100
100
100
100
100
391.15
373.497
355.989
338.719
321.777
305.247
289.208
273.729
258.873
244.693
231.231
218.521
206.586
195.44
185.088
175.526
166.74
158.713
151.418
144.824
138.898
133.599
128.887
124.721
121.056
117.85
115.06
112.646
110.568
108.789
107.275
105.992
104.912
104.007
103.252
102.627
102.112
101.689
101.345
101.065
100.839
100.658
100.514
100.399
100.308
100.237
100.181
100.138
100.105
100.079
100.059
100.044
100.033
100.024
100.018
100.013
100.009
100.007
100.005
100.004
100.003
100.002
100.001
100.001
100.001
100
100
100
100
100
100
100
100
100
100
391.15
373.497
355.989
338.72
321.778
305.248
289.209
273.73
258.875
244.694
231.232
218.523
206.588
195.442
185.09
175.527
166.742
158.714
151.419
144.826
138.899
133.6
128.888
124.722
121.057
117.85
115.061
112.646
110.569
108.79
107.275
105.992
104.912
104.007
103.253
102.627
102.112
101.689
101.345
101.065
100.839
100.658
100.514
100.399
100.308
100.237
100.181
100.138
100.105
100.079
100.059
100.044
100.033
100.024
100.018
100.013
100.009
100.007
100.005
100.004
100.003
100.002
100.001
100.001
100.001
100
100
100
100
100
100
100
100
100
100
391.15
373.498
355.99
338.72
321.778
305.249
289.21
273.731
258.876
244.695
231.234
218.524
206.589
195.443
185.091
175.528
166.743
158.715
151.42
144.827
138.9
133.601
128.889
124.722
121.057
117.851
115.061
112.647
110.569
108.79
107.275
105.993
104.912
104.007
103.253
102.627
102.112
101.689
101.345
101.065
100.839
100.658
100.514
100.399
100.308
100.237
100.181
100.138
100.105
100.079
100.059
100.044
100.033
100.024
100.018
100.013
100.009
100.007
100.005
100.004
100.003
100.002
100.001
100.001
100.001
100
100
100
100
100
100
100
100
100
100
391.15
373.498
355.99
338.721
321.779
305.249
289.21
273.732
258.876
244.696
231.235
218.525
206.59
195.444
185.092
175.529
166.744
158.716
151.421
144.827
138.9
133.601
128.89
124.723
121.058
117.851
115.061
112.647
110.569
108.79
107.276
105.993
104.912
104.007
103.253
102.628
102.112
101.689
101.345
101.065
100.84
100.658
100.514
100.399
100.308
100.237
100.181
100.138
100.105
100.079
100.059
100.044
100.033
100.024
100.018
100.013
100.009
100.007
100.005
100.004
100.003
100.002
100.001
100.001
100.001
100
100
100
100
100
100
100
100
100
100
391.15
373.498
355.99
338.721
321.779
305.25
289.211
273.733
258.877
244.697
231.235
218.525
206.591
195.445
185.093
175.53
166.744
158.717
151.421
144.828
138.901
133.602
128.89
124.723
121.058
117.852
115.062
112.647
110.569
108.79
107.276
105.993
104.912
104.007
103.253
102.628
102.112
101.69
101.345
101.065
100.84
100.658
100.514
100.399
100.308
100.237
100.181
100.138
100.105
100.079
100.059
100.044
100.033
100.024
100.018
100.013
100.009
100.007
100.005
100.004
100.003
100.002
100.001
100.001
100.001
100
100
100
100
100
100
100
100
100
100
391.15
373.498
355.991
338.721
321.779
305.25
289.211
273.733
258.878
244.697
231.236
218.526
206.591
195.445
185.093
175.53
166.745
158.717
151.422
144.828
138.901
133.602
128.89
124.723
121.058
117.852
115.062
112.648
110.57
108.791
107.276
105.993
104.913
104.007
103.253
102.628
102.112
101.69
101.345
101.065
100.84
100.658
100.514
100.399
100.308
100.237
100.181
100.138
100.105
100.079
100.059
100.044
100.033
100.024
100.018
100.013
100.009
100.007
100.005
100.004
100.003
100.002
100.001
100.001
100.001
100
100
100
100
100
100
100
100
100
100
391.15
373.498
355.991
338.721
321.78
305.25
289.212
273.733
258.878
244.698
231.236
218.526
206.591
195.446
185.093
175.531
166.745
158.717
151.422
144.828
138.901
133.602
128.891
124.724
121.058
117.852
115.062
112.648
110.57
108.791
107.276
105.993
104.913
104.007
103.253
102.628
102.112
101.69
101.345
101.065
100.84
100.658
100.514
100.399
100.308
100.237
100.181
100.138
100.105
100.079
100.059
100.044
100.033
100.024
100.018
100.013
100.009
100.007
100.005
100.004
100.003
100.002
100.001
100.001
100.001
100
100
100
100
100
100
100
100
100
100
391.15
373.498
355.991
338.721
321.78
305.251
289.212
273.734
258.878
244.698
231.236
218.526
206.592
195.446
185.094
175.531
166.745
158.718