/*--------------------------------*- C++ -*----------------------------------*\
  =========                 |
  \\      /  F ield         | OpenFOAM: The Open Source CFD Toolbox
   \\    /   O peration     | Website:  https://openfoam.org
    \\  /    A nd           | Version:  10
     \\/     M anipulation  |
\*---------------------------------------------------------------------------*/
FoamFile
{
    format      ascii;
    class       volScalarField;
    location    "446";
    object      gradTz;
}
// * * * * * * * * * * * * * * * * * * * * * * * * * * * * * * * * * * * * * //

dimensions      [0 -1 0 1 0 0 0];

internalField   nonuniform List<scalar> 
11250
(
-14341.8
-4137.42
-1517.46
-714.376
-410.266
-269.348
-192.746
-146.055
-115.182
-93.5005
-77.5473
-65.3603
-55.7591
-47.9995
-41.5937
-36.2122
-31.6261
-27.6731
-24.2348
-21.2239
-18.5741
-16.2343
-14.164
-12.3307
-10.7075
-9.27155
-8.0034
-6.88589
-5.90375
-5.04323
-4.29183
-3.63813
-3.07164
-2.58273
-2.16259
-1.8031
-1.49691
-1.23731
-1.01823
-0.834224
-0.680413
-0.552463
-0.446542
-0.359286
-0.287758
-0.229413
-0.182055
-0.143806
-0.113068
-0.0884868
-0.068928
-0.0534425
-0.041243
-0.0316798
-0.0242205
-0.018431
-0.0139599
-0.010524
-0.00789668
-0.0058976
-0.00438403
-0.00324373
-0.00238887
-0.0017512
-0.0012779
-0.000928411
-0.000671713
-0.000484257
-0.000348282
-0.000250496
-0.000181053
-0.000132766
-0.000100514
-8.08047e-05
-7.14678e-05
-8229.51
-4827.7
-2735.35
-1643.99
-1067.45
-743.586
-548.199
-422.235
-336.257
-274.696
-228.815
-193.452
-165.409
-142.634
-123.762
-107.86
-94.2778
-82.548
-72.3307
-63.3724
-55.4808
-48.5066
-42.3319
-36.8608
-32.0144
-27.7256
-23.9367
-20.597
-17.6611
-15.0883
-12.8413
-10.8863
-9.19178
-7.72921
-6.4722
-5.39661
-4.48039
-3.70352
-3.04788
-2.49718
-2.03682
-1.65385
-1.3368
-1.07561
-0.861491
-0.68683
-0.545058
-0.430552
-0.338526
-0.264935
-0.206378
-0.160015
-0.123489
-0.094856
-0.072522
-0.0551876
-0.0418002
-0.0315124
-0.0236455
-0.0176597
-0.0131276
-0.00971312
-0.00715337
-0.00524391
-0.00382667
-0.00278014
-0.00201146
-0.00145013
-0.00104295
-0.000750131
-0.00054218
-0.000397583
-0.000301003
-0.000241981
-0.000214022
-5518.52
-4208.01
-2951.75
-2058.27
-1471.53
-1088.92
-833.851
-658.096
-532.633
-439.975
-369.384
-314.091
-269.713
-233.336
-202.975
-177.248
-155.174
-136.042
-119.328
-104.639
-91.6745
-80.199
-70.0255
-61.0018
-53.001
-45.9155
-39.6519
-34.1278
-29.2695
-25.0103
-21.2893
-18.0507
-15.2431
-12.8192
-10.7355
-8.95226
-7.43302
-6.14467
-5.05724
-4.14374
-3.38004
-2.74466
-2.21861
-1.78521
-1.4299
-1.14004
-0.904754
-0.714707
-0.561964
-0.439813
-0.342613
-0.265652
-0.205018
-0.157485
-0.120407
-0.091629
-0.069403
-0.0523225
-0.0392612
-0.0293228
-0.0217979
-0.0161285
-0.0118782
-0.00870767
-0.00635438
-0.00461661
-0.00334021
-0.0024081
-0.00173195
-0.0012457
-0.000900376
-0.000660257
-0.000499874
-0.00040186
-0.000355431
-4117.15
-3533.18
-2804.54
-2165.01
-1670.7
-1306.03
-1039.56
-843.112
-695.731
-582.8
-494.352
-423.599
-365.884
-317.971
-277.579
-243.079
-213.288
-187.334
-164.566
-144.489
-126.719
-110.954
-96.9508
-84.5109
-73.4668
-63.6752
-55.0114
-47.3644
-40.6345
-34.7311
-29.5711
-25.0781
-21.1815
-17.8164
-14.9228
-12.4458
-10.335
-8.54466
-7.03324
-5.76337
-4.70159
-3.81809
-3.08653
-2.48376
-1.98954
-1.58633
-1.25901
-0.994598
-0.782076
-0.612108
-0.47685
-0.369749
-0.285365
-0.219211
-0.167607
-0.127551
-0.0966145
-0.072839
-0.0546576
-0.0408227
-0.0303473
-0.0224548
-0.0165377
-0.0121237
-0.00884737
-0.00642794
-0.00465083
-0.00335303
-0.0024116
-0.00173456
-0.00125374
-0.000919395
-0.000696075
-0.000559599
-0.000494949
-3298.53
-3001.79
-2567.04
-2125.42
-1739.16
-1423.98
-1174.36
-978.292
-823.72
-700.602
-601.204
-519.769
-452.07
-395.013
-346.327
-304.336
-267.788
-235.744
-207.486
-182.46
-160.231
-140.454
-122.845
-107.169
-93.2292
-80.8527
-69.8885
-60.2013
-51.6684
-44.1779
-37.6263
-31.9184
-26.9659
-22.6869
-19.0062
-15.8543
-13.1677
-10.8883
-8.96354
-7.34608
-5.99341
-4.86768
-3.9354
-3.16714
-2.53715
-2.02312
-1.60578
-1.26863
-0.997616
-0.780851
-0.608338
-0.471728
-0.364089
-0.279698
-0.213863
-0.162759
-0.123288
-0.0929515
-0.0697521
-0.0520981
-0.0387305
-0.0286586
-0.0211073
-0.015474
-0.0112926
-0.00820465
-0.00593646
-0.00428
-0.00307838
-0.00221418
-0.00160044
-0.00117366
-0.0008886
-0.000714388
-0.000631864
-2775.07
-2606.88
-2334.92
-2029.01
-1735.22
-1475.14
-1254.48
-1070.99
-919.414
-793.992
-689.555
-601.817
-527.378
-463.593
-408.427
-360.32
-318.072
-280.755
-247.647
-218.18
-191.898
-168.434
-147.483
-128.788
-112.13
-97.3149
-84.1716
-72.5448
-62.2929
-53.2851
-45.4004
-38.5264
-32.5585
-27.3997
-22.9601
-19.1568
-15.9138
-13.1614
-10.8367
-8.88262
-7.24804
-5.88742
-4.76041
-3.83151
-3.06969
-2.448
-1.94318
-1.53532
-1.20742
-0.945136
-0.736377
-0.57105
-0.440773
-0.338626
-0.258934
-0.19707
-0.149284
-0.112556
-0.0844672
-0.0630913
-0.0469048
-0.0347083
-0.0255638
-0.0187417
-0.0136776
-0.00993783
-0.00719069
-0.00518439
-0.00372895
-0.00268219
-0.00193877
-0.00142181
-0.0010765
-0.000865467
-0.0007655
-2417.89
-2313.86
-2134.93
-1918.75
-1695.92
-1485.36
-1296.08
-1130.6
-987.929
-865.561
-760.554
-670.101
-591.748
-523.444
-463.524
-410.655
-363.771
-322.026
-284.743
-251.376
-221.48
-194.687
-170.687
-149.215
-130.038
-112.95
-97.7658
-84.3149
-72.4403
-61.996
-52.8458
-44.8623
-37.9264
-31.9272
-26.7617
-22.3345
-18.5579
-15.3516
-12.6425
-10.3646
-8.45875
-6.87189
-5.55721
-4.47341
-3.58438
-2.85877
-2.26948
-1.7933
-1.41043
-1.10414
-0.860326
-0.66722
-0.515038
-0.395705
-0.302599
-0.230315
-0.174478
-0.131558
-0.0987317
-0.0737493
-0.0548307
-0.0405749
-0.0298859
-0.0219112
-0.0159913
-0.0116192
-0.00840758
-0.00606194
-0.00436027
-0.00313638
-0.00226714
-0.00166267
-0.0012589
-0.00101213
-0.000895238
-2162.52
-2093.53
-1970.05
-1813.11
-1642.44
-1472.55
-1312.29
-1165.99
-1034.95
-918.787
-816.236
-725.741
-645.734
-574.782
-511.637
-455.247
-404.736
-359.384
-318.595
-281.877
-248.817
-219.067
-192.327
-168.333
-146.852
-127.67
-110.595
-95.4465
-82.0552
-70.2635
-59.9226
-50.8924
-43.0413
-36.246
-30.3916
-25.3713
-21.0868
-17.4478
-14.372
-11.7849
-9.61961
-7.81632
-6.32195
-5.08975
-4.07879
-3.25349
-2.58314
-2.04136
-1.6057
-1.25712
-0.979614
-0.759795
-0.586544
-0.450677
-0.344659
-0.262346
-0.198755
-0.149872
-0.112482
-0.0840245
-0.0624731
-0.0462324
-0.0340545
-0.0249685
-0.0182233
-0.0132415
-0.00958178
-0.00690879
-0.00496957
-0.00357477
-0.00258411
-0.00189519
-0.001435
-0.00115375
-0.00102052
-1973.59
-1925.19
-1836.2
-1718.89
-1585.99
-1448.11
-1312.74
-1184.51
-1065.75
-957.28
-858.99
-770.269
-690.287
-618.167
-553.069
-494.237
-441.006
-392.804
-349.143
-309.603
-273.823
-241.488
-212.319
-186.066
-162.501
-141.413
-122.604
-105.89
-91.0948
-78.0506
-66.5992
-56.5899
-47.8805
-40.3369
-33.8336
-28.2538
-23.4893
-19.4408
-16.0176
-13.1372
-10.7256
-8.71666
-7.05138
-5.67792
-4.55081
-3.63051
-2.88284
-2.27848
-1.79241
-1.40345
-1.09375
-0.848394
-0.654996
-0.503313
-0.384943
-0.293029
-0.222016
-0.167423
-0.125662
-0.0938753
-0.069801
-0.051658
-0.0380528
-0.0279013
-0.0203647
-0.0147981
-0.0107086
-0.00772157
-0.00555441
-0.00399561
-0.00288844
-0.00211846
-0.00160411
-0.00128975
-0.00114084
-1830.22
-1794.62
-1727.94
-1637.65
-1532.09
-1418.89
-1304.04
-1191.77
-1084.73
-984.343
-891.203
-805.359
-726.552
-654.364
-588.319
-527.937
-472.764
-422.386
-376.429
-334.56
-296.479
-261.917
-230.624
-202.372
-176.944
-154.137
-133.756
-115.613
-99.5291
-85.331
-72.8525
-61.9348
-52.4268
-44.1852
-37.0754
-30.9715
-25.7568
-21.3235
-17.5733
-14.4166
-11.7728
-9.56962
-7.74284
-6.23577
-4.99873
-3.98844
-3.1675
-2.50379
-1.9699
-1.54259
-1.20231
-0.932697
-0.720149
-0.553426
-0.423305
-0.322257
-0.244178
-0.184148
-0.138224
-0.103266
-0.0767883
-0.0568323
-0.0418666
-0.0306992
-0.0224079
-0.0162836
-0.0117841
-0.0084974
-0.00611275
-0.00439743
-0.00317904
-0.00233169
-0.00176563
-0.00141967
-0.00125578
-1719.3
-1692.05
-1640.31
-1568.81
-1483.16
-1388.84
-1290.53
-1191.85
-1095.37
-1002.78
-915.046
-832.646
-755.729
-684.239
-617.998
-556.772
-500.299
-448.318
-400.573
-356.819
-316.825
-280.37
-247.243
-217.241
-190.167
-165.826
-144.031
-124.596
-107.341
-92.0881
-78.6676
-66.9139
-56.6685
-47.7808
-40.1082
-33.517
-27.8828
-23.0905
-19.0347
-15.6195
-12.758
-10.3727
-8.39428
-6.76166
-5.42122
-4.32623
-3.43627
-2.71662
-2.13761
-1.67413
-1.30498
-1.01245
-0.781805
-0.600864
-0.45963
-0.349939
-0.265174
-0.199997
-0.150131
-0.11217
-0.0834139
-0.0617397
-0.0454843
-0.0333537
-0.0243467
-0.0176934
-0.0128049
-0.00923394
-0.00664288
-0.00477901
-0.00345504
-0.00253423
-0.00191908
-0.00154311
-0.001365
-1632.22
-1610.61
-1569.16
-1511
-1439.98
-1360.09
-1274.95
-1187.57
-1100.31
-1014.86
-932.385
-853.612
-778.971
-708.667
-642.762
-581.225
-523.964
-470.856
-421.755
-376.505
-334.944
-296.903
-262.211
-230.695
-202.179
-176.483
-153.429
-132.835
-114.523
-98.3155
-84.0377
-71.5203
-60.5993
-51.1178
-42.9267
-35.8856
-29.8633
-24.7383
-20.3989
-16.7433
-13.6793
-11.1242
-9.00429
-7.25442
-5.81733
-4.6431
-3.68853
-2.91647
-2.29518
-1.79775
-1.40151
-1.08747
-0.839818
-0.645515
-0.493831
-0.376011
-0.284954
-0.214932
-0.161354
-0.120563
-0.0896618
-0.0663683
-0.0488971
-0.0358584
-0.0261765
-0.0190241
-0.0137686
-0.00992938
-0.00714351
-0.0051394
-0.00371576
-0.00272558
-0.00206408
-0.00165976
-0.00146822
-1563.07
-1545.39
-1511.22
-1462.69
-1402.53
-1333.69
-1258.98
-1180.89
-1101.47
-1022.36
-944.76
-869.548
-797.325
-728.484
-663.266
-601.803
-544.145
-490.291
-440.194
-393.781
-350.956
-311.602
-275.591
-242.778
-213.012
-186.129
-161.963
-140.339
-121.082
-104.015
-88.9631
-75.7533
-64.2177
-54.1945
-45.5292
-38.0755
-31.6967
-26.2654
-21.6644
-17.7868
-14.5354
-11.8231
-9.57206
-7.71338
-6.1865
-4.9386
-3.92391
-3.10304
-2.44234
-1.91328
-1.49175
-1.15762
-0.894094
-0.687303
-0.52585
-0.400428
-0.303484
-0.228927
-0.171874
-0.128433
-0.0955208
-0.0707099
-0.0520991
-0.0382087
-0.0278938
-0.0202733
-0.0146735
-0.0105825
-0.00761372
-0.00547796
-0.00396072
-0.0029054
-0.00220036
-0.00176942
-0.00156526
-1507.68
-1492.8
-1463.88
-1422.42
-1370.41
-1310.07
-1243.6
-1173.06
-1100.23
-1026.61
-953.405
-881.535
-811.711
-744.452
-680.131
-619.004
-561.238
-506.933
-456.132
-408.835
-365.006
-324.579
-287.465
-253.553
-222.712
-194.799
-169.658
-147.125
-127.03
-109.197
-93.4506
-79.6177
-67.527
-57.013
-47.9168
-40.0874
-33.3831
-27.6717
-22.8311
-18.7497
-15.3262
-12.4692
-10.0974
-8.1383
-6.52853
-5.21255
-4.14225
-3.2762
-2.57901
-2.0206
-1.57563
-1.22286
-0.944585
-0.726192
-0.555659
-0.423166
-0.320746
-0.241968
-0.181679
-0.13577
-0.100985
-0.0747599
-0.0550867
-0.0404023
-0.0294969
-0.0214396
-0.0155185
-0.0111924
-0.00805298
-0.00579428
-0.00418964
-0.00307348
-0.00232776
-0.00187194
-0.00165599
-1463
-1450.16
-1425.09
-1388.9
-1343.06
-1289.29
-1229.34
-1164.91
-1097.56
-1028.64
-959.287
-890.458
-822.911
-757.244
-693.922
-633.297
-575.627
-521.096
-469.821
-421.866
-377.252
-335.959
-297.934
-263.096
-231.339
-202.539
-176.552
-153.223
-132.388
-113.876
-97.5127
-83.1228
-70.5343
-59.5786
-50.0935
-41.9242
-34.9248
-28.9588
-23.9001
-19.633
-16.0522
-13.063
-10.5805
-8.5294
-6.84356
-5.46504
-4.34361
-3.43599
-2.70518
-2.11975
-1.65316
-1.28318
-0.991289
-0.76218
-0.583254
-0.444223
-0.336737
-0.254053
-0.190769
-0.142574
-0.106053
-0.0785172
-0.057859
-0.0424382
-0.0309852
-0.0225226
-0.0163033
-0.0117591
-0.00846112
-0.00608825
-0.00440241
-0.00322973
-0.00244622
-0.00196728
-0.00174038
-1426.77
-1415.45
-1393.26
-1361.03
-1319.9
-1271.23
-1216.44
-1156.96
-1094.12
-1029.16
-963.151
-897.03
-831.576
-767.438
-705.143
-645.112
-587.675
-533.079
-481.507
-433.078
-387.86
-345.874
-307.103
-271.494
-238.964
-209.405
-182.688
-158.667
-137.186
-118.076
-101.166
-86.2822
-73.25
-61.8995
-52.0658
-43.591
-36.3256
-30.1298
-24.8738
-20.4383
-16.7148
-13.6054
-11.0221
-8.88726
-7.13203
-5.6964
-4.52824
-3.58259
-2.82101
-2.21081
-1.7244
-1.33863
-1.03425
-0.795295
-0.608656
-0.463615
-0.351468
-0.26519
-0.199148
-0.148847
-0.110728
-0.0819839
-0.0604176
-0.0443177
-0.0323594
-0.0235229
-0.0170283
-0.0122826
-0.0088383
-0.00635998
-0.00459913
-0.00337422
-0.00255578
-0.00205548
-0.00181846
-1397.29
-1387.11
-1367.08
-1337.87
-1300.38
-1255.69
-1204.99
-1149.48
-1090.36
-1028.71
-965.564
-901.812
-838.242
-775.527
-714.234
-654.835
-597.712
-543.167
-491.431
-442.67
-396.995
-354.463
-315.087
-278.84
-245.661
-215.457
-188.115
-163.497
-141.454
-121.822
-104.433
-89.1124
-75.6874
-63.9863
-53.8419
-45.0942
-37.5907
-31.1887
-25.7553
-21.1682
-17.316
-14.0979
-11.4236
-9.2128
-7.39465
-5.90719
-4.69656
-3.71633
-2.92674
-2.29398
-1.78949
-1.38933
-1.07354
-0.825598
-0.631912
-0.481375
-0.364964
-0.275397
-0.20683
-0.154601
-0.115016
-0.085165
-0.0627661
-0.0460433
-0.0336214
-0.0244417
-0.0176944
-0.0127638
-0.009185
-0.0066098
-0.00478003
-0.00350711
-0.00265657
-0.00213663
-0.0018903
-1373.23
-1363.91
-1345.53
-1318.64
-1283.96
-1242.4
-1194.94
-1142.65
-1086.56
-1027.68
-966.951
-905.247
-843.341
-781.918
-721.57
-662.803
-606.038
-551.618
-499.815
-450.835
-404.82
-361.862
-321.999
-285.228
-251.508
-220.762
-192.886
-167.757
-145.228
-125.143
-107.335
-91.6325
-77.862
-65.8512
-55.432
-46.4419
-38.7266
-32.1406
-26.5487
-21.8259
-17.8583
-14.5426
-11.7864
-9.50724
-7.63237
-6.09812
-4.84914
-3.83764
-3.0227
-2.36951
-1.84864
-1.43543
-1.10928
-0.853173
-0.653083
-0.497549
-0.377261
-0.2847
-0.213834
-0.159848
-0.118929
-0.0880682
-0.0649101
-0.0476191
-0.0347741
-0.0252811
-0.0183031
-0.0132036
-0.00950198
-0.00683826
-0.00494549
-0.00362869
-0.0027488
-0.00221091
-0.00195606
-1353.56
-1344.89
-1327.79
-1302.69
-1270.2
-1231.1
-1186.23
-1136.52
-1082.91
-1026.31
-967.626
-907.674
-847.22
-786.95
-727.47
-669.309
-612.917
-558.668
-506.867
-457.749
-411.488
-368.201
-327.95
-290.753
-256.584
-225.383
-197.058
-171.491
-148.546
-128.069
-109.899
-93.8632
-79.7906
-67.5082
-56.847
-47.6431
-39.7404
-32.9914
-27.2587
-22.4151
-18.3446
-14.9419
-12.1124
-9.77203
-7.84632
-6.27011
-4.98667
-3.94706
-3.10931
-2.43772
-1.90209
-1.4771
-1.14161
-0.878127
-0.67225
-0.512199
-0.388403
-0.293133
-0.220185
-0.164608
-0.122479
-0.0907035
-0.0668567
-0.0490502
-0.0358213
-0.0260439
-0.0188564
-0.0136034
-0.00979024
-0.00704606
-0.00509603
-0.00373934
-0.00283275
-0.00227853
-0.00201594
-1337.45
-1329.29
-1313.18
-1289.47
-1258.7
-1221.54
-1178.73
-1131.11
-1079.51
-1024.81
-967.822
-909.357
-850.155
-790.897
-732.199
-674.603
-618.579
-564.526
-512.772
-463.578
-417.143
-373.605
-333.048
-295.505
-260.968
-229.388
-200.684
-174.747
-151.446
-130.634
-112.15
-95.8265
-81.4912
-68.972
-58.099
-48.7076
-40.6401
-33.7474
-27.8903
-22.9399
-18.7782
-15.2982
-12.4037
-10.0088
-8.0378
-6.42414
-5.10994
-4.0452
-3.18705
-2.49897
-1.95012
-1.51456
-1.17069
-0.900585
-0.689508
-0.525396
-0.398444
-0.300736
-0.225913
-0.168903
-0.125683
-0.0930826
-0.0686147
-0.050343
-0.0367675
-0.0267334
-0.0193566
-0.013965
-0.010051
-0.00723406
-0.00523226
-0.00383949
-0.00290876
-0.00233976
-0.00207017
-1324.25
-1316.49
-1301.14
-1278.53
-1249.11
-1213.48
-1172.32
-1126.38
-1076.43
-1023.27
-967.706
-910.493
-852.361
-793.985
-735.979
-678.897
-623.223
-569.373
-517.696
-468.471
-421.917
-378.19
-337.392
-299.572
-264.733
-232.839
-203.819
-177.57
-153.968
-132.869
-114.117
-97.5446
-82.9823
-70.2577
-59.2006
-49.6456
-41.434
-34.4154
-28.4492
-23.4048
-19.1627
-15.6145
-12.6624
-10.2194
-8.20821
-6.56133
-5.21981
-4.13274
-3.25643
-2.55368
-1.99304
-1.54806
-1.1967
-0.920687
-0.704963
-0.537218
-0.407444
-0.307552
-0.231051
-0.172757
-0.12856
-0.0952189
-0.0701937
-0.0515046
-0.037618
-0.0273532
-0.0198064
-0.0142903
-0.0102856
-0.00740326
-0.00535489
-0.00392966
-0.00297721
-0.00239492
-0.00211903
-1313.44
-1305.99
-1291.24
-1269.48
-1241.14
-1206.73
-1166.88
-1122.29
-1073.67
-1021.79
-967.398
-911.235
-854.011
-796.391
-738.992
-682.371
-627.021
-573.372
-521.786
-472.56
-425.928
-382.062
-341.077
-303.035
-267.951
-235.799
-206.515
-180.004
-156.147
-134.806
-115.824
-99.0399
-84.2825
-71.3807
-60.1643
-50.4675
-42.1306
-35.0024
-28.9408
-23.8142
-19.5017
-15.8936
-12.891
-10.4055
-8.35902
-6.68285
-5.3172
-4.21038
-3.31801
-2.60227
-2.03118
-1.57785
-1.21985
-0.93858
-0.718726
-0.547753
-0.415466
-0.313631
-0.235634
-0.176196
-0.131128
-0.0971269
-0.0716045
-0.0525427
-0.0383783
-0.0279075
-0.0202088
-0.0145813
-0.0104955
-0.00755472
-0.0054647
-0.00401043
-0.00303854
-0.00244435
-0.00216281
-1304.59
-1297.38
-1283.1
-1262.02
-1234.52
-1201.08
-1162.28
-1118.78
-1071.24
-1020.4
-966.983
-911.695
-855.235
-798.262
-741.387
-685.172
-630.116
-576.658
-525.171
-475.965
-429.285
-385.317
-344.187
-305.969
-270.687
-238.323
-208.821
-182.092
-158.022
-136.475
-117.3
-100.334
-85.41
-72.3562
-61.0029
-51.1837
-42.7385
-35.5152
-29.3709
-24.1727
-19.799
-16.1387
-13.0919
-10.5693
-8.49176
-6.78989
-5.40306
-4.27888
-3.37238
-2.6452
-2.06489
-1.60419
-1.24033
-0.954422
-0.730918
-0.557088
-0.422579
-0.319024
-0.239702
-0.179249
-0.133408
-0.0988218
-0.0728581
-0.0534655
-0.0390543
-0.0284005
-0.0205668
-0.0148403
-0.0106824
-0.00768959
-0.0055625
-0.00408238
-0.00309319
-0.0024884
-0.00220184
-1297.35
-1290.33
-1276.42
-1255.87
-1229.04
-1196.37
-1158.42
-1115.79
-1069.13
-1019.14
-966.518
-911.956
-856.137
-799.711
-743.287
-687.425
-632.631
-579.349
-527.962
-478.788
-432.083
-388.042
-346.802
-308.444
-273.003
-240.466
-210.785
-183.875
-159.626
-137.907
-118.568
-101.449
-86.3825
-73.1991
-61.7285
-51.8044
-43.2661
-35.9609
-29.7451
-24.4851
-20.0582
-16.3526
-13.2674
-10.7124
-8.60796
-6.88366
-5.47833
-4.33898
-3.42011
-2.68291
-2.09453
-1.62737
-1.25836
-0.968373
-0.74166
-0.565317
-0.428851
-0.323781
-0.243292
-0.181944
-0.135422
-0.100319
-0.0739662
-0.0542814
-0.0396523
-0.0288367
-0.0208836
-0.0150695
-0.0108479
-0.00780905
-0.00564915
-0.00414615
-0.00314163
-0.00252747
-0.00223646
-1291.43
-1284.56
-1270.95
-1250.82
-1224.52
-1192.47
-1155.19
-1113.26
-1067.31
-1018.02
-966.044
-912.082
-856.796
-800.83
-744.789
-689.233
-634.67
-581.547
-530.256
-481.12
-434.405
-390.313
-348.989
-310.523
-274.953
-242.277
-212.448
-185.388
-160.991
-139.128
-119.651
-102.403
-87.2169
-73.9235
-62.3532
-52.3395
-43.7216
-36.3462
-30.069
-24.7558
-20.283
-16.5383
-13.4199
-10.837
-8.70911
-6.96536
-5.54396
-4.39142
-3.46179
-2.71586
-2.12045
-1.64764
-1.27414
-0.980591
-0.751072
-0.572531
-0.434353
-0.327955
-0.246443
-0.184312
-0.137192
-0.101636
-0.0749405
-0.054999
-0.0401784
-0.0292206
-0.0211625
-0.0152714
-0.0109937
-0.00791431
-0.00572552
-0.00420237
-0.00318435
-0.00256192
-0.00226699
-1286.6
-1279.85
-1266.47
-1246.68
-1220.79
-1189.23
-1152.49
-1111.13
-1065.76
-1017.02
-965.586
-912.117
-857.274
-801.693
-745.975
-690.68
-636.316
-583.337
-532.134
-483.04
-436.326
-392.199
-350.812
-312.26
-276.589
-243.799
-213.85
-186.668
-162.148
-140.164
-120.573
-103.216
-87.9291
-74.5428
-62.888
-52.7983
-44.1126
-36.6773
-30.3477
-24.989
-20.477
-16.6986
-13.5517
-10.9448
-8.79671
-7.03617
-5.60089
-4.43694
-3.49799
-2.7445
-2.14298
-1.66528
-1.28787
-0.991235
-0.759276
-0.578822
-0.439152
-0.331598
-0.249195
-0.18638
-0.138738
-0.102786
-0.0757926
-0.0556269
-0.0406388
-0.0295567
-0.0214068
-0.0154483
-0.0111214
-0.00800656
-0.00579248
-0.00425167
-0.00322183
-0.00259215
-0.00229378
-1282.66
-1276.01
-1262.81
-1243.29
-1217.74
-1186.57
-1150.26
-1109.35
-1064.44
-1016.16
-965.158
-912.093
-857.616
-802.355
-746.909
-691.835
-637.643
-584.788
-533.667
-484.615
-437.907
-393.758
-352.324
-313.706
-277.954
-245.073
-215.027
-187.743
-163.123
-141.04
-121.353
-103.905
-88.5338
-75.0695
-63.3435
-53.1896
-44.4466
-36.9606
-30.5864
-25.1889
-20.6435
-16.8364
-13.6651
-11.0375
-8.87216
-7.09721
-5.65
-4.47624
-3.52926
-2.76925
-2.16248
-1.68055
-1.29977
-1.00046
-0.766389
-0.584279
-0.443318
-0.334762
-0.251586
-0.188177
-0.140083
-0.103787
-0.0765338
-0.0561733
-0.0410396
-0.0298493
-0.0216195
-0.0156024
-0.0112327
-0.00808699
-0.00585087
-0.00429468
-0.00325453
-0.00261854
-0.00231718
-1279.47
-1272.89
-1259.84
-1240.52
-1215.23
-1184.37
-1148.41
-1107.87
-1063.33
-1015.42
-964.768
-912.035
-857.857
-802.861
-747.642
-692.755
-638.71
-585.963
-534.914
-485.901
-439.204
-395.042
-353.573
-314.904
-279.088
-246.134
-216.009
-188.644
-163.94
-141.776
-122.009
-104.487
-89.0447
-75.5152
-63.7296
-53.5217
-44.7304
-37.2016
-30.7897
-25.3594
-20.7855
-16.9541
-13.762
-11.1169
-8.9368
-7.14955
-5.69214
-4.50999
-3.55614
-2.79054
-2.17925
-1.6937
-1.31002
-1.00841
-0.772523
-0.588988
-0.446914
-0.337494
-0.253651
-0.189731
-0.141245
-0.104653
-0.0771753
-0.0566463
-0.0413867
-0.0301028
-0.0218039
-0.015736
-0.0113293
-0.00815676
-0.00590153
-0.00433201
-0.00328292
-0.00264145
-0.00233749
-1276.87
-1270.35
-1257.41
-1238.26
-1213.19
-1182.58
-1146.89
-1106.64
-1062.4
-1014.78
-964.422
-911.957
-858.025
-803.248
-748.216
-693.485
-639.564
-586.91
-535.925
-486.949
-440.265
-396.094
-354.601
-315.892
-280.027
-247.015
-216.826
-189.394
-164.622
-142.391
-122.56
-104.975
-89.4742
-75.8904
-64.055
-53.8021
-44.9703
-37.4055
-30.962
-25.504
-20.9062
-17.0542
-13.8445
-11.1845
-8.99189
-7.19419
-5.72812
-4.53881
-3.57912
-2.80876
-2.19361
-1.70496
-1.31881
-1.01523
-0.777786
-0.59303
-0.450002
-0.339841
-0.255426
-0.191067
-0.142245
-0.105398
-0.0777276
-0.0570536
-0.0416857
-0.0303213
-0.0219628
-0.0158512
-0.0114126
-0.00821695
-0.00594526
-0.00436423
-0.00330743
-0.00266124
-0.00235504
-1274.77
-1268.3
-1255.45
-1236.43
-1211.53
-1181.11
-1145.64
-1105.62
-1061.62
-1014.25
-964.118
-911.871
-858.14
-803.541
-748.665
-694.063
-640.246
-587.672
-536.741
-487.799
-441.129
-396.955
-355.443
-316.705
-280.8
-247.742
-217.502
-190.016
-165.189
-142.903
-123.018
-105.382
-89.8334
-76.2047
-64.3281
-54.0376
-45.1721
-37.5772
-31.1072
-25.626
-21.0081
-17.1388
-13.9143
-11.2418
-9.0386
-7.23207
-5.75866
-4.56331
-3.59865
-2.82425
-2.20584
-1.71456
-1.3263
-1.02104
-0.782277
-0.59648
-0.45264
-0.341847
-0.256944
-0.192209
-0.143101
-0.106036
-0.0782005
-0.0574026
-0.041942
-0.0305086
-0.0220991
-0.01595
-0.011484
-0.00826861
-0.0059828
-0.00439191
-0.00332849
-0.00267825
-0.00237012
-1273.08
-1266.64
-1253.87
-1234.95
-1210.18
-1179.92
-1144.62
-1104.79
-1060.98
-1013.8
-963.855
-911.785
-858.217
-803.764
-749.014
-694.52
-640.79
-588.282
-537.399
-488.487
-441.83
-397.655
-356.13
-317.369
-281.434
-248.339
-218.058
-190.529
-165.658
-143.327
-123.399
-105.721
-90.1325
-76.4667
-64.556
-54.2344
-45.3409
-37.7211
-31.229
-25.7285
-21.0937
-17.2099
-13.9731
-11.29
-9.07799
-7.26404
-5.78446
-4.58402
-3.61518
-2.83737
-2.21619
-1.72269
-1.33265
-1.02597
-0.786089
-0.599411
-0.454881
-0.343553
-0.258235
-0.193181
-0.14383
-0.106579
-0.0786034
-0.0577
-0.0421604
-0.0306683
-0.0222154
-0.0160343
-0.011545
-0.00831273
-0.00601486
-0.00441555
-0.0033465
-0.00269279
-0.00238302
-1271.71
-1265.31
-1252.59
-1233.75
-1209.09
-1178.95
-1143.79
-1104.11
-1060.46
-1013.42
-963.631
-911.703
-858.266
-803.932
-749.286
-694.88
-641.222
-588.77
-537.927
-489.041
-442.396
-398.223
-356.689
-317.911
-281.952
-248.828
-218.515
-190.951
-166.044
-143.677
-123.713
-106.001
-90.3802
-76.684
-64.7453
-54.3981
-45.4815
-37.841
-31.3306
-25.814
-21.1653
-17.2695
-14.0223
-11.3305
-9.11104
-7.29089
-5.80615
-4.60143
-3.62909
-2.84842
-2.22492
-1.72954
-1.338
-1.03014
-0.789309
-0.601888
-0.456776
-0.344995
-0.259327
-0.194004
-0.144447
-0.107039
-0.0789448
-0.0579521
-0.0423457
-0.0308039
-0.0223141
-0.0161059
-0.0115968
-0.00835021
-0.00604211
-0.00443565
-0.0033618
-0.00270515
-0.00239399
-1270.62
-1264.23
-1251.56
-1232.79
-1208.21
-1178.17
-1143.12
-1103.55
-1060.02
-1013.11
-963.44
-911.627
-858.297
-804.059
-749.497
-695.163
-641.564
-589.158
-538.35
-489.485
-442.853
-398.681
-357.142
-318.351
-282.373
-249.227
-218.888
-191.296
-166.361
-143.964
-123.972
-106.232
-90.5844
-76.8634
-64.9017
-54.5336
-45.598
-37.9405
-31.415
-25.8852
-21.2249
-17.3191
-14.0633
-11.3642
-9.13864
-7.31332
-5.82428
-4.616
-3.64073
-2.85767
-2.23223
-1.73529
-1.3425
-1.03363
-0.792014
-0.603969
-0.45837
-0.346209
-0.260247
-0.194697
-0.144966
-0.107427
-0.0792327
-0.0581648
-0.0425021
-0.0309182
-0.0223974
-0.0161663
-0.0116406
-0.00838188
-0.00606515
-0.00445265
-0.00337475
-0.00271562
-0.00240327
-1269.74
-1263.37
-1250.74
-1232.02
-1207.5
-1177.54
-1142.58
-1103.11
-1059.67
-1012.86
-963.281
-911.559
-858.314
-804.153
-749.661
-695.385
-641.834
-589.467
-538.686
-489.841
-443.219
-399.05
-357.507
-318.706
-282.714
-249.55
-219.191
-191.577
-166.618
-144.199
-124.183
-106.421
-90.7519
-77.0108
-65.0304
-54.6451
-45.694
-38.0226
-31.4847
-25.944
-21.2742
-17.3602
-14.0974
-11.3922
-9.16156
-7.33197
-5.83936
-4.62813
-3.65043
-2.86538
-2.23833
-1.74009
-1.34625
-1.03656
-0.794275
-0.60571
-0.459703
-0.347225
-0.261017
-0.195278
-0.145402
-0.107752
-0.0794742
-0.0583432
-0.0426333
-0.0310143
-0.0224674
-0.0162171
-0.0116773
-0.0084085
-0.00608452
-0.00446695
-0.00338564
-0.00272442
-0.00241109
-1269.04
-1262.69
-1250.08
-1231.4
-1206.94
-1177.04
-1142.14
-1102.74
-1059.38
-1012.65
-963.148
-911.5
-858.323
-804.224
-749.786
-695.559
-642.047
-589.711
-538.954
-490.125
-443.512
-399.346
-357.8
-318.992
-282.989
-249.812
-219.436
-191.805
-166.828
-144.39
-124.355
-106.575
-90.8887
-77.1313
-65.1357
-54.7366
-45.7728
-38.09
-31.542
-25.9924
-21.3149
-17.394
-14.1254
-11.4154
-9.1805
-7.34739
-5.85184
-4.63817
-3.65847
-2.87178
-2.24339
-1.74407
-1.34937
-1.03898
-0.796155
-0.607159
-0.460813
-0.348071
-0.261658
-0.195762
-0.145765
-0.108023
-0.0796757
-0.0584922
-0.0427429
-0.0310945
-0.0225259
-0.0162596
-0.0117081
-0.00843078
-0.00610073
-0.00447892
-0.00339476
-0.0027318
-0.00241763
-1268.49
-1262.14
-1249.56
-1230.91
-1206.48
-1176.63
-1141.79
-1102.45
-1059.15
-1012.48
-963.039
-911.448
-858.325
-804.277
-749.883
-695.694
-642.214
-589.903
-539.166
-490.35
-443.745
-399.582
-358.034
-319.221
-283.21
-250.022
-219.634
-191.989
-166.997
-144.544
-124.495
-106.7
-90.9999
-77.2293
-65.2215
-54.8111
-45.8371
-38.1451
-31.5889
-26.032
-21.3481
-17.4218
-14.1485
-11.4344
-9.19607
-7.36007
-5.86211
-4.64645
-3.66509
-2.87706
-2.24757
-1.74736
-1.35195
-1.04099
-0.797711
-0.608357
-0.461732
-0.348772
-0.26219
-0.196163
-0.146067
-0.108248
-0.079843
-0.0586159
-0.0428339
-0.0311612
-0.0225745
-0.0162949
-0.0117337
-0.00844931
-0.00611422
-0.00448888
-0.00340236
-0.00273794
-0.00242309
-1268.04
-1261.71
-1249.14
-1230.52
-1206.13
-1176.31
-1141.51
-1102.22
-1058.97
-1012.34
-962.949
-911.404
-858.325
-804.316
-749.958
-695.799
-642.345
-590.055
-539.333
-490.528
-443.93
-399.769
-358.221
-319.405
-283.387
-250.19
-219.793
-192.137
-167.134
-144.669
-124.608
-106.801
-91.0898
-77.3088
-65.2911
-54.8716
-45.8893
-38.1899
-31.6271
-26.0643
-21.3753
-17.4445
-14.1673
-11.4499
-9.20881
-7.37046
-5.87053
-4.65323
-3.67053
-2.88139
-2.251
-1.75007
-1.35407
-1.04264
-0.798991
-0.609345
-0.462489
-0.349349
-0.262629
-0.196494
-0.146315
-0.108434
-0.0799812
-0.0587182
-0.0429092
-0.0312163
-0.0226147
-0.0163241
-0.0117548
-0.00846466
-0.00612539
-0.00449714
-0.00340866
-0.00274304
-0.00242761
-1267.7
-1261.37
-1248.81
-1230.21
-1205.84
-1176.06
-1141.29
-1102.03
-1058.82
-1012.23
-962.876
-911.367
-858.322
-804.344
-750.014
-695.88
-642.447
-590.174
-539.465
-490.669
-444.076
-399.918
-358.37
-319.55
-283.528
-250.325
-219.92
-192.255
-167.243
-144.769
-124.698
-106.882
-91.1623
-77.3728
-65.3472
-54.9205
-45.9316
-38.2261
-31.658
-26.0905
-21.3973
-17.4629
-14.1826
-11.4625
-9.21918
-7.37892
-5.8774
-4.65877
-3.67497
-2.88493
-2.25381
-1.75228
-1.3558
-1.04399
-0.80004
-0.610154
-0.46311
-0.349823
-0.262988
-0.196766
-0.14652
-0.108587
-0.0800948
-0.0588022
-0.0429711
-0.0312617
-0.0226478
-0.0163482
-0.0117723
-0.0084773
-0.0061346
-0.00450394
-0.00341385
-0.00274724
-0.00243134
-1267.42
-1261.1
-1248.55
-1229.97
-1205.62
-1175.86
-1141.12
-1101.88
-1058.7
-1012.14
-962.817
-911.336
-858.318
-804.365
-750.058
-695.943
-642.526
-590.266
-539.568
-490.779
-444.191
-400.036
-358.487
-319.665
-283.64
-250.432
-220.02
-192.349
-167.33
-144.848
-124.77
-106.947
-91.2203
-77.4241
-65.3923
-54.9598
-45.9656
-38.2554
-31.6829
-26.1116
-21.4151
-17.4778
-14.195
-11.4728
-9.22758
-7.38578
-5.88296
-4.66326
-3.67857
-2.8878
-2.25609
-1.75408
-1.35721
-1.0451
-0.800894
-0.610813
-0.463616
-0.35021
-0.263282
-0.196988
-0.146686
-0.108712
-0.0801876
-0.0588709
-0.0430217
-0.0312988
-0.0226749
-0.0163679
-0.0117866
-0.00848766
-0.00614215
-0.00450952
-0.0034181
-0.00275068
-0.0024344
-1267.21
-1260.89
-1248.35
-1229.78
-1205.44
-1175.7
-1140.98
-1101.77
-1058.61
-1012.07
-962.769
-911.311
-858.314
-804.381
-750.091
-695.991
-642.588
-590.339
-539.648
-490.866
-444.282
-400.128
-358.579
-319.756
-283.728
-250.516
-220.1
-192.424
-167.399
-144.912
-124.828
-106.999
-91.2666
-77.4651
-65.4284
-54.9912
-45.9928
-38.2788
-31.7029
-26.1286
-21.4294
-17.4898
-14.205
-11.481
-9.23435
-7.39131
-5.88746
-4.66689
-3.68148
-2.89013
-2.25794
-1.75554
-1.35836
-1.04599
-0.801587
-0.611348
-0.464027
-0.350524
-0.263521
-0.197169
-0.146822
-0.108813
-0.0802632
-0.0589269
-0.0430629
-0.031329
-0.022697
-0.0163839
-0.0117982
-0.0084961
-0.00614831
-0.00451408
-0.00342158
-0.0027535
-0.0024369
-1267.04
-1260.72
-1248.19
-1229.63
-1205.3
-1175.57
-1140.87
-1101.67
-1058.53
-1012.02
-962.731
-911.29
-858.31
-804.392
-750.116
-696.028
-642.635
-590.395
-539.711
-490.933
-444.352
-400.2
-358.652
-319.828
-283.797
-250.583
-220.163
-192.483
-167.454
-144.962
-124.874
-107.04
-91.3034
-77.4977
-65.457
-55.0163
-46.0145
-38.2975
-31.7189
-26.1422
-21.4408
-17.4994
-14.2129
-11.4876
-9.23978
-7.39575
-5.89106
-4.6698
-3.68382
-2.892
-2.25942
-1.75671
-1.35928
-1.04671
-0.802146
-0.61178
-0.464359
-0.350777
-0.263713
-0.197314
-0.146932
-0.108895
-0.0803243
-0.0589722
-0.0430963
-0.0313535
-0.0227149
-0.016397
-0.0118077
-0.00850296
-0.0061533
-0.00451777
-0.0034244
-0.00275578
-0.00243893
-1266.91
-1260.6
-1248.07
-1229.51
-1205.19
-1175.48
-1140.78
-1101.6
-1058.47
-1011.97
-962.7
-911.274