/*--------------------------------*- C++ -*----------------------------------*\
  =========                 |
  \\      /  F ield         | OpenFOAM: The Open Source CFD Toolbox
   \\    /   O peration     | Website:  https://openfoam.org
    \\  /    A nd           | Version:  10
     \\/     M anipulation  |
\*---------------------------------------------------------------------------*/
FoamFile
{
    format      ascii;
    class       volScalarField;
    location    "446";
    object      T;
}
// * * * * * * * * * * * * * * * * * * * * * * * * * * * * * * * * * * * * * //

dimensions      [0 0 0 1 0 0 0];

internalField   nonuniform List<scalar> 
11250
(
249.881
167.672
139.55
127.206
120.5
116.266
113.317
111.126
109.422
108.054
106.929
105.986
105.186
104.499
103.906
103.39
102.94
102.547
102.202
101.901
101.636
101.405
101.203
101.028
100.875
100.742
100.627
100.529
100.444
100.371
100.309
100.257
100.212
100.175
100.143
100.117
100.095
100.077
100.062
100.05
100.04
100.032
100.025
100.02
100.016
100.012
100.01
100.007
100.006
100.004
100.003
100.003
100.002
100.001
100.001
100.001
100.001
100
100
100
100
100
100
100
100
100
100
100
100
100
100
100
100
100
100
331.615
248.932
202.876
175.989
159.036
147.523
139.207
132.905
127.948
123.938
120.623
117.836
115.464
113.425
111.66
110.125
108.784
107.611
106.583
105.682
104.893
104.202
103.599
103.074
102.616
102.22
101.877
101.582
101.328
101.111
100.925
100.768
100.635
100.523
100.429
100.35
100.285
100.231
100.186
100.15
100.12
100.095
100.076
100.06
100.047
100.037
100.029
100.022
100.017
100.013
100.01
100.008
100.006
100.004
100.003
100.002
100.002
100.001
100.001
100.001
100.001
100
100
100
100
100
100
100
100
100
100
100
100
100
100
359.265
293.574
247.052
214.861
192.165
175.62
163.127
153.384
145.577
139.181
133.845
129.33
125.469
122.138
119.247
116.725
114.52
112.587
110.892
109.405
108.102
106.961
105.963
105.093
104.337
103.68
103.112
102.623
102.202
101.842
101.535
101.274
101.054
100.868
100.712
100.582
100.473
100.383
100.309
100.248
100.199
100.158
100.126
100.099
100.078
100.061
100.048
100.037
100.029
100.022
100.017
100.013
100.01
100.007
100.006
100.004
100.003
100.002
100.002
100.001
100.001
100.001
100
100
100
100
100
100
100
100
100
100
100
100
100
371.143
319.066
276.925
244.279
219.191
199.727
184.364
172.005
161.881
153.452
146.339
140.27
135.043
130.513
126.564
123.111
120.082
117.423
115.087
113.034
111.234
109.655
108.275
107.07
106.021
105.111
104.323
103.644
103.06
102.56
102.134
101.772
101.465
101.207
100.99
100.809
100.658
100.533
100.43
100.346
100.277
100.22
100.175
100.138
100.109
100.085
100.066
100.051
100.04
100.031
100.023
100.018
100.014
100.01
100.008
100.006
100.004
100.003
100.002
100.002
100.001
100.001
100.001
100
100
100
100
100
100
100
100
100
100
100
100
377.392
334.648
297.344
266.193
240.666
219.815
202.693
188.499
176.605
166.533
157.923
150.501
144.062
138.446
133.528
129.211
125.413
122.07
119.126
116.537
114.261
112.264
110.515
108.988
107.657
106.502
105.501
104.638
103.896
103.26
102.718
102.257
101.867
101.538
101.262
101.031
100.839
100.68
100.549
100.441
100.353
100.281
100.223
100.176
100.138
100.108
100.085
100.066
100.051
100.039
100.03
100.023
100.017
100.013
100.01
100.007
100.005
100.004
100.003
100.002
100.002
100.001
100.001
100.001
100
100
100
100
100
100
100
100
100
100
100
381.178
344.82
311.661
282.556
257.554
236.283
218.217
202.83
189.657
178.313
168.484
159.924
152.436
145.861
140.073
134.97
130.465
126.488
122.978
119.884
117.16
114.767
112.668
110.834
109.234
107.844
106.639
105.599
104.704
103.938
103.283
102.727
102.256
101.859
101.525
101.247
101.015
100.822
100.664
100.533
100.427
100.34
100.27
100.213
100.168
100.131
100.102
100.079
100.061
100.047
100.036
100.028
100.021
100.016
100.012
100.009
100.007
100.005
100.004
100.003
100.002
100.001
100.001
100.001
100.001
100
100
100
100
100
100
100
100
100
100
383.691
351.832
321.988
294.9
270.822
249.676
231.212
215.114
201.063
188.769
177.981
168.487
160.112
152.708
146.153
140.347
135.202
130.646
126.615
123.053
119.912
117.147
114.72
112.595
110.741
109.128
107.729
106.521
105.481
104.589
103.827
103.18
102.631
102.168
101.78
101.455
101.184
100.96
100.775
100.623
100.498
100.397
100.315
100.249
100.196
100.153
100.12
100.093
100.072
100.055
100.042
100.032
100.024
100.018
100.014
100.01
100.008
100.006
100.004
100.003
100.002
100.002
100.001
100.001
100.001
100
100
100
100
100
100
100
100
100
100
385.461
356.872
329.633
304.337
281.284
260.539
242.016
225.544
210.923
197.946
186.422
176.179
167.069
158.96
151.741
145.316
139.601
134.523
130.018
126.027
122.501
119.392
116.659
114.264
112.17
110.347
108.766
107.398
106.221
105.21
104.347
103.612
102.99
102.464
102.023
101.654
101.347
101.092
100.881
100.708
100.567
100.452
100.359
100.283
100.223
100.175
100.136
100.106
100.082
100.063
100.048
100.037
100.028
100.021
100.016
100.012
100.009
100.007
100.005
100.004
100.003
100.002
100.001
100.001
100.001
100.001
100
100
100
100
100
100
100
100
100
386.758
360.613
335.42
311.647
289.583
269.354
250.967
234.348
219.38
205.928
193.852
183.021
173.312
164.614
156.828
149.865
143.648
138.105
133.173
128.795
124.917
121.493
118.477
115.831
113.516
111.497
109.745
108.228
106.921
105.799
104.84
104.023
103.33
102.746
102.255
101.844
101.501
101.217
100.983
100.79
100.633
100.504
100.4
100.316
100.249
100.195
100.152
100.118
100.091
100.07
100.054
100.041
100.031
100.024
100.018
100.013
100.01
100.007
100.005
100.004
100.003
100.002
100.002
100.001
100.001
100.001
100
100
100
100
100
100
100
100
100
387.737
363.457
339.88
317.378
296.21
276.523
258.373
241.748
226.592
212.822
200.343
189.057
178.867
169.682
161.417
153.993
147.339
141.386
136.075
131.348
127.154
123.442
120.169
117.292
114.773
112.574
110.662
109.007
107.579
106.353
105.304
104.41
103.652
103.012
102.474
102.023
101.648
101.336
101.079
100.868
100.695
100.554
100.44
100.347
100.273
100.214
100.167
100.13
100.1
100.077
100.059
100.045
100.034
100.026
100.019
100.015
100.011
100.008
100.006
100.004
100.003
100.002
100.002
100.001
100.001
100.001
100
100
100
100
100
100
100
100
100
388.491
365.661
343.37
321.919
301.535
282.368
264.499
247.954
232.717
218.744
205.976
194.343
183.772
174.19
165.526
157.71
150.678
144.369
138.723
133.687
129.208
125.238
121.731
118.645
115.938
113.574
111.516
109.733
108.194
106.871
105.738
104.773
103.954
103.262
102.68
102.192
101.786
101.449
101.17
100.941
100.754
100.601
100.477
100.377
100.297
100.232
100.181
100.141
100.109
100.084
100.064
100.049
100.037
100.028
100.021
100.016
100.012
100.009
100.006
100.005
100.003
100.003
100.002
100.001
100.001
100.001
100
100
100
100
100
100
100
100
100
389.082
367.392
346.132
325.548
305.839
287.148
269.57
253.15
237.901
223.808
210.838
198.945
188.075
178.172
169.177
161.032
153.678
147.059
141.122
135.813
131.082
126.881
123.164
119.888
117.012
114.497
112.306
110.406
108.764
107.352
106.142
105.111
104.235
103.495
102.872
102.35
101.915
101.554
101.255
101.01
100.809
100.645
100.512
100.405
100.318
100.25
100.195
100.151
100.117
100.09
100.069
100.053
100.04
100.03
100.023
100.017
100.013
100.009
100.007
100.005
100.004
100.003
100.002
100.001
100.001
100.001
100.001
100
100
100
100
100
100
100
100
389.55
368.769
348.339
328.469
309.334
291.068
273.769
257.496
242.279
228.123
215.016
202.93
191.828
181.668
172.402
163.98
156.353
149.47
143.279
137.731
132.778
128.373
124.469
121.023
117.995
115.343
113.031
111.024
109.289
107.795
106.515
105.423
104.495
103.71
103.05
102.496
102.035
101.651
101.334
101.073
100.86
100.686
100.545
100.431
100.339
100.266
100.207
100.161
100.124
100.096
100.073
100.056
100.043
100.032
100.024
100.018
100.014
100.01
100.007
100.005
100.004
100.003
100.002
100.002
100.001
100.001
100.001
100
100
100
100
100
100
100
100
389.924
369.872
350.116
330.835
312.185
294.291
277.249
261.128
245.968
231.788
218.591
206.364
195.084
184.719
175.232
166.582
158.725
151.615
145.207
139.452
134.304
129.718
125.649
122.053
118.888
116.114
113.693
111.59
109.77
108.202
106.858
105.71
104.735
103.909
103.214
102.632
102.145
101.741
101.407
101.132
100.907
100.724
100.575
100.455
100.358
100.28
100.219
100.17
100.131
100.101
100.078
100.059
100.045
100.034
100.026
100.019
100.014
100.011
100.008
100.006
100.004
100.003
100.002
100.002
100.001
100.001
100.001
100
100
100
100
100
100
100
100
390.225
370.762
351.554
332.759
314.517
296.944
280.136
264.162
249.071
234.893
221.641
209.312
197.895
187.368
177.702
168.864
160.814
153.514
146.918
140.985
135.669
130.925
126.71
122.98
119.694
116.811
114.293
112.103
110.207
108.573
107.17
105.972
104.954
104.091
103.365
102.756
102.247
101.824
101.475
101.187
100.951
100.759
100.603
100.477
100.375
100.294
100.23
100.178
100.138
100.106
100.081
100.062
100.047
100.036
100.027
100.02
100.015
100.011
100.008
100.006
100.004
100.003
100.002
100.002
100.001
100.001
100.001
100
100
100
100
100
100
100
100
390.469
371.484
352.724
334.33
316.43
299.133
282.53
266.694
251.678
237.518
224.234
211.834
200.313
189.658
179.848
170.854
162.645
155.183
148.429
142.343
136.881
132
127.657
123.81
120.418
117.438
114.833
112.566
110.602
108.908
107.454
106.21
105.153
104.257
103.502
102.869
102.34
101.9
101.536
101.237
100.991
100.791
100.628
100.497
100.391
100.307
100.239
100.186
100.144
100.111
100.085
100.065
100.049
100.037
100.028
100.021
100.016
100.012
100.009
100.006
100.005
100.003
100.002
100.002
100.001
100.001
100.001
100
100
100
100
100
100
100
100
390.668
372.071
353.678
335.616
318.002
300.939
284.517
268.806
253.864
239.73
226.431
213.982
202.383
191.628
181.702
172.582
164.24
156.643
149.756
143.538
137.951
132.952
128.499
124.55
121.063
117.999
115.317
112.982
110.958
109.21
107.709
106.425
105.333
104.407
103.626
102.971
102.424
101.969
101.592
101.282
101.028
100.82
100.652
100.516
100.406
100.318
100.248
100.193
100.149
100.115
100.088
100.067
100.051
100.039
100.029
100.022
100.016
100.012
100.009
100.007
100.005
100.004
100.003
100.002
100.001
100.001
100.001
100
100
100
100
100
100
100
100
390.829
372.551
354.459
336.67
319.295
302.431
286.164
270.566
255.694
241.591
228.289
215.806
204.149
193.317
183.298
174.075
165.623
157.914
150.913
144.585
138.891
133.79
129.241
125.204
121.635
118.497
115.748
113.353
111.275
109.48
107.938
106.618
105.494
104.542
103.738
103.064
102.5
102.031
101.643
101.323
101.061
100.847
100.673
100.532
100.419
100.329
100.257
100.199
100.154
100.119
100.091
100.07
100.053
100.04
100.03
100.023
100.017
100.013
100.009
100.007
100.005
100.004
100.003
100.002
100.001
100.001
100.001
100
100
100
100
100
100
100
100
390.962
372.943
355.098
337.536
320.36
303.664
287.53
272.031
257.223
243.153
229.855
217.35
205.65
194.757
184.665
175.358
166.817
159.014
151.919
145.497
139.712
134.524
129.893
125.779
122.14
118.937
116.13
113.682
111.557
109.721
108.142
106.79
105.639
104.662
103.838
103.146
102.568
102.087
101.688
101.36
101.09
100.87
100.692
100.547
100.431
100.338
100.264
100.205
100.159
100.122
100.094
100.072
100.054
100.041
100.031
100.023
100.017
100.013
100.01
100.007
100.005
100.004
100.003
100.002
100.001
100.001
100.001
100.001
100
100
100
100
100
100
100
391.07
373.265
355.622
338.247
321.236
304.681
288.662
273.249
258.499
244.462
231.171
218.653
206.922
195.982
185.831
176.457
167.842
159.961
152.788
146.287
140.425
135.164
130.463
126.282
122.583
119.323
116.466
113.972
111.806
109.933
108.322
106.942
105.767
104.769
103.927
103.22
102.629
102.136
101.729
101.393
101.117
100.892
100.709
100.561
100.442
100.347
100.271
100.21
100.163
100.125
100.096
100.073
100.056
100.042
100.032
100.024
100.018
100.013
100.01
100.007
100.005
100.004
100.003
100.002
100.001
100.001
100.001
100.001
100
100
100
100
100
100
100
391.159
373.528
356.052
338.831
321.958
305.521
289.599
274.259
259.562
245.555
232.275
219.749
207.995
197.019
186.822
177.393
168.718
160.774
153.535
146.969
141.042
135.718
130.957
126.721
122.968
119.661
116.759
114.226
112.024
110.12
108.481
107.077
105.88
104.864
104.006
103.285
102.682
102.18
101.765
101.422
101.141
100.911
100.724
100.573
100.452
100.354
100.277
100.215
100.166
100.128
100.098
100.075
100.057
100.043
100.033
100.024
100.018
100.014
100.01
100.007
100.005
100.004
100.003
100.002
100.001
100.001
100.001
100.001
100
100
100
100
100
100
100
391.231
373.744
356.405
339.311
322.552
306.214
290.373
275.097
260.445
246.466
233.197
220.668
208.898
197.895
187.66
178.188
169.464
161.468
154.174
147.553
141.572
136.195
131.384
127.1
123.303
119.955
117.015
114.447
112.215
110.284
108.62
107.195
105.979
104.947
104.076
103.343
102.73
102.219
101.797
101.448
101.161
100.928
100.738
100.584
100.46
100.361
100.282
100.219
100.17
100.131
100.1
100.077
100.058
100.044
100.033
100.025
100.019
100.014
100.01
100.008
100.006
100.004
100.003
100.002
100.002
100.001
100.001
100.001
100
100
100
100
100
100
100
391.291
373.92
356.694
339.704
323.04
306.784
291.011
275.789
261.177
247.223
233.966
221.437
209.654
198.63
188.367
178.86
170.096
162.057
154.719
148.053
142.026
136.605
131.751
127.427
123.592
120.208
117.237
114.64
112.381
110.426
108.742
107.298
106.066
105.02
104.136
103.393
102.772
102.254
101.825
101.47
101.18
100.943
100.75
100.593
100.468
100.367
100.287
100.223
100.173
100.133
100.102
100.078
100.059
100.045
100.034
100.025
100.019
100.014
100.01
100.008
100.006
100.004
100.003
100.002
100.002
100.001
100.001
100.001
100
100
100
100
100
100
100
391.339
374.065
356.93
340.027
323.44
307.252
291.537
276.361
261.783
247.851
234.606
222.077
210.287
199.247
188.961
179.426
170.63
162.556
155.181
148.477
142.413
136.955
132.065
127.706
123.84
120.426
117.427
114.805
112.524
110.549
108.847
107.387
106.141
105.083
104.189
103.437
102.808
102.284
101.849
101.49
101.196
100.956
100.76
100.602
100.474
100.372
100.291
100.226
100.175
100.135
100.103
100.079
100.06
100.045
100.034
100.026
100.019
100.014
100.011
100.008
100.006
100.004
100.003
100.002
100.002
100.001
100.001
100.001
100
100
100
100
100
100
100
391.379
374.183
357.124
340.291
323.769
307.637
291.97
276.832
262.283
248.371
235.136
222.609
210.813
199.761
189.458
179.9
171.078
162.976
155.571
148.836
142.741
137.252
132.332
127.945
124.052
120.613
117.591
114.948
112.647
110.655
108.937
107.464
106.206
105.138
104.235
103.475
102.839
102.31
101.87
101.508
101.21
100.967
100.769
100.609
100.48
100.377
100.294
100.229
100.177
100.137
100.105
100.08
100.061
100.046
100.035
100.026
100.019
100.014
100.011
100.008
100.006
100.004
100.003
100.002
100.002
100.001
100.001
100.001
100
100
100
100
100
100
100
391.411
374.279
357.282
340.507
324.037
307.952
292.324
277.219
262.694
248.799
235.574
223.05
211.251
200.189
189.872
180.297
171.454
163.328
155.898
149.138
143.017
137.503
132.559
128.148
124.232
120.772
117.73
115.069
112.753
110.745
109.015
107.53
106.262
105.185
104.275
103.508
102.867
102.332
101.889
101.523
101.222
100.977
100.777
100.615
100.485
100.381
100.297
100.231
100.179
100.138
100.106
100.081
100.062
100.047
100.035
100.026
100.02
100.015
100.011
100.008
100.006
100.004
100.003
100.002
100.002
100.001
100.001
100.001
100
100
100
100
100
100
100
391.438
374.358
357.411
340.683
324.257
308.21
292.615
277.536
263.032
249.151
235.935
223.414
211.612
200.544
190.216
180.626
171.767
163.623
156.173
149.392
143.25
137.714
132.749
128.319
124.384
120.907
117.849
115.173
112.842
110.823
109.081
107.587
106.31
105.226
104.308
103.536
102.89
102.351
101.904
101.536
101.233
100.985
100.784
100.621
100.489
100.384
100.3
100.233
100.181
100.139
100.107
100.082
100.062
100.047
100.035
100.027
100.02
100.015
100.011
100.008
100.006
100.004
100.003
100.002
100.002
100.001
100.001
100.001
100
100
100
100
100
100
100
391.459
374.422
357.516
340.826
324.435
308.42
292.852
277.796
263.309
249.44
236.231
223.713
211.91
200.837
190.5
180.9
172.027
163.867
156.401
149.603
143.444
137.891
132.909
128.462
124.512
121.02
117.948
115.26
112.918
110.888
109.137
107.634
106.351
105.26
104.337
103.561
102.91
102.368
101.918
101.547
101.242
100.992
100.79
100.625
100.493
100.387
100.302
100.235
100.182
100.14
100.108
100.082
100.063
100.047
100.036
100.027
100.02
100.015
100.011
100.008
100.006
100.004
100.003
100.002
100.002
100.001
100.001
100.001
100
100
100
100
100
100
100
391.477
374.473
357.601
340.942
324.58
308.591
293.045
278.007
263.534
249.676
236.474
223.958
212.155
201.078
190.735
181.125
172.242
164.07
156.591
149.779
143.606
138.039
133.043
128.583
124.619
121.115
118.032
115.333
112.982
110.943
109.185
107.675
106.385
105.289
104.362
103.581
102.927
102.382
101.929
101.556
101.249
100.999
100.795
100.629
100.496
100.39
100.304
100.237
100.183
100.141
100.108
100.083
100.063
100.048
100.036
100.027
100.02
100.015
100.011
100.008
100.006
100.004
100.003
100.002
100.002
100.001
100.001
100.001
100
100
100
100
100
100
100
391.491
374.515
357.669
341.037
324.698
308.729
293.202
278.179
263.718
249.869
236.672
224.159
212.355
201.275
190.927
181.311
172.419
164.238
156.748
149.925
143.74
138.161
133.154
128.683
124.709
121.195
118.102
115.395
113.035
110.99
109.225
107.709
106.414
105.314
104.382
103.598
102.941
102.394
101.939
101.564
101.256
101.004
100.799
100.633
100.499
100.392
100.306
100.238
100.184
100.142
100.109
100.083
100.063
100.048
100.036
100.027
100.02
100.015
100.011
100.008
100.006
100.004
100.003
100.002
100.002
100.001
100.001
100.001
100
100
100
100
100
100
100
391.502
374.549
357.725
341.113
324.793
308.841
293.328
278.318
263.867
250.025
236.833
224.322
212.518
201.437
191.085
181.463
172.564
164.375
156.877
150.045
143.85
138.262
133.246
128.766
124.783
121.261
118.161
115.446
113.08
111.028
109.258
107.738
106.439
105.334
104.399
103.613
102.953
102.403
101.947
101.571
101.261
101.008
100.802
100.636
100.501
100.394
100.308
100.239
100.185
100.143
100.11
100.084
100.064
100.048
100.036
100.027
100.02
100.015
100.011
100.008
100.006
100.004
100.003
100.002
100.002
100.001
100.001
100.001
100
100
100
100
100
100
100
391.511
374.576
357.77
341.174
324.87
308.932
293.431
278.431
263.988
250.152
236.963
224.455
212.651
201.568
191.213
181.587
172.683
164.488
156.982
150.143
143.941
138.346
133.322
128.834
124.844
121.315
118.209
115.488
113.117
111.06
109.286
107.761
106.459
105.351
104.414
103.625
102.963
102.412
101.954
101.576
101.266
101.012
100.805
100.638
100.503
100.395
100.309
100.24
100.186
100.143
100.11
100.084
100.064
100.048
100.037
100.027
100.02
100.015
100.011
100.008
100.006
100.004
100.003
100.002
100.002
100.001
100.001
100.001
100
100
100
100
100
100
100
391.519
374.598
357.806
341.223
324.931
309.005
293.513
278.521
264.085
250.254
237.069
224.562
212.759
201.674
191.317
181.688
172.779
164.579
157.069
150.223
144.016
138.414
133.384
128.89
124.895
121.36
118.249
115.523
113.148
111.087
109.308
107.781
106.476
105.365
104.426
103.635
102.972
102.419
101.96
101.581
101.27
101.015
100.808
100.64
100.505
100.396
100.31
100.241
100.187
100.144
100.11
100.084
100.064
100.049
100.037
100.027
100.021
100.015
100.011
100.008
100.006
100.004
100.003
100.002
100.002
100.001
100.001
100.001
100
100
100
100
100
100
100
391.524
374.616
357.834
341.263
324.981
309.063
293.579
278.594
264.163
250.336
237.154
224.649
212.845
201.76
191.401
181.769
172.858
164.654
157.139
150.289
144.076
138.47
133.435
128.936
124.936
121.397
118.281
115.552
113.173
111.109
109.327
107.797
106.489
105.377
104.436
103.643
102.979
102.425
101.965
101.585
101.273
101.018
100.81
100.642
100.506
100.397
100.311
100.242
100.187
100.144
100.111
100.085
100.064
100.049
100.037
100.028
100.021
100.015
100.011
100.008
100.006
100.004
100.003
100.002
100.002
100.001
100.001
100.001
100
100
100
100
100
100
100
391.529
374.63
357.857
341.294
325.02
309.109
293.632
278.652
264.226
250.402
237.222
224.718
212.915
201.829
191.469
181.835
172.921
164.714
157.195
150.342
144.125
138.515
133.476
128.973
124.97
121.427
118.308
115.575
113.193
111.127
109.343
107.811
106.501
105.387
104.444
103.65
102.984
102.429
101.969
101.588
101.275
101.02
100.812
100.643
100.507
100.398
100.311
100.242
100.188
100.145
100.111
100.085
100.065
100.049
100.037
100.028
100.021
100.015
100.011
100.008
100.006
100.004
100.003
100.002
100.002
100.001
100.001
100.001
100
100
100
100
100
100
100
391.533
374.641
357.876
341.319
325.051
309.146
293.674
278.699
264.276
250.455
237.276
224.774
212.971
201.885
191.524
181.888
172.972
164.762
157.241
150.385
144.165
138.551
133.509
129.004
124.997
121.451
118.33
115.595
113.21
111.141
109.355
107.821
106.51
105.395
104.451
103.656
102.989
102.433
101.972
101.591
101.278
101.022
100.813
100.644
100.508
100.399
100.312
100.243
100.188
100.145
100.111
100.085
100.065
100.049
100.037
100.028
100.021
100.015
100.011
100.008
100.006
100.004
100.003
100.002
100.002
100.001
100.001
100.001
100
100
100
100
100
100
100
391.536
374.65
357.89
341.339
325.076
309.176
293.708
278.736
264.315
250.496
237.32
224.818
213.016
201.929
191.567
181.93
173.012
164.801
157.278
150.419
144.197
138.581
133.536
129.028
125.019
121.471
118.347
115.61
113.224
111.153
109.366
107.83
106.518
105.401
104.456
103.66
102.993
102.436
101.974
101.593
101.279
101.023
100.814
100.645
100.509
100.4
100.312
100.243
100.188
100.145
100.111
100.085
100.065
100.049
100.037
100.028
100.021
100.015
100.011
100.008
100.006
100.004
100.003
100.002
100.002
100.001
100.001
100.001
100
100
100
100
100
100
100
391.538
374.657
357.902
341.355
325.096
309.199
293.734
278.765
264.347
250.53
237.354
224.853
213.051
201.964
191.602
181.964
173.045
164.832
157.307
150.446
144.222
138.604
133.558
129.048
125.037
121.487
118.361
115.622
113.234
111.163
109.374
107.837
106.524
105.406
104.461
103.664
102.996
102.439
101.977
101.595
101.281
101.024
100.815
100.646
100.51
100.4
100.313
100.243
100.189
100.145
100.112
100.085
100.065
100.049
100.037
100.028
100.021
100.015
100.011
100.008
100.006
100.005
100.003
100.002
100.002
100.001
100.001
100.001
100
100
100
100
100
100
100
391.54
374.662
357.911
341.367
325.111
309.218
293.755
278.788
264.372
250.556
237.381
224.881
213.079
201.992
191.629
181.991
173.071
164.857
157.33
150.468
144.243
138.623
133.575
129.063
125.051
121.5
118.373
115.632
113.243
111.17
109.381
107.843
106.529
105.411
104.464
103.667
102.998
102.441
101.978
101.596
101.282
101.025
100.816
100.647
100.51
100.4
100.313
100.244
100.189
100.146
100.112
100.085
100.065
100.049
100.037
100.028
100.021
100.015
100.011
100.008
100.006
100.005
100.003
100.002
100.002
100.001
100.001
100.001
100
100
100
100
100
100
100
391.541
374.666
357.918
341.377
325.124
309.232
293.772
278.806
264.391
250.576
237.403
224.903
213.101
202.014
191.651
182.012
173.091
164.876
157.349
150.485
144.259
138.638
133.589
129.076
125.062
121.51
118.382
115.64
113.25
111.176
109.386
107.848
106.533
105.414
104.467
103.669
103.001
102.443
101.98
101.597
101.283
101.026
100.817
100.647
100.51
100.401
100.313
100.244
100.189
100.146
100.112
100.085
100.065
100.049
100.037
100.028
100.021
100.015
100.011
100.008
100.006
100.005
100.003
100.002
100.002
100.001
100.001
100.001
100
100
100
100
100
100
100
391.543
374.67
357.923
341.385
325.133
309.243
293.784
278.82
264.407
250.593
237.419
224.92
213.118
202.032
191.668
182.028
173.107
164.891
157.363
150.499
144.272
138.65
133.6
129.086
125.071
121.518
118.389
115.647
113.256
111.181
109.39
107.851
106.536
105.417
104.469
103.671
103.002
102.444
101.981
101.598
101.284
101.026
100.817
100.647
100.511
100.401
100.314
100.244
100.189
100.146
100.112
100.085
100.065
100.049
100.037
100.028
100.021
100.015
100.011
100.008
100.006
100.005
100.003
100.002
100.002
100.001
100.001
100.001
100
100
100
100
100
100
100
391.543
374.672
357.927
341.391
325.141
309.252
293.795
278.831
264.418
250.605
237.433
224.933
213.132
202.045
191.681
182.041
173.12
164.904
157.375
150.51
144.282
138.659
133.608
129.094
125.078
121.524
118.394
115.652
113.26
111.185
109.394
107.854
106.538
105.419
104.471
103.673
103.003
102.445
101.982
101.599
101.284
101.027
100.817
100.648
100.511
100.401
100.314
100.244
100.189
100.146
100.112
100.086
100.065
100.049
100.037
100.028
100.021
100.015
100.011
100.008
100.006
100.005
100.003
100.002
100.002
100.001
100.001
100.001
100
100
100
100
100
100
100
391.544
374.674
357.931
341.395
325.146
309.259
293.802
278.84
264.428
250.615
237.443
224.944
213.142
202.056
191.692
182.052
173.13
164.913
157.384
150.518
144.29
138.666
133.615
129.1
125.084
121.529
118.399
115.656
113.264
111.188
109.396
107.857
106.54
105.42
104.472
103.674
103.004
102.446
101.982
101.6
101.285
101.027
100.818
100.648
100.511
100.401
100.314
100.244
100.189
100.146
100.112
100.086
100.065
100.049
100.037
100.028
100.021
100.015
100.011
100.008
100.006
100.005
100.003
100.002
100.002
100.001
100.001
100.001
100
100
100
100
100
100
100
391.545
374.676
357.933
341.399
325.151
309.264
293.808
278.846
264.435
250.623
237.451
224.952
213.151
202.064
191.7
182.06
173.137
164.92
157.391
150.525
144.296
138.672
133.62
129.104
125.088
121.533
118.402
115.659
113.267
111.191
109.398
107.858
106.542
105.422
104.474
103.675
103.005
102.447
101.983
101.6
101.285
101.028
100.818
100.648
100.511
100.402
100.314
100.244
100.189
100.146
100.112
100.086
100.065
100.049
100.037
100.028
100.021
100.015
100.011
100.008
100.006
100.005
100.003
100.002
100.002
100.001
100.001
100.001
100
100
100
100
100
100
100
391.545
374.677
357.935
341.401
325.154
309.268
293.813
278.852
264.44
250.629
237.457
224.958
213.157
202.07
191.706
182.066
173.143
164.926
157.396
150.53
144.301
138.677
133.624
129.108
125.091
121.536
118.405
115.661
113.269
111.193
109.4
107.86
106.543
105.423
104.474
103.676
103.006
102.447
101.983
101.6
101.285
101.028
100.818
100.648
100.511
100.402
100.314
100.244
100.189
100.146
100.112
100.086
100.065
100.049
100.037
100.028
100.021
100.015
100.011
100.008
100.006
100.005
100.003
100.002
100.002
100.001
100.001
100.001
100
100
100
100
100
100
100
391.545
374.678
357.937
341.404
325.157
309.271
293.817
278.856
264.445
250.633
237.461
224.963
213.162
202.075
191.711
182.07
173.148
164.93
157.4
150.534
144.304
138.68
133.627
129.111
125.094
121.538
118.407
115.663
113.27
111.194
109.401
107.861
106.544
105.424
104.475
103.676
103.006
102.448
101.984
101.601
101.286
101.028
100.818
100.649
100.512
100.402
100.314
100.244
100.189
100.146
100.112
100.086
100.065
100.049
100.037
100.028
100.021
100.015
100.011
100.008
100.006
100.005
100.003
100.002
100.002
100.001
100.001
100.001
100
100
100
100
100
100
100
391.546
374.679
357.938
341.405
325.159
309.274
293.819
278.859
264.448
250.637
237.465
224.967
213.166
202.079
191.715
182.074
173.151
164.934
157.403
150.537
144.307
138.683
133.63
129.113
125.096
121.54
118.409
115.665
113.272
111.195
109.402
107.862
106.545
105.424
104.476
103.677
103.007
102.448
101.984
101.601
101.286
101.028
100.819
100.649
100.512
100.402
100.314
100.244
100.189
100.146
100.112
100.086
100.065
100.049
100.037
100.028
100.021
100.016
100.011
100.008
100.006
100.005
100.003
100.002
100.002
100.001
100.001
100.001
100
100
100
100
100
100
100
391.546
374.679
357.939
341.406
325.16
309.276
293.821
278.861
264.45
250.639
237.468
224.969
213.169
202.082
191.717
182.077
173.154
164.936
157.406
150.539
144.309
138.685
133.632
129.115
125.097
121.542
118.41
115.666
113.273
111.196
109.403
107.862
106.545
105.425
104.476
103.677
103.007
102.448
101.984
101.601
101.286
101.028
100.819
100.649
100.512
100.402
100.314
100.244
100.189
100.146
100.112
100.086
100.065
100.049
100.037
100.028
100.021
100.016
100.011
100.008
100.006
100.005
100.003
100.002
100.002
100.001
100.001
100.001
100
100
100
100
100
100
100
391.546
374.68
357.94
341.407
325.162
309.277
293.823
278.863
264.452
250.641
237.47
224.972
213.171
202.084
191.72
182.079
173.156
164.938
157.408
150.541
144.311
138.686
133.633
129.116
125.099
121.543
118.411
115.667
113.273
111.197
109.404
107.863
106.546
105.425
104.476
103.677
103.007
102.448
101.984
101.601
101.286
101.028
100.819
100.649
100.512
100.402
100.314
100.245
100.189
100.146
100.112
100.086
100.065
100.049
100.037
100.028
100.021
100.016
100.011
100.008
100.006
100.005
100.003
100.002
100.002
100.001
100.001
100.001
100
100
100
100
100
100
100
391.546
374.68
357.94
341.408
325.162
309.278
293.824
278.864
264.454
250.643
237.472
224.973
213.172
202.085
191.721
182.081
173.158
164.94
157.409
150.542
144.312
138.687
133.634
129.117
125.1
121.544
118.412
115.667
113.274
111.197
109.404
107.863
106.546
105.425
104.477
103.677
103.007
102.449
101.985
101.601
101.286
101.029
100.819
100.649
100.512
100.402
100.314
100.245
100.189
100.146
100.112
100.086
100.065
100.049
100.037
100.028
100.021
100.016
100.011
100.008
100.006
100.005
100.003
100.002
100.002
100.001
100.001
100.001
100
100
100
100
100
100
100
391.546
374.68
357.941
341.409
325.163
309.279
293.825
278.865
264.455
250.644
237.473
224.974
213.174
202.087
191.722
182.082
173.159
164.941
157.41
150.544
144.313
138.688
133.635
129.118
125.1
121.544
118.412
115.668
113.274
111.198
109.404
107.864
106.546
105.426
104.477
103.678
103.008
102.449
101.985
101.601
101.286
101.029
100.819
100.649
100.512
100.402
100.314
100.245
100.189
100.146
100.112
100.086
100.065
100.049
100.037
100.028
100.021
100.016
100.011
100.008
100.006
100.005
100.003
100.002
100.002
100.001
100.001
100.001
100
100
100
100
100
100
100
391.546
374.681
357.941
341.409
325.164
309.279
293.826
278.866
264.456
250.645
237.474
224.975
213.175
202.088
191.723
182.083
173.16
164.942
157.411
150.544
144.314
138.689
133.636
129.119
125.101
121.545
118.413
115.668
113.275
111.198
109.405
107.864
106.547
105.426
104.477
103.678
103.008
102.449
101.985
101.601
101.286
101.029
100.819
100.649
100.512
100.402
100.314
100.245
100.189
100.146
100.112
100.086
100.065
100.049
100.037
100.028
100.021
100.016
100.011
100.008
100.006
100.005
100.003
100.002
100.002
100.001
100.001
100.001
100
100
100
100
100
100
100
391.546
374.681
357.941
341.409
325.164
309.28
293.826
278.866
264.456
250.645
237.474
224.976
213.175
202.088
191.724
182.083