/*--------------------------------*- C++ -*----------------------------------*\
  =========                 |
  \\      /  F ield         | OpenFOAM: The Open Source CFD Toolbox
   \\    /   O peration     | Website:  https://openfoam.org
    \\  /    A nd           | Version:  10
     \\/     M anipulation  |
\*---------------------------------------------------------------------------*/
FoamFile
{
    format      ascii;
    class       volScalarField;
    location    "427";
    object      T;
}
// * * * * * * * * * * * * * * * * * * * * * * * * * * * * * * * * * * * * * //

dimensions      [0 0 0 1 0 0 0];

internalField   nonuniform List<scalar> 
11250
(
249.876
167.656
139.523
127.17
120.454
116.211
113.255
111.057
109.347
107.974
106.845
105.899
105.097
104.409
103.816
103.301
102.853
102.462
102.12
101.822
101.562
101.335
101.138
100.967
100.818
100.69
100.58
100.486
100.406
100.337
100.279
100.23
100.189
100.154
100.126
100.102
100.082
100.066
100.053
100.042
100.033
100.026
100.021
100.016
100.013
100.01
100.008
100.006
100.004
100.003
100.003
100.002
100.001
100.001
100.001
100.001
100
100
100
100
100
100
100
100
100
100
100
100
100
100
100
100
100
100
100
331.599
248.884
202.798
175.881
158.9
147.361
139.022
132.698
127.723
123.698
120.371
117.575
115.197
113.156
111.391
109.858
108.522
107.356
106.337
105.447
104.67
103.992
103.403
102.891
102.448
102.066
101.737
101.455
101.214
101.009
100.835
100.688
100.565
100.462
100.376
100.305
100.246
100.198
100.158
100.126
100.1
100.079
100.062
100.049
100.038
100.029
100.023
100.017
100.013
100.01
100.008
100.006
100.004
100.003
100.002
100.002
100.001
100.001
100.001
100.001
100
100
100
100
100
100
100
100
100
100
100
100
100
100
100
359.239
293.495
246.922
214.682
191.939
175.351
162.818
153.041
145.204
138.782
133.426
128.897
125.026
121.69
118.799
116.282
114.085
112.165
110.485
109.015
107.732
106.612
105.637
104.79
104.057
103.424
102.879
102.412
102.013
101.673
101.385
101.142
100.938
100.767
100.624
100.506
100.409
100.328
100.263
100.209
100.166
100.131
100.103
100.081
100.063
100.049
100.038
100.029
100.022
100.017
100.013
100.01
100.007
100.005
100.004
100.003
100.002
100.002
100.001
100.001
100.001
100
100
100
100
100
100
100
100
100
100
100
100
100
100
371.106
318.957
276.744
244.029
218.877
199.352
183.934
171.527
161.361
152.897
145.756
139.666
134.426
129.889
125.941
122.493
119.476
116.834
114.519
112.491
110.718
109.169
107.82
106.648
105.632
104.754
103.998
103.35
102.796
102.325
101.925
101.587
101.303
101.066
100.868
100.704
100.568
100.457
100.365
100.291
100.231
100.182
100.143
100.112
100.087
100.068
100.052
100.04
100.031
100.023
100.018
100.013
100.01
100.007
100.006
100.004
100.003
100.002
100.002
100.001
100.001
100.001
100
100
100
100
100
100
100
100
100
100
100
100
100
377.345
334.507
297.112
265.874
240.264
219.337
202.145
187.889
175.941
165.824
157.178
149.73
143.274
137.65
132.732
128.422
124.639
121.317
118.401
115.843
113.602
111.643
109.935
108.449
107.16
106.046
105.087
104.263
103.559
102.959
102.451
102.021
101.66
101.358
101.106
100.897
100.724
100.582
100.466
100.371
100.294
100.232
100.183
100.143
100.111
100.086
100.067
100.051
100.039
100.03
100.023
100.017
100.013
100.01
100.007
100.005
100.004
100.003
100.002
100.002
100.001
100.001
100.001
100
100
100
100
100
100
100
100
100
100
100
100
381.121
344.65
311.381
282.169
257.067
235.703
217.553
202.09
188.852
177.453
167.582
158.99
151.481
144.896
139.108
134.014
129.527
125.576
122.099
119.043
116.362
114.014
111.965
110.18
108.631
107.291
106.136
105.144
104.296
103.573
102.96
102.442
102.006
101.641
101.336
101.084
100.875
100.704
100.563
100.449
100.356
100.281
100.221
100.173
100.135
100.104
100.081
100.062
100.047
100.036
100.027
100.021
100.015
100.012
100.009
100.006
100.005
100.003
100.003
100.002
100.001
100.001
100.001
100
100
100
100
100
100
100
100
100
100
100
100
383.625
351.633
321.66
294.448
270.252
248.997
230.434
214.248
200.121
187.763
176.925
167.394
158.994
151.578
145.024
139.229
134.105
129.58
125.586
122.069
118.978
116.267
113.897
111.831
110.036
108.481
107.141
105.989
105.003
104.162
103.449
102.846
102.338
101.913
101.558
101.264
101.021
100.821
100.657
100.524
100.415
100.328
100.258
100.202
100.157
100.122
100.094
100.072
100.055
100.042
100.032
100.024
100.018
100.014
100.01
100.007
100.005
100.004
100.003
100.002
100.002
100.001
100.001
100.001
100
100
100
100
100
100
100
100
100
100
100
385.385
356.645
329.259
303.821
280.634
259.765
241.129
224.557
209.848
196.799
185.217
174.932
165.794
157.672
150.453
144.041
138.35
133.307
128.844
124.905
121.436
118.388
115.72
113.391
111.366
109.61
108.095
106.791
105.675
104.723
103.915
103.231
102.656
102.173
101.771
101.437
101.16
100.933
100.747
100.596
100.473
100.373
100.293
100.23
100.179
100.139
100.107
100.082
100.063
100.048
100.036
100.027
100.021
100.015
100.011
100.008
100.006
100.005
100.003
100.002
100.002
100.001
100.001
100.001
100
100
100
100
100
100
100
100
100
100
100
386.673
360.359
335.001
311.07
288.856
268.488
249.974
233.243
218.178
204.645
192.505
181.626
171.886
163.173
155.387
148.438
142.248
136.744
131.861
127.539
123.725
120.37
117.427
114.855
112.616
110.673
108.994
107.549
106.311
105.254
104.356
103.596
102.957
102.42
101.973
101.601
101.293
101.04
100.833
100.664
100.527
100.416
100.327
100.256
100.2
100.155
100.12
100.092
100.07
100.054
100.041
100.031
100.023
100.017
100.013
100.009
100.007
100.005
100.004
100.003
100.002
100.001
100.001
100.001
100.001
100
100
100
100
100
100
100
100
100
100
387.644
363.178
339.419
316.743
295.409
275.569
257.28
240.531
225.268
211.409
198.859
187.52
177.296
168.094
159.83
152.422
145.797
139.887
134.629
129.965
125.841
122.205
119.012
116.217
113.781
111.665
109.835
108.259
106.907
105.753
104.771
103.94
103.24
102.653
102.163
101.756
101.419
101.141
100.914
100.729
100.578
100.457
100.359
100.281
100.219
100.17
100.131
100.101
100.077
100.059
100.045
100.034
100.025
100.019
100.014
100.01
100.008
100.006
100.004
100.003
100.002
100.002
100.001
100.001
100.001
100
100
100
100
100
100
100
100
100
100
388.389
365.357
342.868
321.228
300.664
281.33
263.31
246.63
231.276
217.207
204.361
192.671
182.063
172.463
163.799
156
149.001
142.738
137.15
132.182
127.78
123.893
120.473
117.476
114.86
112.586
110.617
108.92
107.463
106.218
105.159
104.262
103.506
102.871
102.341
101.901
101.536
101.236
100.99
100.79
100.627
100.495
100.39
100.305
100.238
100.185
100.143
100.11
100.084
100.064
100.048
100.037
100.027
100.02
100.015
100.011
100.008
100.006
100.004
100.003
100.002
100.002
100.001
100.001
100.001
100
100
100
100
100
100
100
100
100
100
388.972
367.065
345.592
324.804
304.901
286.031
268.289
251.725
236.35
222.153
209.1
197.145
186.235
176.313
167.318
159.191
151.872
145.304
139.429
134.193
129.544
125.432
121.809
118.63
115.851
113.433
111.338
109.53
107.977
106.649
105.518
104.561
103.753
103.074
102.508
102.036
101.646
101.325
101.062
100.847
100.672
100.531
100.418
100.327
100.255
100.198
100.153
100.118
100.09
100.069
100.052
100.039
100.029
100.022
100.016
100.012
100.009
100.007
100.005
100.003
100.003
100.002
100.001
100.001
100.001
100
100
100
100
100
100
100
100
100
100
389.433
368.419
347.763
327.675
308.334
289.877
272.403
255.975
240.624
226.357
213.161
201.009
189.865
179.684
170.418
162.016
154.427
147.596
141.472
136.003
131.138
126.827
123.023
119.68
116.756
114.208
111.998
110.09
108.449
107.046
105.85
104.836
103.981
103.262
102.661
102.162
101.748
101.407
101.128
100.9
100.714
100.565
100.444
100.348
100.271
100.211
100.163
100.125
100.096
100.073
100.055
100.042
100.031
100.023
100.017
100.013
100.01
100.007
100.005
100.004
100.003
100.002
100.001
100.001
100.001
100
100
100
100
100
100
100
100
100
100
389.8
369.502
349.506
329.994
311.125
293.029
275.803
259.518
244.216
229.918
216.628
204.331
193.005
182.618
173.131
164.502
156.685
149.632
143.294
137.622
132.567
128.082
124.118
120.631
117.576
114.912
112.599
110.6
108.88
107.408
106.153
105.089
104.19
103.434
102.803
102.277
101.842
101.483
101.189
100.948
100.753
100.596
100.469
100.367
100.286
100.222
100.172
100.132
100.101
100.077
100.058
100.044
100.033
100.025
100.018
100.014
100.01
100.007
100.005
100.004
100.003
100.002
100.001
100.001
100.001
100.001
100
100
100
100
100
100
100
100
100
390.095
370.373
350.912
331.874
313.402
295.616
278.614
262.468
247.228
232.926
219.575
207.174
195.709
185.158
175.493
166.676
158.668
151.427
144.906
139.06
133.841
129.203
125.099
121.484
118.314
115.547
113.142
111.062
109.272
107.737
106.429
105.318
104.38
103.592
102.932
102.383
101.928
101.552
101.245
100.993
100.789
100.624
100.491
100.385
100.3
100.233
100.18
100.138
100.106
100.081
100.061
100.046
100.035
100.026
100.019
100.014
100.011
100.008
100.006
100.004
100.003
100.002
100.002
100.001
100.001
100.001
100
100
100
100
100
100
100
100
100
390.333
371.077
352.053
333.405
315.264
297.744
280.939
264.922
249.75
235.46
222.073
209.596
198.026
187.347
177.537
168.566
160.4
153
146.325
140.329
134.969
130.199
125.973
122.246
118.974
116.116
113.63
111.478
109.624
108.035
106.678
105.527
104.553
103.735
103.049
102.479
102.006
101.616
101.296
101.034
100.822
100.65
100.512
100.401
100.313
100.243
100.188
100.144
100.11
100.084
100.064
100.048
100.036
100.027
100.02
100.015
100.011
100.008
100.006
100.004
100.003
100.002
100.002
100.001
100.001
100.001
100
100
100
100
100
100
100
100
100
390.526
371.648
352.98
334.653
316.789
299.494
282.861
266.963
251.858
237.589
224.183
211.654
200.003
189.224
179.298
170.201
161.904
154.372
147.565
141.443
135.962
131.078
126.746
122.921
119.561
116.623
114.065
111.849
109.94
108.301
106.902
105.714
104.709
103.863
103.155
102.565
102.076
101.673
101.342
101.071
100.851
100.673
100.53
100.415
100.324
100.252
100.194
100.15
100.115
100.087
100.066
100.05
100.038
100.028
100.021
100.015
100.011
100.008
100.006
100.004
100.003
100.002
100.002
100.001
100.001
100.001
100
100
100
100
100
100
100
100
100
390.683
372.113
353.735
335.673
318.039
300.935
284.449
268.656
253.616
239.374
225.96
213.395
201.684
190.826
180.807
171.609
163.204
155.561
148.645
142.415
136.831
131.849
127.426
123.517
120.08
117.071
114.451
112.18
110.221
108.539
107.102
105.881
104.848
103.979
103.25
102.643
102.14
101.724
101.383
101.105
100.878
100.695
100.547
100.429
100.334
100.26
100.201
100.154
100.118
100.09
100.068
100.052
100.039
100.029
100.022
100.016
100.012
100.009
100.006
100.005
100.003
100.002
100.002
100.001
100.001
100.001
100
100
100
100
100
100
100
100
100
390.81
372.491
354.352
336.507
319.064
302.12
285.761
270.061
255.08
240.866
227.453
214.863
203.107
192.188
182.095
172.814
164.321
156.587
149.579
143.259
137.587
132.522
128.02
124.039
120.535
117.466
114.791
112.471
110.469
108.749
107.28
106.03
104.972
104.081
103.335
102.713
102.197
101.771
101.421
101.134
100.902
100.714
100.562
100.441
100.344
100.267
100.206
100.159
100.122
100.093
100.07
100.053
100.04
100.03
100.022
100.016
100.012
100.009
100.007
100.005
100.003
100.002
100.002
100.001
100.001
100.001
100
100
100
100
100
100
100
100
100
390.914
372.8
354.855
337.189
319.904
303.094
286.843
271.224
256.296
242.11
228.702
216.096
204.308
193.341
183.19
173.842
165.276
157.467
150.382
143.986
138.241
133.105
128.537
124.494
120.933
117.812
115.09
112.727
110.688
108.935
107.436
106.161
105.081
104.172
103.41
102.774
102.247
101.811
101.454
101.161
100.923
100.731
100.575
100.451
100.352
100.273
100.211
100.163
100.125
100.095
100.072
100.054
100.041
100.031
100.023
100.017
100.012
100.009
100.007
100.005
100.004
100.003
100.002
100.001
100.001
100.001
100
100
100
100
100
100
100
100
100
390.999
373.052
355.266
337.747
320.593
303.895
287.735
272.185
257.305
243.145
229.745
217.13
205.317
194.313
184.116
174.714
166.09
158.218
151.07
144.611
138.804
133.609
128.984
124.888
121.278
118.112
115.35
112.951
110.879
109.097
107.573
106.276
105.178
104.252
103.476
102.829
102.291
101.848
101.483
101.185
100.942
100.746
100.587
100.461
100.359
100.279
100.216
100.166
100.127
100.097
100.074
100.056
100.042
100.031
100.023
100.017
100.013
100.009
100.007
100.005
100.004
100.003
100.002
100.001
100.001
100.001
100
100
100
100
100
100
100
100
100
391.068
373.257
355.602
338.204
321.158
304.553
288.469
272.977
258.139
244.004
230.613
217.992
206.162
195.13
184.896
175.451
166.779
158.857
151.656
145.145
139.286
134.041
129.369
125.228
121.577
118.372
115.575
113.145
111.045
109.239
107.693
106.377
105.262
104.322
103.534
102.877
102.331
101.879
101.509
101.205
100.959
100.759
100.598
100.469
100.366
100.284
100.22
100.169
100.13
100.099
100.075
100.057
100.043
100.032
100.024
100.018
100.013
100.01
100.007
100.005
100.004
100.003
100.002
100.001
100.001
100.001
100
100
100
100
100
100
100
100
100
391.125
373.424
355.876
338.576
321.619
305.091
289.071
273.63
258.828
244.715
231.333
218.71
206.867
195.813
185.551
176.071
167.36
159.397
152.153
145.598
139.697
134.41
129.698
125.519
121.833
118.596
115.769
113.313
111.188
109.361
107.797
106.464
105.335
104.383
103.585
102.918
102.365
101.907
101.531
101.224
100.973
100.771
100.607
100.476
100.372
100.289
100.223
100.172
100.132
100.1
100.076
100.058
100.043
100.032
100.024
100.018
100.013
100.01
100.007
100.005
100.004
100.003
100.002
100.001
100.001
100.001
100
100
100
100
100
100
100
100
100
391.17
373.561
356.099
338.88
321.996
305.532
289.565
274.166
259.395
245.302
231.928
219.305
207.453
196.383
186.098
176.591
167.849
159.851
152.572
145.982
140.044
134.723
129.978
125.768
122.051
118.788
115.936
113.456
111.312
109.466
107.886
106.54
105.398
104.436
103.628
102.954
102.394
101.931
101.551
101.239
100.986
100.781
100.615
100.483
100.377
100.293
100.226
100.174
100.134
100.102
100.077
100.058
100.044
100.033
100.024
100.018
100.013
100.01
100.007
100.005
100.004
100.003
100.002
100.001
100.001
100.001
100
100
100
100
100
100
100
100
100
391.208
373.672
356.28
339.128
322.304
305.892
289.969
274.605
259.86
245.784
232.42
219.797
207.939
196.856
186.553
177.024
168.257
160.232
152.925
146.305
140.338
134.988
130.215
125.978
122.237
118.951
116.078
113.579
111.417
109.557
107.963
106.604
105.453
104.481
103.666
102.985
102.42
101.952
101.568
101.253
100.997
100.789
100.622
100.488
100.381
100.296
100.229
100.176
100.135
100.103
100.078
100.059
100.044
100.033
100.025
100.018
100.014
100.01
100.007
100.005
100.004
100.003
100.002
100.001
100.001
100.001
100
100
100
100
100
100
100
100
100
391.238
373.762
356.428
339.329
322.554
306.185
290.299
274.964
260.241
246.18
232.824
220.203
208.34
197.248
186.931
177.384
168.597
160.55
153.219
146.575
140.584
135.21
130.414
126.156
122.394
119.089
116.198
113.684
111.507
109.633
108.028
106.66
105.499
104.52
103.698
103.012
102.442
101.97
101.582
101.265
101.006
100.797
100.628
100.493
100.385
100.299
100.231
100.178
100.137
100.104
100.079
100.06
100.045
100.034
100.025
100.019
100.014
100.01
100.007
100.005
100.004
100.003
100.002
100.001
100.001
100.001
100.001
100
100
100
100
100
100
100
100
391.262
373.834
356.547
339.492
322.757
306.423
290.567
275.257
260.552
246.504
233.154
220.535
208.669
197.57
187.242
177.682
168.879
160.814
153.464
146.801
140.79
135.397
130.582
126.305
122.527
119.205
116.3
113.772
111.583
109.698
108.083
106.707
105.539
104.553
103.726
103.035
102.46
101.985
101.595
101.275
101.015
100.804
100.633
100.497
100.388
100.302
100.233
100.18
100.138
100.105
100.08
100.06
100.045
100.034
100.025
100.019
100.014
100.01
100.007
100.005
100.004
100.003
100.002
100.001
100.001
100.001
100.001
100
100
100
100
100
100
100
100
391.282
373.893
356.644
339.624
322.921
306.616
290.785
275.494
260.805
246.768
233.425
220.807
208.94
197.835
187.499
177.928
169.111
161.032
153.667
146.988
140.961
135.552
130.721
126.43
122.637
119.302
116.385
113.846
111.647
109.753
108.13
106.746
105.572
104.581
103.749
103.054
102.476
101.998
101.605
101.284
101.021
100.809
100.638
100.5
100.391
100.304
100.235
100.181
100.139
100.106
100.08
100.061
100.046
100.034
100.025
100.019
100.014
100.01
100.007
100.005
100.004
100.003
100.002
100.001
100.001
100.001
100.001
100
100
100
100
100
100
100
100
391.298
373.941
356.722
339.731
323.054
306.772
290.961
275.687
261.011
246.982
233.644
221.029
209.16
198.051
187.709
178.129
169.303
161.212
153.835
147.142
141.103
135.68
130.837
126.534
122.729
119.383
116.456
113.908
111.701
109.799
108.169
106.779
105.6
104.605
103.769
103.07
102.49
102.009
101.614
101.291
101.027
100.814
100.642
100.503
100.393
100.306
100.236
100.182
100.14
100.106
100.081
100.061
100.046
100.034
100.026
100.019
100.014
100.01
100.008
100.005
100.004
100.003
100.002
100.001
100.001
100.001
100.001
100
100
100
100
100
100
100
100
391.311
373.979
356.785
339.817
323.161
306.898
291.103
275.843
261.177
247.156
233.823
221.209
209.34
198.228
187.88
178.294
169.459
161.36
153.972
147.27
141.219
135.786
130.933
126.619
122.805
119.451
116.515
113.959
111.745
109.838
108.202
106.807
105.624
104.625
103.785
103.084
102.501
102.019
101.622
101.297
101.032
100.818
100.645
100.506
100.395
100.307
100.238
100.183
100.14
100.107
100.081
100.061
100.046
100.035
100.026
100.019
100.014
100.01
100.008
100.005
100.004
100.003
100.002
100.001
100.001
100.001
100.001
100
100
100
100
100
100
100
100
391.321
374.01
356.835
339.886
323.247
307
291.217
275.968
261.311
247.296
233.967
221.355
209.485
198.371
188.019
178.428
169.587
161.48
154.085
147.374
141.315
135.874
131.012
126.69
122.868
119.506
116.564
114.002
111.782
109.869
108.229
106.83
105.643
104.641
103.799
103.095
102.51
102.026
101.628
101.302
101.036
100.821
100.647
100.508
100.397
100.309
100.239
100.184
100.141
100.107
100.082
100.062
100.046
100.035
100.026
100.019
100.014
100.01
100.008
100.006
100.004
100.003
100.002
100.001
100.001
100.001
100.001
100
100
100
100
100
100
100
100
391.329
374.034
356.875
339.941
323.316
307.081
291.309
276.069
261.418
247.409
234.083
221.473
209.602
198.487
188.132
178.536
169.69
161.578
154.176
147.458
141.393
135.945
131.076
126.748
122.92
119.552
116.604
114.037
111.813
109.896
108.252
106.85
105.659
104.655
103.81
103.105
102.518
102.033
101.633
101.306
101.04
100.824
100.65
100.51
100.398
100.31
100.24
100.185
100.141
100.108
100.082
100.062
100.047
100.035
100.026
100.019
100.014
100.01
100.008
100.006
100.004
100.003
100.002
100.001
100.001
100.001
100.001
100
100
100
100
100
100
100
100
391.336
374.054
356.907
339.985
323.371
307.145
291.383
276.149
261.504
247.499
234.176
221.567
209.697
198.58
188.223
178.624
169.774
161.657
154.25
147.527
141.456
136.003
131.129
126.795
122.962
119.589
116.637
114.065
111.838
109.917
108.27
106.865
105.673
104.666
103.82
103.113
102.525
102.038
101.638
101.31
101.043
100.826
100.651
100.511
100.399
100.311
100.24
100.185
100.142
100.108
100.082
100.062
100.047
100.035
100.026
100.019
100.014
100.01
100.008
100.006
100.004
100.003
100.002
100.001
100.001
100.001
100.001
100
100
100
100
100
100
100
100
391.341
374.069
356.933
340.02
323.414
307.197
291.441
276.213
261.573
247.572
234.25
221.643
209.772
198.655
188.296
178.695
169.841
161.721
154.31
147.583
141.508
136.049
131.171
126.833
122.996
119.62
116.664
114.089
111.858
109.935
108.285
106.878
105.684
104.675
103.827
103.119
102.53
102.043
101.641
101.313
101.045
100.828
100.653
100.512
100.4
100.311
100.241
100.186
100.142
100.108
100.082
100.062
100.047
100.035
100.026
100.019
100.014
100.01
100.008
100.006
100.004
100.003
100.002
100.001
100.001
100.001
100.001
100
100
100
100
100
100
100
100
391.345
374.081
356.953
340.047
323.449
307.238
291.487
276.264
261.628
247.629
234.31
221.703
209.833
198.714
188.354
178.751
169.895
161.772
154.358
147.628
141.549
136.087
131.205
126.864
123.024
119.644
116.685
114.108
111.874
109.949
108.298
106.889
105.693
104.682
103.834
103.124
102.534
102.046
101.644
101.315
101.047
100.83
100.654
100.513
100.401
100.312
100.241
100.186
100.142
100.109
100.083
100.062
100.047
100.035
100.026
100.019
100.014
100.011
100.008
100.006
100.004
100.003
100.002
100.001
100.001
100.001
100.001
100
100
100
100
100
100
100
100
391.349
374.091
356.969
340.069
323.476
307.27
291.524
276.305
261.671
247.674
234.357
221.751
209.881
198.762
188.401
178.796
169.938
161.813
154.397
147.663
141.582
136.118
131.233
126.889
123.046
119.664
116.703
114.123
111.888
109.961
108.308
106.897
105.7
104.689
103.839
103.129
102.538
102.049
101.647
101.317
101.049
100.831
100.655
100.514
100.402
100.312
100.242
100.186
100.143
100.109
100.083
100.062
100.047
100.035
100.026
100.019
100.014
100.011
100.008
100.006
100.004
100.003
100.002
100.001
100.001
100.001
100.001
100
100
100
100
100
100
100
100
391.351
374.099
356.981
340.086
323.498
307.296
291.553
276.336
261.705
247.71
234.394
221.788
209.919
198.799
188.438
178.832
169.973
161.845
154.427
147.692
141.608
136.142
131.255
126.909
123.064
119.68
116.717
114.136
111.899
109.97
108.316
106.904
105.706
104.694
103.843
103.132
102.541
102.051
101.649
101.319
101.05
100.832
100.656
100.515
100.402
100.313
100.242
100.186
100.143
100.109
100.083
100.063
100.047
100.035
100.026
100.019
100.014
100.011
100.008
100.006
100.004
100.003
100.002
100.001
100.001
100.001
100.001
100
100
100
100
100
100
100
100
391.353
374.105
356.991
340.1
323.515
307.316
291.575
276.361
261.732
247.739
234.423
221.818
209.948
198.829
188.467
178.86
170
161.871
154.451
147.715
141.629
136.161
131.273
126.925
123.078
119.693
116.728
114.145
111.907
109.977
108.322
106.91
105.71
104.697
103.846
103.135
102.543
102.053
101.65
101.32
101.051
100.833
100.657
100.515
100.403
100.313
100.242
100.187
100.143
100.109
100.083
100.063
100.047
100.035
100.026
100.019
100.014
100.011
100.008
100.006
100.004
100.003
100.002
100.002
100.001
100.001
100.001
100
100
100
100
100
100
100
100
391.355
374.109
356.999
340.11
323.528
307.331
291.593
276.381
261.753
247.761
234.446
221.842
209.972
198.852
188.489
178.882
170.021
161.891
154.471
147.733
141.646
136.176
131.286
126.938
123.09
119.703
116.737
114.153
111.914
109.983
108.327
106.914
105.714
104.701
103.849
103.137
102.545
102.055
101.651
101.321
101.052
100.833
100.657
100.516
100.403
100.313
100.243
100.187
100.143
100.109
100.083
100.063
100.047
100.035
100.026
100.02
100.014
100.011
100.008
100.006
100.004
100.003
100.002
100.002
100.001
100.001
100.001
100
100
100
100
100
100
100
100
391.356
374.113
357.005
340.119
323.538
307.343
291.607
276.396
261.769
247.778
234.464
221.86
209.99
198.871
188.507
178.899
170.038
161.907
154.486
147.747
141.659
136.188
131.297
126.947
123.099
119.711
116.744
114.159
111.919
109.988
108.331
106.917
105.717
104.703
103.851
103.139
102.546
102.056
101.652
101.322
101.052
100.834
100.658
100.516
100.403
100.314
100.243
100.187
100.143
100.109
100.083
100.063
100.047
100.035
100.026
100.02
100.014
100.011
100.008
100.006
100.004
100.003
100.002
100.002
100.001
100.001
100.001
100
100
100
100
100
100
100
100
391.357
374.116
357.009
340.125
323.546
307.353
291.618
276.408
261.782
247.791
234.478
221.874
210.005
198.885
188.521
178.913
170.051
161.92
154.497
147.758
141.669
136.198
131.306
126.955
123.106
119.717
116.75
114.164
111.924
109.992
108.335
106.92
105.719
104.705
103.853
103.14
102.547
102.057
101.653
101.322
101.053
100.834
100.658
100.517
100.404
100.314
100.243
100.187
100.143
100.109
100.083
100.063
100.047
100.035
100.026
100.02
100.014
100.011
100.008
100.006
100.004
100.003
100.002
100.002
100.001
100.001
100.001
100
100
100
100
100
100
100
100
391.358
374.118
357.013
340.13
323.552
307.36
291.626
276.417
261.792
247.802
234.488
221.885
210.016
198.896
188.532
178.924
170.061
161.929
154.507
147.766
141.677
136.205
131.313
126.961
123.111
119.722
116.754
114.168
111.927
109.995
108.337
106.922
105.721
104.707
103.854
103.141
102.548
102.058
101.654
101.323
101.053
100.835
100.658
100.517
100.404
100.314
100.243
100.187
100.143
100.109
100.083
100.063
100.047
100.035
100.026
100.02
100.014
100.011
100.008
100.006
100.004
100.003
100.002
100.002
100.001
100.001
100.001
100
100
100
100
100
100
100
100
391.358
374.12
357.016
340.134
323.557
307.366
291.632
276.424
261.8
247.81
234.497
221.894
210.024
198.904
188.541
178.932
170.069
161.937
154.514
147.773
141.683
136.211
131.318
126.966
123.115
119.726
116.757
114.171
111.93
109.997
108.339
106.924
105.723
104.708
103.855
103.142
102.549
102.058
101.654
101.323
101.054
100.835
100.659
100.517
100.404
100.314
100.243
100.187
100.144
100.11
100.083
100.063
100.047
100.035
100.026
100.02
100.014
100.011
100.008
100.006
100.004
100.003
100.002
100.002
100.001
100.001
100.001
100
100
100
100
100
100
100
100
391.359
374.121
357.018
340.137
323.561
307.37
291.637
276.43
261.805
247.816
234.503
221.9
210.031
198.911
188.547
178.938
170.075
161.943
154.519
147.778
141.688
136.215
131.322
126.97
123.119
119.729
116.76
114.174
111.932
109.999
108.341
106.925
105.724
104.709
103.856
103.143
102.55
102.059
101.655
101.324
101.054
100.835
100.659
100.517
100.404
100.314
100.243
100.187
100.144
100.11
100.083
100.063
100.047
100.035
100.026
100.02
100.014
100.011
100.008
100.006
100.004
100.003
100.002
100.002
100.001
100.001
100.001
100
100
100
100
100
100
100
100
391.359
374.122
357.02
340.139
323.564
307.373
291.641
276.434
261.81
247.821
234.508
221.905
210.036
198.916
188.552
178.943
170.08
161.947
154.523
147.782
141.692
136.219
131.325
126.973
123.121
119.731
116.762
114.175
111.933
110
108.342
106.926
105.725
104.71
103.857
103.143
102.55
102.059
101.655
101.324
101.054
100.835
100.659
100.517
100.404
100.314
100.243
100.187
100.144
100.11
100.083
100.063
100.047
100.035
100.026
100.02
100.014
100.011
100.008
100.006
100.004
100.003
100.002
100.002
100.001
100.001
100.001
100
100
100
100
100
100
100
100
391.359
374.123
357.021
340.14
323.566
307.376
291.644
276.437
261.813
247.824
234.512
221.909
210.04
198.92
188.556
178.947
170.083
161.95
154.527
147.785
141.695
136.221
131.327
126.975
123.123
119.733
116.764
114.177
111.935
110.001
108.343
106.927
105.725
104.71
103.857
103.144
102.55
102.059
101.655
101.324
101.054
100.835
100.659
100.517
100.404
100.314
100.243
100.187
100.144
100.11
100.083
100.063
100.047
100.035
100.026
100.02
100.014
100.011
100.008
100.006
100.004
100.003
100.002
100.002
100.001
100.001
100.001
100
100
100
100
100
100
100
100
391.359
374.123
357.022
340.142
323.567
307.378
291.646
276.439
261.816
247.827
234.515
221.912
210.043
198.923
188.559
178.949
170.086
161.953
154.529
147.787
141.697
136.223
131.329
126.976
123.125
119.734
116.765
114.178
111.936
110.002
108.343
106.928
105.726
104.711
103.857
103.144
102.551
102.06
101.655
101.324
101.054
100.836
100.659
100.517
100.404
100.314
100.243
100.187
100.144
100.11
100.083
100.063
100.047
100.035
100.026
100.02
100.014
100.011
100.008
100.006
100.004
100.003
100.002
100.002
100.001
100.001
100.001
100
100
100
100
100
100
100
100
391.36
374.124
357.022
340.143
323.569
307.379
291.648
276.441
261.818
247.829
234.517
221.914
210.045
198.925
188.561
178.951
170.088
161.955
154.531
147.789
141.698
136.225
131.331
126.978
123.126
119.735
116.766
114.179
111.936
110.003
108.344
106.928
105.726
104.711
103.858
103.144
102.551
102.06
101.656
101.324
101.054
100.836
100.659
100.517
100.404
100.314
100.243
100.187
100.144
100.11
100.083
100.063
100.047
100.035
100.026
100.02
100.014
100.011
100.008
100.006
100.004
100.003
100.002
100.002
100.001
100.001
100.001
100
100
100
100
100
100
100
100
391.36
374.124
357.023
340.143
323.569
307.38
291.649
276.442
261.819
247.831
234.518
221.916
210.047
198.927
188.563
178.953
170.09
161.956
154.532
147.79
141.7
136.226
131.332
126.979
123.127
119.736
116.766
114.179
111.937
110.003
108.344
106.929
105.727
104.711
103.858
103.145
102.551
102.06
101.656
101.324
101.055
100.836
100.659
100.517
100.404
100.314
100.243
100.187
100.144
100.11
100.083
100.063
100.047
100.035
100.026
100.02
100.014
100.011
100.008
100.006
100.004
100.003
100.002
100.002
100.001
100.001
100.001
100
100
100
100
100
100
100
100
391.36
374.124
357.023
340.144
323.57
307.381
291.65
276.443
261.82
247.832
234.52
221.917
210.048
198.928
188.564
178.954
170.091
161.958
154.533
147.791
141.701
136.227
131.333
126.979
123.127
119.737
116.767
114.18
111.937
110.004
108.345
106.929
105.727
104.711
103.858
103.145
102.551
102.06
101.656
101.325
101.055
100.836
100.659
100.517
100.404
100.314
100.243
100.187
100.144
100.11
100.083
100.063
100.047
100.035
100.026
100.02
100.014
100.011
100.008
100.006
100.004
100.003
100.002
100.002
100.001
100.001
100.001
100
100
100
100
100
100
100
100
391.36
374.125
357.024
340.144
323.571
307.382
291.651
276.444
261.821
247.833
234.52
221.918
210.049
198.929
188.565
178.955
170.092
161.958
154.534
147.792
141.701
136.227
131.333
126.98
123.128
119.737
116.767
114.18
111.937
110.004
108.345
106.929
105.727
104.712
103.858
103.145
102.551
102.06
101.656
101.325
101.055
100.836
100.659
100.517
100.404
100.314
100.243
100.187
100.144
100.11
100.083
100.063
100.047
100.035
100.026
100.02
100.014
100.011
100.008
100.006
100.004
100.003
100.002
100.002
100.001
100.001
100.001
100
100
100
100
100
100
100
100
391.36
374.125
357.024
340.145
323.571
307.382
291.651
276.445
261.822
247.833
234.521
221.918
210.049
198.929
188.565
178.956
170.092
161.959
154.535
147.793
141.702
136.228
131.334
126.98
123.128
119.737
116.768
114.18
111.938
110.004
108.345
106.929
105.727
104.712
103.858
103.145
102.551
102.06
101.656
101.325
101.055
100.836
100.659
100.517
100.404
100.314
100.243
100.187
100.144
100.11
100.083
100.063
100.047
100.035
100.026
100.02
100.014
100.011
100.008
100.006
100.004
100.003
100.002
100.002
100.001
100.001
100.001
100
100
100
100
100
100
100
100
391.36
374.125
357.024
340.145
323.571
307.382
291.651
276.445
261.822
247.834
234.522
221.919
210.05
198.93
188.566
178.956
170.093
161.96
154.535
147.793
141.702
136.228
131.334
126.981
123.129
119.738
116.768
114.18
111.938
110.004
108.345
106.929
105.727
104.712
103.858
103.145
102.551
102.06
101.656
101.325
101.055
100.836
100.659
100.517
100.404
100.314
100.243
100.187
100.144
100.11