/*--------------------------------*- C++ -*----------------------------------*\
  =========                 |
  \\      /  F ield         | OpenFOAM: The Open Source CFD Toolbox
   \\    /   O peration     | Website:  https://openfoam.org
    \\  /    A nd           | Version:  10
     \\/     M anipulation  |
\*---------------------------------------------------------------------------*/
FoamFile
{
    format      ascii;
    class       volScalarField;
    location    "219";
    object      gradTx;
}
// * * * * * * * * * * * * * * * * * * * * * * * * * * * * * * * * * * * * * //

dimensions      [0 -1 0 1 0 0 0];

internalField   nonuniform List<scalar> 
11250
(
14287.6
8067.44
5250.37
3745.84
2827.99
2210.14
1764.19
1426.27
1161.43
949.063
776.157
634.031
516.584
419.324
338.808
272.297
217.556
172.717
136.197
106.642
82.8894
63.9414
48.9432
37.1672
27.9978
20.9185
15.5002
11.3896
8.29859
5.9952
4.29418
3.04941
2.14679
1.49828
1.03659
0.710924
0.483318
0.325707
0.217569
0.144056
0.0945422
0.0614987
0.0396498
0.025336
0.0160449
0.0100699
0.00626285
0.00385973
0.00235693
0.00142596
0.000854675
0.00050744
0.000298409
0.000173793
0.000100229
5.72325e-05
3.23532e-05
1.81033e-05
1.00256e-05
5.49423e-06
2.97914e-06
1.59811e-06
8.48023e-07
4.45067e-07
2.31021e-07
1.18579e-07
6.01999e-08
3.02086e-08
1.49847e-08
7.32001e-09
3.52665e-09
1.68704e-09
7.57356e-10
3.23797e-10
6.47594e-11
4083.52
4666.58
3941.43
3164.03
2533.99
2045.23
1663.93
1361.51
1117.67
918.474
754.232
618.02
504.732
410.466
332.144
267.264
213.748
169.834
134.017
104.997
81.6525
63.0149
48.2525
36.6549
27.62
20.6416
15.2986
11.2437
8.19387
5.92053
4.24134
3.0123
2.12093
1.4804
1.02433
0.702582
0.47769
0.321941
0.215069
0.142412
0.0934691
0.0608046
0.0392047
0.025053
0.0158667
0.00995854
0.00619396
0.00381748
0.00233127
0.00141052
0.000845472
0.000502009
0.000295236
0.000171958
9.91786e-05
5.66371e-05
3.20195e-05
1.79183e-05
9.92411e-06
5.43924e-06
2.94968e-06
1.5825e-06
8.39826e-07
4.40854e-07
2.28857e-07
1.17466e-07
5.96127e-08
2.99254e-08
1.48442e-08
7.26842e-09
3.49152e-09
1.66509e-09
8.02358e-10
3.4575e-10
9.43951e-11
1464.19
2576.11
2688.28
2439.69
2104.66
1779.76
1492.48
1246.41
1037.88
861.717
713.041
587.667
482.11
393.47
319.306
257.536
206.367
164.235
129.776
101.793
79.2397
61.2057
46.9024
35.6529
26.8806
20.0994
14.9035
10.9579
7.98847
5.77404
4.13764
2.93944
2.07015
1.44528
1.00023
0.686188
0.466625
0.314535
0.210154
0.139176
0.0913579
0.0594386
0.0383286
0.024496
0.0155156
0.0097393
0.00605826
0.00373426
0.0022807
0.00138009
0.00082733
0.000491299
0.000288976
0.000168336
9.71045e-05
5.54617e-05
3.13604e-05
1.75528e-05
9.7236e-06
5.33046e-06
2.89134e-06
1.55158e-06
8.23617e-07
4.32402e-07
2.24499e-07
1.15276e-07
5.85173e-08
2.93668e-08
1.45632e-08
7.14439e-09
3.46408e-09
1.65191e-09
7.77113e-10
3.24895e-10
1.06469e-10
662.027
1487.51
1799.38
1806.5
1671.04
1483.43
1287.35
1101.85
934.155
786.082
657.138
545.903
450.656
369.646
301.194
243.742
195.857
156.236
123.7
97.1912
75.768
58.5981
44.9538
34.2047
25.8108
19.3141
14.331
10.5433
7.6904
5.56131
3.98697
2.83355
1.9963
1.39419
0.965173
0.662323
0.450514
0.303748
0.202993
0.134462
0.0882808
0.0574474
0.0370511
0.0236836
0.0150036
0.00941941
0.00586022
0.00361278
0.00220687
0.00133564
0.000800828
0.00047565
0.000279827
0.00016304
9.40707e-05
5.37418e-05
3.03957e-05
1.70175e-05
9.42979e-06
5.17099e-06
2.80575e-06
1.50616e-06
7.99812e-07
4.20065e-07
2.18186e-07
1.1207e-07
5.69016e-08
2.85545e-08
1.41637e-08
6.94792e-09
3.35651e-09
1.60691e-09
7.37599e-10
3.227e-10
8.23213e-11
359.13
914.605
1218.62
1320.45
1295.24
1202.14
1078.93
947.339
818.996
699.667
591.857
496.305
412.809
340.68
278.991
226.718
182.816
146.265
116.097
91.4155
71.3989
55.3092
42.4913
32.3716
24.4547
18.3174
13.6034
10.0159
7.31092
5.29029
3.79487
2.69845
1.90204
1.32894
0.920376
0.631817
0.429911
0.28995
0.193828
0.128427
0.0843405
0.0548967
0.0354143
0.0226424
0.0143471
0.0090092
0.00560621
0.00345692
0.00211212
0.00127858
0.000766792
0.000455545
0.000268068
0.000156231
9.01683e-05
5.15283e-05
2.91534e-05
1.63277e-05
9.05099e-06
4.96526e-06
2.69527e-06
1.44751e-06
7.69029e-07
4.04109e-07
2.10008e-07
1.07911e-07
5.48282e-08
2.75315e-08
1.36675e-08
6.69656e-09
3.23139e-09
1.53118e-09
6.93694e-10
3.12821e-10
8.78094e-11
219.685
595.137
843.292
965.834
992.762
957.263
885.897
797.106
702.687
609.746
522.316
442.481
371.124
308.395
254.004
207.408
167.927
134.819
107.331
84.7303
66.3254
51.4793
39.6168
30.2274
22.8656
17.1476
12.7483
9.3953
6.86388
4.97069
3.56815
2.53887
1.79062
1.25177
0.867359
0.595695
0.405503
0.273595
0.182962
0.121269
0.0796646
0.0518689
0.0334707
0.0214056
0.013567
0.00852157
0.00530414
0.0032715
0.00199936
0.00121065
0.000726257
0.00043159
0.00025405
0.000148111
8.55114e-05
4.88854e-05
2.76692e-05
1.55031e-05
8.59778e-06
4.7189e-06
2.56287e-06
1.37715e-06
7.3206e-07
3.84913e-07
2.00166e-07
1.02941e-07
5.23388e-08
2.63055e-08
1.30781e-08
6.43204e-09
3.14138e-09
1.48398e-09
6.76132e-10
2.94161e-10
8.56142e-11
144.791
404.854
596.653
711.014
757.872
754.244
716.95
659.656
592.369
521.933
452.781
387.62
327.968
274.541
227.525
186.766
151.895
122.419
97.785
77.4186
60.7556
47.2612
36.4421
27.8536
21.1025
15.8474
11.7962
8.70338
6.3648
4.61348
3.31449
2.36017
1.66573
1.1652
0.807848
0.555121
0.378071
0.255204
0.170736
0.11321
0.0743989
0.0484576
0.0312799
0.020011
0.0126871
0.0079713
0.00496312
0.0030621
0.00187196
0.00113386
0.000680411
0.000404483
0.000238179
0.000138911
8.02323e-05
4.58872e-05
2.59841e-05
1.45661e-05
8.08237e-06
4.43848e-06
2.41199e-06
1.29687e-06
6.89834e-07
3.62976e-07
1.88916e-07
9.72412e-08
4.94806e-08
2.48951e-08
1.23932e-08
6.12471e-09
3.01625e-09
1.44117e-09
6.70644e-10
2.79892e-10
7.13451e-11
100.015
284.609
430.348
527.632
578.322
590.529
574.268
538.931
492.23
440.002
386.406
334.25
285.319
240.643
200.72
165.677
135.388
109.568
87.8359
69.7614
54.8985
42.8097
33.0814
25.3338
19.2266
14.4609
10.7792
7.963
5.82998
4.23019
3.04197
2.16798
1.53129
1.07193
0.743675
0.511336
0.348448
0.235331
0.157518
0.104493
0.0686995
0.0447635
0.0289064
0.0184993
0.0117328
0.00737427
0.00459296
0.00283468
0.00173353
0.00105038
0.000630545
0.000374981
0.000220895
0.000128885
7.44748e-05
4.26147e-05
2.41434e-05
1.35416e-05
7.51826e-06
4.13126e-06
2.24651e-06
1.20873e-06
6.43396e-07
3.38794e-07
1.76444e-07
9.08838e-08
4.63107e-08
2.33255e-08
1.16194e-08
5.72847e-09
2.79673e-09
1.36214e-09
6.55278e-10
2.70014e-10
6.5857e-11
71.2303
204.871
315.197
394.506
441.776
460.533
456.497
435.837
404.165
366.113
325.25
284.177
244.683
207.922
174.559
144.899
118.994
96.717
77.8283
62.0198
48.9507
38.2719
29.6439
22.7488
17.2971
13.0317
9.72862
7.19679
5.2756
3.83229
2.7587
1.96796
1.39122
0.97466
0.676688
0.465593
0.317477
0.214539
0.143678
0.0953609
0.0627253
0.0408891
0.0264156
0.0169122
0.0107304
0.00674679
0.00420371
0.00259541
0.00158779
0.000962442
0.000577985
0.000343865
0.000202652
0.000118295
6.83886e-05
3.91523e-05
2.21939e-05
1.24555e-05
6.91957e-06
3.80481e-06
2.07042e-06
1.11483e-06
5.93902e-07
3.12967e-07
1.63114e-07
8.40863e-08
4.28872e-08
2.16264e-08
1.07775e-08
5.2982e-09
2.58928e-09
1.27214e-09
6.14666e-10
2.75502e-10
8.45165e-11
51.779
149.97
233.549
296.799
337.91
358.168
360.731
349.533
328.515
301.187
270.445
238.533
207.096
177.272
149.785
125.039
103.197
84.247
68.0582
54.4221
43.0865
33.7797
26.2289
20.1727
15.369
11.5998
8.67381
6.42598
4.71691
3.43065
2.47235
1.7655
1.24928
0.875981
0.608665
0.419101
0.28597
0.193371
0.129579
0.0860507
0.0566306
0.0369341
0.0238716
0.0152901
0.00970532
0.00610478
0.00380522
0.00235031
0.00143842
0.000872254
0.000524043
0.000311908
0.000183902
0.000107401
6.21222e-05
3.5584e-05
2.01828e-05
1.13338e-05
6.30051e-06
3.46679e-06
1.88788e-06
1.01733e-06
5.42416e-07
2.86087e-07
1.49256e-07
7.70077e-08
3.92947e-08
1.98405e-08
9.89283e-09
4.88111e-09
2.3972e-09
1.14482e-09
5.31247e-10
2.54647e-10
8.34189e-11
38.1631
111.072
174.499
224.311
258.701
277.915
283.635
278.323
264.68
245.291
222.414
197.898
173.17
149.273
126.916
106.538
88.3631
72.4556
58.7633
47.1551
37.451
29.4448
22.9214
17.6695
13.4899
10.2008
7.64081
5.66954
4.16759
3.03509
2.1899
1.56552
1.1089
0.778268
0.541236
0.372969
0.25468
0.172331
0.115554
0.0767822
0.0505591
0.0329915
0.0213339
0.0136711
0.00868154
0.00546317
0.00340673
0.00210506
0.00128886
0.000781891
0.000469956
0.000279841
0.000165072
9.64514e-05
5.58178e-05
3.19905e-05
1.81553e-05
1.02016e-05
5.67492e-06
3.12479e-06
1.70293e-06
9.18391e-07
4.90062e-07
2.58724e-07
1.3513e-07
6.97788e-08
3.56133e-08
1.79932e-08
8.98949e-09
4.45194e-09
2.16121e-09
1.0153e-09
4.77464e-10
1.94278e-10
5.48809e-11
28.3872
82.9123
131.114
170.028
198.105
215.147
222.008
220.206
211.568
197.955
181.085
162.43
143.179
124.241
106.266
89.6842
74.7452
61.5564
50.1196
40.3611
32.1574
25.3557
19.7897
15.2914
11.6994
8.86422
6.65147
4.94349
3.63931
2.65399
1.91734
1.37226
0.97304
0.683593
0.475828
0.328173
0.224267
0.151862
0.101897
0.0677504
0.0446382
0.029144
0.0188557
0.012089
0.00768045
0.00483538
0.00301657
0.00186478
0.00114223
0.000693234
0.000416851
0.00024833
0.000146553
8.56731e-05
4.96061e-05
2.84462e-05
1.61533e-05
9.08235e-06
5.05567e-06
2.7858e-06
1.51933e-06
8.20027e-07
4.37956e-07
2.31419e-07
1.20951e-07
6.25269e-08
3.19604e-08
1.6158e-08
8.07956e-09
3.99643e-09
1.92193e-09
9.16511e-10
4.25876e-10
1.59155e-10
4.82952e-11
21.2387
62.1985
98.8524
129.073
151.615
166.128
173.009
173.186
167.879
158.412
146.067
131.988
117.137
102.277
87.9763
74.6321
62.492
51.6844
42.2442
34.1382
27.2859
21.5768
16.8846
13.078
10.0278
7.61291
5.723
4.26058
3.1414
2.29414
1.65954
1.18918
0.844162
0.593663
0.413625
0.285524
0.195282
0.132335
0.088858
0.0591199
0.0389758
0.0254617
0.0164823
0.0105727
0.00672035
0.00423288
0.00264188
0.00163386
0.00100122
0.00060791
0.000365702
0.000217956
0.000128687
7.52651e-05
4.36018e-05
2.50165e-05
1.42139e-05
7.99677e-06
4.45429e-06
2.4561e-06
1.3405e-06
7.24059e-07
3.87017e-07
2.04671e-07
1.07071e-07
5.54264e-08
2.83778e-08
1.43426e-08
7.18391e-09
3.53982e-09
1.70131e-09
8.01261e-10
3.68799e-10
1.73424e-10
7.24428e-11
15.9427
46.7849
74.6472
97.9996
115.874
127.898
134.228
135.42
132.288
125.764
116.79
106.242
94.8774
83.321
72.0539
61.4248
51.6644
42.9051
35.2004
28.5438
22.8861
18.1495
14.24
11.0562
8.4963
6.46328
4.86781
3.63014
2.68079
1.96061
1.42018
1.01893
0.724139
0.509799
0.355545
0.245657
0.168158
0.114045
0.076633
0.0510211
0.033658
0.0220009
0.0142498
0.00914542
0.005816
0.00366498
0.00228845
0.00141589
0.000868016
0.000527254
0.000317315
0.000189199
0.000111757
6.53932e-05
3.79012e-05
2.17569e-05
1.23686e-05
6.96261e-06
3.88066e-06
2.14121e-06
1.16944e-06
6.32138e-07
3.38152e-07
1.78998e-07
9.37442e-08
4.8563e-08
2.48687e-08
1.25842e-08
6.28715e-09
3.0854e-09
1.49715e-09
7.40892e-10
3.63311e-10
1.78912e-10
5.59785e-11
11.9831
35.2226
56.3746
74.3361
88.3683
98.1323
103.66
105.284
103.542
99.0854
92.6014
84.7484
76.1166
67.2038
58.4064
50.021
42.2528
35.2277
29.0067
23.6001
18.9805
15.0949
11.8743
9.24145
7.11742
5.42536
4.09378
3.0582
2.26205
1.65682
1.20177
0.863326
0.614278
0.43293
0.302242
0.209025
0.143208
0.097203
0.0653655
0.04355
0.0287481
0.0188029
0.0121854
0.00782462
0.00497849
0.00313868
0.00196069
0.00121361
0.00074431
0.000452293
0.000272309
0.000162429
9.59838e-05
5.61874e-05
3.258e-05
1.87111e-05
1.06424e-05
5.99408e-06
3.34275e-06
1.84556e-06
1.00863e-06
5.45589e-07
2.92065e-07
1.54711e-07
8.10986e-08
4.20388e-08
2.15506e-08
1.09257e-08
5.46065e-09
2.70124e-09
1.32373e-09
6.57473e-10
3.17211e-10
1.56959e-10
4.28071e-11
9.00506
26.5036
42.5269
56.2778
67.1991
75.0043
79.6676
81.3826
80.5046
77.488
72.8286
67.0174
60.5058
53.6849
46.8739
40.3187
34.1952
28.6171
23.6459
19.3007
15.5692
12.4162
9.79211
7.63903
5.89619
4.50358
3.40462
2.5478
1.88757
1.3846
1.00572
0.72342
0.515349
0.363612
0.254113
0.175909
0.120628
0.0819445
0.0551472
0.0367683
0.0242875
0.0158952
0.0103069
0.00662185
0.00421529
0.00265873
0.00166158
0.00102889
0.00063126
0.000383738
0.000231119
0.000137909
8.15244e-05
4.7741e-05
2.76933e-05
1.59112e-05
9.05382e-06
5.10177e-06
2.84656e-06
1.57245e-06
8.59883e-07
4.65419e-07
2.49302e-07
1.32126e-07
6.93058e-08
3.59612e-08
1.84641e-08
9.36377e-09
4.70878e-09
2.3478e-09
1.16238e-09
5.52102e-10
2.54647e-10
1.25128e-10
4.82952e-11
6.75727
19.9092
32.012
42.4888
50.9226
57.0815
60.9162
62.5374
62.1789
60.1561
56.8254
52.5491
47.6688
42.4869
37.2564
32.1763
27.3936
23.007
19.0737
15.6172
12.6343
10.1028
7.98758
6.24577
4.83123
3.69756
2.80051
2.09937
1.55785
1.14446
0.832452
0.59957
0.427639
0.302068
0.211324
0.146432
0.100505
0.0683325
0.0460225
0.0307068
0.0202971
0.0132918
0.00862367
0.00554333
0.00353042
0.00222774
0.0013928
0.000862779
0.000529534
0.000322007
0.000194002
0.000115798
6.84747e-05
4.01118e-05
2.32755e-05
1.33775e-05
7.61493e-06
4.29265e-06
2.39609e-06
1.3242e-06
7.24469e-07
3.92333e-07
2.10284e-07
1.11519e-07
5.85195e-08
3.03755e-08
1.56103e-08
7.93138e-09
3.98984e-09
1.96803e-09
9.64806e-10
4.84049e-10
2.22816e-10
7.79308e-11
1.31714e-11
5.05807
14.916
24.0248
31.9667
38.4318
43.2372
46.3285
47.7665
47.7051
46.3625
43.9936
40.8637
37.2288
33.3199
29.3342
25.4303
21.7278
18.3101
15.228
12.5055
10.1451
8.13356
6.44628
5.05203
3.91613
3.00313
2.27875
1.71118
1.27184
0.935746
0.681591
0.491554
0.351025
0.248232
0.173845
0.120581
0.0828376
0.0563683
0.0379944
0.0253687
0.0167799
0.0109952
0.00713766
0.00459045
0.00292491
0.00184643
0.00115484
0.000715621
0.000439353
0.000267246
0.000161053
9.61556e-05
5.68739e-05
3.33244e-05
1.93419e-05
1.11197e-05
6.33145e-06
3.57021e-06
1.9935e-06
1.1021e-06
6.03191e-07
3.26785e-07
1.75218e-07
9.29891e-08
4.88165e-08
2.53605e-08
1.30474e-08
6.65595e-09
3.33456e-09
1.65411e-09
8.21018e-10
4.07216e-10
1.94278e-10
5.1588e-11
-2.19524e-12
3.7737
11.1367
17.9636
23.9519
28.8726
32.5842
35.0356
36.2587
36.3543
35.4731
33.7965
31.5178
28.827
25.8986
22.8844
19.9086
17.0671
14.4283
12.0357
9.91195
8.0626
6.48017
5.14798
4.04346
3.14082
2.41324
1.83448
1.3799
1.02725
0.756918
0.552102
0.398687
0.285055
0.20181
0.141484
0.0982313
0.0675459
0.0460019
0.0310314
0.0207345
0.0137237
0.00899806
0.00584438
0.00376056
0.00239719
0.00151389
0.000947182
0.00058712
0.000360558
0.000219369
0.000132228
7.8961e-05
4.67119e-05
2.73748e-05
1.58913e-05
9.1375e-06
5.20378e-06
2.93493e-06
1.63914e-06
9.06411e-07
4.96222e-07
2.68894e-07
1.44218e-07
7.65698e-08
4.01959e-08
2.08921e-08
1.07369e-08
5.46504e-09
2.766e-09
1.3841e-09
7.0467e-10
3.20504e-10
1.50374e-10
6.0369e-11
1.09762e-12
2.80424
8.28086
13.3735
17.8636
21.5825
24.4226
26.3394
27.3484
27.5153
26.9441
25.7634
24.1132
22.1332
19.9542
17.6915
15.4412
13.2788
11.2592
9.41884
7.77778
6.34276
5.11016
4.06885
3.20269
2.49275
1.91893
1.46131
1.10104
0.820941
0.605792
0.44248
0.31994
0.229029
0.162329
0.113925
0.0791754
0.0544924
0.0371433
0.0250752
0.0167668
0.0111048
0.00728524
0.00473439
0.00304778
0.00194362
0.00122789
0.000768485
0.000476478
0.000292674
0.0001781
0.000107368
6.41229e-05
3.79375e-05
2.22344e-05
1.29082e-05
7.42273e-06
4.22756e-06
2.38454e-06
1.33189e-06
7.36594e-07
4.03314e-07
2.18592e-07
1.1726e-07
6.2258e-08
3.26936e-08
1.69911e-08
8.72496e-09
4.44645e-09
2.24573e-09
1.12725e-09
5.42223e-10
2.48062e-10
1.31714e-10
5.70761e-11
1.64643e-11
2.07432
6.12871
9.90825
13.2551
16.0461
18.2
19.6803
20.493
20.6811
20.3161
19.4889
18.3
16.8518
15.2412
13.5551
11.8668
10.2347
8.70242
7.29949
6.0431
4.94011
3.98927
3.1833
2.51083
1.95807
1.51011
1.15198
0.869392
0.649219
0.47977
0.350908
0.254053
0.182082
0.129199
0.0907691
0.0631442
0.0434984
0.0296744
0.0200485
0.013415
0.00889057
0.00583597
0.0037945
0.00244381
0.00155906
0.000985264
0.000616798
0.000382509
0.000234992
0.000143015
8.62231e-05
5.14964e-05
3.04673e-05
1.7856e-05
1.03659e-05
5.96054e-06
3.39462e-06
1.91463e-06
1.06941e-06
5.91423e-07
3.23831e-07
1.75539e-07
9.41602e-08
4.99734e-08
2.62572e-08
1.365e-08
7.03573e-09
3.61336e-09
1.81436e-09
9.09925e-10
4.29168e-10
2.18426e-10
1.06469e-10
3.95142e-11
2.85381e-11
1.52663
4.51261
7.30213
9.78164
11.8614
13.481
14.6112
15.2533
15.4351
15.2056
14.6289
13.777
12.7242
11.5417
10.2944
9.03741
7.81565
6.66299
5.60294
4.64977
3.80987
3.08335
2.46555
1.94858
1.52246
1.17625
0.898812
0.679412
0.508116
0.376029
0.2754
0.199637
0.14325
0.101758
0.0715648
0.0498327
0.0343592
0.0234591
0.0158613
0.0106206
0.007043
0.00462574
0.00300908
0.00193877
0.0012373
0.000782146
0.000489749
0.000303767
0.000186636
0.00011359
6.84826e-05
4.08989e-05
2.41952e-05
1.41784e-05
8.22973e-06
4.73142e-06
2.69414e-06
1.51929e-06
8.48425e-07
4.69143e-07
2.56834e-07
1.3919e-07
7.46577e-08
3.96174e-08
2.08064e-08
1.08236e-08
5.59675e-09
2.84502e-09
1.44117e-09
7.17842e-10
3.78678e-10
1.86595e-10
6.25642e-11
3.07333e-11
-4.39047e-12
1.1174
3.30426
5.35104
7.17631
8.71511
9.92277
10.7766
11.2755
11.4374
11.296
10.896
10.2889
9.52814
8.66584
7.74973
6.82113
5.91391
5.0541
4.2601
3.54344
2.90974
2.3598
1.89076
1.49716
1.17188
0.906956
0.694171
0.525538
0.393615
0.291697
0.213917
0.155259
0.111537
0.0793172
0.0558392
0.0389194
0.0268583
0.0183526
0.0124179
0.00832052
0.00552103
0.00362805
0.00236115
0.0015219
0.000971559
0.000614307
0.00038472
0.000238647
0.00014663
8.92394e-05
5.37968e-05
3.21237e-05
1.90003e-05
1.11316e-05
6.45955e-06
3.71266e-06
2.11339e-06
1.19143e-06
6.65124e-07
3.67676e-07
2.01249e-07
1.09022e-07
5.84602e-08
3.10231e-08
1.63051e-08
8.48568e-09
4.34547e-09
2.18865e-09
1.10311e-09
5.67468e-10
2.85381e-10
1.39397e-10
6.47594e-11
2.63428e-11
-5.48809e-12
0.813084
2.40522
3.89778
5.23263
6.36296
7.25609
7.89469
8.27667
8.41363
8.32854
8.05266
7.62236
7.07605
6.45146
5.78349
5.10272
4.43446
3.79844
3.20883
2.67477
2.20098
1.78855
1.43579
1.13898
0.893076
0.69233
0.530738
0.402413
0.301828
0.22398
0.164466
0.119513
0.0859549
0.0611905
0.0431212
0.0300831
0.0207783
0.0142093
0.00962141
0.00645094
0.00428296
0.00281589
0.00183338
0.00118213
0.000754862
0.000477385
0.000299005
0.000185484
0.000113962
6.93498e-05
4.17994e-05
2.49537e-05
1.47551e-05
8.64153e-06
5.01267e-06
2.87986e-06
1.6386e-06
9.23337e-07
5.15216e-07
2.8467e-07
1.55738e-07
8.43475e-08
4.52087e-08
2.39906e-08
1.2627e-08
6.54729e-09
3.33785e-09
1.69253e-09
8.48458e-10
4.2368e-10
2.06352e-10
9.87856e-11
7.13451e-11
4.50023e-11
2.85381e-11
0.58801
1.73995
2.82139
3.79098
4.61522
5.27037
5.74342
6.03205
6.14372
6.09406
5.9048
5.60157
5.21172
4.76237
4.27887
3.7836
3.2953
2.82871
2.39462
2.00012
1.64905
1.34258
1.07974
0.858031
0.673911
0.523265
0.401747
0.305054
0.229121
0.17025
0.125169
0.0910641
0.0655671
0.0467255
0.0329599
0.0230152
0.0159099
0.0108885
0.00737797
0.00494988
0.00328818
0.00216288
0.00140878
0.00090864
0.000580355
0.000367078
0.00022993
0.000142631
8.76237e-05
5.33124e-05
3.21247e-05
1.91717e-05
1.13317e-05
6.63354e-06
3.84596e-06
2.20832e-06
1.25579e-06
7.07192e-07
3.94358e-07
2.17767e-07
1.19033e-07
6.4429e-08
3.45234e-08
1.83181e-08
9.59976e-09
4.9755e-09
2.56513e-09
1.31385e-09
6.58571e-10
3.18309e-10
1.75619e-10
1.11957e-10
6.91499e-11
4.71976e-11
1.31714e-11
0.422509
1.25056
2.02892
2.72832
3.32492
3.80162
4.14877
4.36422
4.45274
4.42492
4.29581
4.08337
3.80694
3.4859
3.13847
2.78092
2.42694
2.08747
1.77059
1.48172
1.22391
0.998237
0.804201
0.640133
0.503576
0.391608
0.301107
0.228957
0.172197
0.128115
0.0943056
0.0686891
0.0495105
0.035319
0.0249376
0.0174289
0.0120581
0.00825859
0.00559977
0.00375916
0.0024985
0.00164419
0.00107132
0.000691175
0.000441543
0.000279306
0.000174953
0.000108518
6.66555e-05
4.05442e-05
2.44225e-05
1.45689e-05
8.60684e-06
5.03551e-06
2.91763e-06
1.67413e-06
9.51325e-07
5.35335e-07
2.98309e-07
1.64595e-07
8.9908e-08
4.8619e-08
2.60388e-08
1.37696e-08
7.20476e-09
3.74507e-09
1.91973e-09
9.86758e-10
5.16978e-10
2.55745e-10
1.25128e-10
8.56142e-11
3.62214e-11
9.87856e-12
6.5857e-12
0.301569
0.892815
1.44919
1.95012
2.37873
2.72278
2.97522
3.13423
3.20281
3.18813
3.10055
2.9526
2.75787
2.53009
2.28227
2.02612
1.77157
1.52661
1.29725
1.08755
0.89989
0.735209
0.593273
0.472988
0.372657
0.290225
0.223469
0.170153
0.128137
0.0954519
0.0703448
0.051294
0.0370113
0.0264288
0.0186779
0.0130652
0.00904635
0.00620035
0.00420693
0.00282577
0.00187907
0.00123708
0.000806316
0.000520331
0.000332452
0.000210309
0.000131729
8.16959e-05
5.01682e-05
3.05053e-05
1.83674e-05
1.09511e-05
6.46566e-06
3.7802e-06
2.18862e-06
1.25481e-06
7.124e-07
4.00513e-07
2.22969e-07
1.22891e-07
6.70721e-08
3.62313e-08
1.93642e-08
1.02287e-08
5.36625e-09
2.78027e-09
1.41044e-09
7.15647e-10
3.67702e-10
1.73424e-10
7.68332e-11
1.75619e-11
9.87856e-12
1.4269e-11
2.63428e-11
0.213771
0.633017
1.02793
1.38412
1.6897
1.93601
2.11795
2.23403
2.28614
2.27912
2.22006
2.11765
1.98138
1.8209
1.64545
1.46335
1.28175
1.10645
0.941823
0.790908
0.655515
0.536414
0.433532
0.346156
0.273128
0.213011
0.164238
0.125217
0.0944142
0.0704153
0.0519527
0.0379238
0.0273921
0.0195788
0.0138493
0.00969579
0.00671853
0.00460811
0.00312857
0.0021026
0.00139884
0.000921277
0.00060066
0.000387697
0.000247735
0.000156719
9.81521e-05
6.08601e-05
3.73619e-05
2.27089e-05
1.36662e-05
8.14315e-06
4.8044e-06
2.80672e-06
1.62357e-06
9.2996e-07
5.27437e-07
2.96195e-07
1.64701e-07
9.06687e-08
4.94093e-08
2.66699e-08
1.42306e-08
7.54941e-09
3.94045e-09
2.02291e-09
1.03066e-09
5.25759e-10
2.63428e-10
1.36105e-10
5.37833e-11
-6.58571e-12
3.29285e-12
7.68332e-12
1.09762e-12
0.150467
0.445647
0.723945
0.975342
1.19155
1.36647
1.49643
1.58029
1.61923
1.61649
1.5769
1.50645
1.41173
1.29947
1.17617
1.04772
0.919201
0.794773
0.677608
0.56993
0.473098
0.387728
0.313826
0.250936
0.198272
0.154839
0.119541
0.091253
0.0688881
0.0514367
0.0379919
0.0277619
0.0200721
0.0143601
0.0101667
0.00712344
0.00493976
0.00339038
0.00230322
0.00154873
0.00103082
0.000679137
0.000442906
0.000285923
0.000182715
0.000115582
7.2378e-05
4.48672e-05
2.75338e-05
1.67273e-05
1.00606e-05
5.9905e-06
3.53154e-06
2.06125e-06
1.19117e-06
6.81563e-07
3.86118e-07
2.16561e-07
1.2026e-07
6.6104e-08
3.59634e-08
1.93861e-08
1.03472e-08
5.4804e-09
2.84722e-09
1.45215e-09
7.41989e-10
3.89654e-10
1.92083e-10
1.05371e-10
3.07333e-11
1.20738e-11
9.87856e-12
-1.4269e-11
-1.86595e-11
0.105147
0.311473
0.506155
0.682267
0.834058
0.957266
1.0493
1.10927
1.13793
1.13743
1.11105
1.0629
0.997501
0.919544
0.833544
0.743637
0.653412
0.565819
0.483131
0.40696
0.33831
0.277659
0.22505
0.180196
0.142566
0.111479
0.0861724
0.0658595
0.0497755
0.037207
0.0275108
0.0201233
0.0145632
0.0104284
0.00738937
0.00518152
0.00359573
0.00246953
0.00167862
0.00112931
0.000751967
0.000495586
0.000323278
0.000208724
0.000133386
8.43714e-05
5.28238e-05
3.27355e-05
2.00804e-05
1.21926e-05
7.32837e-06
4.36023e-06
2.56816e-06
1.49746e-06
8.64442e-07
4.94031e-07
2.79519e-07
1.56549e-07
8.68139e-08
4.76476e-08
2.58774e-08
1.3909e-08
7.4155e-09
3.90313e-09
2.0273e-09
1.04054e-09
5.26856e-10
2.51354e-10
1.06469e-10
6.69547e-11
3.07333e-11
3.7319e-11
1.09762e-11
0
-5.48809e-12
0.0729376
0.216095
0.35127
0.473707
0.579443
0.665523
0.730128
0.772603
0.793403
0.79396
0.776494
0.743788
0.698952
0.645207
0.585677
0.523239
0.460404
0.399248
0.341381
0.287958
0.239711
0.197001
0.159886
0.128184
0.101543
0.0794985
0.0615243
0.0470754
0.0356181
0.0266527
0.019727
0.0144437
0.0104626
0.00749855
0.00531769
0.00373166
0.0025914
0.00178088
0.0012112
0.000815236
0.000543053
0.00035801
0.000233584
0.00015083
9.63885e-05
6.09622e-05
3.81588e-05
2.36392e-05
1.44937e-05
8.79519e-06
5.2825e-06
3.14032e-06
1.84784e-06
1.07631e-06
6.20575e-07
3.54199e-07
2.00129e-07
1.11919e-07
6.19605e-08
3.39548e-08
1.84224e-08
9.88405e-09
5.24112e-09
2.75063e-09
1.43129e-09
7.2333e-10
3.68799e-10
1.64643e-10
7.13451e-11
4.17095e-11
3.29285e-11
8.78094e-12
-2.85381e-11
-1.20738e-11
8.78094e-12
0.0502175
0.148802
0.241951
0.326418
0.399493
0.459144
0.504103
0.533895
0.548798
0.549758
0.538263
0.516196
0.485671
0.448889
0.407996
0.364975
0.321567
0.279219
0.239062
0.201913
0.168299
0.138488
0.112536
0.0903328
0.0716438
0.0561552
0.0435078
0.0333263
0.025242
0.0189076
0.0140081
0.0102661
0.00744304
0.00533892
0.00378915
0.00266097
0.00184912
0.00127153
0.000865247
0.000582648
0.000388264
0.000256037
0.000167082
0.000107897
6.89502e-05
4.36023e-05
2.72853e-05
1.68965e-05
1.03543e-05
6.2792e-06
3.76843e-06
2.23824e-06
1.31568e-06
7.65444e-07
4.40754e-07
2.51227e-07
1.41739e-07
7.91602e-08
4.37521e-08
2.39511e-08
1.29749e-08
6.9578e-09
3.67482e-09
1.89778e-09
9.8127e-10
4.91733e-10
2.45866e-10
1.28421e-10
7.68332e-11
1.4269e-11
6.5857e-12
-1.64643e-11
-2.85381e-11
-2.19523e-11
-8.78094e-12
0.0343131
0.101688
0.165385
0.223205
0.273308
0.314305
0.345324
0.366023
0.376571
0.37759
0.370072
0.355281
0.334647
0.30966
0.281784
0.252375
0.22263
0.193547
0.165914
0.140302
0.117085
0.0964603
0.0784761
0.063065
0.0500737
0.0392914
0.0304746
0.0233674
0.0177167
0.0132837
0.00985073
0.00722574
0.00524324
0.00376404
0.00267346
0.00187879
0.00130642
0.000898877
0.000611977
0.000412278
0.00027483
0.000181281
0.000118318
7.64112e-05
4.88272e-05
3.08717e-05
1.93132e-05
1.19548e-05
7.32189e-06
4.43721e-06
2.66078e-06
1.57884e-06
9.27057e-07
5.38665e-07
3.09766e-07
1.76298e-07
9.9296e-08
5.53781e-08
3.05884e-08
1.67266e-08
9.05754e-09
4.84818e-09
2.56842e-09
1.32482e-09
6.88206e-10
3.57823e-10
1.75619e-10
9.65903e-11
4.93928e-11
2.41476e-11
0
1.09762e-12
3.29285e-12
7.68332e-12
-2.96357e-11
0.023266
0.0689573
0.112178
0.151447
0.185525
0.21347
0.234687
0.248934
0.256313
0.257231
0.252344
0.242497
0.228649
0.211802
0.192945
0.173
0.152782
0.132974
0.114118
0.0966114
0.0807151
0.0665708
0.0542187
0.0436183
0.0346697
0.0272325
0.021143
0.0162281
0.0123156
0.00924257
0.00686012
0.00503638
0.00365757
0.00262775
0.00186776
0.00131347
0.000913896
0.000629155
0.000428555
0.00028883
0.000192602
0.000127074
8.29506e-05
5.35725e-05
3.42308e-05
2.16389e-05
1.35329e-05
8.37306e-06
5.12523e-06
3.10377e-06
1.8596e-06
1.10232e-06
6.46522e-07
3.75182e-07
2.1545e-07
1.22401e-07
6.88349e-08
3.83299e-08
2.11291e-08
1.15184e-08
6.23337e-09
3.32688e-09
1.76058e-09
9.20901e-10
4.86245e-10
2.61233e-10
1.32812e-10
7.02475e-11
1.86595e-11
2.41476e-11
2.96357e-11
3.07333e-11
4.39047e-12
8.78094e-12
-6.58571e-12
0.0156531
0.0463987
0.0754955
0.101955
0.124946
0.143838
0.158226
0.167941
0.173046
0.173803
0.170647
0.164136
0.154908
0.143635
0.130978
0.11756
0.103928
0.0905493
0.077791
0.0659262
0.0551364
0.0455216
0.0371131
0.0298873
0.0237793
0.0186965
0.0145296
0.0111624
0.00847893
0.00636884
0.00473118
0.00347626
0.00252654
0.00181653
0.00129206
0.000909218
0.000633002
0.000436014
0.000297136
0.000200339
0.000133636
8.81895e-05
5.75755e-05
3.71855e-05
2.37581e-05
1.50156e-05
9.38761e-06
5.80564e-06
3.55156e-06
2.14918e-06
1.28653e-06
7.61852e-07
4.46324e-07
2.58691e-07
1.4833e-07
8.41565e-08
4.72579e-08
2.62704e-08
1.44326e-08
7.85345e-09
4.22912e-09
2.26438e-09
1.20738e-09
6.39911e-10
3.07333e-10
1.72326e-10
1.04274e-10
4.17095e-11
1.86595e-11
5.48809e-12
1.20738e-11
2.19523e-11
6.5857e-12
-1.75619e-11
9.87856e-12
0.0104488
0.030975
0.0504089
0.0680951
0.0834812
0.0961462
0.105819
0.112384
0.115876
0.116468
0.114441
0.110165
0.104061
0.0965745
0.0881461
0.0791899
0.0700747
0.0611127
0.0525529
0.0445807
0.0373205
0.0308422
0.0251692
0.0202879
0.0161567
0.0127148
0.00988996
0.00760466
0.00578141
0.00434626
0.00323129
0.00237606
0.00172821
0.00124343
0.000885027
0.00062318
0.000434112
0.000299174
0.000203975
0.000137579
9.18e-05
6.05944e-05
3.95646e-05
2.55536e-05
1.63249e-05
1.03154e-05
6.44696e-06
3.98515e-06
2.43644e-06
1.47327e-06
8.81134e-07
5.21253e-07
3.05004e-07
1.76532e-07
1.0106e-07
5.72627e-08
3.21064e-08
1.78088e-08
9.77867e-09
5.30808e-09
2.85051e-09
1.52569e-09
8.16627e-10
4.30266e-10
2.12938e-10
1.03176e-10
6.58571e-11
3.84166e-11
3.40261e-11
1.31714e-11
-1.31714e-11
-6.58571e-12
-2.19524e-12
-1.64643e-11
1.31714e-11
0.00691962
0.0205147
0.0333914
0.0451181
0.0553307
0.0637506
0.0701974
0.0745927
0.076957
0.0774004
0.0761074
0.0733184
0.0693103
0.0643762
0.0588072
0.0528774
0.0468319
0.0408786
0.0351843
0.0298736
0.0250308
0.0207042
0.0169109
0.0136431
0.0108743
0.00856506
0.00666773
0.00513122
0.00390413
0.00293729
0.00218544
0.0016082
0.00117055
0.000842775
0.000600241
0.000422907
0.000294764
0.000203242
0.00013863
9.35398e-05
6.24331e-05
4.12189e-05
2.69166e-05
1.73849e-05
1.11053e-05
7.01576e-06
4.38322e-06
2.70819e-06
1.65473e-06
9.99836e-07
5.97426e-07
3.53049e-07
2.06311e-07
1.19233e-07
6.81489e-08
3.85242e-08
2.15649e-08
1.19487e-08
6.55497e-09
3.55518e-09
1.89559e-09
9.92246e-10
5.23564e-10
2.63428e-10
1.44886e-10
5.1588e-11
1.97571e-11
3.29285e-11
4.39047e-11
3.62214e-11
1.53666e-11
-5.48809e-12
2.19524e-12
6.5857e-12
-1.09762e-12
0.00454591
0.0134784
0.0219418
0.0296542
0.0363772
0.041928
0.0461877
0.0491035
0.0506873
0.0510095
0.0501892
0.0483826
0.0457701
0.0425431
0.0388925
0.0349981
0.0310214
0.0270998
0.0233438
0.0198365
0.0166344
0.0137703
0.0112565
0.00908864
0.00724996
0.00571485
0.00445236
0.00342898
0.00261093
0.00196579
0.00146366
0.00107782
0.000785035
0.000565577
0.000403063
0.000284147
0.000198155
0.000136695
9.32789e-05
6.2962e-05
4.2036e-05
2.77582e-05
1.81287e-05
1.17091e-05
7.47893e-06
4.72382e-06
2.95033e-06
1.82204e-06
1.11259e-06
6.71767e-07
4.01018e-07
2.36717e-07
1.38169e-07
7.9743e-08
4.55226e-08
2.56996e-08
1.43579e-08
7.95224e-09
4.35096e-09
2.36427e-09
1.25677e-09
6.53082e-10
3.35871e-10
1.60252e-10
6.69547e-11
6.5857e-12
-1.09762e-12
3.29285e-12
9.87856e-12
1.53666e-11
2.52452e-11
-6.5857e-12
1.20738e-11
2.52452e-11
7.68332e-12
0.00296247
0.00878414
0.0143018
0.0193327
0.0237219
0.0273506
0.0301407
0.0320573
0.0331073
0.0333354
0.0328179
0.0316558
0.0299655
0.0278713
0.0254971
0.0229601
0.0203658
0.0178042
0.0153478
0.0130515
0.0109528
0.00907366
0.0074227
0.00599759
0.00478774
0.00377671
0.00294448
0.00226929
0.00172911
0.00130276
0.000970643
0.000715238
0.000521278
0.000375784
0.000267962
0.000189009
0.000131876
9.10162e-05
6.21338e-05
4.19541e-05
2.80182e-05
1.85054e-05
1.20871e-05
7.80705e-06
4.98614e-06
3.14871e-06
1.96594e-06
1.21354e-06
7.40598e-07
4.4681e-07
2.66489e-07
1.57118e-07
9.15995e-08