/*--------------------------------*- C++ -*----------------------------------*\
  =========                 |
  \\      /  F ield         | OpenFOAM: The Open Source CFD Toolbox
   \\    /   O peration     | Website:  https://openfoam.org
    \\  /    A nd           | Version:  10
     \\/     M anipulation  |
\*---------------------------------------------------------------------------*/
FoamFile
{
    format      ascii;
    class       volScalarField;
    location    "219";
    object      gradTz;
}
// * * * * * * * * * * * * * * * * * * * * * * * * * * * * * * * * * * * * * //

dimensions      [0 -1 0 1 0 0 0];

internalField   nonuniform List<scalar> 
11250
(
-14360.2
-4155.47
-1534.69
-730.412
-424.787
-282.086
-203.499
-154.689
-121.634
-97.7773
-79.718
-65.5501
-54.1397
-44.7781
-37.0021
-30.4953
-25.0321
-20.4435
-16.5976
-13.3868
-10.7207
-8.52115
-6.71975
-5.25616
-4.07706
-3.13552
-2.39052
-1.80653
-1.35308
-1.00438
-0.738818
-0.538549
-0.388995
-0.278409
-0.197439
-0.138735
-0.0965925
-0.0666345
-0.0455463
-0.0308464
-0.0206993
-0.0137626
-0.00906656
-0.005918
-0.00382732
-0.0024524
-0.00155688
-0.000979199
-0.000610126
-0.000376597
-0.000230259
-0.000139445
-8.36372e-05
-4.96781e-05
-2.9218e-05
-1.7014e-05
-9.80799e-06
-5.59645e-06
-3.16042e-06
-1.76611e-06
-9.76486e-07
-5.34107e-07
-2.8899e-07
-1.54639e-07
-8.17988e-08
-4.27895e-08
-2.21499e-08
-1.13362e-08
-5.73395e-09
-2.86368e-09
-1.40824e-09
-7.17842e-10
-3.5014e-10
-1.60252e-10
-9.11023e-11
-8284.77
-4881.71
-2786.9
-1691.97
-1110.91
-781.707
-580.379
-448.074
-355.569
-287.497
-235.314
-194.023
-160.567
-132.998
-110.025
-90.7558
-74.5477
-60.9157
-49.4779
-39.921
-31.9799
-25.425
-20.0544
-15.6893
-12.1716
-9.36203
-7.13845
-5.39511
-4.04127
-3.00003
-2.20698
-1.60884
-1.16214
-0.831797
-0.589912
-0.414534
-0.288625
-0.199115
-0.136104
-0.0921801
-0.0618584
-0.0411298
-0.0270962
-0.0176869
-0.0114388
-0.00732969
-0.00465327
-0.00292673
-0.00182364
-0.00112566
-0.000688261
-0.000416821
-0.000250009
-0.000148502
-8.7343e-05
-5.08623e-05
-2.93211e-05
-1.67312e-05
-9.44869e-06
-5.28031e-06
-2.91963e-06
-1.59701e-06
-8.64055e-07
-4.62364e-07
-2.44691e-07
-1.28032e-07
-6.62215e-08
-3.3878e-08
-1.71525e-08
-8.59544e-09
-4.22473e-09
-2.05254e-09
-1.012e-09
-5.3454e-10
-2.97454e-10
-5610.15
-4297.56
-3037.24
-2137.85
-1543.59
-1152.14
-887.221
-700.953
-564.666
-461.213
-380.172
-315.05
-261.694
-217.366
-180.204
-148.892
-122.462
-100.174
-81.4346
-65.7515
-52.7031
-41.9212
-33.0797
-25.8886
-20.0903
-15.4569
-11.7884
-8.91127
-6.67628
-4.9569
-3.64705
-2.65896
-1.9209
-1.37502
-0.975253
-0.685372
-0.477234
-0.329255
-0.225075
-0.152447
-0.102306
-0.068027
-0.0448181
-0.029256
-0.0189218
-0.0121251
-0.00769794
-0.00484189
-0.00301709
-0.00186239
-0.00113877
-0.000689681
-0.000413688
-0.000245735
-0.000144539
-8.41732e-05
-4.85268e-05
-2.76918e-05
-1.56395e-05
-8.74054e-06
-4.83322e-06
-2.64396e-06
-1.43064e-06
-7.65606e-07
-4.05188e-07
-2.12033e-07
-1.0969e-07
-5.61058e-08
-2.8391e-08
-1.42163e-08
-7.01158e-09
-3.40591e-09
-1.66838e-09
-8.68215e-10
-5.30149e-10
-4244.47
-3657.61
-2923.33
-2275.59
-1770.84
-1393.89
-1113.73
-902.678
-740.259
-612.332
-509.364
-424.954
-354.764
-295.802
-245.959
-203.695
-167.849
-137.506
-111.92
-90.4573
-72.5671
-57.7623
-45.6072
-35.7112
-27.7251
-21.3391
-16.28
-12.3102
-9.22509
-6.85087
-5.04157
-3.67633
-2.6563
-1.90171
-1.349
-0.948142
-0.660278
-0.455586
-0.311463
-0.210976
-0.141596
-0.0941591
-0.0620388
-0.0404998
-0.0261955
-0.0167871
-0.0106583
-0.00670429
-0.00417782
-0.00257903
-0.00157705
-0.000955175
-0.000572972
-0.000340373
-0.000200217
-0.000116606
-6.723e-05
-3.8368e-05
-2.1671e-05
-1.21126e-05
-6.69851e-06
-3.66474e-06
-1.98323e-06
-1.06148e-06
-5.61814e-07
-2.94011e-07
-1.52132e-07
-7.78343e-08
-3.93726e-08
-1.96956e-08
-9.71831e-09
-4.73841e-09
-2.34012e-09
-1.20409e-09
-7.29916e-10
-3460.61
-3160.2
-2718.26
-2266.19
-1866.66
-1535.84
-1268.8
-1054.15
-880.436
-738.23
-620.351
-521.531
-437.951
-366.829
-306.108
-254.229
-209.968
-172.331
-140.479
-113.683
-91.2962
-72.7353
-57.473
-45.0316
-34.981
-26.9368
-20.5593
-15.5518
-11.6582
-8.66033
-6.37482
-4.64962
-3.36025
-2.40615
-1.70712
-1.20003
-0.835809
-0.576777
-0.394361
-0.267158
-0.179321
-0.119257
-0.0785819
-0.0513036
-0.033186
-0.0212684
-0.0135046
-0.00849524
-0.00529423
-0.00326844
-0.00199876
-0.00121068
-0.000726298
-0.000431491
-0.000253837
-0.000147848
-8.52511e-05
-4.86577e-05
-2.7486e-05
-1.53646e-05
-8.49805e-06
-4.6499e-06
-2.51674e-06
-1.34723e-06
-7.13182e-07
-3.73318e-07
-1.93205e-07
-9.88448e-08
-4.99976e-08
-2.50224e-08
-1.23526e-08
-6.02372e-09
-2.95369e-09
-1.5224e-09
-9.37365e-10
-2970.74
-2798.12
-2517.48
-2198.98
-1889.15
-1610.2
-1368.53
-1162.61
-987.931
-839.471
-712.726
-604.002
-510.389
-429.62
-359.92
-299.87
-248.302
-204.225
-166.769
-135.156
-108.673
-86.67
-68.5447
-53.7477
-41.7794
-32.1904
-24.5815
-18.6026
-13.9507
-10.3669
-7.63341
-5.56916
-4.02581
-2.88338
-2.04613
-1.43861
-1.00214
-0.691669
-0.472985
-0.320464
-0.215127
-0.143085
-0.0942931
-0.0615671
-0.0398287
-0.025528
-0.0162106
-0.0101984
-0.00635616
-0.00392436
-0.00240008
-0.0014539
-0.000872286
-0.000518272
-0.00030492
-0.000177621
-0.000102431
-5.84704e-05
-3.30335e-05
-1.84683e-05
-1.02163e-05
-5.59098e-06
-3.02664e-06
-1.6205e-06
-8.58013e-07
-4.49191e-07
-2.32511e-07
-1.18995e-07
-6.02098e-08
-3.01307e-08
-1.48826e-08
-7.2772e-09
-3.55848e-09
-1.81107e-09
-1.12835e-09
-2645.78
-2536.6
-2347.56
-2116.72
-1875.23
-1642.7
-1428.96
-1237.36
-1067.8
-918.6
-787.616
-672.723
-572.037
-483.949
-407.095
-340.306
-282.558
-232.927
-190.568
-154.689
-124.547
-99.444
-78.7249
-61.7829
-48.0608
-37.054
-28.3116
-21.4362
-16.0828
-11.956
-8.80664
-6.42716
-4.64736
-3.32941
-2.36319
-1.66189
-1.15791
-0.799318
-0.546688
-0.370456
-0.248721
-0.165451
-0.109045
-0.0712072
-0.04607
-0.0295313
-0.0187546
-0.0118
-0.00735509
-0.00454155
-0.00277781
-0.00168289
-0.00100978
-0.00060003
-0.000353063
-0.00020569
-0.000118633
-6.77291e-05
-3.82702e-05
-2.13995e-05
-1.18398e-05
-6.4807e-06
-3.50897e-06
-1.87913e-06
-9.95154e-07
-5.21144e-07
-2.69843e-07
-1.38104e-07
-6.9871e-08
-3.49591e-08
-1.73017e-08
-8.48788e-09
-4.14351e-09
-2.11182e-09
-1.31824e-09
-2421.09
-2346.26
-2211.32
-2037.76
-1845.92
-1651.12
-1463.12
-1287.19
-1125.65
-979.059
-847.039
-728.815
-623.468
-530.063
-447.695
-375.501
-312.649
-258.335
-211.77
-172.185
-138.831
-110.983
-87.9523
-69.0873
-53.7856
-41.4966
-31.7255
-24.0341
-18.0406
-13.4172
-9.88673
-7.21791
-5.22077
-3.74127
-2.65621
-1.86838
-1.30206
-0.899005
-0.614978
-0.416801
-0.27988
-0.186204
-0.12274
-0.0801599
-0.0518684
-0.0332519
-0.0211198
-0.0132895
-0.0082844
-0.0051159
-0.00312945
-0.00189613
-0.00113786
-0.000676219
-0.000397944
-0.000231869
-0.000133752
-7.63722e-05
-4.31611e-05
-2.41387e-05
-1.33579e-05
-7.31314e-06
-3.96053e-06
-2.12142e-06
-1.12375e-06
-5.88627e-07
-3.04857e-07
-1.5608e-07
-7.89813e-08
-3.95087e-08
-1.95661e-08
-9.62391e-09
-4.71866e-09
-2.41037e-09
-1.47959e-09
-2261.16
-2206.26
-2104.54
-1968.75
-1812.33
-1646.76
-1480.55
-1319.39
-1166.72
-1024.42
-893.368
-773.81
-665.645
-568.547
-482.061
-405.639
-338.666
-280.479
-230.374
-187.626
-151.499
-121.261
-96.2008
-75.6377
-58.9337
-45.5014
-34.8096
-26.3854
-19.8156
-14.7441
-10.8689
-7.93784
-5.7434
-4.11703
-2.92379
-2.05711
-1.43391
-0.990249
-0.677526
-0.459274
-0.30845
-0.205244
-0.135309
-0.0883808
-0.057195
-0.0366712
-0.0232942
-0.0146595
-0.0091394
-0.00564453
-0.00345321
-0.00209254
-0.00125587
-0.00074645
-0.000439333
-0.000256022
-0.000147707
-8.43542e-05
-4.76805e-05
-2.66712e-05
-1.47623e-05
-8.08381e-06
-4.3789e-06
-2.34608e-06
-1.24306e-06
-6.51278e-07
-3.37401e-07
-1.72796e-07
-8.7468e-08
-4.37829e-08
-2.1667e-08
-1.06282e-08
-5.23673e-09
-2.70233e-09
-1.65301e-09
-2144.99
-2102.29
-2021.69
-1911.18
-1779.89
-1636.4
-1487.81
-1339.52
-1195.38
-1057.97
-928.975
-809.382
-699.722
-600.187
-510.718
-431.066
-360.832
-299.5
-246.467
-201.063
-162.579
-130.29
-103.475
-81.4341
-63.5028
-49.0652
-37.5604
-28.4871
-21.4051
-15.9341
-11.7511
-8.58539
-6.21407
-4.4558
-3.16527
-2.22759
-1.55312
-1.0728
-0.734156
-0.497754
-0.334351
-0.222514
-0.146717
-0.0958452
-0.0620338
-0.0397786
-0.0252712
-0.0159055
-0.00991737
-0.00612571
-0.00374803
-0.00227146
-0.00136343
-0.000810483
-0.000477086
-0.000278064
-0.000160449
-9.16465e-05
-5.18118e-05
-2.89878e-05
-1.60478e-05
-8.78967e-06
-4.7624e-06
-2.55221e-06
-1.35263e-06
-7.08853e-07
-3.67314e-07
-1.88191e-07
-9.53105e-08
-4.76959e-08
-2.35933e-08
-1.15974e-08
-5.71639e-09
-2.94052e-09
-1.83961e-09
-2059.41
-2024.49
-1957.71
-1864.39
-1750.96
-1623.94
-1489.19
-1351.61
-1215.07
-1082.49
-956.023
-837.16
-726.906
-625.858
-534.294
-452.227
-379.458
-315.618
-260.199
-212.598
-172.141
-138.119
-109.808
-86.4976
-67.5065
-52.1966
-39.9834
-30.3424
-22.811
-16.9886
-12.534
-9.16091
-6.63293
-4.75764
-3.38067
-2.37981
-1.65964
-1.14664
-0.784846
-0.532222
-0.357567
-0.238003
-0.156953
-0.102547
-0.0663804
-0.0425712
-0.0270487
-0.0170263
-0.0106175
-0.00655891
-0.00401355
-0.00243268
-0.00146038
-0.00086823
-0.00051115
-0.000297961
-0.000171957
-9.82365e-05
-5.55475e-05
-3.10839e-05
-1.72118e-05
-9.42928e-06
-5.11014e-06
-2.73924e-06
-1.45214e-06
-7.61241e-07
-3.94569e-07
-2.02198e-07
-1.02425e-07
-5.12785e-08
-2.54033e-08
-1.24975e-08
-6.12471e-09
-3.15016e-09
-1.99108e-09
-1995.76
-1965.96
-1908.45
-1826.97
-1726.29
-1611.47
-1487.4
-1358.48
-1228.41
-1100.24
-976.369
-858.626
-748.348
-646.441
-553.453
-469.619
-394.914
-329.1
-271.767
-222.375
-180.289
-144.82
-115.251
-90.8656
-70.9714
-54.9143
-42.0917
-31.9603
-24.0395
-17.9118
-13.2206
-9.66639
-7.00132
-5.02346
-3.57057
-2.51415
-1.75375
-1.21193
-0.829705
-0.562748
-0.378142
-0.251739
-0.166037
-0.108498
-0.0702417
-0.0450534
-0.0286293
-0.0180233
-0.0112405
-0.00694462
-0.00425008
-0.00257635
-0.00154682
-0.000919737
-0.000541547
-0.000315726
-0.000182237
-0.000104127
-5.88886e-05
-3.29598e-05
-1.82542e-05
-1.00025e-05
-5.42207e-06
-2.90714e-06
-1.54158e-06
-8.0837e-07
-4.191e-07
-2.14816e-07
-1.08851e-07
-5.45241e-08
-2.70277e-08
-1.32801e-08
-6.53851e-09
-3.3642e-09
-2.08767e-09
-1948.11
-1921.77
-1870.59
-1797.4
-1705.84
-1600.03
-1484.13
-1362.05
-1237.32
-1112.98
-991.548
-875.066
-765.094
-662.771
-568.85
-483.747
-407.586
-340.243
-281.394
-230.56
-187.147
-150.486
-119.872
-94.5879
-73.9338
-57.2445
-43.9041
-33.3545
-25.1005
-18.7106
-13.8157
-10.1052
-7.32159
-5.25486
-3.73609
-2.63137
-1.83595
-1.26901
-0.868957
-0.589481
-0.396173
-0.263785
-0.174008
-0.113722
-0.073634
-0.0472351
-0.0300193
-0.0189006
-0.011789
-0.00728429
-0.00445846
-0.00270298
-0.00162304
-0.000965177
-0.000568377
-0.000331414
-0.000191321
-0.000109334
-6.1844e-05
-3.46202e-05
-1.91776e-05
-1.05107e-05
-5.69875e-06
-3.05624e-06
-1.62104e-06
-8.50231e-07
-4.40939e-07
-2.26077e-07
-1.14586e-07
-5.74372e-08
-2.84865e-08
-1.39902e-08
-6.88316e-09
-3.52665e-09
-2.19963e-09
-1912.32
-1888.34
-1841.57
-1774.21
-1689.23
-1590.07
-1480.35
-1363.61
-1243.18
-1122.05
-1002.79
-887.556
-778.059
-675.602
-581.098
-495.103
-417.862
-349.348
-289.314
-237.333
-192.851
-155.221
-123.749
-97.7224
-76.4365
-59.2191
-45.444
-34.5419
-26.006
-19.3937
-14.3256
-10.4818
-7.59684
-5.454
-3.87871
-2.73249
-1.90694
-1.31835
-0.90292
-0.612631
-0.4118
-0.274233
-0.180926
-0.118259
-0.0765815
-0.0491318
-0.0312283
-0.019664
-0.0122665
-0.00758014
-0.00464003
-0.00281336
-0.00168951
-0.00100482
-0.000591796
-0.000345114
-0.000199257
-0.000113887
-6.44293e-05
-3.60736e-05
-1.99863e-05
-1.0956e-05
-5.94145e-06
-3.18709e-06
-1.69082e-06
-8.87062e-07
-4.60184e-07
-2.36011e-07
-1.19655e-07
-6.00057e-08
-2.97663e-08
-1.46137e-08
-7.16525e-09
-3.65946e-09
-2.33573e-09
-1885.39
-1863.06
-1819.38
-1756.17
-1675.94
-1581.68
-1476.61
-1363.99
-1246.98
-1128.47
-1011.07
-896.979
-788.015
-685.595
-590.746
-504.137
-426.106
-356.707
-295.756
-242.874
-197.541
-159.132
-126.965
-100.332
-78.5267
-60.873
-46.7373
-35.5415
-26.77
-19.9712
-14.7574
-10.8012
-7.83072
-5.62345
-4.00023
-2.81876
-1.96757
-1.36053
-0.931981
-0.632456
-0.425194
-0.283194
-0.186864
-0.122156
-0.0791144
-0.0507627
-0.0322684
-0.020321
-0.0126776
-0.00783499
-0.00479651
-0.00290854
-0.00174684
-0.00103903
-0.000612013
-0.000356947
-0.000206115
-0.000117822
-6.66654e-05
-3.73314e-05
-2.06866e-05
-1.13419e-05
-6.15189e-06
-3.30065e-06
-1.75147e-06
-9.19108e-07
-4.76918e-07
-2.44659e-07
-1.24083e-07
-6.22283e-08
-3.08299e-08
-1.51252e-08
-7.44733e-09
-3.83398e-09
-2.43122e-09
-1865.11
-1843.95
-1802.46
-1742.22
-1665.44
-1574.78
-1473.2
-1363.73
-1249.38
-1132.99
-1017.13
-904.041
-795.604
-693.312
-598.28
-511.256
-432.655
-362.594
-300.941
-247.359
-201.356
-162.327
-129.603
-102.479
-80.2526
-62.2427
-47.8112
-36.3736
-27.4074
-20.454
-15.1191
-11.0693
-8.02724
-5.76603
-4.10262
-2.89153
-2.01877
-1.3962
-0.956574
-0.649248
-0.436547
-0.290795
-0.191904
-0.125466
-0.0812674
-0.0521496
-0.0331534
-0.0208804
-0.0130278
-0.00805214
-0.0049299
-0.00298969
-0.00179575
-0.00106823
-0.000629272
-0.000367052
-0.000211974
-0.000121186
-6.85778e-05
-3.84077e-05
-2.12863e-05
-1.16726e-05
-6.33233e-06
-3.39806e-06
-1.80349e-06
-9.46612e-07
-4.91298e-07
-2.52097e-07
-1.2788e-07
-6.41426e-08
-3.18101e-08
-1.56213e-08
-7.66357e-09
-3.93496e-09
-2.5355e-09
-1849.88
-1829.54
-1789.61
-1731.5
-1657.22
-1569.21
-1470.23
-1363.15
-1250.87
-1136.15
-1021.54
-909.302
-801.348
-699.227
-604.113
-516.816
-437.807
-367.257
-305.072
-250.951
-204.425
-164.909
-131.743
-104.228
-81.6621
-63.3646
-48.693
-37.0586
-27.9332
-20.853
-15.4186
-11.2916
-8.19053
-5.88469
-4.18793
-2.95224
-2.06153
-1.42602
-0.977157
-0.663316
-0.446067
-0.297174
-0.196137
-0.128248
-0.0830776
-0.0533164
-0.0338982
-0.0213513
-0.0133228
-0.00823513
-0.00504234
-0.00305813
-0.00183701
-0.00109286
-0.000643843
-0.000375586
-0.000216924
-0.000124029
-7.01947e-05
-3.93181e-05
-2.17937e-05
-1.19525e-05
-6.48519e-06
-3.48065e-06
-1.84763e-06
-9.69949e-07
-5.03513e-07
-2.58414e-07
-1.31101e-07
-6.57747e-08
-3.26245e-08
-1.60329e-08
-7.87431e-09
-4.03923e-09
-2.60684e-09
-1838.45
-1818.7
-1779.88
-1723.31
-1650.84
-1564.79
-1467.74
-1362.46
-1251.76
-1138.35
-1024.74
-913.198
-805.666
-703.725
-608.591
-521.119
-441.824
-370.914
-308.331
-253.799
-206.87
-166.974
-133.46
-105.636
-82.8008
-64.2734
-49.4094
-37.6163
-28.3623
-21.1794
-15.664
-11.4741
-8.32474
-5.98235
-4.25825
-3.00235
-2.09686
-1.45068
-0.994199
-0.674973
-0.453962
-0.302469
-0.199653
-0.13056
-0.084583
-0.0542873
-0.0345183
-0.0217436
-0.0135686
-0.00838767
-0.00513611
-0.00311522
-0.00187144
-0.00111343
-0.000656006
-0.000382713
-0.000221059
-0.000126405
-7.15462e-05
-4.00793e-05
-2.22181e-05
-1.21868e-05
-6.61315e-06
-3.54982e-06
-1.88463e-06
-9.8952e-07
-5.13742e-07
-2.6372e-07
-1.33842e-07
-6.71665e-08
-3.32962e-08
-1.63622e-08
-8.07078e-09
-4.14351e-09
-2.6266e-09
-1829.9
-1810.57
-1772.55
-1717.09
-1645.95
-1561.32
-1465.7
-1361.78
-1252.27
-1139.86
-1027.04
-916.067
-808.891
-707.121
-612.002
-524.422
-444.928
-373.756
-310.877
-256.034
-208.797
-168.608
-134.824
-106.758
-83.711
-65.0019
-49.985
-38.0655
-28.7086
-21.4433
-15.8628
-11.6222
-8.43385
-6.06187
-4.31559
-3.04325
-2.12574
-1.47086
-1.00816
-0.68453
-0.46044
-0.306816
-0.202542
-0.132461
-0.0858216
-0.0550864
-0.035029
-0.0220668
-0.0137712
-0.00851343
-0.00521343
-0.00316231
-0.00189984
-0.0011304
-0.000666048
-0.000388597
-0.000224474
-0.000128367
-7.26629e-05
-4.07084e-05
-2.2569e-05
-1.23805e-05
-6.71898e-06
-3.60705e-06
-1.91526e-06
-1.00572e-06
-5.22219e-07
-2.68126e-07
-1.36103e-07
-6.82883e-08
-3.38714e-08
-1.66585e-08
-8.22994e-09
-4.2379e-09
-2.65514e-09
-1823.54
-1804.51
-1767.06
-1712.4
-1642.21
-1558.62
-1464.06
-1361.15
-1252.55
-1140.9
-1028.69
-918.167
-811.285
-709.667
-614.581
-526.936
-447.305
-375.945
-312.847
-257.772
-210.302
-169.889
-135.897
-107.643
-84.431
-65.5798
-50.4427
-38.4235
-28.9852
-21.6545
-16.0222
-11.7411
-8.52162
-6.12592
-4.36183
-3.07628
-2.14909
-1.48719
-1.01947
-0.692281
-0.465699
-0.310348
-0.20489
-0.134007
-0.0868297
-0.0557373
-0.0354451
-0.0223303
-0.0139363
-0.008616
-0.00527651
-0.00320073
-0.00192302
-0.00114425
-0.000674244
-0.0003934
-0.000227262
-0.00012997
-7.35748e-05
-4.12222e-05
-2.28556e-05
-1.25388e-05
-6.80547e-06
-3.65384e-06
-1.94031e-06
-1.01898e-06
-5.29171e-07
-2.71692e-07
-1.37923e-07
-6.92267e-08
-3.43598e-08
-1.69165e-08
-8.32872e-09
-4.29607e-09
-2.68697e-09
-1818.82
-1800
-1762.97
-1708.88
-1639.39
-1556.56
-1462.77
-1360.6
-1252.68
-1141.61
-1029.87
-919.697
-813.05
-711.563
-616.515
-528.835
-449.11
-377.616
-314.358
-259.11
-211.465
-170.882
-136.732
-108.334
-84.9948
-66.0334
-50.8029
-38.7059
-29.2039
-21.8218
-16.1486
-11.8356
-8.59146
-6.17697
-4.39874
-3.10268
-2.16778
-1.50028
-1.02853
-0.698501
-0.469922
-0.313187
-0.206779
-0.135251
-0.0876415
-0.0562616
-0.0357804
-0.0225426
-0.0140695
-0.00869874
-0.00532741
-0.00323174
-0.00194173
-0.00115543
-0.000680859
-0.000397277
-0.000229512
-0.000131263
-7.43108e-05
-4.1637e-05
-2.3087e-05
-1.26666e-05
-6.87531e-06
-3.69161e-06
-1.96053e-06
-1.02969e-06
-5.34761e-07
-2.74605e-07
-1.39422e-07
-6.9994e-08
-3.47506e-08
-1.7069e-08
-8.42092e-09
-4.35205e-09
-2.72868e-09
-1815.33
-1796.67
-1759.94
-1706.26
-1637.27
-1554.99
-1461.77
-1360.15
-1252.73
-1142.1
-1030.71
-920.804
-814.344
-712.964
-617.955
-530.257
-450.469
-378.881
-315.507
-260.131
-212.356
-171.646
-137.375
-108.868
-85.4318
-66.3859
-51.0834
-38.9263
-29.3749
-21.9528
-16.2479
-11.9099
-8.64647
-6.21723
-4.42789
-3.12355
-2.18256
-1.51064
-1.03573
-0.703439
-0.473278
-0.315444
-0.208283
-0.136242
-0.0882882
-0.0566795
-0.0360479
-0.0227121
-0.0141758
-0.00876477
-0.00536803
-0.00325649
-0.00195666
-0.00116435
-0.000686139
-0.000400371
-0.000231308
-0.000132295
-7.4898e-05
-4.19678e-05
-2.32715e-05
-1.27684e-05
-6.93104e-06
-3.72175e-06
-1.97663e-06
-1.0382e-06
-5.39207e-07
-2.76915e-07
-1.40625e-07
-7.06108e-08
-3.50513e-08
-1.72414e-08
-8.50873e-09
-4.37071e-09
-2.75722e-09
-1812.78
-1794.23
-1757.7
-1704.32
-1635.69
-1553.81
-1461
-1359.78
-1252.73
-1142.42
-1031.3
-921.602
-815.286
-713.993
-619.02
-531.314
-451.484
-379.829
-316.371
-260.903
-213.031
-172.227
-137.866
-109.277
-85.7671
-66.657
-51.2997
-39.0966
-29.5073
-22.0545
-16.325
-11.9678
-8.68934
-6.24866
-4.45066
-3.13989
-2.19415
-1.51877
-1.04137
-0.707319
-0.475917
-0.317221
-0.209466
-0.137023
-0.0887981
-0.0570091
-0.0362588
-0.0228458
-0.0142597
-0.00881689
-0.0054001
-0.00327603
-0.00196845
-0.00117139
-0.000690306
-0.000402813
-0.000232724
-0.000133109
-7.53609e-05
-4.22286e-05
-2.3417e-05
-1.28487e-05
-6.97489e-06
-3.74546e-06
-1.98933e-06
-1.0449e-06
-5.42739e-07
-2.7876e-07
-1.41551e-07
-7.10576e-08
-3.52796e-08
-1.73852e-08
-8.57678e-09
-4.42011e-09
-2.75502e-09
-1810.91
-1792.44
-1756.07
-1702.9
-1634.52
-1552.93
-1460.42
-1359.48
-1252.7
-1142.64
-1031.72
-922.172
-815.967
-714.742
-619.8
-532.093
-452.236
-380.534
-317.017
-261.482
-213.539
-172.665
-138.238
-109.587
-86.022
-66.8636
-51.4648
-39.2268
-29.6087
-22.1325
-16.3844
-12.0123
-8.72241
-6.27293
-4.46828
-3.15254
-2.20313
-1.52508
-1.04576
-0.710336
-0.47797
-0.318604
-0.210389
-0.137632
-0.0891958
-0.0572664
-0.0364235
-0.0229502
-0.0143252
-0.0088576
-0.00542515
-0.00329129
-0.00197766
-0.00117689
-0.000693558
-0.000404718
-0.000233829
-0.000133743
-7.57217e-05
-4.24317e-05
-2.35302e-05
-1.29112e-05
-7.00903e-06
-3.7639e-06
-1.99917e-06
-1.05016e-06
-5.45505e-07
-2.80157e-07
-1.42246e-07
-7.14286e-08
-3.54794e-08
-1.7462e-08
-8.62179e-09
-4.44096e-09
-2.77697e-09
-1809.56
-1791.14
-1754.88
-1701.86
-1633.66
-1552.28
-1459.98
-1359.26
-1252.67
-1142.78
-1032.01
-922.578
-816.456
-715.285
-620.368
-532.663
-452.788
-381.055
-317.495
-261.911
-213.918
-172.992
-138.516
-109.82
-86.2138
-67.0194
-51.5896
-39.3255
-29.6857
-22.1918
-16.4295
-12.0463
-8.74767
-6.29149
-4.48177
-3.16223
-2.21002
-1.52993
-1.04913
-0.712657
-0.479552
-0.31967
-0.2111
-0.138102
-0.0895028
-0.057465
-0.0365507
-0.0230308
-0.0143758
-0.00888905
-0.0054445
-0.00330307
-0.00198476
-0.00118113
-0.000696068
-0.000406187
-0.000234681
-0.000134232
-7.59996e-05
-4.25881e-05
-2.36173e-05
-1.29593e-05
-7.03524e-06
-3.77804e-06
-2.00677e-06
-1.05418e-06
-5.47593e-07
-2.8125e-07
-1.42821e-07
-7.16975e-08
-3.56056e-08
-1.75191e-08
-8.63057e-09
-4.46401e-09
-2.82856e-09
-1808.58
-1790.21
-1754.02
-1701.1
-1633.04
-1551.8
-1459.66
-1359.08
-1252.64
-1142.88
-1032.21
-922.865
-816.806
-715.675
-620.779
-533.076
-453.191
-381.435
-317.846
-262.227
-214.197
-173.234
-138.722
-109.993
-86.3567
-67.1357
-51.683
-39.3995
-29.7435
-22.2365
-16.4635
-12.0719
-8.76675
-6.30554
-4.49199
-3.16959
-2.21526
-1.53362
-1.0517
-0.714426
-0.480757
-0.320484
-0.211643
-0.13846
-0.0897374
-0.0576168
-0.036648
-0.0230925
-0.0144145
-0.0089131
-0.00545929
-0.00331208
-0.00199019
-0.00118437
-0.000697983
-0.000407308
-0.00023533
-0.000134605
-7.62112e-05
-4.2707e-05
-2.36835e-05
-1.29957e-05
-7.05515e-06
-3.78882e-06
-2.01251e-06
-1.05719e-06
-5.49167e-07
-2.82062e-07
-1.43242e-07
-7.19126e-08
-3.56857e-08
-1.75696e-08
-8.68654e-09
-4.49694e-09
-2.83624e-09
-1807.89
-1789.54
-1753.4
-1700.56
-1632.59
-1551.45
-1459.42
-1358.95
-1252.61
-1142.94
-1032.35
-923.067
-817.054
-715.954
-621.073
-533.374
-453.482
-381.711
-318.101
-262.458
-214.401
-173.411
-138.874
-110.12
-86.4623
-67.2218
-51.7523
-39.4544
-29.7865
-22.2697
-16.4889
-12.0911
-8.78104
-6.31606
-4.49966
-3.17511
-2.21919
-1.53639
-1.05363
-0.715759
-0.481667
-0.321098
-0.212053
-0.138731
-0.0899147
-0.0577316
-0.0367215
-0.0231391
-0.0144438
-0.00893129
-0.00547047
-0.00331889
-0.0019943
-0.00118682
-0.000699429
-0.000408153
-0.000235819
-0.000134885
-7.63703e-05
-4.27965e-05
-2.37332e-05
-1.30231e-05
-7.07009e-06
-3.79688e-06
-2.01679e-06
-1.05947e-06
-5.50351e-07
-2.82653e-07
-1.43552e-07
-7.20893e-08
-3.57757e-08
-1.7608e-08
-8.7063e-09
-4.49255e-09
-2.84502e-09
-1807.39
-1789.06
-1752.96
-1700.17
-1632.27
-1551.2
-1459.25
-1358.86
-1252.59
-1142.98
-1032.44
-923.208
-817.229
-716.151
-621.283
-533.587
-453.69
-381.909
-318.285
-262.624
-214.549
-173.54
-138.985
-110.213
-86.5395
-67.2849
-51.8031
-39.4948
-29.8182
-22.2943
-16.5077
-12.1053
-8.79162
-6.32387
-4.50536
-3.17922
-2.22212
-1.53845
-1.05507
-0.716753
-0.482346
-0.321556
-0.21236
-0.138934
-0.0900474
-0.0578175
-0.0367766
-0.023174
-0.0144657
-0.0089449
-0.00547884
-0.00332398
-0.00199737
-0.00118865
-0.000700509
-0.000408784
-0.000236184
-0.000135094
-7.64888e-05
-4.28629e-05
-2.37702e-05
-1.30434e-05
-7.08115e-06
-3.80282e-06
-2.01996e-06
-1.06115e-06
-5.51233e-07
-2.83103e-07
-1.43785e-07
-7.22046e-08
-3.58427e-08
-1.76354e-08
-8.68874e-09
-4.47938e-09
-2.87905e-09
-1807.04
-1788.72
-1752.65
-1699.9
-1632.04
-1551.03
-1459.12
-1358.79
-1252.57
-1143
-1032.51
-923.306
-817.351
-716.29
-621.431
-533.738
-453.839
-382.051
-318.416
-262.744
-214.656
-173.633
-139.064
-110.281
-86.5954
-67.3307
-51.8401
-39.5242
-29.8413
-22.3122
-16.5214
-12.1156
-8.79938
-6.32961
-4.50955
-3.18224
-2.22428
-1.53998
-1.05614
-0.717488
-0.482848
-0.321896
-0.212587
-0.139084
-0.0901457
-0.0578812
-0.0368174
-0.0231999
-0.014482
-0.00895498
-0.00548504
-0.00332775
-0.00199963
-0.00119
-0.000701306
-0.000409249
-0.000236453
-0.000135248
-7.65759e-05
-4.29118e-05
-2.37973e-05
-1.30583e-05
-7.08921e-06
-3.80717e-06
-2.02232e-06
-1.06238e-06
-5.51848e-07
-2.83421e-07
-1.4394e-07
-7.22979e-08
-3.59184e-08
-1.76585e-08
-8.69313e-09
-4.49584e-09
-2.85271e-09
-1806.79
-1788.49
-1752.43
-1699.71
-1631.88
-1550.9
-1459.03
-1358.73
-1252.55
-1143.02
-1032.55
-923.373
-817.435
-716.386
-621.535
-533.844
-453.943
-382.151
-318.51
-262.829
-214.731
-173.7
-139.121
-110.329
-86.6356
-67.3637
-51.8667
-39.5454
-29.858
-22.3252
-16.5314
-12.1232
-8.80502
-6.33378
-4.51259
-3.18444
-2.22586
-1.54109
-1.05691
-0.718026
-0.483216
-0.322144
-0.212753
-0.139194
-0.0902178
-0.0579278
-0.0368473
-0.0232189
-0.0144939
-0.00896237
-0.00548958
-0.00333051
-0.00200129
-0.00119099
-0.000701888
-0.000409589
-0.000236649
-0.00013536
-7.66392e-05
-4.29472e-05
-2.38169e-05
-1.30691e-05
-7.09505e-06
-3.81032e-06
-2.02399e-06
-1.06326e-06
-5.52296e-07
-2.83653e-07
-1.44069e-07
-7.23648e-08
-3.5936e-08
-1.76563e-08
-8.71399e-09
-4.50792e-09
-2.84722e-09
-1806.62
-1788.32
-1752.28
-1699.57
-1631.76
-1550.81
-1458.97
-1358.7
-1252.54
-1143.03
-1032.58
-923.419
-817.494
-716.454
-621.607
-533.918
-454.016
-382.221
-318.575
-262.889
-214.785
-173.747
-139.162
-110.363
-86.6641
-67.3871
-51.8857
-39.5606
-29.87
-22.3344
-16.5385
-12.1286
-8.80908
-6.33678
-4.51479
-3.18603
-2.22699
-1.5419
-1.05748
-0.718415
-0.483482
-0.322324
-0.212873
-0.139274
-0.09027
-0.0579617
-0.036869
-0.0232326
-0.0145025
-0.00896774
-0.00549287
-0.00333251
-0.0020025
-0.00119171
-0.000702309
-0.000409834
-0.000236791
-0.000135441
-7.66848e-05
-4.29727e-05
-2.3831e-05
-1.30768e-05
-7.09922e-06
-3.81256e-06
-2.02518e-06
-1.06388e-06
-5.52637e-07
-2.83842e-07
-1.44125e-07
-7.23736e-08
-3.59481e-08
-1.76782e-08
-8.73374e-09
-4.51231e-09
-2.84502e-09
-1806.51
-1788.21
-1752.17
-1699.48
-1631.68
-1550.75
-1458.92
-1358.67
-1252.53
-1143.04
-1032.6
-923.451
-817.534
-716.5
-621.657
-533.969
-454.067
-382.27
-318.621
-262.931
-214.822
-173.78
-139.19
-110.387
-86.6843
-67.4037
-51.8991
-39.5714
-29.8784
-22.341
-16.5436
-12.1324
-8.81196
-6.33892
-4.51636
-3.18717
-2.22781
-1.54247
-1.05788
-0.718694
-0.483673
-0.322454
-0.21296
-0.139332
-0.0903076
-0.0579861
-0.0368846
-0.0232425
-0.0145087
-0.00897158
-0.00549523
-0.00333394
-0.00200336
-0.00119222
-0.000702611
-0.000410009
-0.000236891
-0.000135498
-7.67172e-05
-4.29908e-05
-2.3841e-05
-1.30822e-05
-7.10219e-06
-3.81413e-06
-2.02602e-06
-1.06432e-06
-5.52855e-07
-2.8395e-07
-1.44191e-07
-7.24043e-08
-3.59689e-08
-1.77188e-08
-8.73374e-09
-4.4695e-09
-2.84502e-09
-1806.42
-1788.13
-1752.1
-1699.41
-1631.63
-1550.71
-1458.89
-1358.65
-1252.52
-1143.04
-1032.62
-923.472
-817.561
-716.531
-621.691
-534.004
-454.102
-382.304
-318.653
-262.96
-214.848
-173.802
-139.21
-110.404
-86.6983
-67.4153
-51.9085
-39.5789
-29.8844
-22.3457
-16.5471
-12.1352
-8.814
-6.34043
-4.51747
-3.18797
-2.22838
-1.54288
-1.05816
-0.718892
-0.483808
-0.322546
-0.213022
-0.139372
-0.0903343
-0.0580034
-0.0368957
-0.0232496
-0.0145131
-0.00897432
-0.00549691
-0.00333496
-0.00200397
-0.00119258
-0.000702824
-0.000410133
-0.000236963
-0.000135538
-7.674e-05
-4.30035e-05
-2.3848e-05
-1.30861e-05
-7.10428e-06
-3.81525e-06
-2.02659e-06
-1.06461e-06
-5.52999e-07
-2.84011e-07
-1.4424e-07
-7.24417e-08
-3.59777e-08
-1.77155e-08
-8.73594e-09
-4.49365e-09
-2.81539e-09
-1806.37
-1788.08
-1752.05
-1699.37
-1631.59
-1550.68
-1458.87
-1358.64
-1252.52
-1143.04
-1032.63
-923.486
-817.58
-716.553
-621.714
-534.028
-454.126
-382.327
-318.674
-262.979
-214.866
-173.818
-139.224
-110.416
-86.708
-67.4233
-51.915
-39.5841
-29.8885
-22.3489
-16.5496
-12.1371
-8.81543
-6.34149
-4.51825
-3.18854
-2.22879
-1.54317
-1.05837
-0.719031
-0.483904
-0.32261
-0.213065
-0.139401
-0.0903532
-0.0580156
-0.0369035
-0.0232545
-0.0145162
-0.00897625
-0.00549809
-0.00333568
-0.0020044
-0.00119284
-0.000702973
-0.00041022
-0.000237012
-0.000135567
-7.67558e-05
-4.30123e-05
-2.38528e-05
-1.30887e-05
-7.10571e-06
-3.81601e-06
-2.02698e-06
-1.06483e-06
-5.53117e-07
-2.84078e-07
-1.44263e-07
-7.24548e-08
-3.5992e-08
-1.77144e-08
-8.72606e-09
-4.50352e-09
-2.82197e-09
-1806.33
-1788.04
-1752.02
-1699.34
-1631.57
-1550.66
-1458.86
-1358.63
-1252.52
-1143.05
-1032.63
-923.496
-817.592
-716.567
-621.729
-534.044
-454.142
-382.342
-318.689
-262.993
-214.878
-173.829
-139.233
-110.424
-86.7147
-67.4288
-51.9195
-39.5877
-29.8914
-22.3511
-16.5514
-12.1384
-8.81641
-6.34222
-4.51878
-3.18893
-2.22907
-1.54336
-1.0585
-0.719128
-0.48397
-0.322655
-0.213095
-0.139421
-0.0903663
-0.0580241
-0.036909
-0.023258
-0.0145184
-0.00897759
-0.00549891
-0.00333617
-0.0020047
-0.00119301
-0.000703076
-0.00041028
-0.000237047
-0.000135586
-7.67668e-05
-4.30184e-05
-2.38562e-05
-1.30905e-05
-7.10668e-06
-3.81653e-06
-2.02725e-06
-1.06497e-06
-5.5319e-07
-2.84124e-07
-1.44284e-07
-7.2434e-08
-3.597e-08
-1.77419e-08
-8.75899e-09
-4.50352e-09
-2.81758e-09
-1806.31
-1788.02
-1751.99
-1699.32
-1631.55
-1550.64
-1458.85
-1358.62
-1252.51
-1143.05
-1032.64
-923.502
-817.6
-716.576
-621.74
-534.055
-454.153
-382.353
-318.699
-263.002
-214.887
-173.836
-139.239
-110.429
-86.7192
-67.4325
-51.9226
-39.5902
-29.8933
-22.3527
-16.5525
-12.1393
-8.81709
-6.34273
-4.51915
-3.1892
-2.22926
-1.5435
-1.0586
-0.719195
-0.484016
-0.322686
-0.213116
-0.139435
-0.0903753
-0.05803
-0.0369127
-0.0232604
-0.0145199
-0.00897851
-0.00549948
-0.00333652
-0.0020049
-0.00119313
-0.000703147
-0.000410321
-0.00023707
-0.0001356
-7.67743e-05
-4.30225e-05
-2.38584e-05
-1.30918e-05
-7.10734e-06
-3.81691e-06
-2.02745e-06
-1.06504e-06
-5.53245e-07
-2.84165e-07
-1.44299e-07
-7.24581e-08
-3.59766e-08
-1.77199e-08
-8.76557e-09
-4.49913e-09
-2.81649e-09
-1806.29
-1788
-1751.98
-1699.31
-1631.54
-1550.63
-1458.84
-1358.62
-1252.51
-1143.05
-1032.64
-923.506
-817.606
-716.583
-621.747
-534.063
-454.16
-382.36
-318.705
-263.008
-214.892
-173.841
-139.243
-110.433
-86.7223
-67.4351
-51.9246
-39.5918
-29.8946
-22.3537
-16.5533
-12.1399
-8.81754
-6.34307
-4.5194
-3.18938
-2.22939
-1.5436
-1.05867
-0.71924
-0.484047
-0.322707
-0.21313
-0.139444
-0.0903815
-0.058034
-0.0369153
-0.023262
-0.0145209
-0.00897914
-0.00549987
-0.00333675
-0.00200504
-0.00119322
-0.000703196
-0.000410349
-0.000237086
-0.000135609
-7.67793e-05
-4.30253e-05
-2.386e-05
-1.30926e-05
-7.10778e-06
-3.81713e-06
-2.02758e-06
-1.06511e-06
-5.53255e-07
-2.84155e-07
-1.44313e-07
-7.24823e-08
-3.59898e-08
-1.77254e-08
-8.77216e-09
-4.49145e-09
-2.811e-09
-1806.28
-1787.99
-1751.97
-1699.3
-1631.53
-1550.63
-1458.84
-1358.62
-1252.51
-1143.05
-1032.64
-923.509
-817.609
-716.587
-621.751
-534.067
-454.165
-382.365
-318.71
-263.012
-214.896
-173.844
-139.246
-110.435
-86.7243
-67.4367
-51.926
-39.5929
-29.8955
-22.3544
-16.5539
-12.1403
-8.81785
-6.3433
-4.51957
-3.1895