/*--------------------------------*- C++ -*----------------------------------*\
  =========                 |
  \\      /  F ield         | OpenFOAM: The Open Source CFD Toolbox
   \\    /   O peration     | Website:  https://openfoam.org
    \\  /    A nd           | Version:  10
     \\/     M anipulation  |
\*---------------------------------------------------------------------------*/
FoamFile
{
    format      ascii;
    class       volScalarField;
    location    "285";
    object      T;
}
// * * * * * * * * * * * * * * * * * * * * * * * * * * * * * * * * * * * * * //

dimensions      [0 0 0 1 0 0 0];

internalField   nonuniform List<scalar> 
11250
(
249.813
167.471
139.219
126.752
119.93
115.592
112.551
110.28
108.512
107.094
105.933
104.97
104.162
103.481
102.906
102.418
102.005
101.656
101.361
101.114
100.907
100.734
100.591
100.473
100.377
100.298
100.235
100.183
100.142
100.11
100.084
100.064
100.049
100.037
100.027
100.02
100.015
100.011
100.008
100.006
100.004
100.003
100.002
100.001
100.001
100.001
100
100
100
100
100
100
100
100
100
100
100
100
100
100
100
100
100
100
100
100
100
100
100
100
100
100
100
100
100
331.413
248.33
201.886
174.629
157.333
145.507
136.914
130.374
125.223
121.063
117.642
114.792
112.399
110.378
108.666
107.214
105.984
104.943
104.065
103.327
102.709
102.194
101.767
101.415
101.126
100.891
100.701
100.548
100.426
100.329
100.252
100.192
100.145
100.109
100.082
100.061
100.045
100.033
100.024
100.017
100.012
100.009
100.006
100.004
100.003
100.002
100.001
100.001
100.001
100
100
100
100
100
100
100
100
100
100
100
100
100
100
100
100
100
100
100
100
100
100
100
100
100
100
358.93
292.576
245.409
212.604
189.337
172.273
159.32
149.185
141.056
134.41
128.898
124.279
120.382
117.08
114.276
111.894
109.872
108.159
106.713
105.496
104.477
103.627
102.922
102.34
101.864
101.475
101.16
100.907
100.705
100.544
100.417
100.318
100.241
100.181
100.135
100.1
100.074
100.054
100.039
100.028
100.02
100.015
100.01
100.007
100.005
100.003
100.002
100.002
100.001
100.001
100.001
100
100
100
100
100
100
100
100
100
100
100
100
100
100
100
100
100
100
100
100
100
100
100
100
370.677
317.677
274.639
241.14
215.258
195.071
179.069
166.163
155.59
146.815
139.457
133.242
127.967
123.476
119.649
116.389
113.616
111.262
109.272
107.595
106.19
105.016
104.043
103.239
102.58
102.043
101.607
101.257
100.977
100.754
100.578
100.441
100.334
100.251
100.187
100.139
100.102
100.075
100.055
100.039
100.028
100.02
100.014
100.01
100.007
100.005
100.003
100.002
100.002
100.001
100.001
100
100
100
100
100
100
100
100
100
100
100
100
100
100
100
100
100
100
100
100
100
100
100
100
376.797
332.877
294.43
262.191
235.651
213.879
195.942
181.051
168.585
158.071
149.148
141.542
135.04
129.475
124.712
120.64
117.168
114.214
111.712
109.601
107.829
106.349
105.119
104.103
103.269
102.589
102.038
101.594
101.239
100.957
100.734
100.559
100.423
100.319
100.238
100.177
100.13
100.095
100.069
100.05
100.036
100.026
100.018
100.013
100.009
100.006
100.004
100.003
100.002
100.001
100.001
100.001
100
100
100
100
100
100
100
100
100
100
100
100
100
100
100
100
100
100
100
100
100
100
100
380.459
342.678
308.137
277.715
251.488
229.103
210.052
193.822
179.957
168.077
157.871
149.087
141.522
135.009
129.408
124.603
120.491
116.985
114.009
111.494
109.379
107.61
106.14
104.924
103.925
103.11
102.448
101.916
101.489
101.15
100.883
100.673
100.509
100.383
100.286
100.213
100.157
100.115
100.083
100.06
100.043
100.031
100.022
100.015
100.011
100.007
100.005
100.003
100.002
100.002
100.001
100.001
100
100
100
100
100
100
100
100
100
100
100
100
100
100
100
100
100
100
100
100
100
100
100
382.852
349.331
317.874
289.25
263.741
241.295
221.681
204.598
189.74
176.821
165.591
155.837
147.372
140.039
133.703
128.244
123.558
119.552
116.144
113.258
110.827
108.792
107.097
105.695
104.542
103.6
102.836
102.219
101.726
101.333
101.023
100.78
100.591
100.445
100.332
100.247
100.182
100.133
100.097
100.07
100.05
100.036
100.025
100.018
100.012
100.009
100.006
100.004
100.003
100.002
100.001
100.001
100.001
100
100
100
100
100
100
100
100
100
100
100
100
100
100
100
100
100
100
100
100
100
100
384.507
354.028
324.954
297.911
273.23
251.006
231.175
213.583
198.043
184.355
172.328
161.789
152.576
144.549
137.578
131.548
126.354
121.902
118.104
114.883
112.165
109.885
107.985
106.412
105.116
104.057
103.197
102.503
101.947
101.505
101.155
100.881
100.668
100.502
100.376
100.279
100.206
100.151
100.11
100.079
100.057
100.04
100.029
100.02
100.014
100.01
100.007
100.005
100.003
100.002
100.001
100.001
100.001
100
100
100
100
100
100
100
100
100
100
100
100
100
100
100
100
100
100
100
100
100
100
385.694
357.441
330.201
304.481
280.602
258.723
238.877
221.008
205.016
190.77
178.135
166.971
157.148
148.541
141.03
134.508
128.872
124.027
119.884
116.363
113.386
110.887
108.801
107.071
105.645
104.479
103.531
102.766
102.152
101.664
101.278
100.975
100.739
100.556
100.416
100.309
100.228
100.167
100.121
100.088
100.063
100.045
100.032
100.022
100.016
100.011
100.007
100.005
100.003
100.002
100.002
100.001
100.001
100
100
100
100
100
100
100
100
100
100
100
100
100
100
100
100
100
100
100
100
100
100
386.569
359.975
334.151
309.511
286.35
264.852
245.099
227.103
210.822
196.18
183.086
171.435
161.12
152.034
144.071
137.131
131.114
125.927
121.482
117.696
114.49
111.794
109.541
107.671
106.128
104.864
103.837
103.006
102.341
101.81
101.391
101.061
100.804
100.606
100.453
100.336
100.248
100.182
100.132
100.096
100.069
100.049
100.035
100.024
100.017
100.012
100.008
100.006
100.004
100.003
100.002
100.001
100.001
100
100
100
100
100
100
100
100
100
100
100
100
100
100
100
100
100
100
100
100
100
100
387.225
361.887
337.16
313.391
290.848
269.718
250.112
232.08
215.623
200.705
187.269
175.24
164.534
155.058
146.721
139.429
133.088
127.608
122.901
118.884
115.478
112.608
110.207
108.211
106.564
105.213
104.114
103.225
102.512
101.943
101.493
101.14
100.864
100.651
100.487
100.362
100.267
100.196
100.142
100.103
100.074
100.053
100.037
100.026
100.018
100.013
100.009
100.006
100.004
100.003
100.002
100.001
100.001
100.001
100
100
100
100
100
100
100
100
100
100
100
100
100
100
100
100
100
100
100
100
100
387.724
363.345
339.473
316.403
294.378
273.582
254.141
236.126
219.568
204.462
190.776
178.457
167.441
157.652
149.008
141.423
134.809
129.08
124.149
119.932
116.351
113.33
110.799
108.693
106.953
105.525
104.362
103.421
102.666
102.063
101.586
101.211
100.919
100.692
100.518
100.385
100.284
100.208
100.152
100.11
100.079
100.056
100.04
100.028
100.02
100.014
100.009
100.006
100.004
100.003
100.002
100.001
100.001
100.001
100
100
100
100
100
100
100
100
100
100
100
100
100
100
100
100
100
100
100
100
100
388.107
364.468
341.262
318.751
297.154
276.651
257.372
239.403
222.795
207.562
193.693
181.154
169.896
159.856
150.963
143.137
136.296
130.357
125.235
120.848
117.117
113.965
111.322
109.119
107.298
105.802
104.583
103.596
102.803
102.17
101.669
101.275
100.967
100.729
100.545
100.405
100.299
100.219
100.16
100.116
100.083
100.059
100.042
100.029
100.021
100.014
100.01
100.007
100.005
100.003
100.002
100.001
100.001
100.001
100
100
100
100
100
100
100
100
100
100
100
100
100
100
100
100
100
100
100
100
100
388.402
365.336
342.653
320.586
299.341
279.087
259.957
242.048
225.42
210.104
196.103
183.398
171.953
161.714
152.619
144.596
137.568
131.454
126.172
121.641
117.782
114.518
111.778
109.492
107.601
106.046
104.778
103.75
102.924
102.265
101.742
101.331
101.01
100.761
100.57
100.424
100.313
100.229
100.167
100.121
100.087
100.062
100.044
100.031
100.022
100.015
100.01
100.007
100.005
100.003
100.002
100.001
100.001
100.001
100
100
100
100
100
100
100
100
100
100
100
100
100
100
100
100
100
100
100
100
100
388.631
366.011
343.737
322.024
301.063
281.018
262.022
244.175
227.547
212.178
198.083
185.253
173.663
163.267
154.011
145.828
138.647
132.388
126.973
122.322
118.355
114.996
112.172
109.816
107.864
106.258
104.947
103.885
103.03
102.348
101.807
101.381
101.048
100.79
100.592
100.44
100.325
100.238
100.174
100.126
100.09
100.064
100.046
100.032
100.022
100.016
100.011
100.007
100.005
100.003
100.002
100.002
100.001
100.001
100
100
100
100
100
100
100
100
100
100
100
100
100
100
100
100
100
100
100
100
100
388.81
366.537
344.584
323.151
302.42
282.548
263.667
245.88
229.262
213.861
199.699
186.776
175.074
164.556
155.172
146.861
139.554
133.177
127.652
122.9
118.843
115.404
112.51
110.094
108.09
106.441
105.094
104.002
103.123
102.42
101.863
101.424
101.081
100.815
100.611
100.454
100.336
100.246
100.179
100.13
100.093
100.066
100.047
100.033
100.023
100.016
100.011
100.008
100.005
100.003
100.002
100.002
100.001
100.001
100
100
100
100
100
100
100
100
100
100
100
100
100
100
100
100
100
100
100
100
100
388.948
366.946
345.245
324.034
303.487
283.757
264.974
247.242
230.64
215.219
201.01
188.019
176.232
165.618
156.132
147.719
140.311
133.838
128.222
123.387
119.255
115.75
112.798
110.331
108.284
106.598
105.22
104.102
103.202
102.482
101.911
101.462
101.11
100.837
100.627
100.467
100.345
100.253
100.184
100.133
100.096
100.068
100.048
100.034
100.024
100.017
100.011
100.008
100.005
100.004
100.002
100.002
100.001
100.001
100
100
100
100
100
100
100
100
100
100
100
100
100
100
100
100
100
100
100
100
100
389.056
367.266
345.762
324.726
304.326
284.711
266.009
248.326
231.741
216.311
202.069
189.027
177.174
166.486
156.921
148.426
140.938
134.386
128.698
123.795
119.601
116.041
113.04
110.531
108.448
106.731
105.327
104.188
103.27
102.535
101.953
101.494
101.135
100.856
100.641
100.477
100.353
100.259
100.189
100.136
100.098
100.07
100.05
100.035
100.024
100.017
100.012
100.008
100.005
100.004
100.002
100.002
100.001
100.001
100
100
100
100
100
100
100
100
100
100
100
100
100
100
100
100
100
100
100
100
100
389.141
367.515
346.165
325.267
304.983
285.461
266.826
249.184
232.617
217.183
202.919
189.839
177.938
167.192
157.565
149.005
141.453
134.839
129.091
124.133
119.889
116.283
113.243
110.698
108.585
106.843
105.417
104.26
103.327
102.58
101.988
101.521
101.155
100.872
100.653
100.486
100.359
100.264
100.192
100.139
100.1
100.071
100.051
100.036
100.025
100.017
100.012
100.008
100.006
100.004
100.003
100.002
100.001
100.001
100
100
100
100
100
100
100
100
100
100
100
100
100
100
100
100
100
100
100
100
100
389.206
367.708
346.479
325.689
305.498
286.049
267.469
249.862
233.312
217.877
203.598
190.49
178.551
167.762
158.087
149.476
141.873
135.209
129.413
124.411
120.126
116.484
113.411
110.838
108.7
106.936
105.493
104.32
103.375
102.618
102.017
101.544
101.173
100.885
100.663
100.494
100.365
100.268
100.195
100.141
100.102
100.073
100.051
100.036
100.025
100.018
100.012
100.008
100.006
100.004
100.003
100.002
100.001
100.001
100
100
100
100
100
100
100
100
100
100
100
100
100
100
100
100
100
100
100
100
100
389.257
367.858
346.722
326.017
305.898
286.509
267.973
250.395
233.859
218.426
204.136
191.008
179.042
168.219
158.506
149.857
142.213
135.509
129.676
124.638
120.321
116.648
113.549
110.952
108.794
107.013
105.555
104.37
103.414
102.65
102.042
101.563
101.188
100.897
100.672
100.5
100.37
100.271
100.198
100.143
100.103
100.074
100.052
100.037
100.026
100.018
100.012
100.008
100.006
100.004
100.003
100.002
100.001
100.001
100
100
100
100
100
100
100
100
100
100
100
100
100
100
100
100
100
100
100
100
100
389.296
367.974
346.911
326.271
306.21
286.867
268.366
250.813
234.289
218.858
204.562
191.419
179.432
168.584
158.842
150.161
142.486
135.752
129.888
124.822
120.478
116.782
113.661
111.046
108.871
107.076
105.606
104.411
103.447
102.675
102.062
101.579
101.2
100.906
100.679
100.506
100.374
100.274
100.2
100.145
100.104
100.074
100.053
100.037
100.026
100.018
100.012
100.009
100.006
100.004
100.003
100.002
100.001
100.001
100
100
100
100
100
100
100
100
100
100
100
100
100
100
100
100
100
100
100
100
100
389.326
368.064
347.057
326.468
306.451
287.145
268.672
251.138
234.625
219.197
204.896
191.743
179.74
168.872
159.108
150.404
142.704
135.945
130.058
124.97
120.606
116.891
113.753
111.122
108.934
107.128
105.648
104.445
103.474
102.697
102.079
101.591
101.21
100.914
100.685
100.51
100.377
100.277
100.202
100.146
100.105
100.075
100.053
100.037
100.026
100.018
100.013
100.009
100.006
100.004
100.003
100.002
100.001
100.001
100
100
100
100
100
100
100
100
100
100
100
100
100
100
100
100
100
100
100
100
100
389.349
368.132
347.169
326.62
306.637
287.359
268.909
251.39
234.886
219.46
205.156
191.996
179.981
169.099
159.318
150.596
142.877
136.1
130.194
125.088
120.707
116.977
113.826
111.184
108.985
107.17
105.682
104.472
103.496
102.714
102.092
101.602
101.218
100.92
100.69
100.514
100.38
100.279
100.203
100.147
100.106
100.076
100.054
100.038
100.026
100.018
100.013
100.009
100.006
100.004
100.003
100.002
100.001
100.001
100.001
100
100
100
100
100
100
100
100
100
100
100
100
100
100
100
100
100
100
100
100
389.367
368.185
347.255
326.736
306.78
287.524
269.091
251.584
235.087
219.665
205.359
192.193
180.17
169.276
159.483
150.746
143.013
136.221
130.301
125.182
120.788
117.046
113.884
111.232
109.026
107.203
105.709
104.494
103.514
102.728
102.103
101.611
101.225
100.925
100.694
100.517
100.382
100.281
100.205
100.148
100.107
100.076
100.054
100.038
100.027
100.018
100.013
100.009
100.006
100.004
100.003
100.002
100.001
100.001
100.001
100
100
100
100
100
100
100
100
100
100
100
100
100
100
100
100
100
100
100
100
389.38
368.225
347.32
326.824
306.889
287.65
269.23
251.733
235.242
219.822
205.515
192.345
180.316
169.414
159.611
150.864
143.12
136.316
130.386
125.255
120.852
117.101
113.93
111.271
109.058
107.229
105.731
104.512
103.528
102.739
102.112
101.617
101.23
100.929
100.697
100.519
100.384
100.282
100.206
100.149
100.107
100.076
100.054
100.038
100.027
100.019
100.013
100.009
100.006
100.004
100.003
100.002
100.001
100.001
100.001
100
100
100
100
100
100
100
100
100
100
100
100
100
100
100
100
100
100
100
100
389.391
368.256
347.37
326.892
306.972
287.746
269.337
251.847
235.361
219.943
205.635
192.462
180.429
169.521
159.71
150.955
143.203
136.391
130.451
125.313
120.902
117.144
113.967
111.302
109.083
107.25
105.748
104.526
103.539
102.748
102.119
101.623
101.234
100.932
100.699
100.521
100.385
100.283
100.206
100.149
100.107
100.077
100.054
100.038
100.027
100.019
100.013
100.009
100.006
100.004
100.003
100.002
100.001
100.001
100.001
100
100
100
100
100
100
100
100
100
100
100
100
100
100
100
100
100
100
100
100
389.399
368.279
347.407
326.943
307.034
287.819
269.418
251.934
235.451
220.035
205.727
192.552
180.515
169.602
159.787
151.025
143.266
136.448
130.502
125.357
120.94
117.177
113.995
111.325
109.103
107.267
105.761
104.536
103.547
102.755
102.125
101.627
101.238
100.935
100.701
100.522
100.386
100.284
100.207
100.15
100.108
100.077
100.055
100.038
100.027
100.019
100.013
100.009
100.006
100.004
100.003
100.002
100.001
100.001
100.001
100
100
100
100
100
100
100
100
100
100
100
100
100
100
100
100
100
100
100
100
389.404
368.296
347.436
326.981
307.082
287.874
269.478
251.999
235.52
220.104
205.796
192.62
180.581
169.665
159.845
151.079
143.315
136.492
130.541
125.392
120.97
117.202
114.017
111.344
109.118
107.279
105.772
104.545
103.554
102.76
102.129
101.631
101.24
100.937
100.703
100.523
100.387
100.284
100.207
100.15
100.108
100.077
100.055
100.039
100.027
100.019
100.013
100.009
100.006
100.004
100.003
100.002
100.001
100.001
100.001
100
100
100
100
100
100
100
100
100
100
100
100
100
100
100
100
100
100
100
100
389.409
368.309
347.457
327.01
307.117
287.915
269.524
252.048
235.571
220.157
205.849
192.672
180.63
169.712
159.889
151.12
143.352
136.525
130.571
125.418
120.993
117.222
114.034
111.358
109.13
107.289
105.78
104.551
103.559
102.765
102.132
101.633
101.242
100.938
100.704
100.524
100.388
100.285
100.208
100.151
100.108
100.077
100.055
100.039
100.027
100.019
100.013
100.009
100.006
100.004
100.003
100.002
100.001
100.001
100.001
100
100
100
100
100
100
100
100
100
100
100
100
100
100
100
100
100
100
100
100
389.412
368.319
347.472
327.031
307.143
287.946
269.558
252.085
235.609
220.196
205.888
192.71
180.668
169.747
159.922
151.151
143.381
136.551
130.594
125.438
121.01
117.237
114.046
111.369
109.139
107.297
105.786
104.556
103.564
102.768
102.135
101.635
101.244
100.94
100.705
100.525
100.388
100.285
100.208
100.151
100.108
100.077
100.055
100.039
100.027
100.019
100.013
100.009
100.006
100.004
100.003
100.002
100.001
100.001
100.001
100
100
100
100
100
100
100
100
100
100
100
100
100
100
100
100
100
100
100
100
389.414
368.326
347.484
327.047
307.163
287.968
269.584
252.112
235.638
220.225
205.917
192.739
180.695
169.774
159.947
151.174
143.402
136.57
130.611
125.453
121.024
117.249
114.056
111.377
109.146
107.303
105.791
104.56
103.567
102.77
102.137
101.637
101.245
100.941
100.706
100.526
100.389
100.286
100.208
100.151
100.109
100.078
100.055
100.039
100.027
100.019
100.013
100.009
100.006
100.004
100.003
100.002
100.001
100.001
100.001
100
100
100
100
100
100
100
100
100
100
100
100
100
100
100
100
100
100
100
100
389.416
368.331
347.493
327.059
307.177
287.985
269.602
252.132
235.659
220.247
205.939
192.761
180.716
169.794
159.966
151.191
143.418
136.584
130.624
125.464
121.033
117.257
114.063
111.383
109.151
107.307
105.794
104.563
103.569
102.772
102.138
101.638
101.246
100.941
100.706
100.526
100.389
100.286
100.209
100.151
100.109
100.078
100.055
100.039
100.027
100.019
100.013
100.009
100.006
100.004
100.003
100.002
100.001
100.001
100.001
100
100
100
100
100
100
100
100
100
100
100
100
100
100
100
100
100
100
100
100
389.417
368.335
347.499
327.067
307.188
287.997
269.616
252.147
235.675
220.263
205.955
192.776
180.731
169.808
159.98
151.204
143.429
136.595
130.633
125.473
121.041
117.263
114.069
111.388
109.155
107.31
105.797
104.565
103.571
102.774
102.139
101.639
101.247
100.942
100.706
100.526
100.389
100.286
100.209
100.151
100.109
100.078
100.055
100.039
100.027
100.019
100.013
100.009
100.006
100.004
100.003
100.002
100.001
100.001
100.001
100
100
100
100
100
100
100
100
100
100
100
100
100
100
100
100
100
100
100
100
389.418
368.338
347.504
327.073
307.196
288.006
269.626
252.158
235.686
220.274
205.967
192.788
180.743
169.819
159.99
151.213
143.438
136.603
130.64
125.479
121.046
117.268
114.073
111.391
109.158
107.313
105.799
104.567
103.572
102.775
102.14
101.64
101.247
100.942
100.707
100.527
100.39
100.286
100.209
100.151
100.109
100.078
100.055
100.039
100.027
100.019
100.013
100.009
100.006
100.004
100.003
100.002
100.001
100.001
100.001
100
100
100
100
100
100
100
100
100
100
100
100
100
100
100
100
100
100
100
100
389.419
368.34
347.507
327.078
307.201
288.013
269.633
252.166
235.694
220.283
205.975
192.796
180.751
169.827
159.997
151.22
143.444
136.608
130.645
125.484
121.05
117.272
114.076
111.394
109.16
107.314
105.8
104.568
103.573
102.775
102.141
101.64
101.248
100.942
100.707
100.527
100.39
100.286
100.209
100.151
100.109
100.078
100.055
100.039
100.027
100.019
100.013
100.009
100.006
100.004
100.003
100.002
100.001
100.001
100.001
100
100
100
100
100
100
100
100
100
100
100
100
100
100
100
100
100
100
100
100
389.42
368.341
347.509
327.081
307.205
288.017
269.638
252.171
235.7
220.289
205.981
192.802
180.757
169.833
160.002
151.225
143.449
136.612
130.649
125.487
121.053
117.274
114.078
111.396
109.162
107.316
105.801
104.569
103.574
102.776
102.141
101.64
101.248
100.943
100.707
100.527
100.39
100.286
100.209
100.151
100.109
100.078
100.055
100.039
100.027
100.019
100.013
100.009
100.006
100.004
100.003
100.002
100.001
100.001
100.001
100
100
100
100
100
100
100
100
100
100
100
100
100
100
100
100
100
100
100
100
389.42
368.342
347.511
327.083
307.208
288.021
269.642
252.175
235.704
220.293
205.986
192.807
180.761
169.837
160.006
151.229
143.452
136.615
130.652
125.489
121.055
117.276
114.08
111.397
109.163
107.317
105.802
104.57
103.574
102.776
102.142
101.641
101.248
100.943
100.707
100.527
100.39
100.286
100.209
100.151
100.109
100.078
100.055
100.039
100.027
100.019
100.013
100.009
100.006
100.004
100.003
100.002
100.001
100.001
100.001
100
100
100
100
100
100
100
100
100
100
100
100
100
100
100
100
100
100
100
100
389.42
368.343
347.512
327.085
307.21
288.023
269.645
252.178
235.707
220.296
205.989
192.81
180.764
169.84
160.009
151.231
143.454
136.618
130.653
125.491
121.057
117.277
114.081
111.398
109.164
107.317
105.803
104.57
103.575
102.777
102.142
101.641
101.248
100.943
100.707
100.527
100.39
100.286
100.209
100.151
100.109
100.078
100.055
100.039
100.027
100.019
100.013
100.009
100.006
100.004
100.003
100.002
100.001
100.001
100.001
100
100
100
100
100
100
100
100
100
100
100
100
100
100
100
100
100
100
100
100
389.42
368.344
347.513
327.086
307.212
288.025
269.647
252.18
235.709
220.298
205.991
192.812
180.766
169.842
160.011
151.233
143.456
136.619
130.655
125.492
121.058
117.278
114.082
111.399
109.164
107.318
105.803
104.571
103.575
102.777
102.142
101.641
101.248
100.943
100.707
100.527
100.39
100.286
100.209
100.151
100.109
100.078
100.055
100.039
100.027
100.019
100.013
100.009
100.006
100.004
100.003
100.002
100.001
100.001
100.001
100
100
100
100
100
100
100
100
100
100
100
100
100
100
100
100
100
100
100
100
389.42
368.344
347.514
327.087
307.213
288.026
269.648
252.182
235.711
220.3
205.993
192.814
180.768
169.843
160.012
151.234
143.457
136.62
130.656
125.493
121.059
117.279
114.082
111.399
109.165
107.318
105.803
104.571
103.575
102.777
102.142
101.641
101.248
100.943
100.708
100.527
100.39
100.286
100.209
100.151
100.109
100.078
100.055
100.039
100.027
100.019
100.013
100.009
100.006
100.004
100.003
100.002
100.001
100.001
100.001
100
100
100
100
100
100
100
100
100
100
100
100
100
100
100
100
100
100
100
100
389.421
368.344
347.514
327.088
307.213
288.027
269.649
252.183
235.712
220.301
205.994
192.815
180.769
169.844
160.013
151.235
143.458
136.621
130.657
125.494
121.059
117.279
114.083
111.4
109.165
107.318
105.804
104.571
103.575
102.777
102.142
101.641
101.248
100.943
100.708
100.527
100.39
100.286
100.209
100.151
100.109
100.078
100.055
100.039
100.027
100.019
100.013
100.009
100.006
100.004
100.003
100.002
100.001
100.001
100.001
100
100
100
100
100
100
100
100
100
100
100
100
100
100
100
100
100
100
100
100
389.421
368.344
347.514
327.088
307.214
288.027
269.65
252.183
235.713
220.302
205.995
192.815
180.769
169.845
160.014
151.236
143.459
136.621
130.657
125.494
121.059
117.28
114.083
111.4
109.165
107.318
105.804
104.571
103.575
102.777
102.142
101.641
101.249
100.943
100.708
100.527
100.39
100.286
100.209
100.151
100.109
100.078
100.055
100.039
100.027
100.019
100.013
100.009
100.006
100.004
100.003
100.002
100.001
100.001
100.001
100
100
100
100
100
100
100
100
100
100
100
100
100
100
100
100
100
100
100
100
389.421
368.344
347.514
327.088
307.214
288.028
269.65
252.184
235.713
220.302
205.995
192.816
180.77
169.845
160.014
151.236
143.459
136.622
130.657
125.494
121.06
117.28
114.083
111.4
109.165
107.319
105.804
104.571
103.575
102.777
102.142
101.641
101.249
100.943
100.708
100.527
100.39
100.286
100.209
100.151
100.109
100.078
100.055
100.039
100.027
100.019
100.013
100.009
100.006
100.004
100.003
100.002
100.001
100.001
100.001
100
100
100
100
100
100
100
100
100
100
100
100
100
100
100
100
100
100
100
100
389.421
368.345
347.515
327.088
307.214
288.028
269.65
252.184
235.714
220.303
205.996
192.816
180.77
169.846
160.015
151.237
143.459
136.622
130.658
125.495
121.06
117.28
114.083
111.4
109.166
107.319
105.804
104.571
103.575
102.777
102.142
101.641
101.249
100.943
100.708
100.527
100.39
100.286
100.209
100.151
100.109
100.078
100.055
100.039
100.027
100.019
100.013
100.009
100.006
100.004
100.003
100.002
100.001
100.001
100.001
100
100
100
100
100
100
100
100
100
100
100
100
100
100
100
100
100
100
100
100
389.421
368.345
347.515
327.089
307.214
288.028
269.651
252.184
235.714
220.303
205.996
192.816
180.771
169.846
160.015
151.237
143.46
136.622
130.658
125.495
121.06
117.28
114.083
111.4
109.166
107.319
105.804
104.571
103.575
102.777
102.142
101.641
101.249
100.943
100.708
100.527
100.39
100.286
100.209
100.151
100.109
100.078
100.055
100.039
100.027
100.019
100.013
100.009
100.006
100.004
100.003
100.002
100.001
100.001
100.001
100
100
100
100
100
100
100
100
100
100
100
100
100
100
100
100
100
100
100
100
389.421
368.345
347.515
327.089
307.215
288.028
269.651
252.185
235.714
220.303
205.996
192.817
180.771
169.846
160.015
151.237
143.46
136.622
130.658
125.495
121.06
117.28
114.083
111.4
109.166
107.319
105.804
104.571
103.576
102.777
102.142
101.641
101.249
100.943
100.708
100.527
100.39
100.286
100.209
100.151
100.109
100.078
100.055
100.039
100.027
100.019
100.013
100.009
100.006
100.004
100.003
100.002
100.001
100.001
100.001
100
100
100
100
100
100
100
100
100
100
100
100
100
100
100
100
100
100
100
100
389.421
368.345
347.515
327.089
307.215
288.029
269.651
252.185
235.714
220.303
205.996
192.817
180.771
169.846
160.015
151.237
143.46
136.622
130.658
125.495
121.06
117.28
114.083
111.4
109.166
107.319
105.804
104.571
103.576
102.777
102.142
101.641
101.249
100.943
100.708
100.527
100.39
100.286
100.209
100.151
100.109
100.078
100.055
100.039
100.027
100.019
100.013
100.009
100.006
100.004
100.003
100.002
100.001
100.001
100.001
100
100
100
100
100
100
100
100
100
100
100
100
100
100
100
100
100
100
100
100
389.421
368.345
347.515
327.089
307.215
288.029
269.651
252.185
235.714
220.303
205.996
192.817
180.771
169.846
160.015
151.237
143.46
136.623
130.658
125.495
121.06
117.28
114.083
111.4
109.166
107.319
105.804
104.571
103.576
102.777
102.142
101.641
101.249
100.943
100.708
100.527
100.39
100.286
100.209
100.151
100.109
100.078
100.055
100.039
100.027
100.019
100.013
100.009
100.006
100.004
100.003
100.002
100.001
100.001
100.001
100
100
100
100
100
100
100
100
100
100
100
100
100
100
100
100
100
100
100
100
389.421
368.345
347.515
327.089
307.215
288.029
269.651
252.185
235.714
220.303
205.996
192.817
180.771
169.846
160.015
151.237
143.46
136.623
130.658
125.495
121.06
117.28
114.083
111.4
109.166
107.319
105.804
104.571
103.576
102.777
102.142
101.641
101.249
100.943
100.708
100.527
100.39
100.286
100.209
100.151
100.109
100.078
100.055
100.039
100.027
100.019
100.013
100.009
100.006
100.004
100.003
100.002
100.001
100.001
100.001
100
100
100
100
100
100
100
100
100
100
100
100
100
100
100
100
100
100
100
100
389.421
368.345
347.515
327.089
307.215
288.029
269.651
252.185
235.714
220.303
205.996
192.817
180.771
169.846
160.015
151.237
143.46
136.623
130.658
125.495
121.06
117.28
114.083
111.4
109.166
107.319
105.804
104.571
103.576
102.777
102.142
101.641
101.249
100.943
100.708
100.527
100.39
100.287
100.209
100.151
100.109
100.078
100.055
100.039
100.027
100.019
100.013
100.009
100.006
100.004
100.003
100.002
100.001
100.001
100.001
100
100
100
100
100
100
100
100
100
100
100
100
100
100
100
100
100
100
100
100
389.421
368.345
347.515
327.089
307.215
288.029
269.651
252.185
235.714
220.303
205.996
192.817
180.771
169.846
160.015
151.237
143.46
136.623
130.658
125.495
121.06
117.28
114.083
111.4
109.166
107.319
105.804
104.571
103.576
102.777
102.142
101.641
101.249
100.943
100.708
100.527
100.39
100.287
100.209
100.151
100.109
100.078
100.055
100.039
100.027
100.019
100.013
100.009
100.006
100.004
100.003
100.002
100.001
100.001
100.001
100
100
100
100
100
100
100
100
100
100
100
100
100
100
100
100
100
100
100
100
389.421
368.345
347.515
327.089
307.215
288.029
269.651
252.185
235.714
220.303
205.996
192.817
180.771
169.846
160.015
151.237
143.46
136.623
130.658
125.495
121.06
117.28
114.083
111.4
109.166
107.319
105.804
104.571
103.576
102.777
102.142
101.641
101.249
100.943
100.708
100.527
100.39
100.287
100.209
100.151
100.109
100.078
100.055
100.039
100.027
100.019
100.013
100.009
100.006
100.004
100.003
100.002
100.001
100.001
100.001
100
100
100
100
100
100
100
100
100
100
100
100
100
100
100
100
100
100
100
100
389.421
368.345
347.515
327.089
307.215
288.029
269.651
252.185
235.714
220.303
205.996
192.817
180.771
169.846
160.015
151.237
143.46
136.623
130.658
125.495
121.06
117.28
114.083
111.4
109.166
107.319
105.804
104.571
103.576
102.777
102.142
101.641
101.249
100.943
100.708
100.527
100.39
100.287
100.209
100.151
100.109
100.078
100.055
100.039
100.027
100.019
100.013
100.009
100.006
100.004
100.003
100.002
100.001
100.001
100.001
100
100
100
100
100
100
100
100
100
100
100
100
100
100
100
100
100
100
100
100
389.421
368.345
347.515
327.089
307.215
288.029
269.651
252.185
235.714
220.303
205.996
192.817
180.771
169.846
160.015
151.237
143.46
136.623
130.658
125.495
121.06
117.28
114.083
111.4
109.166
107.319
105.804
104.571
103.576
102.777
102.143
101.641
101.249
100.943
100.708
100.527
100.39
100.287
100.209
100.151
100.109
100.078
100.055
100.039
100.027
100.019
100.013
100.009
100.006
100.004
100.003
100.002
100.001
100.001
100.001
100
100
100
100
100
100
100
100
100
100
100
100
100
100
100
100
100
100
100
100
389.421
368.345
347.515
327.089
307.215
288.029
269.651
252.185
235.714
220.303
205.996
192.817
180.771
169.846
160.015
151.237
143.46
136.623
130.658
125.495
121.06
117.28
114.083
111.4
109.166
107.319
105.804
104.571
103.576
102.777
102.143
101.641
101.249
100.943
100.708
100.527
100.39
100.287
100.209
100.151
100.109
100.078
100.055
100.039
100.027
100.019
100.013
100.009
100.006
100.004
100.003
100.002
100.001
100.001
100.001
100
100
100
100
100
100
100
100
100
100
100
100
100
100
100
100
100
100
100
100
389.421
368.345
347.515
327.089
307.215
288.029
269.651
252.185
235.714
220.303
205.996
192.817
180.771
169.846
160.015
151.237
143.46
136.623
130.658
125.495
121.06
117.28
114.083
111.4
109.166
107.319
105.804
104.571
103.576
102.777
102.143
101.641
101.249
100.943
100.708
100.527
100.39
100.287
100.209
100.151
100.109
100.078
100.055
100.039
100.027
100.019
100.013
100.009
100.006
100.004
100.003
100.002
100.001
100.001
100.001
100
100
100
100
100
100
100
100
100
100
100
100
100
100
100
100
100
100
100
100
389.421
368.345
347.515
327.089
307.215
288.029
269.651
252.185
235.714
220.303
205.996
192.817
180.771
169.846
160.015
151.237
143.46
136.623
130.658
125.495
121.06
117.28