/*--------------------------------*- C++ -*----------------------------------*\
  =========                 |
  \\      /  F ield         | OpenFOAM: The Open Source CFD Toolbox
   \\    /   O peration     | Website:  https://openfoam.org
    \\  /    A nd           | Version:  10
     \\/     M anipulation  |
\*---------------------------------------------------------------------------*/
FoamFile
{
    format      ascii;
    class       volScalarField;
    location    "20";
    object      gradTx;
}
// * * * * * * * * * * * * * * * * * * * * * * * * * * * * * * * * * * * * * //

dimensions      [0 -1 0 1 0 0 0];

internalField   nonuniform List<scalar> 
11250
(
13918.9
7030.74
3726.12
1961.93
993.716
476.084
214.062
90.0657
35.4516
13.0695
4.52039
1.46936
0.449409
0.129394
0.0350626
0.00893611
0.00214068
0.00048185
0.000101932
2.02795e-05
3.79904e-06
6.71173e-07
1.12014e-07
1.76958e-08
2.66062e-09
3.7319e-10
4.17095e-11
4.39047e-12
1.09762e-12
2.19524e-12
-1.4269e-11
1.09762e-12
-3.29285e-12
-2.19524e-12
-9.87856e-12
-4.39047e-12
0
-2.19524e-12
1.09762e-12
-4.39047e-12
-9.87856e-12
6.58571e-12
1.09762e-12
-5.48809e-12
-5.48809e-12
1.09762e-12
0
-4.39047e-12
2.19524e-12
0
1.09762e-12
0
1.4269e-11
0
1.09762e-12
0
1.09762e-12
-2.19524e-12
0
2.19524e-12
0
1.09762e-12
0
-2.19524e-11
9.87856e-12
-1.09762e-12
-1.09762e-12
0
1.09762e-12
0
-5.48809e-12
0
-7.68332e-12
0
-9.87856e-12
3737.01
3691.08
2504.37
1477.4
793.494
392.956
180.289
76.8606
30.5292
11.3288
3.93779
1.28501
0.394303
0.113847
0.0309269
0.00790021
0.00189657
0.000427758
9.06599e-05
1.8069e-05
3.39063e-06
5.99985e-07
1.00301e-07
1.58419e-08
2.3489e-09
3.30383e-10
1.97571e-11
-2.19523e-12
-2.19523e-12
-2.19523e-12
-6.5857e-12
6.5857e-12
3.29285e-12
0
1.09762e-12
0
-8.78094e-12
1.09762e-12
-1.09762e-12
0
0
-4.39047e-12
-1.09762e-12
-1.09762e-12
0
0
-1.09762e-12
0
-2.19523e-12
0
-1.75619e-11
0
-1.4269e-11
8.78094e-12
-1.31714e-11
-6.5857e-12
-1.4269e-11
0
-4.39047e-12
0
0
-1.09762e-12
0
2.41476e-11
5.48809e-12
0
-1.09762e-12
1.09762e-12
-1.09762e-12
0
-8.78094e-12
0
8.78094e-12
2.19523e-12
0
1157.01
1709.65
1406.96
927.447
533.123
275.76
130.257
56.6685
22.8413
8.56969
3.00443
0.987329
0.304792
0.088483
0.0241597
0.0062017
0.00149581
0.000338889
7.21334e-05
1.44351e-05
2.71916e-06
4.82918e-07
8.10097e-08
1.28498e-08
1.92742e-09
2.70014e-10
4.39047e-11
1.09762e-12
2.19523e-12
3.29285e-12
1.4269e-11
0
-3.29285e-12
1.09762e-12
1.75619e-11
3.29285e-12
0
-1.09762e-12
-2.19524e-12
2.19524e-12
9.87856e-12
-2.19524e-12
0
7.68332e-12
5.48809e-12
7.68332e-12
1.09762e-12
5.48809e-12
0
0
1.09762e-12
-1.09762e-12
4.39047e-12
8.78094e-12
0
-2.19523e-12
0
4.39047e-12
0
-2.19524e-12
0
0
0
-1.4269e-11
-1.09762e-11
2.19524e-12
3.29285e-12
2.19523e-12
0
0
3.29285e-12
8.78094e-12
0
-1.09762e-12
8.78094e-12
403.674
756.684
712.559
513.415
313.605
169.256
82.4253
36.6737
15.0354
5.71631
2.02575
0.671877
0.209166
0.0612195
0.0168527
0.00436186
0.00106079
0.000242303
5.19853e-05
1.04823e-05
1.98878e-06
3.55595e-07
6.00419e-08
9.60086e-09
1.45544e-09
2.00864e-10
3.7319e-11
0
1.09762e-12
0
6.58571e-12
-7.68332e-12
-1.09762e-12
1.09762e-12
0
1.09762e-12
8.78094e-12
0
1.09762e-12
0
0
0
1.09762e-12
0
0
0
0
1.09762e-12
0
0
1.53666e-11
0
1.09762e-12
-8.78094e-12
1.31714e-11
5.48809e-12
1.4269e-11
-4.39047e-12
5.48809e-12
6.58571e-12
0
-2.19523e-12
0
-1.09762e-12
-4.39047e-12
3.29285e-12
0
1.09762e-12
0
2.19524e-12
5.48809e-12
0
-1.09762e-12
-1.09762e-12
-5.48809e-12
151.228
324.339
334.564
257.852
165.577
92.7726
46.4803
21.1385
8.81705
3.39932
1.21902
0.408695
0.128592
0.0380563
0.010601
0.00277833
0.000684454
0.000158374
3.44094e-05
7.02231e-06
1.34747e-06
2.43467e-07
4.15042e-08
6.70315e-09
1.02957e-09
1.47081e-10
2.63428e-11
-1.09762e-12
-2.19523e-12
-2.19523e-12
0
7.68332e-12
4.39047e-12
-1.09762e-12
-7.68332e-12
0
0
-1.97571e-11
2.19523e-12
2.19523e-12
5.48809e-12
-1.09762e-12
8.78094e-12
0
-2.19523e-12
-1.09762e-11
-4.39047e-12
-2.19523e-12
1.09762e-12
3.29285e-12
8.78094e-12
1.09762e-12
-5.48809e-12
-9.87856e-12
0
5.48809e-12
1.09762e-12
-8.78094e-12
-5.48809e-12
0
0
0
0
1.86595e-11
0
-1.09762e-12
-1.09762e-12
-3.29285e-12
0
-1.09762e-12
-9.87856e-12
-1.20738e-11
-7.68332e-12
-1.09762e-12
-1.09762e-12
58.0143
134.165
147.148
119.231
79.6799
46.077
23.6715
10.9843
4.65747
1.82061
0.660946
0.224239
0.0714438
0.0214392
0.0060649
0.00161616
0.00040507
9.53524e-05
2.10634e-05
4.36637e-06
8.50054e-07
1.55638e-07
2.68411e-08
4.36742e-09
6.7284e-10
1.02078e-10
1.20738e-11
0
0
-1.53666e-11
1.09762e-12
-1.09762e-12
1.09762e-12
2.19524e-12
0
0
0
0
1.09762e-11
1.20738e-11
0
0
-9.87856e-12
-1.09762e-12
1.09762e-12
1.09762e-12
0
1.09762e-12
-2.19524e-12
-2.19523e-12
-6.58571e-12
-1.09762e-12
0
-3.29285e-12
-1.09762e-12
0
-1.09762e-12
2.19524e-12
1.09762e-12
-6.58571e-12
1.09762e-12
2.19523e-12
1.09762e-12
0
-1.09762e-12
-4.39047e-12
0
0
0
-2.19524e-12
4.39047e-12
1.09762e-12
-4.39047e-12
0
0
22.0357
53.2121
60.8516
51.1774
35.2967
20.9527
10.9996
5.19666
2.23711
0.886112
0.325646
0.111858
0.0361274
0.0110107
0.00316945
0.000860521
0.000219843
5.27293e-05
1.18566e-05
2.49853e-06
4.93739e-07
9.16192e-08
1.59967e-08
2.63099e-09
3.99533e-10
6.36618e-11
-4.39047e-12
0
0
0
-1.09762e-12
-1.64643e-11
-2.19524e-12
1.09762e-12
-5.48809e-12
0
-1.09762e-12
2.19524e-11
0
0
-9.87856e-12
2.19524e-12
-8.78094e-12
-9.87856e-12
-4.39047e-12
2.19524e-12
5.48809e-12
1.09762e-12
-1.09762e-12
-4.39047e-12
-9.87856e-12
0
0
-1.09762e-12
0
-9.87856e-12
-1.09762e-12
-7.68332e-12
4.39047e-12
-4.39047e-12
0
-2.19523e-12
1.09762e-12
-5.48809e-12
2.19523e-12
2.19524e-12
0
0
-1.20738e-11
1.09762e-12
1.31714e-11
2.19524e-12
0
-7.68332e-12
0
8.12099
20.1271
23.6965
20.4945
14.4925
8.79098
4.70123
2.25659
0.984935
0.394977
0.146863
0.0510581
0.0167113
0.00517046
0.00151333
0.000418162
0.000108732
2.65252e-05
6.05933e-06
1.2954e-06
2.59338e-07
4.8687e-08
8.58886e-09
1.428e-09
2.305e-10
1.64643e-11
4.39047e-12
0
-1.09762e-12
1.09762e-11
1.09762e-12
2.19523e-12
2.19523e-12
0
-1.09762e-12
0
-8.78094e-12
-9.87856e-12
-1.20738e-11
-1.20738e-11
-1.09762e-12
0
9.87856e-12
0
-5.48809e-12
-9.87856e-12
0
-1.09762e-12
1.09762e-12
-3.29285e-12
5.48809e-12
0
0
4.39047e-12
1.09762e-12
4.39047e-12
2.305e-11
3.29285e-12
-3.29285e-12
0
0
0
-3.29285e-12
0
0
0
7.68332e-12
-1.09762e-12
0
1.09762e-12
-1.09762e-12
0
6.5857e-12
0
4.39047e-12
2.87151
7.23539
8.69807
7.68525
5.54435
3.4242
1.86056
0.905685
0.400259
0.162331
0.0610036
0.0214355
0.00709589
0.00222286
0.000659334
0.000184713
4.86871e-05
1.2032e-05
2.78173e-06
6.01266e-07
1.21593e-07
2.30511e-08
4.0996e-09
6.86011e-10
1.09762e-10
4.39047e-12
-1.09762e-12
5.48809e-12
6.5857e-12
1.09762e-12
1.09762e-12
6.5857e-12
0
0
5.48809e-12
-1.09762e-12
0
-2.19524e-12
-1.09762e-12
-5.48809e-12
5.48809e-12
-1.09762e-12
-3.29285e-12
9.87856e-12
0
0
-3.29285e-12
0
0
-1.20738e-11
-2.19524e-12
0
-1.09762e-12
-3.29285e-12
0
8.78094e-12
1.4269e-11
1.4269e-11
-4.39047e-12
4.39047e-12
-1.09762e-12
2.19523e-12
8.78094e-12
0
-1.09762e-12
0
1.4269e-11
2.19523e-12
1.31714e-11
-1.09762e-12
2.19523e-12
5.48809e-12
6.58571e-12
8.78094e-12
2.19524e-12
0.968492
2.46771
3.01283
2.70705
1.98532
1.24514
0.686117
0.338229
0.151165
0.0619202
0.0234772
0.00831725
0.00277523
0.000876382
0.000262108
7.40509e-05
1.96825e-05
4.90367e-06
1.14248e-06
2.48759e-07
5.06627e-08
9.67769e-09
1.72326e-09
2.86478e-10
3.7319e-11
1.20738e-11
4.39047e-12
1.53666e-11
-2.19523e-12
3.29285e-12
-1.4269e-11
-1.20738e-11
-2.08547e-11
-2.08547e-11
0
-1.09762e-12
7.68332e-12
8.78094e-12
0
-6.58571e-12
-5.48809e-12
-2.19524e-12
1.09762e-12
0
5.48809e-12
8.78094e-12
-1.09762e-12
-4.39047e-12
1.09762e-12
4.39047e-12
-2.19524e-12
-1.09762e-12
0
0
0
-5.48809e-12
-1.97571e-11
-1.09762e-12
2.19523e-12
-1.09762e-12
-1.09762e-12
0
1.09762e-12
-1.09762e-12
-1.09762e-12
-1.09762e-12
-6.58571e-12
0
-1.09762e-12
0
1.09762e-12
0
-6.58571e-12
0
1.09762e-12
0.310687
0.79802
0.986131
0.898404
0.668358
0.425089
0.237352
0.118411
0.0534699
0.0220883
0.0084298
0.00300074
0.00100467
0.000318079
9.53498e-05
2.70042e-05
7.19777e-06
1.799e-06
4.20597e-07
9.19342e-08
1.87901e-08
3.5914e-09
6.46497e-10
9.11023e-11
1.20738e-11
2.85381e-11
1.4269e-11
-5.48809e-12
-5.48809e-12
-1.09762e-12
-1.09762e-12
3.29285e-12
0
-2.19523e-12
1.75619e-11
2.19523e-12
2.19523e-12
-1.20738e-11
-6.5857e-12
5.48809e-12
1.75619e-11
0
3.29285e-12
1.09762e-12
6.5857e-12
0
3.29285e-12
-5.48809e-12
-1.09762e-12
1.20738e-11
2.19523e-12
0
2.19523e-12
4.39047e-12
2.19523e-12
1.09762e-12
-1.4269e-11
0
4.39047e-12
-1.09762e-12
3.29285e-12
1.4269e-11
-8.78094e-12
0
0
-9.87856e-12
-3.7319e-11
-1.09762e-12
0
0
-3.29285e-12
-5.48809e-12
0
-2.19523e-12
-3.29285e-12
0.0946623
0.244684
0.305447
0.28175
0.212478
0.13706
0.0775865
0.0391857
0.017872
0.00743489
0.00284836
0.0010147
0.000339113
0.000106987
3.19391e-05
9.01138e-06
2.39515e-06
5.9767e-07
1.39671e-07
3.05456e-08
6.25862e-09
1.19421e-09
2.18426e-10
4.93928e-11
2.74404e-11
2.305e-11
1.09762e-11
-1.09762e-11
2.19523e-12
3.29285e-12
1.31714e-11
9.87856e-12
2.08547e-11
1.97571e-11
2.19523e-12
0
-2.19524e-12
1.09762e-12
0
6.58571e-12
7.68332e-12
2.19524e-12
4.39047e-12
7.68332e-12
0
1.09762e-12
0
1.20738e-11
1.09762e-12
2.19523e-12
4.39047e-12
4.39047e-12
0
1.09762e-12
-1.09762e-12
-1.09762e-12
-3.29285e-12
0
-1.09762e-12
2.19524e-12
0
-1.09762e-12
5.48809e-12
0
-1.09762e-11
-5.48809e-12
-2.19524e-12
-1.09762e-12
0
1.09762e-12
0
0
4.39047e-12
0
1.09762e-12
0.0273683
0.0711299
0.0896342
0.0837024
0.0640352
0.0419574
0.0241237
0.0123521
0.00569184
0.00238192
0.000913659
0.00032442
0.00010766
3.36409e-05
9.93732e-06
2.77566e-06
7.31496e-07
1.8134e-07
4.2199e-08
9.18816e-09
1.88132e-09
3.70995e-10
7.79308e-11
4.82952e-11
3.29285e-11
1.09762e-11
1.20738e-11
4.39047e-12
0
0
0
-3.29285e-12
0
2.19524e-12
-2.305e-11
0
1.09762e-11
1.64643e-11
9.87856e-12
0
-2.305e-11
0
-1.09762e-12
-3.29285e-12
-1.09762e-12
0
-1.09762e-12
4.39047e-12
0
1.09762e-12
0
1.09762e-12
0
0
-1.09762e-12
0
1.09762e-12
-8.78094e-12
-7.68332e-12
-3.29285e-12
-1.09762e-12
-1.4269e-11
1.09762e-12
-1.20738e-11
-1.09762e-12
1.09762e-11
2.305e-11
-2.19523e-12
0
0
-1.09762e-12
-4.39047e-12
-8.78094e-12
1.09762e-12
6.58571e-12
0.0075003
0.0195958
0.0249307
0.0235887
0.0183382
0.0122347
0.00716293
0.00372537
0.00173572
0.00073025
0.000279917
9.87555e-05
3.24027e-05
9.97622e-06
2.89908e-06
7.96942e-07
2.07075e-07
5.0733e-08
1.16721e-08
2.49488e-09
4.96123e-10
8.78094e-11
2.96357e-11
2.08547e-11
3.29285e-12
4.39047e-12
4.39047e-12
6.5857e-12
1.09762e-12
-4.39047e-12
-1.09762e-12
1.09762e-12
-1.09762e-12
-3.29285e-12
-4.39047e-12
0
2.19523e-12
0
0
0
-2.19523e-12
-1.09762e-11
-6.5857e-12
-7.68332e-12
-5.48809e-12
-6.5857e-12
-1.09762e-12
-6.5857e-12
0
-1.09762e-12
0
-2.19523e-12
-1.09762e-12
1.09762e-12
0
0
4.39047e-12
0
1.09762e-12
0
-1.09762e-12
-1.09762e-12
-6.5857e-12
0
1.20738e-11
8.78094e-12
2.19523e-12
0
-1.09762e-12
-2.19523e-12
-6.5857e-12
4.39047e-12
0
0
0
0.00194584
0.00511135
0.00656941
0.00630634
0.00499197
0.00339939
0.00203118
0.00107474
0.000506665
0.000214275
8.20062e-05
2.87004e-05
9.28824e-06
2.80833e-06
7.99496e-07
2.15258e-07
5.48666e-08
1.32318e-08
2.98881e-09
6.11373e-10
8.8907e-11
0
-7.68332e-12
-9.87856e-12
-1.97571e-11
-1.53666e-11
-1.20738e-11
-7.68332e-12
0
-4.39047e-12
0
2.19523e-12
0
0
5.48809e-12
0
-1.97571e-11
3.29285e-12
-9.87856e-12
0
5.48809e-12
1.09762e-12
-1.31714e-11
2.19523e-12
0
-5.48809e-12
4.39047e-12
0
-5.48809e-12
-1.09762e-12
0
-3.29285e-12
-8.78094e-12
0
-1.4269e-11
-1.09762e-12
0
7.68332e-12
8.78094e-12
6.58571e-12
1.09762e-12
-4.39047e-12
0
1.31714e-11
9.87856e-12
0
-1.09762e-12
2.19523e-12
-4.39047e-12
0
-7.68332e-12
3.29285e-12
8.78094e-12
9.87856e-12
-3.29285e-12
0.000477225
0.00126073
0.0016382
0.00159753
0.0012897
0.000897875
0.000548198
0.000295292
0.000140894
5.99038e-05
2.28928e-05
7.94828e-06
2.53656e-06
7.52504e-07
2.09503e-07
5.50741e-08
1.37477e-08
3.24565e-09
7.37599e-10
1.4269e-10
1.86595e-11
4.39047e-12
-1.4269e-11
0
6.58571e-12
-1.4269e-11
-1.86595e-11
0
-1.09762e-12
0
1.09762e-12
0
0
-9.87856e-12
0
-1.09762e-12
0
4.39047e-12
0
-1.09762e-12
0
9.87856e-12
1.09762e-12
0
5.48809e-12
5.48809e-12
1.09762e-12
2.19524e-12
-1.09762e-12
0
1.09762e-12
-1.09762e-12
0
-2.19524e-12
0
-4.39047e-12
-4.39047e-12
0
8.78094e-12
-1.09762e-12
0
1.09762e-12
0
-2.19524e-12
5.48809e-12
-4.39047e-12
-1.09762e-12
-1.09762e-12
0
1.09762e-12
-4.39047e-12
-7.68332e-12
-2.19524e-12
2.19523e-12
5.48809e-12
0.000110505
0.000293685
0.000386057
0.000382771
0.000315409
0.000224593
0.000140106
7.67992e-05
3.70759e-05
1.58502e-05
6.05299e-06
2.08754e-06
6.57971e-07
1.91789e-07
5.22598e-08
1.34272e-08
3.29615e-09
7.71625e-10
1.8879e-10
3.51238e-11
1.75619e-11
4.39047e-12
1.09762e-12
1.53666e-11
4.39047e-12
1.09762e-12
5.48809e-12
9.87856e-12
-4.39047e-12
6.5857e-12
0
-1.09762e-12
-2.19523e-12
-1.09762e-12
5.48809e-12
1.09762e-12
3.29285e-12
-4.39047e-12
8.78094e-12
-4.39047e-12
1.09762e-12
-1.09762e-11
1.4269e-11
5.48809e-12
-1.53666e-11
6.5857e-12
-5.48809e-12
0
7.68332e-12
0
-1.09762e-12
4.39047e-12
8.78094e-12
0
1.4269e-11
2.19523e-12
1.09762e-12
3.29285e-12
0
-2.19523e-12
-2.19523e-12
5.48809e-12
1.09762e-12
0
-9.87856e-12
-1.09762e-12
0
-3.29285e-12
4.39047e-12
-1.09762e-12
-3.29285e-12
5.48809e-12
-3.29285e-12
-9.87856e-12
-1.09762e-12
2.4139e-05
6.4552e-05
8.58724e-05
8.65907e-05
7.28241e-05
5.30044e-05
3.37454e-05
1.88012e-05
9.17709e-06
3.94512e-06
1.50699e-06
5.1719e-07
1.61404e-07
4.63546e-08
1.23833e-08
3.14248e-09
7.51868e-10
1.99766e-10
6.47594e-11
2.96357e-11
-2.19524e-12
-1.31714e-11
1.20738e-11
4.39047e-12
-1.53666e-11
-3.29285e-12
8.78094e-12
-1.20738e-11
0
8.78094e-12
0
0
0
9.87856e-12
2.19523e-12
0
-1.09762e-12
-5.48809e-12
-1.09762e-12
1.09762e-12
0
1.09762e-12
0
0
-1.53666e-11
-2.19524e-12
0
-3.29285e-12
1.09762e-12
0
0
0
0
-1.09762e-12
-2.19524e-12
5.48809e-12
-1.09762e-12
-2.19524e-12
-9.87856e-12
0
0
-4.39047e-12
0
2.19524e-12
-4.39047e-12
1.09762e-12
8.78094e-12
4.39047e-12
0
0
9.87856e-12
1.20738e-11
5.48809e-12
-5.48809e-12
-4.39047e-12
4.97314e-06
1.33826e-05
1.80165e-05
1.84718e-05
1.58432e-05
1.177e-05
7.63408e-06
4.31634e-06
2.12821e-06
9.19937e-07
3.5182e-07
1.20363e-07
3.72762e-08
1.05723e-08
2.77039e-09
6.93694e-10
1.49276e-10
4.60999e-11
2.63428e-11
3.84166e-11
1.09762e-11
-8.78094e-12
0
-2.08547e-11
0
-4.39047e-12
-8.78094e-12
-3.29285e-12
4.39047e-12
0
0
1.09762e-12
1.09762e-12
1.09762e-12
-5.48809e-12
0
5.48809e-12
-1.09762e-12
0
5.48809e-12
-1.09762e-12
1.53666e-11
-1.09762e-12
-5.48809e-12
1.4269e-11
1.09762e-12
1.31714e-11
0
6.58571e-12
1.09762e-12
0
0
0
0
1.09762e-12
-2.19523e-12
-1.09762e-12
-1.09762e-12
-1.09762e-12
2.19524e-12
-1.09762e-12
-8.78094e-12
-1.09762e-12
0
-8.78094e-12
-9.87856e-12
0
2.19523e-12
4.39047e-12
1.09762e-12
1.31714e-11
-4.39047e-12
3.29285e-12
-1.09762e-12
-1.09762e-12
9.66544e-07
2.61716e-06
3.56471e-06
3.71356e-06
3.24417e-06
2.45552e-06
1.61928e-06
9.27547e-07
4.61528e-07
2.00581e-07
7.68585e-08
2.62528e-08
8.07517e-09
2.27865e-09
5.91616e-10
1.33909e-10
2.63428e-11
5.48809e-12
-6.5857e-12
-5.48809e-12
-8.78094e-12
-2.19523e-12
-7.68332e-12
-2.74404e-11
8.78094e-12
9.87856e-12
-2.19523e-12
5.48809e-12
0
-9.87856e-12
0
0
0
-1.09762e-12
0
0
1.09762e-12
-8.78094e-12
1.09762e-12
0
-1.09762e-12
6.5857e-12
-1.09762e-12
0
1.53666e-11
-8.78094e-12
1.09762e-12
1.09762e-12
-2.19523e-12
-8.78094e-12
0
-1.09762e-12
0
1.09762e-12
3.29285e-12
3.29285e-12
1.86595e-11
0
2.19523e-12
0
0
-6.5857e-12
-1.09762e-12
3.29285e-12
0
-1.09762e-12
-7.68332e-12
0
0
1.09762e-12
-4.39047e-12
-8.78094e-12
0
0
-5.48809e-12
1.77283e-07
4.82908e-07
6.65152e-07
7.03439e-07
6.25005e-07
4.81073e-07
3.21905e-07
1.86504e-07
9.35851e-08
4.0895e-08
1.57135e-08
5.36735e-09
1.65082e-09
4.81854e-10
1.18543e-10
1.09762e-11
1.09762e-12
-1.09762e-11
-2.41476e-11
-1.97571e-11
7.68332e-12
2.74404e-11
9.87856e-12
-4.39047e-12
-8.78094e-12
2.19523e-12
-1.09762e-12
-4.39047e-12
-1.09762e-12
0
0
-1.09762e-12
-4.39047e-12
1.09762e-12
0
0
-5.48809e-12
-6.58571e-12
0
0
1.09762e-12
1.09762e-12
1.09762e-12
0
-5.48809e-12
-1.09762e-12
-1.09762e-11
-4.39047e-12
-4.39047e-12
0
0
2.19524e-12
-1.09762e-12
2.19524e-12
-1.09762e-12
-1.09762e-12
9.87856e-12
0
0
-2.19524e-12
3.29285e-12
8.78094e-12
0
-1.86595e-11
8.78094e-12
1.09762e-11
0
1.09762e-12
-4.39047e-12
0
-1.20738e-11
0
0
-3.29285e-12
2.19524e-12
3.10055e-08
8.46527e-08
1.17755e-07
1.26309e-07
1.13935e-07
8.89762e-08
6.02954e-08
3.53016e-08
1.78549e-08
7.84248e-09
3.02833e-09
1.05152e-09
3.17211e-10
8.56142e-11
1.53666e-11
-2.41476e-11
-3.40261e-11
-3.95142e-11
-3.18309e-11
-2.19523e-12
9.87856e-12
1.86595e-11
6.5857e-12
1.97571e-11
-1.64643e-11
1.09762e-12
1.09762e-12
2.19524e-12
-3.29285e-12
0
-1.09762e-12
1.09762e-12
2.19524e-12
1.09762e-12
1.09762e-12
0
1.09762e-12
9.87856e-12
1.09762e-12
-1.09762e-12
1.09762e-12
-7.68332e-12
2.19524e-12
-2.19523e-12
0
9.87856e-12
-1.09762e-12
0
0
7.68332e-12
0
1.09762e-12
0
1.09762e-12
-1.09762e-12
-2.19523e-12
-1.86595e-11
-7.68332e-12
-1.09762e-12
0
-1.09762e-12
1.09762e-11
1.09762e-12
-2.19524e-12
-1.09762e-12
-4.39047e-12
9.87856e-12
-1.09762e-12
2.19524e-12
-2.19524e-12
3.29285e-12
0
-2.19524e-12
3.29285e-12
-8.78094e-12
5.05782e-09
1.3909e-08
1.95661e-08
2.12587e-08
1.93883e-08
1.53447e-08
1.05283e-08
6.23337e-09
3.16772e-09
1.41922e-09
5.43321e-10
1.98669e-10
4.60999e-11
-8.78094e-12
2.19523e-11
1.09762e-12
-1.09762e-12
-2.41476e-11
-1.86595e-11
5.48809e-12
-1.09762e-11
-4.39047e-12
1.31714e-11
2.305e-11
1.97571e-11
-4.39047e-12
1.31714e-11
3.29285e-12
0
1.09762e-12
1.09762e-12
0
6.5857e-12
0
7.68332e-12
0
5.48809e-12
5.48809e-12
0
0
-1.09762e-12
-6.5857e-12
1.09762e-12
0
4.39047e-12
0
2.19523e-12
0
-1.09762e-12
2.19523e-12
1.09762e-12
-2.19523e-12
7.68332e-12
-3.29285e-12
-2.19523e-12
5.48809e-12
-7.68332e-12
1.20738e-11
1.09762e-12
0
1.09762e-12
-2.19523e-12
-1.09762e-12
1.31714e-11
0
1.31714e-11
0
-2.19523e-12
0
1.09762e-12
4.39047e-12
-2.19523e-12
0
2.19523e-12
-1.09762e-12
5.70761e-10
1.82205e-09
2.68477e-09
3.01845e-09
2.8121e-09
2.27865e-09
1.60691e-09
9.59318e-10
4.9283e-10
2.1184e-10
9.00046e-11
2.41476e-11
2.74404e-11
4.39047e-12
1.86595e-11
8.78094e-12
6.5857e-12
2.19524e-12
4.39047e-12
9.87856e-12
-6.58571e-12
-3.29285e-12
1.75619e-11
5.48809e-12
7.68332e-12
3.29285e-12
-5.48809e-12
-4.39047e-12
3.29285e-12
-2.19524e-12
1.09762e-12
0
-3.29285e-12
2.19524e-12
2.19523e-12
-2.19524e-12
0
1.09762e-12
-1.09762e-12
2.19524e-12
1.09762e-12
3.29285e-12
-3.29285e-12
2.19523e-12
2.19524e-12
-1.09762e-12
-1.09762e-12
-5.48809e-12
-2.19524e-12
2.19523e-12
-7.68332e-12
-7.68332e-12
-1.09762e-12
0
-1.31714e-11
6.5857e-12
1.09762e-12
1.09762e-11
0
-1.09762e-12
1.09762e-12
0
-1.09762e-12
4.39047e-12
3.29285e-12
4.39047e-12
-9.87856e-12
0
-1.09762e-12
1.09762e-12
1.09762e-12
1.09762e-12
0
1.09762e-12
1.31714e-11
2.19524e-10
6.23447e-10
9.04437e-10
9.52732e-10
8.71508e-10
6.45399e-10
4.33559e-10
2.55745e-10
1.17445e-10
5.26856e-11
3.40261e-11
7.68332e-12
2.74404e-11
9.87856e-12
-1.64643e-11
5.48809e-12
-1.20738e-11
1.75619e-11
1.09762e-11
-1.86595e-11
-4.39047e-12
-4.39047e-12
-2.19523e-11
-1.20738e-11
2.19524e-12
1.31714e-11
-4.39047e-12
1.09762e-12
0
-1.09762e-12
-2.19524e-12
0
-1.09762e-12
-1.09762e-12
-7.68332e-12
-1.09762e-12
1.09762e-11
1.09762e-12
1.09762e-12
0
0
0
-1.09762e-12
0
0
1.53666e-11
-1.09762e-12
1.09762e-12
0
-1.09762e-12
-1.09762e-12
-3.29285e-12
-7.68332e-12
1.09762e-12
1.09762e-12
-4.39047e-12
0
-3.29285e-12
-2.19523e-12
2.19524e-12
-1.09762e-12
2.19523e-12
0
6.58571e-12
-2.19523e-12
-1.31714e-11
2.19524e-12
1.09762e-12
0
-1.09762e-12
7.68332e-12
3.29285e-12
0
3.29285e-12
-4.39047e-12
3.51238e-11
3.07333e-11
5.92713e-11
0
1.09762e-11
-1.75619e-11
-1.64643e-11
-3.29285e-12
-3.29285e-12
9.87856e-12
-3.29285e-12
2.19523e-12
7.68332e-12
2.19523e-12
-1.64643e-11
9.87856e-12
1.4269e-11
4.06118e-11
3.51238e-11
-2.19523e-12
9.87856e-12
0
-1.09762e-11
6.5857e-12
1.64643e-11
-1.4269e-11
5.48809e-12
9.87856e-12
1.09762e-12
3.29285e-12
5.48809e-12
1.09762e-12
0
-2.19523e-12
2.19523e-12
2.19523e-12
4.39047e-12
-7.68332e-12
0
-2.19523e-12
1.09762e-12
-1.09762e-12
0
1.09762e-12
-1.09762e-12
2.19523e-12
1.09762e-12
9.87856e-12
1.09762e-12
-2.19523e-12
7.68332e-12
6.5857e-12
2.19523e-12
-2.19523e-12
1.4269e-11
-6.5857e-12
-1.09762e-12
-3.29285e-12
1.09762e-12
2.19523e-12
-1.09762e-12
-2.19523e-12
2.19523e-12
-1.20738e-11
-3.29285e-12
-1.09762e-12
0
1.09762e-12
1.09762e-12
0
-7.68332e-12
0
-4.39047e-12
-1.4269e-11
-1.09762e-12
-2.15133e-10
-3.60019e-10
-4.41242e-10
-4.28071e-10
-3.46847e-10
-2.41476e-10
-1.47081e-10
-8.12237e-11
-1.97571e-11
-1.86595e-11
-8.78094e-12
-1.09762e-12
1.64643e-11
2.52452e-11
9.87856e-12
1.09762e-12
3.07333e-11
1.97571e-11
1.75619e-11
1.75619e-11
2.19524e-12
-1.75619e-11
1.31714e-11
1.53666e-11
-1.53666e-11
-8.78094e-12
-4.39047e-12
-5.48809e-12
0
0
1.09762e-12
0
1.09762e-12
7.68332e-12
0
1.09762e-12
-1.20738e-11
-1.31714e-11
-2.19524e-12
0
0
6.58571e-12
1.09762e-12
0
-4.39047e-12
-1.64643e-11
1.09762e-12
1.09762e-12
1.09762e-11
0
-1.09762e-12
3.29285e-12
-6.5857e-12
0
-2.19524e-12
0
0
-7.68332e-12
4.39047e-12
-3.29285e-12
0
-1.09762e-12
-5.48809e-12
-2.08547e-11
2.19523e-12
0
-2.19524e-12
-3.29285e-12
1.09762e-12
-1.09762e-12
1.09762e-12
-2.19524e-12
0
0
1.31714e-11
5.70761e-11
2.94161e-10
4.30266e-10
4.34657e-10
3.81971e-10
3.0404e-10
1.89888e-10
1.17445e-10
4.06118e-11
-5.48809e-12
-3.29285e-12
4.39047e-12
3.29285e-12
1.31714e-11
-6.58571e-12
9.87856e-12
1.31714e-11
8.78094e-12
-1.64643e-11
2.19523e-12
-7.68332e-12
-6.58571e-12
-7.68332e-12
-1.53666e-11
-1.86595e-11
-7.68332e-12
-5.48809e-12
-2.19524e-12
-1.09762e-12
1.20738e-11
-5.48809e-12
-1.09762e-12
-1.09762e-12
0
-4.39047e-12
2.19524e-12
-5.48809e-12
6.58571e-12
-8.78094e-12
2.19524e-12
-1.09762e-12
-1.09762e-12
-1.09762e-12
0
0
1.09762e-12
6.5857e-12
-2.19524e-12
8.78094e-12
-2.19523e-12
-1.09762e-12
1.09762e-12
0
3.29285e-12
0
-1.09762e-12
0
0
-1.09762e-12
0
0
3.29285e-12
-1.09762e-12
7.68332e-12
0
-1.09762e-12
0
0
6.58571e-12
4.39047e-12
6.5857e-12
-1.97571e-11
2.19524e-12
1.09762e-11
0
1.44886e-10
6.5857e-11
2.85381e-11
-1.09762e-11
-3.7319e-11
-1.4269e-11
-2.41476e-11
-1.31714e-11
-2.08547e-11
-2.63428e-11
-1.97571e-11
-3.29285e-12
-1.75619e-11
-2.52452e-11
-2.96357e-11
-9.87856e-12
1.09762e-12
-2.19523e-12
-1.75619e-11
1.09762e-11
1.31714e-11
4.39047e-12
-8.78094e-12
-4.39047e-12
-9.87856e-12
-1.53666e-11
4.39047e-12
-1.09762e-12
2.19523e-12
-1.09762e-12
-1.09762e-12
0
0
-6.5857e-12
1.09762e-12
1.09762e-12
-5.48809e-12
1.20738e-11
-1.09762e-12
1.09762e-12
1.09762e-12
-6.5857e-12
-1.09762e-12
1.09762e-12
0
0
1.75619e-11
0
-1.09762e-11
0
2.19523e-12
0
2.08547e-11
0
0
0
8.78094e-12
0
-1.09762e-12
-2.19523e-12
-1.09762e-12
1.09762e-12
4.39047e-12
1.86595e-11
1.09762e-12
0
-1.09762e-12
1.31714e-11
0
1.09762e-12
-7.68332e-12
0
0
0
-7.68332e-12
-2.63428e-11
-2.54647e-10
-3.29285e-10
-3.29285e-10
-3.20504e-10
-2.18426e-10
-1.44886e-10
-1.06469e-10
-5.70761e-11
-1.64643e-11
5.48809e-12
6.58571e-12
-3.29285e-12
-1.64643e-11
-1.09762e-12
-1.75619e-11
-1.4269e-11
-2.74404e-11
1.4269e-11
1.20738e-11
7.68332e-12
-7.68332e-12
-3.29285e-12
-4.39047e-12
0
-2.19523e-12
-4.39047e-12
-1.09762e-11
0
-1.53666e-11
1.09762e-12
0
1.09762e-12
0
2.19523e-12
0
1.09762e-12
0
8.78094e-12
0
-1.09762e-12
0
1.09762e-12
-2.19523e-12
0
-1.09762e-12
2.19523e-12
0
-7.68332e-12
2.19523e-12
-2.19524e-12
-1.31714e-11
-1.09762e-12
-2.19524e-12
1.09762e-12
3.29285e-12
7.68332e-12
-1.20738e-11
-1.09762e-12
2.19524e-12
-1.09762e-12
-5.48809e-12
-3.29285e-12
0
0
2.19524e-12
1.09762e-12
0
-8.78094e-12
4.39047e-12
1.09762e-12
2.41476e-11
2.19524e-12
4.39047e-12
0
1.62447e-10
3.64409e-10
4.67585e-10
4.80756e-10
3.88557e-10
2.5794e-10
1.6574e-10
8.45165e-11
2.63428e-11
2.08547e-11
3.40261e-11
1.4269e-11
1.09762e-12
-2.19523e-12
1.09762e-11
-1.31714e-11
-4.60999e-11
-3.62214e-11
1.09762e-12
-1.09762e-11
-2.19524e-12
6.58571e-12
-6.5857e-12
-2.305e-11
-1.09762e-12
-1.09762e-12
-6.58571e-12
7.68332e-12
-2.19523e-12
0
0
-9.87856e-12
1.09762e-12
0
-7.68332e-12
-2.19524e-12
5.48809e-12
0
3.29285e-12
-2.19524e-12
-6.5857e-12
0
2.19524e-12
-2.19523e-12
0
0
-1.86595e-11
0
-1.09762e-12
-1.09762e-12
-4.39047e-12
-5.48809e-12
-1.4269e-11
2.19524e-12
2.19524e-12
0
-8.78094e-12
-1.64643e-11
-8.78094e-12
-1.20738e-11
-3.29285e-12
-1.09762e-12
1.09762e-12
-2.19524e-12
-1.09762e-12
-1.09762e-11
1.09762e-12
-6.5857e-12
-1.09762e-12
-1.09762e-12
-2.19523e-12
0
-9.87856e-12
0
5.48809e-12
4.39047e-11
6.14666e-11
-5.04904e-11
-5.04904e-11
-3.7319e-11
-6.91499e-11
-4.82952e-11
-1.09762e-11
-3.29285e-12
0
-6.5857e-12
-1.64643e-11
-6.5857e-12
-3.29285e-12
5.48809e-12
-1.20738e-11
-1.09762e-11
2.19523e-12
-1.64643e-11
1.09762e-12
1.53666e-11
2.08547e-11
1.97571e-11
9.87856e-12
1.09762e-12
-8.78094e-12
1.4269e-11
6.5857e-12
2.19523e-12
3.29285e-12
-2.41476e-11
-3.95142e-11
-2.63428e-11
0
-2.19523e-12
-1.09762e-12
0
-1.20738e-11
-1.09762e-12
-1.09762e-12
0
3.29285e-12
5.48809e-12
4.39047e-12
-2.19523e-12
0
-9.87856e-12
-1.09762e-12
1.09762e-12
-4.39047e-12
1.09762e-12
1.31714e-11
1.09762e-12
0
-3.29285e-12
6.5857e-12
-7.68332e-12
7.68332e-12
-8.78094e-12
-2.19523e-12
-1.31714e-11
5.48809e-12
4.39047e-12
-7.68332e-12
1.09762e-12
-1.09762e-12
-1.09762e-12
1.09762e-12
2.19523e-12
-8.78094e-12
-1.31714e-11
-4.39047e-12
-6.5857e-12
-7.68332e-12
-1.09762e-12
-1.58057e-10
-2.89771e-10
-4.54414e-10
-4.12704e-10
-3.18309e-10
-2.40378e-10
-1.43788e-10
-6.69547e-11
-2.74404e-11
-1.20738e-11
-2.19523e-11
-1.53666e-11
-1.09762e-12
2.305e-11
1.53666e-11
4.39047e-12
8.78094e-12
-4.39047e-12
-1.09762e-11
8.78094e-12
4.39047e-12
2.19524e-12
1.20738e-11
1.97571e-11
5.48809e-12
1.20738e-11
4.39047e-12
-8.78094e-12
-1.09762e-12
-8.78094e-12
-9.87856e-12
-1.31714e-11
-1.75619e-11
0
1.09762e-12
0
-1.09762e-12
-9.87856e-12
-8.78094e-12
0
1.09762e-12
0
-2.19524e-12
-4.39047e-12
5.48809e-12
-8.78094e-12
0
-1.31714e-11
-1.09762e-12
1.09762e-12
0
1.09762e-12
-1.09762e-12
-1.31714e-11
-1.09762e-12
4.39047e-12
0
4.39047e-12
1.86595e-11
1.31714e-11
4.39047e-12
2.19523e-12
0
2.19524e-12
0
1.09762e-11
-2.19524e-12
0
0
5.48809e-12
8.78094e-12
0
9.87856e-12
2.19523e-12
-6.58571e-12
1.36105e-10
2.59038e-10
4.28071e-10
4.25876e-10
3.75385e-10
2.79892e-10
1.95376e-10
1.13055e-10
5.59785e-11
2.63428e-11
1.09762e-11
8.78094e-12
-1.09762e-12
1.53666e-11
5.48809e-12
2.19524e-12
-1.09762e-12
-1.31714e-11
0
-2.19523e-11
-4.39047e-12
1.31714e-11
-7.68332e-12
-8.78094e-12
-4.39047e-12
2.305e-11
1.09762e-12
6.58571e-12
0
-2.19524e-12
2.19524e-11
3.7319e-11
2.63428e-11
-1.09762e-12
0
-1.09762e-12
1.09762e-12
1.20738e-11
8.78094e-12
-4.39047e-12
0
-3.29285e-12
3.29285e-12
-1.64643e-11
1.09762e-12
2.19524e-12
0
0
-2.19524e-12
-4.39047e-12
1.09762e-12
3.29285e-12
0
-2.19524e-12
2.19524e-12
-2.305e-11
-1.09762e-12
0
7.68332e-12
1.09762e-12
1.4269e-11
-2.19523e-12
-1.09762e-12
-1.09762e-12
-4.39047e-12
1.09762e-12
-1.09762e-12
1.20738e-11
0
0
2.08547e-11
9.87856e-12
6.58571e-12
4.39047e-12
0
4.39047e-11
-1.75619e-11
1.31714e-11
-5.48809e-11
-5.70761e-11
-3.62214e-11
-2.52452e-11
-1.64643e-11
-1.20738e-11
-1.20738e-11
-1.31714e-11
1.09762e-12
-1.31714e-11
-1.97571e-11
-8.78094e-12
7.68332e-12
1.53666e-11
3.62214e-11
2.63428e-11
6.5857e-12
1.64643e-11
1.31714e-11
1.09762e-12
-1.09762e-12
4.39047e-12
5.48809e-12
2.19523e-12
2.41476e-11
9.87856e-12
1.53666e-11
1.09762e-11
2.52452e-11
1.53666e-11
0
1.4269e-11
1.09762e-12
2.19523e-12
7.68332e-12
8.78094e-12
-1.09762e-12
1.4269e-11
-5.48809e-12
5.48809e-12
9.87856e-12
0
8.78094e-12
9.87856e-12
2.305e-11
2.19523e-12
-6.5857e-12
4.39047e-12
6.5857e-12
1.53666e-11
2.08547e-11
1.09762e-12
5.48809e-12
4.39047e-12
1.4269e-11
-1.09762e-11
0
0
-2.19523e-12
-1.09762e-12
0
-3.29285e-12
0
4.39047e-12
-4.39047e-12
-2.19523e-12
-1.31714e-11
-5.48809e-12
6.5857e-12
-1.09762e-12
-5.48809e-12
2.19523e-12
-1.8879e-10
-3.33676e-10
-4.76366e-10
-4.6978e-10
-3.68799e-10
-2.43671e-10
-1.37202e-10
-6.69547e-11
-2.85381e-11
-1.53666e-11
-3.29285e-12
7.68332e-12
9.87856e-12
1.09762e-12
1.53666e-11
1.4269e-11
2.19523e-11
3.18309e-11
-2.19524e-12
9.87856e-12
9.87856e-12
-1.20738e-11
3.29285e-12
1.75619e-11
2.08547e-11
2.19523e-12
1.31714e-11
6.58571e-12
2.19523e-12
1.09762e-12
1.09762e-12
0
1.09762e-12
6.58571e-12
0
-5.48809e-12
-2.19524e-12
-1.09762e-12
-9.87856e-12
4.39047e-12
0
0
-2.19524e-12
1.86595e-11
1.09762e-12
-1.09762e-12
2.19523e-12
-1.09762e-12
1.09762e-12
8.78094e-12
1.09762e-12
4.39047e-12
1.4269e-11
1.09762e-12
-2.19524e-12
1.4269e-11
1.31714e-11
2.19524e-12
2.19523e-12
0
0
-2.19523e-12
2.19524e-12
8.78094e-12
3.29285e-12
-1.09762e-12
0
-1.20738e-11
1.09762e-12
0
-1.64643e-11
-9.87856e-12
1.09762e-12
-7.68332e-12
0
7.02475e-11
2.766e-10
3.81971e-10
4.03923e-10
3.68799e-10
2.85381e-10
2.06352e-10
1.10859e-10
7.68332e-11
2.63428e-11
2.305e-11
4.39047e-12
3.29285e-12
9.87856e-12
1.64643e-11
1.53666e-11
1.53666e-11
-1.09762e-12
-8.78094e-12
-2.85381e-11
-1.09762e-11
-7.68332e-12
-4.39047e-12
4.39047e-12
1.09762e-12
9.87856e-12
5.48809e-12
-1.97571e-11
-1.97571e-11
-5.48809e-12
0
0
-6.58571e-12
0
-9.87856e-12
0
-1.09762e-12
2.19524e-12
0
1.31714e-11
-9.87856e-12
1.09762e-11
-1.4269e-11
-4.39047e-12
1.09762e-12
0
-1.09762e-11
-7.68332e-12
0
5.48809e-12
0
-2.19524e-12
-1.4269e-11
-8.78094e-12
0
-2.08547e-11
-4.39047e-12
-4.39047e-12
1.09762e-12
0
0
-2.19523e-12
4.39047e-12
0
5.48809e-12
0
-1.09762e-12
0
6.58571e-12
1.53666e-11
5.48809e-12
-5.48809e-12
-8.78094e-12
1.09762e-12
-4.39047e-12
3.95142e-11
8.78094e-11
3.95142e-11
6.5857e-12
-1.09762e-11
-1.53666e-11
-2.63428e-11
-1.4269e-11
-4.39047e-12
-2.305e-11
-9.87856e-12
-1.09762e-11
-8.78094e-12
4.39047e-12
-2.19523e-12
7.68332e-12
0
-8.78094e-12
7.68332e-12
-1.97571e-11
-3.29285e-11
-9.87856e-12
2.19523e-12
-1.75619e-11
-8.78094e-12
4.39047e-12
-4.39047e-12
-1.09762e-11
-2.19523e-12
1.09762e-12
1.09762e-12
-1.09762e-12
-3.29285e-12
-5.48809e-12
-1.09762e-12
5.48809e-12
1.09762e-12
2.19523e-12
1.09762e-12
0
-1.09762e-12
0
-5.48809e-12
-5.48809e-12
0
0
-2.19523e-12
4.39047e-12
-1.09762e-12
2.19523e-12
-1.09762e-12
-4.39047e-12
-1.09762e-11
-3.29285e-12
2.19523e-12
0
-1.4269e-11
-1.09762e-12
-1.09762e-12
0
-1.09762e-12
4.39047e-12
0