/*--------------------------------*- C++ -*----------------------------------*\
  =========                 |
  \\      /  F ield         | OpenFOAM: The Open Source CFD Toolbox
   \\    /   O peration     | Website:  https://openfoam.org
    \\  /    A nd           | Version:  10
     \\/     M anipulation  |
\*---------------------------------------------------------------------------*/
FoamFile
{
    format      ascii;
    class       volScalarField;
    location    "284";
    object      gradTz;
}
// * * * * * * * * * * * * * * * * * * * * * * * * * * * * * * * * * * * * * //

dimensions      [0 -1 0 1 0 0 0];

internalField   nonuniform List<scalar> 
11250
(
-14351.9
-4147.39
-1527.05
-723.401
-418.573
-276.801
-199.235
-151.499
-119.53
-96.7319
-79.6702
-66.41
-55.795
-47.1011
-39.857
-33.7448
-28.5434
-24.0932
-20.2754
-16.9984
-14.1888
-11.7859
-9.73846
-8.00163
-6.53594
-5.30615
-4.28065
-3.43107
-2.732
-2.1608
-1.69743
-1.32427
-1.02599
-0.789338
-0.603005
-0.457403
-0.344497
-0.257613
-0.191267
-0.140991
-0.103186
-0.0749761
-0.0540873
-0.038738
-0.0275453
-0.0194458
-0.0136293
-0.00948397
-0.00655208
-0.00449408
-0.00306039
-0.00206913
-0.00138892
-0.000925638
-0.00061247
-0.000402352
-0.000262425
-0.000169934
-0.000109252
-6.97344e-05
-4.41908e-05
-2.78021e-05
-1.73652e-05
-1.07679e-05
-6.62855e-06
-4.05082e-06
-2.45756e-06
-1.48018e-06
-8.85205e-07
-5.25949e-07
-3.11038e-07
-1.84166e-07
-1.11016e-07
-7.13836e-08
-5.4073e-08
-8259.94
-4857.55
-2764.05
-1671
-1092.32
-765.897
-567.625
-438.533
-349.274
-284.369
-235.171
-196.595
-165.517
-139.946
-118.564
-100.475
-85.0498
-71.8318
-60.4782
-50.7232
-42.3529
-35.1901
-29.0834
-23.9011
-19.5263
-15.8546
-12.792
-10.2543
-8.16579
-6.45905
-5.07432
-3.95906
-3.06749
-2.36008
-1.80304
-1.36774
-1.03017
-0.770382
-0.571994
-0.421655
-0.308602
-0.224239
-0.161769
-0.115863
-0.0823881
-0.0581636
-0.0407668
-0.0283681
-0.0195987
-0.0134429
-0.00915453
-0.00618947
-0.00415477
-0.00276896
-0.00183217
-0.00120363
-0.000785047
-0.000508363
-0.000326834
-0.000208617
-0.000132202
-8.31741e-05
-5.19509e-05
-3.22142e-05
-1.98309e-05
-1.21191e-05
-7.35246e-06
-4.42838e-06
-2.64839e-06
-1.57359e-06
-9.30596e-07
-5.5093e-07
-3.32148e-07
-2.1364e-07
-1.61798e-07
-5569.01
-4257.53
-2999.38
-2103.11
-1512.8
-1125.95
-866.091
-685.144
-554.237
-456.032
-379.934
-319.309
-269.895
-228.876
-194.35
-164.993
-139.861
-118.259
-99.659
-83.6477
-69.8884
-58.0994
-48.0387
-39.4938
-32.2755
-26.2137
-21.1553
-16.9621
-13.51
-10.688
-8.39789
-6.55302
-5.07789
-3.90727
-2.98534
-2.2648
-1.70595
-1.27584
-0.947348
-0.698395
-0.511171
-0.371451
-0.267981
-0.191944
-0.136493
-0.0963637
-0.0675435
-0.0470026
-0.0324736
-0.0222747
-0.0151693
-0.0102563
-0.00688487
-0.00458856
-0.00303623
-0.00199466
-0.00130101
-0.000842496
-0.000541662
-0.000345747
-0.000219106
-0.000137852
-8.61042e-05
-5.33931e-05
-3.2869e-05
-2.00874e-05
-1.21869e-05
-7.34026e-06
-4.38989e-06
-2.60838e-06
-1.5426e-06
-9.13265e-07
-5.5061e-07
-3.54148e-07
-2.68256e-07
-4187.4
-3602.08
-2870.79
-2227.39
-1728.11
-1357.54
-1084.41
-880.742
-725.788
-605.14
-509.032
-430.863
-366.141
-311.771
-265.585
-226.035
-191.989
-162.599
-137.207
-115.289
-96.4131
-80.2112
-66.3645
-54.5901
-44.6338
-36.2659
-29.2782
-23.4823
-18.7083
-14.8042
-11.6346
-9.08041
-7.03756
-5.41602
-4.13868
-3.14016
-2.36559
-1.76935
-1.31392
-0.968722
-0.709086
-0.515307
-0.371791
-0.266316
-0.18939
-0.133716
-0.0937296
-0.0652283
-0.0450676
-0.0309145
-0.0210539
-0.0142356
-0.00955641
-0.00636927
-0.00421464
-0.00276891
-0.00180606
-0.00116959
-0.000751975
-0.000480004
-0.000304195
-0.00019139
-0.000119548
-7.41335e-05
-4.5638e-05
-2.78916e-05
-1.69221e-05
-1.01925e-05
-6.09586e-06
-3.6221e-06
-2.14219e-06
-1.26829e-06
-7.64702e-07
-4.91861e-07
-3.7255e-07
-3388.09
-3089.63
-2651.5
-2204.94
-1812.36
-1489.66
-1231.54
-1026.27
-862.045
-729.089
-619.926
-529.037
-452.405
-387.116
-331.043
-282.613
-240.641
-204.214
-172.61
-145.236
-121.596
-101.261
-83.8494
-69.0215
-56.4675
-45.9052
-37.0773
-29.7494
-23.7097
-18.7677
-14.7537
-11.5176
-8.92847
-6.87262
-5.2527
-3.98606
-3.00328
-2.24663
-1.66855
-1.23032
-0.900668
-0.654597
-0.47233
-0.33836
-0.240643
-0.169915
-0.119111
-0.0828969
-0.0572784
-0.0392928
-0.0267612
-0.0180955
-0.0121481
-0.00809694
-0.00535809
-0.00352026
-0.00229623
-0.00148706
-0.000956127
-0.000610339
-0.000386805
-0.000243374
-0.000152024
-9.42748e-05
-5.80392e-05
-3.54717e-05
-2.15216e-05
-1.29634e-05
-7.75326e-06
-4.60707e-06
-2.72482e-06
-1.61329e-06
-9.72743e-07
-6.25716e-07
-4.73957e-07
-2883.39
-2713.12
-2437.08
-2125.2
-1823.75
-1554.57
-1323.65
-1129.03
-965.776
-828.457
-712.21
-613.038
-527.795
-454.053
-389.952
-334.057
-285.246
-242.628
-205.471
-173.162
-145.172
-121.031
-100.318
-82.6465
-67.6631
-55.0412
-44.4806
-35.7068
-28.4697
-22.544
-17.7282
-13.8439
-10.7347
-8.26495
-6.31823
-4.7956
-3.61388
-2.70383
-2.00842
-1.48113
-1.08441
-0.788233
-0.568818
-0.407521
-0.289858
-0.204682
-0.143495
-0.0998744
-0.069014
-0.0473465
-0.0322483
-0.021807
-0.0146406
-0.00975875
-0.00645809
-0.00424316
-0.00276789
-0.00179259
-0.00115262
-0.0007358
-0.000466335
-0.000293425
-0.000183295
-0.000113671
-6.9983e-05
-4.27729e-05
-2.59525e-05
-1.56329e-05
-9.35024e-06
-5.55624e-06
-3.28634e-06
-1.94586e-06
-1.17331e-06
-7.54755e-07
-5.71746e-07
-2544.32
-2437.86
-2254.16
-2031.03
-1799.26
-1578.09
-1376.82
-1198.35
-1042.05
-905.801
-787.011
-683.213
-592.249
-512.324
-441.975
-380.013
-325.468
-277.533
-235.522
-198.837
-166.944
-139.359
-115.635
-95.3546
-78.1306
-63.6011
-51.4301
-41.308
-32.9516
-26.1043
-20.5358
-16.0418
-12.4428
-9.58273
-7.32747
-5.5629
-4.19297
-3.13769
-2.3311
-1.71937
-1.25902
-0.915276
-0.660579
-0.473317
-0.336693
-0.237778
-0.166712
-0.116044
-0.0801942
-0.0550207
-0.037478
-0.0253452
-0.0170171
-0.0113435
-0.00750726
-0.00493276
-0.0032179
-0.00208414
-0.00134015
-0.000855551
-0.000542255
-0.00034121
-0.000213154
-0.000132195
-8.13906e-05
-4.97474e-05
-3.01856e-05
-1.81835e-05
-1.08763e-05
-6.46336e-06
-3.82309e-06
-2.26383e-06
-1.36511e-06
-8.78183e-07
-6.65276e-07
-2306.32
-2234.57
-2105.67
-1940.82
-1759.99
-1578.03
-1404.14
-1243.06
-1096.53
-964.574
-846.347
-740.674
-646.325
-562.155
-487.145
-420.412
-361.186
-308.791
-262.621
-222.126
-186.792
-156.138
-129.708
-107.068
-87.8052
-71.5315
-57.882
-46.5178
-37.1272
-29.426
-23.1587
-18.0976
-14.0421
-10.8178
-8.27416
-6.2832
-4.73699
-3.54554
-2.63461
-1.94358
-1.42343
-1.03496
-0.74706
-0.535351
-0.380866
-0.269004
-0.188625
-0.13131
-0.0907522
-0.0622698
-0.0424192
-0.0286889
-0.0192635
-0.0128418
-0.0084994
-0.005585
-0.0036436
-0.00235999
-0.0015176
-0.000968889
-0.000614121
-0.00038645
-0.000241428
-0.000149737
-9.21955e-05
-5.63542e-05
-3.41961e-05
-2.06005e-05
-1.23226e-05
-7.3232e-06
-4.33194e-06
-2.56531e-06
-1.54702e-06
-9.95282e-07
-7.54001e-07
-2133.95
-2082.47
-1987.43
-1861.3
-1717.08
-1565.73
-1415.18
-1270.47
-1134.43
-1008.36
-892.592
-786.945
-690.97
-604.11
-525.781
-455.414
-392.461
-336.403
-286.738
-242.982
-204.662
-171.315
-142.488
-117.741
-96.647
-78.7983
-63.8077
-51.3126
-40.9771
-32.4937
-25.5845
-20.0014
-15.525
-11.9641
-9.15368
-6.95299
-5.24325
-3.92536
-2.91746
-2.15265
-1.57684
-1.14668
-0.827831
-0.593315
-0.422159
-0.298206
-0.209125
-0.145596
-0.100636
-0.0690578
-0.0470474
-0.0318217
-0.0213686
-0.0142462
-0.00942959
-0.00619665
-0.00404289
-0.00261877
-0.00168411
-0.00107526
-0.000681579
-0.000428923
-0.000267976
-0.000166211
-0.000102344
-6.25609e-05
-3.79644e-05
-2.28718e-05
-1.3682e-05
-8.13156e-06
-4.81038e-06
-2.84879e-06
-1.71812e-06
-1.10547e-06
-8.37513e-07
-2006.26
-1967.29
-1893.97
-1793.99
-1676.01
-1548.03
-1416.51
-1286.16
-1160.15
-1040.44
-928.118
-823.696
-727.332
-638.962
-558.391
-485.344
-419.496
-360.488
-307.936
-261.435
-220.561
-184.883
-153.962
-127.358
-104.64
-85.386
-69.1931
-55.6798
-44.4906
-35.2982
-27.8058
-21.7471
-16.8865
-13.0178
-9.96303
-7.56993
-5.71
-4.27582
-3.17864
-2.34584
-1.71867
-1.25004
-0.902595
-0.646996
-0.460419
-0.325273
-0.228135
-0.158849
-0.109807
-0.0753591
-0.0513451
-0.0347316
-0.0233246
-0.0155515
-0.0102943
-0.00676537
-0.00441424
-0.00285949
-0.00183904
-0.00117424
-0.000744367
-0.000468462
-0.000292695
-0.000181553
-0.000111798
-6.83434e-05
-4.14758e-05
-2.49887e-05
-1.49492e-05
-8.88519e-06
-5.25652e-06
-3.11324e-06
-1.87775e-06
-1.20826e-06
-9.15493e-07
-1910.1
-1879.19
-1820.26
-1738.26
-1639.16
-1528.82
-1412.44
-1294.17
-1177.15
-1063.61
-955.088
-852.554
-756.609
-667.58
-585.594
-510.637
-442.592
-381.254
-326.356
-277.576
-234.549
-196.88
-164.151
-135.932
-111.789
-91.2959
-74.0371
-59.6172
-47.665
-37.8369
-29.8199
-23.3325
-18.1246
-13.9773
-10.7008
-8.13292
-6.13632
-4.59621
-3.4176
-2.52273
-1.84863
-1.3448
-0.971183
-0.69627
-0.495555
-0.350143
-0.245609
-0.171036
-0.118245
-0.0811581
-0.0553015
-0.0374113
-0.0251264
-0.0167542
-0.0110913
-0.00728969
-0.00475668
-0.00308153
-0.00198197
-0.00126558
-0.000802319
-0.000504965
-0.000315521
-0.000195723
-0.00012053
-7.36859e-05
-4.47206e-05
-2.69452e-05
-1.61206e-05
-9.58205e-06
-5.66919e-06
-3.35789e-06
-2.02543e-06
-1.3034e-06
-9.87667e-07
-1836.81
-1811.29
-1762.13
-1692.72
-1607.27
-1510.21
-1405.7
-1297.32
-1188.03
-1080.13
-975.36
-874.999
-779.954
-690.842
-608.051
-531.788
-462.113
-398.966
-342.19
-291.545
-246.725
-207.376
-173.105
-143.495
-118.118
-96.5441
-78.3506
-63.132
-50.5049
-40.1126
-31.6286
-24.7584
-19.2399
-14.8427
-11.3671
-8.64191
-6.52216
-4.88645
-3.63426
-2.68324
-1.96664
-1.43092
-1.03355
-0.741099
-0.527539
-0.372794
-0.261531
-0.182146
-0.12594
-0.0864489
-0.0589126
-0.0398579
-0.026772
-0.017853
-0.0118197
-0.00776899
-0.0050698
-0.00328461
-0.00211273
-0.00134917
-0.000855361
-0.000538381
-0.000336421
-0.0002087
-0.000128529
-7.85809e-05
-4.76942e-05
-2.87387e-05
-1.71946e-05
-1.02211e-05
-6.04769e-06
-3.58232e-06
-2.161e-06
-1.39075e-06
-1.05389e-06
-1780.49
-1758.65
-1716.29
-1655.8
-1580.32
-1493.24
-1397.95
-1297.54
-1194.72
-1091.75
-990.47
-892.318
-798.414
-709.585
-626.42
-549.305
-478.45
-413.923
-355.664
-303.511
-257.217
-216.466
-180.895
-150.102
-123.666
-101.159
-82.1541
-66.2391
-53.0211
-42.133
-33.2374
-26.029
-20.2351
-15.6161
-11.9633
-9.09789
-6.86818
-5.147
-3.82893
-2.82758
-2.07285
-1.50847
-1.08976
-0.781528
-0.556401
-0.393245
-0.275914
-0.192187
-0.132898
-0.0912347
-0.0621804
-0.0420728
-0.0282623
-0.0188484
-0.0124797
-0.00820344
-0.00535371
-0.00346879
-0.00223135
-0.00142501
-0.000903502
-0.000568718
-0.000355399
-0.000220486
-0.000135796
-8.30286e-05
-5.03968e-05
-3.0369e-05
-1.81712e-05
-1.08023e-05
-6.39202e-06
-3.78653e-06
-2.28436e-06
-1.47025e-06
-1.11423e-06
-1736.94
-1717.67
-1680.12
-1626.06
-1557.89
-1478.33
-1390.17
-1296.1
-1198.6
-1099.83
-1001.65
-905.592
-812.906
-724.57
-641.322
-563.687
-492.001
-426.436
-367.022
-313.664
-266.17
-224.263
-187.606
-155.817
-128.482
-105.178
-85.4759
-68.9598
-55.2295
-43.91
-34.6551
-27.1505
-21.1151
-16.3008
-12.4919
-9.50267
-7.1757
-5.3788
-4.0023
-2.95624
-2.16759
-1.57771
-1.13997
-0.817671
-0.582219
-0.411549
-0.288795
-0.201184
-0.139135
-0.0955268
-0.0651122
-0.0440607
-0.0296003
-0.0197424
-0.0130727
-0.00859392
-0.00560896
-0.00363443
-0.00233805
-0.00149325
-0.000946831
-0.000596028
-0.000372488
-0.000231102
-0.000142343
-8.70365e-05
-5.28327e-05
-3.18387e-05
-1.90518e-05
-1.13265e-05
-6.70264e-06
-3.97081e-06
-2.39569e-06
-1.54203e-06
-1.16876e-06
-1703.13
-1685.7
-1651.59
-1602.21
-1539.45
-1465.55
-1382.88
-1293.82
-1200.63
-1105.37
-1009.87
-915.706
-824.214
-736.469
-653.321
-575.402
-503.147
-436.815
-376.511
-322.201
-273.74
-230.889
-193.335
-160.714
-132.624
-108.645
-88.3501
-71.32
-57.1499
-45.4586
-35.893
-28.1316
-21.8861
-16.9017
-12.9563
-9.85879
-7.44657
-5.58319
-4.15531
-3.0699
-2.25137
-1.63899
-1.18444
-0.849701
-0.605115
-0.427792
-0.300231
-0.209176
-0.144678
-0.0993432
-0.0677203
-0.0458299
-0.0307916
-0.0205387
-0.013601
-0.00894194
-0.00583652
-0.00378215
-0.00243324
-0.00155415
-0.000985503
-0.00062041
-0.000387748
-0.000240584
-0.000148192
-9.06181e-05
-5.50099e-05
-3.31527e-05
-1.98392e-05
-1.17954e-05
-6.9805e-06
-4.13569e-06
-2.49539e-06
-1.60636e-06
-1.21757e-06
-1676.82
-1660.72
-1629.11
-1583.15
-1524.41
-1454.79
-1376.35
-1291.22
-1201.49
-1109.1
-1015.87
-923.373
-832.987
-745.859
-662.917
-584.873
-512.242
-445.354
-384.372
-329.317
-280.085
-236.469
-198.181
-164.873
-136.154
-111.609
-90.8145
-73.3489
-58.8046
-46.7958
-36.9641
-28.982
-22.5555
-17.4242
-13.3608
-10.1693
-7.68305
-5.76183
-4.28919
-3.16944
-2.3248
-1.69274
-1.22349
-0.877843
-0.625244
-0.442081
-0.310298
-0.216214
-0.149563
-0.102708
-0.0700208
-0.0473911
-0.0318433
-0.0212419
-0.0140678
-0.00924951
-0.0060377
-0.00391278
-0.00251744
-0.00160803
-0.00101973
-0.000641996
-0.000401262
-0.000248983
-0.000153373
-9.3792e-05
-5.69398e-05
-3.43178e-05
-2.05376e-05
-1.22113e-05
-7.2271e-06
-4.28208e-06
-2.58387e-06
-1.66344e-06
-1.26096e-06
-1656.32
-1641.19
-1611.42
-1567.99
-1512.25
-1445.86
-1370.67
-1288.61
-1201.62
-1111.58
-1020.23
-929.157
-839.759
-753.227
-670.543
-592.48
-519.611
-452.324
-390.833
-335.2
-285.358
-241.128
-202.245
-168.373
-139.135
-114.121
-92.9086
-75.0775
-60.2178
-47.9404
-37.8826
-29.7126
-23.1316
-17.8746
-13.71
-10.4377
-7.88771
-5.91661
-4.40531
-3.25586
-2.38862
-1.73949
-1.25747
-0.902357
-0.642791
-0.454545
-0.319084
-0.222362
-0.153832
-0.10565
-0.0720329
-0.0487572
-0.032764
-0.0218578
-0.0144768
-0.00951906
-0.00621407
-0.00402734
-0.00259131
-0.00165531
-0.00104978
-0.000660948
-0.00041313
-0.000256361
-0.000157927
-9.65814e-05
-5.86363e-05
-3.53421e-05
-2.11517e-05
-1.25772e-05
-7.44405e-06
-4.4109e-06
-2.6618e-06
-1.71373e-06
-1.29914e-06
-1640.36
-1625.93
-1597.51
-1555.96
-1502.47
-1438.54
-1365.84
-1286.16
-1201.35
-1113.18
-1023.38
-933.502
-844.963
-758.978
-676.567
-598.548
-525.54
-457.972
-396.102
-340.025
-289.705
-244.987
-205.623
-171.295
-141.632
-116.231
-94.6728
-76.5374
-61.4142
-48.9114
-38.6635
-30.3349
-23.6231
-18.2595
-14.0087
-10.6677
-8.06328
-6.04955
-4.50515
-3.33025
-2.44359
-1.7798
-1.2868
-0.923528
-0.657956
-0.465325
-0.326688
-0.227685
-0.15753
-0.1082
-0.073778
-0.0499426
-0.0335632
-0.0223926
-0.014832
-0.00975333
-0.00636741
-0.00412697
-0.00265557
-0.00169646
-0.00107593
-0.000677449
-0.000423466
-0.000262788
-0.000161894
-9.90126e-05
-6.01153e-05
-3.62353e-05
-2.16874e-05
-1.28963e-05
-7.63335e-06
-4.52333e-06
-2.72985e-06
-1.75765e-06
-1.33247e-06
-1627.93
-1614.03
-1586.61
-1546.46
-1494.66
-1432.59
-1361.79
-1283.97
-1200.86
-1114.19
-1025.64
-936.754
-848.944
-763.444
-681.299
-603.36
-530.278
-462.518
-400.367
-343.953
-293.261
-248.157
-208.41
-173.714
-143.706
-117.988
-96.1463
-77.76
-62.4184
-49.7282
-39.3216
-30.8603
-24.0388
-18.5855
-14.2622
-10.8631
-8.21263
-6.16276
-4.59027
-3.39373
-2.49056
-1.81427
-1.31189
-0.941659
-0.670953
-0.474569
-0.333213
-0.232255
-0.160707
-0.110392
-0.0752789
-0.0509626
-0.0342511
-0.0228532
-0.0151381
-0.00995524
-0.00649962
-0.0042129
-0.00271101
-0.00173197
-0.0010985
-0.000691698
-0.000432394
-0.000268341
-0.000165322
-0.000101114
-6.13939e-05
-3.70077e-05
-2.21507e-05
-1.31724e-05
-7.79717e-06
-4.62066e-06
-2.78875e-06
-1.7957e-06
-1.36135e-06
-1618.28
-1604.76
-1578.09
-1538.99
-1488.46
-1427.79
-1358.45
-1282.06
-1200.28
-1114.8
-1027.25
-939.177
-851.976
-766.896
-684.997
-607.152
-534.04
-466.151
-403.796
-347.126
-296.147
-250.741
-210.69
-175.699
-145.413
-119.44
-97.3669
-78.7752
-63.2541
-50.4095
-39.8716
-31.3002
-24.3875
-18.8593
-14.4754
-11.0277
-8.33858
-6.25835
-4.66222
-3.44744
-2.53033
-1.84349
-1.33319
-0.957055
-0.681998
-0.482431
-0.338766
-0.236147
-0.163414
-0.11226
-0.076559
-0.051833
-0.0348385
-0.0232466
-0.0153997
-0.0101278
-0.00661266
-0.0042864
-0.00275845
-0.00176236
-0.00111783
-0.0007039
-0.000440041
-0.000273098
-0.00016826
-0.000102915
-6.24901e-05
-3.767e-05
-2.25481e-05
-1.34093e-05
-7.93776e-06
-4.70421e-06
-2.8393e-06
-1.82836e-06
-1.38616e-06
-1610.79
-1597.56
-1571.45
-1533.13
-1483.56
-1423.95
-1355.73
-1280.44
-1199.69
-1115.15
-1028.4
-940.976
-854.277
-769.551
-687.871
-610.125
-537.01
-469.035
-406.534
-349.672
-298.472
-252.831
-212.542
-177.317
-146.809
-120.63
-98.3696
-79.6113
-63.9439
-50.973
-40.3274
-31.6654
-24.6774
-19.0874
-14.6532
-11.1651
-8.44391
-6.33839
-4.72254
-3.49251
-2.56374
-1.86805
-1.3511
-0.97002
-0.691305
-0.489061
-0.343452
-0.239434
-0.165701
-0.11384
-0.0776418
-0.0525695
-0.0353358
-0.0235799
-0.0156213
-0.0102741
-0.00670852
-0.00434875
-0.0027987
-0.00178815
-0.00113424
-0.000714263
-0.000446537
-0.00027714
-0.000170757
-0.000104446
-6.34221e-05
-3.82333e-05
-2.28861e-05
-1.36109e-05
-8.05739e-06
-4.77526e-06
-2.88234e-06
-1.85618e-06
-1.4073e-06
-1605
-1591.99
-1566.29
-1528.56
-1479.7
-1420.91
-1353.53
-1279.08
-1199.14
-1115.32
-1029.21
-942.307
-856.016
-771.585
-690.093
-612.441
-539.339
-471.311
-408.704
-351.699
-300.331
-254.509
-214.033
-178.624
-147.94
-121.597
-99.1868
-80.2942
-64.5087
-51.4352
-40.702
-31.9661
-24.9165
-19.2758
-14.8003
-11.279
-8.53127
-6.40485
-4.77267
-3.53002
-2.59157
-1.88853
-1.36605
-0.980846
-0.699084
-0.494606
-0.347374
-0.242186
-0.167618
-0.115164
-0.0785501
-0.0531877
-0.0357533
-0.0238598
-0.0158075
-0.0103971
-0.00678915
-0.0044012
-0.00283258
-0.00180987
-0.00114806
-0.000722991
-0.00045201
-0.000280546
-0.000172862
-0.000105737
-6.4208e-05
-3.87084e-05
-2.31712e-05
-1.37809e-05
-8.15833e-06
-4.83529e-06
-2.91869e-06
-1.87964e-06
-1.42515e-06
-1600.54
-1587.69
-1562.3
-1525
-1476.69
-1418.51
-1351.77
-1277.97
-1198.65
-1115.39
-1029.77
-943.287
-857.324
-773.135
-691.803
-614.236
-541.155
-473.095
-410.414
-353.303
-301.808
-255.846
-215.226
-179.673
-148.85
-122.377
-99.8476
-80.8477
-64.9673
-51.8114
-41.0074
-32.2117
-25.1121
-19.4301
-14.921
-11.3725
-8.60313
-6.45958
-4.814
-3.56097
-2.61456
-1.90546
-1.37843
-0.989813
-0.705531
-0.499205
-0.350629
-0.244472
-0.169211
-0.116266
-0.0793058
-0.0537023
-0.0361011
-0.024093
-0.0159628
-0.0104997
-0.0068564
-0.00444497
-0.00286085
-0.001828
-0.0011596
-0.000730282
-0.000456582
-0.000283393
-0.000174621
-0.000106816
-6.48652e-05
-3.91057e-05
-2.34097e-05
-1.39231e-05
-8.24278e-06
-4.88553e-06
-2.94911e-06
-1.89931e-06
-1.44008e-06
-1597.11
-1584.38
-1559.23
-1522.26
-1474.35
-1416.62
-1350.38
-1277.07
-1198.22
-1115.4
-1030.17
-944.007
-858.305
-774.311
-693.112
-615.62
-542.563
-474.485
-411.752
-354.564
-302.973
-256.904
-216.173
-180.508
-149.577
-123.001
-100.378
-81.2927
-65.3368
-52.115
-41.2544
-32.4106
-25.2707
-19.5555
-15.0192
-11.4487
-8.66174
-6.50428
-4.84779
-3.5863
-2.63339
-1.91935
-1.38858
-0.997179
-0.710832
-0.502989
-0.353309
-0.246355
-0.170524
-0.117174
-0.0799294
-0.0541271
-0.0363883
-0.0242857
-0.0160911
-0.0105845
-0.00691203
-0.00448119
-0.00288426
-0.00184301
-0.00116916
-0.000736323
-0.000460372
-0.000285753
-0.00017608
-0.000107711
-6.54103e-05
-3.94352e-05
-2.36075e-05
-1.40412e-05
-8.31288e-06
-4.92718e-06
-2.97435e-06
-1.91562e-06
-1.45249e-06
-1594.49
-1581.85
-1556.87
-1520.14
-1472.54
-1415.16
-1349.28
-1276.34
-1197.85
-1115.37
-1030.44
-944.533
-859.037
-775.199
-694.109
-616.681
-543.649
-475.562
-412.792
-355.547
-303.886
-257.736
-216.919
-181.168
-150.153
-123.497
-100.8
-81.6477
-65.6322
-52.3582
-41.4526
-32.5704
-25.3985
-19.6566
-15.0985
-11.5103
-8.70918
-6.54049
-4.8752
-3.60687
-2.64869
-1.93064
-1.39685
-1.00318
-0.715153
-0.506076
-0.355497
-0.247893
-0.171597
-0.117917
-0.0804398
-0.054475
-0.0366236
-0.0244437
-0.0161963
-0.0106541
-0.00695769
-0.00451093
-0.00290348
-0.00185535
-0.00117701
-0.000741287
-0.000463486
-0.000287692
-0.000177279
-0.000108447
-6.58585e-05
-3.97063e-05
-2.37703e-05
-1.41382e-05
-8.37052e-06
-4.96146e-06
-2.99509e-06
-1.92906e-06
-1.46274e-06
-1592.49
-1579.92
-1555.06
-1518.52
-1471.15
-1414.03
-1348.43
-1275.77
-1197.55
-1115.33
-1030.62
-944.916
-859.582
-775.867
-694.864
-617.49
-544.48
-476.39
-413.596
-356.31
-304.596
-258.385
-217.503
-181.686
-150.605
-123.888
-101.133
-81.9287
-65.8665
-52.5514
-41.6103
-32.6979
-25.5004
-19.7374
-15.1619
-11.5597
-8.74725
-6.56959
-4.89725
-3.62343
-2.66103
-1.93976
-1.40352
-1.00803
-0.718649
-0.508575
-0.357269
-0.24914
-0.172468
-0.11852
-0.0808542
-0.0547576
-0.0368149
-0.0245721
-0.0162819
-0.0107107
-0.00699484
-0.00453513
-0.00291913
-0.00186539
-0.00118341
-0.000745332
-0.000466025
-0.000289274
-0.000178256
-0.000109047
-6.62241e-05
-3.99273e-05
-2.39031e-05
-1.42175e-05
-8.41754e-06
-4.98943e-06
-3.01208e-06
-1.94004e-06
-1.47108e-06
-1590.98
-1578.45
-1553.69
-1517.29
-1470.08
-1413.15
-1347.76
-1275.32
-1197.31
-1115.28
-1030.75
-945.194
-859.984
-776.367
-695.433
-618.103
-545.114
-477.024
-414.213
-356.898
-305.144
-258.888
-217.956
-182.089
-150.959
-124.194
-101.394
-82.1495
-66.0509
-52.7038
-41.7349
-32.7987
-25.5812
-19.8015
-15.2123
-11.599
-8.77757
-6.59279
-4.91485
-3.63667
-2.6709
-1.94705
-1.40887
-1.01192
-0.721453
-0.510581
-0.358693
-0.250143
-0.173168
-0.119005
-0.0811878
-0.0549853
-0.036969
-0.0246757
-0.016351
-0.0107564
-0.00702484
-0.00455468
-0.00293178
-0.00187351
-0.00118858
-0.000748603
-0.000468078
-0.000290553
-0.000179047
-0.000109532
-6.65198e-05
-4.01062e-05
-2.40105e-05
-1.42816e-05
-8.45562e-06
-5.01207e-06
-3.02579e-06
-1.94889e-06
-1.47782e-06
-1589.84
-1577.34
-1552.66
-1516.35
-1469.28
-1412.49
-1347.25
-1274.97
-1197.11
-1115.23
-1030.84
-945.395
-860.281
-776.739
-695.86
-618.565
-545.593
-477.505
-414.684
-357.347
-305.565
-259.275
-218.306
-182.401
-151.233
-124.432
-101.598
-82.3217
-66.195
-52.823
-41.8325
-32.8779
-25.6447
-19.852
-15.2521
-11.63
-8.80153
-6.61114
-4.92878
-3.64715
-2.67872
-1.95284
-1.41312
-1.01501
-0.723685
-0.512179
-0.359828
-0.250942
-0.173727
-0.119393
-0.0814544
-0.0551673
-0.0370923
-0.0247585
-0.0164062
-0.0107929
-0.00704886
-0.00457034
-0.00294191
-0.00188001
-0.00119273
-0.000751225
-0.000469724
-0.000291578
-0.000179681
-0.000109922
-6.6757e-05
-4.02497e-05
-2.40967e-05
-1.4333e-05
-8.48617e-06
-5.03023e-06
-3.03677e-06
-1.95599e-06
-1.48326e-06
-1588.98
-1576.51
-1551.88
-1515.65
-1468.66
-1411.98
-1346.86
-1274.69
-1196.96
-1115.19
-1030.89
-945.539
-860.499
-777.015
-696.179
-618.912
-545.955
-477.869
-415.041
-357.689
-305.886
-259.571
-218.575
-182.64
-151.444
-124.615
-101.755
-82.455
-66.3067
-52.9156
-41.9084
-32.9395
-25.6943
-19.8914
-15.2832
-11.6542
-8.82031
-6.62554
-4.93972
-3.6554
-2.68488
-1.9574
-1.41647
-1.01745
-0.725447
-0.513442
-0.360725
-0.251575
-0.174169
-0.1197
-0.0816656
-0.0553115
-0.03719
-0.0248242
-0.0164501
-0.010822
-0.00706795
-0.00458279
-0.00294996
-0.00188518
-0.00119602
-0.00075331
-0.000471033
-0.000292394
-0.000180186
-0.000110232
-6.69458e-05
-4.03639e-05
-2.41652e-05
-1.43739e-05
-8.5105e-06
-5.04469e-06
-3.04552e-06
-1.96166e-06
-1.48753e-06
-1588.34
-1575.89
-1551.29
-1515.12
-1468.2
-1411.6
-1346.57
-1274.49
-1196.84
-1115.15
-1030.93
-945.642
-860.658
-777.219
-696.416
-619.17
-546.225
-478.143
-415.31
-357.948
-306.129
-259.795
-218.779
-182.823
-151.605
-124.755
-101.876
-82.5574
-66.3927
-52.9869
-41.967
-32.9871
-25.7326
-19.922
-15.3073
-11.6731
-8.83491
-6.63675
-4.94825
-3.66183
-2.68969
-1.96097
-1.41909
-1.01936
-0.726828
-0.514431
-0.361429
-0.252071
-0.174516
-0.119941
-0.0818317
-0.055425
-0.0372669
-0.024876
-0.0164846
-0.0108449
-0.00708298
-0.00459259
-0.00295631
-0.00188926
-0.00119862
-0.000754955
-0.000472066
-0.000293038
-0.000180584
-0.000110476
-6.70947e-05
-4.0454e-05
-2.42194e-05
-1.44062e-05
-8.52967e-06
-5.05607e-06
-3.05244e-06
-1.96612e-06
-1.49092e-06
-1587.86
-1575.43
-1550.86
-1514.73
-1467.86
-1411.32
-1346.34
-1274.33
-1196.75
-1115.12
-1030.95
-945.716
-860.774
-777.368
-696.59
-619.362
-546.426
-478.347
-415.511
-358.142
-306.312
-259.965
-218.933
-182.961
-151.727
-124.862
-101.967
-82.6355
-66.4583
-53.0415
-42.012
-33.0237
-25.7621
-19.9455
-15.3258
-11.6876
-8.84618
-6.64541
-4.95485
-3.66681
-2.69341
-1.96373
-1.42112
-1.02084
-0.7279
-0.515201
-0.361976
-0.252458
-0.174787
-0.120129
-0.0819612
-0.0555135
-0.037327
-0.0249164
-0.0165116
-0.0108627
-0.00709474
-0.00460026
-0.00296128
-0.00189245
-0.00120066
-0.000756242
-0.000472874
-0.000293542
-0.000180896
-0.000110667
-6.72113e-05
-4.05245e-05
-2.42617e-05
-1.44314e-05
-8.54465e-06
-5.065e-06
-3.05785e-06
-1.96962e-06
-1.49357e-06
-1587.51
-1575.09
-1550.54
-1514.43
-1467.6
-1411.1
-1346.18
-1274.21
-1196.67
-1115.09
-1030.97
-945.768
-860.857
-777.477
-696.718
-619.503
-546.575
-478.499
-415.661
-358.286
-306.449
-260.092
-219.049
-183.065
-151.819
-124.942
-102.037
-82.6946
-66.5081
-53.083
-42.0461
-33.0515
-25.7845
-19.9634
-15.34
-11.6987
-8.85481
-6.65205
-4.95991
-3.67063
-2.69628
-1.96586
-1.42269
-1.02199
-0.728728
-0.515795
-0.362399
-0.252756
-0.174996
-0.120274
-0.0820614
-0.0555821
-0.0373735
-0.0249477
-0.0165325
-0.0108766
-0.00710386
-0.00460621
-0.00296513
-0.00189493
-0.00120224
-0.000757241
-0.000473501
-0.000293933
-0.000181138
-0.000110816
-6.73018e-05
-4.05792e-05
-2.42946e-05
-1.4451e-05
-8.5563e-06
-5.07195e-06
-3.06204e-06
-1.97228e-06
-1.49562e-06
-1587.25
-1574.83
-1550.3
-1514.22
-1467.41
-1410.95
-1346.05
-1274.12
-1196.62
-1115.07
-1030.98
-945.805
-860.918
-777.556
-696.812
-619.607
-546.685
-478.61
-415.772
-358.393
-306.55
-260.186
-219.135
-183.143
-151.888
-125.002
-102.089
-82.739
-66.5456
-53.1142
-42.0719
-33.0726
-25.8015
-19.977
-15.3508
-11.7072
-8.86137
-6.6571
-4.96376
-3.67355
-2.69846
-1.96748
-1.42388
-1.02286
-0.72936
-0.516249
-0.362723
-0.252985
-0.175156
-0.120386
-0.0821384
-0.0556347
-0.0374092
-0.0249718
-0.0165486
-0.0108873
-0.00711087
-0.00461079
-0.00296809
-0.00189683
-0.00120345
-0.00075801
-0.000473985
-0.000294234
-0.000181324
-0.00011093
-6.73715e-05
-4.06213e-05
-2.43199e-05
-1.44661e-05
-8.56526e-06
-5.07727e-06
-3.06526e-06
-1.97438e-06
-1.49718e-06
-1587.06
-1574.65
-1550.13
-1514.06
-1467.28
-1410.83
-1345.96
-1274.05
-1196.58
-1115.05
-1030.98
-945.831
-860.961
-777.614
-696.88
-619.682
-546.765
-478.692
-415.853
-358.472
-306.625
-260.256
-219.199
-183.201
-151.939
-125.047
-102.128
-82.7722
-66.5736
-53.1376
-42.0912
-33.0883
-25.8143
-19.9872
-15.3589
-11.7135
-8.86632
-6.66091
-4.96667
-3.67575
-2.70012
-1.96871
-1.42479
-1.02352
-0.729841
-0.516595
-0.362969
-0.253159
-0.175279
-0.120471
-0.082197
-0.0556748
-0.0374365
-0.0249901
-0.0165609
-0.0108954
-0.00711622
-0.00461429
-0.00297036
-0.00189829
-0.00120438
-0.000758598
-0.000474354
-0.000294464
-0.000181466
-0.000111018
-6.74247e-05
-4.06535e-05
-2.43392e-05
-1.44777e-05
-8.57211e-06
-5.08133e-06
-3.06771e-06
-1.97598e-06
-1.49838e-06
-1586.92
-1574.52
-1550
-1513.94
-1467.17
-1410.74
-1345.89
-1274
-1196.55
-1115.04
-1030.99
-945.849
-860.992
-777.655
-696.929
-619.737
-546.823
-478.752
-415.913
-358.53
-306.68
-260.307
-219.246
-183.243
-151.977
-125.08
-102.156
-82.7967
-66.5944
-53.155
-42.1055
-33.1001
-25.8238
-19.9949
-15.3649
-11.7183
-8.87002
-6.66376
-4.96885
-3.6774
-2.70136
-1.96963
-1.42547
-1.02402
-0.730203
-0.516855
-0.363155
-0.253291
-0.175371
-0.120535
-0.0822413
-0.0557052
-0.0374571
-0.025004
-0.0165702
-0.0109016
-0.00712028
-0.00461693
-0.00297207
-0.00189939
-0.00120508
-0.000759043
-0.000474633
-0.000294638
-0.000181574
-0.000111084
-6.74651e-05
-4.06779e-05
-2.43538e-05
-1.44864e-05
-8.57725e-06
-5.08442e-06
-3.0696e-06
-1.97718e-06
-1.4993e-06
-1586.82
-1574.42
-1549.91
-1513.86
-1467.1
-1410.68
-1345.84
-1273.97
-1196.52
-1115.03
-1030.99
-945.862
-861.013
-777.684
-696.964
-619.776
-546.865
-478.795
-415.956
-358.572
-306.72
-260.344
-219.28
-183.274
-152.005
-125.105
-102.178
-82.8148
-66.6097
-53.1678
-42.1162
-33.1088
-25.8308
-20.0005
-15.3694
-11.7218
-8.87277
-6.66589
-4.97048
-3.67864
-2.70228
-1.97032
-1.42598
-1.02439
-0.730473
-0.51705
-0.363294
-0.253389
-0.17544
-0.120583
-0.0822745
-0.0557279
-0.0374726
-0.0250145
-0.0165771
-0.0109062
-0.00712332
-0.00461892
-0.00297336
-0.00190022
-0.00120561
-0.000759378
-0.000474844
-0.000294769
-0.000181655
-0.000111133
-6.74953e-05
-4.06962e-05
-2.43648e-05
-1.44929e-05
-8.58114e-06
-5.08671e-06
-3.071e-06
-1.97807e-06
-1.49998e-06
-1586.75
-1574.35
-1549.84
-1513.8
-1467.05
-1410.64
-1345.81
-1273.94
-1196.51
-1115.02
-1030.99
-945.871
-861.029
-777.705
-696.989
-619.805
-546.895
-478.826
-415.987
-358.602
-306.749
-260.372
-219.305
-183.297
-152.025
-125.122
-102.193
-82.828
-66.6209
-53.1772
-42.1239
-33.1151
-25.836
-20.0047
-15.3727
-11.7244
-8.8748
-6.66746
-4.97168
-3.67955
-2.70297
-1.97083
-1.42636
-1.02467
-0.730674
-0.517194
-0.363397
-0.253462
-0.175491
-0.120619
-0.0822992
-0.0557448
-0.0374841
-0.0250222
-0.0165823
-0.0109096
-0.00712559
-0.00462041
-0.00297432
-0.00190084
-0.00120601
-0.000759627
-0.000475
-0.000294867
-0.000181716
-0.000111171
-6.75179e-05
-4.07099e-05
-2.4373e-05
-1.44978e-05
-8.58404e-06
-5.08843e-06
-3.07204e-06
-1.97874e-06
-1.50048e-06
-1586.7
-1574.3
-1549.8
-1513.76
-1467.01
-1410.61
-1345.78
-1273.92
-1196.5
-1115.02
-1030.99
-945.877
-861.04
-777.72
-697.007
-619.825
-546.917
-478.848
-416.009
-358.624
-306.77
-260.391
-219.323
-183.313
-152.04
-125.135
-102.204
-82.8376
-66.629
-53.184
-42.1296
-33.1198
-25.8398
-20.0077
-15.3751
-11.7263
-8.87628
-6.6686
-4.97256
-3.68021
-2.70347
-1.97121
-1.42664
-1.02487
-0.730821
-0.5173
-0.363473
-0.253516
-0.175529
-0.120645
-0.0823174
-0.0557574
-0.0374926
-0.025028
-0.0165862
-0.0109122
-0.00712727
-0.0046215
-0.00297503
-0.0019013
-0.0012063
-0.000759812
-0.000475116
-0.000294939
-0.00018176
-0.000111198
-6.75346e-05
-4.07199e-05
-2.4379e-05
-1.45014e-05
-8.5862e-06
-5.0897e-06
-3.07279e-06
-1.97924e-06
-1.50087e-06
-1586.66
-1574.26
-1549.76
-1513.73
-1466.98
-1410.58
-1345.77
-1273.91
-1196.49
-1115.01
-1030.99
-945.881
-861.047
-777.73
-697.02
-619.839
-546.932
-478.864
-416.025
-358.64
-306.785
-260.405
-219.336
-183.325
-152.05
-125.144
-102.212
-82.8445
-66.6348
-53.1889
-42.1337
-33.1231
-25.8425
-20.0099
-15.3769
-11.7277
-8.87736
-6.66944
-4.9732
-3.6807
-2.70384
-1.97148
-1.42684
-1.02502
-0.730929
-0.517378
-0.363528
-0.253555