/*--------------------------------*- C++ -*----------------------------------*\
  =========                 |
  \\      /  F ield         | OpenFOAM: The Open Source CFD Toolbox
   \\    /   O peration     | Website:  https://openfoam.org
    \\  /    A nd           | Version:  10
     \\/     M anipulation  |
\*---------------------------------------------------------------------------*/
FoamFile
{
    format      ascii;
    class       volScalarField;
    location    "900";
    object      gradTz;
}
// * * * * * * * * * * * * * * * * * * * * * * * * * * * * * * * * * * * * * //

dimensions      [0 -1 0 1 0 0 0];

internalField   nonuniform List<scalar> 
11250
(
-14332.8
-4128.53
-1508.77
-705.975
-402.248
-261.794
-185.73
-139.64
-109.421
-88.4342
-73.205
-61.7593
-52.9052
-45.887
-40.2066
-35.5248
-31.604
-28.2743
-25.4115
-22.9232
-20.7398
-18.8077
-17.0856
-15.5411
-14.1486
-12.8874
-11.7409
-10.6955
-9.74005
-8.8652
-8.06308
-7.32701
-6.65121
-6.03068
-5.46101
-4.93827
-4.45894
-4.01983
-3.61801
-3.25079
-2.91568
-2.61034
-2.33259
-2.08041
-1.85186
-1.64512
-1.45851
-1.29041
-1.13931
-1.00378
-0.882501
-0.774214
-0.677753
-0.59203
-0.516032
-0.448822
-0.389531
-0.337361
-0.29158
-0.251515
-0.216555
-0.186146
-0.159785
-0.137021
-0.11745
-0.100713
-0.0864938
-0.0745134
-0.0645317
-0.056343
-0.0497747
-0.0446857
-0.0409647
-0.0385293
-0.037325
-8202.56
-4801.06
-2709.3
-1618.81
-1043.43
-720.954
-527.178
-403.015
-318.995
-259.515
-215.804
-182.661
-156.858
-136.304
-119.605
-105.8
-94.2107
-84.3488
-75.8557
-68.4633
-61.9688
-56.2164
-51.085
-46.4795
-42.3244
-38.5593
-35.135
-32.0115
-29.1557
-26.54
-24.1412
-21.9393
-19.9174
-18.0605
-16.3556
-14.7908
-13.3559
-12.0412
-10.8381
-9.73841
-8.73482
-7.82034
-6.98846
-6.23309
-5.54846
-4.92918
-4.37014
-3.86654
-3.41384
-3.00781
-2.64444
-2.31999
-2.03096
-1.77411
-1.54639
-1.34499
-1.16733
-1.011
-0.873811
-0.753751
-0.648988
-0.557859
-0.478862
-0.410643
-0.351993
-0.301837
-0.259223
-0.223319
-0.193405
-0.168864
-0.149179
-0.133927
-0.122776
-0.115477
-0.111868
-5473.72
-4163.71
-2908.44
-2016.42
-1431.58
-1051.3
-798.902
-626.141
-503.933
-414.736
-347.75
-296.15
-255.493
-222.81
-196.062
-173.82
-155.059
-139.033
-125.186
-113.101
-102.459
-93.0147
-84.5761
-76.9916
-70.1405
-63.9258
-58.2686
-53.1044
-48.3795
-44.0493
-40.0761
-36.4275
-33.0757
-29.9964
-27.1682
-24.5719
-22.1904
-20.008
-18.0104
-16.1843
-14.5175
-12.9985
-11.6165
-10.3614
-9.22385
-8.19474
-7.26566
-6.42864
-5.67619
-5.00125
-4.39719
-3.85781
-3.3773
-2.95026
-2.57163
-2.23677
-1.94135
-1.6814
-1.45327
-1.25361
-1.07939
-0.927844
-0.796466
-0.683012
-0.58547
-0.502052
-0.431176
-0.371461
-0.321707
-0.280889
-0.248148
-0.222781
-0.204232
-0.192092
-0.186089
-4054.66
-3471.39
-2744.13
-2106.64
-1614.99
-1253.55
-990.808
-798.538
-655.697
-547.592
-464.174
-398.571
-346.046
-303.283
-267.931
-238.292
-213.123
-191.501
-172.732
-156.286
-141.756
-128.825
-117.242
-106.81
-97.3704
-88.794
-80.9766
-73.8321
-67.289
-61.2872
-55.7759
-50.7116
-46.0565
-41.7777
-37.846
-34.2353
-30.9221
-27.8849
-25.1041
-22.5614
-20.24
-18.124
-16.1985
-14.4496
-12.8642
-11.4297
-10.1345
-8.96755
-7.91838
-6.97719
-6.13477
-5.38249
-4.71228
-4.11659
-3.58842
-3.12126
-2.70911
-2.34643
-2.02812
-1.74954
-1.50644
-1.29497
-1.11163
-0.953305
-0.81718
-0.700762
-0.601847
-0.518505
-0.449064
-0.392094
-0.346397
-0.310991
-0.285102
-0.268157
-0.259779
-3218.58
-2922.74
-2489.76
-2050.74
-1667.89
-1356.83
-1111.99
-921.261
-772.497
-655.552
-562.587
-487.741
-426.681
-376.214
-333.976
-298.203
-267.568
-241.066
-217.924
-197.544
-179.462
-163.311
-148.799
-135.693
-123.807
-112.986
-103.106
-94.0623
-85.7694
-78.1539
-71.1539
-64.716
-58.7938
-53.3466
-48.3384
-43.7366
-39.512
-35.6377
-32.0892
-28.8435
-25.8794
-23.1768
-20.717
-18.4823
-16.456
-14.6224
-12.9665
-11.4744
-10.1327
-8.92889
-7.85133
-6.88898
-6.03151
-5.26933
-4.59349
-3.99567
-3.46821
-3.00402
-2.59661
-2.24003
-1.92884
-1.65812
-1.42342
-1.22072
-1.04644
-0.897385
-0.770737
-0.664025
-0.575109
-0.502161
-0.443646
-0.398308
-0.365156
-0.343458
-0.332729
-2677.95
-2510.85
-2241.04
-1938.3
-1648.63
-1393.56
-1178.71
-1001.71
-857.184
-739.26
-642.636
-562.901
-496.525
-440.744
-393.41
-352.856
-317.791
-287.206
-260.313
-236.491
-215.247
-196.188
-179.001
-163.429
-149.267
-136.343
-124.518
-113.675
-103.716
-94.5581
-86.1301
-78.3706
-71.2261
-64.6493
-58.598
-53.0343
-47.9237
-43.2346
-38.9377
-35.006
-31.414
-28.1379
-25.1552
-22.4448
-19.9866
-17.7616
-15.7519
-13.9406
-12.3116
-10.8499
-9.54128
-8.3724
-7.3308
-6.40485
-5.5837
-4.85728
-4.21631
-3.65218
-3.15702
-2.72359
-2.34533
-2.01623
-1.73091
-1.48448
-1.27259
-1.09136
-0.937366
-0.807609
-0.699489
-0.610783
-0.539626
-0.48449
-0.444175
-0.417788
-0.40474
-2303.96
-2201.19
-2024.78
-1812.32
-1594.33
-1389.66
-1207.18
-1049.3
-914.911
-801.337
-705.496
-624.429
-555.535
-496.621
-445.888
-401.879
-363.422
-329.575
-299.584
-272.841
-248.856
-227.234
-207.651
-189.844
-173.597
-158.73
-145.095
-132.566
-121.037
-110.419
-100.633
-91.6124
-83.2978
-75.6366
-68.5816
-62.0902
-56.1235
-50.6456
-45.6234
-41.0257
-36.8236
-32.9895
-29.4976
-26.3235
-23.4439
-20.8368
-18.4815
-16.3582
-14.4483
-12.7342
-11.1993
-9.82815
-8.60615
-7.51968
-6.55606
-5.70354
-4.9512
-4.289
-3.7077
-3.19885
-2.75471
-2.36829
-2.03324
-1.74384
-1.49499
-1.28214
-1.10127
-0.948864
-0.821863
-0.717664
-0.634076
-0.569307
-0.521947
-0.490948
-0.47562
-2032.17
-1964.63
-1844.03
-1691.34
-1526.21
-1363.05
-1210.57
-1072.97
-951.4
-845.293
-753.226
-673.467
-604.281
-544.07
-491.435
-445.182
-404.312
-367.996
-335.55
-306.411
-280.116
-256.284
-234.599
-214.802
-196.675
-180.038
-164.737
-150.646
-137.653
-125.665
-114.6
-104.386
-94.9596
-86.2647
-78.2503
-70.8699
-64.0809
-57.844
-52.1224
-46.8817
-42.0895
-37.7151
-33.7297
-30.1055
-26.8167
-23.8382
-21.1466
-18.7196
-16.536
-14.5759
-12.8204
-11.2519
-9.8538
-8.61058
-7.50778
-6.532
-5.67079
-4.91269
-4.24714
-3.66447
-3.15587
-2.71333
-2.32958
-1.99811
-1.71306
-1.46923
-1.26202
-1.08742
-0.941911
-0.822524
-0.72675
-0.652538
-0.598271
-0.562751
-0.545188
-1827.27
-1780.5
-1694.74
-1582.2
-1455.52
-1325.18
-1198.56
-1080.09
-971.945
-874.765
-788.24
-711.567
-643.729
-583.664
-530.362
-482.908
-440.498
-402.44
-368.145
-337.114
-308.928
-283.238
-259.746
-238.207
-218.411
-200.182
-183.369
-167.846
-153.501
-140.24
-127.979
-116.644
-106.169
-96.496
-87.5704
-79.3432
-71.7691
-64.8057
-58.4134
-52.5549
-47.195
-42.3
-37.8383
-33.7795
-30.0948
-26.7569
-23.7395
-21.018
-18.5689
-16.3699
-14.4001
-12.6397
-11.0703
-9.67454
-8.43626
-7.34043
-6.37316
-5.52158
-4.77388
-4.11923
-3.54775
-3.05044
-2.61917
-2.24662
-1.92622
-1.65214
-1.41921
-1.22291
-1.05933
-0.925102
-0.817419
-0.733976
-0.672958
-0.633019
-0.61327
-1668.43
-1634.64
-1571.53
-1486.51
-1387.82
-1282.96
-1177.77
-1076.29
-980.987
-893.079
-812.945
-740.421
-675.038
-616.178
-563.173
-515.371
-472.164
-433.002
-397.402
-364.943
-335.263
-308.05
-283.039
-260.002
-238.746
-219.104
-200.934
-184.113
-168.532
-154.098
-140.729
-128.349
-116.892
-106.299
-96.5133
-87.4845
-79.1649
-71.5101
-64.478
-58.029
-52.1253
-46.7311
-41.8119
-37.3351
-33.2693
-29.5848
-26.2531
-23.2472
-20.5414
-18.1113
-15.9341
-13.9879
-12.2525
-10.7088
-9.33911
-8.12678
-7.05651
-6.11414
-5.28662
-4.56201
-3.92937
-3.3788
-2.9013
-2.48877
-2.13397
-1.83043
-1.57245
-1.35504
-1.17384
-1.02516
-0.905869
-0.813432
-0.745834
-0.701588
-0.679709
-1542.58
-1517.3
-1469.45
-1403.71
-1325.57
-1240.35
-1152.58
-1065.69
-982.031
-903.065
-829.531
-761.676
-699.42
-642.484
-590.486
-543
-499.597
-459.868
-423.437
-389.964
-359.148
-330.725
-304.464
-280.163
-257.65
-236.773
-217.398
-199.412
-182.711
-167.207
-152.817
-139.471
-127.101
-115.648
-105.056
-95.2727
-86.2493
-77.9398
-70.3005
-63.2899
-56.8681
-50.9971
-45.6405
-40.7633
-36.3322
-32.315
-28.6812
-25.4017
-22.4488
-19.7961
-17.4187
-15.2932
-13.3976
-11.711
-10.2142
-8.88919
-7.71927
-6.689
-5.78417
-4.99177
-4.29987
-3.69766
-3.17532
-2.72401
-2.33583
-2.0037
-1.72141
-1.48349
-1.28519
-1.12246
-0.991903
-0.890728
-0.816739
-0.768308
-0.744359
-1441.14
-1421.65
-1384.42
-1332.48
-1269.57
-1199.52
-1125.77
-1051.14
-977.729
-907.008
-839.881
-776.832
-718.038
-663.469
-612.962
-566.28
-523.15
-483.291
-446.425
-412.294
-380.661
-351.308
-324.045
-298.7
-275.121
-253.176
-232.745
-213.724
-196.018
-179.543
-164.224
-149.989
-136.776
-124.525
-113.181
-102.692
-93.0072
-84.0811
-75.8684
-68.3261
-61.4127
-55.0887
-49.3156
-44.0567
-39.2767
-34.9414
-31.0185
-27.4768
-24.2869
-21.4204
-18.8508
-16.553
-14.503
-12.6789
-11.0597
-9.62604
-8.36
-7.24493
-6.26548
-5.40762
-4.65847
-4.00635
-3.44066
-2.95186
-2.53138
-2.1716
-1.86578
-1.608
-1.39314
-1.21682
-1.07535
-0.965708
-0.885528
-0.833043
-0.807089
-1358.22
-1342.82
-1313.16
-1271.3
-1219.83
-1161.54
-1099.03
-1034.59
-970.025
-906.694
-845.547
-787.187
-731.949
-679.973
-631.259
-585.72
-543.211
-503.56
-466.582
-432.092
-399.914
-369.879
-341.836
-315.644
-291.178
-268.323
-246.976
-227.045
-208.445
-191.099
-174.936
-159.892
-145.905
-132.918
-120.876
-109.729
-99.4274
-89.9235
-81.1719
-73.1286
-65.7512
-58.9984
-52.8306
-47.2092
-42.0973
-37.4591
-33.2605
-29.4686
-26.0522
-22.9813
-20.2277
-17.7646
-15.5668
-13.6107
-11.8739
-10.3359
-8.97751
-7.78088
-6.72964
-5.80876
-5.00448
-4.30429
-3.69683
-3.17188
-2.72026
-2.33381
-2.00528
-1.72835
-1.49751
-1.30806
-1.15604
-1.03823
-0.952073
-0.895673
-0.867783
-1289.68
-1277.23
-1253.1
-1218.73
-1175.97
-1126.85
-1073.37
-1017.35
-960.314
-903.485
-847.777
-793.834
-742.08
-692.764
-646.003
-601.82
-560.175
-520.986
-484.147
-449.541
-417.045
-386.541
-357.913
-331.053
-305.86
-282.24
-260.109
-239.385
-219.996
-201.873
-184.953
-169.174
-154.481
-140.818
-128.134
-116.378
-105.503
-95.4598
-86.2041
-77.6911
-69.8773
-62.7206
-56.1801
-50.216
-44.7898
-39.8643
-35.4038
-31.374
-27.7419
-24.4762
-21.547
-18.9262
-16.5872
-14.5048
-12.6556
-11.0177
-9.57077
-8.29596
-7.17587
-6.19453
-5.33734
-4.59098
-3.9434
-3.38371
-2.90216
-2.49005
-2.13969
-1.84432
-1.5981
-1.39602
-1.23386
-1.10818
-1.01626
-0.956094
-0.926339
-1232.49
-1222.22
-1202.23
-1173.52
-1137.45
-1095.54
-1049.32
-1000.24
-949.573
-898.394
-847.543
-797.664
-749.219
-702.519
-657.762
-615.051
-574.426
-535.879
-499.369
-464.837
-432.211
-401.415
-372.37
-344.996
-319.22
-294.968
-272.171
-250.764
-230.685
-211.875
-194.278
-177.838
-162.504
-148.225
-134.952
-122.636
-111.229
-100.686
-90.9612
-82.0095
-73.7872
-66.2516
-59.3607
-53.0737
-47.351
-42.1541
-37.4458
-33.1905
-29.3538
-25.9031
-22.8071
-20.0363
-17.5627
-15.36
-13.4036
-11.6704
-10.139
-8.78946
-7.60356
-6.5644
-5.65657
-4.86602
-4.18001
-3.58704
-3.07681
-2.64011
-2.2688
-1.95576
-1.69479
-1.48058
-1.30869
-1.17545
-1.07801
-1.01422
-0.982673
-1184.41
-1175.78
-1158.92
-1134.56
-1103.7
-1067.49
-1027.13
-983.77
-938.475
-892.163
-845.6
-799.396
-754.021
-709.822
-667.043
-625.845
-586.328
-548.54
-512.494
-478.182
-445.574
-414.632
-385.31
-357.558
-331.324
-306.556
-283.203
-261.213
-240.536
-221.122
-202.924
-185.893
-169.981
-155.143
-141.332
-128.502
-116.607
-105.602
-95.4416
-86.082
-77.479
-69.5893
-62.3703
-55.7804
-49.779
-44.3265
-39.3847
-34.9166
-30.8866
-27.2608
-24.0068
-21.0937
-18.4925
-16.1756
-14.1172
-12.2933
-10.6815
-9.26083
-8.01221
-6.91793
-5.96181
-5.12909
-4.40639
-3.78165
-3.244
-2.7838
-2.39248
-2.06253
-1.78745
-1.56164
-1.38043
-1.23997
-1.13723
-1.06998
-1.03672
-1143.72
-1136.35
-1121.9
-1100.92
-1074.16
-1042.51
-1006.89
-968.252
-927.468
-885.329
-842.515
-799.594
-757.024
-715.163
-674.285
-634.588
-596.213
-559.252
-523.763
-489.776
-457.3
-426.328
-396.846
-368.828
-342.245
-317.065
-293.252
-270.769
-249.577
-229.637
-210.909
-193.351
-176.922
-161.579
-147.28
-133.981
-121.638
-110.208
-99.6462
-89.909
-80.9525
-72.7333
-65.2083
-58.3354
-52.073
-46.3809
-41.2196
-36.5513
-32.3393
-28.5484
-25.1453
-22.0978
-19.3758
-16.9507
-14.7958
-12.886
-11.1978
-9.70969
-8.40151
-7.25484
-6.25279
-5.37996
-4.62235
-3.96734
-3.40359
-2.921
-2.5106
-2.16454
-1.87599
-1.63912
-1.44902
-1.30166
-1.19387
-1.12331
-1.08842
-1109.11
-1102.72
-1090.15
-1071.83
-1048.32
-1020.32
-988.574
-953.838
-916.844
-878.269
-838.715
-798.7
-758.662
-718.955
-679.867
-641.618
-604.38
-568.277
-533.4
-499.811
-467.55
-436.64
-407.09
-378.9
-352.061
-326.558
-302.37
-279.474
-257.844
-237.448
-218.256
-200.232
-183.341
-167.545
-152.805
-139.08
-126.329
-114.509
-103.578
-93.4929
-84.2095
-75.6848
-67.8755
-60.739
-54.2332
-48.3171
-42.9505
-38.0945
-33.7116
-29.7657
-26.2222
-23.0481
-20.2123
-17.6853
-15.4392
-13.4482
-11.6879
-10.1358
-8.77124
-7.57494
-6.52936
-5.61849
-4.82775
-4.14402
-3.55548
-3.05161
-2.62308
-2.2617
-1.96036
-1.71296
-1.5144
-1.36048
-1.24789
-1.17419
-1.13773
-1079.54
-1073.92
-1062.84
-1046.62
-1025.72
-1000.68
-972.094
-940.592
-906.783
-871.247
-834.514
-797.056
-759.281
-721.535
-684.106
-647.23
-611.095
-575.85
-541.611
-508.466
-476.48
-445.7
-416.158
-387.872
-360.854
-335.103
-310.615
-287.378
-265.376
-244.588
-224.992
-206.558
-189.257
-173.056
-157.919
-143.809
-130.686
-118.512
-107.243
-96.8376
-87.2532
-78.4463
-70.3738
-62.9927
-56.2607
-50.136
-44.5779
-39.5467
-35.004
-30.9128
-27.2377
-23.9449
-21.0022
-18.3792
-16.0473
-13.9797
-12.1514
-10.5391
-9.12133
-7.87816
-6.79145
-5.84461
-5.02254
-4.31162
-3.69962
-3.1756
-2.72989
-2.35399
-2.04051
-1.78314
-1.57656
-1.41642
-1.29927
-1.22258
-1.18465
-1054.18
-1049.17
-1039.27
-1024.75
-1005.95
-983.313
-957.331
-928.517
-897.386
-864.438
-830.141
-794.92
-759.154
-723.176
-687.268
-651.672
-616.588
-582.181
-548.585
-515.909
-484.237
-453.636
-424.158
-395.838
-368.703
-342.77
-318.044
-294.528
-272.215
-251.093
-231.146
-212.354
-194.691
-178.129
-162.636
-148.179
-134.721
-122.224
-110.647
-99.9488
-90.0881
-81.0216
-72.7062
-65.0991
-58.1576
-51.8394
-46.1032
-40.9089
-36.2172
-31.9905
-28.1924
-24.7884
-21.7456
-19.0327
-16.6203
-14.4809
-12.5887
-10.9198
-9.45185
-8.16455
-7.03909
-6.05833
-5.20672
-4.47015
-3.836
-3.29296
-2.83102
-2.4414
-2.11646
-1.84965
-1.63549
-1.46945
-1.348
-1.26847
-1.22915
-1032.37
-1027.84
-1018.9
-1005.74
-988.648
-967.985
-944.151
-917.576
-888.701
-857.957
-825.757
-792.487
-758.497
-724.101
-689.575
-655.159
-621.061
-587.456
-554.492
-522.291
-490.956
-460.569
-431.196
-402.89
-375.691
-349.627
-324.719
-300.977
-278.405
-256.999
-236.751
-217.646
-199.665
-182.783
-166.974
-152.205
-138.445
-125.655
-113.798
-102.833
-92.7199
-83.4154
-74.8769
-67.0616
-59.9265
-53.4294
-47.5283
-42.1826
-37.3525
-32.9997
-29.0871
-25.5795
-22.4432
-19.6463
-17.1586
-14.952
-12.9999
-11.2778
-9.76296
-8.43423
-7.27238
-6.25976
-5.38036
-4.61967
-3.96467
-3.40372
-2.9265
-2.52395
-2.1882
-1.9125
-1.69119
-1.5196
-1.39407
-1.31189
-1.27124
-1013.56
-1009.43
-1001.25
-989.204
-973.511
-954.47
-932.415
-907.713
-880.739
-851.872
-821.478
-789.904
-757.475
-724.487
-691.206
-657.869
-624.685
-591.837
-559.481
-527.751
-496.761
-466.609
-437.372
-409.116
-381.893
-355.743
-330.697
-306.775
-283.99
-262.345
-241.839
-222.463
-204.203
-187.04
-170.949
-155.903
-141.87
-128.817
-116.706
-105.499
-95.1556
-85.6335
-76.8906
-68.8841
-61.5711
-54.909
-48.8557
-43.37
-38.4118
-33.9419
-29.9231
-26.3191
-23.0958
-20.2207
-17.6628
-15.3935
-13.3855
-11.6138
-10.0549
-8.68745
-7.49151
-6.44905
-5.5436
-4.76028
-4.08572
-3.50795
-3.01638
-2.60169
-2.25579
-1.97173
-1.74369
-1.56688
-1.43753
-1.35284
-1.31095
-997.299
-993.492
-985.95
-974.809
-960.264
-942.563
-921.99
-898.856
-873.489
-846.22
-817.377
-787.276
-756.216
-724.475
-692.309
-659.95
-627.606
-595.463
-563.684
-532.41
-501.767
-471.859
-442.778
-414.599
-387.384
-361.183
-336.037
-311.974
-289.015
-267.17
-246.445
-226.835
-208.332
-190.921
-174.581
-159.287
-145.011
-131.721
-119.382
-107.956
-97.4027
-87.6825
-78.753
-70.5715
-63.0953
-56.2816
-50.0883
-44.4736
-39.397
-34.819
-30.7017
-27.0086
-23.7046
-20.7568
-18.1337
-15.806
-13.7459
-11.928
-10.3282
-8.9245
-7.69675
-6.6264
-5.69661
-4.89214
-4.19928
-3.60577
-3.10076
-2.6747
-2.31928
-2.02739
-1.79304
-1.61134
-1.4784
-1.39135
-1.3483
-983.227
-979.685
-972.66
-962.267
-948.671
-932.083
-912.745
-890.929
-866.921
-841.015
-813.505
-784.679
-754.816
-724.176
-693.004
-661.526
-629.948
-598.456
-567.217
-536.379
-506.073
-476.414
-447.5
-419.416
-392.233
-366.01
-340.795
-316.623
-293.523
-271.513
-250.601
-230.791
-212.077
-194.449
-177.889
-162.376
-147.884
-134.381
-121.836
-110.212
-99.4696
-89.5695
-80.4701
-72.1291
-64.5037
-57.5512
-51.2293
-45.4961
-40.3106
-35.633
-31.4249
-27.6493
-24.2707
-21.2556
-18.5721
-16.1902
-14.0819
-12.221
-10.5831
-9.1458
-7.88843
-6.79211
-5.83963
-5.01543
-4.3055
-3.6973
-3.17975
-2.74306
-2.37875
-2.07954
-1.8393
-1.65302
-1.51672
-1.42748
-1.38334
-971.03
-967.706
-961.108
-951.333
-938.525
-922.864
-904.562
-883.855
-860.998
-836.254
-809.889
-782.168
-753.348
-723.676
-693.387
-662.699
-631.814
-600.918
-570.18
-539.752
-509.771
-480.357
-451.616
-423.639
-396.506
-370.282
-345.022
-320.77
-297.558
-275.411
-254.343
-234.361
-215.465
-197.647
-180.894
-165.187
-150.502
-136.81
-124.081
-112.278
-101.365
-91.3021
-82.0486
-73.5625
-65.8012
-58.722
-52.2825
-46.4407
-41.1553
-36.3862
-32.0946
-28.243
-24.7957
-21.7185
-18.9791
-16.5472
-14.3942
-12.4935
-10.8203
-9.35178
-8.06693
-6.94648
-5.97293
-5.13039
-4.40457
-3.78272
-3.25348
-2.8069
-2.43431
-2.12827
-1.88254
-1.69199
-1.55257
-1.46127
-1.41612
-960.449
-957.305
-951.06
-941.8
-929.647
-914.761
-897.328
-877.558
-855.678
-831.925
-806.543
-779.777
-751.866
-723.044
-693.536
-663.551
-633.29
-602.937
-572.66
-542.614
-512.941
-483.764
-455.196
-427.334
-400.263
-374.055
-348.771
-324.459
-301.159
-278.9
-257.701
-237.573
-218.52
-200.538
-183.616
-167.738
-152.882
-139.021
-126.127
-114.165
-103.098
-92.8883
-83.4954
-74.8778
-66.993
-59.7985
-53.2518
-47.3108
-41.9341
-37.0812
-32.7129
-28.7916
-25.2811
-22.1467
-19.3559
-16.8779
-14.6836
-12.7461
-11.0403
-9.54296
-8.23267
-7.0899
-6.09681
-5.23727
-4.49673
-3.86219
-3.32211
-2.86634
-2.48606
-2.17368
-1.92285
-1.72833
-1.586
-1.4928
-1.4467
-951.261
-948.267
-942.317
-933.485
-921.881
-907.645
-890.943
-871.964
-850.913
-828.007
-803.47
-777.529
-750.409
-722.331
-693.511
-664.153
-634.45
-604.587
-574.731
-545.039
-515.654
-486.704
-458.306
-430.561
-403.56
-377.38
-352.086
-327.734
-304.366
-282.016
-260.708
-240.456
-221.269
-203.144
-186.074
-170.046
-155.039
-141.029
-127.988
-115.883
-104.678
-94.3363
-84.8178
-76.0812
-68.0846
-60.7855
-54.1413
-48.11
-42.6499
-37.7205
-33.2822
-29.2971
-25.7285
-22.5418
-19.7038
-17.1833
-14.9511
-12.9798
-11.2439
-9.7199
-8.38615
-7.22275
-6.21163
-5.33637
-4.58221
-3.93594
-3.38582
-2.92155
-2.53413
-2.21589
-1.96032
-1.76212
-1.61709
-1.52212
-1.47515
-943.281
-940.412
-934.707
-926.234
-915.089
-901.4
-885.315
-867.006
-846.66
-824.478
-800.666
-775.437
-749.003
-721.576
-693.361
-664.557
-635.354
-605.931
-576.458
-547.09
-517.972
-489.236
-461.001
-433.373
-406.447
-380.303
-355.013
-330.634
-307.214
-284.791
-263.393
-243.038
-223.735
-205.487
-188.289
-172.129
-156.989
-142.847
-129.675
-117.442
-106.115
-95.6544
-86.0228
-77.1791
-69.0815
-61.6877
-54.9552
-48.8419
-43.3061
-38.3069
-33.8048
-29.7614
-26.1399
-22.9052
-20.0239
-17.4646
-15.1975
-13.1952
-11.4317
-9.88321
-8.52786
-7.34548
-6.31773
-5.42799
-4.66127
-4.00417
-3.4448
-2.97267
-2.57867
-2.25499
-1.99505
-1.79346
-1.64593
-1.54933
-1.50155
-936.347
-933.582
-928.083
-919.91
-909.152
-895.923
-880.359
-862.619
-842.874
-821.309
-798.12
-773.506
-747.668
-720.809
-693.125
-664.81
-636.05
-607.023
-577.894
-548.821
-519.95
-491.414
-463.334
-435.821
-408.971
-382.87
-357.591
-333.197
-309.739
-287.258
-265.786
-245.343
-225.942
-207.588
-190.278
-174.003
-158.747
-144.488
-131.2
-118.855
-107.417
-96.8509
-87.118
-78.178
-69.9894
-62.5102
-55.6979
-49.5103
-43.9058
-38.8433
-34.2832
-30.1867
-26.517
-23.2385
-20.3178
-17.7229
-15.424
-13.3932
-11.6044
-10.0335
-8.65834
-7.45854
-6.41552
-5.51246
-4.7342
-4.06714
-3.49924
-3.01987
-2.61981
-2.29114
-2.02717
-1.82243
-1.67261
-1.5745
-1.52597
-930.321
-927.644
-922.318
-914.398
-903.965
-891.124
-876.002
-858.744
-839.51
-818.475
-795.821
-771.737
-746.415
-720.05
-692.831
-664.948
-636.581
-607.905
-579.086
-550.281
-521.636
-493.284
-465.351
-437.947
-411.173
-385.118
-359.857
-335.457
-311.972
-289.446
-267.913
-247.396
-227.912
-209.468
-192.061
-175.686
-160.327
-145.966
-132.576
-120.13
-108.595
-97.934
-88.1106
-79.0843
-70.814
-63.2579
-56.3736
-50.1191
-44.4524
-39.3327
-34.7199
-30.5753
-26.8617
-23.5434
-20.5867
-17.9595
-15.6315
-13.5748
-11.7628
-10.1714
-8.77815
-7.56239
-6.50539
-5.59013
-4.80128
-4.12508
-3.54936
-3.06335
-2.65772
-2.32445
-2.05677
-1.84916
-1.69722
-1.59772
-1.54851
-925.086
-922.482
-917.302
-909.595
-899.436
-886.924
-872.176
-855.327
-836.53
-815.947
-793.752
-770.125
-745.251
-719.315
-692.503
-664.998
-636.979
-608.616
-580.075
-551.511
-523.07
-494.888
-467.091
-439.791
-413.092
-387.084
-361.846
-337.446
-313.943
-291.382
-269.799
-249.222
-229.667
-211.145
-193.655
-177.193
-161.745
-147.293
-133.814
-121.279
-109.656
-98.9119
-89.0077
-79.9043
-71.5608
-63.9358
-56.9868
-50.6719
-44.9493
-39.7778
-35.1174
-30.9292
-27.1759
-23.8216
-20.8322
-18.1755
-15.8212
-13.7408
-11.9078
-10.2977
-8.88786
-7.65754
-6.58776
-5.66135
-4.86281
-4.17826
-3.59537
-3.10328
-2.69255
-2.35506
-2.08399
-1.87374
-1.71986
-1.61909
-1.56924
-920.538
-917.996
-912.938
-905.411
-895.484
-883.25
-868.819
-852.32
-833.894
-813.698
-791.898
-768.665
-744.177
-718.615
-692.158
-664.985
-637.271
-609.186
-580.892
-552.544
-524.289
-496.262
-468.59
-441.388
-414.76
-388.8
-363.587
-339.194
-315.678
-293.09
-271.468
-250.84
-231.227
-212.638
-195.077
-178.539
-163.013
-148.482
-134.924
-122.311
-110.612
-99.7925
-89.8164
-80.6442
-72.2355
-64.5486
-57.5417
-51.1727
-45.3997
-40.1816
-35.4783
-31.2508
-27.4616
-24.0746
-21.0557
-18.3723
-15.994
-13.8921
-12.04
-10.4129
-8.98805
-7.74446
-6.66305
-5.72648
-4.9191
-4.22692
-3.63749
-3.13985
-2.72446
-2.38313
-2.10895
-1.89628
-1.74064
-1.6387
-1.58828
-916.588
-914.1
-909.145
-901.769
-892.039
-880.041
-865.879
-849.676
-831.568
-811.704
-790.241
-767.348
-743.194
-717.956
-691.808
-664.926
-637.481
-609.641
-581.566
-553.412
-525.323
-497.437
-469.881
-442.769
-416.209
-390.295
-365.109
-340.725
-317.204
-294.596
-272.942
-252.273
-232.609
-213.964
-196.341
-179.738
-164.145
-149.545
-135.917
-123.235
-111.468
-100.583
-90.5434
-81.3101
-72.8432
-65.1013
-58.0426
-51.625
-45.8068
-40.5469
-35.8051
-31.5422
-27.7206
-24.3042
-21.2585
-18.5511
-16.1511
-14.0298
-12.1603
-10.5178
-9.07929
-7.82366
-6.73168
-5.78586
-4.97046
-4.27134
-3.67596
-3.17326
-2.75362
-2.40878
-2.13178
-1.91691
-1.75964
-1.65665
-1.6057
-913.161
-910.716
-905.849
-898.602
-889.038
-877.24
-863.307
-847.357
-829.52
-809.939
-788.767
-766.165
-742.3
-717.343
-691.464
-664.836
-637.627
-610.002
-582.122
-554.14
-526.201
-498.441
-470.989
-443.962
-417.465
-391.596
-366.438
-342.066
-318.542
-295.92
-274.241
-253.537
-233.832
-215.139
-197.464
-180.804
-165.152
-150.492
-136.804
-124.061
-112.235
-101.292
-91.1954
-81.9079
-73.3892
-65.5983
-58.4933
-52.0325
-46.1739
-40.8766
-36.1001
-31.8054
-27.9548
-24.5118
-21.4422
-18.713
-16.2934
-14.1546
-12.2695
-10.613
-9.16215
-7.89562
-6.79406
-5.83987
-5.01718
-4.31177
-3.71098
-3.20369
-2.7802
-2.43217
-2.1526
-1.93572
-1.77699
-1.67303
-1.6216
-910.188
-907.781
-902.988
-895.85
-886.427
-874.798
-861.06
-845.325
-827.719
-808.381
-787.458
-765.107
-741.492
-716.777
-691.132
-664.725
-637.722
-610.287
-582.579
-554.749
-526.943
-499.298
-471.941
-444.99
-418.552
-392.725
-367.595
-343.236
-319.714
-297.082
-275.383
-254.651
-234.911
-216.177
-198.457
-181.75
-166.047
-151.335
-137.593
-124.798
-112.919
-101.925
-91.7785
-82.4431
-73.8786
-66.0441
-58.898
-52.3986
-46.504
-41.1732
-36.3658
-32.0427
-28.1659
-24.6992
-21.608
-18.8593
-16.4221
-14.2675
-12.3682
-10.6992
-9.23721
-7.96084
-6.85062
-5.88886
-5.05958
-4.34847
-3.74279
-3.23134
-2.80435
-2.45344
-2.17154
-1.95284
-1.79278
-1.68794
-1.63608
-907.611
-905.236
-900.506
-893.46
-884.156
-872.672
-859.099
-843.548
-826.139
-807.008
-786.299
-764.165
-740.763
-716.259
-690.816
-664.601
-637.779
-610.51
-582.953
-555.258
-527.571
-500.028
-472.757
-445.875
-419.492
-393.705
-368.601
-344.257
-320.738
-298.099
-276.385
-255.631
-235.861
-217.094
-199.335
-182.586
-166.84
-152.082
-138.295
-125.453
-113.528
-102.489
-92.2988
-82.9211
-74.316
-66.443
-59.2604
-52.7267
-46.8001
-41.4394
-36.6045
-32.2559
-28.3559
-24.8679
-21.7573
-18.991
-16.5381
-14.3693
-12.4574
-10.7771
-9.30501
-8.01977
-6.90176
-5.93318
-5.09795
-4.3817
-3.77161
-3.2564
-2.82625
-2.47273
-2.18871
-1.96838
-1.80711
-1.70148
-1.64923
-905.38
-903.031
-898.354
-891.386
-882.184
-870.822
-857.391
-841.996
-824.756
-805.802
-785.276
-763.327
-740.111
-715.787
-690.52
-664.472
-637.807
-610.684
-583.259
-555.684
-528.102
-500.649
-473.455
-446.636
-420.303
-394.553
-369.475
-345.145
-321.631
-298.988
-277.262
-256.49
-236.697
-217.9
-200.109
-183.325
-167.54
-152.744
-138.916
-126.034
-114.069
-102.99
-92.7618
-83.3468
-74.706
-66.7989
-59.5841
-53.0199
-47.0649
-41.6778
-36.8182
-32.4471
-28.5262
-25.0193
-21.8914
-19.1095
-16.6424
-14.4609
-12.5376
-10.8471
-9.36609
-8.0729
-6.94788
-5.97315
-5.13259
-4.4117
-3.79763
-3.27904
-2.84605
-2.49017
-2.20425
-1.98244
-1.82008
-1.71374
-1.66113
-903.449
-901.123
-896.491
-889.59
-880.474
-869.216
-855.904
-840.642
-823.546
-804.744
-784.375
-762.585
-739.528
-715.361
-690.245
-664.343
-637.814
-610.818
-583.509
-556.038
-528.549
-501.178
-474.051
-447.29
-421.002
-395.286
-370.232
-345.917
-322.408
-299.764
-278.029
-257.242
-237.429
-218.608
-200.79
-183.975
-168.158
-153.328
-139.465
-126.548
-114.549
-103.435
-93.1728
-83.7251
-75.0528
-67.1157
-59.8724
-53.2814
-47.3011
-41.8905
-37.0093
-32.618
-28.6786
-25.1548
-22.0115
-19.2156
-16.736
-14.5431
-12.6096
-10.9101
-9.42098
-8.12066
-6.98936
-6.00913
-5.16376
-4.43872
-3.82108
-3.29945
-2.86389
-2.5059
-2.21828
-1.99513
-1.83179
-1.72481
-1.67188
-901.78
-899.474
-894.88
-888.035
-878.992
-867.823
-854.613
-839.464
-822.491
-803.818
-783.583
-761.93
-739.009
-714.977
-689.993
-664.215
-637.805
-610.919
-583.713
-556.334
-528.926
-501.626
-474.561
-447.85
-421.603
-395.918
-370.887
-346.586
-323.084
-300.439
-278.698
-257.899
-238.07
-219.229
-201.387
-184.546
-168.702
-153.842
-139.95
-127.002
-114.972
-103.828
-93.5367
-84.0604
-75.3605
-67.397
-60.1286
-53.5139
-47.5114
-42.0801
-37.1795
-32.7704
-28.8147
-25.2758
-22.1188
-19.3105
-16.8196
-14.6166
-12.6741
-10.9665
-9.47017
-8.16348
-7.02656
-6.04141
-5.19175
-4.46299
-3.84215
-3.31779
-2.87995
-2.52005
-2.2309
-2.00655
-1.84234
-1.73478
-1.68157
-900.339
-898.049
-893.488
-886.69
-877.71
-866.615
-853.492
-838.44
-821.571
-803.009
-782.889
-761.353
-738.55
-714.634
-689.762
-664.093
-637.786
-610.996
-583.878
-556.579
-529.244
-502.006
-474.995
-448.33
-422.119
-396.463
-371.452
-347.165
-323.67
-301.026
-279.28
-258.472
-238.63
-219.772
-201.91
-185.047
-169.179
-154.294
-140.376
-127.402
-115.346
-104.176
-93.8582
-84.3568
-75.6328
-67.6461
-60.3557
-53.7201
-47.6981
-42.2484
-37.3308
-32.9059
-28.9357
-25.3835
-22.2144
-19.3951
-16.8942
-14.6823
-12.7317
-11.0169
-9.51414
-8.20177
-7.05985
-6.0703
-5.21681
-4.48473
-3.86103
-3.33424
-2.89434
-2.53275
-2.24222
-2.01681
-1.85181
-1.74373
-1.69027
-899.096
-896.82
-892.286
-885.529
-876.601
-865.571
-852.522
-837.552
-820.772
-802.304
-782.282
-760.846
-738.144
-714.327
-689.553
-663.978
-637.759
-611.053
-584.012
-556.783
-529.511
-502.329
-475.365
-448.74
-422.562
-396.932
-371.94
-347.665
-324.177
-301.535
-279.786
-258.971
-239.117
-220.245
-202.367
-185.486
-169.597
-154.691
-140.75
-127.754
-115.674
-104.481
-94.1415
-84.6183
-75.8732
-67.8662
-60.5564
-53.9026
-47.8633
-42.3975
-37.4649
-33.0262
-29.0432
-25.4793
-22.2994
-19.4704
-16.9606
-14.7407
-12.783
-11.0618
-9.55334
-8.23592
-7.08955
-6.0961
-5.23919
-4.50415
-3.87791
-3.34894
-2.90722
-2.54412
-2.25237
-2.026
-1.86029
-1.75176
-1.69806
-898.026
-895.762
-891.251
-884.528
-875.645
-864.669
-851.682
-836.782
-820.078
-801.691
-781.753
-760.402
-737.786
-714.055
-689.364
-663.87
-637.728
-611.094
-584.12
-556.953
-529.735
-502.601
-475.68
-449.09
-422.941
-397.335
-372.36
-348.097
-324.616
-301.975
-280.225
-259.404
-239.541
-220.658
-202.766
-185.868
-169.962
-155.038
-141.078
-128.062
-115.962
-104.75
-94.3906
-84.8484
-76.0848
-68.0601
-60.7335
-54.0637
-48.0093
-42.5294
-37.5836
-33.1326
-29.1383
-25.5641
-22.3748
-19.5371
-17.0196
-14.7926
-12.8285
-11.1017
-9.5882
-8.26631
-7.11598
-6.11906
-5.25913
-4.52146
-3.89295
-3.36206
-2.91871
-2.55426
-2.26142
-2.0342
-1.86787
-1.75892
-1.70503
-897.105
-894.851
-890.36
-883.666
-874.821
-863.891
-850.957
-836.116
-819.477
-801.159
-781.292
-760.014
-737.472
-713.814
-689.195
-663.77
-637.695
-611.123
-584.207
-557.092
-529.922
-502.831
-475.947
-449.388
-423.266
-397.68
-372.721
-348.469
-324.994
-302.356
-280.605
-259.779
-239.909
-221.016
-203.112
-186.202
-170.281
-155.341
-141.364
-128.331
-116.215
-104.985
-94.6091
-85.0503
-76.2707
-68.2306
-60.8893
-54.2055
-48.1379
-42.6456
-37.6883
-33.2266
-29.2224
-25.639
-22.4414
-19.5961
-17.0717
-14.8386
-12.8689
-11.137
-9.61911
-8.29326
-7.13945
-6.13946
-5.27684
-4.53685
-3.90633
-3.37372
-2.92893
-2.56329
-2.26948
-2.04151
-1.87463
-1.76531
-1.71124
-896.314
-894.068
-889.594
-882.925
-874.112
-863.22
-850.332
-835.542
-818.957
-800.697
-780.891
-759.676
-737.197
-713.602
-689.044
-663.679
-637.661
-611.143
-584.276
-557.208
-530.08
-503.026
-476.173
-449.642
-423.543
-397.975
-373.03
-348.788
-325.32
-302.685
-280.933
-260.104
-240.228
-221.327
-203.413
-186.491
-170.558
-155.604
-141.614
-128.566
-116.435
-105.191
-94.8002
-85.2272
-76.4337
-68.3802
-61.026
-54.33
-48.2509
-42.7478
-37.7804
-33.3093
-29.2964
-25.7051
-22.5001
-19.6482
-17.1178
-14.8791
-12.9046
-11.1683
-9.64646