/*--------------------------------*- C++ -*----------------------------------*\
  =========                 |
  \\      /  F ield         | OpenFOAM: The Open Source CFD Toolbox
   \\    /   O peration     | Website:  https://openfoam.org
    \\  /    A nd           | Version:  10
     \\/     M anipulation  |
\*---------------------------------------------------------------------------*/
FoamFile
{
    format      ascii;
    class       volScalarField;
    location    "384";
    object      gradTz;
}
// * * * * * * * * * * * * * * * * * * * * * * * * * * * * * * * * * * * * * //

dimensions      [0 -1 0 1 0 0 0];

internalField   nonuniform List<scalar> 
11250
(
-14344.7
-4140.26
-1520.2
-716.981
-412.698
-271.571
-194.732
-147.78
-116.629
-94.6605
-78.4157
-65.9396
-56.0577
-48.0311
-41.3768
-35.7688
-30.9816
-26.8543
-23.2703
-20.1423
-17.4037
-15.0022
-12.8957
-11.0495
-9.43427
-8.02451
-6.79786
-5.73433
-4.8159
-4.02617
-3.35022
-2.77444
-2.28643
-1.87493
-1.52978
-1.24184
-1.00293
-0.805791
-0.644035
-0.512053
-0.404974
-0.318593
-0.249306
-0.194047
-0.15023
-0.115684
-0.0886041
-0.0674984
-0.0511435
-0.0385427
-0.0288899
-0.0215379
-0.0159702
-0.0117779
-0.00863927
-0.00630286
-0.00457351
-0.00330077
-0.00236938
-0.00169165
-0.00120128
-0.000848469
-0.000596064
-0.000416505
-0.000289488
-0.000200149
-0.000137673
-9.42465e-05
-6.42583e-05
-4.37124e-05
-2.97875e-05
-2.05164e-05
-1.45551e-05
-1.10199e-05
-9.37747e-06
-8238.13
-4836.18
-2743.56
-1651.79
-1074.74
-750.245
-554.147
-427.402
-340.593
-278.169
-231.416
-195.186
-166.304
-142.729
-123.112
-106.533
-92.3475
-80.0963
-69.4424
-60.1334
-51.9757
-44.8168
-38.5336
-33.0241
-28.2016
-23.9912
-20.3266
-17.1485
-14.4034
-12.0426
-10.0216
-8.29984
-6.84037
-5.60961
-4.57719
-3.71582
-3.00108
-2.41128
-1.9273
-1.53239
-1.21198
-0.953487
-0.746142
-0.580774
-0.44964
-0.346251
-0.265203
-0.202035
-0.153084
-0.115369
-0.0864765
-0.0644703
-0.0478049
-0.0352562
-0.0258613
-0.0188675
-0.0136909
-0.00988099
-0.0070929
-0.00506411
-0.00359616
-0.00254001
-0.00178441
-0.00124688
-0.00086664
-0.000599189
-0.000412158
-0.00028215
-0.000192374
-0.000130866
-8.91777e-05
-6.14221e-05
-4.35754e-05
-3.2992e-05
-2.8075e-05
-5532.83
-4222.09
-2965.38
-2071.23
-1483.62
-1099.98
-843.729
-666.677
-539.834
-445.744
-373.703
-316.972
-271.198
-233.493
-201.896
-175.043
-151.968
-131.97
-114.531
-99.2602
-85.8537
-74.0714
-63.7178
-54.6301
-46.6692
-39.7138
-33.6566
-28.401
-23.8595
-19.9523
-16.6065
-13.7554
-11.3381
-9.2991
-7.58844
-6.16095
-4.9763
-3.99862
-3.19626
-2.54149
-2.0102
-1.58155
-1.23769
-0.963422
-0.745921
-0.574427
-0.439986
-0.335197
-0.253991
-0.19142
-0.143486
-0.106975
-0.0793243
-0.0585031
-0.0429143
-0.0313095
-0.0227196
-0.0163975
-0.0117709
-0.00840416
-0.00596811
-0.00421541
-0.00296145
-0.00206938
-0.00143833
-0.000994466
-0.00068406
-0.000468292
-0.000319292
-0.000217205
-0.000148015
-0.000101948
-7.23269e-05
-5.47609e-05
-4.66e-05
-4137.08
-3552.78
-2823.51
-2183.05
-1687.54
-1321.43
-1053.31
-855.061
-705.758
-590.834
-500.366
-427.611
-367.952
-318.19
-276.077
-240.009
-208.824
-181.665
-157.887
-136.999
-118.613
-102.421
-88.1674
-75.6384
-64.6496
-55.0392
-46.6627
-39.3896
-33.1009
-27.6877
-23.0502
-19.0968
-15.7437
-12.9146
-10.5404
-8.55879
-6.91393
-5.55619
-4.44174
-3.53216
-2.79401
-2.1984
-1.72054
-1.33937
-1.03706
-0.798675
-0.611782
-0.466101
-0.353197
-0.266199
-0.199548
-0.148777
-0.110325
-0.0813695
-0.0596895
-0.0435496
-0.0316025
-0.0228092
-0.0163739
-0.0116909
-0.00830232
-0.00586423
-0.00411989
-0.00287892
-0.00200104
-0.00138355
-0.000951712
-0.00065153
-0.000444235
-0.000302205
-0.000205941
-0.000141848
-0.000100635
-7.61953e-05
-6.48407e-05
-3323.97
-3026.82
-2591.26
-2148.45
-1760.66
-1443.64
-1191.92
-993.547
-836.521
-710.858
-608.881
-524.89
-454.71
-395.293
-344.41
-300.417
-262.09
-228.507
-198.959
-172.898
-149.884
-129.561
-111.632
-95.8426
-81.9733
-69.8281
-59.2307
-50.0207
-42.051
-35.1862
-29.3017
-24.2826
-20.0238
-16.4292
-13.4115
-10.892
-8.80018
-7.07306
-5.65512
-4.49762
-3.5581
-2.79989
-2.1915
-1.70614
-1.32115
-1.01754
-0.779487
-0.593909
-0.450074
-0.339232
-0.254308
-0.189614
-0.140614
-0.103714
-0.0760834
-0.0555128
-0.0402852
-0.0290769
-0.0208739
-0.0149044
-0.0105847
-0.00747657
-0.00525277
-0.00367065
-0.00255141
-0.00176412
-0.00121352
-0.000830781
-0.000566465
-0.000385363
-0.000262616
-0.000180888
-0.000128335
-9.71696e-05
-8.26905e-05
-2805.89
-2637.2
-2364.26
-2056.91
-1761.26
-1498.95
-1275.75
-1089.47
-934.922
-806.417
-698.856
-608.022
-530.577
-463.933
-406.105
-355.573
-311.169
-271.987
-237.318
-206.596
-179.363
-155.238
-133.899
-115.066
-98.4937
-83.9588
-71.2599
-60.2113
-50.6415
-42.3919
-35.3152
-29.2757
-24.1482
-19.8184
-16.1821
-13.145
-10.6225
-8.53925
-6.82849
-5.43163
-4.29759
-3.38222
-2.6476
-2.06144
-1.59644
-1.22968
-0.942076
-0.717847
-0.544036
-0.410082
-0.307441
-0.229244
-0.170013
-0.125404
-0.0919998
-0.0671291
-0.0487172
-0.0351645
-0.0252451
-0.0180261
-0.0128022
-0.00904318
-0.00635362
-0.00444006
-0.0030863
-0.00213402
-0.00146802
-0.00100503
-0.000685294
-0.000466214
-0.000317721
-0.000218849
-0.000155271
-0.000117567
-0.00010005
-2453.93
-2349.32
-2169.24
-1951.38
-1726.38
-1513.21
-1320.96
-1152.21
-1006.07
-880.091
-771.432
-677.358
-595.489
-523.842
-460.809
-405.104
-355.699
-311.773
-272.664
-237.83
-206.821
-179.255
-154.802
-133.168
-114.091
-97.3307
-82.6661
-69.8913
-58.8144
-49.2567
-41.0514
-34.0437
-28.0907
-23.061
-18.8349
-15.3037
-12.3698
-9.94591
-7.95484
-6.32866
-5.00813
-3.94199
-3.08621
-2.40324
-1.86135
-1.43389
-1.09863
-0.837216
-0.634557
-0.478354
-0.358651
-0.267448
-0.198359
-0.146322
-0.107352
-0.0783352
-0.0568528
-0.0410388
-0.0294637
-0.0210394
-0.0149428
-0.0105557
-0.00741656
-0.00518306
-0.00360289
-0.00249129
-0.00171384
-0.00117336
-0.000800095
-0.000544329
-0.000370966
-0.000255532
-0.000181303
-0.000137281
-0.000116829
-2203.6
-2133.95
-2009.16
-1850.31
-1677.16
-1504.3
-1340.65
-1190.62
-1055.63
-935.351
-828.636
-734.013
-649.999
-575.236
-508.543
-448.92
-395.535
-347.697
-304.826
-266.436
-232.108
-201.477
-174.219
-150.041
-128.674
-109.866
-93.3831
-79.0047
-66.5228
-55.7416
-46.4778
-38.5599
-31.8292
-26.139
-21.3554
-17.3565
-14.0326
-11.2855
-9.02815
-7.18395
-5.68597
-4.47627
-3.50502
-2.72976
-2.11452
-1.62911
-1.24835
-0.951408
-0.721177
-0.543701
-0.407681
-0.304034
-0.225511
-0.166362
-0.122063
-0.0890756
-0.0646516
-0.0466709
-0.033509
-0.0239292
-0.016996
-0.0120067
-0.0084364
-0.00589601
-0.00409864
-0.00283419
-0.0019498
-0.00133496
-0.000910313
-0.000619334
-0.000422096
-0.000290761
-0.000206304
-0.000156217
-0.000132946
-2019.52
-1970.37
-1879.92
-1760.47
-1624.8
-1483.59
-1344.44
-1212.05
-1088.86
-975.797
-872.852
-779.517
-695.055
-618.675
-549.611
-487.165
-430.722
-379.741
-333.752
-292.343
-255.145
-221.824
-192.077
-165.618
-142.18
-121.509
-103.363
-87.5104
-73.7313
-61.8168
-51.5693
-42.8035
-35.3464
-29.0382
-23.7319
-19.2938
-15.6032
-12.5518
-10.0435
-7.99358
-6.32802
-4.98261
-3.90215
-3.03951
-2.3548
-1.81447
-1.39055
-1.05991
-0.80351
-0.605833
-0.454312
-0.33884
-0.251348
-0.185437
-0.136068
-0.0993029
-0.0720793
-0.052036
-0.0373633
-0.0266831
-0.018953
-0.0133898
-0.00940868
-0.00657581
-0.0045714
-0.00316123
-0.00217488
-0.00148911
-0.00101547
-0.000690902
-0.000470888
-0.000324383
-0.000230168
-0.000174292
-0.000148332
-1880.77
-1844.36
-1776.07
-1683.42
-1574.81
-1457.95
-1338.93
-1222.09
-1110.17
-1004.73
-906.462
-815.539
-731.802
-654.925
-584.514
-520.154
-461.445
-408.007
-359.489
-315.562
-275.92
-240.273
-208.344
-179.865
-154.577
-132.229
-112.576
-95.3817
-80.4166
-67.4617
-56.3084
-46.7594
-38.6298
-31.748
-25.9557
-21.1086
-17.0759
-13.7402
-10.9971
-8.75454
-6.93187
-5.45913
-4.2761
-3.33134
-2.58128
-1.98926
-1.52472
-1.16232
-0.881244
-0.664515
-0.498368
-0.371734
-0.275772
-0.203474
-0.149315
-0.108979
-0.079108
-0.0571141
-0.0410121
-0.0292906
-0.0208063
-0.0146999
-0.0103298
-0.00721993
-0.00501941
-0.0034712
-0.00238823
-0.00163526
-0.00111517
-0.000758767
-0.000517162
-0.000356273
-0.000252806
-0.000191441
-0.00016293
-1774.25
-1746.11
-1692.62
-1618.55
-1529.59
-1431.3
-1328.45
-1224.8
-1123.02
-1024.94
-931.632
-843.712
-761.436
-684.849
-613.862
-548.313
-487.997
-432.691
-382.161
-336.17
-294.479
-256.845
-223.027
-192.778
-165.856
-142.014
-121.01
-102.606
-86.5663
-72.6651
-60.6849
-50.4187
-41.6716
-34.2618
-28.0213
-22.7961
-18.4466
-14.8474
-11.8863
-9.46468
-7.49581
-5.90445
-4.62578
-3.6044
-2.79331
-2.15299
-1.65044
-1.25832
-0.954149
-0.719573
-0.539717
-0.402617
-0.298712
-0.220419
-0.161764
-0.118074
-0.0857164
-0.0618896
-0.0444442
-0.0317438
-0.0225503
-0.0159329
-0.0111969
-0.00782638
-0.0054413
-0.00376313
-0.0025892
-0.00177294
-0.00120912
-0.000822721
-0.000560775
-0.000386333
-0.000274148
-0.00020761
-0.000176696
-1691.32
-1668.76
-1625.43
-1564.5
-1489.92
-1405.76
-1315.74
-1223.01
-1130.05
-1038.69
-950.225
-865.516
-785.11
-709.324
-638.315
-572.128
-510.733
-454.048
-401.952
-354.297
-310.91
-271.601
-236.165
-204.384
-176.031
-150.872
-128.668
-109.183
-92.1785
-77.424
-64.6953
-53.7778
-44.4683
-36.5764
-29.9256
-24.3538
-19.7134
-15.8715
-12.7096
-10.1228
-8.01881
-6.31775
-4.95054
-3.85815
-2.99046
-2.30531
-1.76746
-1.34772
-1.02207
-0.770889
-0.578272
-0.431423
-0.320116
-0.236234
-0.173386
-0.126567
-0.0918899
-0.0663519
-0.047652
-0.0340372
-0.024181
-0.0170862
-0.012008
-0.0083938
-0.00583609
-0.00403637
-0.00277733
-0.00190185
-0.00129709
-0.000882616
-0.000601625
-0.000414494
-0.000294144
-0.000222762
-0.000189596
-1626.07
-1607.38
-1571.19
-1519.72
-1455.77
-1382.37
-1302.47
-1218.67
-1133.18
-1047.76
-963.779
-882.239
-803.871
-729.186
-658.527
-592.107
-530.042
-472.374
-419.085
-370.108
-325.336
-284.631
-247.825
-214.729
-185.137
-158.826
-135.567
-115.124
-97.2608
-81.7433
-68.3426
-56.8383
-47.0206
-38.692
-31.6687
-25.7813
-20.8756
-16.8122
-13.4666
-10.7283
-8.50049
-6.69869
-5.25009
-4.09235
-3.17254
-2.44606
-1.87566
-1.43043
-1.08493
-0.818403
-0.613985
-0.458117
-0.339957
-0.250901
-0.184168
-0.134449
-0.0976201
-0.070495
-0.0506312
-0.0361677
-0.0256962
-0.018158
-0.012762
-0.00892135
-0.00620323
-0.0042905
-0.00295234
-0.00202179
-0.00137895
-0.000938362
-0.000639652
-0.000440713
-0.000312763
-0.000236872
-0.000201611
-1574.32
-1558.37
-1527.33
-1482.76
-1426.73
-1361.57
-1289.61
-1213.03
-1133.78
-1053.49
-973.527
-894.962
-818.637
-745.197
-675.118
-608.747
-546.32
-487.981
-433.802
-383.791
-337.903
-296.046
-258.092
-223.88
-193.223
-165.914
-141.734
-120.45
-101.829
-85.6343
-71.6351
-59.6064
-49.3331
-40.6118
-33.2527
-27.0803
-21.9345
-17.6702
-14.1577
-11.2818
-8.94108
-7.04742
-5.52452
-4.30707
-3.33958
-2.57527
-1.97504
-1.50643
-1.14273
-0.862111
-0.646852
-0.482694
-0.358232
-0.264415
-0.194105
-0.141716
-0.102905
-0.0743172
-0.0533804
-0.0381342
-0.0270952
-0.0191478
-0.0134585
-0.00940877
-0.0065425
-0.00452541
-0.00311413
-0.00213269
-0.00145466
-0.000989926
-0.000674832
-0.000464972
-0.000329995
-0.000249933
-0.000212733
-1533.04
-1519.07
-1491.77
-1452.31
-1402.25
-1343.41
-1277.69
-1206.92
-1132.81
-1056.88
-980.434
-904.57
-830.191
-758.028
-688.656
-622.52
-559.951
-501.18
-446.355
-395.549
-348.77
-305.974
-267.065
-231.913
-200.349
-172.184
-147.205
-125.19
-105.904
-89.114
-74.5859
-62.0921
-51.4133
-42.3416
-34.682
-28.2541
-22.8925
-18.4474
-14.7844
-11.7841
-9.34136
-7.3645
-5.77424
-4.50261
-3.4918
-2.69309
-2.06571
-1.57582
-1.19553
-0.902054
-0.676902
-0.505174
-0.374955
-0.276786
-0.203205
-0.148374
-0.107748
-0.0778211
-0.0559014
-0.039938
-0.0283788
-0.0200561
-0.0140978
-0.00985631
-0.00685408
-0.00474118
-0.00326278
-0.0022346
-0.00152424
-0.00103733
-0.000707177
-0.000487281
-0.000345843
-0.000261948
-0.000222965
-1499.95
-1487.45
-1462.92
-1427.28
-1381.74
-1327.78
-1266.96
-1200.84
-1130.95
-1058.67
-985.247
-911.775
-839.184
-768.259
-699.643
-633.855
-571.298
-512.273
-456.992
-405.583
-358.103
-314.547
-274.853
-238.914
-206.586
-177.69
-152.026
-129.377
-109.514
-92.2038
-77.2117
-64.3083
-53.2714
-43.8892
-35.9628
-29.3073
-23.7532
-19.1465
-15.3488
-12.2369
-9.70255
-7.65089
-5.99998
-4.67949
-3.6296
-2.79983
-2.14791
-1.63875
-1.24344
-0.938322
-0.7042
-0.525605
-0.390161
-0.288039
-0.211487
-0.154434
-0.112158
-0.0810129
-0.0581985
-0.0415822
-0.0295491
-0.0208845
-0.014681
-0.0102647
-0.00713845
-0.00493814
-0.0033985
-0.00232767
-0.0015878
-0.00108063
-0.000736733
-0.00050767
-0.000360331
-0.000272932
-0.000232322
-1473.35
-1461.94
-1439.49
-1406.73
-1364.65
-1314.47
-1257.49
-1195.1
-1128.64
-1059.39
-988.533
-917.14
-846.152
-776.382
-708.519
-643.135
-580.691
-521.542
-465.95
-414.092
-366.066
-321.901
-281.565
-244.976
-212.005
-182.491
-156.244
-133.051
-112.69
-94.9283
-79.5322
-66.2708
-54.9197
-45.2645
-37.1027
-30.246
-24.5214
-19.7712
-15.8536
-12.6425
-10.0263
-7.90783
-6.20267
-4.83845
-3.75353
-2.89588
-2.22193
-1.69546
-1.28664
-0.97104
-0.728839
-0.544055
-0.403898
-0.298209
-0.218974
-0.159916
-0.116149
-0.0839021
-0.0602785
-0.0430714
-0.0306094
-0.0216353
-0.0152097
-0.0106349
-0.00739636
-0.00511683
-0.00352166
-0.00241213
-0.0016455
-0.00111995
-0.000763574
-0.00052619
-0.000373493
-0.000282914
-0.000240825
-1451.93
-1441.34
-1420.46
-1389.89
-1350.47
-1303.22
-1249.27
-1189.85
-1126.17
-1059.42
-990.718
-921.109
-851.527
-782.804
-715.659
-650.699
-588.428
-529.244
-473.452
-421.266
-372.819
-328.17
-287.314
-250.189
-216.684
-186.651
-159.908
-136.253
-115.465
-97.3144
-81.5689
-67.9967
-56.3721
-46.4782
-38.1103
-31.0771
-25.2023
-20.3256
-16.3022
-13.0032
-10.3146
-8.13683
-6.38349
-4.98037
-3.86426
-2.98177
-2.28815
-1.74623
-1.32534
-1.00037
-0.750935
-0.560609
-0.416229
-0.307343
-0.225702
-0.164843
-0.119738
-0.0865008
-0.0621501
-0.0444118
-0.031564
-0.0223115
-0.015686
-0.0109686
-0.00762884
-0.00527793
-0.00363272
-0.00248832
-0.00169755
-0.00115543
-0.0007878
-0.00054291
-0.000385378
-0.000291929
-0.000248505
-1434.66
-1424.69
-1405
-1376.12
-1338.74
-1293.77
-1242.22
-1185.17
-1123.73
-1059.03
-992.121
-924.022
-855.658
-787.865
-721.38
-656.837
-594.77
-535.612
-479.7
-427.278
-378.511
-333.481
-292.207
-254.644
-220.697
-190.231
-163.072
-139.025
-117.873
-99.3903
-83.3446
-69.5045
-57.6432
-47.5424
-38.9951
-31.8079
-25.802
-20.8144
-16.6982
-13.322
-10.5696
-8.33961
-6.54374
-5.10625
-3.96255
-3.05807
-2.34703
-1.7914
-1.35978
-1.02648
-0.770626
-0.575368
-0.427229
-0.315494
-0.231708
-0.169244
-0.122944
-0.0888238
-0.0638237
-0.0456108
-0.0324183
-0.0229168
-0.0161125
-0.0112674
-0.00783709
-0.00542229
-0.00373226
-0.00255663
-0.00174423
-0.00118725
-0.000809533
-0.000557911
-0.000396044
-0.00030002
-0.0002554
-1420.73
-1411.23
-1392.46
-1364.87
-1329.08
-1285.9
-1236.22
-1181.06
-1121.43
-1058.4
-992.975
-926.145
-858.821
-791.839
-725.947
-661.798
-599.947
-540.853
-484.877
-432.292
-383.282
-337.955
-296.346
-258.427
-224.118
-193.292
-165.786
-141.409
-119.95
-101.185
-84.8828
-70.8132
-58.7485
-48.4693
-39.767
-32.4463
-26.3266
-21.2427
-17.0455
-13.6018
-10.7938
-8.518
-6.68485
-5.21719
-4.04925
-3.12541
-2.39903
-1.83132
-1.39025
-1.0496
-0.788061
-0.588443
-0.436979
-0.322723
-0.237037
-0.17315
-0.125791
-0.0908873
-0.0653108
-0.0466766
-0.0331779
-0.0234551
-0.0164919
-0.0115334
-0.0080225
-0.00555084
-0.00382092
-0.00261748
-0.00178582
-0.00121562
-0.000828909
-0.000571289
-0.000405558
-0.00030724
-0.000261552
-1409.49
-1400.35
-1382.29
-1355.7
-1321.15
-1279.36
-1231.17
-1177.5
-1119.33
-1057.66
-993.452
-927.678
-861.233
-794.951
-729.582
-665.793
-604.156
-545.146
-489.146
-436.45
-387.26
-341.702
-299.827
-261.622
-227.017
-195.895
-168.1
-143.447
-121.729
-102.726
-86.2067
-71.9417
-59.7034
-49.2714
-40.4361
-33.0006
-26.7826
-21.6154
-17.3481
-13.846
-10.9895
-8.67393
-6.8083
-5.31434
-4.12523
-3.18448
-2.44467
-1.86638
-1.41702
-1.06992
-0.803402
-0.599955
-0.445567
-0.329094
-0.241735
-0.176595
-0.128303
-0.0927089
-0.0666242
-0.0476182
-0.0338492
-0.023931
-0.0168274
-0.0117686
-0.00818655
-0.00566461
-0.00389941
-0.00267137
-0.00182266
-0.00124075
-0.000846079
-0.000583147
-0.000413993
-0.000313641
-0.000267008
-1400.43
-1391.58
-1374.06
-1348.24
-1314.65
-1273.96
-1226.94
-1174.47
-1117.46
-1056.88
-993.676
-928.775
-863.067
-797.379
-732.466
-668.999
-607.562
-548.647
-492.651
-439.881
-390.559
-344.824
-302.739
-264.304
-229.458
-198.093
-170.06
-145.178
-123.245
-104.041
-87.3389
-72.9088
-60.5231
-49.9612
-41.0123
-33.4786
-27.1764
-21.9377
-17.6102
-14.0576
-11.1593
-8.80937
-6.91563
-5.39887
-4.19139
-3.23595
-2.48448
-1.89698
-1.4404
-1.08769
-0.816816
-0.610026
-0.453085
-0.334672
-0.245852
-0.179615
-0.130507
-0.094307
-0.0677768
-0.0484449
-0.0344388
-0.0243492
-0.0171223
-0.0119755
-0.00833081
-0.00576469
-0.00396848
-0.00271879
-0.00185509
-0.00126287
-0.000861201
-0.000593592
-0.000421425
-0.000319283
-0.000271817
-1393.14
-1384.51
-1367.41
-1342.2
-1309.36
-1269.52
-1223.42
-1171.9
-1115.82
-1056.13
-993.734
-929.552
-864.456
-799.269
-734.745
-671.562
-610.31
-551.49
-495.514
-442.7
-393.282
-347.411
-305.162
-266.543
-231.503
-199.94
-171.711
-146.64
-124.528
-105.157
-88.3013
-73.7324
-61.2225
-50.5506
-41.5055
-33.8883
-27.5144
-22.2146
-17.8356
-14.2399
-11.3058
-8.92626
-7.00836
-5.47195
-4.24865
-3.28053
-2.51898
-1.92352
-1.4607
-1.10311
-0.828472
-0.618782
-0.459624
-0.339528
-0.249436
-0.182246
-0.132427
-0.0957004
-0.0687822
-0.0491662
-0.0349534
-0.0247143
-0.0173799
-0.0121562
-0.00845689
-0.00585219
-0.00402887
-0.00276028
-0.00188347
-0.00128224
-0.000874438
-0.000602739
-0.000427935
-0.000324226
-0.000276031
-1387.28
-1378.82
-1362.05
-1337.3
-1305.05
-1265.88
-1220.51
-1169.74
-1114.41
-1055.43
-993.69
-930.094
-865.504
-800.736
-736.543
-673.604
-612.517
-553.79
-497.842
-445.004
-395.517
-349.543
-307.166
-268.402
-233.206
-201.482
-173.094
-147.867
-125.607
-106.097
-89.1144
-74.4295
-61.8154
-51.0511
-41.9249
-34.2372
-27.8027
-22.4511
-18.0283
-14.3959
-11.4313
-9.02652
-7.08796
-5.53476
-4.29789
-3.3189
-2.5487
-1.94639
-1.4782
-1.11642
-0.838537
-0.626348
-0.465277
-0.343728
-0.252539
-0.184524
-0.13409
-0.0969078
-0.0696538
-0.0497918
-0.0353999
-0.0250311
-0.0176035
-0.0123131
-0.00856642
-0.00592821
-0.00408137
-0.00279634
-0.00190815
-0.00129908
-0.000885956
-0.000610699
-0.000433601
-0.000328529
-0.000279701
-1382.59
-1374.25
-1357.74
-1333.36
-1301.56
-1262.92
-1218.12
-1167.94
-1113.21
-1054.79
-993.586
-930.468
-866.292
-801.871
-737.956
-675.226
-614.284
-555.643
-499.729
-446.879
-397.344
-351.293
-308.816
-269.937
-234.616
-202.763
-174.245
-148.892
-126.51
-106.886
-89.7972
-75.0159
-62.3151
-51.4737
-42.2795
-34.5327
-28.0471
-22.6519
-18.1921
-14.5287
-11.5381
-9.11199
-7.15587
-5.58839
-4.33998
-3.35172
-2.57413
-1.96599
-1.4932
-1.12784
-0.847176
-0.632844
-0.470135
-0.347338
-0.255206
-0.186484
-0.135522
-0.0979477
-0.0704047
-0.050331
-0.0357848
-0.0253045
-0.0177965
-0.0124486
-0.00866099
-0.00599388
-0.00412672
-0.00282751
-0.00192948
-0.00131365
-0.000895917
-0.000617585
-0.000438504
-0.000332254
-0.000282877
-1378.83
-1370.59
-1354.28
-1330.18
-1298.74
-1260.51
-1216.17
-1166.46
-1112.19
-1054.23
-993.453
-930.72
-866.883
-802.747
-739.063
-676.511
-615.693
-557.129
-501.25
-448.398
-398.83
-352.721
-310.167
-271.197
-235.778
-203.821
-175.198
-149.742
-127.26
-107.543
-90.3673
-75.5064
-62.7338
-51.8282
-42.5775
-34.7812
-28.253
-22.8212
-18.3304
-14.6409
-11.6286
-9.18439
-7.21346
-5.6339
-4.37572
-3.37962
-2.59577
-1.98267
-1.50598
-1.13758
-0.854544
-0.638389
-0.474283
-0.350423
-0.257487
-0.188161
-0.136747
-0.0988378
-0.0710478
-0.0507929
-0.0361148
-0.0255388
-0.017962
-0.0125648
-0.00874215
-0.00605024
-0.00416566
-0.00285428
-0.0019478
-0.00132616
-0.000904479
-0.000623505
-0.00044272
-0.000335457
-0.000285609
-1375.83
-1367.67
-1351.51
-1327.63
-1296.47
-1258.57
-1214.58
-1165.24
-1111.35
-1053.75
-993.308
-930.886
-867.323
-803.421
-739.928
-677.524
-616.813
-558.317
-502.471
-449.623
-400.033
-353.881
-311.268
-272.228
-236.73
-204.69
-175.983
-150.443
-127.881
-108.087
-90.8404
-75.9142
-63.0824
-52.1238
-42.8263
-34.9891
-28.4254
-22.9632
-18.4465
-14.7352
-11.7046
-9.24535
-7.262
-5.6723
-4.4059
-3.40319
-2.61407
-1.99678
-1.5168
-1.14582
-0.86079
-0.643093
-0.477803
-0.353043
-0.259425
-0.189586
-0.137789
-0.0995952
-0.0715951
-0.0511863
-0.0363958
-0.0257384
-0.018103
-0.0126639
-0.00881137
-0.00609834
-0.00419889
-0.00287713
-0.00196345
-0.00133685
-0.000911795
-0.000628565
-0.000446325
-0.000338197
-0.000287946
-1373.44
-1365.34
-1349.3
-1325.6
-1294.65
-1257
-1213.29
-1164.24
-1110.64
-1053.33
-993.165
-930.992
-867.651
-803.939
-740.602
-678.32
-617.699
-559.263
-503.448
-450.606
-401.002
-354.818
-312.161
-273.066
-237.505
-205.4
-176.625
-151.018
-128.391
-108.536
-91.2309
-76.2513
-63.371
-52.369
-43.0329
-35.162
-28.5689
-23.0815
-18.5434
-14.8139
-11.7682
-9.29637
-7.30266
-5.70449
-4.43122
-3.42299
-2.62945
-2.00865
-1.52591
-1.15277
-0.866054
-0.647058
-0.480773
-0.355253
-0.261061
-0.19079
-0.138669
-0.100236
-0.0720582
-0.0515191
-0.0366338
-0.0259076
-0.0182225
-0.0127479
-0.00887006
-0.00613913
-0.00422709
-0.00289653
-0.00197674
-0.00134593
-0.000918008
-0.000632863
-0.000449388
-0.000340525
-0.000289933
-1371.54
-1363.49
-1347.55
-1323.98
-1293.2
-1255.75
-1212.25
-1163.43
-1110.07
-1052.98
-993.03
-931.057
-867.893
-804.335
-741.125
-678.944
-618.399
-560.012
-504.226
-451.392
-401.779
-355.573
-312.881
-273.743
-238.135
-205.978
-177.149
-151.488
-128.809
-108.903
-91.5512
-76.5283
-63.6085
-52.5711
-43.2035
-35.3048
-28.6877
-23.1796
-18.6238
-14.8793
-11.8211
-9.33881
-7.33651
-5.73131
-4.45234
-3.43951
-2.64229
-2.01857
-1.53353
-1.15858
-0.870462
-0.650381
-0.483263
-0.357108
-0.262434
-0.191801
-0.139409
-0.100774
-0.0724476
-0.0517992
-0.036834
-0.0260499
-0.0183232
-0.0128186
-0.00891953
-0.00617351
-0.00425087
-0.00291289
-0.00198795
-0.00135359
-0.000923253
-0.000636493
-0.000451975
-0.000342493
-0.000291612
-1370.04
-1362.03
-1346.16
-1322.69
-1292.05
-1254.75
-1211.42
-1162.78
-1109.59
-1052.69
-992.909
-931.094
-868.072
-804.637
-741.53
-679.432
-618.948
-560.605
-504.843
-452.018
-402.4
-356.177
-313.459
-274.288
-238.642
-206.444
-177.573
-151.869
-129.148
-109.202
-91.8127
-76.7547
-63.8029
-52.7367
-43.3434
-35.4222
-28.7854
-23.2603
-18.69
-14.9333
-11.8648
-9.37391
-7.36453
-5.75353
-4.46985
-3.45322
-2.65295
-2.02682
-1.53986
-1.16342
-0.874132
-0.65315
-0.485338
-0.358655
-0.26358
-0.192645
-0.140027
-0.101224
-0.0727731
-0.0520334
-0.0370015
-0.0261691
-0.0184075
-0.0128779
-0.00896096
-0.00620233
-0.0042708
-0.0029266
-0.00199735
-0.00136002
-0.000927654
-0.00063954
-0.000454147
-0.000344145
-0.000293022
-1368.86
-1360.88
-1345.06
-1321.67
-1291.13
-1253.95
-1210.75
-1162.25
-1109.21
-1052.45
-992.802
-931.112
-868.203
-804.867
-741.843
-679.812
-619.379
-561.071
-505.33
-452.514
-402.893
-356.658
-313.921
-274.725
-239.05
-206.819
-177.914
-152.177
-129.422
-109.444
-92.0247
-76.9386
-63.9612
-52.8716
-43.4576
-35.5181
-28.8653
-23.3264
-18.7443
-14.9776
-11.9006
-9.40276
-7.38758
-5.77183
-4.48428
-3.46452
-2.66176
-2.03363
-1.5451
-1.16741
-0.877169
-0.655442
-0.487058
-0.359937
-0.264531
-0.193345
-0.14054
-0.101597
-0.0730435
-0.052228
-0.0371408
-0.0262682
-0.0184776
-0.0129272
-0.00899546
-0.00622633
-0.0042874
-0.00293804
-0.00200518
-0.00136538
-0.000931325
-0.000642081
-0.00045596
-0.000345524
-0.000294199
-1367.93
-1359.97
-1344.19
-1320.87
-1290.41
-1253.32
-1210.23
-1161.83
-1108.9
-1052.25
-992.71
-931.119
-868.299
-805.041
-742.084
-680.106
-619.714
-561.436
-505.713
-452.905
-403.283
-357.04
-314.289
-275.073
-239.375
-207.12
-178.188
-152.424
-129.643
-109.64
-92.1959
-77.0873
-64.0892
-52.981
-43.5503
-35.596
-28.9303
-23.3802
-18.7886
-15.0137
-11.9299
-9.42634
-7.40644
-5.78681
-4.4961
-3.47379
-2.66898
-2.03922
-1.5494
-1.1707
-0.879668
-0.657328
-0.488474
-0.360994
-0.265314
-0.193922
-0.140963
-0.101906
-0.0732668
-0.0523888
-0.0372559
-0.0263501
-0.0185356
-0.012968
-0.00902402
-0.0062462
-0.00430116
-0.00294751
-0.00201168
-0.00136982
-0.000934369
-0.00064419
-0.000457464
-0.000346668
-0.000295176
-1367.2
-1359.26
-1343.51
-1320.24
-1289.84
-1252.82
-1209.81
-1161.5
-1108.66
-1052.09
-992.632
-931.118
-868.369
-805.173
-742.268
-680.334
-619.975
-561.721
-506.013
-453.212
-403.591
-357.341
-314.579
-275.349
-239.633
-207.359
-178.407
-152.622
-129.82
-109.796
-92.3332
-77.2068
-64.1922
-53.069
-43.625
-35.6589
-28.9828
-23.4238
-18.8244
-15.043
-11.9537
-9.4455
-7.42177
-5.799
-4.50573
-3.48135
-2.67487
-2.04378
-1.55291
-1.17339
-0.88171
-0.658872
-0.489633
-0.361859
-0.265956
-0.194396
-0.14131
-0.102159
-0.0734502
-0.0525209
-0.0373505
-0.0264175
-0.0185833
-0.0130016
-0.00904752
-0.00626256
-0.00431248
-0.00295531
-0.00201703
-0.00137348
-0.000936879
-0.000645928
-0.000458704
-0.000347612
-0.000295982
-1366.63
-1358.71
-1342.99
-1319.75
-1289.39
-1252.43
-1209.48
-1161.24
-1108.46
-1051.96
-992.567
-931.113
-868.419
-805.272
-742.409
-680.509
-620.177
-561.942
-506.247
-453.452
-403.832
-357.578
-314.808
-275.567
-239.838
-207.548
-178.58
-152.779
-129.96
-109.921
-92.4428
-77.3022
-64.2746
-53.1396
-43.685
-35.7094
-29.0251
-23.4589
-18.8533
-15.0666
-11.9729
-9.46097
-7.43417
-5.80887
-4.51353
-3.48747
-2.67964
-2.04748
-1.55576
-1.17557
-0.883371
-0.660127
-0.490576
-0.362563
-0.266479
-0.194782
-0.141594
-0.102365
-0.0735998
-0.0526288
-0.0374278
-0.0264725
-0.0186222
-0.013029
-0.00906674
-0.00627594
-0.00432175
-0.00296169
-0.00202141
-0.00137648
-0.000938934
-0.000647353
-0.000459721
-0.000348386
-0.000296643
-1366.19
-1358.27
-1342.57
-1319.37
-1289.05
-1252.13
-1209.22
-1161.03
-1108.3
-1051.86
-992.513
-931.106
-868.456
-805.346
-742.516
-680.643
-620.333
-562.113
-506.429
-453.639
-404.02
-357.764
-314.988
-275.738
-239.998
-207.697
-178.717
-152.903
-130.072
-110.02
-92.5298
-77.3781
-64.3402
-53.1959
-43.7328
-35.7497
-29.0588
-23.4869
-18.8764
-15.0856
-11.9883
-9.4734
-7.44413
-5.8168
-4.51981
-3.4924
-2.68349
-2.05047
-1.55806
-1.17734
-0.884713
-0.661142
-0.49134
-0.363134
-0.266903
-0.195095
-0.141823
-0.102532
-0.0737212
-0.0527163
-0.0374906
-0.0265172
-0.0186539
-0.0130513
-0.00908237
-0.00628682
-0.00432929
-0.00296689
-0.00202498
-0.00137892
-0.000940609
-0.000648513
-0.00046055
-0.000349017
-0.000297181
-1365.85
-1357.94
-1342.26
-1319.07
-1288.78
-1251.89
-1209.02
-1160.87
-1108.18
-1051.77
-992.469
-931.099
-868.482
-805.402
-742.598
-680.746
-620.453
-562.246
-506.57
-453.784
-404.166
-357.908
-315.128
-275.872
-240.124
-207.814
-178.824
-153
-130.159
-110.098
-92.5985
-77.4381
-64.3921
-53.2404
-43.7707
-35.7818
-29.0857
-23.5092
-18.8948
-15.1007
-12.0005
-9.48332
-7.45209
-5.82315
-4.52483
-3.49635
-2.68658
-2.05286
-1.55991
-1.17875
-0.885791
-0.661959
-0.491954
-0.363593
-0.267244
-0.195347
-0.142008
-0.102667
-0.0738192
-0.0527869
-0.0375412
-0.0265534
-0.0186795
-0.0130694
-0.009095
-0.00629563
-0.00433539
-0.00297109
-0.00202786
-0.0013809
-0.000941965
-0.000649453
-0.000461221
-0.000349528
-0.000297618
-1365.59
-1357.68
-1342.01
-1318.84
-1288.57
-1251.71
-1208.87
-1160.74
-1108.09
-1051.71
-992.433
-931.092
-868.5
-805.444
-742.66
-680.824
-620.544
-562.347
-506.678
-453.896
-404.279
-358.02
-315.236
-275.976
-240.222
-207.905
-178.908
-153.077
-130.228
-110.159
-92.6525
-77.4853
-64.433
-53.2755
-43.8006
-35.807
-29.1069
-23.5269
-18.9094
-15.1126
-12.0103
-9.4912
-7.45842
-5.82819
-4.52882
-3.49949
-2.68904
-2.05477
-1.56139
-1.17988
-0.886653
-0.662611
-0.492444
-0.36396
-0.267517
-0.195548
-0.142156
-0.102776
-0.0738977
-0.0528436
-0.0375818
-0.0265823
-0.0187001
-0.0130839
-0.00910515
-0.0063027
-0.00434029
-0.00297448
-0.00203019
-0.00138249
-0.000943056
-0.00065021
-0.000461762
-0.00034994
-0.00029797
-1365.39
-1357.49
-1341.82
-1318.66
-1288.41
-1251.56
-1208.75
-1160.64
-1108.01
-1051.66
-992.405
-931.085
-868.513
-805.475
-742.706
-680.884
-620.614
-562.425
-506.761
-453.982
-404.366
-358.106
-315.32
-276.056
-240.298
-207.976
-178.973
-153.136
-130.282
-110.207
-92.6946
-77.5221
-64.465
-53.3031
-43.8241
-35.8269
-29.1235
-23.5408
-18.9209
-15.1221
-12.018
-9.49742
-7.46342
-5.83218
-4.53199
-3.50198
-2.69099
-2.05629
-1.56255
-1.18078
-0.887337
-0.663129
-0.492835
-0.364252
-0.267734
-0.195709
-0.142274
-0.102862
-0.0739603
-0.0528888
-0.0376143
-0.0266055
-0.0187165
-0.0130954
-0.00911327
-0.00630836
-0.00434421
-0.00297718
-0.00203204
-0.00138376
-0.00094393
-0.000650816
-0.000462195
-0.00035027
-0.000298252
-1365.23
-1357.33
-1341.68
-1318.53
-1288.28
-1251.46
-1208.65
-1160.57
-1107.95
-1051.62
-992.382
-931.079
-868.522
-805.498
-742.741
-680.929
-620.667
-562.484
-506.824
-454.048
-404.433
-358.172
-315.385
-276.118
-240.357
-208.031
-179.024
-153.182
-130.323
-110.244
-92.7274
-77.5508
-64.4899
-53.3245
-43.8424
-35.8424
-29.1366
-23.5516
-18.9299
-15.1295
-12.024
-9.5023
-7.46734
-5.83531
-4.53447
-3.50394
-2.69252
-2.05748
-1.56348
-1.18149
-0.887877
-0.663538
-0.493143
-0.364483
-0.267906
-0.195836
-0.142368
-0.10293
-0.0740099
-0.0529246
-0.03764
-0.0266238
-0.0187295
-0.0131046
-0.00911971
-0.00631285
-0.00434733
-0.00297933
-0.00203352
-0.00138478
-0.000944625
-0.000651298
-0.000462539
-0.000350532
-0.000298476
-1365.12
-1357.22
-1341.57
-1318.42
-1288.19
-1251.37
-1208.58
-1160.51
-1107.91
-1051.59
-992.364
-931.073
-868.529
-805.515
-742.767
-680.962
-620.707
-562.528
-506.872
-454.098
-404.483
-358.223
-315.434
-276.165
-240.402
-208.073
-179.062
-153.217
-130.355
-110.272
-92.7527
-77.573
-64.5092
-53.3411
-43.8566
-35.8545
-29.1467
-23.5601
-18.9369
-15.1352
-12.0287
-9.50611
-7.47041
-5.83777
-4.53642
-3.50548
-2.69372
-2.05842
-1.5642
-1.18204
-0.888301
-0.66386
-0.493386
-0.364664
-0.268041
-0.195936
-0.142441
-0.102984
-0.074049
-0.0529528
-0.0376603
-0.0266383
-0.0187398
-0.0131119
-0.00912479
-0.0063164
-0.00434979
-0.00298103
-0.00203469
-0.00138558
-0.000945174
-0.000651679
-0.000462812
-0.00035074
-0.000298654
-1365.03
-1357.13
-1341.48
-1318.35
-1288.12
-1251.31
-1208.53
-1160.46
-1107.88
-1051.56