/*--------------------------------*- C++ -*----------------------------------*\
  =========                 |
  \\      /  F ield         | OpenFOAM: The Open Source CFD Toolbox
   \\    /   O peration     | Website:  https://openfoam.org
    \\  /    A nd           | Version:  10
     \\/     M anipulation  |
\*---------------------------------------------------------------------------*/
FoamFile
{
    format      ascii;
    class       volScalarField;
    location    "384";
    object      T;
}
// * * * * * * * * * * * * * * * * * * * * * * * * * * * * * * * * * * * * * //

dimensions      [0 0 0 1 0 0 0];

internalField   nonuniform List<scalar> 
11250
(
249.862
167.614
139.455
127.075
120.335
116.07
113.093
110.877
109.153
107.767
106.628
105.676
104.87
104.181
103.589
103.078
102.635
102.252
101.919
101.631
101.382
101.167
100.982
100.823
100.687
100.572
100.473
100.39
100.32
100.262
100.213
100.173
100.139
100.112
100.089
100.071
100.056
100.044
100.034
100.027
100.021
100.016
100.012
100.009
100.007
100.005
100.004
100.003
100.002
100.002
100.001
100.001
100.001
100
100
100
100
100
100
100
100
100
100
100
100
100
100
100
100
100
100
100
100
100
100
331.557
248.759
202.592
175.598
158.545
146.938
138.538
132.161
127.141
123.079
119.723
116.907
114.518
112.473
110.712
109.19
107.871
106.727
105.735
104.875
104.131
103.489
102.936
102.462
102.056
101.71
101.416
101.168
100.959
100.784
100.637
100.516
100.416
100.334
100.267
100.212
100.167
100.132
100.103
100.08
100.062
100.048
100.037
100.028
100.021
100.016
100.012
100.009
100.007
100.005
100.004
100.003
100.002
100.001
100.001
100.001
100.001
100
100
100
100
100
100
100
100
100
100
100
100
100
100
100
100
100
100
359.169
293.288
246.58
214.212
191.348
174.649
162.015
152.149
144.237
137.754
132.35
127.788
123.898
120.556
117.671
115.172
113.003
111.12
109.484
108.066
106.837
105.776
104.862
104.077
103.405
102.833
102.346
101.935
101.589
101.299
101.057
100.856
100.69
100.554
100.442
100.351
100.278
100.219
100.171
100.133
100.103
100.08
100.061
100.047
100.035
100.027
100.02
100.015
100.011
100.008
100.006
100.004
100.003
100.002
100.002
100.001
100.001
100.001
100
100
100
100
100
100
100
100
100
100
100
100
100
100
100
100
100
371.01
318.668
276.269
243.375
218.054
198.374
182.816
170.285
160.014
151.465
144.259
138.122
132.856
128.31
124.371
120.948
117.97
115.379
113.126
111.169
109.473
108.006
106.741
105.655
104.724
103.931
103.257
102.686
102.206
101.804
101.468
101.189
100.959
100.769
100.614
100.488
100.386
100.304
100.238
100.185
100.144
100.111
100.085
100.065
100.049
100.037
100.028
100.021
100.016
100.012
100.009
100.006
100.005
100.003
100.002
100.002
100.001
100.001
100.001
100
100
100
100
100
100
100
100
100
100
100
100
100
100
100
100
377.221
334.139
296.506
265.039
239.214
218.088
200.717
186.304
174.222
163.996
155.266
147.76
141.269
135.634
130.728
126.45
122.717
119.461
116.623
114.155
112.013
110.158
108.558
107.181
106.002
104.995
104.14
103.416
102.806
102.295
101.868
101.513
101.22
100.979
100.782
100.622
100.492
100.387
100.303
100.236
100.183
100.141
100.108
100.083
100.063
100.048
100.036
100.027
100.02
100.015
100.011
100.008
100.006
100.004
100.003
100.002
100.002
100.001
100.001
100.001
100
100
100
100
100
100
100
100
100
100
100
100
100
100
100
380.972
344.205
310.646
281.158
255.795
234.191
215.823
200.171
186.771
175.239
165.266
156.603
149.052
142.454
136.681
131.625
127.199
123.327
119.946
116.999
114.437
112.216
110.297
108.645
107.228
106.019
104.99
104.118
103.384
102.768
102.253
101.826
101.473
101.182
100.944
100.751
100.594
100.467
100.366
100.285
100.221
100.171
100.131
100.1
100.076
100.057
100.043
100.032
100.024
100.018
100.013
100.01
100.007
100.005
100.004
100.003
100.002
100.001
100.001
100.001
100
100
100
100
100
100
100
100
100
100
100
100
100
100
100
383.45
351.112
320.801
293.265
268.765
247.229
228.412
212.003
197.687
185.175
174.218
164.603
156.155
148.724
142.186
136.435
131.383
126.95
123.069
119.679
116.727
114.164
111.947
110.036
108.395
106.993
105.8
104.789
103.936
103.221
102.623
102.126
101.715
101.377
101.1
100.874
100.692
100.545
100.427
100.332
100.258
100.199
100.153
100.117
100.089
100.067
100.05
100.038
100.028
100.021
100.015
100.011
100.008
100.006
100.004
100.003
100.002
100.002
100.001
100.001
100.001
100
100
100
100
100
100
100
100
100
100
100
100
100
100
385.186
356.051
328.28
302.474
278.939
257.75
238.824
221.999
207.074
193.849
182.132
171.752
162.558
154.419
147.218
140.857
135.247
130.31
125.975
122.181
118.87
115.992
113.498
111.346
109.497
107.914
106.567
105.424
104.46
103.65
102.974
102.411
101.945
101.562
101.248
100.993
100.785
100.618
100.484
100.378
100.293
100.226
100.174
100.133
100.101
100.076
100.057
100.043
100.032
100.024
100.017
100.013
100.009
100.007
100.005
100.004
100.003
100.002
100.001
100.001
100.001
100
100
100
100
100
100
100
100
100
100
100
100
100
100
386.451
359.695
333.908
309.564
286.962
266.236
247.399
230.384
215.078
201.348
189.057
178.072
168.27
159.537
151.772
144.881
138.781
133.395
128.654
124.495
120.858
117.691
114.943
112.569
110.527
108.777
107.286
106.021
104.953
104.055
103.304
102.68
102.163
101.737
101.389
101.104
100.874
100.688
100.539
100.42
100.326
100.252
100.193
100.148
100.112
100.085
100.064
100.048
100.036
100.026
100.019
100.014
100.01
100.008
100.005
100.004
100.003
100.002
100.001
100.001
100.001
100
100
100
100
100
100
100
100
100
100
100
100
100
100
387.399
362.447
338.216
315.085
293.325
273.09
254.446
237.386
221.857
207.781
195.064
183.609
173.317
164.094
155.852
148.507
141.981
136.202
131.101
126.615
122.686
119.258
116.279
113.702
111.482
109.58
107.956
106.578
105.413
104.433
103.614
102.932
102.367
101.902
101.52
101.209
100.957
100.754
100.591
100.461
100.357
100.276
100.212
100.162
100.123
100.093
100.07
100.052
100.039
100.029
100.021
100.016
100.011
100.008
100.006
100.004
100.003
100.002
100.002
100.001
100.001
100.001
100
100
100
100
100
100
100
100
100
100
100
100
100
388.124
364.563
341.561
319.427
298.399
278.638
260.231
243.212
227.57
213.265
200.238
188.421
177.739
168.116
159.477
151.747
144.855
138.733
133.317
128.542
124.352
120.69
117.503
114.742
112.362
110.319
108.575
107.093
105.839
104.784
103.901
103.166
102.557
102.055
101.643
101.307
101.035
100.815
100.639
100.499
100.387
100.299
100.229
100.175
100.133
100.101
100.076
100.057
100.042
100.031
100.023
100.017
100.012
100.009
100.006
100.005
100.003
100.002
100.002
100.001
100.001
100.001
100
100
100
100
100
100
100
100
100
100
100
100
100
388.686
366.212
344.186
322.867
302.466
283.136
264.979
248.05
232.365
217.915
204.667
192.576
181.586
171.639
162.671
154.618
147.414
140.998
135.306
130.279
125.858
121.988
118.616
115.691
113.166
110.996
109.142
107.565
106.231
105.107
104.166
103.382
102.732
102.196
101.757
101.398
101.107
100.872
100.684
100.534
100.414
100.32
100.246
100.188
100.143
100.108
100.081
100.061
100.045
100.034
100.025
100.018
100.013
100.01
100.007
100.005
100.004
100.003
100.002
100.001
100.001
100.001
100
100
100
100
100
100
100
100
100
100
100
100
100
389.128
367.51
346.264
325.612
305.739
286.791
268.875
252.059
236.377
221.841
208.437
196.14
184.911
174.703
165.466
157.143
149.676
143.008
137.08
131.833
127.21
123.157
119.62
116.548
113.894
111.611
109.658
107.996
106.588
105.403
104.409
103.58
102.893
102.326
101.861
101.482
101.174
100.925
100.725
100.566
100.439
100.339
100.261
100.199
100.151
100.115
100.086
100.065
100.048
100.036
100.026
100.019
100.014
100.01
100.007
100.005
100.004
100.003
100.002
100.001
100.001
100.001
100
100
100
100
100
100
100
100
100
100
100
100
100
389.478
368.54
347.921
327.812
308.381
289.766
272.072
255.376
239.725
225.142
211.632
199.181
187.766
177.351
167.894
159.348
151.661
144.779
138.648
133.211
128.414
124.201
120.519
117.318
114.549
112.166
110.125
108.386
106.913
105.671
104.629
103.76
103.039
102.445
101.957
101.558
101.234
100.973
100.763
100.596
100.462
100.357
100.274
100.21
100.16
100.121
100.091
100.068
100.051
100.038
100.028
100.02
100.015
100.011
100.008
100.006
100.004
100.003
100.002
100.001
100.001
100.001
100
100
100
100
100
100
100
100
100
100
100
100
100
389.756
369.363
349.248
329.582
310.519
292.189
274.695
258.117
242.511
227.909
214.327
201.764
190.205
179.626
169.991
161.261
153.391
146.329
140.026
134.427
129.478
125.126
121.319
118.004
115.134
112.662
110.543
108.736
107.204
105.912
104.828
103.923
103.172
102.552
102.043
101.627
101.29
101.017
100.798
100.622
100.483
100.373
100.287
100.219
100.167
100.126
100.095
100.071
100.053
100.039
100.029
100.021
100.016
100.011
100.008
100.006
100.004
100.003
100.002
100.001
100.001
100.001
100
100
100
100
100
100
100
100
100
100
100
100
100
389.979
370.022
350.314
331.011
312.253
294.164
276.846
260.379
244.823
230.22
216.592
203.947
192.278
181.569
171.791
162.911
154.888
147.677
141.228
135.49
130.412
125.941
122.024
118.612
115.653
113.103
110.915
109.049
107.465
106.128
105.006
104.069
103.291
102.649
102.121
101.69
101.339
101.056
100.829
100.647
100.502
100.388
100.298
100.228
100.174
100.131
100.099
100.074
100.055
100.041
100.03
100.022
100.016
100.012
100.008
100.006
100.004
100.003
100.002
100.002
100.001
100.001
100.001
100
100
100
100
100
100
100
100
100
100
100
100
390.158
370.552
351.173
332.166
313.661
295.775
278.608
262.242
246.739
232.145
218.488
205.784
194.031
183.22
173.328
164.326
156.178
148.841
142.27
136.415
131.227
126.654
122.643
119.145
116.111
113.492
111.244
109.325
107.696
106.32
105.165
104.199
103.397
102.735
102.19
101.745
101.384
101.092
100.857
100.669
100.519
100.401
100.309
100.236
100.18
100.136
100.102
100.077
100.057
100.042
100.031
100.023
100.017
100.012
100.009
100.006
100.005
100.003
100.002
100.002
100.001
100.001
100.001
100
100
100
100
100
100
100
100
100
100
100
100
390.303
370.979
351.867
333.1
314.803
297.088
280.051
263.774
248.321
233.742
220.07
207.323
195.507
184.616
174.632
165.532
157.281
149.84
143.167
137.215
131.934
127.273
123.182
119.611
116.511
113.833
111.533
109.569
107.9
106.49
105.305
104.315
103.492
102.811
102.252
101.795
101.423
101.123
100.881
100.688
100.535
100.413
100.318
100.243
100.185
100.14
100.105
100.079
100.059
100.044
100.032
100.024
100.017
100.013
100.009
100.006
100.005
100.003
100.002
100.002
100.001
100.001
100.001
100
100
100
100
100
100
100
100
100
100
100
100
390.419
371.324
352.427
333.857
315.731
298.157
281.23
265.031
249.626
235.065
221.385
208.608
196.744
185.791
175.735
166.554
158.219
150.693
143.936
137.901
132.542
127.808
123.649
120.016
116.859
114.13
111.786
109.782
108.078
106.639
105.428
104.416
103.575
102.879
102.307
101.839
101.459
101.151
100.904
100.706
100.548
100.424
100.326
100.249
100.19
100.144
100.108
100.081
100.06
100.045
100.033
100.024
100.018
100.013
100.009
100.007
100.005
100.003
100.002
100.002
100.001
100.001
100.001
100
100
100
100
100
100
100
100
100
100
100
100
390.513
371.601
352.88
334.469
316.483
299.027
282.193
266.061
250.698
236.156
222.474
209.677
197.777
186.775
176.661
167.416
159.013
151.418
144.59
138.488
133.063
128.267
124.051
120.364
117.159
114.388
112.005
109.967
108.234
106.768
105.536
104.505
103.647
102.938
102.355
101.878
101.489
101.175
100.923
100.721
100.56
100.433
100.333
100.255
100.194
100.147
100.111
100.083
100.062
100.046
100.034
100.025
100.018
100.013
100.009
100.007
100.005
100.003
100.002
100.002
100.001
100.001
100.001
100
100
100
100
100
100
100
100
100
100
100
100
390.588
371.826
353.245
334.964
317.093
299.734
282.977
266.903
251.577
237.054
223.373
210.562
198.635
187.595
177.436
168.14
159.682
152.029
145.144
138.985
133.506
128.658
124.394
120.663
117.417
114.609
112.193
110.126
108.368
106.88
105.629
104.582
103.71
102.989
102.396
101.911
101.516
101.197
100.94
100.734
100.571
100.441
100.339
100.26
100.198
100.15
100.113
100.084
100.063
100.047
100.034
100.025
100.018
100.013
100.01
100.007
100.005
100.004
100.003
100.002
100.001
100.001
100.001
100
100
100
100
100
100
100
100
100
100
100
100
390.649
372.006
353.54
335.365
317.587
300.307
283.615
267.589
252.296
237.79
224.112
211.292
199.345
188.277
178.081
168.744
160.241
152.543
145.611
139.405
133.881
128.99
124.685
120.917
117.637
114.798
112.355
110.263
108.483
106.977
105.709
104.648
103.765
103.034
102.432
101.94
101.54
101.216
100.955
100.746
100.58
100.448
100.345
100.264
100.201
100.152
100.115
100.086
100.064
100.047
100.035
100.026
100.019
100.014
100.01
100.007
100.005
100.004
100.003
100.002
100.001
100.001
100.001
100
100
100
100
100
100
100
100
100
100
100
100
390.698
372.152
353.778
335.687
317.986
300.771
284.132
268.147
252.882
238.391
224.718
211.892
199.93
188.84
178.616
169.246
160.708
152.971
146.001
139.758
134.196
129.27
124.932
121.133
117.824
114.959
112.492
110.38
108.582
107.059
105.778
104.705
103.812
103.072
102.464
101.965
101.56
101.232
100.967
100.756
100.588
100.454
100.35
100.268
100.204
100.154
100.116
100.087
100.065
100.048
100.036
100.026
100.019
100.014
100.01
100.007
100.005
100.004
100.003
100.002
100.001
100.001
100.001
100
100
100
100
100
100
100
100
100
100
100
100
390.737
372.268
353.969
335.947
318.307
301.146
284.551
268.599
253.357
238.881
225.213
212.383
200.41
189.303
179.057
169.662
161.094
153.328
146.327
140.052
134.46
129.505
125.139
121.314
117.981
115.095
112.609
110.479
108.665
107.13
105.836
104.753
103.851
103.105
102.49
101.987
101.577
101.245
100.978
100.765
100.594
100.46
100.354
100.271
100.206
100.156
100.118
100.088
100.066
100.049
100.036
100.026
100.019
100.014
100.01
100.007
100.005
100.004
100.003
100.002
100.001
100.001
100.001
100
100
100
100
100
100
100
100
100
100
100
100
390.769
372.362
354.122
336.156
318.566
301.448
284.888
268.964
253.743
239.279
225.615
212.783
200.803
189.682
179.419
170.003
161.413
153.622
146.596
140.296
134.68
129.7
125.312
121.465
118.113
115.209
112.706
110.562
108.736
107.189
105.886
104.794
103.885
103.132
102.513
102.005
101.592
101.257
100.988
100.772
100.6
100.464
100.357
100.273
100.208
100.158
100.119
100.089
100.066
100.049
100.036
100.027
100.019
100.014
100.01
100.007
100.005
100.004
100.003
100.002
100.001
100.001
100.001
100
100
100
100
100
100
100
100
100
100
100
100
390.794
372.437
354.245
336.323
318.773
301.69
285.16
269.259
254.054
239.601
225.941
213.108
201.122
189.992
179.716
170.283
161.675
153.865
146.819
140.498
134.861
129.863
125.455
121.592
118.223
115.304
112.788
110.632
108.795
107.239
105.927
104.829
103.914
103.156
102.532
102.02
101.604
101.267
100.996
100.778
100.605
100.468
100.36
100.276
100.21
100.159
100.12
100.09
100.067
100.05
100.037
100.027
100.02
100.014
100.01
100.007
100.005
100.004
100.003
100.002
100.001
100.001
100.001
100
100
100
100
100
100
100
100
100
100
100
100
390.814
372.497
354.343
336.457
318.939
301.884
285.378
269.496
254.305
239.86
226.205
213.372
201.381
190.243
179.956
170.511
161.889
154.063
147.001
140.664
135.011
129.996
125.574
121.696
118.315
115.383
112.856
110.69
108.844
107.28
105.962
104.858
103.938
103.175
102.548
102.033
101.615
101.275
101.002
100.784
100.609
100.471
100.363
100.278
100.212
100.16
100.121
100.091
100.068
100.05
100.037
100.027
100.02
100.014
100.01
100.007
100.005
100.004
100.003
100.002
100.001
100.001
100.001
100
100
100
100
100
100
100
100
100
100
100
100
390.83
372.545
354.421
336.563
319.072
302.039
285.552
269.685
254.505
240.068
226.416
213.583
201.59
190.446
180.152
170.697
162.063
154.225
147.149
140.799
135.133
130.106
125.671
121.782
118.39
115.448
112.912
110.738
108.885
107.315
105.991
104.882
103.958
103.192
102.561
102.044
101.623
101.282
101.008
100.788
100.613
100.474
100.365
100.279
100.213
100.161
100.122
100.091
100.068
100.05
100.037
100.027
100.02
100.014
100.01
100.008
100.005
100.004
100.003
100.002
100.001
100.001
100.001
100
100
100
100
100
100
100
100
100
100
100
100
390.843
372.583
354.483
336.648
319.177
302.163
285.69
269.836
254.666
240.234
226.586
213.753
201.758
190.61
180.309
170.846
162.204
154.356
147.27
140.91
135.233
130.196
125.751
121.852
118.451
115.502
112.958
110.778
108.919
107.343
106.015
104.902
103.974
103.205
102.572
102.053
101.631
101.288
101.012
100.792
100.616
100.476
100.367
100.281
100.214
100.162
100.122
100.092
100.068
100.051
100.037
100.027
100.02
100.015
100.011
100.008
100.005
100.004
100.003
100.002
100.001
100.001
100.001
100
100
100
100
100
100
100
100
100
100
100
100
390.853
372.613
354.532
336.715
319.26
302.261
285.801
269.956
254.793
240.367
226.721
213.889
201.892
190.741
180.435
170.967
162.317
154.461
147.368
140.999
135.314
130.268
125.816
121.909
118.501
115.545
112.996
110.81
108.946
107.366
106.034
104.918
103.988
103.217
102.581
102.061
101.637
101.293
101.016
100.795
100.618
100.478
100.368
100.282
100.215
100.163
100.123
100.092
100.069
100.051
100.038
100.028
100.02
100.015
100.011
100.008
100.005
100.004
100.003
100.002
100.001
100.001
100.001
100
100
100
100
100
100
100
100
100
100
100
100
390.861
372.636
354.571
336.768
319.326
302.338
285.888
270.051
254.894
240.472
226.829
213.997
201.999
190.845
180.536
171.063
162.408
154.546
147.446
141.071
135.379
130.327
125.868
121.956
118.542
115.581
113.027
110.837
108.969
107.385
106.05
104.931
103.999
103.226
102.589
102.067
101.642
101.297
101.019
100.797
100.62
100.48
100.369
100.283
100.215
100.163
100.123
100.092
100.069
100.051
100.038
100.028
100.02
100.015
100.011
100.008
100.005
100.004
100.003
100.002
100.001
100.001
100.001
100
100
100
100
100
100
100
100
100
100
100
100
390.867
372.655
354.601
336.81
319.378
302.399
285.956
270.126
254.974
240.555
226.914
214.083
202.084
190.928
180.616
171.14
162.48
154.614
147.509
141.128
135.431
130.374
125.91
121.993
118.575
115.61
113.052
110.858
108.987
107.401
106.063
104.942
104.008
103.233
102.595
102.072
101.646
101.3
101.022
100.799
100.622
100.481
100.37
100.284
100.216
100.164
100.123
100.093
100.069
100.051
100.038
100.028
100.02
100.015
100.011
100.008
100.005
100.004
100.003
100.002
100.001
100.001
100.001
100
100
100
100
100
100
100
100
100
100
100
100
390.872
372.669
354.625
336.842
319.419
302.447
286.01
270.185
255.037
240.621
226.981
214.151
202.151
190.994
180.68
171.2
162.538
154.668
147.559
141.174
135.473
130.411
125.944
122.023
118.601
115.632
113.072
110.875
109.002
107.413
106.074
104.951
104.015
103.239
102.6
102.076
101.649
101.303
101.024
100.801
100.623
100.482
100.371
100.284
100.217
100.164
100.124
100.093
100.069
100.051
100.038
100.028
100.02
100.015
100.011
100.008
100.005
100.004
100.003
100.002
100.001
100.001
100.001
100
100
100
100
100
100
100
100
100
100
100
100
390.876
372.681
354.644
336.868
319.45
302.484
286.052
270.231
255.086
240.672
227.034
214.204
202.204
191.046
180.73
171.248
162.583
154.71
147.598
141.21
135.506
130.441
125.971
122.046
118.622
115.651
113.087
110.889
109.013
107.423
106.082
104.958
104.021
103.244
102.604
102.079
101.651
101.305
101.026
100.802
100.624
100.483
100.372
100.285
100.217
100.164
100.124
100.093
100.069
100.051
100.038
100.028
100.02
100.015
100.011
100.008
100.005
100.004
100.003
100.002
100.001
100.001
100.001
100
100
100
100
100
100
100
100
100
100
100
100
390.879
372.689
354.658
336.887
319.475
302.513
286.085
270.267
255.124
240.712
227.075
214.245
202.245
191.086
180.769
171.286
162.619
154.744
147.629
141.239
135.532
130.465
125.992
122.065
118.639
115.665
113.1
110.9
109.023
107.431
106.089
104.964
104.025
103.248
102.607
102.082
101.654
101.307
101.027
100.803
100.625
100.484
100.372
100.285
100.217
100.165
100.124
100.093
100.069
100.052
100.038
100.028
100.02
100.015
100.011
100.008
100.006
100.004
100.003
100.002
100.001
100.001
100.001
100
100
100
100
100
100
100
100
100
100
100
100
390.881
372.696
354.669
336.903
319.494
302.535
286.11
270.295
255.154
240.743
227.107
214.277
202.277
191.118
180.8
171.315
162.647
154.77
147.654
141.261
135.553
130.484
126.008
122.08
118.652
115.677
113.11
110.908
109.03
107.437
106.094
104.968
104.029
103.251
102.609
102.084
101.655
101.308
101.028
100.804
100.626
100.484
100.373
100.285
100.217
100.165
100.124
100.093
100.07
100.052
100.038
100.028
100.02
100.015
100.011
100.008
100.006
100.004
100.003
100.002
100.001
100.001
100.001
100
100
100
100
100
100
100
100
100
100
100
100
390.883
372.701
354.678
336.915
319.509
302.553
286.13
270.316
255.177
240.767
227.131
214.302
202.302
191.142
180.824
171.338
162.669
154.79
147.673
141.279
135.569
130.498
126.022
122.092
118.662
115.686
113.118
110.915
109.036
107.442
106.098
104.972
104.032
103.253
102.611
102.085
101.657
101.309
101.029
100.805
100.626
100.485
100.373
100.286
100.218
100.165
100.124
100.093
100.07
100.052
100.038
100.028
100.02
100.015
100.011
100.008
100.006
100.004
100.003
100.002
100.001
100.001
100.001
100
100
100
100
100
100
100
100
100
100
100
100
390.884
372.705
354.685
336.924
319.52
302.566
286.145
270.333
255.195
240.786
227.151
214.322
202.322
191.161
180.842
171.356
162.685
154.806
147.687
141.293
135.581
130.509
126.032
122.101
118.67
115.693
113.124
110.92
109.041
107.446
106.102
104.974
104.034
103.255
102.613
102.087
101.658
101.31
101.03
100.805
100.627
100.485
100.373
100.286
100.218
100.165
100.124
100.093
100.07
100.052
100.038
100.028
100.02
100.015
100.011
100.008
100.006
100.004
100.003
100.002
100.001
100.001
100.001
100
100
100
100
100
100
100
100
100
100
100
100
390.885
372.709
354.69
336.931
319.529
302.576
286.157
270.346
255.208
240.8
227.165
214.337
202.336
191.176
180.856
171.37
162.698
154.818
147.699
141.303
135.591
130.518
126.04
122.108
118.676
115.698
113.129
110.925
109.044
107.449
106.104
104.977
104.036
103.257
102.614
102.088
101.658
101.311
101.03
100.806
100.627
100.485
100.374
100.286
100.218
100.165
100.125
100.093
100.07
100.052
100.038
100.028
100.02
100.015
100.011
100.008
100.006
100.004
100.003
100.002
100.001
100.001
100.001
100
100
100
100
100
100
100
100
100
100
100
100
390.886
372.711
354.693
336.936
319.535
302.584
286.166
270.355
255.219
240.811
227.176
214.348
202.348
191.187
180.867
171.38
162.708
154.828
147.708
141.311
135.598
130.525
126.046
122.113
118.681
115.703
113.133
110.928
109.047
107.452
106.106
104.978
104.038
103.258
102.615
102.088
101.659
101.311
101.031
100.806
100.627
100.485
100.374
100.286
100.218
100.165
100.125
100.093
100.07
100.052
100.038
100.028
100.02
100.015
100.011
100.008
100.006
100.004
100.003
100.002
100.001
100.001
100.001
100
100
100
100
100
100
100
100
100
100
100
100
390.887
372.713
354.696
336.94
319.54
302.59
286.172
270.363
255.227
240.819
227.185
214.357
202.356
191.196
180.876
171.388
162.716
154.835
147.714
141.317
135.604
130.53
126.05
122.118
118.685
115.706
113.136
110.93
109.049
107.453
106.108
104.98
104.039
103.259
102.616
102.089
101.66
101.312
101.031
100.806
100.627
100.486
100.374
100.286
100.218
100.165
100.125
100.093
100.07
100.052
100.038
100.028
100.02
100.015
100.011
100.008
100.006
100.004
100.003
100.002
100.001
100.001
100.001
100
100
100
100
100
100
100
100
100
100
100
100
390.887
372.714
354.699
336.943
319.544
302.594
286.177
270.368
255.232
240.825
227.191
214.363
202.363
191.202
180.882
171.394
162.722
154.84
147.719
141.322
135.608
130.534
126.054
122.121
118.688
115.709
113.138
110.932
109.051
107.455
106.109
104.981
104.04
103.26
102.617
102.09
101.66
101.312
101.031
100.807
100.628
100.486
100.374
100.286
100.218
100.165
100.125
100.094
100.07
100.052
100.038
100.028
100.02
100.015
100.011
100.008
100.006
100.004
100.003
100.002
100.001
100.001
100.001
100
100
100
100
100
100
100
100
100
100
100
100
390.887
372.715
354.7
336.945
319.547
302.598
286.181
270.372
255.237
240.83
227.196
214.368
202.368
191.207
180.887
171.399
162.726
154.845
147.723
141.326
135.612
130.537
126.057
122.123
118.69
115.71
113.139
110.934
109.052
107.456
106.11
104.981
104.04
103.26
102.617
102.09
101.66
101.312
101.032
100.807
100.628
100.486
100.374
100.286
100.218
100.165
100.125
100.094
100.07
100.052
100.038
100.028
100.021
100.015
100.011
100.008
100.006
100.004
100.003
100.002
100.001
100.001
100.001
100
100
100
100
100
100
100
100
100
100
100
100
390.888
372.716
354.702
336.947
319.549
302.6
286.184
270.375
255.24
240.834
227.2
214.372
202.372
191.211
180.89
171.402
162.729
154.848
147.726
141.328
135.614
130.539
126.059
122.125
118.692
115.712
113.141
110.935
109.053
107.457
106.111
104.982
104.041
103.261
102.617
102.09
101.661
101.312
101.032
100.807
100.628
100.486
100.374
100.287
100.218
100.165
100.125
100.094
100.07
100.052
100.038
100.028
100.021
100.015
100.011
100.008
100.006
100.004
100.003
100.002
100.001
100.001
100.001
100
100
100
100
100
100
100
100
100
100
100
100
390.888
372.716
354.702
336.948
319.551
302.602
286.186
270.378
255.243
240.836
227.202
214.374
202.374
191.213
180.893
171.405
162.732
154.85
147.728
141.331
135.616
130.541
126.06
122.126
118.693
115.713
113.142
110.935
109.054
107.457
106.111
104.982
104.041
103.261
102.618
102.09
101.661
101.312
101.032
100.807
100.628
100.486
100.374
100.287
100.218
100.165
100.125
100.094
100.07
100.052
100.038
100.028
100.021
100.015
100.011
100.008
100.006
100.004
100.003
100.002
100.001
100.001
100.001
100
100
100
100
100
100
100
100
100
100
100
100
390.888
372.717
354.703
336.949
319.552
302.604
286.188
270.379
255.245
240.838
227.205
214.376
202.376
191.215
180.895
171.407
162.734
154.852
147.73
141.332
135.617
130.542
126.061
122.128
118.694
115.714
113.142
110.936
109.054
107.458
106.112
104.983
104.041
103.261
102.618
102.091
101.661
101.313
101.032
100.807
100.628
100.486
100.374
100.287
100.218
100.165
100.125
100.094
100.07
100.052
100.038
100.028
100.021
100.015
100.011
100.008
100.006
100.004
100.003
100.002
100.001
100.001
100.001
100
100
100
100
100
100
100
100
100
100
100
100
390.888
372.717
354.704
336.95
319.553
302.605
286.189
270.381
255.246
240.84
227.206
214.378
202.378
191.217
180.896
171.408
162.735
154.853
147.731
141.333
135.618
130.543
126.062
122.128
118.694
115.714
113.143
110.937
109.054
107.458
106.112
104.983
104.042
103.261
102.618
102.091
101.661
101.313
101.032
100.807
100.628
100.486
100.374
100.287
100.218
100.165
100.125
100.094
100.07
100.052
100.038
100.028
100.021
100.015
100.011
100.008
100.006
100.004
100.003
100.002
100.001
100.001
100.001
100
100
100
100
100
100
100
100
100
100
100
100
390.888
372.717
354.704
336.95
319.553
302.605
286.19
270.382
255.247
240.841
227.207
214.379
202.379
191.218
180.897
171.409
162.736
154.854
147.732
141.334
135.619
130.544
126.063
122.129
118.695
115.715
113.143
110.937
109.055
107.458
106.112
104.983
104.042
103.261
102.618
102.091
101.661
101.313
101.032
100.807
100.628
100.486
100.374
100.287
100.218
100.165
100.125
100.094
100.07
100.052
100.038
100.028
100.021
100.015
100.011
100.008
100.006
100.004
100.003
100.002
100.001
100.001
100.001
100
100
100
100
100
100
100
100
100
100
100
100
390.888
372.717
354.704
336.951
319.554
302.606
286.19
270.382
255.248
240.842
227.208
214.38
202.38
191.219
180.898
171.41
162.737
154.855
147.733
141.335
135.62
130.545
126.063
122.129
118.695
115.715
113.144
110.937
109.055
107.459
106.112
104.983
104.042
103.261
102.618
102.091
101.661
101.313
101.032
100.807
100.628
100.486
100.374
100.287
100.218
100.166
100.125
100.094
100.07
100.052
100.038
100.028
100.021
100.015
100.011
100.008
100.006
100.004
100.003
100.002
100.001
100.001
100.001
100
100
100
100
100
100
100
100
100
100
100
100
390.888
372.718
354.704
336.951
319.554
302.606
286.191
270.383
255.248
240.842
227.208
214.381
202.38
191.219
180.899
171.41
162.737
154.855
147.733
141.335
135.62
130.545
126.064
122.13
118.696
115.715
113.144
110.937
109.055
107.459
106.112
104.983
104.042
103.262
102.618
102.091
101.661
101.313
101.032
100.807
100.628
100.486
100.374
100.287
100.218
100.166
100.125
100.094
100.07
100.052
100.038
100.028
100.021
100.015
100.011
100.008
100.006
100.004
100.003
100.002
100.001
100.001
100.001
100
100
100
100
100
100
100
100
100
100
100
100
390.888
372.718
354.705
336.951
319.555
302.607
286.191
270.383
255.249
240.843
227.209
214.381
202.381
191.22
180.899
171.411
162.738
154.856
147.734
141.335
135.62
130.545
126.064
122.13
118.696
115.716
113.144
110.937
109.055
107.459
106.112
104.983
104.042
103.262
102.618
102.091
101.661
101.313
101.032
100.807
100.628
100.486
100.374
100.287
100.218
100.166
100.125
100.094
100.07
100.052
100.038
100.028
100.021
100.015
100.011
100.008
100.006
100.004
100.003
100.002
100.001
100.001
100.001
100
100
100
100
100
100
100
100
100
100
100
100
390.888
372.718
354.705
336.951
319.555
302.607
286.191
270.384
255.249
240.843
227.209
214.381
202.381
191.22
180.9
171.411
162.738
154.856
147.734
141.336
135.621
130.545
126.064
122.13
118.696
115.716
113.144
110.938
109.055
107.459
106.112
104.983
104.042
103.262
102.618
102.091
101.661
101.313
101.032
100.807
100.628
100.486
100.374
100.287
100.218
100.166
100.125
100.094
100.07
100.052
100.038
100.028
100.021
100.015
100.011
100.008
100.006
100.004
100.003
100.002
100.001
100.001
100.001
100
100
100
100
100
100
100
100
100
100
100
100
390.888
372.718
354.705
336.951
319.555
302.607
286.191
270.384
255.249
240.843
227.209
214.382
202.381
191.22
180.9
171.411
162.738
154.856
147.734
141.336
135.621
130.546
126.064
122.13
118.696
115.716
113.144
110.938
109.055
107.459
106.113
104.983
104.042
103.262
102.618
102.091
101.661
101.313
101.032
100.807
100.628
100.486
100.374
100.287
100.218
100.166
100.125
100.094
100.07
100.052
100.038
100.028
100.021
100.015
100.011
100.008
100.006
100.004
100.003
100.002
100.001
100.001
100.001
100
100
100
100
100
100
100
100
100
100
100
100
390.888
372.718
354.705
336.951
319.555
302.607
286.192
270.384
255.249
240.843
227.21
214.382
202.382
191.221
180.9
171.411
162.738
154.856
147.734
141.336
135.621
130.546
126.064
122.13
118.696
115.716
113.144
110.938
109.055
107.459
106.113
104.983
104.042
103.262
102.618
102.091
101.661
101.313
101.032
100.807
100.628
100.486
100.374
100.287
100.218
100.166
100.125
100.094
100.07
100.052
100.038
100.028
100.021
100.015
100.011
100.008
100.006
100.004
100.003
100.002
100.001
100.001
100.001
100
100
100
100
100
100
100
100
100