/*--------------------------------*- C++ -*----------------------------------*\
  =========                 |
  \\      /  F ield         | OpenFOAM: The Open Source CFD Toolbox
   \\    /   O peration     | Website:  https://openfoam.org
    \\  /    A nd           | Version:  10
     \\/     M anipulation  |
\*---------------------------------------------------------------------------*/
FoamFile
{
    format      ascii;
    class       volScalarField;
    location    "412";
    object      gradTx;
}
// * * * * * * * * * * * * * * * * * * * * * * * * * * * * * * * * * * * * * //

dimensions      [0 -1 0 1 0 0 0];

internalField   nonuniform List<scalar> 
11250
(
14304.6
8118.22
5333.7
3859.8
2970
2377.08
1952.48
1632.02
1380.59
1177.53
1009.92
869.284
749.807
647.377
558.978
482.336
415.687
357.632
307.033
262.945
224.57
191.222
162.306
137.296
115.729
97.19
81.3106
67.7593
56.2401
46.488
38.2665
31.3654
25.5982
20.8004
16.8272
13.5524
10.8658
8.67233
6.89004
5.44887
4.28923
3.36069
2.62086
2.03431
1.57159
1.20838
0.924706
0.704261
0.533811
0.402681
0.302309
0.225866
0.167942
0.124272
0.091514
0.067066
0.048912
0.0354997
0.0256406
0.01843
0.013183
0.00938405
0.00664742
0.00468592
0.00328701
0.00229424
0.00159307
0.00110007
0.00075478
0.000513537
0.000344891
0.000226163
0.000140864
7.67555e-05
2.43404e-05
4100.45
4716.97
4024.11
3277.11
2674.9
2210.87
1850.77
1565.67
1335.14
1145.19
986.21
851.477
736.181
636.789
550.65
475.721
410.392
353.367
303.582
260.143
222.289
189.363
160.788
136.058
114.718
96.3664
80.6401
67.2144
55.798
46.1302
37.9777
31.1329
25.4116
20.651
16.7081
13.4577
10.7909
8.61319
6.84356
5.41249
4.26086
3.33865
2.60382
2.02118
1.56152
1.20069
0.918863
0.699839
0.530479
0.400181
0.300442
0.224478
0.166915
0.123515
0.0909591
0.0666611
0.0486178
0.035287
0.0254875
0.0183203
0.0131047
0.00932854
0.00660822
0.00465836
0.00326773
0.00228082
0.00158377
0.00109367
0.000750396
0.000510561
0.000342897
0.000224857
0.000140052
7.63137e-05
2.42005e-05
1480.85
2625.72
2769.69
2551.02
2243.4
1942.85
1676.44
1447.44
1252.02
1084.97
941.484
817.575
710.05
616.373
534.522
462.865
400.072
345.037
296.829
254.651
217.813
185.709
157.804
133.62
112.728
94.7429
79.3176
66.1389
54.9253
45.4236
37.407
30.6733
25.0426
20.3557
16.4726
13.2705
10.6426
8.49616
6.75156
5.34045
4.20468
3.29502
2.57006
1.99518
1.54158
1.18547
0.907286
0.691075
0.523874
0.395226
0.296741
0.221726
0.164878
0.122015
0.0898588
0.0658579
0.0480343
0.034865
0.0251837
0.0181027
0.0129496
0.00921841
0.00653043
0.00460368
0.00322947
0.00225418
0.00156532
0.00108095
0.000741693
0.000504651
0.000338935
0.000222264
0.00013844
7.54359e-05
2.39224e-05
678.31
1535.98
1878.91
1915.26
1806.59
1642.78
1467.09
1298.28
1143.4
1004.24
880.381
770.592
673.437
587.52
511.571
444.472
385.24
333.02
287.057
246.683
211.304
180.387
153.45
130.058
109.817
92.3657
77.3793
64.5615
53.6443
44.3857
36.5684
29.9977
24.4999
19.9212
16.1258
12.9948
10.4241
8.32372
6.61598
5.23426
4.12184
3.23066
2.52028
1.95683
1.51216
1.163
0.890198
0.678138
0.514123
0.387909
0.291275
0.217662
0.16187
0.119798
0.0882334
0.0646713
0.0471721
0.0342414
0.0247349
0.0177811
0.0127202
0.00905564
0.00641545
0.00452284
0.00317291
0.0022148
0.00153804
0.00106216
0.000728824
0.000495913
0.000333078
0.000218429
0.000136054
7.41374e-05
2.35108e-05
374.914
961.59
1295.72
1425.89
1426.65
1356.63
1253.19
1137.8
1021.89
911.22
808.356
714.225
628.898
552.031
483.091
421.48
366.591
317.835
274.658
236.538
202.993
173.573
147.864
125.48
106.068
89.3009
74.8774
62.5231
51.9872
43.0421
35.4819
29.1216
23.7957
19.3571
15.6755
12.6365
10.1401
8.09948
6.43959
5.09607
4.01401
3.14687
2.45544
1.90687
1.47383
1.13371
0.867925
0.661272
0.501409
0.378368
0.284147
0.212361
0.157946
0.116907
0.0861123
0.0631228
0.0460468
0.0334275
0.0241489
0.0173612
0.0124208
0.00884309
0.00626529
0.00441727
0.00309904
0.00216337
0.0015024
0.0010376
0.000712013
0.000484497
0.000325424
0.000213418
0.000132937
7.24406e-05
2.2973e-05
234.868
640.334
917.454
1067.27
1119.18
1105.89
1053.56
980.36
897.927
813.332
730.681
652.236
579.141
511.875
450.529
394.968
344.932
300.096
260.1
224.577
193.158
165.485
141.215
120.02
101.588
85.6308
71.8767
60.0749
49.9947
41.4247
34.1727
28.0651
22.9459
18.6758
15.1312
12.2032
9.79651
7.82804
6.22599
4.92866
3.88333
3.04529
2.3768
1.84626
1.42731
1.09817
0.840883
0.640791
0.485966
0.366776
0.275486
0.205919
0.153176
0.113391
0.0835335
0.0612398
0.0446782
0.0324375
0.0234361
0.0168504
0.0120565
0.00858447
0.00608257
0.00428879
0.00300914
0.00210076
0.00145903
0.00100771
0.000691544
0.000470597
0.000316105
0.000207316
0.000129142
7.03743e-05
2.2318e-05
159.284
447.996
667.447
807.842
878.558
896.139
877.031
834.637
778.813
716.366
651.802
587.993
526.707
468.975
415.343
366.046
321.117
280.458
243.893
211.195
182.109
156.367
133.696
113.826
96.4952
81.4503
68.4523
57.2765
47.7138
39.5708
32.6703
26.8515
21.9688
17.8917
14.5043
11.7039
9.40027
7.51482
5.97938
4.73527
3.73231
2.92785
2.28586
1.77613
1.37348
1.05702
0.809569
0.617067
0.468074
0.353343
0.265446
0.19845
0.147645
0.109314
0.080542
0.0590551
0.0430902
0.0312885
0.0226088
0.0162574
0.0116335
0.00828417
0.00587038
0.00413957
0.00290471
0.00202803
0.00140863
0.000972985
0.000667762
0.000454445
0.000305275
0.000200225
0.00012473
6.79725e-05
2.15567e-05
113.744
325.477
497.412
619.361
692.66
724.969
725.951
704.747
668.927
624.293
575.071
524.225
473.774
425.048
378.883
335.774
295.975
259.576
226.551
196.799
170.168
146.473
125.509
107.063
90.918
76.8613
64.6855
54.1926
45.196
37.5213
31.0073
25.5065
20.8846
17.021
13.8075
11.1484
8.95914
7.16589
5.70448
4.51959
3.56379
2.79672
2.18427
1.69777
1.31329
1.011
0.774539
0.590521
0.448047
0.338303
0.254203
0.190083
0.141447
0.104745
0.077189
0.0566059
0.0413096
0.03
0.0216808
0.0155922
0.0111589
0.00794719
0.00563224
0.00397209
0.00278748
0.00194638
0.00135205
0.000933987
0.000641053
0.000436304
0.000293111
0.000192259
0.000119774
6.52744e-05
2.07015e-05
84.1366
243.291
378.245
480.748
549.279
586.946
599.137
591.784
570.366
539.481
502.759
462.948
422.058
381.518
342.313
305.095
270.27
238.062
208.567
181.786
157.653
136.058
116.858
99.8919
84.9879
71.9694
60.6607
50.8908
42.4953
35.3193
29.2179
24.0573
19.7151
16.0807
13.0543
10.5474
8.48146
6.78774
5.40636
4.28553
3.3808
2.65427
2.07386
1.61256
1.24782
0.960917
0.736399
0.561607
0.426227
0.321911
0.241945
0.180959
0.134688
0.0997598
0.0735298
0.0539325
0.0393656
0.0285931
0.0206673
0.0148656
0.0106404
0.00757898
0.005372
0.00378903
0.00265933
0.00185711
0.00129018
0.000891342
0.000611843
0.000416462
0.000279804
0.000183545
0.000114352
6.23224e-05
1.97657e-05
63.8206
185.816
292.376
377.27
438.227
476.142
493.862
495.101
483.676
463.064
436.217
405.514
372.806
339.487
306.579
274.806
244.662
216.463
190.388
166.52
144.861
125.364
107.94
92.4739
78.834
66.8787
56.462
47.4385
39.6661
33.0084
27.3369
22.5317
18.4824
15.0883
12.2585
9.91176
7.97579
6.38712
5.09027
4.03719
3.18652
2.50294
1.95649
1.52193
1.17815
0.907602
0.695782
0.530803
0.402972
0.304435
0.228873
0.171226
0.127474
0.0944387
0.069623
0.0510776
0.0372891
0.0270899
0.0195842
0.014089
0.0100862
0.00718529
0.0050937
0.00359324
0.00252225
0.00176161
0.00122398
0.000845705
0.00058058
0.000395223
0.000265559
0.000174215
0.000108547
5.91614e-05
1.87637e-05
49.3137
144.267
228.977
298.837
351.614
387.192
406.966
413.193
408.46
395.32
376.082
352.72
326.848
299.746
272.398
245.539
219.697
195.24
172.405
151.326
132.063
114.614
98.9378
84.958
72.5785
61.6887
52.1703
43.9015
36.7611
30.631
25.3985
20.9571
17.2082
14.0612
11.434
9.25243
7.45076
5.97077
4.76151
3.77869
2.98414
2.34519
1.83407
1.42736
1.10541
0.851905
0.65333
0.498594
0.378646
0.286148
0.215188
0.161034
0.119918
0.0888634
0.0655284
0.0480845
0.0351116
0.0255132
0.018448
0.013274
0.00950442
0.00677201
0.0048015
0.00338763
0.00237828
0.00166129
0.00115443
0.000797751
0.000547726
0.0003729
0.000250586
0.000164407
0.000102444
5.58379e-05
1.77101e-05
38.6362
113.424
181.191
238.537
283.523
315.62
335.416
344.244
343.822
335.983
322.49
304.929
284.66
262.809
240.276
217.763
195.798
174.768
154.938
136.48
119.489
104.004
90.0143
77.4796
66.3329
56.4912
47.8605
40.3408
33.8303
28.2278
23.4353
19.3597
15.9136
13.0163
10.594
8.58002
6.91474
5.54529
4.42522
3.51406
2.77681
2.18347
1.70849
1.33027
1.0307
0.794668
0.609682
0.465461
0.353612
0.26732
0.201095
0.150533
0.112131
0.0831152
0.0613055
0.0449969
0.0328647
0.0238858
0.0172749
0.0124325
0.00890358
0.00634507
0.00449957
0.00317514
0.00222946
0.00155757
0.00108251
0.000748158
0.000513743
0.000349807
0.000235094
0.000154258
9.6128e-05
5.23985e-05
1.66198e-05
30.5898
90.0373
144.544
191.587
229.567
257.829
276.531
286.428
288.644
284.475
275.244
262.196
246.45
228.963
210.534
191.804
173.275
155.329
138.242
122.204
107.334
93.6968
81.3093
70.1561
60.1957
51.368
43.6003
36.8122
30.9191
25.8356
21.4775
17.764
14.6184
11.9693
9.75124
7.90455
6.37568
5.11696
4.08636
3.24716
2.56753
2.0201
1.58153
1.23206
0.955072
0.7367
0.565453
0.431872
0.32822
0.248216
0.186787
0.139868
0.104219
0.0772735
0.0570126
0.041857
0.0305791
0.02223
0.0160811
0.0115758
0.00829176
0.00591022
0.00419199
0.00295863
0.00207779
0.00145185
0.0010092
0.00069759
0.000479087
0.000326253
0.000219291
0.000143904
8.96836e-05
4.88888e-05
1.55071e-05
24.4123
72.0002
116.035
154.63
186.496
210.986
228.04
238.059
241.767
240.071
233.949
224.367
212.224
198.32
183.342
167.86
152.334
137.126
122.505
108.67
95.7503
83.8273
72.938
63.0862
54.2503
46.3893
39.4485
33.3644
28.068
23.4877
19.5522
16.1919
13.3402
10.9346
8.9172
7.23521
5.84088
4.69155
3.74948
2.98158
2.3591
1.85727
1.4549
1.13403
0.879538
0.678767
0.521226
0.398265
0.302803
0.229083
0.172452
0.129179
0.0962859
0.0714137
0.0527048
0.0387053
0.0282841
0.0205669
0.0148816
0.0107148
0.00767675
0.00547301
0.00388267
0.00274084
0.0019252
0.00134546
0.000935402
0.000646684
0.000444194
0.000302533
0.000203374
0.000133475
8.31916e-05
4.5353e-05
1.43861e-05
19.5991
57.8971
93.5941
125.267
151.889
172.876
188.064
197.647
202.08
201.993
198.104
191.152
181.852
170.858
158.752
146.027
133.095
120.286
107.857
95.9994
84.8501
74.4973
64.9909
56.3489
48.5649
41.6132
35.4543
30.0388
25.3112
21.2126
17.6829
14.6627
12.0948
9.9248
8.10212
6.58023
5.31692
4.2743
3.4187
2.72056
2.15407
1.69695
1.33013
1.03738
0.80501
0.621568
0.477533
0.365046
0.277666
0.210151
0.158262
0.118593
0.0884259
0.0656057
0.0484336
0.0355792
0.026007
0.0189162
0.0136907
0.00985981
0.00706583
0.00503859
0.00357524
0.00252434
0.00177347
0.00123965
0.000861996
0.000596036
0.000409471
0.000278926
0.00018753
0.000123091
7.67276e-05
4.1832e-05
1.32697e-05
15.8047
46.7481
75.7596
101.757
123.927
141.764
155.068
163.909
168.569
169.481
167.167
162.19
155.112
146.463
136.724
126.318
115.603
104.876
94.372
84.2727
74.7113
65.7798
57.5347
50.004
43.1921
37.0856
31.6569
26.8688
22.6772
19.0339
15.8891
13.1927
10.8955
8.95086
7.31481
5.94672
4.8095
3.86974
3.09765
2.46696
1.95467
1.54091
1.20859
0.943153
0.732303
0.565731
0.434854
0.332578
0.253084
0.191628
0.144371
0.108225
0.0807247
0.0599127
0.0442453
0.0325126
0.0237726
0.0172959
0.0125214
0.00902003
0.0064656
0.00461166
0.00327304
0.00231147
0.00162425
0.00113557
0.000789772
0.000546194
0.000375293
0.000255685
0.00017193
0.000112866
7.03612e-05
3.8364e-05
1.21701e-05
12.7853
37.857
61.4763
82.8145
101.228
116.292
127.803
135.761
140.334
141.819
140.595
137.087
131.733
124.957
117.156
108.684
99.85
90.9126
82.0839
73.5308
65.3796
57.7209
50.6142
44.0932
38.1701
32.8404
28.0863
23.8802
20.1879
16.9705
14.1868
11.7949
9.75316
8.0217
6.5626
5.3406
4.3234
3.48173
2.78939
2.2232
1.76284
1.39066
1.09146
0.852271
0.662125
0.511799
0.393604
0.301179
0.229297
0.173694
0.130915
0.0981771
0.0732579
0.0543906
0.040181
0.0295358
0.0216027
0.0157218
0.0113851
0.00820368
0.00588196
0.00419641
0.00297903
0.00210431
0.001479
0.00103423
0.000719435
0.000497644
0.000341995
0.000233038
0.000156725
0.000102899
6.41546e-05
3.49826e-05
1.10979e-05
10.365
30.7172
49.9667
67.475
82.7334
95.3893
105.253
112.287
116.589
118.358
117.869
115.442
111.416
106.13
99.9043
93.0349
85.7827
78.3717
70.9887
63.7838
56.8736
50.3441
44.2548
38.6421
33.5233
28.9004
24.7631
21.0916
17.8596
15.0362
12.5878
10.4794
8.67626
7.14434
5.85124
4.76661
3.86247
3.11336
2.4964
1.99129
1.58015
1.24742
0.9797
0.765493
0.595066
0.460226
0.354132
0.271114
0.206508
0.156503
0.118009
0.0885355
0.0660895
0.0490868
0.0362758
0.0266742
0.0195161
0.0142077
0.0102916
0.00741785
0.00531996
0.00379644
0.00269575
0.00190466
0.00133898
0.000936523
0.000651599
0.000450809
0.000309866
0.000211182
0.00014205
9.32764e-05
5.81621e-05
3.17176e-05
1.00625e-05
8.41374
24.9528
40.6479
55.0044
67.6202
78.2056
86.5913
92.7239
96.6536
98.5149
98.5059
96.8662
93.8577
89.7481
84.7972
79.2477
73.3182
67.2001
61.0553
55.0166
49.1893
43.6531
38.465
33.6621
29.2645
25.2787
21.6999
18.5145
15.7029
13.2406
11.1003
9.25346
7.67087
6.32391
5.18504
4.2283
3.42962
2.76701
2.22061
1.77275
1.40782
1.11219
0.874095
0.683423
0.531596
0.411379
0.316721
0.2426
0.184881
0.140179
0.105748
0.0793705
0.0592723
0.0440405
0.0325585
0.0239493
0.0175283
0.0127646
0.00924915
0.00666843
0.00478383
0.00341475
0.00242535
0.00171402
0.00120524
0.000843176
0.000586777
0.000406045
0.000279152
0.000190284
0.000128014
8.40721e-05
5.24291e-05
2.85938e-05
9.0719e-06
6.83384
20.2798
33.0756
44.8365
55.2442
64.0627
71.1451
76.4326
79.9469
81.7773
82.0661
80.9929
78.7592
75.5757
71.6508
67.1827
62.3531
57.3231
52.2317
47.1946
42.3052
37.6358
33.2395
29.1524
25.3959
21.9793
18.9018
16.1547
13.7234
11.5889
9.72941
8.12144
6.7409
5.5638
4.56688
3.72811
3.02689
2.44436
1.9634
1.56872
1.24676
0.985687
0.775214
0.606515
0.47207
0.365532
0.281583
0.215802
0.164542
0.124819
0.0942038
0.0707371
0.0528471
0.0392821
0.0290518
0.0213776
0.0156515
0.0114017
0.00826418
0.00596009
0.00427691
0.00305375
0.00216952
0.00153362
0.00107865
0.000754786
0.000525383
0.000363637
0.000250047
0.000170477
0.000114708
7.53452e-05
4.69928e-05
2.56312e-05
8.13237e-06
5.55054
16.4802
26.9065
36.5289
45.0956
52.4149
58.3622
62.8794
65.971
67.6956
68.1553
67.4842
65.8371
63.3792
60.2769
56.691
52.7711
48.652
44.4513
40.2688
36.1861
32.2677
28.5618
25.1025
21.9114
18.9992
16.3679
14.0125
11.9223
10.0829
8.47695
7.08533
5.88825
4.86576
3.99835
3.26742
2.65548
2.14643
1.72562
1.37989
1.09756
0.868379
0.68344
0.535073
0.416732
0.322879
0.248869
0.190835
0.145582
0.11049
0.0834292
0.0626747
0.0468439
0.0348341
0.0257722
0.0189714
0.0138948
0.0101254
0.00734149
0.0052963
0.00380171
0.00271523
0.00192955
0.00136434
0.000959829
0.000671803
0.000467728
0.000323803
0.000222702
0.000151863
0.000102202
6.7141e-05
4.18812e-05
2.28453e-05
7.24882e-06
4.50585
13.3845
21.8718
29.7325
36.7671
42.8208
47.7889
51.6178
54.3021
55.8794
56.4228
56.0325
54.8271
52.9356
50.4904
47.6212
44.4504
41.0898
37.6382
34.1805
30.7872
27.5149
24.4068
21.4942
18.7979
16.3292
14.092
12.0838
10.2972
8.72127
7.3423
6.14497
5.11308
4.23013
3.47988
2.8467
2.31585
1.87367
1.50767
1.20662
0.960506
0.760519
0.598982
0.46927
0.365719
0.283529
0.218667
0.167769
0.128053
0.0972365
0.0734568
0.0552085
0.0412816
0.0307107
0.0227306
0.0167388
0.0122641
0.00894018
0.00648431
0.0046794
0.00335993
0.00240041
0.0017063
0.00120681
0.000849224
0.000594534
0.000414029
0.000286692
0.00019722
0.000134514
9.05425e-05
5.94912e-05
3.71143e-05
2.0247e-05
6.42468e-06
3.65425
10.8591
17.7588
24.1688
29.931
34.9207
39.0511
42.2742
44.5795
45.9906
46.5597
46.3613
45.4864
44.0355
42.1134
39.8244
37.2679
34.5361
31.7111
28.8647
26.0571
23.3372
20.7433
18.3034
16.037
13.9555
12.0637
10.361
8.84249
7.49992
6.32264
5.29841
4.41406
3.65605
3.01092
2.46563
2.00782
1.62597
1.30952
1.04892
0.835643
0.662158
0.52189
0.409154
0.319077
0.247523
0.191011
0.146633
0.111981
0.085076
0.0643017
0.0483503
0.0361696
0.0269192
0.0199324
0.0146839
0.0107625
0.00784839
0.00569437
0.00411069
0.0029525
0.00210996
0.00150027
0.00106138
0.000747087
0.000523162
0.000364414
0.000252395
0.000173664
0.000118472
7.97595e-05
5.24148e-05
3.27041e-05
1.78429e-05
5.66209e-06
2.95961
8.79791
14.3977
19.6141
24.3217
28.4205
31.8389
34.5352
36.4967
37.7375
38.2948
38.2241
37.595
36.4856
34.9788
33.1578
31.1032
28.8903
26.5871
24.2536
21.9407
19.6904
17.5358
15.5022
13.6068
11.8609
10.2697
8.83385
7.55026
6.41286
5.41342
4.54222
3.78864
3.14161
2.59007
2.12319
1.73066
1.40283
1.13081
0.906534
0.722786
0.573168
0.452079
0.354668
0.276768
0.214837
0.165887
0.127419
0.0973607
0.0740065
0.055963
0.0421001
0.0315083
0.0234601
0.0173783
0.0128074
0.00939073
0.00685052
0.0049721
0.00359049
0.00257969
0.0018441
0.00131162
0.00092818
0.000653504
0.000457746
0.000318927
0.000220942
0.000152057
0.000103753
6.98638e-05
4.59196e-05
2.86554e-05
1.56356e-05
4.96194e-06
2.39299
7.11569
11.6517
15.8871
19.7227
23.0782
25.8951
28.1378
29.7931
30.869
31.3918
31.403
30.9554
30.1099
28.9318
27.4872
25.841
24.0546
22.1838
20.2785
18.3813
16.5279
14.7467
13.0598
11.4827
10.0258
8.69436
7.48999
6.41083
5.45252
4.60874
3.87184
3.23329
2.68413
2.21527
1.8178
1.48317
1.20333
0.970852
0.778957
0.621564
0.493275
0.389347
0.305665
0.238686
0.185393
0.143238
0.110085
0.0841622
0.0640075
0.0484261
0.0364477
0.0272904
0.0203286
0.0150649
0.011107
0.00814703
0.00594543
0.00431672
0.00311827
0.00224114
0.00160259
0.00114018
0.000807093
0.000568406
0.000398245
0.00027754
0.000192317
0.000132387
9.03508e-05
6.08511e-05
4.00027e-05
2.49666e-05
1.36242e-05
4.32386e-06
1.93104
5.74357
9.40988
12.8403
15.9565
18.6941
21.0056
22.8611
24.2478
25.1698
25.6456
25.7061
25.3917
24.7495
23.8307
22.6879
21.3731
19.9359
18.422
16.8724
15.3227
13.8029
12.3372
10.9445
9.63871
8.429
7.32071
6.31577
5.41331
4.61022
3.90174
3.28186
2.74378
2.28028
1.88395
1.54749
1.26383
1.02632
0.828757
0.665503
0.531457
0.422086
0.333399
0.261923
0.204664
0.159068
0.122973
0.0945651
0.0723367
0.055043
0.0416648
0.031374
0.0235023
0.0175146
0.0129851
0.00957745
0.00702786
0.00513062
0.00372645
0.00269281
0.00193599
0.00138482
0.000985548
0.000697836
0.000491598
0.000344522
0.000240162
0.000166457
0.000114612
7.82371e-05
5.2703e-05
3.46524e-05
2.16305e-05
1.18049e-05
3.74668e-06
1.55479
4.62557
7.58177
10.3529
12.877
15.1028
16.9918
18.5191
19.673
20.4551
20.8785
20.966
20.7484
20.2622
19.5476
18.646
17.5991
16.4467
15.2261
13.9708
12.7103
11.4694
10.2688
9.1244
8.04837
7.04892
6.13102
5.29681
4.54605
3.87662
3.28493
2.76631
2.31539
1.92634
1.59318
1.30994
1.07084
0.870381
0.703447
0.565344
0.45183
0.359116
0.283865
0.223162
0.174492
0.135704
0.104974
0.0807707
0.061819
0.0470647
0.0356438
0.0268531
0.0201251
0.0150045
0.0111289
0.00821175
0.00602809
0.00440241
0.0031987
0.00231225
0.00166294
0.00118989
0.00084708
0.000599969
0.000422774
0.00029637
0.000206649
0.000143265
9.86665e-05
6.73671e-05
4.53899e-05
2.98492e-05
1.8635e-05
1.01712e-05
3.22837e-06
1.24878
3.71595
6.09336
8.32565
10.3638
12.1671
13.7046
14.9555
15.9098
16.5674
16.9373
17.0367
16.8889
16.5221
15.9677
15.2584
14.4274
13.5066
12.526
11.5131
10.4919
9.48314
8.50398
7.56802
6.68556
5.86386
5.10743
4.41845
3.79713
3.24203
2.7505
2.31893
1.94307
1.6183
1.33977
1.10266
0.902232
0.733991
0.593723
0.477552
0.381964
0.303815
0.240324
0.189062
0.147926
0.115116
0.0891016
0.0685978
0.0525314
0.040015
0.0303202
0.0228537
0.0171357
0.0127815
0.00948415
0.00700103
0.00514137
0.00375625
0.00273021
0.00197428
0.00142036
0.00101665
0.000723973
0.000512928
0.000361543
0.000253516
0.000176815
0.000122613
8.44634e-05
5.76825e-05
3.88726e-05
2.5568e-05
1.59646e-05
8.71459e-06
2.76617e-06
1.00033
2.97722
4.88382
6.67669
8.31719
9.77304
11.0193
12.0391
12.8236
13.372
13.6906
13.7919
13.6939
13.4182
12.9892
12.4328
11.7752
11.0418
10.257
9.44275
8.61885
7.80231
7.00732
6.2453
5.525
4.85268
4.23239
3.66622
3.15463
2.69672
2.29053
1.93329
1.62169
1.35203
1.12045
0.923029
0.755945
0.615523
0.498314
0.401135
0.321091
0.255586
0.202318
0.159272
0.124699
0.0971014
0.0752034
0.0579312
0.0443876
0.0338296
0.0256465
0.0193403
0.0145082
0.0108265
0.008037
0.00593524
0.00436042
0.00318692
0.00231725
0.00167625
0.00120636
0.000863753
0.000615288
0.000436057
0.000307449
0.000215645
0.000150442
0.000104351
7.19006e-05
4.91141e-05
3.31052e-05
2.17785e-05
1.36005e-05
7.42488e-06
2.35692e-06
0.799037
2.37853
3.90305
5.33853
6.65459
7.82566
8.83182
9.65932
10.3007
10.7547
11.0256
11.1227
11.0597
10.8532
10.5223
10.087
9.56823
8.98619
8.36026
7.70829
7.04626
6.38809
5.74546
5.12787
4.54266
3.99519
3.48901
3.02607
2.60696
2.23116
1.89723
1.60308
1.34611
1.12341
0.931889
0.768412
0.629881
0.513319
0.415916
0.335073
0.268416
0.213814
0.169371
0.133425
0.104531
0.0814474
0.0631175
0.048649
0.0372961
0.0284399
0.0215715
0.0162753
0.0122148
0.00911916
0.00677249
0.0050035
0.00367738
0.00268874
0.00195574
0.00141525
0.00101887
0.000729749
0.000519996
0.000368635
0.000259988
0.000182407
0.000127288
8.83129e-05
6.0865e-05
4.15853e-05
2.80363e-05
1.84473e-05
1.15219e-05
6.29084e-06
1.99705e-06
0.636337
1.8945
3.10973
4.25536
5.30753
6.24605
7.05509
7.72351
8.24507
8.6183
8.84618
8.93563
8.89691
8.74285
8.48816
8.1487
7.74073
7.28036
6.783
6.26297
5.73316
5.20487
4.68767
4.18938
3.71612
3.27243
2.86137
2.48469
2.14306
1.8362
1.56309
1.32214
1.11134
0.92839
0.770847
0.636201
0.521964
0.425732
0.34523
0.278344
0.223141
0.177877
0.141002
0.111151
0.0871369
0.0679366
0.0526786
0.0406263
0.0311627
0.0237755
0.0180427
0.0136196
0.0102264
0.00763816
0.00567507
0.00419448
0.00308402
0.00225577
0.00164142
0.00118822
0.000855719
0.000613098
0.000437013
0.000309901
0.000218629
0.000153433
0.000107098
7.43242e-05
5.12366e-05
3.50148e-05
2.36115e-05
1.55388e-05
9.70676e-06
5.30035e-06
1.68273e-06
0.505174
1.50421
2.46977
3.38102
4.21926
4.9686
5.61649
6.15398
6.57591
6.8808
7.07066
7.15062
7.12842
7.01392
6.81851
6.55453
6.23474
5.87186
5.47811
5.06491
4.64263
4.22038
3.80593
3.4057
3.02474
2.66684
2.33461
2.02962
1.75253
1.50322
1.28099
1.08464
0.912604
0.7631
0.634191
0.523882
0.430183
0.351163
0.284989
0.229951
0.184482
0.147165
0.116737
0.0920843
0.0722352
0.056353
0.0437223
0.0337383
0.0258933
0.0197656
0.0150073
0.0113338
0.0085141
0.00636211
0.00472903
0.00349671
0.00257201
0.001882
0.00136995
0.000992059
0.000714698
0.00051223
0.000365232
0.000259078
0.000182828
0.000128344
8.96101e-05
6.22041e-05
4.28919e-05
2.93189e-05
1.97747e-05
1.30162e-05
8.13221e-06
4.44105e-06
1.40999e-06
0.399733
1.1904
1.95501
2.67733
3.34273
3.93877
4.4555
4.88578
5.22538
5.47292
5.62974
5.69962
5.68841
5.60366
5.45415
5.24949
4.99964
4.7146
4.40403
4.077
3.74178
3.4057
3.07503
2.75498
2.44972
2.16237
1.89514
1.64939
1.42575
1.22421
1.0443
0.885097
0.745427
0.623889
0.518963
0.429068
0.352623
0.288084
0.233979
0.188935
0.151687
0.121089
0.0961176
0.0758685
0.0595523
0.0464868
0.0360886
0.0278633
0.0213961
0.0163412
0.0124135
0.00937945
0.00704925
0.00526987
0.00391885
0.00289887
0.00213312
0.00156146
0.00113704
0.000823694
0.000593609
0.000425586
0.00030355
0.00021539
0.000152043
0.000106763
7.45627e-05
5.17721e-05
3.57075e-05
2.44136e-05
1.64698e-05
1.08428e-05
6.77539e-06
3.7005e-06
1.17491e-06
0.315227
0.93885
1.54224
2.11276
2.63903
3.1113
3.52173
3.86466
4.13665
4.33645
4.46495
4.52493
4.5208
4.45833
4.34429
4.1861
3.99154
3.76843
3.52438
3.26655
3.00153
2.73515
2.47247
2.21768
1.97418
1.74455
1.53062
1.33356
1.15393
0.991825
0.846894
0.718475
0.605661
0.507368
0.422407
0.349534
0.287494
0.235061
0.191061
0.154393
0.124043
0.0990901
0.0787078
0.0621664
0.0488272
0.0381376
0.029624
0.0228849
0.0175826
0.0134356
0.0102114
0.0077193
0.00580423
0.00434107
0.00322955
0.00238997
0.00175936
0.00128835
0.000938522
0.000680124
0.000490313
0.000351645
0.000250891
0.00017808
0.000125743
8.83208e-05
6.16994e-05
4.28517e-05
2.95623e-05
2.02168e-05
1.36414e-05
8.98248e-06
5.61375e-06
3.06639e-06
9.73658e-07
0.247717
0.737859
1.21233
1.66132
2.07599
2.44872
2.77338
3.04549
3.26226
3.42262
3.52714
3.57785
3.57809
3.53224
3.44551
3.32362
3.17262
2.99862
2.80756
2.60509
2.39642
2.18617
1.9784
1.77647
1.58312
1.40046
1.23
1.07273
0.929167
0.799412
0.683246
0.580178
0.489519
0.410433
0.341995
0.283227
0.233142
0.190769
0.155176
0.125486
0.100889
0.0806484
0.0641014
0.0506618
0.0398155
0.0311171
0.0241845
0.0186932
0.0143697
0.0109861
0.00835386
0.0063181
0.00475285
0.0035563
0.00264686
0.00195957
0.0014431
0.00105717
0.000770396
0.000558487
0.000402761
0.00028895
0.000206225
0.000146422
0.000103419
7.26616e-05
5.07739e-05
3.52729e-05
2.43399e-05
1.66491e-05
1.12365e-05
7.4003e-06
4.62566e-06
2.52692e-06
8.02429e-07
0.193964
0.577806
0.949535
1.30157
1.62705
1.92007
2.17582
2.39077
2.56271
2.69071
2.77513
2.81747
2.82022
2.78672
2.72096
2.62735
2.51056
2.37533
2.22633
2.06796
1.90432
1.73909
1.57545
1.41612
1.26328
1.11866
0.983477
0.858569
0.744377
0.641028
0.548378
0.466071
0.393585
0.330278
0.275431
0.228284
0.188061
0.153998
0.125357
0.101444
0.0816157
0.0652849
0.0519235
0.0410626
0.0322909
0.0252511
0.0196364
0.015186
0.0116798
0.00893416
0.00679687
0.00514297
0.00387061
0.00289745
0.00215741
0.00159787
0.00117719
0.000862706
0.000628917
0.000456086
0.000329026
0.000236129
0.00016858
0.00011973
8.45918e-05
5.94503e-05
4.15535e-05
2.88749e-05
1.99299e-05
1.36357e-05
9.20469e-06
6.06327e-06
3.79052e-06
2.07092e-06
6.5767e-07
0.151316
0.4508
0.740951
1.01592
1.27041
1.49983
1.70045
1.86951
2.00524
2.10687
2.17461
2.20955
2.21358
2.18922
2.13951
2.06785
1.97783
1.87313
1.75737
1.63399
1.50619
1.37687
1.24856
1.1234
1.00313
0.889148
0.782448
0.683711
0.593321
0.511404
0.437875
0.372475
0.314809
0.26439
0.220661
0.183031
0.150896
0.123655
0.100729
0.0815705
0.0656707
0.0525646
0.0418329
0.0331029
0.0260469
0.02038
0.0158572
0.0122699
0.00944188
0.00722594
0.00549997
0.0041636
0.00313495
0.00234778
0.00174887
0.00129582
0.000955039
0.000700166
0.000510612
0.000370423
0.000267319
0.000191907
0.000137053
9.73679e-05
6.88128e-05
4.83746e-05
3.38212e-05
2.35079e-05
1.62295e-05
1.11065e-05
7.49896e-06
4.94058e-06
3.08913e-06
1.68793e-06
5.36057e-07
0.117601
0.350385
0.575997
0.789943
0.988136
1.16704
1.32376
1.45613
1.56277
1.64304
1.69705
1.7256
1.73011
1.71248
1.67503
1.62035
1.55121
1.47045
1.38086
1.28512
1.18573
1.08495
0.984768
0.886879
0.792675
0.703251
0.619422
0.541742
0.470536
0.405923
0.347855
0.296146
0.250501
0.210548
0.17586
0.14598
0.120439
0.0987664
0.0805108
0.0652419
0.0525594
0.0420967
0.0335229
0.026543
0.0208973
0.01636
0.0127363
0.00986021
0.00759147
0.00581268
0.00442639
0.00335243
0.00252532
0.00189204
0.00140998
0.00104514
0.000770588
0.000565153
0.000412301
0.000299209
0.000216
0.000155116
0.000110813
7.875e-05
5.56712e-05
3.91472e-05
2.73772e-05
1.90338e-05
1.31439e-05
8.99696e-06
6.07589e-06
4.00374e-06
2.50376e-06
1.36824e-06
4.34553e-07
0.0910471
0.271289
0.446039
0.611849
0.765584
0.904519
1.02642
1.12962
1.21301
1.27607
1.31888
1.342
1.3465
1.3338
1.30567
1.2641
1.21119
1.14912
1.08005
1.00606
0.92908
0.850877
0.773002
0.696785
0.623325
0.553492
0.487938
0.427114
0.371288
0.320571
0.274937
0.234254
0.198304
0.166804
0.139428
0.115823
0.0956257
0.078473
0.0640117
0.051906
0.0418426
0.0335341
0.0267204
0.0211693
0.0166761
0.0130625
0.0101747
0.00788113
0.00607081
0.0046506
0.00354314
0.0026847
0.00202323
0.00151651
0.0011306
0.000838383
0.000618385
0.000453696
0.000331109
0.000240371
0.000173583
0.000124696
8.91089e-05
6.33451e-05
4.47939e-05
3.15072e-05
2.20402e-05
1.53272e-05
1.05868e-05
7.24826e-06
4.89597e-06
3.22685e-06
2.01823e-06
1.10302e-06
3.5035e-07
0.0702136
0.209227
0.344047
0.47204
0.590806
0.698257
0.792678
0.872768
0.937671
0.986974
1.0207
1.03927
1.04346
1.03437
1.01331
0.981805
0.941459
0.89394
0.840906
0.783954
0.724582
0.664155
0.603882
0.544803
0.487778
0.433494
0.382471
0.335069
0.29151
0.251891
0.216204
0.184354
0.15618
0.131469
0.109972
0.0914184
0.0755292
0.0620232
0.0506266
0.0410786
0.0331352
0.0265718
0.0211852
0.0167937
0.0132366
0.010374
0.00808475
0.00626551
0.0048287
0.00370084
0.00282086
0.00213839
0.00161222
0.00120895
0.000901673
0.000668892
0.000493559
0.000362248
0.000264464
0.000192056
0.000138739
9.96975e-05
7.12669e-05
5.06769e-05
3.5846e-05
2.52205e-05
1.76471e-05
1.22752e-05
8.48078e-06
5.80771e-06
3.92371e-06
2.58653e-06
1.61798e-06
8.84361e-07
2.80896e-07
0.0539323
0.160721
0.26432
0.362721
0.454097
0.536852
0.60967
0.671553
0.721834
0.760183
0.786601
0.801395
0.805145
0.798666
0.78296
0.759167
0.728515
0.692274
0.651712
0.608055
0.562454
0.515963
0.469518
0.423926
0.379859
0.337856
0.298326
0.261559
0.227733
0.196933
0.16916
0.144348
0.122377
0.103088
0.0862921
0.0717832
0.0593466
0.0487663
0.0398312
0.0323394
0.0261017
0.020944
0.0167079
0.0132519
0.0104508
0.00819495
0.00638987
0.0049545
0.00382019
0.00292928
0.00223378
0.0016941
0.0012778
0.000958582
0.000715229
0.00053079
0.000391805
0.000287671
0.000210093
0.000152624
0.00011029
7.92793e-05
5.66888e-05
4.03226e-05
2.85301e-05
2.00787e-05
1.4053e-05
9.77767e-06
6.75685e-06
4.6282e-06
3.12749e-06
2.06199e-06
1.29005e-06
7.05204e-07
2.23989e-07
0.0412596
0.122963
0.202248
0.27759
0.347601
0.411067
0.466983
0.514585
0.553357
0.583038
0.603618
0.615318
0.618569
0.613978
0.602301
0.584397
0.561197
0.533665
0.502767
0.469439
0.434563
0.398947
0.363314
0.328287
0.294387
0.262035
0.231553
0.203168
0.177026
0.153197
0.131687
0.112452
0.0954035
0.0804215
0.0673643
0.0560751
0.0463902
0.038144
0.0311746
0.0253264
0.0204535
0.0164214
0.0131074
0.0104019
0.00820756
0.00643931
0.00502348
0.00389696
0.00300621
0.0023062
0.00175943
0.00133493
0.00100733
0.000755987
0.000564292
0.000418937
0.000309356
0.000227218
0.000166001
0.000120633
8.72015e-05
6.27025e-05
4.48492e-05
3.19105e-05
2.25846e-05
1.58987e-05
1.11303e-05
7.74609e-06
5.35421e-06
3.66823e-06
2.47931e-06
1.63492e-06
1.02301e-06
5.59288e-07
1.77658e-07
0.031436
0.0936919
0.154119
0.211568
0.264985
0.313451
0.356202
0.392656
0.422414
0.445273
0.461218
0.470406
0.473157
0.469924
0.461273
0.447849
0.430355
0.409522
0.38608
0.360742
0.334181
0.307015
0.279797
0.253007
0.227047
0.202243
0.178846
0.157035
0.136927
0.11858
0.102002
0.0871629
0.0739985
0.0624196
0.0523195