/*--------------------------------*- C++ -*----------------------------------*\
  =========                 |
  \\      /  F ield         | OpenFOAM: The Open Source CFD Toolbox
   \\    /   O peration     | Website:  https://openfoam.org
    \\  /    A nd           | Version:  10
     \\/     M anipulation  |
\*---------------------------------------------------------------------------*/
FoamFile
{
    format      ascii;
    class       volScalarField;
    location    "401";
    object      gradTz;
}
// * * * * * * * * * * * * * * * * * * * * * * * * * * * * * * * * * * * * * //

dimensions      [0 -1 0 1 0 0 0];

internalField   nonuniform List<scalar> 
11250
(
-14343.8
-4139.39
-1519.37
-716.191
-411.963
-270.903
-194.139
-147.27
-116.207
-94.3286
-78.175
-65.7888
-55.9937
-48.0489
-41.47
-35.9301
-31.2024
-27.1258
-23.5833
-20.4876
-17.7724
-15.3857
-13.2863
-11.4402
-9.81873
-8.3975
-7.15506
-6.07233
-5.13217
-4.31902
-3.6187
-3.01825
-2.50583
-2.07064
-1.70289
-1.3937
-1.13508
-0.919904
-0.741819
-0.59522
-0.475191
-0.377449
-0.298291
-0.234532
-0.183459
-0.142773
-0.110539
-0.0851421
-0.0652423
-0.0497355
-0.0377185
-0.0284571
-0.0213587
-0.015948
-0.0118463
-0.00875401
-0.00643542
-0.00470646
-0.00342421
-0.00247842
-0.0017846
-0.00127838
-0.000911039
-0.000645923
-0.000455624
-0.000319779
-0.000223352
-0.000155308
-0.000107608
-7.44372e-05
-5.16288e-05
-3.62364e-05
-2.62204e-05
-2.02239e-05
-1.74207e-05
-8235.5
-4833.6
-2741.06
-1649.42
-1072.54
-748.243
-552.372
-425.875
-339.328
-277.175
-230.695
-194.735
-166.112
-142.782
-123.392
-107.016
-93.0087
-80.9093
-70.3796
-61.1674
-53.0797
-45.9654
-39.7033
-34.1938
-29.3528
-25.1081
-21.3962
-18.1606
-15.3504
-12.9195
-10.8255
-9.02989
-7.49733
-6.19564
-5.09554
-4.17054
-3.39679
-2.75297
-2.2201
-1.78142
-1.42223
-1.12972
-0.89282
-0.701999
-0.549141
-0.427364
-0.330884
-0.254866
-0.195301
-0.148884
-0.112912
-0.0851889
-0.06394
-0.0477429
-0.0354643
-0.0262071
-0.0192661
-0.0140901
-0.0102514
-0.00741998
-0.00534283
-0.00382732
-0.00272756
-0.00193384
-0.00136411
-0.000957406
-0.00066871
-0.000464991
-0.00032218
-0.000222867
-0.000154579
-0.000108494
-7.85058e-05
-6.05523e-05
-5.21595e-05
-5528.47
-4217.8
-2961.24
-2067.3
-1479.97
-1096.66
-840.781
-664.141
-537.733
-444.094
-372.506
-316.223
-270.88
-233.582
-202.36
-175.845
-153.066
-133.32
-116.087
-100.977
-87.6866
-75.9784
-65.66
-56.5723
-48.5806
-41.5683
-35.4325
-30.0814
-25.4319
-21.4083
-17.9414
-14.9676
-12.4289
-10.2721
-8.44909
-6.91596
-5.63334
-4.56596
-3.68242
-2.95498
-2.3593
-1.87417
-1.48123
-1.1647
-0.91113
-0.709107
-0.549042
-0.422918
-0.324087
-0.247069
-0.18738
-0.141376
-0.106115
-0.079236
-0.0588591
-0.0434961
-0.0319767
-0.0233864
-0.0170153
-0.0123158
-0.00886829
-0.00635285
-0.00452746
-0.00321001
-0.00226434
-0.00158925
-0.00111004
-0.000771882
-0.000534822
-0.000369965
-0.000256607
-0.000180106
-0.000130326
-0.000100522
-8.65904e-05
-4131.01
-3546.81
-2817.75
-2177.58
-1682.45
-1316.81
-1049.21
-851.53
-702.834
-588.536
-498.7
-426.568
-367.509
-318.313
-276.722
-241.125
-210.352
-183.544
-160.054
-139.389
-121.165
-105.076
-90.8711
-78.3422
-67.3106
-57.6208
-49.135
-41.729
-35.2899
-29.7146
-24.9084
-20.7843
-17.2622
-14.2692
-11.7385
-9.60985
-7.82861
-6.34599
-5.11853
-4.10778
-3.28
-2.60576
-2.05959
-1.61958
-1.26705
-0.986168
-0.763603
-0.58822
-0.45078
-0.343669
-0.260654
-0.196668
-0.147621
-0.110232
-0.0818869
-0.0605151
-0.0444896
-0.0325386
-0.0236748
-0.0171365
-0.0123398
-0.00883986
-0.0063
-0.00446684
-0.00315096
-0.00221158
-0.00154474
-0.00107417
-0.000744285
-0.00051487
-0.000357118
-0.000250656
-0.000181378
-0.000139902
-0.000120514
-3316.22
-3019.2
-2583.9
-2141.47
-1754.17
-1437.74
-1186.68
-989.041
-832.789
-707.926
-606.756
-523.559
-454.144
-395.45
-345.234
-301.841
-264.041
-230.905
-201.724
-175.948
-153.141
-132.949
-115.082
-99.293
-85.369
-73.1225
-62.3856
-53.006
-44.8444
-37.7728
-31.673
-26.436
-21.9616
-18.1578
-14.9405
-12.2333
-9.96744
-8.08096
-6.51879
-5.23218
-4.17829
-3.31974
-2.62416
-2.06372
-1.61465
-1.25681
-0.97323
-0.74975
-0.574603
-0.438095
-0.332288
-0.25073
-0.18821
-0.140547
-0.10441
-0.0771632
-0.0567311
-0.0414932
-0.0301911
-0.0218538
-0.0157371
-0.0112739
-0.00803492
-0.00569708
-0.00401888
-0.00282081
-0.00197032
-0.00137014
-0.000949377
-0.000656758
-0.000455542
-0.000319745
-0.000231376
-0.00017847
-0.000153738
-2796.5
-2627.98
-2355.35
-2048.46
-1753.4
-1491.8
-1269.41
-1084.02
-930.403
-802.867
-696.282
-606.41
-529.892
-464.123
-407.102
-357.298
-313.531
-274.891
-240.665
-210.289
-183.306
-159.34
-138.077
-119.245
-102.606
-87.9481
-75.0802
-63.8262
-54.0242
-45.524
-38.1867
-31.8833
-26.4948
-21.9117
-18.0336
-14.7692
-12.036
-9.75974
-7.87433
-6.32113
-5.04859
-4.01172
-3.17153
-2.49445
-1.95185
-1.51941
-1.17669
-0.906559
-0.694832
-0.529798
-0.401869
-0.303251
-0.227648
-0.170007
-0.126302
-0.0933465
-0.0686322
-0.0501998
-0.0365276
-0.0264415
-0.0190414
-0.0136416
-0.00972266
-0.00689397
-0.00486334
-0.00341362
-0.00238446
-0.00165817
-0.00114898
-0.00079486
-0.000551345
-0.000386998
-0.00028005
-0.000216019
-0.000186086
-2442.96
-2338.53
-2158.82
-1941.5
-1717.19
-1504.86
-1313.55
-1145.83
-1000.78
-875.941
-768.423
-675.474
-594.689
-524.064
-461.975
-407.119
-358.459
-315.167
-276.576
-242.146
-211.43
-184.05
-159.685
-138.051
-118.897
-101.994
-87.1314
-74.1165
-62.7681
-52.9176
-44.4076
-37.0916
-30.8334
-25.5077
-20.9989
-17.2021
-14.0219
-11.3725
-9.17725
-7.36834
-5.88593
-4.67778
-3.69859
-2.90936
-2.27677
-1.77254
-1.37285
-1.05779
-0.810814
-0.618282
-0.469023
-0.353951
-0.265725
-0.198455
-0.147446
-0.108979
-0.0801304
-0.0586129
-0.0426513
-0.0308757
-0.0222356
-0.0159305
-0.0113545
-0.00805132
-0.00567998
-0.00398697
-0.00278503
-0.00193679
-0.00134208
-0.000928472
-0.000644042
-0.000452076
-0.000327152
-0.000252358
-0.000217394
-2191.11
-2121.67
-1997.3
-1839.05
-1666.69
-1494.78
-1332.21
-1183.36
-1049.61
-930.623
-825.208
-731.866
-649.088
-575.49
-509.87
-451.216
-398.68
-351.563
-309.283
-271.353
-237.358
-206.939
-179.782
-155.605
-134.149
-115.178
-98.47
-83.8182
-71.0269
-59.9122
-50.3012
-42.0321
-34.9537
-28.9262
-23.8207
-19.5192
-15.9147
-12.9106
-10.4207
-8.36837
-6.68597
-5.31448
-4.20266
-3.30634
-2.58777
-2.01491
-1.56075
-1.20269
-0.921974
-0.703111
-0.533419
-0.40258
-0.302256
-0.225754
-0.16774
-0.123986
-0.0911702
-0.0666918
-0.0485328
-0.0351351
-0.0253043
-0.0181299
-0.0129226
-0.00916365
-0.00646495
-0.00453813
-0.00317015
-0.00220469
-0.00152777
-0.00105697
-0.000733197
-0.000514674
-0.000372464
-0.000287319
-0.000247515
-2005.56
-1956.65
-1866.66
-1747.89
-1613.11
-1472.96
-1335.01
-1203.93
-1082.14
-970.516
-869.024
-777.119
-694.037
-618.958
-551.094
-489.73
-434.234
-384.06
-338.732
-297.836
-261.01
-227.927
-198.292
-171.833
-148.297
-127.443
-109.046
-92.8875
-78.7628
-66.4757
-55.8405
-46.6822
-38.8369
-32.1518
-26.4859
-21.7098
-17.7057
-14.3673
-11.5992
-9.31671
-7.44512
-5.91899
-4.68149
-3.68362
-2.88347
-2.24545
-1.73954
-1.34062
-1.02782
-0.783913
-0.594777
-0.448928
-0.337082
-0.251785
-0.187095
-0.138303
-0.101704
-0.0744021
-0.0541468
-0.0392015
-0.0282344
-0.0202303
-0.0144204
-0.0102262
-0.00721491
-0.00506477
-0.00353818
-0.00246073
-0.00170526
-0.0011798
-0.000818434
-0.000574527
-0.000415793
-0.000320753
-0.000276323
-1865.42
-1829.27
-1761.49
-1669.59
-1561.96
-1446.26
-1328.56
-1213.16
-1102.77
-998.917
-902.251
-812.902
-730.681
-655.236
-586.145
-522.975
-465.309
-412.758
-364.965
-321.604
-282.371
-246.985
-215.179
-186.7
-161.304
-138.756
-118.827
-101.296
-85.9507
-72.586
-61.0063
-51.0256
-42.469
-35.1726
-28.9848
-23.7659
-19.3884
-15.737
-12.7082
-10.2098
-8.16057
-6.48905
-5.13329
-4.03979
-3.16277
-2.4633
-1.90857
-1.47107
-1.12797
-0.860387
-0.652867
-0.492821
-0.370072
-0.276451
-0.20544
-0.151875
-0.111693
-0.0817149
-0.0594725
-0.0430599
-0.0310151
-0.0222239
-0.0158423
-0.0112351
-0.00792708
-0.00556496
-0.00388777
-0.00270397
-0.0018739
-0.00129653
-0.00089944
-0.000631416
-0.000456982
-0.00035254
-0.000303713
-1757.57
-1729.72
-1676.78
-1603.54
-1515.63
-1418.6
-1317.19
-1215.1
-1115
-1018.63
-927.058
-840.847
-760.219
-685.187
-615.634
-551.376
-492.193
-437.85
-388.109
-342.732
-301.485
-264.134
-230.45
-200.202
-173.162
-149.102
-127.798
-109.029
-92.5765
-78.2303
-65.787
-55.052
-45.8411
-37.9811
-31.311
-25.682
-20.9582
-17.016
-13.7447
-11.0452
-8.83025
-7.02301
-5.55675
-4.37382
-3.42484
-2.66783
-2.06733
-1.59365
-1.22211
-0.932303
-0.707514
-0.534126
-0.401129
-0.299678
-0.222719
-0.164663
-0.121106
-0.0886081
-0.0644938
-0.0466985
-0.0336379
-0.0241047
-0.017184
-0.0121872
-0.00859929
-0.00603715
-0.00421784
-0.00293366
-0.00203317
-0.00140678
-0.000975967
-0.000685167
-0.000495904
-0.00038258
-0.000329601
-1673.4
-1651.14
-1608.41
-1548.37
-1474.92
-1392.11
-1303.63
-1212.59
-1121.42
-1031.91
-945.31
-862.437
-783.802
-709.687
-640.219
-575.42
-515.242
-459.592
-408.344
-361.348
-318.439
-279.434
-244.142
-212.362
-183.882
-158.489
-135.963
-116.085
-98.6374
-83.4047
-70.1783
-58.7569
-48.949
-40.5734
-33.461
-27.4552
-22.4124
-18.2021
-14.7067
-11.8213
-9.45288
-7.51981
-5.95101
-4.68501
-3.66914
-2.85858
-2.21547
-1.70809
-1.31004
-0.999503
-0.758598
-0.572753
-0.43018
-0.321412
-0.238894
-0.176636
-0.129922
-0.0950657
-0.069199
-0.0501088
-0.0360968
-0.0258682
-0.0184423
-0.0130804
-0.00922996
-0.00648024
-0.00452762
-0.00314927
-0.00218269
-0.0015103
-0.00104783
-0.000735651
-0.000532466
-0.000410802
-0.000353924
-1606.99
-1588.61
-1553.07
-1502.54
-1439.79
-1367.84
-1289.57
-1207.57
-1123.99
-1040.54
-958.544
-878.96
-802.478
-729.573
-660.555
-595.613
-534.845
-478.279
-425.892
-377.618
-333.354
-292.973
-256.321
-223.226
-193.499
-166.939
-143.336
-122.476
-104.14
-88.1131
-74.1823
-62.1415
-51.7929
-42.9491
-35.4341
-29.0845
-23.7502
-19.2944
-15.5936
-12.5374
-10.0279
-7.97899
-6.31567
-4.97304
-3.8954
-3.03535
-2.35284
-1.81426
-1.39165
-1.0619
-0.806051
-0.608647
-0.457187
-0.341625
-0.25394
-0.187777
-0.138129
-0.101078
-0.0735811
-0.0532857
-0.0383879
-0.0275119
-0.0196152
-0.0139131
-0.0098181
-0.00689352
-0.00481662
-0.00335045
-0.00232223
-0.00160693
-0.00111492
-0.000782787
-0.000566608
-0.000437161
-0.000376642
-1554.15
-1538.54
-1508.17
-1464.59
-1409.84
-1346.21
-1275.98
-1201.3
-1124.06
-1045.86
-967.994
-891.496
-817.165
-745.605
-677.261
-612.453
-551.395
-494.222
-440.997
-391.729
-346.378
-304.864
-267.072
-232.86
-202.061
-174.489
-149.945
-128.22
-109.099
-92.3666
-77.8072
-65.2115
-54.377
-45.1112
-37.2324
-30.5715
-24.9727
-20.2937
-16.4058
-13.1938
-10.5554
-8.40061
-6.65076
-5.23789
-4.10359
-3.19811
-2.47938
-1.91211
-1.46691
-1.11947
-0.849853
-0.641795
-0.482138
-0.360304
-0.267851
-0.198081
-0.145721
-0.106642
-0.0776373
-0.0562272
-0.0405097
-0.0290344
-0.0207021
-0.0146848
-0.0103633
-0.0072767
-0.00508461
-0.00353704
-0.00245167
-0.00169658
-0.00117718
-0.000826535
-0.000598302
-0.000461633
-0.000397737
-1511.86
-1498.25
-1471.66
-1433.24
-1384.52
-1327.28
-1263.38
-1194.61
-1122.61
-1048.87
-974.625
-900.931
-828.646
-758.456
-690.906
-626.41
-565.28
-507.732
-453.909
-403.882
-357.668
-315.231
-276.493
-241.341
-209.628
-181.186
-155.826
-133.347
-113.537
-96.1821
-81.0659
-67.9767
-56.7088
-47.0654
-38.8602
-31.9194
-26.0823
-21.2017
-17.1446
-13.7915
-11.0362
-8.7852
-6.95668
-5.47987
-4.29394
-3.34701
-2.59522
-2.00174
-1.53588
-1.17226
-0.890034
-0.672216
-0.505045
-0.377461
-0.280632
-0.207552
-0.152701
-0.11176
-0.0813692
-0.0589342
-0.042463
-0.0304364
-0.021703
-0.0153958
-0.0108656
-0.00762984
-0.00533164
-0.00370907
-0.00257104
-0.00177927
-0.00123461
-0.000866899
-0.00062755
-0.00048422
-0.000417209
-1477.85
-1465.72
-1441.93
-1407.37
-1363.23
-1310.95
-1252.02
-1187.99
-1120.31
-1050.31
-979.184
-907.977
-837.571
-768.706
-701.992
-637.915
-576.859
-519.112
-464.876
-414.281
-367.39
-324.209
-284.693
-248.755
-216.27
-187.086
-161.024
-137.892
-117.482
-99.5811
-83.9752
-70.4504
-58.7986
-48.8197
-40.3239
-33.1331
-27.0826
-22.0214
-17.8123
-14.3323
-11.4716
-9.13377
-7.23417
-5.69953
-4.46685
-3.48237
-2.7006
-2.08332
-1.59869
-1.22036
-0.926664
-0.699961
-0.525946
-0.393122
-0.292304
-0.216204
-0.15908
-0.116438
-0.0847817
-0.0614103
-0.0442501
-0.0317195
-0.0226194
-0.0160468
-0.0113257
-0.00795335
-0.005558
-0.00386673
-0.00268046
-0.00185508
-0.00128727
-0.000903922
-0.000654381
-0.000504945
-0.000435077
-1450.4
-1439.38
-1417.7
-1386.06
-1345.43
-1296.98
-1241.99
-1181.76
-1117.59
-1050.7
-982.237
-913.197
-844.477
-776.846
-710.957
-647.352
-586.466
-528.642
-474.137
-423.124
-375.709
-331.934
-291.783
-255.194
-222.062
-192.248
-165.587
-141.893
-120.963
-102.589
-86.5553
-72.6487
-60.6592
-50.3843
-41.6312
-34.2187
-27.9787
-22.7565
-18.4118
-14.8182
-11.8633
-9.44767
-7.48427
-5.89767
-4.62294
-3.60465
-2.79585
-2.15711
-1.65554
-1.26391
-0.959851
-0.72511
-0.544901
-0.407331
-0.302897
-0.224059
-0.164874
-0.120689
-0.0878834
-0.0636616
-0.0458755
-0.0328867
-0.0234532
-0.0166393
-0.0117446
-0.00824796
-0.00576418
-0.00401037
-0.00278017
-0.00192418
-0.00133528
-0.00093768
-0.000678852
-0.000523849
-0.000451378
-1428.21
-1418.02
-1397.93
-1368.53
-1330.6
-1285.14
-1233.24
-1176.06
-1114.75
-1050.44
-984.21
-917.032
-849.796
-783.285
-718.179
-655.057
-594.397
-536.584
-481.914
-430.601
-382.786
-338.541
-297.876
-260.751
-227.079
-196.736
-169.567
-145.392
-124.017
-105.233
-88.8285
-74.5894
-62.3048
-51.7705
-42.7913
-35.1836
-28.7761
-23.4115
-18.9465
-15.2523
-12.2135
-9.72854
-7.70826
-6.07528
-4.76296
-3.71441
-2.88141
-2.22344
-1.70667
-1.30311
-0.989732
-0.747765
-0.561985
-0.420143
-0.312453
-0.231148
-0.170105
-0.124527
-0.0906857
-0.0656962
-0.0473449
-0.0339423
-0.0242075
-0.0171755
-0.0121237
-0.00851466
-0.00595087
-0.00414047
-0.00287049
-0.00198678
-0.00137879
-0.00096828
-0.000701038
-0.000540992
-0.000466161
-1410.23
-1400.68
-1381.81
-1354.12
-1318.29
-1275.17
-1225.72
-1170.96
-1111.97
-1049.79
-985.421
-919.826
-853.876
-788.359
-723.974
-661.323
-600.916
-543.169
-488.411
-436.889
-388.772
-344.158
-303.08
-265.517
-231.399
-200.613
-173.015
-148.433
-126.677
-107.542
-90.8184
-76.2917
-63.751
-52.9908
-43.8143
-36.0355
-29.4811
-23.9914
-19.4206
-15.6374
-12.5246
-9.97829
-7.90761
-6.23347
-4.88778
-3.81233
-2.9578
-2.28269
-1.75237
-1.33816
-1.01647
-0.768051
-0.577288
-0.431625
-0.321021
-0.237507
-0.174799
-0.127974
-0.0932021
-0.067524
-0.0486653
-0.0348911
-0.0248857
-0.0176577
-0.0124648
-0.00875465
-0.00611891
-0.00425759
-0.00295183
-0.00204317
-0.00141799
-0.000995854
-0.000721034
-0.000556446
-0.00047949
-1395.67
-1386.6
-1368.67
-1342.3
-1308.1
-1266.81
-1219.29
-1166.49
-1109.37
-1048.92
-986.102
-921.84
-856.992
-792.346
-728.609
-666.4
-606.251
-548.604
-493.813
-442.15
-393.808
-348.907
-307.5
-269.582
-235.096
-203.943
-175.986
-151.06
-128.981
-109.547
-92.5494
-77.7755
-65.0139
-54.0583
-44.7105
-36.7831
-30.1007
-24.5016
-19.8381
-15.9771
-12.7992
-10.199
-8.08393
-6.37352
-4.99837
-3.89916
-3.02558
-2.3353
-1.79297
-1.36932
-1.04026
-0.786103
-0.590915
-0.441854
-0.328658
-0.243177
-0.178986
-0.131049
-0.0954485
-0.0691561
-0.0498448
-0.035739
-0.0254919
-0.0180888
-0.0127698
-0.00896934
-0.00626928
-0.00436242
-0.00302465
-0.00209367
-0.0014531
-0.00102056
-0.000738952
-0.000570297
-0.000491438
-1383.87
-1375.17
-1357.96
-1332.63
-1299.69
-1259.84
-1213.86
-1162.61
-1107
-1047.96
-986.425
-923.276
-859.363
-795.469
-732.304
-670.499
-610.601
-553.071
-498.284
-446.53
-398.023
-352.9
-311.232
-273.027
-238.242
-206.785
-178.529
-153.316
-130.964
-111.276
-94.0459
-79.0608
-66.1099
-54.9863
-45.4909
-37.435
-30.6417
-24.9477
-20.2037
-16.2747
-13.0401
-10.3928
-8.23891
-6.49672
-5.09573
-3.97566
-3.08534
-2.38172
-1.82883
-1.39686
-1.06128
-0.802071
-0.602974
-0.450911
-0.335422
-0.248202
-0.182698
-0.133776
-0.0974417
-0.0706048
-0.0508921
-0.0364921
-0.0260305
-0.018472
-0.013041
-0.00916027
-0.00640303
-0.00445569
-0.00308945
-0.00213862
-0.00148436
-0.00104256
-0.000754914
-0.000582638
-0.000502085
-1374.31
-1365.9
-1349.26
-1324.72
-1292.78
-1254.06
-1209.29
-1159.28
-1104.88
-1047
-986.511
-924.287
-861.16
-797.907
-735.24
-673.797
-614.134
-556.728
-501.967
-450.159
-401.533
-356.242
-314.368
-275.933
-240.903
-209.197
-180.694
-155.24
-132.66
-112.759
-95.3319
-80.1675
-67.0553
-55.7881
-46.1663
-38
-31.1112
-25.3354
-20.5217
-16.534
-13.2502
-10.562
-8.37432
-6.60446
-5.18095
-4.04267
-3.13772
-2.42243
-1.8603
-1.42104
-1.07976
-0.816111
-0.613582
-0.458882
-0.341379
-0.252629
-0.185969
-0.136181
-0.0991998
-0.0718831
-0.0518166
-0.037157
-0.0265063
-0.0188106
-0.0132807
-0.00932906
-0.00652131
-0.0045382
-0.00314679
-0.0021784
-0.00151204
-0.00106204
-0.000769051
-0.00059357
-0.000511517
-1366.58
-1358.39
-1342.19
-1318.27
-1287.11
-1249.28
-1205.47
-1156.45
-1103.03
-1046.08
-986.447
-924.987
-862.517
-799.806
-737.567
-676.441
-616.993
-559.708
-504.988
-453.153
-404.443
-359.023
-316.988
-278.37
-243.143
-211.233
-182.526
-156.874
-134.103
-114.024
-96.4304
-81.1147
-67.8658
-56.4768
-46.7472
-38.4867
-31.5163
-25.6702
-20.7968
-16.7585
-13.4322
-10.7087
-8.4919
-6.69809
-5.25507
-4.101
-3.18336
-2.45793
-1.88775
-1.44215
-1.0959
-0.828382
-0.622859
-0.465856
-0.346593
-0.256505
-0.188836
-0.138289
-0.100741
-0.0730044
-0.0526278
-0.0377407
-0.026924
-0.019108
-0.0134913
-0.0094774
-0.00662529
-0.00461075
-0.00319722
-0.0022134
-0.00153639
-0.00107918
-0.000781497
-0.000603197
-0.000519825
-1360.33
-1352.32
-1336.45
-1313.03
-1282.47
-1245.35
-1202.3
-1154.06
-1101.43
-1045.23
-986.295
-925.462
-863.536
-801.281
-739.406
-678.555
-619.299
-562.129
-507.457
-455.611
-406.843
-361.327
-319.167
-280.403
-245.017
-212.942
-184.068
-158.252
-135.324
-115.095
-97.3634
-81.9206
-68.5567
-57.0647
-47.244
-38.9035
-31.8636
-25.9577
-21.0332
-16.9517
-13.5891
-10.8353
-8.59338
-6.77898
-5.31916
-4.15147
-3.22288
-2.48869
-1.91155
-1.46047
-1.10992
-0.839042
-0.630922
-0.471921
-0.35113
-0.25988
-0.191332
-0.140125
-0.102085
-0.0739822
-0.0533354
-0.0382501
-0.0272887
-0.0193677
-0.0136752
-0.00960702
-0.00671616
-0.00467417
-0.00324132
-0.00224401
-0.00155769
-0.00109419
-0.000792392
-0.000611627
-0.000527101
-1355.29
-1347.41
-1331.81
-1308.77
-1278.7
-1242.12
-1199.68
-1152.07
-1100.06
-1044.47
-986.098
-925.777
-864.299
-802.423
-740.855
-680.24
-621.152
-564.088
-509.465
-457.621
-408.814
-363.226
-320.969
-282.09
-246.577
-214.368
-185.358
-159.408
-136.35
-115.998
-98.1511
-82.6023
-69.1422
-57.5637
-47.6662
-39.2583
-32.1596
-26.2031
-21.2352
-17.1169
-13.7234
-10.9438
-8.68046
-6.84845
-5.37425
-4.19489
-3.2569
-2.51519
-1.93207
-1.47627
-1.12201
-0.848248
-0.63789
-0.477165
-0.355054
-0.2628
-0.193494
-0.141716
-0.103249
-0.0748298
-0.0539491
-0.038692
-0.0276052
-0.0195931
-0.0138349
-0.00971961
-0.00679513
-0.00472929
-0.00327966
-0.00227063
-0.00157623
-0.00110724
-0.000801874
-0.000618964
-0.000533435
-1351.23
-1343.46
-1328.07
-1305.33
-1275.63
-1239.49
-1197.52
-1150.41
-1098.9
-1043.79
-985.882
-925.978
-864.868
-803.305
-741.994
-681.579
-622.636
-565.667
-511.092
-459.257
-410.425
-364.784
-322.453
-283.484
-247.87
-215.553
-186.433
-160.373
-137.208
-116.754
-98.8124
-83.1757
-69.6354
-57.9848
-48.0231
-39.5585
-32.4105
-26.4112
-21.4068
-17.2574
-13.8377
-11.0362
-8.75473
-6.90776
-5.42131
-4.23202
-3.28601
-2.53789
-1.94966
-1.48982
-1.13239
-0.856152
-0.643876
-0.481672
-0.358429
-0.265313
-0.195354
-0.143086
-0.104252
-0.0755603
-0.0544781
-0.0390731
-0.0278782
-0.0197877
-0.0139728
-0.00981684
-0.00686334
-0.00477693
-0.0033128
-0.00229365
-0.00159225
-0.00111854
-0.000810079
-0.000625315
-0.000538917
-1347.97
-1340.29
-1325.06
-1302.55
-1273.14
-1237.35
-1195.76
-1149.04
-1097.93
-1043.21
-985.666
-926.099
-865.289
-803.984
-742.887
-682.64
-623.821
-566.934
-512.406
-460.583
-411.736
-366.057
-323.669
-284.629
-248.935
-216.532
-187.323
-161.174
-137.922
-117.385
-99.3646
-83.6553
-70.0486
-58.3381
-48.3229
-39.8111
-32.6218
-26.5868
-21.5517
-17.3762
-13.9345
-11.1145
-8.81771
-6.95809
-5.46129
-4.26358
-3.31078
-2.55721
-1.96464
-1.50137
-1.14124
-0.862898
-0.648987
-0.485523
-0.361313
-0.267462
-0.196946
-0.144259
-0.105112
-0.0761861
-0.0549316
-0.0393998
-0.0281124
-0.0199546
-0.0140912
-0.00990032
-0.00692192
-0.00481785
-0.00334128
-0.00231343
-0.00160603
-0.00112825
-0.000817137
-0.000630779
-0.000543636
-1345.36
-1337.74
-1322.64
-1300.31
-1271.14
-1235.61
-1194.32
-1147.91
-1097.12
-1042.71
-985.462
-926.167
-865.601
-804.506
-743.584
-683.477
-624.763
-567.949
-513.462
-461.654
-412.798
-367.092
-324.661
-285.566
-249.808
-217.336
-188.056
-161.835
-138.513
-117.908
-99.8231
-84.0542
-70.3929
-58.6329
-48.5734
-40.0225
-32.7989
-26.7341
-21.6734
-17.4761
-14.0159
-11.1805
-8.8708
-7.00056
-5.49505
-4.29025
-3.33173
-2.57356
-1.97733
-1.51115
-1.14875
-0.868623
-0.653327
-0.488794
-0.363765
-0.269289
-0.1983
-0.145257
-0.105843
-0.0767193
-0.055318
-0.0396784
-0.0283121
-0.020097
-0.0141922
-0.00997158
-0.00697194
-0.0048528
-0.00336561
-0.00233034
-0.00161781
-0.00113656
-0.000823173
-0.000635454
-0.000547673
-1343.27
-1335.71
-1320.7
-1298.52
-1269.53
-1234.21
-1193.15
-1146.99
-1096.45
-1042.29
-985.275
-926.199
-865.829
-804.906
-744.127
-684.136
-625.51
-568.757
-514.308
-462.515
-413.656
-367.929
-325.466
-286.328
-250.52
-217.994
-188.657
-162.378
-138.999
-118.338
-100.202
-84.3841
-70.678
-58.8774
-48.7816
-40.1983
-32.9463
-26.8569
-21.775
-17.5596
-14.084
-11.2357
-8.9153
-7.03618
-5.52339
-4.31267
-3.34934
-2.58732
-1.98802
-1.5194
-1.15508
-0.873452
-0.65699
-0.491557
-0.365837
-0.270834
-0.199446
-0.146101
-0.106462
-0.0771708
-0.0556454
-0.0399145
-0.0284814
-0.0202178
-0.0142779
-0.0100321
-0.00701441
-0.00488248
-0.00338628
-0.00234471
-0.00162782
-0.00114362
-0.000828307
-0.000639431
-0.000551108
-1341.61
-1334.08
-1319.16
-1297.09
-1268.24
-1233.09
-1192.21
-1146.25
-1095.9
-1041.93
-985.11
-926.208
-865.996
-805.211
-744.55
-684.653
-626.101
-569.4
-514.982
-463.205
-414.344
-368.604
-326.116
-286.946
-251.099
-218.53
-189.147
-162.821
-139.396
-118.692
-100.513
-84.6555
-70.913
-59.0792
-48.9535
-40.3438
-33.0685
-26.9588
-21.8593
-17.6289
-14.1407
-11.2817
-8.95238
-7.06589
-5.54705
-4.33139
-3.36407
-2.59883
-1.99696
-1.52631
-1.16038
-0.877502
-0.660064
-0.493877
-0.367577
-0.272133
-0.200409
-0.146812
-0.106983
-0.0775509
-0.0559212
-0.0401134
-0.0286242
-0.0203196
-0.0143502
-0.0100831
-0.00705025
-0.00490754
-0.00340373
-0.00235684
-0.00163629
-0.00114959
-0.000832648
-0.000642794
-0.000554013
-1340.29
-1332.79
-1317.93
-1295.94
-1267.21
-1232.19
-1191.45
-1145.64
-1095.46
-1041.64
-984.965
-926.203
-866.117
-805.444
-744.877
-685.058
-626.566
-569.908
-515.518
-463.754
-414.895
-369.145
-326.639
-287.443
-251.566
-218.963
-189.544
-163.182
-139.72
-118.98
-100.767
-84.8776
-71.1055
-59.2447
-49.0948
-40.4634
-33.1691
-27.0427
-21.9289
-17.6862
-14.1876
-11.3198
-8.98311
-7.09054
-5.56669
-4.34694
-3.37631
-2.6084
-2.00441
-1.53207
-1.1648
-0.880879
-0.662629
-0.495813
-0.369031
-0.273218
-0.201214
-0.147406
-0.10742
-0.0778692
-0.0561522
-0.0402801
-0.0287438
-0.020405
-0.0144108
-0.0101259
-0.00708034
-0.00492858
-0.00341839
-0.00236704
-0.00164339
-0.0011546
-0.000836297
-0.000645622
-0.000556456
-1339.25
-1331.77
-1316.96
-1295.04
-1266.39
-1231.47
-1190.85
-1145.15
-1095.09
-1041.4
-984.841
-926.19
-866.205
-805.62
-745.13
-685.374
-626.93
-570.309
-515.943
-464.191
-415.334
-369.578
-327.058
-287.843
-251.942
-219.313
-189.865
-163.474
-139.983
-119.214
-100.973
-85.0584
-71.2624
-59.3799
-49.2102
-40.5613
-33.2515
-27.1116
-21.986
-17.7333
-14.2261
-11.3511
-9.00843
-7.11085
-5.58289
-4.35978
-3.38642
-2.61632
-2.01057
-1.53683
-1.16847
-0.88368
-0.664757
-0.497421
-0.370239
-0.274119
-0.201883
-0.1479
-0.107782
-0.0781341
-0.0563445
-0.0404189
-0.0288435
-0.0204762
-0.0144614
-0.0101616
-0.00710544
-0.00494614
-0.00343063
-0.00237555
-0.00164933
-0.00115879
-0.000839347
-0.000647986
-0.000558499
-1338.42
-1330.97
-1316.19
-1294.32
-1265.74
-1230.9
-1190.36
-1144.76
-1094.8
-1041.2
-984.737
-926.172
-866.267
-805.754
-745.324
-685.619
-627.216
-570.623
-516.277
-464.536
-415.682
-369.921
-327.391
-288.162
-252.243
-219.593
-190.123
-163.708
-140.194
-119.402
-101.14
-85.2047
-71.3896
-59.4895
-49.304
-40.6409
-33.3186
-27.1677
-22.0327
-17.7718
-14.2576
-11.3768
-9.02917
-7.12751
-5.59619
-4.37033
-3.39474
-2.62284
-2.01564
-1.54076
-1.17149
-0.885989
-0.666512
-0.498747
-0.371235
-0.274864
-0.202437
-0.148309
-0.108083
-0.0783533
-0.0565037
-0.0405339
-0.0289261
-0.0205352
-0.0145033
-0.0101912
-0.00712627
-0.00496071
-0.00344079
-0.00238262
-0.00165427
-0.00116228
-0.000841882
-0.000649952
-0.000560198
-1337.77
-1330.33
-1315.58
-1293.76
-1265.23
-1230.45
-1189.98
-1144.45
-1094.56
-1041.04
-984.649
-926.154
-866.312
-805.855
-745.474
-685.809
-627.438
-570.87
-516.54
-464.808
-415.956
-370.193
-327.656
-288.415
-252.483
-219.816
-190.329
-163.896
-140.364
-119.554
-101.274
-85.3225
-71.4922
-59.5781
-49.3799
-40.7054
-33.3729
-27.2133
-22.0705
-17.803
-14.2833
-11.3976
-9.04606
-7.1411
-5.60704
-4.37894
-3.40153
-2.62816
-2.01979
-1.54397
-1.17396
-0.887881
-0.667952
-0.499836
-0.372054
-0.275476
-0.202892
-0.148645
-0.108329
-0.0785337
-0.0566348
-0.0406287
-0.0289941
-0.0205838
-0.0145378
-0.0102157
-0.00714345
-0.00497274
-0.00344917
-0.00238846
-0.00165834
-0.00116515
-0.000843977
-0.000651576
-0.000561603
-1337.27
-1329.84
-1315.11
-1293.32
-1264.82
-1230.09
-1189.68
-1144.21
-1094.38
-1040.91
-984.577
-926.135
-866.343
-805.931
-745.588
-685.956
-627.61
-571.062
-516.745
-465.021
-416.172
-370.408
-327.865
-288.616
-252.672
-219.993
-190.493
-164.046
-140.499
-119.675
-101.382
-85.4169
-71.5744
-59.6492
-49.4408
-40.7573
-33.4167
-27.25
-22.1011
-17.8283
-14.304
-11.4145
-9.05975
-7.15211
-5.61585
-4.38594
-3.40705
-2.63249
-2.02316
-1.54659
-1.17598
-0.889424
-0.669126
-0.500725
-0.372722
-0.275976
-0.203263
-0.14892
-0.108531
-0.0786814
-0.0567421
-0.0407062
-0.0290499
-0.0206237
-0.0145662
-0.0102357
-0.00715754
-0.00498261
-0.00345606
-0.00239325
-0.00166169
-0.00116752
-0.000845698
-0.000652912
-0.000562757
-1336.87
-1329.45
-1314.74
-1292.97
-1264.51
-1229.81
-1189.44
-1144.01
-1094.23
-1040.81
-984.518
-926.119
-866.365
-805.987
-745.676
-686.068
-627.744
-571.211
-516.905
-465.188
-416.341
-370.576
-328.029
-288.774
-252.822
-220.134
-190.622
-164.164
-140.606
-119.771
-101.467
-85.4921
-71.6401
-59.706
-49.4896
-40.7988
-33.4519
-27.2794
-22.1256
-17.8486
-14.3207
-11.4281
-9.07078
-7.161
-5.62295
-4.39159
-3.41151
-2.63599
-2.0259
-1.5487
-1.17761
-0.890675
-0.670078
-0.501445
-0.373265
-0.276382
-0.203565
-0.149143
-0.108696
-0.0788015
-0.0568294
-0.0407694
-0.0290953
-0.0206562
-0.0145893
-0.010252
-0.00716904
-0.00499066
-0.00346167
-0.00239716
-0.00166442
-0.00116945
-0.000847105
-0.000654003
-0.000563701
-1336.56
-1329.15
-1314.45
-1292.7
-1264.26
-1229.6
-1189.25
-1143.86
-1094.11
-1040.73
-984.47
-926.103
-866.38
-806.03
-745.742
-686.155
-627.846
-571.326
-517.029
-465.317
-416.473
-370.707
-328.158
-288.898
-252.94
-220.244
-190.724
-164.258
-140.691
-119.847
-101.535
-85.5518
-71.6921
-59.7511
-49.5284
-40.8319
-33.4798
-27.3029
-22.1452
-17.8648
-14.334
-11.439
-9.07962
-7.16812
-5.62866
-4.39612
-3.4151
-2.63881
-2.02809
-1.55041
-1.17892
-0.891683
-0.670846
-0.502027
-0.373703
-0.27671
-0.203809
-0.149324
-0.108829
-0.0788987
-0.0569001
-0.0408205
-0.0291321
-0.0206825
-0.014608
-0.0102653
-0.00717836
-0.00499719
-0.00346623
-0.00240034
-0.00166664
-0.00117102
-0.000848247
-0.00065489
-0.000564468
-1336.32
-1328.92
-1314.22
-1292.49
-1264.07
-1229.43
-1189.11
-1143.74
-1094.02
-1040.66
-984.432
-926.09
-866.391
-806.062
-745.792
-686.221
-627.925
-571.415
-517.125
-465.417
-416.575
-370.809
-328.258
-288.994
-253.032
-220.33
-190.805
-164.331
-140.758
-119.907
-101.588
-85.5988
-71.7333
-59.7868
-49.5591
-40.858
-33.502
-27.3216
-22.1608
-17.8777
-14.3446
-11.4477
-9.08667
-7.1738
-5.63321
-4.39974
-3.41796
-2.64106
-2.02985
-1.55177
-1.17998
-0.89249
-0.671462
-0.502494
-0.374054
-0.276973
-0.204005
-0.149469
-0.108935
-0.0789769
-0.056957
-0.0408617
-0.0291617
-0.0207037
-0.0146231
-0.010276
-0.00718588
-0.00500246
-0.00346991
-0.0024029
-0.00166843
-0.00117228
-0.000849171
-0.000655607
-0.000565088
-1336.14
-1328.74
-1314.05
-1292.33
-1263.92
-1229.3
-1189
-1143.65
-1093.95
-1040.61
-984.401
-926.079
-866.398
-806.085
-745.83
-686.271
-627.986
-571.483
-517.199
-465.495
-416.655
-370.888
-328.336
-289.07
-253.103
-220.398
-190.867
-164.389
-140.81
-119.954
-101.63
-85.6357
-71.7656
-59.8148
-49.5832
-40.8787
-33.5195
-27.3363
-22.1731
-17.8879
-14.353
-11.4546
-9.09225
-7.1783
-5.63682
-4.40262
-3.42024
-2.64285
-2.03125
-1.55286
-1.18082
-0.893134
-0.671953
-0.502866
-0.374335
-0.277183
-0.204162
-0.149585
-0.109021
-0.0790394
-0.0570026
-0.0408947
-0.0291854
-0.0207207
-0.0146352
-0.0102845
-0.00719191
-0.00500669
-0.00347286
-0.00240496
-0.00166987
-0.0011733
-0.000849912
-0.000656183
-0.000565586
-1336
-1328.6
-1313.92
-1292.2
-1263.81
-1229.19
-1188.91
-1143.58
-1093.89
-1040.57
-984.377
-926.07
-866.403
-806.102
-745.859
-686.309
-628.032
-571.535
-517.256
-465.554
-416.715
-370.949
-328.396
-289.128
-253.159
-220.45
-190.915
-164.433
-140.85
-119.991
-101.663
-85.6645
-71.7909
-59.8368
-49.6021
-40.8949
-33.5332
-27.3479
-22.1828
-17.896
-14.3596
-11.46
-9.09665
-7.18186
-5.63967
-4.40489
-3.42204
-2.64427
-2.03236
-1.55372
-1.18148
-0.893645
-0.672343
-0.503162
-0.374558
-0.27735
-0.204286
-0.149677
-0.109089
-0.0790892
-0.0570388
-0.0409209
-0.0292043
-0.0207342
-0.0146448
-0.0102914
-0.00719672
-0.00501006
-0.00347522
-0.0024066
-0.00167101
-0.00117411
-0.000850505
-0.000656643
-0.000565984
-1335.89
-1328.49
-1313.82
-1292.11
-1263.72
-1229.12
-1188.84
-1143.52
-1093.85
-1040.54
-984.358
-926.062
-866.406
-806.115
-745.88
-686.338
-628.067
-571.575
-517.299
-465.6
-416.762
-370.996
-328.442
-289.172
-253.201
-220.49
-190.953
-164.468
-140.882
-120.019
-101.688
-85.6869
-71.8105
-59.8538
-49.6169
-40.9075