/*--------------------------------*- C++ -*----------------------------------*\
  =========                 |
  \\      /  F ield         | OpenFOAM: The Open Source CFD Toolbox
   \\    /   O peration     | Website:  https://openfoam.org
    \\  /    A nd           | Version:  10
     \\/     M anipulation  |
\*---------------------------------------------------------------------------*/
FoamFile
{
    format      ascii;
    class       volScalarField;
    location    "115";
    object      gradTx;
}
// * * * * * * * * * * * * * * * * * * * * * * * * * * * * * * * * * * * * * //

dimensions      [0 -1 0 1 0 0 0];

internalField   nonuniform List<scalar> 
11250
(
14254.5
7969.88
5092.56
3534.55
2572
1919.6
1449.94
1099.15
831.694
625.842
467.122
345.177
252.17
181.94
129.536
90.953
62.9498
42.9299
28.8396
19.0804
12.4304
7.97312
5.03483
3.12987
1.91533
1.15384
0.684279
0.399432
0.229331
0.129264
0.0712604
0.0381823
0.0197152
0.00971404
0.00452419
0.0019764
0.000805608
0.000305548
0.000107751
3.53568e-05
1.08144e-05
3.09054e-06
8.27406e-07
2.08091e-07
4.92775e-08
1.10289e-08
2.33024e-09
4.51121e-10
8.78094e-11
0
1.09762e-12
0
1.4269e-11
0
1.09762e-12
0
1.09762e-12
-2.19524e-12
0
2.19524e-12
0
1.09762e-12
0
-2.19524e-11
9.87856e-12
-1.09762e-12
-1.09762e-12
0
1.09762e-12
0
-5.48809e-12
0
-7.68332e-12
0
-9.87856e-12
4051
4570.46
3785.93
2955.84
2281.74
1758.93
1354.25
1039.13
792.692
599.899
449.617
333.276
244.058
176.418
125.794
88.4331
61.2672
41.8175
28.1121
18.6102
12.1302
7.78399
4.91721
3.05772
1.87165
1.12773
0.668869
0.390461
0.224224
0.126479
0.0698563
0.0375675
0.0195105
0.00968813
0.0045539
0.00200934
0.000827382
0.000316916
0.000112806
3.73378e-05
1.15117e-05
3.3139e-06
8.9316e-07
2.26016e-07
5.3859e-08
1.21144e-08
2.56842e-09
5.23564e-10
9.87856e-11
2.19523e-11
-1.64643e-11
0
-1.4269e-11
8.78094e-12
-1.31714e-11
-6.5857e-12
-1.4269e-11
0
-4.39047e-12
0
0
-1.09762e-12
0
2.41476e-11
5.48809e-12
0
-1.09762e-12
1.09762e-12
-1.09762e-12
0
-8.78094e-12
0
8.78094e-12
2.19523e-12
0
1432.61
2482.79
2537.31
2237.54
1859.73
1501.74
1191.73
933.302
722.207
552.225
417.069
310.958
228.75
165.947
118.67
83.6226
58.0477
39.6848
26.7152
17.7062
11.5526
7.41972
4.69058
2.91864
1.78748
1.07747
0.639256
0.373283
0.214485
0.121171
0.0671553
0.036343
0.0190562
0.00958193
0.00457003
0.00204792
0.000856434
0.000332965
0.000120185
4.02966e-05
1.2572e-05
3.65864e-06
9.95965e-07
2.54379e-07
6.11494e-08
1.38684e-08
2.97893e-09
6.22349e-10
1.1525e-10
1.86595e-11
0
-1.09762e-12
4.39047e-12
8.78094e-12
0
-2.19523e-12
0
4.39047e-12
0
-2.19524e-12
0
0
0
-1.4269e-11
-1.09762e-11
2.19524e-12
3.29285e-12
2.19523e-12
0
0
3.29285e-12
8.78094e-12
0
-1.09762e-12
8.78094e-12
631.822
1398.24
1654.95
1613.09
1436.68
1217.37
999.503
802.133
631.929
489.713
373.655
280.809
207.869
151.559
108.825
76.9429
53.5605
36.7033
24.7574
16.4367
10.7401
6.9067
4.37111
2.72249
1.66875
1.00663
0.597611
0.349217
0.200892
0.113752
0.0633183
0.0345152
0.018288
0.00931842
0.00451216
0.00205456
0.000873056
0.000344717
0.000126267
4.29246e-05
1.35664e-05
3.99621e-06
1.10034e-06
2.8407e-07
6.89743e-08
1.5787e-08
3.42896e-09
7.0028e-10
1.30616e-10
8.78094e-12
1.53666e-11
0
1.09762e-12
-8.78094e-12
1.31714e-11
5.48809e-12
1.4269e-11
-4.39047e-12
5.48809e-12
6.58571e-12
0
-2.19523e-12
0
-1.09762e-12
-4.39047e-12
3.29285e-12
0
1.09762e-12
0
2.19524e-12
5.48809e-12
0
-1.09762e-12
-1.09762e-12
-5.48809e-12
330.653
830.436
1082.44
1138.08
1074.23
951.206
807.398
664.549
533.776
419.902
324.18
245.914
183.411
134.545
97.0953
68.9373
48.1564
33.0981
22.3823
14.8923
9.74942
6.28001
3.98029
2.48226
1.52324
0.919806
0.546629
0.319808
0.184288
0.104634
0.0584949
0.0320943
0.0171593
0.00884377
0.00433992
0.00200534
0.000865366
0.000347075
0.000129132
4.45785e-05
1.43021e-05
4.2748e-06
1.19377e-06
3.12414e-07
7.68497e-08
1.78077e-08
3.89215e-09
8.00163e-10
1.67935e-10
3.84166e-11
1.4269e-11
1.09762e-12
-5.48809e-12
-9.87856e-12
0
5.48809e-12
1.09762e-12
-8.78094e-12
-5.48809e-12
0
0
0
0
1.86595e-11
0
-1.09762e-12
-1.09762e-12
-3.29285e-12
0
-1.09762e-12
-9.87856e-12
-1.20738e-11
-7.68332e-12
-1.09762e-12
-1.09762e-12
193.227
516.93
716.747
796.353
787.337
723.986
633.417
534.091
437.335
349.386
273.117
209.284
157.39
116.25
84.3728
60.1924
42.2188
29.118
19.7497
13.1747
8.64445
5.5793
3.54237
2.21259
1.35966
0.82211
0.489218
0.286649
0.16549
0.0941938
0.0528398
0.0291352
0.0156896
0.00816841
0.00406196
0.00190737
0.000838277
0.000342901
0.00013021
4.58848e-05
1.50233e-05
4.58011e-06
1.30367e-06
3.47461e-07
8.69708e-08
2.05123e-08
4.5595e-09
9.51634e-10
1.75619e-10
3.62214e-11
-4.39047e-12
-1.09762e-12
0
-3.29285e-12
-1.09762e-12
0
-1.09762e-12
2.19524e-12
1.09762e-12
-6.58571e-12
1.09762e-12
2.19523e-12
1.09762e-12
0
-1.09762e-12
-4.39047e-12
0
0
0
-2.19524e-12
4.39047e-12
1.09762e-12
-4.39047e-12
0
0
120.56
333.227
480.746
555.759
569.658
540.465
485.513
418.489
348.976
283.027
224.019
173.449
131.573
97.8904
71.4848
51.2648
36.118
25.0064
17.0175
11.3851
7.48929
4.84457
3.08197
1.92841
1.18693
0.718745
0.428341
0.251358
0.145341
0.0828639
0.0465854
0.0257838
0.0139847
0.00737091
0.00373239
0.0017938
0.000809731
0.000340797
0.000133188
4.82674e-05
1.62299e-05
5.07288e-06
1.47767e-06
4.02298e-07
1.02672e-07
2.46492e-08
5.58138e-09
1.17774e-09
2.17328e-10
2.41476e-11
-9.87856e-12
0
0
-1.09762e-12
0
-9.87856e-12
-1.09762e-12
-7.68332e-12
4.39047e-12
-4.39047e-12
0
-2.19523e-12
1.09762e-12
-5.48809e-12
2.19523e-12
2.19524e-12
0
0
-1.20738e-11
1.09762e-12
1.31714e-11
2.19524e-12
0
-7.68332e-12
0
78.1383
219.938
325.687
387.42
408.309
397.375
365.097
320.889
272.088
223.822
179.303
140.253
107.32
80.4405
59.1162
42.6271
30.1746
20.9774
14.3269
9.6152
6.34245
4.11267
2.62196
1.64372
1.01346
0.6147
0.366891
0.215582
0.124774
0.0711835
0.0400652
0.0222617
0.0121953
0.00654921
0.00340916
0.00169521
0.000794028
0.000346702
0.000140265
5.24563e-05
1.81399e-05
5.81174e-06
1.73002e-06
4.80048e-07
1.24572e-07
3.03261e-08
6.94353e-09
1.5191e-09
3.05138e-10
4.39047e-11
1.64643e-11
0
0
4.39047e-12
1.09762e-12
4.39047e-12
2.305e-11
3.29285e-12
-3.29285e-12
0
0
0
-3.29285e-12
0
0
0
7.68332e-12
-1.09762e-12
0
1.09762e-12
-1.09762e-12
0
6.5857e-12
0
4.39047e-12
51.7562
147.298
222.013
269.648
290.345
288.441
270.071
241.427
207.793
173.177
140.313
110.836
85.5343
64.5844
47.7676
34.636
24.6373
17.2009
11.7917
7.93987
5.25256
3.41465
2.18187
1.3706
0.846635
0.514403
0.307497
0.18088
0.104727
0.0597311
0.033638
0.0187825
0.0104349
0.00575125
0.00310404
0.00160836
0.000784799
0.000355685
0.000148624
5.71192e-05
2.02071e-05
6.59776e-06
1.99525e-06
5.6105e-07
1.47262e-07
3.62192e-08
8.37372e-09
1.844e-09
3.85264e-10
6.69547e-11
1.53666e-11
0
-1.09762e-12
-3.29285e-12
0
8.78094e-12
1.4269e-11
1.4269e-11
-4.39047e-12
4.39047e-12
-1.09762e-12
2.19523e-12
8.78094e-12
0
-1.09762e-12
0
1.4269e-11
2.19523e-12
1.31714e-11
-1.09762e-12
2.19523e-12
5.48809e-12
6.58571e-12
8.78094e-12
2.19524e-12
34.683
99.4251
151.728
187.145
204.885
206.945
196.848
178.556
155.724
131.324
107.522
85.723
66.694
50.72
37.7499
27.5242
19.6744
13.7955
9.49343
6.41399
4.25584
2.77403
1.77671
1.11847
0.692248
0.421361
0.252261
0.14852
0.0859762
0.0489816
0.0275765
0.0154738
0.00873105
0.00494963
0.00277176
0.00149294
0.000754708
0.000352389
0.000150835
5.90906e-05
2.12249e-05
7.01471e-06
2.14219e-06
6.07178e-07
1.60445e-07
3.96931e-08
9.22987e-09
2.00535e-09
4.25876e-10
9.32975e-11
5.48809e-12
0
0
0
0
-5.48809e-12
-1.97571e-11
-1.09762e-12
2.19523e-12
-1.09762e-12
-1.09762e-12
0
1.09762e-12
-1.09762e-12
-1.09762e-12
-1.09762e-12
-6.58571e-12
0
-1.09762e-12
0
1.09762e-12
0
-6.58571e-12
0
1.09762e-12
23.359
67.3002
103.632
129.316
143.427
146.825
141.51
129.972
114.672
97.7328
80.7877
64.9636
50.9319
38.9989
29.2034
21.4086
15.3771
10.8288
7.48061
5.07144
3.37533
2.2061
1.41642
0.89363
0.554202
0.33793
0.20258
0.119323
0.0690064
0.0392149
0.022023
0.0123783
0.0070615
0.00409124
0.00235657
0.00130579
0.000676519
0.000322171
0.000140031
5.551e-05
2.01223e-05
6.69828e-06
2.05729e-06
5.85815e-07
1.55382e-07
3.85363e-08
8.97522e-09
1.94498e-09
4.01728e-10
9.98832e-11
1.4269e-11
0
2.19523e-12
4.39047e-12
2.19523e-12
1.09762e-12
-1.4269e-11
0
4.39047e-12
-1.09762e-12
3.29285e-12
1.4269e-11
-8.78094e-12
0
0
-9.87856e-12
-3.7319e-11
-1.09762e-12
0
0
-3.29285e-12
-5.48809e-12
0
-2.19523e-12
-3.29285e-12
15.7392
45.5125
70.5545
88.8308
99.5426
103.018
100.384
93.1864
83.0511
71.4511
59.5758
48.2859
38.1283
29.3844
22.1324
16.3102
11.7705
8.32417
5.77237
3.92681
2.6216
1.71825
1.10597
0.699334
0.434546
0.265362
0.159193
0.093711
0.0540518
0.0305595
0.0170452
0.00952737
0.0054362
0.00317548
0.00185446
0.00104314
0.000547756
0.000263726
0.000115619
4.61424e-05
1.68155e-05
5.62132e-06
1.73249e-06
4.94735e-07
1.31508e-07
3.2686e-08
7.62186e-09
1.68923e-09
3.5453e-10
9.00046e-11
3.51238e-11
1.31714e-11
2.19523e-12
1.09762e-12
-1.09762e-12
-1.09762e-12
-3.29285e-12
0
-1.09762e-12
2.19524e-12
0
-1.09762e-12
5.48809e-12
0
-1.09762e-11
-5.48809e-12
-2.19524e-12
-1.09762e-12
0
1.09762e-12
0
0
4.39047e-12
0
1.09762e-12
10.5747
30.6624
47.7786
60.5769
68.4428
71.4673
70.2824
65.8393
59.1959
51.3535
43.1529
35.228
28.0021
21.7115
16.4437
12.1789
8.82911
6.26979
4.36404
2.97884
1.99489
1.31119
0.846135
0.536246
0.333814
0.204066
0.122396
0.071889
0.0412498
0.023112
0.0127239
0.00700168
0.00393787
0.00227957
0.00132791
0.000748392
0.000394495
0.000190735
8.39465e-05
3.36174e-05
1.22876e-05
4.11833e-06
1.27214e-06
3.63982e-07
9.69152e-08
2.4119e-08
5.63297e-09
1.26006e-09
2.71112e-10
6.80523e-11
3.51238e-11
1.86595e-11
0
0
-1.09762e-12
0
1.09762e-12
-8.78094e-12
-7.68332e-12
-3.29285e-12
-1.09762e-12
-1.4269e-11
1.09762e-12
-1.20738e-11
-1.09762e-12
1.09762e-11
2.305e-11
-2.19523e-12
0
0
-1.09762e-12
-4.39047e-12
-8.78094e-12
1.09762e-12
6.58571e-12
7.06695
20.535
32.1268
40.9595
46.5876
49.0061
48.5669
45.852
41.5416
36.3041
30.7203
25.2434
20.1882
15.7414
11.9841
8.91822
6.49341
4.62946
3.23398
2.21482
1.4878
0.980694
0.634537
0.403096
0.251397
0.153821
0.09218
0.0539404
0.0307088
0.0169793
0.00916442
0.00491127
0.00267992
0.00150912
0.000862083
0.000480578
0.000252097
0.000121712
5.35836e-05
2.14817e-05
7.86323e-06
2.63965e-06
8.1671e-07
2.34053e-07
6.24127e-08
1.55324e-08
3.62872e-09
7.89187e-10
1.55862e-10
2.96357e-11
1.20738e-11
0
-2.19523e-12
1.09762e-12
0
0
4.39047e-12
0
1.09762e-12
0
-1.09762e-12
-1.09762e-12
-6.5857e-12
0
1.20738e-11
8.78094e-12
2.19523e-12
0
-1.09762e-12
-2.19523e-12
-6.5857e-12
4.39047e-12
0
0
0
4.68878
13.6474
21.4199
27.4316
31.3718
33.2033
33.121
31.479
28.7102
25.254
21.5037
17.7752
14.2952
11.2048
8.57174
6.40749
4.68462
3.35256
2.35016
1.61474
1.088
0.719246
0.466671
0.297237
0.185793
0.11383
0.0681703
0.0397278
0.02241
0.012193
0.00641893
0.00331973
0.00173191
0.000930871
0.000511846
0.000278206
0.000143853
6.89454e-05
3.02538e-05
1.21158e-05
4.43551e-06
1.49018e-06
4.61607e-07
1.32496e-07
3.53883e-08
8.82924e-09
2.08657e-09
4.44535e-10
8.12237e-11
6.5857e-12
-1.31714e-11
-2.08547e-11
-8.78094e-12
0
-1.4269e-11
-1.09762e-12
0
7.68332e-12
8.78094e-12
6.58571e-12
1.09762e-12
-4.39047e-12
0
1.31714e-11
9.87856e-12
0
-1.09762e-12
2.19523e-12
-4.39047e-12
0
-7.68332e-12
3.29285e-12
8.78094e-12
9.87856e-12
-3.29285e-12
3.08398
8.98851
14.1443
18.1806
20.8862
22.2195
22.2876
21.305
19.5443
17.2906
14.8054
12.3042
9.94597
7.83345
6.01978
4.51886
3.31676
2.38228
1.67563
1.15494
0.780533
0.517505
0.336755
0.215113
0.134828
0.0827732
0.0495814
0.0288003
0.0161048
0.00862088
0.00441972
0.00219594
0.00108418
0.000546702
0.000283474
0.000147561
7.42666e-05
3.50561e-05
1.52604e-05
6.08788e-06
2.22536e-06
7.47517e-07
2.31706e-07
6.65804e-08
1.7844e-08
4.48596e-09
1.06688e-09
2.48062e-10
5.59785e-11
7.68332e-12
-8.78094e-12
-1.09762e-11
-1.09762e-12
-2.19524e-12
0
-4.39047e-12
-4.39047e-12
0
8.78094e-12
-1.09762e-12
0
1.09762e-12
0
-2.19524e-12
5.48809e-12
-4.39047e-12
-1.09762e-12
-1.09762e-12
0
1.09762e-12
-4.39047e-12
-7.68332e-12
-2.19524e-12
2.19523e-12
5.48809e-12
2.00855
5.86051
9.24178
11.9152
13.7402
14.681
14.7959
14.2142
13.106
11.6538
10.0289
8.37519
6.80162
5.38077
4.15236
3.1294
2.3055
1.66175
1.17269
0.810802
0.549591
0.36544
0.23848
0.152768
0.0960073
0.059061
0.0353931
0.0205038
0.0113789
0.00600334
0.00300399
0.00143633
0.000669847
0.00031372
0.000150545
7.34731e-05
3.53714e-05
1.62504e-05
6.96638e-06
2.75634e-06
1.00341e-06
3.36448e-07
1.04263e-07
2.99847e-08
8.03676e-09
2.04706e-09
4.78561e-10
1.29519e-10
3.51238e-11
4.39047e-12
-9.87856e-12
3.29285e-12
8.78094e-12
0
1.4269e-11
2.19523e-12
1.09762e-12
3.29285e-12
0
-2.19523e-12
-2.19523e-12
5.48809e-12
1.09762e-12
0
-9.87856e-12
-1.09762e-12
0
-3.29285e-12
4.39047e-12
-1.09762e-12
-3.29285e-12
5.48809e-12
-3.29285e-12
-9.87856e-12
-1.09762e-12
1.2941
3.77935
5.97044
7.71713
8.92755
9.57417
9.68855
9.34797
8.65775
7.73327
6.68486
5.60707
4.57292
3.63238
2.81403
2.12867
1.57383
1.13825
0.805866
0.558887
0.37992
0.253288
0.165689
0.106358
0.0669408
0.0411978
0.0246547
0.0142244
0.00783171
0.00407798
0.00199891
0.000925358
0.000410421
0.000178896
7.87281e-05
3.53432e-05
1.59377e-05
7.00798e-06
2.92497e-06
1.13961e-06
4.11351e-07
1.37347e-07
4.24723e-08
1.22044e-08
3.25005e-09
8.25408e-10
1.844e-10
3.40261e-11
2.41476e-11
0
-7.68332e-12
0
0
-1.09762e-12
-2.19524e-12
5.48809e-12
-1.09762e-12
-2.19524e-12
-9.87856e-12
0
0
-4.39047e-12
0
2.19524e-12
-4.39047e-12
1.09762e-12
8.78094e-12
4.39047e-12
0
0
9.87856e-12
1.20738e-11
5.48809e-12
-5.48809e-12
-4.39047e-12
0.824225
2.40895
3.81124
4.93684
5.72671
6.16104
6.2567
6.05963
5.63434
5.05288
4.38534
3.69278
3.02322
2.41029
1.87393
1.42244
1.05523
0.765687
0.543816
0.37827
0.257828
0.17228
0.112887
0.0725207
0.0456132
0.0279941
0.016663
0.0095353
0.0051924
0.00266555
0.00128241
0.000578259
0.000246491
0.000101202
4.10655e-05
1.68247e-05
6.97943e-06
2.88e-06
1.15196e-06
4.37147e-07
1.55355e-07
5.14453e-08
1.58287e-08
4.53097e-09
1.23811e-09
3.06235e-10
7.79308e-11
8.78094e-12
9.87856e-12
-1.97571e-11
2.19524e-12
0
0
0
1.09762e-12
-2.19523e-12
-1.09762e-12
-1.09762e-12
-1.09762e-12
2.19524e-12
-1.09762e-12
-8.78094e-12
-1.09762e-12
0
-8.78094e-12
-9.87856e-12
0
2.19523e-12
4.39047e-12
1.09762e-12
1.31714e-11
-4.39047e-12
3.29285e-12
-1.09762e-12
-1.09762e-12
0.518632
1.51679
2.4028
3.11818
3.62553
3.91124
3.9842
3.87154
3.61235
3.25109
2.83164
2.39281
1.96564
1.57229
1.22631
0.933766
0.694857
0.505754
0.360288
0.25133
0.171748
0.115003
0.075452
0.0484603
0.0303944
0.0185337
0.0109162
0.00615928
0.00329876
0.00166279
0.00078411
0.000345313
0.000142637
5.59382e-05
2.12487e-05
8.0007e-06
3.03262e-06
1.15538e-06
4.35073e-07
1.58473e-07
5.4871e-08
1.78813e-08
5.45516e-09
1.56191e-09
4.28071e-10
9.87856e-11
3.62214e-11
1.64643e-11
-1.31714e-11
-2.08547e-11
6.5857e-12
-1.09762e-12
0
1.09762e-12
3.29285e-12
3.29285e-12
1.86595e-11
0
2.19523e-12
0
0
-6.5857e-12
-1.09762e-12
3.29285e-12
0
-1.09762e-12
-7.68332e-12
0
0
1.09762e-12
-4.39047e-12
-8.78094e-12
0
0
-5.48809e-12
0.32225
0.942993
1.49549
1.94383
2.26468
2.44899
2.5014
2.43778
2.28158
2.0599
1.79982
1.52563
1.25706
1.00842
0.788707
0.602184
0.449321
0.327934
0.234268
0.163891
0.112322
0.0754197
0.0495848
0.0318519
0.0199064
0.0120294
0.00697896
0.00385868
0.00201867
0.000992757
0.00045671
0.00019611
7.87418e-05
2.97781e-05
1.07527e-05
3.77874e-06
1.31748e-06
4.6064e-07
1.60957e-07
5.53781e-08
1.84564e-08
5.85579e-09
1.77924e-09
5.09295e-10
1.11957e-10
2.41476e-11
-8.78094e-12
-1.64643e-11
-8.78094e-12
1.09762e-11
4.39047e-12
7.68332e-12
-1.09762e-12
2.19524e-12
-1.09762e-12
-1.09762e-12
9.87856e-12
0
0
-2.19524e-12
3.29285e-12
8.78094e-12
0
-1.86595e-11
8.78094e-12
1.09762e-11
0
1.09762e-12
-4.39047e-12
0
-1.20738e-11
0
0
-3.29285e-12
2.19524e-12
0.19763
0.578619
0.918535
1.19559
1.39539
1.51209
1.54808
1.51258
1.41952
1.28521
1.12613
0.957256
0.790881
0.636086
0.498701
0.381621
0.285361
0.208727
0.149478
0.104893
0.0721715
0.0486941
0.0321714
0.0207285
0.0129323
0.00774469
0.00441563
0.0023815
0.00120924
0.000575992
0.00025669
0.000106887
4.1624e-05
1.52231e-05
5.27446e-06
1.75512e-06
5.70535e-07
1.84006e-07
5.93087e-08
1.90184e-08
6.00836e-09
1.81985e-09
5.42223e-10
1.48178e-10
3.07333e-11
9.87856e-12
-7.68332e-12
-1.86595e-11
0
1.4269e-11
2.19524e-12
1.4269e-11
0
1.09762e-12
-1.09762e-12
-2.19523e-12
-1.86595e-11
-7.68332e-12
-1.09762e-12
0
-1.09762e-12
1.09762e-11
1.09762e-12
-2.19524e-12
-1.09762e-12
-4.39047e-12
9.87856e-12
-1.09762e-12
2.19524e-12
-2.19524e-12
3.29285e-12
0
-2.19524e-12
3.29285e-12
-8.78094e-12
0.119584
0.350285
0.556571
0.725367
0.847916
0.920502
0.944338
0.924745
0.869925
0.789584
0.693639
0.591162
0.489676
0.394798
0.310203
0.237807
0.17808
0.130432
0.093581
0.0658815
0.0455832
0.0310123
0.0206961
0.0134517
0.00842019
0.00501437
0.00281343
0.00147865
0.000726182
0.0003331
0.000142762
5.72153e-05
2.14749e-05
7.57171e-06
2.52199e-06
8.0086e-07
2.45592e-07
7.38005e-08
2.19995e-08
6.5407e-09
1.90876e-09
5.40028e-10
1.43788e-10
2.52452e-11
1.09762e-11
5.48809e-12
1.64643e-11
8.78094e-12
1.09762e-12
1.31714e-11
2.19523e-12
-8.78094e-12
7.68332e-12
-3.29285e-12
-2.19523e-12
5.48809e-12
-7.68332e-12
1.20738e-11
1.09762e-12
0
1.09762e-12
-2.19523e-12
-1.09762e-12
1.31714e-11
0
1.31714e-11
0
-2.19523e-12
0
1.09762e-12
4.39047e-12
-2.19523e-12
0
2.19523e-12
-1.09762e-12
0.0713781
0.209182
0.332672
0.434096
0.508177
0.552582
0.567893
0.557161
0.525187
0.47771
0.420627
0.359361
0.298423
0.24119
0.189898
0.145768
0.109203
0.0799766
0.0574099
0.0405341
0.0282499
0.0194651
0.0132088
0.0087269
0.00552084
0.00329017
0.00182614
0.000938831
0.000446755
0.000197189
8.09906e-05
3.10602e-05
1.11593e-05
3.76934e-06
1.20241e-06
3.6456e-07
1.06019e-07
2.99254e-08
8.29799e-09
2.29512e-09
6.13568e-10
1.67935e-10
2.52452e-11
-4.39047e-12
1.20738e-11
1.31714e-11
1.20738e-11
0
6.58571e-12
9.87856e-12
-1.4269e-11
-1.97571e-11
-1.09762e-12
0
-1.31714e-11
6.5857e-12
1.09762e-12
1.09762e-11
0
-1.09762e-12
1.09762e-12
0
-1.09762e-12
4.39047e-12
3.29285e-12
4.39047e-12
-9.87856e-12
0
-1.09762e-12
1.09762e-12
1.09762e-12
1.09762e-12
0
1.09762e-12
1.31714e-11
0.0420413
0.123275
0.196247
0.256417
0.300621
0.327385
0.336958
0.331071
0.31253
0.284716
0.251122
0.214964
0.178904
0.144913
0.114288
0.0877674
0.0656709
0.0479769
0.0343704
0.0243001
0.0170724
0.0119584
0.00830164
0.00561394
0.00361376
0.00216977
0.00119978
0.000607891
0.000282347
0.000120658
4.76812e-05
1.75187e-05
6.01539e-06
1.93974e-06
5.90284e-07
1.70452e-07
4.7034e-08
1.25172e-08
3.2698e-09
8.67118e-10
2.44769e-10
7.02475e-11
5.48809e-12
2.19523e-12
5.48809e-12
8.78094e-12
-7.68332e-12
2.19524e-12
9.87856e-12
3.29285e-12
-4.39047e-12
-3.29285e-12
-7.68332e-12
1.09762e-12
1.09762e-12
-4.39047e-12
0
-3.29285e-12
-2.19523e-12
2.19524e-12
-1.09762e-12
2.19523e-12
0
6.58571e-12
-2.19523e-12
-1.31714e-11
2.19524e-12
1.09762e-12
0
-1.09762e-12
7.68332e-12
3.29285e-12
0
3.29285e-12
-4.39047e-12
0.0244695
0.0717995
0.114441
0.149758
0.17585
0.19177
0.197591
0.194289
0.183502
0.167227
0.147539
0.126356
0.105251
0.0853467
0.0673475
0.0516621
0.0385156
0.0279757
0.0199262
0.0140638
0.00994999
0.00709583
0.0050554
0.00351128
0.00230793
0.0014021
0.000776939
0.000390981
0.000178931
7.48053e-05
2.87386e-05
1.021e-05
3.37514e-06
1.0442e-06
3.0403e-07
8.37537e-08
2.19644e-08
5.51333e-09
1.35226e-09
3.30383e-10
1.13055e-10
5.26856e-11
3.40261e-11
2.63428e-11
5.48809e-12
1.4269e-11
5.48809e-12
3.07333e-11
1.20738e-11
4.39047e-12
7.68332e-12
6.5857e-12
2.19523e-12
-2.19523e-12
1.4269e-11
-6.5857e-12
-1.09762e-12
-3.29285e-12
1.09762e-12
2.19523e-12
-1.09762e-12
-2.19523e-12
2.19523e-12
-1.20738e-11
-3.29285e-12
-1.09762e-12
0
1.09762e-12
1.09762e-12
0
-7.68332e-12
0
-4.39047e-12
-1.4269e-11
-1.09762e-12
0.0141133
0.0414449
0.0661495
0.086701
0.101953
0.111291
0.114708
0.112753
0.10638
0.0967711
0.0851714
0.0727531
0.0604689
0.048956
0.0385635
0.0294791
0.0218341
0.0157079
0.011074
0.00776866
0.00551779
0.00400071
0.00292335
0.00208409
0.00139839
0.000860517
0.000479353
0.000240901
0.000109469
4.52096e-05
1.7076e-05
5.93763e-06
1.91295e-06
5.74518e-07
1.61753e-07
4.29179e-08
1.07775e-08
2.55855e-09
5.64175e-10
1.06469e-10
1.53666e-11
1.31714e-11
2.52452e-11
1.75619e-11
4.39047e-12
3.29285e-12
3.07333e-11
3.29285e-11
2.19524e-11
4.39047e-12
-9.87856e-12
2.19524e-12
-6.5857e-12
0
-2.19524e-12
0
0
-7.68332e-12
4.39047e-12
-3.29285e-12
0
-1.09762e-12
-5.48809e-12
-2.08547e-11
2.19523e-12
0
-2.19524e-12
-3.29285e-12
1.09762e-12
-1.09762e-12
1.09762e-12
-2.19524e-12
0
0
1.31714e-11
0.00809687
0.0237889
0.0379993
0.0498439
0.0586382
0.0639996
0.0659026
0.0646555
0.0608092
0.0550547
0.048147
0.0408252
0.0336912
0.0271133
0.0212434
0.0161338
0.0118363
0.00840466
0.00583951
0.00405195
0.00287599
0.00211188
0.00157708
0.00115007
0.000785702
0.000489245
0.000274226
0.000138026
6.25774e-05
2.56987e-05
9.62235e-06
3.30688e-06
1.0498e-06
3.09703e-07
8.53639e-08
2.21082e-08
5.37174e-09
1.2425e-09
2.44769e-10
3.95142e-11
-2.305e-11
-2.52452e-11
-2.19524e-11
-8.78094e-12
1.31714e-11
1.86595e-11
2.96357e-11
1.20738e-11
2.19524e-11
-2.19523e-12
-2.19524e-12
6.58571e-12
0
3.29285e-12
0
-1.09762e-12
0
0
-1.09762e-12
0
0
3.29285e-12
-1.09762e-12
7.68332e-12
0
-1.09762e-12
0
0
6.58571e-12
4.39047e-12
6.5857e-12
-1.97571e-11
2.19524e-12
1.09762e-11
0
0.00464199
0.0136243
0.0217227
0.028428
0.0333594
0.0363125
0.0372801
0.0364358
0.0340854
0.0306204
0.0264939
0.0221774
0.0180619
0.0143663
0.0111444
0.00838048
0.00607364
0.00424535
0.00289701
0.00197932
0.00139657
0.00103315
0.000784474
0.000582526
0.000403834
0.000253988
0.000143209
7.22794e-05
3.27771e-05
1.34356e-05
5.01185e-06
1.71286e-06
5.3975e-07
1.5774e-07
4.29728e-08
1.09608e-08
2.60245e-09
5.97104e-10
1.1525e-10
1.09762e-11
-1.09762e-11
-1.86595e-11
-2.305e-11
-7.68332e-12
0
6.5857e-12
1.09762e-12
-1.4269e-11
1.09762e-12
1.09762e-12
1.4269e-11
0
2.08547e-11
0
0
0
8.78094e-12
0
-1.09762e-12
-2.19523e-12
-1.09762e-12
1.09762e-12
4.39047e-12
1.86595e-11
1.09762e-12
0
-1.09762e-12
1.31714e-11
0
1.09762e-12
-7.68332e-12
0
0
0
-7.68332e-12
0.00268285
0.00783462
0.0123848
0.0160477
0.0186563
0.0201492
0.0205523
0.0199644
0.0185417
0.01649
0.0140689
0.0115708
0.00924562
0.00722495
0.00552127
0.00409649
0.00292629
0.00201002
0.00134418
0.000900985
0.00062874
0.000465915
0.000357764
0.000269291
0.00018882
0.000119723
6.78614e-05
3.43563e-05
1.56022e-05
6.39621e-06
2.38353e-06
8.12894e-07
2.55344e-07
7.43021e-08
2.01237e-08
5.09075e-09
1.1964e-09
2.55745e-10
5.26856e-11
2.19524e-12
-1.31714e-11
-4.39047e-12
-1.20738e-11
-1.75619e-11
-3.29285e-11
-3.7319e-11
-2.85381e-11
-2.19524e-11
-2.305e-11
-8.78094e-12
2.19524e-12
-1.64643e-11
-1.09762e-12
-2.19524e-12
1.09762e-12
3.29285e-12
7.68332e-12
-1.20738e-11
-1.09762e-12
2.19524e-12
-1.09762e-12
-5.48809e-12
-3.29285e-12
0
0
2.19524e-12
1.09762e-12
0
-8.78094e-12
4.39047e-12
1.09762e-12
2.41476e-11
2.19524e-12
4.39047e-12
0
0.00159146
0.00459079
0.00710594
0.00898626
0.0102144
0.010837
0.0109122
0.0104977
0.00966091
0.00849484
0.00713469
0.005749
0.00448776
0.00342781
0.00256827
0.00187364
0.00131672
0.000887948
0.000581295
0.000381303
0.000262
0.000193417
0.000149421
0.00011354
8.02965e-05
5.12427e-05
2.91772e-05
1.48169e-05
6.7421e-06
2.7671e-06
1.03161e-06
3.51745e-07
1.10404e-07
3.20735e-08
8.64484e-09
2.18536e-09
5.22466e-10
1.00981e-10
2.52452e-11
3.29285e-12
-2.96357e-11
-1.75619e-11
-7.68332e-12
-1.53666e-11
-1.97571e-11
-3.18309e-11
-3.95142e-11
-1.86595e-11
-2.96357e-11
-1.75619e-11
-1.97571e-11
-6.58571e-12
-1.4269e-11
2.19524e-12
2.19524e-12
0
-8.78094e-12
-1.64643e-11
-8.78094e-12
-1.20738e-11
-3.29285e-12
-1.09762e-12
1.09762e-12
-2.19524e-12
-1.09762e-12
-1.09762e-11
1.09762e-12
-6.5857e-12
-1.09762e-12
-1.09762e-12
-2.19523e-12
0
-9.87856e-12
0
5.48809e-12
0.000989809
0.00279706
0.00417386
0.00504901
0.00549773
0.00563365
0.00553563
0.0052395
0.00476372
0.00413746
0.00342006
0.00269814
0.00205343
0.00152774
0.00111787
0.000799413
0.000551781
0.00036516
0.000233966
0.00014998
0.000101115
7.40017e-05
5.72496e-05
4.37618e-05
3.11428e-05
1.99759e-05
1.14182e-05
5.81535e-06
2.65198e-06
1.09023e-06
4.06939e-07
1.38853e-07
4.35809e-08
1.26731e-08
3.4103e-09
8.49556e-10
2.00864e-10
1.86595e-11
-1.64643e-11
-1.64643e-11
-6.5857e-12
-9.87856e-12
1.09762e-11
1.75619e-11
-1.09762e-12
0
-5.48809e-12
-5.48809e-12
4.39047e-12
-7.68332e-12
-1.53666e-11
1.31714e-11
1.09762e-12
0
-3.29285e-12
6.5857e-12
-7.68332e-12
7.68332e-12
-8.78094e-12
-2.19523e-12
-1.31714e-11
5.48809e-12
4.39047e-12
-7.68332e-12
1.09762e-12
-1.09762e-12
-1.09762e-12
1.09762e-12
2.19523e-12
-8.78094e-12
-1.31714e-11
-4.39047e-12
-6.5857e-12
-7.68332e-12
-1.09762e-12
0.000645571
0.00178004
0.00253599
0.00288538
0.00294332
0.00284776
0.0026819
0.00246934
0.00220561
0.00188877
0.00153697
0.00118812
0.000881562
0.000637863
0.0004546
0.000317872
0.000215192
0.000139728
8.7652e-05
5.48829e-05
3.62128e-05
2.6165e-05
2.01886e-05
1.54783e-05
1.1063e-05
7.1246e-06
4.08591e-06
2.08662e-06
9.53726e-07
3.92829e-07
1.46875e-07
5.01853e-08
1.57552e-08
4.59243e-09
1.23482e-09
2.89771e-10
5.04904e-11
-1.75619e-11
-2.63428e-11
-2.08547e-11
-2.19523e-12
0
5.48809e-12
-2.19523e-12
1.4269e-11
4.39047e-12
2.52452e-11
0
-1.09762e-12
3.29285e-12
5.48809e-12
2.19524e-12
-1.09762e-12
-1.31714e-11
-1.09762e-12
4.39047e-12
0
4.39047e-12
1.86595e-11
1.31714e-11
4.39047e-12
2.19523e-12
0
2.19524e-12
0
1.09762e-11
-2.19524e-12
0
0
5.48809e-12
8.78094e-12
0
9.87856e-12
2.19523e-12
-6.58571e-12
0.000426196
0.00114998
0.00156844
0.00167392
0.00158017
0.00141431
0.00124909
0.00110042
0.0009565
0.000804513
0.00064425
0.000488629
0.000353947
0.000249099
0.000172687
0.000117852
7.816e-05
4.97908e-05
3.05993e-05
1.8718e-05
1.20675e-05
8.579e-06
6.57904e-06
5.04629e-06
3.61687e-06
2.33655e-06
1.34382e-06
6.88009e-07
3.15179e-07
1.30097e-07
4.8754e-08
1.67112e-08
5.28283e-09
1.52788e-09
4.31364e-10
1.04274e-10
4.06118e-11
2.19524e-11
2.52452e-11
0
1.97571e-11
1.75619e-11
1.4269e-11
-6.5857e-12
1.97571e-11
1.4269e-11
1.20738e-11
3.29285e-12
-2.305e-11
-3.29285e-12
1.64643e-11
3.29285e-12
0
-2.19524e-12
2.19524e-12
-2.305e-11
-1.09762e-12
0
7.68332e-12
1.09762e-12
1.4269e-11
-2.19523e-12
-1.09762e-12
-1.09762e-12
-4.39047e-12
1.09762e-12
-1.09762e-12
1.20738e-11
0
0
2.08547e-11
9.87856e-12
6.58571e-12
4.39047e-12
0
0.000270841
0.000719645
0.000949927
0.0009617
0.000843972
0.000693439
0.000564184
0.000466583
0.000389427
0.000319588
0.000251404
0.000187258
0.000132673
9.09343e-05
6.13123e-05
4.0797e-05
2.64831e-05
1.65511e-05
9.97222e-06
5.96324e-06
3.75317e-06
2.61832e-06
1.98974e-06
1.52356e-06
1.09362e-06
7.08167e-07
4.08308e-07
2.09575e-07
9.62325e-08
3.98314e-08
1.4966e-08
5.16319e-09
1.64862e-09
4.79659e-10
1.66838e-10
4.60999e-11
3.07333e-11
3.84166e-11
1.75619e-11
-1.09762e-12
3.7319e-11
9.87856e-12
3.51238e-11
4.50023e-11
3.18309e-11
3.7319e-11
1.53666e-11
3.18309e-11
1.09762e-12
-4.39047e-12
1.20738e-11
1.4269e-11
1.53666e-11
2.08547e-11
1.09762e-12
5.48809e-12
4.39047e-12
1.4269e-11
-1.09762e-11
0
0
-2.19523e-12
-1.09762e-12
0
-3.29285e-12
0
4.39047e-12
-4.39047e-12
-2.19523e-12
-1.31714e-11
-5.48809e-12
6.5857e-12
-1.09762e-12
-5.48809e-12
2.19523e-12
0.000159398
0.00041947
0.000542003
0.000528773
0.00043825
0.000333147
0.000248196
0.000189667
0.000149678
0.000118723
9.14048e-05
6.6861e-05
4.64151e-05
3.10398e-05
2.0371e-05
1.32116e-05
8.38964e-06
5.14396e-06
3.04075e-06
1.77909e-06
1.09284e-06
7.46631e-07
5.60843e-07
4.27919e-07
3.07285e-07
1.99321e-07
1.15183e-07
5.92571e-08
2.72758e-08
1.13219e-08
4.26424e-09
1.473e-09
4.74171e-10
1.54764e-10
3.62214e-11
2.19524e-12
-8.78094e-12
1.31714e-11
-6.58571e-12
8.78094e-12
5.48809e-12
1.09762e-12
1.20738e-11
4.06118e-11
3.29285e-11
3.18309e-11
5.48809e-12
0
2.41476e-11
6.5857e-12
8.78094e-12
9.87856e-12
1.4269e-11
1.09762e-12
-2.19524e-12
1.4269e-11
1.31714e-11
2.19524e-12
2.19523e-12
0
0
-2.19523e-12
2.19524e-12
8.78094e-12
3.29285e-12
-1.09762e-12
0
-1.20738e-11
1.09762e-12
0
-1.64643e-11
-9.87856e-12
1.09762e-12
-7.68332e-12
0
8.51542e-05
0.000222817
0.000284187
0.000270747
0.000215635
0.000154197
0.000105937
7.42924e-05
5.46721e-05
4.14424e-05
3.10497e-05
2.22756e-05
1.51693e-05
9.91721e-06
6.34372e-06
4.01116e-06
2.49117e-06
1.49853e-06
8.69701e-07
4.98328e-07
2.98821e-07
1.99662e-07
1.47929e-07
1.12284e-07
8.05739e-08
5.23421e-08
3.03063e-08
1.56103e-08
7.20037e-09
3.00528e-09
1.14152e-09
3.89654e-10
1.08664e-10
3.07333e-11
-9.87856e-12
-1.09762e-12
-1.09762e-11
1.20738e-11
1.4269e-11
3.40261e-11
3.29285e-12
6.58571e-12
-2.52452e-11
1.09762e-12
2.08547e-11
1.4269e-11
-1.31714e-11
-5.48809e-12
1.4269e-11
1.64643e-11
2.19524e-12
2.19524e-12
-1.4269e-11
-8.78094e-12
0
-2.08547e-11
-4.39047e-12
-4.39047e-12
1.09762e-12
0
0
-2.19523e-12
4.39047e-12
0
5.48809e-12
0
-1.09762e-12
0
6.58571e-12
1.53666e-11
5.48809e-12
-5.48809e-12
-8.78094e-12
1.09762e-12
-4.39047e-12
4.10251e-05
0.000106994
0.000135419
0.000127147
9.86676e-05
6.75331e-05
4.34267e-05
2.80469e-05
1.90849e-05
1.36703e-05
9.89477e-06
6.94344e-06
4.63988e-06
2.9705e-06
1.85499e-06
1.14438e-06
6.95129e-07
4.10272e-07
2.33926e-07
1.31389e-07
7.69254e-08
5.0227e-08
3.66538e-08
2.7615e-08
1.979e-08
1.28762e-08
7.45831e-09
3.84166e-09
1.78253e-09
7.59551e-10
3.0404e-10
1.25128e-10
2.52452e-11
-9.87856e-12
-7.68332e-12
8.78094e-12
6.5857e-12
5.48809e-12
1.53666e-11
1.31714e-11
5.48809e-12
3.29285e-12
-1.20738e-11
-4.39047e-12
6.5857e-12
-1.09762e-11
1.09762e-12
1.86595e-11
3.29285e-12
2.41476e-11
-1.09762e-12
1.09762e-12
-1.09762e-11
-3.29285e-12
2.19523e-12
0
-1.4269e-11
-1.09762e-12
-1.09762e-12
0
-1.09762e-12
4.39047e-12
0
-1.09762e-12
0
-4.39047e-12
-1.09762e-12
-1.09762e-12
0
6.5857e-12
8.78094e-12
-2.19523e-12
-4.39047e-12
8.78094e-12
0
1.78395e-05
4.64388e-05
5.85137e-05
5.44588e-05
4.15715e-05
2.76203e-05
1.68979e-05
1.01618e-05
6.38676e-06
4.28459e-06
2.97208e-06
2.03197e-06
1.3316e-06
8.35829e-07
5.10377e-07
3.07496e-07
1.82727e-07
1.05838e-07
5.93087e-08
3.26991e-08
1.86891e-08
1.19135e-08
8.54934e-09
6.37606e-09
4.56389e-09
2.96576e-09
1.71338e-09
8.74801e-10
3.9624e-10
1.6135e-10
5.48809e-11
4.60999e-11
3.51238e-11
-1.09762e-11
-8.78094e-12