/*--------------------------------*- C++ -*----------------------------------*\
  =========                 |
  \\      /  F ield         | OpenFOAM: The Open Source CFD Toolbox
   \\    /   O peration     | Website:  https://openfoam.org
    \\  /    A nd           | Version:  10
     \\/     M anipulation  |
\*---------------------------------------------------------------------------*/
FoamFile
{
    format      ascii;
    class       volScalarField;
    location    "389";
    object      T;
}
// * * * * * * * * * * * * * * * * * * * * * * * * * * * * * * * * * * * * * //

dimensions      [0 0 0 1 0 0 0];

internalField   nonuniform List<scalar> 
11250
(
249.863
167.62
139.464
127.087
120.35
116.088
113.114
110.9
109.177
107.793
106.656
105.704
104.898
104.21
103.617
103.105
102.662
102.277
101.944
101.654
101.404
101.187
101.001
100.84
100.703
100.586
100.486
100.401
100.33
100.27
100.221
100.179
100.145
100.116
100.093
100.074
100.059
100.046
100.036
100.028
100.022
100.017
100.013
100.01
100.008
100.006
100.004
100.003
100.002
100.002
100.001
100.001
100.001
100.001
100
100
100
100
100
100
100
100
100
100
100
100
100
100
100
100
100
100
100
100
100
331.562
248.775
202.618
175.634
158.59
146.992
138.6
132.229
127.214
123.157
119.804
116.991
114.603
112.558
110.796
109.272
107.951
106.804
105.809
104.945
104.197
103.55
102.992
102.513
102.102
101.751
101.453
101.201
100.988
100.809
100.66
100.536
100.433
100.348
100.279
100.222
100.176
100.139
100.109
100.085
100.066
100.051
100.039
100.03
100.023
100.017
100.013
100.01
100.007
100.005
100.004
100.003
100.002
100.002
100.001
100.001
100.001
100
100
100
100
100
100
100
100
100
100
100
100
100
100
100
100
100
100
359.178
293.315
246.624
214.272
191.423
174.738
162.117
152.262
144.359
137.883
132.486
127.927
124.039
120.698
117.811
115.31
113.137
111.248
109.606
108.181
106.945
105.877
104.955
104.162
103.482
102.902
102.408
101.99
101.638
101.341
101.094
100.888
100.718
100.577
100.462
100.368
100.292
100.23
100.181
100.141
100.11
100.085
100.065
100.05
100.038
100.029
100.022
100.016
100.012
100.009
100.007
100.005
100.004
100.003
100.002
100.001
100.001
100.001
100
100
100
100
100
100
100
100
100
100
100
100
100
100
100
100
100
371.022
318.705
276.329
243.458
218.159
198.498
182.958
170.443
160.184
151.646
144.447
138.316
133.052
128.507
124.566
121.139
118.156
115.558
113.296
111.33
109.623
108.146
106.87
105.773
104.831
104.027
103.343
102.763
102.274
101.863
101.52
101.234
100.997
100.802
100.642
100.511
100.406
100.32
100.251
100.196
100.153
100.118
100.091
100.07
100.053
100.04
100.03
100.023
100.017
100.013
100.009
100.007
100.005
100.004
100.003
100.002
100.001
100.001
100.001
100
100
100
100
100
100
100
100
100
100
100
100
100
100
100
100
377.237
334.186
296.583
265.145
239.348
218.247
200.898
186.504
174.44
164.227
155.507
148.007
141.52
135.885
130.977
126.694
122.954
119.688
116.84
114.36
112.205
110.337
108.722
107.332
106.139
105.119
104.25
103.514
102.892
102.37
101.934
101.57
101.269
101.021
100.817
100.651
100.516
100.408
100.32
100.25
100.194
100.15
100.116
100.089
100.068
100.051
100.039
100.029
100.022
100.016
100.012
100.009
100.006
100.005
100.003
100.002
100.002
100.001
100.001
100.001
100
100
100
100
100
100
100
100
100
100
100
100
100
100
100
380.991
344.261
310.74
281.286
255.957
234.383
216.043
200.414
187.034
175.518
165.557
156.902
149.356
142.758
136.982
131.92
127.485
123.603
120.208
117.247
114.669
112.432
110.496
108.827
107.394
106.168
105.123
104.237
103.488
102.859
102.333
101.895
101.532
101.233
100.987
100.787
100.624
100.492
100.387
100.302
100.235
100.182
100.14
100.107
100.082
100.062
100.047
100.035
100.026
100.019
100.014
100.011
100.008
100.006
100.004
100.003
100.002
100.002
100.001
100.001
100.001
100
100
100
100
100
100
100
100
100
100
100
100
100
100
383.472
351.178
320.911
293.416
268.954
247.453
228.669
212.287
197.994
185.501
174.558
164.953
156.509
149.079
142.538
136.78
131.718
127.272
123.376
119.969
116.998
114.416
112.179
110.249
108.589
107.168
105.956
104.927
104.058
103.328
102.716
102.206
101.784
101.436
101.15
100.917
100.727
100.574
100.451
100.352
100.274
100.212
100.163
100.125
100.095
100.072
100.055
100.041
100.031
100.023
100.017
100.012
100.009
100.007
100.005
100.003
100.002
100.002
100.001
100.001
100.001
100
100
100
100
100
100
100
100
100
100
100
100
100
100
385.211
356.127
328.405
302.645
279.154
258.005
239.116
222.322
207.424
194.22
182.519
172.15
162.962
154.823
147.619
141.25
135.629
130.677
126.325
122.511
119.18
116.279
113.763
111.588
109.717
108.113
106.744
105.582
104.599
103.772
103.08
102.503
102.024
101.629
101.305
101.041
100.826
100.652
100.512
100.4
100.311
100.241
100.186
100.142
100.108
100.082
100.062
100.047
100.035
100.026
100.019
100.014
100.01
100.008
100.005
100.004
100.003
100.002
100.001
100.001
100.001
100
100
100
100
100
100
100
100
100
100
100
100
100
100
386.479
359.78
334.047
309.756
287.202
266.522
247.725
230.746
215.469
201.763
189.49
178.517
168.721
159.989
152.22
145.32
139.207
133.805
129.045
124.864
121.204
118.012
115.239
112.84
110.773
108.999
107.485
106.197
105.108
104.191
103.423
102.782
102.251
101.812
101.452
101.158
100.919
100.725
100.57
100.446
100.347
100.268
100.207
100.158
100.121
100.092
100.069
100.052
100.039
100.029
100.021
100.016
100.011
100.008
100.006
100.004
100.003
100.002
100.002
100.001
100.001
100.001
100
100
100
100
100
100
100
100
100
100
100
100
100
387.43
362.54
338.369
315.296
293.589
273.404
254.805
237.783
222.287
208.237
195.54
184.098
173.813
164.591
156.344
148.99
142.45
136.652
131.53
127.021
123.066
119.611
116.604
114
111.753
109.824
108.174
106.771
105.584
104.583
103.744
103.044
102.464
101.984
101.59
101.268
101.007
100.795
100.625
100.489
100.38
100.294
100.227
100.174
100.132
100.101
100.076
100.057
100.043
100.032
100.023
100.017
100.013
100.009
100.007
100.005
100.003
100.002
100.002
100.001
100.001
100.001
100
100
100
100
100
100
100
100
100
100
100
100
100
388.157
364.664
341.727
319.655
298.686
278.978
260.62
243.643
228.037
213.76
200.755
188.952
178.278
168.656
160.011
152.271
145.364
139.223
133.783
128.983
124.765
121.073
117.856
115.066
112.656
110.584
108.812
107.303
106.025
104.947
104.043
103.288
102.662
102.144
101.719
101.371
101.089
100.86
100.676
100.529
100.411
100.319
100.245
100.188
100.143
100.109
100.082
100.062
100.046
100.034
100.025
100.019
100.014
100.01
100.007
100.005
100.004
100.003
100.002
100.001
100.001
100.001
100
100
100
100
100
100
100
100
100
100
100
100
100
388.722
366.32
344.364
323.113
302.774
283.502
265.397
248.513
232.867
218.447
205.222
193.146
182.165
172.219
163.246
155.181
147.961
141.524
135.807
130.752
126.302
122.4
118.996
116.038
113.481
111.281
109.397
107.791
106.43
105.282
104.318
103.513
102.845
102.292
101.838
101.467
101.165
100.92
100.723
100.566
100.44
100.341
100.263
100.201
100.154
100.117
100.088
100.066
100.049
100.037
100.027
100.02
100.015
100.011
100.008
100.006
100.004
100.003
100.002
100.001
100.001
100.001
100
100
100
100
100
100
100
100
100
100
100
100
100
389.166
367.626
346.454
325.873
306.067
287.181
269.32
252.552
236.911
222.407
209.028
196.747
185.527
175.321
166.077
157.742
150.258
143.568
137.613
132.336
127.682
123.596
120.024
116.918
114.23
111.914
109.929
108.237
106.801
105.589
104.571
103.72
103.013
102.429
101.948
101.555
101.235
100.976
100.767
100.6
100.467
100.362
100.279
100.214
100.163
100.124
100.094
100.07
100.053
100.039
100.029
100.021
100.016
100.011
100.008
100.006
100.004
100.003
100.002
100.002
100.001
100.001
100.001
100
100
100
100
100
100
100
100
100
100
100
100
389.518
368.662
348.122
328.088
308.728
290.178
272.543
255.897
240.289
225.741
212.256
199.823
188.417
178.003
168.54
159.981
152.276
145.371
139.212
133.744
128.912
124.664
120.946
117.709
114.904
112.485
110.411
108.64
107.137
105.867
104.8
103.908
103.166
102.553
102.048
101.635
101.299
101.027
100.808
100.632
100.492
100.381
100.294
100.225
100.172
100.13
100.099
100.074
100.055
100.041
100.03
100.022
100.016
100.012
100.009
100.006
100.004
100.003
100.002
100.002
100.001
100.001
100.001
100
100
100
100
100
100
100
100
100
100
100
100
389.799
369.491
349.458
329.872
310.884
292.621
275.189
258.664
243.103
228.537
214.983
202.438
190.889
180.31
170.669
161.926
154.036
146.95
140.617
134.985
130.001
125.612
121.767
118.415
115.507
112.997
110.843
109.003
107.44
106.118
105.007
104.078
103.305
102.666
102.139
101.708
101.357
101.073
100.844
100.661
100.514
100.399
100.307
100.236
100.18
100.137
100.103
100.077
100.058
100.043
100.032
100.023
100.017
100.013
100.009
100.007
100.005
100.003
100.002
100.002
100.001
100.001
100.001
100
100
100
100
100
100
100
100
100
100
100
100
390.024
370.156
350.534
331.313
312.633
294.616
277.361
260.95
245.441
230.876
217.276
204.65
192.991
182.283
172.499
163.605
155.562
148.324
141.845
136.073
130.958
126.448
122.492
119.04
116.042
113.453
111.228
109.327
107.711
106.343
105.193
104.231
103.43
102.767
102.221
101.774
101.41
101.115
100.877
100.687
100.535
100.414
100.32
100.245
100.187
100.142
100.107
100.081
100.06
100.045
100.033
100.024
100.018
100.013
100.009
100.007
100.005
100.003
100.002
100.002
100.001
100.001
100.001
100
100
100
100
100
100
100
100
100
100
100
100
390.205
370.691
351.402
332.48
314.055
296.243
279.143
262.834
247.38
232.825
219.198
206.514
194.771
183.961
174.062
165.046
156.877
149.513
142.91
137.021
131.794
127.181
123.129
119.59
116.514
113.856
111.57
109.614
107.951
106.544
105.359
104.368
103.542
102.858
102.295
101.833
101.457
101.153
100.907
100.71
100.553
100.429
100.331
100.254
100.194
100.147
100.111
100.083
100.062
100.046
100.034
100.025
100.019
100.014
100.01
100.007
100.005
100.004
100.003
100.002
100.001
100.001
100.001
100
100
100
100
100
100
100
100
100
100
100
100
390.351
371.122
352.103
333.425
315.211
297.572
280.603
264.386
248.984
234.446
220.804
208.077
196.272
185.382
175.392
166.276
158.003
150.535
143.829
137.84
132.52
127.818
123.684
120.071
116.928
114.209
111.87
109.868
108.164
106.721
105.506
104.488
103.641
102.939
102.36
101.886
101.499
101.186
100.934
100.731
100.57
100.442
100.341
100.261
100.199
100.151
100.114
100.086
100.064
100.048
100.035
100.026
100.019
100.014
100.01
100.007
100.005
100.004
100.003
100.002
100.001
100.001
100.001
100
100
100
100
100
100
100
100
100
100
100
100
390.468
371.471
352.67
334.191
316.15
298.655
281.799
265.661
250.308
235.789
222.14
209.384
197.532
186.579
176.516
167.32
158.963
151.408
144.617
138.545
133.145
128.368
124.166
120.488
117.288
114.517
112.132
110.089
108.35
106.876
105.635
104.595
103.728
103.01
102.418
101.932
101.537
101.216
100.957
100.75
100.584
100.453
100.349
100.268
100.205
100.155
100.117
100.088
100.066
100.049
100.036
100.027
100.02
100.014
100.01
100.007
100.005
100.004
100.003
100.002
100.001
100.001
100.001
100
100
100
100
100
100
100
100
100
100
100
100
390.563
371.753
353.129
334.812
316.914
299.538
282.776
266.707
251.398
236.898
223.248
210.473
198.584
187.584
177.462
168.202
159.776
152.151
145.289
139.148
133.681
128.841
124.58
120.849
117.599
114.784
112.36
110.282
108.512
107.012
105.748
104.688
103.805
103.072
102.468
101.973
101.57
101.242
100.978
100.766
100.597
100.463
100.357
100.274
100.209
100.159
100.12
100.09
100.068
100.05
100.037
100.027
100.02
100.015
100.011
100.008
100.005
100.004
100.003
100.002
100.001
100.001
100.001
100
100
100
100
100
100
100
100
100
100
100
100
390.64
371.98
353.5
335.315
317.533
300.256
283.573
267.563
252.292
237.812
224.164
211.375
199.46
188.422
178.255
168.943
160.461
152.779
145.859
139.66
134.138
129.246
124.935
121.158
117.867
115.015
112.556
110.449
108.653
107.13
105.846
104.769
103.871
103.127
102.513
102.009
101.598
101.265
100.996
100.78
100.608
100.472
100.364
100.279
100.213
100.162
100.122
100.092
100.069
100.051
100.038
100.028
100.02
100.015
100.011
100.008
100.006
100.004
100.003
100.002
100.001
100.001
100.001
100
100
100
100
100
100
100
100
100
100
100
100
390.702
372.164
353.8
335.721
318.035
300.84
284.223
268.262
253.025
238.563
224.919
212.121
200.186
189.119
178.916
169.563
161.036
153.307
146.339
140.093
134.525
129.589
125.237
121.422
118.096
115.212
112.725
110.592
108.773
107.231
105.93
104.839
103.929
103.174
102.551
102.04
101.623
101.285
101.012
100.793
100.618
100.479
100.37
100.284
100.217
100.165
100.125
100.094
100.07
100.052
100.039
100.028
100.021
100.015
100.011
100.008
100.006
100.004
100.003
100.002
100.001
100.001
100.001
100
100
100
100
100
100
100
100
100
100
100
100
390.752
372.312
354.041
336.05
318.442
301.313
284.75
268.831
253.623
239.178
225.538
212.735
200.785
189.696
179.465
170.079
161.516
153.748
146.742
140.457
134.851
129.879
125.493
121.646
118.29
115.379
112.868
110.714
108.877
107.318
106.002
104.899
103.978
103.214
102.584
102.067
101.645
101.302
101.026
100.804
100.627
100.486
100.375
100.288
100.22
100.167
100.126
100.095
100.071
100.053
100.039
100.029
100.021
100.015
100.011
100.008
100.006
100.004
100.003
100.002
100.001
100.001
100.001
100
100
100
100
100
100
100
100
100
100
100
100
390.792
372.431
354.236
336.315
318.77
301.695
285.177
269.294
254.109
239.679
226.045
213.238
201.278
190.172
179.918
170.506
161.914
154.116
147.078
140.761
135.125
130.122
125.708
121.835
118.454
115.521
112.99
110.818
108.965
107.392
106.064
104.95
104.021
103.249
102.612
102.09
101.663
101.317
101.037
100.813
100.634
100.492
100.38
100.291
100.223
100.169
100.128
100.096
100.072
100.054
100.04
100.029
100.021
100.016
100.011
100.008
100.006
100.004
100.003
100.002
100.001
100.001
100.001
100
100
100
100
100
100
100
100
100
100
100
100
390.824
372.527
354.393
336.529
319.034
302.004
285.523
269.668
254.504
240.087
226.458
213.649
201.681
190.562
180.291
170.858
162.243
154.42
147.357
141.015
135.352
130.326
125.888
121.993
118.592
115.641
113.093
110.906
109.039
107.454
106.117
104.994
104.057
103.279
102.636
102.109
101.679
101.33
101.048
100.821
100.64
100.497
100.383
100.294
100.225
100.171
100.129
100.097
100.073
100.054
100.04
100.03
100.022
100.016
100.011
100.008
100.006
100.004
100.003
100.002
100.001
100.001
100.001
100.001
100
100
100
100
100
100
100
100
100
100
100
390.85
372.603
354.519
336.7
319.247
302.252
285.801
269.97
254.824
240.417
226.793
213.984
202.01
190.881
180.597
171.147
162.514
154.671
147.587
141.224
135.541
130.495
126.038
122.125
118.707
115.74
113.179
110.979
109.101
107.507
106.161
105.03
104.087
103.304
102.657
102.126
101.692
101.34
101.056
100.828
100.646
100.501
100.387
100.297
100.227
100.172
100.13
100.098
100.073
100.055
100.04
100.03
100.022
100.016
100.012
100.008
100.006
100.004
100.003
100.002
100.002
100.001
100.001
100.001
100
100
100
100
100
100
100
100
100
100
100
390.87
372.665
354.619
336.837
319.417
302.451
286.025
270.213
255.081
240.683
227.064
214.255
202.277
191.141
180.846
171.383
162.735
154.877
147.776
141.397
135.697
130.634
126.162
122.234
118.803
115.823
113.25
111.04
109.153
107.551
106.197
105.061
104.112
103.325
102.674
102.14
101.704
101.349
101.063
100.834
100.65
100.505
100.389
100.299
100.229
100.174
100.131
100.099
100.074
100.055
100.041
100.03
100.022
100.016
100.012
100.008
100.006
100.004
100.003
100.002
100.002
100.001
100.001
100.001
100
100
100
100
100
100
100
100
100
100
100
390.887
372.714
354.699
336.947
319.553
302.611
286.204
270.408
255.288
240.898
227.282
214.474
202.493
191.351
181.048
171.575
162.916
155.045
147.931
141.538
135.825
130.749
126.264
122.324
118.882
115.892
113.309
111.091
109.196
107.587
106.228
105.087
104.134
103.342
102.688
102.151
101.713
101.357
101.069
100.838
100.654
100.507
100.392
100.301
100.23
100.175
100.132
100.099
100.074
100.055
100.041
100.03
100.022
100.016
100.012
100.008
100.006
100.004
100.003
100.002
100.002
100.001
100.001
100.001
100
100
100
100
100
100
100
100
100
100
100
390.9
372.753
354.763
337.034
319.661
302.738
286.347
270.564
255.453
241.07
227.458
214.65
202.667
191.52
181.211
171.731
163.062
155.181
148.057
141.653
135.929
130.843
126.348
122.398
118.947
115.948
113.358
111.133
109.232
107.617
106.254
105.108
104.151
103.357
102.7
102.161
101.721
101.363
101.074
100.842
100.657
100.51
100.394
100.302
100.231
100.176
100.133
100.1
100.075
100.056
100.041
100.03
100.022
100.016
100.012
100.009
100.006
100.004
100.003
100.002
100.002
100.001
100.001
100.001
100
100
100
100
100
100
100
100
100
100
100
390.91
372.784
354.814
337.103
319.748
302.839
286.461
270.688
255.585
241.207
227.598
214.79
202.806
191.656
181.342
171.856
163.18
155.291
148.159
141.746
136.014
130.919
126.416
122.458
119
115.995
113.398
111.167
109.261
107.642
106.274
105.126
104.166
103.369
102.71
102.169
101.727
101.368
101.079
100.846
100.66
100.512
100.395
100.304
100.232
100.176
100.133
100.1
100.075
100.056
100.041
100.031
100.022
100.016
100.012
100.009
100.006
100.004
100.003
100.002
100.002
100.001
100.001
100.001
100
100
100
100
100
100
100
100
100
100
100
390.919
372.808
354.854
337.158
319.816
302.919
286.551
270.786
255.69
241.316
227.71
214.903
202.917
191.765
181.448
171.956
163.275
155.38
148.241
141.821
136.082
130.98
126.471
122.507
119.043
116.032
113.431
111.195
109.285
107.663
106.292
105.14
104.178
103.378
102.718
102.176
101.733
101.373
101.082
100.849
100.662
100.514
100.397
100.305
100.233
100.177
100.134
100.101
100.075
100.056
100.042
100.031
100.022
100.016
100.012
100.009
100.006
100.004
100.003
100.002
100.002
100.001
100.001
100.001
100
100
100
100
100
100
100
100
100
100
100
390.925
372.827
354.886
337.201
319.869
302.982
286.622
270.864
255.773
241.403
227.798
214.992
203.006
191.852
181.531
172.036
163.351
155.451
148.306
141.882
136.137
131.03
126.515
122.546
119.077
116.062
113.457
111.218
109.305
107.679
106.306
105.152
104.187
103.386
102.725
102.181
101.737
101.376
101.085
100.851
100.664
100.515
100.398
100.306
100.234
100.178
100.134
100.101
100.076
100.056
100.042
100.031
100.023
100.016
100.012
100.009
100.006
100.004
100.003
100.002
100.002
100.001
100.001
100.001
100
100
100
100
100
100
100
100
100
100
100
390.93
372.842
354.91
337.235
319.912
303.032
286.678
270.925
255.838
241.471
227.868
215.062
203.076
191.921
181.598
172.1
163.411
155.508
148.359
141.93
136.181
131.07
126.551
122.578
119.105
116.087
113.478
111.236
109.32
107.692
106.317
105.161
104.195
103.393
102.73
102.186
101.741
101.379
101.087
100.853
100.665
100.516
100.399
100.306
100.234
100.178
100.135
100.101
100.076
100.056
100.042
100.031
100.023
100.016
100.012
100.009
100.006
100.004
100.003
100.002
100.002
100.001
100.001
100.001
100
100
100
100
100
100
100
100
100
100
100
390.934
372.854
354.93
337.261
319.945
303.071
286.722
270.973
255.889
241.525
227.923
215.118
203.131
191.975
181.65
172.15
163.459
155.552
148.401
141.968
136.216
131.101
126.579
122.603
119.128
116.106
113.495
111.251
109.333
107.703
106.326
105.169
104.202
103.398
102.734
102.189
101.743
101.382
101.089
100.854
100.666
100.517
100.399
100.307
100.234
100.178
100.135
100.101
100.076
100.057
100.042
100.031
100.023
100.017
100.012
100.009
100.006
100.004
100.003
100.002
100.002
100.001
100.001
100.001
100
100
100
100
100
100
100
100
100
100
100
390.937
372.863
354.945
337.282
319.97
303.101
286.756
271.011
255.929
241.567
227.966
215.161
203.174
192.017
181.692
172.19
163.497
155.588
148.433
141.999
136.244
131.127
126.602
122.623
119.145
116.122
113.509
111.263
109.343
107.712
106.333
105.175
104.207
103.402
102.738
102.192
101.746
101.383
101.091
100.855
100.667
100.518
100.4
100.307
100.235
100.179
100.135
100.102
100.076
100.057
100.042
100.031
100.023
100.017
100.012
100.009
100.006
100.004
100.003
100.002
100.002
100.001
100.001
100.001
100
100
100
100
100
100
100
100
100
100
100
390.939
372.87
354.956
337.298
319.99
303.125
286.783
271.04
255.961
241.599
228
215.195
203.208
192.051
181.724
172.221
163.526
155.615
148.459
142.023
136.266
131.146
126.619
122.639
119.159
116.134
113.52
111.272
109.351
107.719
106.339
105.18
104.211
103.406
102.741
102.194
101.748
101.385
101.092
100.856
100.668
100.519
100.4
100.308
100.235
100.179
100.135
100.102
100.076
100.057
100.042
100.031
100.023
100.017
100.012
100.009
100.006
100.004
100.003
100.002
100.002
100.001
100.001
100.001
100
100
100
100
100
100
100
100
100
100
100
390.941
372.876
354.965
337.31
320.006
303.143
286.804
271.063
255.985
241.625
228.026
215.222
203.235
192.077
181.749
172.245
163.549
155.637
148.48
142.041
136.283
131.162
126.633
122.652
119.17
116.144
113.528
111.279
109.357
107.724
106.343
105.183
104.214
103.408
102.743
102.196
101.749
101.386
101.093
100.857
100.669
100.519
100.401
100.308
100.235
100.179
100.135
100.102
100.076
100.057
100.042
100.031
100.023
100.017
100.012
100.009
100.006
100.004
100.003
100.002
100.002
100.001
100.001
100.001
100
100
100
100
100
100
100
100
100
100
100
390.943
372.88
354.972
337.32
320.018
303.157
286.82
271.08
256.004
241.644
228.046
215.242
203.255
192.097
181.769
172.264
163.567
155.654
148.495
142.056
136.296
131.174
126.644
122.661
119.179
116.152
113.535
111.285
109.362
107.728
106.347
105.186
104.217
103.411
102.745
102.197
101.75
101.387
101.093
100.858
100.669
100.519
100.401
100.308
100.236
100.179
100.135
100.102
100.076
100.057
100.042
100.031
100.023
100.017
100.012
100.009
100.006
100.004
100.003
100.002
100.002
100.001
100.001
100.001
100
100
100
100
100
100
100
100
100
100
100
390.944
372.883
354.978
337.327
320.027
303.168
286.832
271.094
256.018
241.659
228.061
215.258
203.271
192.112
181.784
172.279
163.581
155.667
148.507
142.067
136.307
131.183
126.653
122.669
119.186
116.158
113.54
111.29
109.366
107.731
106.35
105.189
104.219
103.412
102.746
102.199
101.751
101.388
101.094
100.858
100.67
100.52
100.401
100.308
100.236
100.179
100.136
100.102
100.076
100.057
100.042
100.031
100.023
100.017
100.012
100.009
100.006
100.004
100.003
100.002
100.002
100.001
100.001
100.001
100
100
100
100
100
100
100
100
100
100
100
390.945
372.886
354.982
337.333
320.034
303.176
286.841
271.104
256.029
241.671
228.073
215.27
203.283
192.124
181.795
172.29
163.592
155.677
148.517
142.076
136.315
131.191
126.659
122.675
119.191
116.162
113.544
111.293
109.369
107.734
106.352
105.191
104.22
103.414
102.747
102.199
101.752
101.388
101.095
100.859
100.67
100.52
100.402
100.309
100.236
100.179
100.136
100.102
100.076
100.057
100.042
100.031
100.023
100.017
100.012
100.009
100.006
100.004
100.003
100.002
100.002
100.001
100.001
100.001
100
100
100
100
100
100
100
100
100
100
100
390.945
372.888
354.985
337.337
320.039
303.182
286.848
271.112
256.037
241.679
228.082
215.279
203.292
192.133
181.804
172.298
163.6
155.685
148.524
142.083
136.321
131.196
126.664
122.679
119.195
116.166
113.547
111.296
109.372
107.736
106.354
105.192
104.221
103.415
102.748
102.2
101.753
101.389
101.095
100.859
100.67
100.52
100.402
100.309
100.236
100.179
100.136
100.102
100.076
100.057
100.042
100.031
100.023
100.017
100.012
100.009
100.006
100.004
100.003
100.002
100.002
100.001
100.001
100.001
100
100
100
100
100
100
100
100
100
100
100
390.946
372.889
354.987
337.34
320.043
303.187
286.854
271.118
256.044
241.686
228.089
215.286
203.299
192.14
181.811
172.305
163.606
155.691
148.53
142.088
136.325
131.201
126.668
122.683
119.198
116.169
113.549
111.298
109.373
107.738
106.355
105.193
104.222
103.415
102.749
102.201
101.753
101.389
101.095
100.859
100.67
100.52
100.402
100.309
100.236
100.179
100.136
100.102
100.076
100.057
100.042
100.031
100.023
100.017
100.012
100.009
100.006
100.004
100.003
100.002
100.002
100.001
100.001
100.001
100
100
100
100
100
100
100
100
100
100
100
390.946
372.89
354.989
337.342
320.046
303.191
286.858
271.122
256.048
241.691
228.094
215.291
203.304
192.145
181.816
172.31
163.611
155.695
148.534
142.091
136.329
131.204
126.671
122.686
119.201
116.171
113.551
111.299
109.375
107.739
106.356
105.194
104.223
103.416
102.749
102.201
101.753
101.389
101.095
100.859
100.67
100.52
100.402
100.309
100.236
100.179
100.136
100.102
100.076
100.057
100.042
100.031
100.023
100.017
100.012
100.009
100.006
100.004
100.003
100.002
100.002
100.001
100.001
100.001
100
100
100
100
100
100
100
100
100
100
100
390.946
372.891
354.99
337.344
320.049
303.193
286.861
271.125
256.052
241.695
228.098
215.295
203.308
192.149
181.82
172.314
163.614
155.699
148.537
142.094
136.332
131.206
126.673
122.688
119.202
116.172
113.553
111.301
109.376
107.74
106.357
105.195
104.223
103.416
102.749
102.201
101.754
101.39
101.096
100.859
100.671
100.521
100.402
100.309
100.236
100.179
100.136
100.102
100.076
100.057
100.042
100.031
100.023
100.017
100.012
100.009
100.006
100.004
100.003
100.002
100.002
100.001
100.001
100.001
100
100
100
100
100
100
100
100
100
100
100
390.947
372.892
354.991
337.346
320.05
303.195
286.863
271.128
256.055
241.698
228.101
215.298
203.311
192.152
181.823
172.316
163.617
155.701
148.539
142.097
136.334
131.208
126.675
122.689
119.204
116.173
113.554
111.302
109.377
107.74
106.357
105.195
104.224
103.417
102.75
102.202
101.754
101.39
101.096
100.859
100.671
100.521
100.402
100.309
100.236
100.18
100.136
100.102
100.076
100.057
100.042
100.031
100.023
100.017
100.012
100.009
100.006
100.004
100.003
100.002
100.002
100.001
100.001
100.001
100
100
100
100
100
100
100
100
100
100
100
390.947
372.892
354.992
337.347
320.052
303.197
286.865
271.13
256.057
241.7
228.103
215.3
203.313
192.154
181.825
172.319
163.619
155.703
148.541
142.098
136.335
131.21
126.676
122.69
119.205
116.174
113.554
111.302
109.377
107.741
106.358
105.196
104.224
103.417
102.75
102.202
101.754
101.39
101.096
100.86
100.671
100.521
100.402
100.309
100.236
100.18
100.136
100.102
100.077
100.057
100.042
100.031
100.023
100.017
100.012
100.009
100.006
100.004
100.003
100.002
100.002
100.001
100.001
100.001
100
100
100
100
100
100
100
100
100
100
100
390.947
372.892
354.993
337.347
320.052
303.198
286.866
271.131
256.058
241.701
228.105
215.302
203.315
192.156
181.827
172.32
163.62
155.704
148.542
142.1
136.336
131.211
126.677
122.691
119.205
116.175
113.555
111.303
109.378
107.741
106.358
105.196
104.224
103.417
102.75
102.202
101.754
101.39
101.096
100.86
100.671
100.521
100.402
100.309
100.236
100.18
100.136
100.102
100.077
100.057
100.042
100.031
100.023
100.017
100.012
100.009
100.006
100.004
100.003
100.002
100.002
100.001
100.001
100.001
100
100
100
100
100
100
100
100
100
100
100
390.947
372.893
354.993
337.348
320.053
303.199
286.867
271.132
256.059
241.703
228.106
215.303
203.316
192.157
181.828
172.321
163.621
155.705
148.543
142.1
136.337
131.211
126.678
122.692
119.206
116.175
113.555
111.303
109.378
107.741
106.358
105.196
104.225
103.417
102.75
102.202
101.754
101.39
101.096
100.86
100.671
100.521
100.402
100.309
100.236
100.18
100.136
100.102
100.077
100.057
100.042
100.031
100.023
100.017
100.012
100.009
100.006
100.004
100.003
100.002
100.002
100.001
100.001
100.001
100
100
100
100
100
100
100
100
100
100
100
390.947
372.893
354.993
337.348
320.054
303.199
286.868
271.133
256.06
241.703
228.107
215.304
203.317
192.158
181.829
172.322
163.622
155.706
148.544
142.101
136.338
131.212
126.679
122.692
119.206
116.176
113.556
111.303
109.378
107.742
106.359
105.196
104.225
103.417
102.75
102.202
101.754
101.39
101.096
100.86
100.671
100.521
100.402
100.309
100.236
100.18
100.136
100.102
100.077
100.057
100.042
100.031
100.023
100.017
100.012
100.009
100.006
100.004
100.003
100.002
100.002
100.001
100.001
100.001
100
100
100
100
100
100
100
100
100
100
100
390.947
372.893
354.994
337.349
320.054
303.2
286.868
271.134
256.061
241.704
228.108
215.305
203.318
192.159
181.829
172.323
163.623
155.707
148.545
142.102
136.338
131.212
126.679
122.692
119.207
116.176
113.556
111.304
109.378
107.742
106.359
105.196
104.225
103.417
102.75
102.202
101.754
101.39
101.096
100.86
100.671
100.521
100.402
100.309
100.236
100.18
100.136
100.102
100.077
100.057
100.042
100.031
100.023
100.017
100.012
100.009
100.006
100.004
100.003
100.002
100.002
100.001
100.001
100.001
100
100
100
100
100
100
100
100
100
100
100
390.947
372.893
354.994
337.349
320.054
303.2
286.868
271.134
256.061
241.705
228.108
215.305
203.318
192.159
181.83
172.323
163.623
155.707
148.545
142.102
136.339
131.213
126.679
122.693
119.207
116.176
113.556
111.304
109.378
107.742
106.359
105.196
104.225
103.418
102.75
102.202
101.754
101.39
101.096
100.86
100.671
100.521
100.402
100.309
100.236
100.18
100.136
100.102
100.077
100.057
100.042
100.031
100.023
100.017
100.012
100.009
100.006
100.004
100.003
100.002
100.002
100.001
100.001
100.001
100
100
100
100
100
100
100
100
100
100
100
390.947
372.893
354.994
337.349
320.054
303.2
286.869
271.134
256.061
241.705
228.109
215.306
203.319
192.159
181.83
172.323
163.624
155.707
148.545
142.102
136.339
131.213
126.679
122.693
119.207
116.176
113.556
111.304
109.379
107.742
106.359
105.196
104.225
103.418
102.75
102.202
101.754
101.39
101.096
100.86
100.671
100.521
100.402
100.309
100.236
100.18
100.136
100.102
100.077
100.057
100.042
100.031
100.023
100.017
100.012
100.009
100.006
100.004
100.003
100.002
100.002
100.001
100.001
100.001
100
100
100
100
100
100
100
100
100
100
100
390.947
372.893
354.994
337.349
320.055
303.2
286.869
271.134
256.062
241.705
228.109
215.306
203.319
192.16
181.83
172.324
163.624
155.708
148.546
142.102
136.339
131.213
126.68
122.693
119.207
116.177
113.556
111.304
109.379
107.742
106.359
105.196
104.225
103.418
102.75
102.202
101.754
101.39
101.096
100.86
100.671
100.521
100.402
100.309
100.236
100.18
100.136
100.102
100.077
100.057
100.042
100.031
100.023
100.017
100.012
100.009
100.006
100.004
100.003
100.002
100.002
100.001
100.001
100.001
100
100
100
100
100
100
100
100
100
100
100
390.947
372.893
354.994
337.349
320.055
303.2
286.869
271.135
256.062
241.705
228.109
215.306
203.319
192.16
181.831
172.324
163.624
155.708
148.546
142.103
136.339
131.213
126.68
122.693
119.207
116.177
113.556
111.304
109.379
107.742
106.359
105.196
104.225
103.418
102.75
102.202
101.754
101.39
101.096
100.86
100.671
100.521
100.402
100.309
100.236
100.18
100.136
100.102
100.077
100.057
100.042
100.031
100.023
100.017
100.012
100.009