/*--------------------------------*- C++ -*----------------------------------*\
  =========                 |
  \\      /  F ield         | OpenFOAM: The Open Source CFD Toolbox
   \\    /   O peration     | Website:  https://openfoam.org
    \\  /    A nd           | Version:  10
     \\/     M anipulation  |
\*---------------------------------------------------------------------------*/
FoamFile
{
    format      ascii;
    class       volScalarField;
    location    "243";
    object      T;
}
// * * * * * * * * * * * * * * * * * * * * * * * * * * * * * * * * * * * * * //

dimensions      [0 0 0 1 0 0 0];

internalField   nonuniform List<scalar> 
11250
(
249.781
167.375
139.061
126.537
119.663
115.279
112.2
109.899
108.108
106.675
105.508
104.546
103.746
103.079
102.522
102.057
101.669
101.347
101.081
100.863
100.684
100.539
100.421
100.327
100.252
100.193
100.147
100.111
100.083
100.062
100.045
100.033
100.024
100.017
100.012
100.009
100.006
100.004
100.003
100.002
100.001
100.001
100.001
100
100
100
100
100
100
100
100
100
100
100
100
100
100
100
100
100
100
100
100
100
100
100
100
100
100
100
100
100
100
100
100
331.316
248.042
201.415
173.986
156.533
144.571
135.863
129.232
124.014
119.811
116.371
113.525
111.155
109.174
107.518
106.134
104.98
104.021
103.228
102.576
102.042
101.608
101.258
100.977
100.754
100.577
100.439
100.331
100.248
100.184
100.136
100.099
100.072
100.052
100.037
100.026
100.019
100.013
100.009
100.006
100.004
100.003
100.002
100.001
100.001
100.001
100
100
100
100
100
100
100
100
100
100
100
100
100
100
100
100
100
100
100
100
100
100
100
100
100
100
100
100
100
358.77
292.099
244.628
211.539
188.013
170.722
157.579
147.292
139.051
132.334
126.791
122.178
118.32
115.086
112.375
110.104
108.208
106.632
105.326
104.252
103.372
102.656
102.078
101.615
101.246
100.954
100.725
100.547
100.41
100.304
100.224
100.164
100.119
100.086
100.061
100.044
100.031
100.021
100.015
100.01
100.007
100.005
100.003
100.002
100.001
100.001
100.001
100
100
100
100
100
100
100
100
100
100
100
100
100
100
100
100
100
100
100
100
100
100
100
100
100
100
100
100
370.454
317.015
273.555
239.66
213.419
192.917
176.651
163.535
152.808
143.934
136.533
130.326
125.104
120.708
117.009
113.904
111.306
109.142
107.347
105.868
104.656
103.669
102.872
102.232
101.722
101.319
101.003
100.757
100.567
100.421
100.311
100.227
100.165
100.119
100.085
100.06
100.042
100.03
100.021
100.014
100.01
100.006
100.004
100.003
100.002
100.001
100.001
100.001
100
100
100
100
100
100
100
100
100
100
100
100
100
100
100
100
100
100
100
100
100
100
100
100
100
100
100
376.515
332.035
293.051
260.31
233.313
211.141
192.868
177.709
165.047
154.408
145.43
137.833
131.4
125.955
121.355
117.481
114.231
111.518
109.265
107.404
105.879
104.636
103.63
102.822
102.178
101.669
101.269
100.958
100.718
100.534
100.394
100.288
100.209
100.151
100.108
100.076
100.054
100.038
100.026
100.018
100.012
100.008
100.006
100.004
100.002
100.002
100.001
100.001
100
100
100
100
100
100
100
100
100
100
100
100
100
100
100
100
100
100
100
100
100
100
100
100
100
100
100
380.118
341.664
306.475
275.447
248.67
225.803
206.346
189.793
175.692
163.661
153.388
144.617
137.134
130.766
125.362
120.794
116.951
113.734
111.058
108.845
107.028
105.545
104.345
103.38
102.61
102
101.522
101.149
100.861
100.64
100.472
100.346
100.251
100.181
100.129
100.092
100.065
100.045
100.031
100.021
100.015
100.01
100.007
100.004
100.003
100.002
100.001
100.001
100.001
100
100
100
100
100
100
100
100
100
100
100
100
100
100
100
100
100
100
100
100
100
100
100
100
100
100
382.456
348.152
315.942
286.614
260.465
237.458
217.372
199.914
184.78
171.687
160.38
150.639
142.27
135.106
128.998
123.816
119.442
115.773
112.713
110.178
108.094
106.391
105.01
103.899
103.013
102.31
101.758
101.328
100.995
100.74
100.546
100.4
100.291
100.209
100.15
100.106
100.075
100.052
100.036
100.025
100.017
100.011
100.008
100.005
100.003
100.002
100.001
100.001
100.001
100
100
100
100
100
100
100
100
100
100
100
100
100
100
100
100
100
100
100
100
100
100
100
100
100
100
384.058
352.693
322.766
294.925
269.52
246.661
226.295
208.279
192.427
178.541
166.427
155.903
146.799
138.962
132.25
126.533
121.693
117.622
114.219
111.395
109.069
107.166
105.622
104.378
103.384
102.596
101.977
101.494
101.12
100.833
100.615
100.451
100.327
100.236
100.169
100.12
100.084
100.059
100.041
100.028
100.019
100.013
100.009
100.006
100.004
100.002
100.002
100.001
100.001
100
100
100
100
100
100
100
100
100
100
100
100
100
100
100
100
100
100
100
100
100
100
100
100
100
100
385.196
355.959
327.773
301.167
276.485
253.901
233.462
215.122
198.784
184.319
171.586
160.44
150.737
142.341
135.117
128.943
123.699
119.277
115.572
112.493
109.951
107.869
106.178
104.814
103.723
102.858
102.177
101.646
101.234
100.919
100.678
100.497
100.361
100.26
100.186
100.132
100.093
100.065
100.045
100.031
100.021
100.014
100.01
100.006
100.004
100.003
100.002
100.001
100.001
100
100
100
100
100
100
100
100
100
100
100
100
100
100
100
100
100
100
100
100
100
100
100
100
100
100
386.025
358.357
331.5
305.893
281.854
259.586
239.187
220.676
204.017
189.136
175.935
164.302
154.119
145.263
137.614
131.053
125.465
120.74
116.773
113.469
110.739
108.499
106.677
105.206
104.029
103.094
102.358
101.783
101.338
100.996
100.736
100.539
100.392
100.283
100.202
100.144
100.101
100.071
100.049
100.034
100.023
100.016
100.01
100.007
100.005
100.003
100.002
100.001
100.001
100.001
100
100
100
100
100
100
100
100
100
100
100
100
100
100
100
100
100
100
100
100
100
100
100
100
100
386.639
360.143
334.303
309.492
286.003
264.043
243.74
225.153
208.289
193.113
179.563
167.554
156.989
147.762
139.763
132.879
127
122.017
117.826
114.329
111.434
109.056
107.12
105.555
104.301
103.305
102.52
101.906
101.431
101.066
100.787
100.577
100.42
100.303
100.217
100.154
100.108
100.076
100.053
100.036
100.025
100.017
100.011
100.007
100.005
100.003
100.002
100.001
100.001
100.001
100
100
100
100
100
100
100
100
100
100
100
100
100
100
100
100
100
100
100
100
100
100
100
100
100
387.099
361.487
336.427
312.247
289.214
267.533
247.348
228.742
211.751
196.369
182.561
170.263
159.398
149.874
141.59
134.441
128.32
123.12
118.739
115.077
112.041
109.544
107.508
105.862
104.541
103.491
102.663
102.015
101.513
101.127
100.833
100.611
100.445
100.321
100.23
100.163
100.115
100.08
100.056
100.038
100.026
100.018
100.012
100.008
100.005
100.003
100.002
100.001
100.001
100.001
100
100
100
100
100
100
100
100
100
100
100
100
100
100
100
100
100
100
100
100
100
100
100
100
100
387.447
362.505
338.046
314.361
291.7
270.263
250.198
231.605
214.539
199.015
185.016
172.5
161.402
151.642
143.128
135.762
129.442
124.062
119.521
115.72
112.564
109.966
107.845
106.128
104.75
103.654
102.788
102.111
101.586
101.182
100.874
100.641
100.466
100.337
100.241
100.171
100.121
100.084
100.058
100.04
100.027
100.019
100.012
100.008
100.005
100.004
100.002
100.002
100.001
100.001
100
100
100
100
100
100
100
100
100
100
100
100
100
100
100
100
100
100
100
100
100
100
100
100
100
387.711
363.28
339.283
315.987
293.626
272.393
252.441
233.877
216.77
201.149
187.012
174.331
163.052
153.106
144.41
136.869
130.386
124.858
120.185
116.268
113.011
110.328
108.135
106.358
104.931
103.794
102.897
102.194
101.649
101.229
100.909
100.667
100.485
100.351
100.251
100.178
100.126
100.088
100.061
100.042
100.029
100.019
100.013
100.009
100.006
100.004
100.002
100.002
100.001
100.001
100
100
100
100
100
100
100
100
100
100
100
100
100
100
100
100
100
100
100
100
100
100
100
100
100
387.912
363.871
340.23
317.238
295.116
274.052
254.2
235.672
218.544
202.858
188.622
175.817
164.4
154.309
145.467
137.787
131.172
125.524
120.742
116.729
113.389
110.634
108.381
106.554
105.085
103.914
102.99
102.265
101.703
101.27
100.939
100.689
100.502
100.362
100.26
100.185
100.13
100.091
100.063
100.043
100.03
100.02
100.013
100.009
100.006
100.004
100.003
100.002
100.001
100.001
100
100
100
100
100
100
100
100
100
100
100
100
100
100
100
100
100
100
100
100
100
100
100
100
100
388.065
364.322
340.955
318.199
296.267
275.341
255.574
237.083
219.948
204.218
189.911
177.013
165.491
155.288
146.332
138.541
131.82
126.075
121.205
117.113
113.705
110.891
108.588
106.719
105.215
104.016
103.068
102.326
101.749
101.305
100.965
100.709
100.516
100.373
100.267
100.19
100.134
100.094
100.065
100.045
100.031
100.021
100.014
100.009
100.006
100.004
100.003
100.002
100.001
100.001
100
100
100
100
100
100
100
100
100
100
100
100
100
100
100
100
100
100
100
100
100
100
100
100
100
388.182
364.667
341.511
318.938
297.154
276.339
256.644
238.187
221.052
205.294
190.935
177.969
166.367
156.078
147.033
139.154
132.35
126.527
121.586
117.431
113.967
111.104
108.76
106.856
105.324
104.101
103.135
102.377
101.788
101.334
100.987
100.725
100.528
100.381
100.273
100.194
100.137
100.096
100.067
100.046
100.031
100.021
100.014
100.009
100.006
100.004
100.003
100.002
100.001
100.001
100
100
100
100
100
100
100
100
100
100
100
100
100
100
100
100
100
100
100
100
100
100
100
100
100
388.271
364.93
341.935
319.503
297.836
277.109
257.473
239.046
221.916
206.14
191.744
178.728
167.065
156.71
147.597
139.649
132.779
126.894
121.896
117.69
114.181
111.28
108.902
106.97
105.414
104.172
103.19
102.419
101.82
101.358
101.006
100.739
100.538
100.389
100.279
100.198
100.14
100.098
100.068
100.047
100.032
100.022
100.015
100.01
100.006
100.004
100.003
100.002
100.001
100.001
100
100
100
100
100
100
100
100
100
100
100
100
100
100
100
100
100
100
100
100
100
100
100
100
100
388.339
365.13
342.258
319.935
298.358
277.701
258.112
239.711
222.588
206.8
192.379
179.325
167.617
157.211
148.046
140.045
133.124
127.19
122.147
117.9
114.355
111.423
109.018
107.063
105.488
104.23
103.235
102.454
101.847
101.379
101.021
100.75
100.546
100.395
100.283
100.201
100.142
100.099
100.069
100.047
100.032
100.022
100.015
100.01
100.006
100.004
100.003
100.002
100.001
100.001
100
100
100
100
100
100
100
100
100
100
100
100
100
100
100
100
100
100
100
100
100
100
100
100
100
388.39
365.282
342.503
320.264
298.756
278.154
258.603
240.224
223.107
207.313
192.873
179.792
168.051
157.607
148.401
140.359
133.398
127.426
122.348
118.069
114.496
111.538
109.111
107.138
105.548
104.278
103.272
102.483
101.869
101.395
101.033
100.759
100.553
100.4
100.287
100.204
100.144
100.101
100.07
100.048
100.033
100.022
100.015
100.01
100.007
100.004
100.003
100.002
100.001
100.001
100
100
100
100
100
100
100
100
100
100
100
100
100
100
100
100
100
100
100
100
100
100
100
100
100
388.429
365.397
342.689
320.513
299.059
278.498
258.978
240.617
223.506
207.708
193.255
180.155
168.388
157.916
148.679
140.606
133.614
127.613
122.507
118.203
114.608
111.63
109.186
107.199
105.596
104.316
103.302
102.506
101.886
101.409
101.043
100.767
100.559
100.404
100.29
100.206
100.145
100.102
100.071
100.049
100.033
100.022
100.015
100.01
100.007
100.004
100.003
100.002
100.001
100.001
100
100
100
100
100
100
100
100
100
100
100
100
100
100
100
100
100
100
100
100
100
100
100
100
100
388.458
365.483
342.829
320.701
299.288
278.76
259.262
240.916
223.811
208.01
193.549
180.434
168.649
158.155
148.896
140.799
133.783
127.759
122.633
118.309
114.696
111.703
109.246
107.247
105.635
104.346
103.326
102.524
101.9
101.419
101.052
100.773
100.563
100.407
100.292
100.208
100.147
100.103
100.071
100.049
100.033
100.023
100.015
100.01
100.007
100.004
100.003
100.002
100.001
100.001
100
100
100
100
100
100
100
100
100
100
100
100
100
100
100
100
100
100
100
100
100
100
100
100
100
388.48
365.548
342.934
320.842
299.46
278.957
259.477
241.142
224.042
208.241
193.773
180.648
168.85
158.34
149.063
140.948
133.915
127.873
122.73
118.392
114.765
111.76
109.293
107.285
105.665
104.37
103.344
102.539
101.912
101.428
101.058
100.778
100.567
100.41
100.294
100.209
100.148
100.103
100.072
100.049
100.034
100.023
100.015
100.01
100.007
100.004
100.003
100.002
100.001
100.001
100
100
100
100
100
100
100
100
100
100
100
100
100
100
100
100
100
100
100
100
100
100
100
100
100
388.496
365.596
343.013
320.948
299.589
279.104
259.639
241.312
224.217
208.415
193.943
180.811
169.002
158.48
149.191
141.063
134.016
127.961
122.806
118.456
114.819
111.805
109.329
107.314
105.689
104.389
103.359
102.55
101.921
101.435
101.063
100.781
100.57
100.412
100.295
100.21
100.148
100.104
100.072
100.05
100.034
100.023
100.015
100.01
100.007
100.004
100.003
100.002
100.001
100.001
100
100
100
100
100
100
100
100
100
100
100
100
100
100
100
100
100
100
100
100
100
100
100
100
100
388.509
365.632
343.071
321.026
299.685
279.214
259.76
241.44
224.347
208.546
194.071
180.934
169.118
158.587
149.288
141.15
134.093
128.028
122.864
118.505
114.86
111.839
109.357
107.337
105.707
104.404
103.371
102.559
101.928
101.44
101.067
100.784
100.572
100.414
100.297
100.211
100.149
100.104
100.072
100.05
100.034
100.023
100.016
100.01
100.007
100.004
100.003
100.002
100.001
100.001
100
100
100
100
100
100
100
100
100
100
100
100
100
100
100
100
100
100
100
100
100
100
100
100
100
388.517
365.658
343.114
321.085
299.756
279.296
259.849
241.535
224.445
208.643
194.167
181.025
169.204
158.667
149.361
141.216
134.151
128.079
122.908
118.543
114.892
111.865
109.379
107.355
105.721
104.415
103.38
102.566
101.933
101.444
101.07
100.787
100.574
100.415
100.298
100.212
100.149
100.105
100.073
100.05
100.034
100.023
100.016
100.01
100.007
100.004
100.003
100.002
100.001
100.001
100
100
100
100
100
100
100
100
100
100
100
100
100
100
100
100
100
100
100
100
100
100
100
100
100
388.524
365.678
343.146
321.127
299.808
279.356
259.915
241.605
224.517
208.716
194.238
181.094
169.269
158.727
149.416
141.265
134.195
128.118
122.941
118.571
114.916
111.885
109.396
107.368
105.732
104.424
103.386
102.572
101.937
101.447
101.073
100.788
100.575
100.416
100.298
100.212
100.15
100.105
100.073
100.05
100.034
100.023
100.016
100.01
100.007
100.005
100.003
100.002
100.001
100.001
100
100
100
100
100
100
100
100
100
100
100
100
100
100
100
100
100
100
100
100
100
100
100
100
100
388.529
365.692
343.169
321.158
299.846
279.4
259.963
241.656
224.57
208.769
194.29
181.144
169.317
158.772
149.457
141.302
134.228
128.146
122.966
118.593
114.934
111.9
109.408
107.378
105.74
104.43
103.392
102.576
101.94
101.45
101.074
100.79
100.576
100.417
100.299
100.213
100.15
100.105
100.073
100.05
100.034
100.023
100.016
100.01
100.007
100.005
100.003
100.002
100.001
100.001
100
100
100
100
100
100
100
100
100
100
100
100
100
100
100
100
100
100
100
100
100
100
100
100
100
388.532
365.702
343.185
321.181
299.874
279.432
259.999
241.693
224.608
208.808
194.329
181.181
169.352
158.805
149.486
141.329
134.252
128.168
122.984
118.608
114.947
111.911
109.417
107.386
105.746
104.435
103.395
102.579
101.943
101.451
101.076
100.791
100.577
100.417
100.299
100.213
100.15
100.105
100.073
100.05
100.034
100.023
100.016
100.01
100.007
100.005
100.003
100.002
100.001
100.001
100
100
100
100
100
100
100
100
100
100
100
100
100
100
100
100
100
100
100
100
100
100
100
100
100
388.535
365.71
343.197
321.197
299.894
279.455
260.024
241.72
224.636
208.836
194.357
181.208
169.377
158.828
149.508
141.349
134.269
128.183
122.998
118.62
114.957
111.92
109.424
107.391
105.751
104.439
103.398
102.581
101.944
101.453
101.077
100.792
100.577
100.418
100.3
100.213
100.15
100.105
100.073
100.05
100.034
100.023
100.016
100.01
100.007
100.005
100.003
100.002
100.001
100.001
100
100
100
100
100
100
100
100
100
100
100
100
100
100
100
100
100
100
100
100
100
100
100
100
100
388.537
365.715
343.206
321.209
299.908
279.471
260.042
241.74
224.656
208.856
194.377
181.228
169.396
158.846
149.524
141.363
134.282
128.195
123.008
118.628
114.964
111.926
109.429
107.396
105.754
104.441
103.4
102.583
101.946
101.454
101.078
100.792
100.578
100.418
100.3
100.213
100.151
100.105
100.073
100.05
100.034
100.023
100.016
100.01
100.007
100.005
100.003
100.002
100.001
100.001
100
100
100
100
100
100
100
100
100
100
100
100
100
100
100
100
100
100
100
100
100
100
100
100
100
388.538
365.719
343.212
321.217
299.919
279.483
260.055
241.754
224.671
208.871
194.391
181.241
169.409
158.858
149.536
141.373
134.292
128.203
123.015
118.635
114.969
111.93
109.433
107.399
105.757
104.443
103.402
102.584
101.946
101.455
101.078
100.793
100.578
100.418
100.3
100.213
100.151
100.105
100.073
100.05
100.034
100.023
100.016
100.01
100.007
100.005
100.003
100.002
100.001
100.001
100
100
100
100
100
100
100
100
100
100
100
100
100
100
100
100
100
100
100
100
100
100
100
100
100
388.539
365.721
343.217
321.223
299.926
279.492
260.064
241.764
224.681
208.881
194.401
181.251
169.418
158.867
149.544
141.381
134.298
128.209
123.02
118.639
114.973
111.933
109.435
107.401
105.758
104.445
103.403
102.585
101.947
101.455
101.079
100.793
100.578
100.418
100.3
100.214
100.151
100.106
100.073
100.05
100.034
100.023
100.016
100.01
100.007
100.005
100.003
100.002
100.001
100.001
100
100
100
100
100
100
100
100
100
100
100
100
100
100
100
100
100
100
100
100
100
100
100
100
100
388.539
365.723
343.22
321.227
299.931
279.497
260.071
241.771
224.688
208.889
194.408
181.258
169.425
158.873
149.55
141.386
134.303
128.213
123.024
118.642
114.976
111.936
109.437
107.402
105.76
104.446
103.404
102.585
101.948
101.455
101.079
100.793
100.578
100.418
100.3
100.214
100.151
100.106
100.073
100.051
100.035
100.023
100.016
100.01
100.007
100.005
100.003
100.002
100.001
100.001
100
100
100
100
100
100
100
100
100
100
100
100
100
100
100
100
100
100
100
100
100
100
100
100
100
388.54
365.725
343.222
321.23
299.935
279.502
260.076
241.775
224.693
208.894
194.413
181.263
169.43
158.878
149.554
141.39
134.306
128.216
123.026
118.644
114.978
111.937
109.438
107.403
105.761
104.446
103.405
102.586
101.948
101.456
101.079
100.793
100.579
100.418
100.3
100.214
100.151
100.106
100.073
100.051
100.035
100.023
100.016
100.01
100.007
100.005
100.003
100.002
100.001
100.001
100
100
100
100
100
100
100
100
100
100
100
100
100
100
100
100
100
100
100
100
100
100
100
100
100
388.54
365.725
343.223
321.232
299.937
279.504
260.079
241.779
224.697
208.897
194.417
181.267
169.433
158.881
149.557
141.392
134.309
128.218
123.028
118.646
114.979
111.938
109.439
107.404
105.761
104.447
103.405
102.586
101.948
101.456
101.079
100.793
100.579
100.419
100.3
100.214
100.151
100.106
100.073
100.051
100.035
100.023
100.016
100.01
100.007
100.005
100.003
100.002
100.001
100.001
100
100
100
100
100
100
100
100
100
100
100
100
100
100
100
100
100
100
100
100
100
100
100
100
100
388.54
365.726
343.224
321.233
299.939
279.506
260.081
241.781
224.699
208.9
194.419
181.269
169.435
158.883
149.559
141.394
134.31
128.219
123.029
118.647
114.98
111.939
109.44
107.405
105.762
104.447
103.405
102.586
101.948
101.456
101.079
100.794
100.579
100.419
100.3
100.214
100.151
100.106
100.073
100.051
100.035
100.023
100.016
100.01
100.007
100.005
100.003
100.002
100.001
100.001
100
100
100
100
100
100
100
100
100
100
100
100
100
100
100
100
100
100
100
100
100
100
100
100
100
388.54
365.727
343.225
321.234
299.94
279.508
260.082
241.783
224.701
208.901
194.421
181.271
169.437
158.884
149.56
141.396
134.311
128.22
123.03
118.648
114.981
111.94
109.441
107.405
105.762
104.448
103.405
102.586
101.949
101.456
101.079
100.794
100.579
100.419
100.3
100.214
100.151
100.106
100.073
100.051
100.035
100.023
100.016
100.01
100.007
100.005
100.003
100.002
100.001
100.001
100
100
100
100
100
100
100
100
100
100
100
100
100
100
100
100
100
100
100
100
100
100
100
100
100
388.541
365.727
343.225
321.235
299.941
279.509
260.083
241.784
224.702
208.903
194.422
181.272
169.438
158.885
149.561
141.396
134.312
128.221
123.031
118.648
114.981
111.94
109.441
107.405
105.762
104.448
103.406
102.587
101.949
101.456
101.079
100.794
100.579
100.419
100.3
100.214
100.151
100.106
100.073
100.051
100.035
100.023
100.016
100.01
100.007
100.005
100.003
100.002
100.001
100.001
100
100
100
100
100
100
100
100
100
100
100
100
100
100
100
100
100
100
100
100
100
100
100
100
100
388.541
365.727
343.226
321.235
299.941
279.509
260.084
241.784
224.703
208.903
194.423
181.273
169.439
158.886
149.562
141.397
134.313
128.221
123.031
118.649
114.981
111.94
109.441
107.405
105.762
104.448
103.406
102.587
101.949
101.456
101.079
100.794
100.579
100.419
100.3
100.214
100.151
100.106
100.073
100.051
100.035
100.023
100.016
100.01
100.007
100.005
100.003
100.002
100.001
100.001
100
100
100
100
100
100
100
100
100
100
100
100
100
100
100
100
100
100
100
100
100
100
100
100
100
388.541
365.727
343.226
321.236
299.941
279.51
260.084
241.785
224.703
208.904
194.423
181.273
169.439
158.886
149.562
141.397
134.313
128.222
123.031
118.649
114.982
111.94
109.441
107.406
105.762
104.448
103.406
102.587
101.949
101.456
101.079
100.794
100.579
100.419
100.3
100.214
100.151
100.106
100.073
100.051
100.035
100.023
100.016
100.01
100.007
100.005
100.003
100.002
100.001
100.001
100
100
100
100
100
100
100
100
100
100
100
100
100
100
100
100
100
100
100
100
100
100
100
100
100
388.541
365.727
343.226
321.236
299.942
279.51
260.085
241.785
224.704
208.904
194.424
181.273
169.439
158.887
149.562
141.398
134.313
128.222
123.032
118.649
114.982
111.941
109.441
107.406
105.763
104.448
103.406
102.587
101.949
101.456
101.079
100.794
100.579
100.419
100.3
100.214
100.151
100.106
100.073
100.051
100.035
100.023
100.016
100.01
100.007
100.005
100.003
100.002
100.001
100.001
100
100
100
100
100
100
100
100
100
100
100
100
100
100
100
100
100
100
100
100
100
100
100
100
100
388.541
365.727
343.226
321.236
299.942
279.51
260.085
241.785
224.704
208.904
194.424
181.274
169.44
158.887
149.562
141.398
134.313
128.222
123.032
118.649
114.982
111.941
109.441
107.406
105.763
104.448
103.406
102.587
101.949
101.456
101.08
100.794
100.579
100.419
100.3
100.214
100.151
100.106
100.073
100.051
100.035
100.023
100.016
100.01
100.007
100.005
100.003
100.002
100.001
100.001
100
100
100
100
100
100
100
100
100
100
100
100
100
100
100
100
100
100
100
100
100
100
100
100
100
388.541
365.727
343.226
321.236
299.942
279.51
260.085
241.786
224.704
208.904
194.424
181.274
169.44
158.887
149.563
141.398
134.313
128.222
123.032
118.649
114.982
111.941
109.441
107.406
105.763
104.448
103.406
102.587
101.949
101.456
101.08
100.794
100.579
100.419
100.3
100.214
100.151
100.106
100.073
100.051
100.035
100.023
100.016
100.01
100.007
100.005
100.003
100.002
100.001
100.001
100
100
100
100
100
100
100
100
100
100
100
100
100
100
100
100
100
100
100
100
100
100
100
100
100
388.541
365.727
343.226
321.236
299.942
279.51
260.085
241.786
224.704
208.905
194.424
181.274
169.44
158.887
149.563
141.398
134.314
128.222
123.032
118.649
114.982
111.941
109.441
107.406
105.763
104.448
103.406
102.587
101.949
101.456
101.08
100.794
100.579
100.419
100.3
100.214
100.151
100.106
100.073
100.051
100.035
100.023
100.016
100.01
100.007
100.005
100.003
100.002
100.001
100.001
100
100
100
100
100
100
100
100
100
100
100
100
100
100
100
100
100
100
100
100
100
100
100
100
100
388.541
365.727
343.226
321.236
299.942
279.51
260.085
241.786
224.704
208.905
194.424
181.274
169.44
158.887
149.563
141.398
134.314
128.222
123.032
118.649
114.982
111.941
109.441
107.406
105.763
104.448
103.406
102.587
101.949
101.456
101.08
100.794
100.579
100.419
100.3
100.214
100.151
100.106
100.073
100.051
100.035
100.023
100.016
100.01
100.007
100.005
100.003
100.002
100.001
100.001
100
100
100
100
100
100
100
100
100
100
100
100
100
100
100
100
100
100
100
100
100
100
100
100
100
388.541
365.727
343.226
321.236
299.942
279.51
260.085
241.786
224.704
208.905
194.424
181.274
169.44
158.887
149.563
141.398
134.314
128.222
123.032
118.649
114.982
111.941
109.441
107.406
105.763
104.448
103.406
102.587
101.949
101.456
101.08
100.794
100.579
100.419
100.3
100.214
100.151
100.106
100.073
100.051
100.035
100.023
100.016
100.01
100.007
100.005
100.003
100.002
100.001
100.001
100
100
100
100
100
100
100
100
100
100
100
100
100
100
100
100
100
100
100
100
100
100
100
100
100
388.541
365.727
343.226
321.236
299.942
279.51
260.085
241.786
224.704
208.905
194.424
181.274
169.44
158.887
149.563
141.398
134.314
128.222
123.032
118.649
114.982
111.941
109.441
107.406
105.763
104.448
103.406
102.587
101.949
101.456
101.08
100.794
100.579
100.419
100.3
100.214
100.151
100.106
100.073
100.051
100.035
100.023
100.016
100.01
100.007
100.005
100.003
100.002
100.001
100.001
100
100
100
100
100
100
100
100
100
100
100
100
100
100
100
100
100
100
100
100
100
100
100
100
100
388.541
365.727
343.226
321.236
299.942
279.51
260.085
241.786
224.704
208.905
194.424
181.274
169.44
158.887
149.563
141.398
134.314
128.222
123.032
118.649
114.982
111.941
109.441
107.406
105.763
104.448
103.406
102.587
101.949
101.456
101.08
100.794
100.579
100.419
100.3
100.214
100.151
100.106
100.073
100.051
100.035
100.023
100.016
100.01
100.007
100.005
100.003
100.002
100.001
100.001
100
100
100
100
100
100
100
100
100
100
100
100
100
100
100
100
100
100
100
100
100
100
100
100
100
388.541
365.727
343.226
321.236
299.942
279.51
260.085
241.786
224.704
208.905
194.424
181.274
169.44
158.887
149.563
141.398
134.314
128.222
123.032
118.649
114.982
111.941
109.441
107.406
105.763
104.448
103.406
102.587
101.949
101.456
101.08
100.794
100.579
100.419
100.3
100.214
100.151
100.106
100.073
100.051
100.035
100.023
100.016
100.01
100.007
100.005
100.003
100.002
100.001
100.001
100
100
100
100
100
100
100
100
100
100
100
100
100
100
100
100
100
100
100
100
100
100
100
100
100
388.541
365.727
343.226
321.236
299.942
279.51
260.085
241.786
224.704
208.905
194.424
181.274
169.44
158.887
149.563
141.398
134.314
128.222
123.032
118.649
114.982
111.941
109.441
107.406
105.763
104.448
103.406
102.587
101.949
101.456
101.08
100.794
100.579
100.419
100.3
100.214
100.151
100.106
100.073
100.051
100.035
100.023
100.016
100.01
100.007
100.005
100.003
100.002
100.001
100.001
100
100
100
100
100
100
100
100
100
100
100
100
100
100
100
100
100
100
100
100
100
100
100
100
100
388.541
365.727
343.226
321.236
299.942
279.51
260.085
241.786
224.704
208.905
194.424
181.274
169.44
158.887
149.563
141.398
134.314
128.222
123.032
118.649
114.982
111.941
109.441
107.406
105.763
104.448
103.406
102.587
101.949
101.456
101.08
100.794
100.579
100.419
100.3
100.214
100.151
100.106
100.073
100.051
100.035
100.023
100.016
100.01
100.007
100.005
100.003
100.002
100.001
100.001
100
100
100
100
100
100
100
100
100
100
100
100
100
100
100
100
100
100
100
100
100
100
100
100
100
388.541
365.727
343.226
321.236
299.942
279.51
260.085
241.786
224.704
208.905
194.424
181.274
169.44
158.887
149.563
141.398
134.314
128.222
123.032
118.649
114.982
111.941
109.441
107.406
105.763
104.448
103.406
102.587
101.949
101.456
101.08
100.794
100.579
100.419
100.3
100.214
100.151
100.106
100.073
100.051
100.035
100.023
100.016
100.01
100.007
100.005
100.003
100.002
100.001
100.001
100
100
100
100
100
100
100
100
100
100
100
100
100
100
100
100
100
100
100
100
100
100
100
100
100
388.541
365.727
343.226
321.236
299.942
279.51
260.085
241.786
224.704
208.905
194.424
181.274
169.44
158.887
149.563
141.398
134.314
128.222
123.032
118.649
114.982
111.941
109.441
107.406
105.763
104.448
103.406
102.587
101.949
101.456
101.08
100.794
100.579
100.419
100.3
100.214
100.151
100.106
100.073
100.051
100.035
100.023
100.016
100.01
100.007
100.005
100.003
100.002
100.001
100.001
100
100
100
100
100
100
100
100
100
100
100
100
100
100
100
100
100
100
100
100
100
100
100
100
100
388.541
365.727
343.226
321.236
299.942
279.51
260.085
241.786
224.704
208.905
194.424
181.274
169.44
158.887
149.563
141.398
134.314
128.222
123.032
118.649
114.982
111.941
109.441
107.406
105.763
104.448
103.406
102.587
101.949
101.456
101.08
100.794
100.579
100.419
100.3
100.214
100.151
100.106
100.073
100.051
100.035
100.023
100.016
100.01
100.007
100.005
100.003
100.002
100.001
100.001
100
100
100
100
100
100
100
100
100
100
100
100
100
100
100
100
100
100
100
100
100
100
100
100
100
388.541
365.727
343.226
321.236
299.942
279.51
260.085
241.786
224.704
208.905
194.424
181.274
169.44
158.887
149.563
141.398
134.314
128.222
123.032
118.649
114.982
111.941
109.441
107.406
105.763
104.448
103.406
102.587
101.949
101.456
101.08
100.794
100.579
100.419
100.3
100.214
100.151
100.106
100.073
100.051
100.035
100.023
100.016
100.01
100.007
100.005
100.003
100.002
100.001
100.001
100
100
100
100
100
100
100
100
100
100
100
100
100
100
100
100
100
100
100
100
100
100
100
100
100
388.541
365.727
343.226
321.236
299.942
279.51
260.085
241.786
224.704
208.905
194.424
181.274
169.44
158.887
149.563
141.398
134.314
128.222
123.032
118.649
114.982
111.941
109.441
107.406
105.763
104.448
103.406
102.587
101.949
101.456
101.08
100.794
100.579
100.419
100.3
100.214
100.151
100.106
100.073
100.051
100.035
100.023
100.016
100.01
100.007
100.005
100.003
100.002
100.001
100.001
100
100
100
100
100
100
100
100
100
100
100
100
100
100
100
100
100
100
100
100
100
100
100
100
100
388.541
365.727
343.226
321.236
299.942
279.51
260.085
241.786
224.704
208.905
194.424
181.274
169.44
158.887
149.563
141.398
134.314
128.222
123.032
118.649
114.982
111.941
109.441
107.406
105.763
104.448
103.406
102.587
101.949
101.456
101.08
100.794
100.579
100.419
100.3
100.214
100.151
100.106
100.073
100.051
100.035
100.023
100.016
100.01
100.007
100.005
100.003
100.002
100.001
100.001
100
100
100
100
100
100
100
100
100
100
100
100
100
100
100
100
100
100
100
100
100
100
100
100
100
388.541
365.727
343.226
321.236
299.942
279.51
260.085
241.786
224.704
208.905
194.424
181.274
169.44
158.887
149.563
141.398
134.314
128.222
123.032
118.649
114.982
111.941
109.441
107.406
105.763
104.448
103.406
102.587
101.949
101.456
101.08
100.794
100.579
100.419
100.3
100.214
100.151
100.106
100.073
100.051
100.035
100.023
100.016
100.01
100.007
100.005
100.003
100.002
100.001
100.001
100
100
100
100
100
100
100
100
100
100
100
100
100
100
100
100
100
100
100
100
100
100
100
100
100
388.541
365.727
343.226
321.236
299.942
279.51
260.085
241.786
224.704
208.905
194.424
181.274
169.44
158.887
149.563
141.398
134.314
128.222
123.032
118.649
114.982
111.941
109.441
107.406
105.763
104.448
103.406
102.587
101.949
101.456
101.08
100.794
100.579