/*--------------------------------*- C++ -*----------------------------------*\
  =========                 |
  \\      /  F ield         | OpenFOAM: The Open Source CFD Toolbox
   \\    /   O peration     | Website:  https://openfoam.org
    \\  /    A nd           | Version:  10
     \\/     M anipulation  |
\*---------------------------------------------------------------------------*/
FoamFile
{
    format      ascii;
    class       volScalarField;
    location    "308";
    object      T;
}
// * * * * * * * * * * * * * * * * * * * * * * * * * * * * * * * * * * * * * //

dimensions      [0 0 0 1 0 0 0];

internalField   nonuniform List<scalar> 
11250
(
249.827
167.512
139.287
126.845
120.047
115.729
112.706
110.45
108.693
107.283
106.127
105.165
104.356
103.671
103.089
102.593
102.17
101.81
101.503
101.244
101.024
100.84
100.685
100.556
100.448
100.36
100.287
100.228
100.18
100.141
100.11
100.085
100.066
100.05
100.038
100.029
100.022
100.016
100.012
100.009
100.007
100.005
100.003
100.002
100.002
100.001
100.001
100.001
100
100
100
100
100
100
100
100
100
100
100
100
100
100
100
100
100
100
100
100
100
100
100
100
100
100
100
331.455
248.454
202.09
174.909
157.681
145.917
137.377
130.882
125.764
121.628
118.221
115.376
112.979
110.945
109.214
107.738
106.478
105.404
104.491
103.716
103.061
102.509
102.047
101.661
101.341
101.076
100.859
100.682
100.538
100.422
100.33
100.256
100.197
100.151
100.115
100.087
100.065
100.049
100.036
100.027
100.02
100.014
100.01
100.007
100.005
100.004
100.003
100.002
100.001
100.001
100.001
100
100
100
100
100
100
100
100
100
100
100
100
100
100
100
100
100
100
100
100
100
100
100
100
358.999
292.782
245.747
213.068
189.915
172.954
160.089
150.026
141.953
135.347
129.858
125.247
121.344
118.022
115.186
112.763
110.692
108.924
107.419
106.141
105.06
104.15
103.386
102.748
102.219
101.781
101.422
101.129
100.891
100.7
100.546
100.423
100.326
100.25
100.19
100.144
100.108
100.081
100.06
100.044
100.033
100.024
100.017
100.012
100.009
100.006
100.004
100.003
100.002
100.002
100.001
100.001
100
100
100
100
100
100
100
100
100
100
100
100
100
100
100
100
100
100
100
100
100
100
100
370.773
317.964
275.11
241.783
216.061
196.016
180.137
167.332
156.837
148.117
140.792
134.588
129.303
124.784
120.914
117.596
114.755
112.325
110.254
108.492
107.001
105.743
104.688
103.806
103.074
102.469
101.972
101.566
101.236
100.97
100.757
100.587
100.453
100.347
100.264
100.2
100.15
100.112
100.083
100.062
100.045
100.033
100.024
100.017
100.012
100.009
100.006
100.004
100.003
100.002
100.001
100.001
100.001
100
100
100
100
100
100
100
100
100
100
100
100
100
100
100
100
100
100
100
100
100
100
376.92
333.241
295.029
263.011
236.674
215.083
197.302
182.539
170.173
159.729
150.847
143.254
136.74
131.14
126.321
122.177
118.618
115.568
112.962
110.743
108.862
107.274
105.94
104.825
103.898
103.131
102.502
101.987
101.569
101.232
100.961
100.746
100.575
100.441
100.336
100.254
100.191
100.143
100.106
100.078
100.057
100.042
100.03
100.022
100.016
100.011
100.008
100.005
100.004
100.003
100.002
100.001
100.001
100.001
100
100
100
100
100
100
100
100
100
100
100
100
100
100
100
100
100
100
100
100
100
380.607
343.118
308.86
278.705
252.723
230.556
211.693
195.618
181.873
170.078
159.922
151.155
143.576
137.02
131.352
126.458
122.242
118.619
115.518
112.872
110.626
108.727
107.13
105.795
104.683
103.764
103.008
102.39
101.888
101.483
101.157
100.898
100.692
100.531
100.404
100.306
100.23
100.172
100.128
100.094
100.069
100.05
100.037
100.026
100.019
100.013
100.009
100.007
100.005
100.003
100.002
100.002
100.001
100.001
100
100
100
100
100
100
100
100
100
100
100
100
100
100
100
100
100
100
100
100
100
383.025
349.844
318.716
290.403
265.179
242.988
223.593
206.69
191.972
179.152
167.981
158.245
149.763
142.381
135.967
130.405
125.598
121.456
117.901
114.863
112.28
110.093
108.251
106.709
105.425
104.362
103.488
102.772
102.19
101.72
101.343
101.042
100.804
100.616
100.47
100.356
100.268
100.2
100.149
100.11
100.081
100.059
100.043
100.031
100.022
100.016
100.011
100.008
100.005
100.004
100.003
100.002
100.001
100.001
100.001
100
100
100
100
100
100
100
100
100
100
100
100
100
100
100
100
100
100
100
100
384.702
354.61
325.91
299.219
274.862
252.927
233.344
215.957
200.576
187
175.039
164.522
155.29
147.206
140.146
134
128.668
124.062
120.098
116.705
113.813
111.362
109.295
107.563
106.119
104.922
103.937
103.13
102.474
101.944
101.518
101.179
100.909
100.697
100.531
100.402
100.303
100.226
100.168
100.124
100.091
100.067
100.048
100.035
100.025
100.018
100.012
100.009
100.006
100.004
100.003
100.002
100.001
100.001
100.001
100
100
100
100
100
100
100
100
100
100
100
100
100
100
100
100
100
100
100
100
385.912
358.089
331.264
305.935
282.417
260.859
241.289
223.649
207.833
193.712
181.15
170.011
160.167
151.496
143.887
137.236
131.446
126.429
122.102
118.389
115.22
112.529
110.257
108.351
106.76
105.441
104.354
103.463
102.739
102.153
101.682
101.306
101.008
100.773
100.589
100.446
100.336
100.251
100.187
100.138
100.101
100.074
100.053
100.039
100.028
100.02
100.014
100.01
100.007
100.005
100.003
100.002
100.002
100.001
100.001
100
100
100
100
100
100
100
100
100
100
100
100
100
100
100
100
100
100
100
100
386.807
360.684
335.315
311.103
288.337
267.19
247.74
229.994
213.906
199.401
186.387
174.762
164.423
155.269
147.198
140.116
133.931
128.556
123.91
119.914
116.497
113.592
111.136
109.072
107.348
105.918
104.737
103.77
102.982
102.345
101.833
101.423
101.099
100.843
100.643
100.487
100.367
100.274
100.204
100.151
100.111
100.081
100.058
100.042
100.03
100.021
100.015
100.011
100.007
100.005
100.004
100.002
100.002
100.001
100.001
100
100
100
100
100
100
100
100
100
100
100
100
100
100
100
100
100
100
100
100
387.482
362.653
338.418
315.112
292.994
272.244
252.965
235.203
218.954
204.185
190.836
178.836
168.103
158.554
150.1
142.655
136.132
130.449
125.524
121.281
117.646
114.55
111.93
109.725
107.882
106.351
105.087
104.05
103.205
102.521
101.971
101.531
101.182
100.907
100.692
100.524
100.395
100.295
100.22
100.162
100.119
100.087
100.063
100.045
100.032
100.023
100.016
100.011
100.008
100.006
100.004
100.003
100.002
100.001
100.001
100.001
100
100
100
100
100
100
100
100
100
100
100
100
100
100
100
100
100
100
100
387.999
364.164
340.817
318.242
296.672
276.282
257.19
239.464
223.13
208.181
194.587
182.3
171.257
161.388
152.619
144.871
138.063
132.117
126.952
122.494
118.669
115.406
112.641
110.312
108.363
106.742
105.403
104.303
103.407
102.681
102.096
101.629
101.258
100.966
100.737
100.558
100.421
100.315
100.234
100.173
100.127
100.093
100.067
100.048
100.035
100.025
100.017
100.012
100.009
100.006
100.004
100.003
100.002
100.001
100.001
100.001
100
100
100
100
100
100
100
100
100
100
100
100
100
100
100
100
100
100
100
388.398
365.335
342.685
320.698
299.584
279.511
260.601
242.938
226.566
211.5
197.729
185.223
173.937
163.813
154.787
146.788
139.742
133.573
128.204
123.562
119.571
116.164
113.272
110.834
108.791
107.091
105.685
104.53
103.588
102.824
102.21
101.718
101.327
101.019
100.777
100.589
100.444
100.332
100.247
100.183
100.134
100.098
100.071
100.051
100.037
100.026
100.018
100.013
100.009
100.006
100.004
100.003
100.002
100.001
100.001
100.001
100
100
100
100
100
100
100
100
100
100
100
100
100
100
100
100
100
100
100
388.708
366.247
344.148
322.633
301.894
282.091
263.351
245.762
229.383
214.242
200.345
187.674
176.199
165.872
156.638
148.433
141.189
134.833
129.292
124.492
120.361
116.828
113.827
111.294
109.169
107.4
105.935
104.732
103.749
102.952
102.31
101.797
101.389
101.066
100.814
100.617
100.465
100.348
100.259
100.191
100.141
100.103
100.074
100.054
100.038
100.027
100.019
100.014
100.009
100.007
100.005
100.003
100.002
100.001
100.001
100.001
100
100
100
100
100
100
100
100
100
100
100
100
100
100
100
100
100
100
100
388.951
366.962
345.298
324.16
303.727
284.154
265.564
248.052
231.683
216.497
202.51
189.716
178.094
167.606
158.205
149.833
142.426
135.915
130.229
125.297
121.046
117.407
114.311
111.696
109.501
107.671
106.156
104.91
103.892
103.065
102.4
101.867
101.443
101.109
100.846
100.642
100.484
100.362
100.27
100.199
100.146
100.107
100.077
100.056
100.04
100.028
100.02
100.014
100.01
100.007
100.005
100.003
100.002
100.001
100.001
100.001
100
100
100
100
100
100
100
100
100
100
100
100
100
100
100
100
100
100
100
389.141
367.523
346.203
325.367
305.184
285.801
267.342
249.902
233.553
218.342
204.292
191.406
179.671
169.058
159.523
151.015
143.475
136.836
131.03
125.987
121.635
117.905
114.73
112.044
109.789
107.907
106.348
105.065
104.016
103.165
102.478
101.928
101.491
101.146
100.875
100.664
100.5
100.375
100.279
100.206
100.151
100.111
100.08
100.058
100.041
100.029
100.021
100.015
100.01
100.007
100.005
100.003
100.002
100.002
100.001
100.001
100
100
100
100
100
100
100
100
100
100
100
100
100
100
100
100
100
100
100
389.29
367.964
346.916
326.321
306.34
287.115
268.767
251.393
235.068
219.845
205.751
192.798
180.977
170.264
160.624
152.007
144.358
137.614
131.709
126.574
122.138
118.332
115.089
112.344
110.037
108.111
106.514
105.199
104.124
103.251
102.546
101.982
101.533
101.178
100.9
100.683
100.515
100.386
100.287
100.212
100.156
100.114
100.083
100.06
100.043
100.03
100.021
100.015
100.011
100.007
100.005
100.003
100.002
100.002
100.001
100.001
100
100
100
100
100
100
100
100
100
100
100
100
100
100
100
100
100
100
100
389.408
368.312
347.479
327.076
307.257
288.161
269.906
252.591
236.292
221.063
206.94
193.937
182.05
171.261
161.536
152.832
145.096
138.267
132.281
127.069
122.563
118.694
115.394
112.6
110.249
108.286
106.657
105.315
104.217
103.325
102.605
102.028
101.569
101.206
100.921
100.699
100.527
100.395
100.294
100.218
100.16
100.117
100.085
100.061
100.044
100.031
100.022
100.015
100.011
100.007
100.005
100.004
100.002
100.002
100.001
100.001
100
100
100
100
100
100
100
100
100
100
100
100
100
100
100
100
100
100
100
389.5
368.585
347.922
327.672
307.984
288.992
270.815
253.55
237.275
222.047
207.905
194.865
182.928
172.079
162.289
153.515
145.709
138.811
132.758
127.484
122.92
118.999
115.652
112.816
110.429
108.434
106.778
105.414
104.297
103.389
102.656
102.068
101.6
101.23
100.94
100.713
100.538
100.403
100.3
100.222
100.163
100.119
100.087
100.062
100.045
100.032
100.022
100.016
100.011
100.008
100.005
100.004
100.002
100.002
100.001
100.001
100
100
100
100
100
100
100
100
100
100
100
100
100
100
100
100
100
100
100
389.573
368.8
348.271
328.142
308.558
289.651
271.538
254.315
238.062
222.838
208.683
195.616
183.642
172.747
162.904
154.076
146.214
139.26
133.154
127.829
123.218
119.254
115.868
112.997
110.58
108.559
106.881
105.497
104.364
103.443
102.699
102.102
101.627
101.251
100.956
100.726
100.547
100.41
100.306
100.226
100.166
100.121
100.088
100.064
100.045
100.032
100.023
100.016
100.011
100.008
100.005
100.004
100.002
100.002
100.001
100.001
100.001
100
100
100
100
100
100
100
100
100
100
100
100
100
100
100
100
100
100
389.629
368.968
348.545
328.512
309.011
290.172
272.11
254.924
238.691
223.471
209.308
196.221
184.218
173.288
163.406
154.534
146.627
139.629
133.48
128.114
123.465
119.465
116.048
113.149
110.707
108.664
106.967
105.567
104.421
103.488
102.735
102.13
101.649
101.268
100.969
100.736
100.555
100.416
100.31
100.229
100.169
100.123
100.089
100.064
100.046
100.033
100.023
100.016
100.011
100.008
100.005
100.004
100.003
100.002
100.001
100.001
100.001
100
100
100
100
100
100
100
100
100
100
100
100
100
100
100
100
100
100
389.674
369.1
348.76
328.802
309.366
290.582
272.563
255.405
239.189
223.976
209.807
196.707
184.682
173.725
163.811
154.906
146.964
139.931
133.747
128.348
123.668
119.639
116.196
113.274
110.811
108.751
107.038
105.626
104.468
103.526
102.765
102.154
101.668
101.283
100.981
100.745
100.562
100.421
100.314
100.232
100.171
100.125
100.091
100.065
100.047
100.033
100.024
100.017
100.012
100.008
100.006
100.004
100.003
100.002
100.001
100.001
100.001
100
100
100
100
100
100
100
100
100
100
100
100
100
100
100
100
100
100
389.709
369.203
348.928
329.029
309.645
290.904
272.919
255.785
239.584
224.375
210.204
197.093
185.053
174.075
164.137
155.205
147.236
140.174
133.963
128.538
123.833
119.782
116.318
113.377
110.898
108.822
107.097
105.674
104.507
103.557
102.79
102.174
101.684
101.295
100.99
100.752
100.568
100.426
100.317
100.235
100.173
100.126
100.091
100.066
100.047
100.034
100.024
100.017
100.012
100.008
100.006
100.004
100.003
100.002
100.001
100.001
100.001
100
100
100
100
100
100
100
100
100
100
100
100
100
100
100
100
100
100
389.736
369.284
349.058
329.206
309.863
291.156
273.198
256.084
239.894
224.691
210.517
197.4
185.348
174.354
164.397
155.445
147.454
140.371
134.138
128.692
123.967
119.897
116.417
113.461
110.968
108.881
107.146
105.713
104.539
103.583
102.811
102.191
101.697
101.305
100.998
100.758
100.572
100.429
100.32
100.237
100.174
100.127
100.092
100.067
100.048
100.034
100.024
100.017
100.012
100.008
100.006
100.004
100.003
100.002
100.001
100.001
100.001
100
100
100
100
100
100
100
100
100
100
100
100
100
100
100
100
100
100
389.757
369.346
349.16
329.343
310.033
291.353
273.415
256.317
240.137
224.938
210.764
197.642
185.581
174.575
164.604
155.636
147.628
140.528
134.278
128.815
124.075
119.991
116.496
113.528
111.025
108.928
107.185
105.746
104.565
103.605
102.828
102.204
101.707
101.314
101.004
100.763
100.576
100.432
100.322
100.238
100.175
100.128
100.093
100.067
100.048
100.034
100.024
100.017
100.012
100.008
100.006
100.004
100.003
100.002
100.001
100.001
100.001
100
100
100
100
100
100
100
100
100
100
100
100
100
100
100
100
100
100
389.773
369.394
349.238
329.45
310.164
291.505
273.585
256.499
240.327
225.132
210.958
197.832
185.764
174.749
164.768
155.787
147.766
140.653
134.389
128.914
124.161
120.065
116.561
113.583
111.071
108.967
107.217
105.772
104.587
103.622
102.842
102.215
101.716
101.32
101.01
100.767
100.579
100.434
100.324
100.24
100.176
100.129
100.093
100.067
100.048
100.034
100.024
100.017
100.012
100.008
100.006
100.004
100.003
100.002
100.001
100.001
100.001
100
100
100
100
100
100
100
100
100
100
100
100
100
100
100
100
100
100
389.785
369.431
349.299
329.532
310.265
291.623
273.715
256.639
240.474
225.282
211.109
197.98
185.907
174.886
164.896
155.906
147.875
140.751
134.478
128.992
124.23
120.125
116.612
113.626
111.108
108.998
107.242
105.793
104.604
103.636
102.853
102.224
101.723
101.326
101.014
100.77
100.582
100.436
100.325
100.241
100.177
100.129
100.094
100.068
100.049
100.035
100.024
100.017
100.012
100.008
100.006
100.004
100.003
100.002
100.001
100.001
100.001
100
100
100
100
100
100
100
100
100
100
100
100
100
100
100
100
100
100
389.795
369.459
349.345
329.595
310.343
291.713
273.816
256.748
240.588
225.399
211.225
198.095
186.019
174.992
164.996
155.999
147.96
140.829
134.547
129.054
124.284
120.172
116.652
113.661
111.137
109.022
107.263
105.809
104.617
103.647
102.861
102.231
101.728
101.33
101.017
100.773
100.584
100.438
100.326
100.241
100.178
100.13
100.094
100.068
100.049
100.035
100.025
100.017
100.012
100.008
100.006
100.004
100.003
100.002
100.001
100.001
100.001
100
100
100
100
100
100
100
100
100
100
100
100
100
100
100
100
100
100
389.802
369.481
349.381
329.643
310.403
291.783
273.894
256.831
240.675
225.488
211.315
198.184
186.105
175.074
165.074
156.072
148.027
140.889
134.601
129.102
124.326
120.209
116.684
113.688
111.16
109.041
107.279
105.823
104.628
103.655
102.869
102.237
101.733
101.334
101.02
100.775
100.585
100.439
100.327
100.242
100.178
100.13
100.095
100.068
100.049
100.035
100.025
100.017
100.012
100.008
100.006
100.004
100.003
100.002
100.001
100.001
100.001
100
100
100
100
100
100
100
100
100
100
100
100
100
100
100
100
100
100
389.808
369.498
349.408
329.68
310.448
291.836
273.953
256.895
240.742
225.557
211.384
198.252
186.171
175.138
165.133
156.127
148.078
140.936
134.643
129.139
124.359
120.237
116.709
113.709
111.178
109.056
107.291
105.833
104.637
103.662
102.874
102.241
101.736
101.337
101.022
100.777
100.586
100.44
100.328
100.243
100.179
100.131
100.095
100.068
100.049
100.035
100.025
100.017
100.012
100.008
100.006
100.004
100.003
100.002
100.001
100.001
100.001
100
100
100
100
100
100
100
100
100
100
100
100
100
100
100
100
100
100
389.812
369.51
349.428
329.708
310.483
291.876
273.997
256.943
240.793
225.609
211.437
198.304
186.222
175.186
165.179
156.17
148.118
140.972
134.676
129.168
124.385
120.26
116.728
113.726
111.192
109.068
107.301
105.841
104.643
103.668
102.878
102.245
101.739
101.339
101.024
100.778
100.587
100.441
100.328
100.243
100.179
100.131
100.095
100.069
100.049
100.035
100.025
100.017
100.012
100.008
100.006
100.004
100.003
100.002
100.001
100.001
100.001
100
100
100
100
100
100
100
100
100
100
100
100
100
100
100
100
100
100
389.815
369.519
349.444
329.729
310.508
291.906
274.031
256.98
240.832
225.649
211.477
198.343
186.26
175.223
165.214
156.203
148.148
140.999
134.7
129.19
124.404
120.277
116.743
113.739
111.203
109.077
107.309
105.847
104.649
103.672
102.882
102.247
101.741
101.34
101.025
100.779
100.588
100.441
100.329
100.244
100.179
100.131
100.095
100.069
100.049
100.035
100.025
100.017
100.012
100.008
100.006
100.004
100.003
100.002
100.001
100.001
100.001
100
100
100
100
100
100
100
100
100
100
100
100
100
100
100
100
100
100
389.818
369.527
349.455
329.744
310.528
291.928
274.056
257.007
240.86
225.678
211.507
198.373
186.289
175.251
165.241
156.228
148.171
141.02
134.719
129.207
124.419
120.29
116.754
113.748
111.211
109.084
107.315
105.852
104.652
103.675
102.884
102.249
101.743
101.342
101.026
100.78
100.589
100.442
100.329
100.244
100.179
100.131
100.095
100.069
100.049
100.035
100.025
100.017
100.012
100.008
100.006
100.004
100.003
100.002
100.001
100.001
100.001
100
100
100
100
100
100
100
100
100
100
100
100
100
100
100
100
100
100
389.819
369.532
349.464
329.756
310.542
291.945
274.075
257.028
240.882
225.701
211.529
198.395
186.311
175.272
165.261
156.246
148.188
141.036
134.734
129.22
124.43
120.3
116.763
113.756
111.217
109.09
107.319
105.856
104.656
103.678
102.886
102.251
101.744
101.343
101.027
100.781
100.589
100.442
100.33
100.244
100.18
100.131
100.095
100.069
100.049
100.035
100.025
100.017
100.012
100.008
100.006
100.004
100.003
100.002
100.001
100.001
100.001
100
100
100
100
100
100
100
100
100
100
100
100
100
100
100
100
100
100
389.821
369.536
349.47
329.765
310.553
291.958
274.089
257.043
240.898
225.717
211.546
198.412
186.327
175.288
165.276
156.26
148.201
141.048
134.744
129.23
124.439
120.307
116.769
113.761
111.222
109.094
107.322
105.859
104.658
103.679
102.888
102.252
101.745
101.344
101.028
100.781
100.59
100.442
100.33
100.244
100.18
100.131
100.095
100.069
100.049
100.035
100.025
100.017
100.012
100.008
100.006
100.004
100.003
100.002
100.001
100.001
100.001
100
100
100
100
100
100
100
100
100
100
100
100
100
100
100
100
100
100
389.822
369.539
349.475
329.771
310.561
291.967
274.1
257.054
240.91
225.73
211.558
198.424
186.339
175.3
165.287
156.271
148.211
141.057
134.753
129.237
124.445
120.313
116.774
113.766
111.226
109.097
107.325
105.861
104.66
103.681
102.889
102.253
101.746
101.344
101.028
100.781
100.59
100.443
100.33
100.244
100.18
100.131
100.095
100.069
100.049
100.035
100.025
100.017
100.012
100.008
100.006
100.004
100.003
100.002
100.001
100.001
100.001
100
100
100
100
100
100
100
100
100
100
100
100
100
100
100
100
100
100
389.822
369.541
349.478
329.776
310.567
291.974
274.108
257.063
240.919
225.739
211.568
198.434
186.348
175.308
165.295
156.279
148.218
141.063
134.758
129.242
124.45
120.317
116.778
113.769
111.228
109.099
107.327
105.862
104.661
103.682
102.89
102.254
101.746
101.345
101.029
100.782
100.59
100.443
100.33
100.244
100.18
100.131
100.095
100.069
100.049
100.035
100.025
100.017
100.012
100.008
100.006
100.004
100.003
100.002
100.001
100.001
100.001
100
100
100
100
100
100
100
100
100
100
100
100
100
100
100
100
100
100
389.823
369.542
349.481
329.779
310.571
291.979
274.113
257.069
240.925
225.745
211.574
198.44
186.355
175.315
165.301
156.284
148.223
141.068
134.763
129.246
124.454
120.32
116.781
113.771
111.23
109.101
107.328
105.864
104.662
103.683
102.891
102.254
101.747
101.345
101.029
100.782
100.59
100.443
100.33
100.244
100.18
100.131
100.095
100.069
100.049
100.035
100.025
100.017
100.012
100.008
100.006
100.004
100.003
100.002
100.001
100.001
100.001
100
100
100
100
100
100
100
100
100
100
100
100
100
100
100
100
100
100
389.823
369.543
349.483
329.782
310.574
291.983
274.117
257.073
240.93
225.75
211.579
198.445
186.36
175.319
165.306
156.288
148.227
141.072
134.766
129.249
124.456
120.322
116.783
113.773
111.232
109.102
107.329
105.865
104.663
103.683
102.891
102.255
101.747
101.345
101.029
100.782
100.59
100.443
100.33
100.245
100.18
100.131
100.095
100.069
100.049
100.035
100.025
100.017
100.012
100.008
100.006
100.004
100.003
100.002
100.001
100.001
100.001
100
100
100
100
100
100
100
100
100
100
100
100
100
100
100
100
100
100
389.823
369.544
349.484
329.784
310.577
291.985
274.12
257.076
240.933
225.754
211.583
198.449
186.363
175.323
165.309
156.292
148.23
141.074
134.768
129.251
124.458
120.324
116.784
113.774
111.233
109.103
107.33
105.865
104.663
103.684
102.892
102.255
101.747
101.345
101.029
100.782
100.591
100.443
100.33
100.245
100.18
100.132
100.096
100.069
100.049
100.035
100.025
100.017
100.012
100.008
100.006
100.004
100.003
100.002
100.001
100.001
100.001
100
100
100
100
100
100
100
100
100
100
100
100
100
100
100
100
100
100
389.824
369.545
349.485
329.785
310.578
291.987
274.122
257.079
240.936
225.756
211.585
198.451
186.366
175.325
165.311
156.294
148.232
141.076
134.77
129.253
124.46
120.325
116.785
113.775
111.234
109.104
107.331
105.866
104.664
103.684
102.892
102.255
101.748
101.345
101.029
100.782
100.591
100.443
100.33
100.245
100.18
100.132
100.096
100.069
100.049
100.035
100.025
100.018
100.012
100.008
100.006
100.004
100.003
100.002
100.001
100.001
100.001
100
100
100
100
100
100
100
100
100
100
100
100
100
100
100
100
100
100
389.824
369.545
349.485
329.786
310.579
291.989
274.124
257.08
240.938
225.758
211.587
198.453
186.368
175.327
165.313
156.295
148.233
141.078
134.771
129.254
124.46
120.326
116.786
113.776
111.234
109.104
107.331
105.866
104.664
103.684
102.892
102.255
101.748
101.346
101.029
100.782
100.591
100.443
100.33
100.245
100.18
100.132
100.096
100.069
100.049
100.035
100.025
100.018
100.012
100.008
100.006
100.004
100.003
100.002
100.001
100.001
100.001
100
100
100
100
100
100
100
100
100
100
100
100
100
100
100
100
100
100
389.824
369.545
349.486
329.786
310.58
291.99
274.125
257.081
240.939
225.759
211.588
198.454
186.369
175.328
165.314
156.296
148.234
141.079
134.772
129.255
124.461
120.327
116.786
113.776
111.235
109.104
107.331
105.866
104.664
103.685
102.892
102.256
101.748
101.346
101.029
100.782
100.591
100.443
100.33
100.245
100.18
100.132
100.096
100.069
100.049
100.035
100.025
100.018
100.012
100.008
100.006
100.004
100.003
100.002
100.001
100.001
100.001
100
100
100
100
100
100
100
100
100
100
100
100
100
100
100
100
100
100
389.824
369.546
349.486
329.787
310.581
291.99
274.126
257.082
240.94
225.76
211.589
198.455
186.37
175.329
165.315
156.297
148.235
141.079
134.773
129.255
124.462
120.327
116.787
113.776
111.235
109.105
107.332
105.866
104.664
103.685
102.892
102.256
101.748
101.346
101.029
100.782
100.591
100.443
100.33
100.245
100.18
100.132
100.096
100.069
100.049
100.035
100.025
100.018
100.012
100.008
100.006
100.004
100.003
100.002
100.001
100.001
100.001
100
100
100
100
100
100
100
100
100
100
100
100
100
100
100
100
100
100
389.824
369.546
349.487
329.787
310.581
291.991
274.126
257.083
240.94
225.761
211.59
198.456
186.37
175.329
165.315
156.298
148.236
141.08
134.773
129.256
124.462
120.328
116.787
113.777
111.235
109.105
107.332
105.867
104.664
103.685
102.892
102.256
101.748
101.346
101.029
100.782
100.591
100.443
100.33
100.245
100.18
100.132
100.096
100.069
100.049
100.035
100.025
100.018
100.012
100.008
100.006
100.004
100.003
100.002
100.001
100.001
100.001
100
100
100
100
100
100
100
100
100
100
100
100
100
100
100
100
100
100
389.824
369.546
349.487
329.787
310.581
291.991
274.126
257.083
240.941
225.761
211.591
198.456
186.371
175.33
165.316
156.298
148.236
141.08
134.774
129.256
124.462
120.328
116.787
113.777
111.235
109.105
107.332
105.867
104.664
103.685
102.892
102.256
101.748
101.346
101.029
100.782
100.591
100.443
100.33
100.245
100.18
100.132
100.096
100.069
100.049
100.035
100.025
100.018
100.012
100.008
100.006
100.004
100.003
100.002
100.001
100.001
100.001
100
100
100
100
100
100
100
100
100
100
100
100
100
100
100
100
100
100
389.824
369.546
349.487
329.788
310.582
291.991
274.127
257.084
240.941
225.762
211.591
198.457
186.371
175.33
165.316
156.298
148.236
141.08
134.774
129.256
124.462
120.328
116.787
113.777
111.235
109.105
107.332
105.867
104.664
103.685
102.892
102.256
101.748
101.346
101.029
100.782
100.591
100.443
100.33
100.245
100.18
100.132
100.096
100.069
100.049
100.035
100.025
100.018
100.012
100.008
100.006
100.004
100.003
100.002
100.001
100.001
100.001
100
100
100
100
100
100
100
100
100
100
100
100
100
100
100
100
100
100
389.824
369.546
349.487
329.788
310.582
291.991
274.127
257.084
240.941
225.762
211.591
198.457
186.371
175.33
165.316
156.299
148.237
141.08
134.774
129.256
124.463
120.328
116.787
113.777
111.235
109.105
107.332
105.867
104.664
103.685
102.892
102.256
101.748
101.346
101.029
100.782
100.591
100.443
100.33
100.245
100.18
100.132
100.096
100.069
100.049
100.035
100.025
100.018
100.012
100.008
100.006
100.004
100.003
100.002
100.001
100.001
100.001
100
100
100
100
100
100
100
100
100
100
100
100
100
100
100
100
100
100
389.824
369.546
349.487
329.788
310.582
291.992
274.127
257.084
240.941
225.762
211.591
198.457
186.371
175.331
165.316
156.299
148.237
141.081
134.774
129.256
124.463
120.328
116.788
113.777
111.235
109.105
107.332
105.867
104.664
103.685
102.892
102.256
101.748
101.346
101.029
100.782
100.591
100.443
100.33
100.245
100.18
100.132
100.096
100.069
100.049
100.035
100.025
100.018
100.012
100.008
100.006
100.004
100.003
100.002
100.001
100.001
100.001
100
100
100
100
100
100
100
100
100
100
100
100
100
100
100
100
100
100
389.824
369.546
349.487
329.788
310.582
291.992
274.127
257.084
240.941
225.762
211.591
198.457
186.372
175.331
165.316
156.299
148.237
141.081
134.774
129.256
124.463
120.328
116.788
113.777
111.236
109.105
107.332
105.867
104.664
103.685
102.892
102.256
101.748
101.346
101.029
100.782
100.591
100.443
100.33
100.245
100.18
100.132
100.096
100.069
100.049
100.035
100.025
100.018
100.012
100.008
100.006
100.004
100.003
100.002
100.001
100.001
100.001
100
100
100
100
100
100
100
100
100
100
100
100
100
100
100
100
100
100
389.824
369.546
349.487
329.788
310.582
291.992
274.127
257.084
240.941
225.762
211.591
198.457
186.372
175.331
165.317
156.299
148.237
141.081
134.774
129.256
124.463
120.328
116.788
113.777
111.236
109.105
107.332
105.867
104.664
103.685
102.892
102.256
101.748
101.346
101.029
100.782
100.591
100.443
100.33
100.245
100.18
100.132
100.096
100.069
100.049
100.035
100.025
100.018
100.012
100.008
100.006
100.004
100.003
100.002
100.001
100.001
100.001
100
100
100
100
100
100
100
100
100
100
100
100
100
100
100
100
100
100
389.824
369.546
349.487
329.788
310.582
291.992
274.127
257.084
240.942
225.762
211.591
198.457
186.372
175.331
165.317
156.299
148.237
141.081
134.774
129.256
124.463
120.328
116.788
113.777
111.236
109.105
107.332
105.867
104.664
103.685
102.892
102.256
101.748
101.346
101.029
100.782
100.591
100.443
100.33
100.245
100.18
100.132
100.096
100.069
100.049
100.035
100.025
100.018
100.012
100.008
100.006
100.004
100.003
100.002
100.001
100.001
100.001
100
100
100
100
100
100
100
100
100
100
100
100
100
100
100
100
100
100
389.824
369.546
349.487
329.788
310.582
291.992
274.127
257.084
240.942
225.762
211.591
198.457
186.372
175.331
165.317
156.299
148.237
141.081
134.774
129.256
124.463
120.328
116.788
113.777
111.236
109.105
107.332
105.867
104.664
103.685
102.892
102.256
101.748
101.346
101.029
100.782
100.591
100.443
100.33
100.245
100.18
100.132
100.096
100.069
100.049
100.035
100.025
100.018
100.012
100.008
100.006
100.004
100.003
100.002
100.001
100.001
100.001
100
100
100
100
100
100
100
100
100
100
100
100
100
100
100
100
100
100
389.824
369.546
349.487
329.788
310.582
291.992
274.127
257.084
240.942
225.762
211.591
198.457
186.372
175.331
165.317
156.299
148.237
141.081
134.774
129.256
124.463
120.328
116.788
113.777
111.236
109.105
107.332
105.867
104.664
103.685
102.892
102.256
101.748
101.346
101.029
100.782
100.591
100.443
100.33
100.245
100.18
100.132
100.096
100.069
100.049
100.035
100.025
100.018
100.012
100.008
100.006
100.004
100.003
100.002
100.001
100.001
100.001
100
100
100
100
100
100
100
100
100
100
100
100
100
100
100
100
100
100
389.824
369.546
349.487
329.788
310.582
291.992
274.127
257.084
240.942
225.762
211.591
198.457
186.372
175.331
165.317
156.299
148.237
141.081
134.774
129.256
124.463
120.328
116.788
113.777
111.236
109.105
107.332
105.867
104.664
103.685
102.892
102.256
101.748
101.346
101.029
100.782
100.591
100.443
100.33
100.245
100.18
100.132
100.096
100.069
100.049
100.035
100.025
100.018
100.012
100.008
100.006
100.004
100.003
100.002
100.001
100.001
100.001
100
100
100
100
100
100
100
100
100
100
100
100
100
100
100
100
100
100
389.824
369.546
349.487
329.788
310.582
291.992
274.127
257.084
240.942
225.762
211.591
198.457
186.372
175.331
165.317
156.299
148.237
141.081
134.774
129.256
124.463
120.328
116.788
113.777
111.236
109.105
107.332
105.867
104.664
103.685
102.892
102.256
101.748
101.346
101.029
100.782
100.591
100.443
100.33
100.245
100.18
100.132
100.096
100.069
100.049
100.035
100.025
100.018
100.012
100.008
100.006
100.004
100.003
100.002
100.001
100.001
100.001
100
100
100
100
100
100
100
100
100
100
100
100
100
100
100
100
100
100
389.824
369.546
349.487
329.788
310.582
291.992
274.127
257.084
240.942
225.762
211.591
198.457
186.372
175.331
165.317
156.299
148.237
141.081
134.774
129.256
124.463
120.328
116.788
113.777
111.236
109.105