/*--------------------------------*- C++ -*----------------------------------*\
  =========                 |
  \\      /  F ield         | OpenFOAM: The Open Source CFD Toolbox
   \\    /   O peration     | Website:  https://openfoam.org
    \\  /    A nd           | Version:  10
     \\/     M anipulation  |
\*---------------------------------------------------------------------------*/
FoamFile
{
    format      ascii;
    class       volScalarField;
    location    "204";
    object      T;
}
// * * * * * * * * * * * * * * * * * * * * * * * * * * * * * * * * * * * * * //

dimensions      [0 0 0 1 0 0 0];

internalField   nonuniform List<scalar> 
11250
(
249.739
167.25
138.858
126.26
119.322
114.882
111.758
109.424
107.612
106.169
105.002
104.05
103.268
102.626
102.099
101.668
101.317
101.032
100.803
100.62
100.475
100.361
100.272
100.203
100.15
100.11
100.08
100.058
100.041
100.029
100.02
100.014
100.01
100.007
100.005
100.003
100.002
100.001
100.001
100.001
100
100
100
100
100
100
100
100
100
100
100
100
100
100
100
100
100
100
100
100
100
100
100
100
100
100
100
100
100
100
100
100
100
100
100
331.191
247.67
200.806
173.159
155.513
143.384
134.543
127.813
122.53
118.297
114.857
112.041
109.725
107.82
106.254
104.971
103.925
103.078
102.395
101.849
101.417
101.076
100.811
100.605
100.448
100.329
100.239
100.172
100.123
100.087
100.061
100.042
100.029
100.02
100.013
100.009
100.006
100.004
100.003
100.002
100.001
100.001
100
100
100
100
100
100
100
100
100
100
100
100
100
100
100
100
100
100
100
100
100
100
100
100
100
100
100
100
100
100
100
100
100
358.562
291.482
243.62
210.17
186.322
168.758
155.394
144.942
136.595
129.828
124.286
119.722
115.954
112.843
110.281
108.179
106.463
105.07
103.947
103.049
102.337
101.776
101.338
100.999
100.74
100.543
100.395
100.285
100.203
100.144
100.101
100.07
100.048
100.033
100.022
100.015
100.01
100.006
100.004
100.003
100.002
100.001
100.001
100
100
100
100
100
100
100
100
100
100
100
100
100
100
100
100
100
100
100
100
100
100
100
100
100
100
100
100
100
100
100
100
370.167
316.16
272.158
237.763
211.076
190.195
173.622
160.279
149.403
140.459
133.06
126.921
121.824
117.599
114.108
111.236
108.886
106.977
105.435
104.201
103.221
102.448
101.846
101.379
101.021
100.75
100.545
100.393
100.281
100.199
100.139
100.097
100.067
100.045
100.031
100.021
100.014
100.009
100.006
100.004
100.002
100.002
100.001
100.001
100
100
100
100
100
100
100
100
100
100
100
100
100
100
100
100
100
100
100
100
100
100
100
100
100
100
100
100
100
100
100
376.149
330.95
291.279
257.902
230.341
207.687
189.025
173.577
160.727
149.999
141.023
133.512
127.237
122.009
117.673
114.095
111.16
108.771
106.839
105.29
104.058
103.086
102.327
101.74
101.289
100.947
100.689
100.497
100.355
100.251
100.176
100.122
100.084
100.058
100.039
100.026
100.017
100.011
100.007
100.005
100.003
100.002
100.001
100.001
100
100
100
100
100
100
100
100
100
100
100
100
100
100
100
100
100
100
100
100
100
100
100
100
100
100
100
100
100
100
100
379.679
340.359
304.343
272.552
245.096
221.649
201.725
184.824
170.497
158.359
148.089
139.42
132.128
126.021
120.934
116.722
113.258
110.431
108.141
106.302
104.838
103.682
102.778
102.078
101.54
101.131
100.824
100.594
100.425
100.301
100.211
100.147
100.101
100.069
100.047
100.031
100.021
100.014
100.009
100.006
100.004
100.002
100.001
100.001
100.001
100
100
100
100
100
100
100
100
100
100
100
100
100
100
100
100
100
100
100
100
100
100
100
100
100
100
100
100
100
100
381.946
346.639
313.471
283.257
256.32
232.641
212.014
194.153
178.758
165.539
154.236
144.614
136.466
129.605
123.864
119.094
115.161
111.942
109.331
107.229
105.554
104.23
103.194
102.39
101.772
101.302
100.948
100.684
100.489
100.347
100.243
100.169
100.116
100.079
100.054
100.036
100.024
100.016
100.01
100.007
100.004
100.003
100.002
100.001
100.001
100
100
100
100
100
100
100
100
100
100
100
100
100
100
100
100
100
100
100
100
100
100
100
100
100
100
100
100
100
100
383.483
350.985
319.977
291.137
264.842
241.224
220.247
201.777
185.629
171.601
159.492
149.102
140.247
132.752
126.454
121.203
116.86
113.298
110.401
108.066
106.202
104.727
103.571
102.674
101.984
101.459
101.063
100.767
100.549
100.389
100.273
100.19
100.131
100.089
100.06
100.04
100.027
100.018
100.011
100.007
100.005
100.003
100.002
100.001
100.001
100
100
100
100
100
100
100
100
100
100
100
100
100
100
100
100
100
100
100
100
100
100
100
100
100
100
100
100
100
100
384.56
354.071
324.689
296.978
271.312
247.89
226.775
207.932
191.266
176.645
163.916
152.92
143.492
135.474
128.709
123.049
118.354
114.495
111.35
108.811
106.78
105.172
103.91
102.929
102.174
101.6
101.166
100.842
100.602
100.427
100.3
100.209
100.144
100.098
100.066
100.044
100.029
100.019
100.013
100.008
100.005
100.003
100.002
100.001
100.001
100
100
100
100
100
100
100
100
100
100
100
100
100
100
100
100
100
100
100
100
100
100
100
100
100
100
100
100
100
100
385.333
356.303
328.145
301.336
276.227
253.047
231.912
212.854
195.839
180.788
167.592
156.121
146.237
137.793
130.643
124.641
119.65
115.537
112.179
109.464
107.289
105.564
104.209
103.155
102.344
101.725
101.258
100.909
100.65
100.461
100.324
100.225
100.155
100.106
100.072
100.048
100.032
100.021
100.014
100.009
100.006
100.004
100.002
100.001
100.001
100.001
100
100
100
100
100
100
100
100
100
100
100
100
100
100
100
100
100
100
100
100
100
100
100
100
100
100
100
100
100
385.897
357.938
330.702
304.601
279.963
257.024
235.931
216.757
199.51
184.152
170.607
158.772
148.528
139.743
132.279
125.996
120.758
116.432
112.895
110.029
107.731
105.906
104.47
103.353
102.492
101.835
101.339
100.967
100.693
100.491
100.345
100.24
100.166
100.113
100.077
100.051
100.034
100.022
100.015
100.009
100.006
100.004
100.002
100.001
100.001
100.001
100
100
100
100
100
100
100
100
100
100
100
100
100
100
100
100
100
100
100
100
100
100
100
100
100
100
100
100
100
386.311
359.146
332.604
307.054
282.802
260.082
239.059
219.83
202.432
186.857
173.053
160.941
150.417
141.361
133.645
127.134
121.693
117.191
113.503
110.512
108.109
106.199
104.695
103.524
102.62
101.93
101.409
101.018
100.729
100.518
100.364
100.253
100.175
100.119
100.081
100.054
100.036
100.024
100.015
100.01
100.006
100.004
100.003
100.002
100.001
100.001
100
100
100
100
100
100
100
100
100
100
100
100
100
100
100
100
100
100
100
100
100
100
100
100
100
100
100
100
100
386.618
360.043
334.025
308.901
284.957
262.426
241.481
222.232
204.738
189.011
175.018
162.696
151.956
142.689
134.772
128.077
122.472
117.826
114.015
110.918
108.429
106.448
104.887
103.67
102.73
102.012
101.469
101.062
100.761
100.54
100.38
100.264
100.182
100.125
100.084
100.057
100.038
100.025
100.016
100.01
100.007
100.004
100.003
100.002
100.001
100.001
100
100
100
100
100
100
100
100
100
100
100
100
100
100
100
100
100
100
100
100
100
100
100
100
100
100
100
100
100
386.846
360.711
335.088
310.29
286.59
264.217
243.346
224.098
206.544
190.711
176.58
164.101
153.196
143.765
135.691
128.85
123.113
118.351
114.439
111.257
108.696
106.656
105.048
103.792
102.822
102.081
101.52
101.1
100.788
100.559
100.393
100.274
100.189
100.129
100.087
100.059
100.039
100.026
100.017
100.011
100.007
100.004
100.003
100.002
100.001
100.001
100
100
100
100
100
100
100
100
100
100
100
100
100
100
100
100
100
100
100
100
100
100
100
100
100
100
100
100
100
387.016
361.209
335.883
311.334
287.825
265.58
244.775
225.537
207.948
192.041
177.811
165.216
154.186
144.628
136.432
129.476
123.635
118.78
114.787
111.536
108.917
106.829
105.181
103.894
102.899
102.139
101.563
101.131
100.811
100.576
100.405
100.282
100.195
100.133
100.09
100.06
100.04
100.026
100.017
100.011
100.007
100.004
100.003
100.002
100.001
100.001
100
100
100
100
100
100
100
100
100
100
100
100
100
100
100
100
100
100
100
100
100
100
100
100
100
100
100
100
100
387.142
361.58
336.477
312.117
288.755
266.612
245.864
226.641
209.031
193.074
178.772
166.091
154.967
145.313
137.023
129.978
124.055
119.126
115.069
111.762
109.097
106.97
105.29
103.978
102.963
102.186
101.598
101.157
100.829
100.589
100.415
100.289
100.199
100.136
100.092
100.062
100.041
100.027
100.018
100.011
100.007
100.005
100.003
100.002
100.001
100.001
100
100
100
100
100
100
100
100
100
100
100
100
100
100
100
100
100
100
100
100
100
100
100
100
100
100
100
100
100
387.236
361.856
336.919
312.702
289.453
267.39
246.689
227.482
209.86
193.869
179.516
166.772
155.578
145.851
137.489
130.375
124.388
119.403
115.294
111.944
109.242
107.084
105.379
104.046
103.015
102.225
101.627
101.178
100.845
100.6
100.422
100.294
100.203
100.139
100.094
100.063
100.042
100.028
100.018
100.012
100.007
100.005
100.003
100.002
100.001
100.001
100
100
100
100
100
100
100
100
100
100
100
100
100
100
100
100
100
100
100
100
100
100
100
100
100
100
100
100
100
387.305
362.061
337.248
313.137
289.975
267.974
247.31
228.119
210.491
194.476
180.087
167.297
156.051
146.27
137.853
130.687
124.651
119.621
115.473
112.089
109.357
107.175
105.45
104.101
103.056
102.256
101.65
101.195
100.857
100.609
100.429
100.299
100.206
100.141
100.096
100.064
100.043
100.028
100.018
100.012
100.008
100.005
100.003
100.002
100.001
100.001
100
100
100
100
100
100
100
100
100
100
100
100
100
100
100
100
100
100
100
100
100
100
100
100
100
100
100
100
100
387.356
362.212
337.491
313.46
290.363
268.409
247.776
228.597
210.966
194.937
180.521
167.698
156.414
146.592
138.134
130.929
124.856
119.792
115.613
112.203
109.448
107.247
105.506
104.144
103.089
102.281
101.669
101.209
100.867
100.616
100.434
100.303
100.209
100.143
100.097
100.065
100.043
100.028
100.019
100.012
100.008
100.005
100.003
100.002
100.001
100.001
100
100
100
100
100
100
100
100
100
100
100
100
100
100
100
100
100
100
100
100
100
100
100
100
100
100
100
100
100
387.394
362.323
337.67
313.698
290.649
268.732
248.122
228.954
211.323
195.283
180.849
168.002
156.69
146.838
138.35
131.115
125.013
119.923
115.722
112.291
109.519
107.303
105.55
104.178
103.115
102.301
101.683
101.22
100.875
100.622
100.438
100.305
100.211
100.144
100.098
100.066
100.044
100.029
100.019
100.012
100.008
100.005
100.003
100.002
100.001
100.001
100
100
100
100
100
100
100
100
100
100
100
100
100
100
100
100
100
100
100
100
100
100
100
100
100
100
100
100
100
387.421
362.404
337.801
313.873
290.86
268.969
248.377
229.218
211.587
195.541
181.094
168.23
156.898
147.024
138.513
131.256
125.134
120.024
115.806
112.359
109.574
107.347
105.584
104.204
103.136
102.316
101.695
101.228
100.881
100.627
100.441
100.308
100.213
100.145
100.099
100.066
100.044
100.029
100.019
100.012
100.008
100.005
100.003
100.002
100.001
100.001
100
100
100
100
100
100
100
100
100
100
100
100
100
100
100
100
100
100
100
100
100
100
100
100
100
100
100
100
100
387.441
362.463
337.896
314
291.013
269.143
248.564
229.412
211.783
195.731
181.276
168.4
157.053
147.164
138.636
131.362
125.225
120.101
115.869
112.411
109.616
107.38
105.61
104.225
103.151
102.328
101.704
101.235
100.886
100.63
100.444
100.309
100.214
100.146
100.099
100.067
100.044
100.029
100.019
100.012
100.008
100.005
100.003
100.002
100.001
100.001
100
100
100
100
100
100
100
100
100
100
100
100
100
100
100
100
100
100
100
100
100
100
100
100
100
100
100
100
100
387.456
362.505
337.965
314.092
291.125
269.27
248.701
229.554
211.926
195.872
181.41
168.525
157.168
147.267
138.728
131.442
125.293
120.158
115.917
112.45
109.647
107.405
105.63
104.24
103.163
102.337
101.71
101.24
100.89
100.633
100.446
100.311
100.215
100.147
100.1
100.067
100.044
100.029
100.019
100.012
100.008
100.005
100.003
100.002
100.001
100.001
100
100
100
100
100
100
100
100
100
100
100
100
100
100
100
100
100
100
100
100
100
100
100
100
100
100
100
100
100
387.466
362.536
338.014
314.159
291.205
269.361
248.8
229.657
212.029
195.973
181.508
168.617
157.253
147.343
138.795
131.501
125.343
120.201
115.952
112.479
109.671
107.424
105.645
104.252
103.172
102.344
101.715
101.243
100.893
100.635
100.447
100.312
100.215
100.147
100.1
100.067
100.045
100.029
100.019
100.012
100.008
100.005
100.003
100.002
100.001
100.001
100
100
100
100
100
100
100
100
100
100
100
100
100
100
100
100
100
100
100
100
100
100
100
100
100
100
100
100
100
387.473
362.558
338.049
314.206
291.262
269.426
248.87
229.731
212.104
196.047
181.579
168.683
157.314
147.398
138.844
131.543
125.38
120.232
115.978
112.501
109.688
107.438
105.656
104.26
103.179
102.349
101.719
101.246
100.895
100.636
100.448
100.313
100.216
100.148
100.1
100.067
100.045
100.029
100.019
100.012
100.008
100.005
100.003
100.002
100.001
100.001
100
100
100
100
100
100
100
100
100
100
100
100
100
100
100
100
100
100
100
100
100
100
100
100
100
100
100
100
100
387.479
362.573
338.074
314.239
291.303
269.472
248.921
229.783
212.157
196.1
181.629
168.731
157.358
147.438
138.88
131.575
125.407
120.255
115.997
112.516
109.701
107.448
105.664
104.267
103.184
102.353
101.722
101.248
100.896
100.637
100.449
100.313
100.216
100.148
100.1
100.067
100.045
100.029
100.019
100.012
100.008
100.005
100.003
100.002
100.001
100.001
100
100
100
100
100
100
100
100
100
100
100
100
100
100
100
100
100
100
100
100
100
100
100
100
100
100
100
100
100
387.482
362.584
338.092
314.263
291.332
269.505
248.956
229.821
212.195
196.137
181.665
168.765
157.389
147.467
138.905
131.597
125.426
120.271
116.011
112.528
109.71
107.456
105.67
104.271
103.187
102.355
101.724
101.25
100.897
100.638
100.45
100.314
100.217
100.148
100.101
100.067
100.045
100.03
100.019
100.012
100.008
100.005
100.003
100.002
100.001
100.001
100
100
100
100
100
100
100
100
100
100
100
100
100
100
100
100
100
100
100
100
100
100
100
100
100
100
100
100
100
387.485
362.591
338.104
314.28
291.352
269.528
248.981
229.847
212.222
196.163
181.691
168.789
157.411
147.487
138.923
131.613
125.44
120.283
116.021
112.536
109.717
107.461
105.674
104.275
103.19
102.357
101.726
101.251
100.898
100.639
100.45
100.314
100.217
100.148
100.101
100.068
100.045
100.03
100.019
100.012
100.008
100.005
100.003
100.002
100.001
100.001
100
100
100
100
100
100
100
100
100
100
100
100
100
100
100
100
100
100
100
100
100
100
100
100
100
100
100
100
100
387.487
362.597
338.113
314.291
291.366
269.544
248.998
229.865
212.24
196.182
181.708
168.806
157.427
147.501
138.936
131.624
125.449
120.291
116.028
112.542
109.722
107.465
105.677
104.277
103.192
102.359
101.727
101.252
100.899
100.639
100.45
100.314
100.217
100.149
100.101
100.068
100.045
100.03
100.019
100.012
100.008
100.005
100.003
100.002
100.001
100.001
100
100
100
100
100
100
100
100
100
100
100
100
100
100
100
100
100
100
100
100
100
100
100
100
100
100
100
100
100
387.488
362.6
338.119
314.299
291.375
269.555
249.01
229.878
212.253
196.194
181.721
168.817
157.438
147.511
138.945
131.632
125.456
120.297
116.032
112.546
109.725
107.467
105.68
104.279
103.193
102.36
101.727
101.252
100.899
100.64
100.451
100.314
100.217
100.149
100.101
100.068
100.045
100.03
100.019
100.012
100.008
100.005
100.003
100.002
100.001
100.001
100
100
100
100
100
100
100
100
100
100
100
100
100
100
100
100
100
100
100
100
100
100
100
100
100
100
100
100
100
387.489
362.603
338.123
314.304
291.382
269.562
249.019
229.886
212.262
196.203
181.729
168.825
157.445
147.518
138.951
131.637
125.461
120.301
116.036
112.548
109.727
107.469
105.681
104.28
103.194
102.36
101.728
101.253
100.9
100.64
100.451
100.314
100.217
100.149
100.101
100.068
100.045
100.03
100.019
100.012
100.008
100.005
100.003
100.002
100.001
100.001
100
100
100
100
100
100
100
100
100
100
100
100
100
100
100
100
100
100
100
100
100
100
100
100
100
100
100
100
100
387.489
362.604
338.125
314.308
291.386
269.567
249.024
229.892
212.268
196.209
181.735
168.831
157.45
147.523
138.955
131.641
125.464
120.304
116.038
112.55
109.729
107.471
105.682
104.281
103.194
102.361
101.728
101.253
100.9
100.64
100.451
100.315
100.217
100.149
100.101
100.068
100.045
100.03
100.019
100.012
100.008
100.005
100.003
100.002
100.001
100.001
100
100
100
100
100
100
100
100
100
100
100
100
100
100
100
100
100
100
100
100
100
100
100
100
100
100
100
100
100
387.49
362.606
338.127
314.31
291.389
269.571
249.028
229.896
212.272
196.213
181.739
168.834
157.454
147.526
138.958
131.643
125.466
120.305
116.04
112.552
109.73
107.471
105.683
104.281
103.195
102.361
101.729
101.253
100.9
100.64
100.451
100.315
100.217
100.149
100.101
100.068
100.045
100.03
100.019
100.012
100.008
100.005
100.003
100.002
100.001
100.001
100
100
100
100
100
100
100
100
100
100
100
100
100
100
100
100
100
100
100
100
100
100
100
100
100
100
100
100
100
387.49
362.606
338.128
314.312
291.391
269.573
249.03
229.899
212.275
196.216
181.741
168.837
157.456
147.528
138.96
131.645
125.468
120.307
116.041
112.553
109.731
107.472
105.683
104.282
103.195
102.361
101.729
101.253
100.9
100.64
100.451
100.315
100.217
100.149
100.101
100.068
100.045
100.03
100.019
100.012
100.008
100.005
100.003
100.002
100.001
100.001
100
100
100
100
100
100
100
100
100
100
100
100
100
100
100
100
100
100
100
100
100
100
100
100
100
100
100
100
100
387.49
362.607
338.129
314.313
291.393
269.575
249.032
229.9
212.276
196.217
181.743
168.839
157.458
147.529
138.961
131.646
125.469
120.307
116.042
112.553
109.731
107.472
105.684
104.282
103.195
102.362
101.729
101.253
100.9
100.64
100.451
100.315
100.217
100.149
100.101
100.068
100.045
100.03
100.019
100.012
100.008
100.005
100.003
100.002
100.001
100.001
100
100
100
100
100
100
100
100
100
100
100
100
100
100
100
100
100
100
100
100
100
100
100
100
100
100
100
100
100
387.49
362.607
338.13
314.314
291.394
269.576
249.033
229.901
212.277
196.219
181.744
168.84
157.459
147.53
138.962
131.647
125.469
120.308
116.042
112.554
109.732
107.473
105.684
104.282
103.195
102.362
101.729
101.254
100.9
100.64
100.451
100.315
100.217
100.149
100.101
100.068
100.045
100.03
100.019
100.012
100.008
100.005
100.003
100.002
100.001
100.001
100
100
100
100
100
100
100
100
100
100
100
100
100
100
100
100
100
100
100
100
100
100
100
100
100
100
100
100
100
387.49
362.607
338.13
314.314
291.394
269.576
249.034
229.902
212.278
196.219
181.745
168.84
157.459
147.531
138.962
131.647
125.47
120.308
116.042
112.554
109.732
107.473
105.684
104.282
103.195
102.362
101.729
101.254
100.9
100.64
100.451
100.315
100.217
100.149
100.101
100.068
100.045
100.03
100.019
100.012
100.008
100.005
100.003
100.002
100.001
100.001
100
100
100
100
100
100
100
100
100
100
100
100
100
100
100
100
100
100
100
100
100
100
100
100
100
100
100
100
100
387.49
362.607
338.13
314.314
291.394
269.577
249.034
229.903
212.279
196.22
181.745
168.841
157.46
147.531
138.963
131.648
125.47
120.309
116.043
112.554
109.732
107.473
105.684
104.282
103.196
102.362
101.729
101.254
100.9
100.64
100.451
100.315
100.217
100.149
100.101
100.068
100.045
100.03
100.019
100.012
100.008
100.005
100.003
100.002
100.001
100.001
100
100
100
100
100
100
100
100
100
100
100
100
100
100
100
100
100
100
100
100
100
100
100
100
100
100
100
100
100
387.49
362.608
338.13
314.315
291.395
269.577
249.034
229.903
212.279
196.22
181.746
168.841
157.46
147.531
138.963
131.648
125.47
120.309
116.043
112.554
109.732
107.473
105.684
104.282
103.196
102.362
101.729
101.254
100.9
100.64
100.451
100.315
100.217
100.149
100.101
100.068
100.045
100.03
100.019
100.012
100.008
100.005
100.003
100.002
100.001
100.001
100
100
100
100
100
100
100
100
100
100
100
100
100
100
100
100
100
100
100
100
100
100
100
100
100
100
100
100
100
387.49
362.608
338.13
314.315
291.395
269.577
249.035
229.903
212.279
196.22
181.746
168.841
157.46
147.532
138.963
131.648
125.47
120.309
116.043
112.554
109.732
107.473
105.684
104.282
103.196
102.362
101.729
101.254
100.9
100.64
100.451
100.315
100.217
100.149
100.101
100.068
100.045
100.03
100.019
100.012
100.008
100.005
100.003
100.002
100.001
100.001
100
100
100
100
100
100
100
100
100
100
100
100
100
100
100
100
100
100
100
100
100
100
100
100
100
100
100
100
100
387.49
362.608
338.131
314.315
291.395
269.577
249.035
229.903
212.279
196.22
181.746
168.841
157.46
147.532
138.963
131.648
125.47
120.309
116.043
112.554
109.732
107.473
105.684
104.282
103.196
102.362
101.729
101.254
100.9
100.64
100.451
100.315
100.217
100.149
100.101
100.068
100.045
100.03
100.019
100.012
100.008
100.005
100.003
100.002
100.001
100.001
100
100
100
100
100
100
100
100
100
100
100
100
100
100
100
100
100
100
100
100
100
100
100
100
100
100
100
100
100
387.49
362.608
338.131
314.315
291.395
269.577
249.035
229.903
212.279
196.22
181.746
168.841
157.46
147.532
138.963
131.648
125.47
120.309
116.043
112.554
109.732
107.473
105.684
104.282
103.196
102.362
101.729
101.254
100.9
100.64
100.451
100.315
100.217
100.149
100.101
100.068
100.045
100.03
100.019
100.012
100.008
100.005
100.003
100.002
100.001
100.001
100
100
100
100
100
100
100
100
100
100
100
100
100
100
100
100
100
100
100
100
100
100
100
100
100
100
100
100
100
387.49
362.608
338.131
314.315
291.395
269.577
249.035
229.903
212.279
196.221
181.746
168.841
157.461
147.532
138.963
131.648
125.47
120.309
116.043
112.554
109.732
107.473
105.684
104.282
103.196
102.362
101.729
101.254
100.9
100.64
100.451
100.315
100.217
100.149
100.101
100.068
100.045
100.03
100.019
100.012
100.008
100.005
100.003
100.002
100.001
100.001
100
100
100
100
100
100
100
100
100
100
100
100
100
100
100
100
100
100
100
100
100
100
100
100
100
100
100
100
100
387.49
362.608
338.131
314.315
291.395
269.577
249.035
229.903
212.279
196.221
181.746
168.842
157.461
147.532
138.963
131.648
125.47
120.309
116.043
112.554
109.732
107.473
105.684
104.282
103.196
102.362
101.729
101.254
100.9
100.64
100.451
100.315
100.217
100.149
100.101
100.068
100.045
100.03
100.019
100.012
100.008
100.005
100.003
100.002
100.001
100.001
100
100
100
100
100
100
100
100
100
100
100
100
100
100
100
100
100
100
100
100
100
100
100
100
100
100
100
100
100
387.49
362.608
338.131
314.315
291.395
269.577
249.035
229.903
212.279
196.221
181.746
168.842
157.461
147.532
138.963
131.648
125.47
120.309
116.043
112.554
109.732
107.473
105.684
104.282
103.196
102.362
101.729
101.254
100.9
100.64
100.451
100.315
100.217
100.149
100.101
100.068
100.045
100.03
100.019
100.012
100.008
100.005
100.003
100.002
100.001
100.001
100
100
100
100
100
100
100
100
100
100
100
100
100
100
100
100
100
100
100
100
100
100
100
100
100
100
100
100
100
387.49
362.608
338.131
314.315
291.395
269.577
249.035
229.903
212.279
196.221
181.746
168.842
157.461
147.532
138.963
131.648
125.47
120.309
116.043
112.554
109.732
107.473
105.684
104.282
103.196
102.362
101.729
101.254
100.9
100.64
100.451
100.315
100.217
100.149
100.101
100.068
100.045
100.03
100.019
100.012
100.008
100.005
100.003
100.002
100.001
100.001
100
100
100
100
100
100
100
100
100
100
100
100
100
100
100
100
100
100
100
100
100
100
100
100
100
100
100
100
100
387.49
362.608
338.131
314.315
291.395
269.577
249.035
229.903
212.279
196.221
181.746
168.842
157.461
147.532
138.963
131.648
125.47
120.309
116.043
112.554
109.732
107.473
105.684
104.282
103.196
102.362
101.729
101.254
100.9
100.64
100.451
100.315
100.217
100.149
100.101
100.068
100.045
100.03
100.019
100.012
100.008
100.005
100.003
100.002
100.001
100.001
100
100
100
100
100
100
100
100
100
100
100
100
100
100
100
100
100
100
100
100
100
100
100
100
100
100
100
100
100
387.49
362.608
338.131
314.315
291.395
269.577
249.035
229.903
212.279
196.221
181.746
168.842
157.461
147.532
138.963
131.648
125.47
120.309
116.043
112.554
109.732
107.473
105.684
104.282
103.196
102.362
101.729
101.254
100.9
100.64
100.451
100.315
100.217
100.149
100.101
100.068
100.045
100.03
100.019
100.012
100.008
100.005
100.003
100.002
100.001
100.001
100
100
100
100
100
100
100
100
100
100
100
100
100
100
100
100
100
100
100
100
100
100
100
100
100
100
100
100
100
387.49
362.608
338.131
314.315
291.395
269.577
249.035
229.903
212.279
196.221
181.746
168.842
157.461
147.532
138.963
131.648
125.47
120.309
116.043
112.554
109.732
107.473
105.684
104.282
103.196
102.362
101.729
101.254
100.9
100.64
100.451
100.315
100.217
100.149
100.101
100.068
100.045
100.03
100.019
100.012
100.008
100.005
100.003
100.002
100.001
100.001
100
100
100
100
100
100
100
100
100
100
100
100
100
100
100
100
100
100
100
100
100
100
100
100
100
100
100
100
100
387.49
362.608
338.131
314.315
291.395
269.577
249.035
229.903
212.279
196.221
181.746
168.842
157.461
147.532
138.963
131.648
125.47
120.309
116.043
112.554
109.732
107.473
105.684
104.282
103.196
102.362
101.729
101.254
100.9
100.64
100.451
100.315
100.217
100.149
100.101
100.068
100.045
100.03
100.019
100.012
100.008
100.005
100.003
100.002
100.001
100.001
100
100
100
100
100
100
100
100
100
100
100
100
100
100
100
100
100
100
100
100
100
100
100
100
100
100
100
100
100
387.49
362.608
338.131
314.315
291.395
269.577
249.035
229.903
212.279
196.221
181.746
168.842
157.461
147.532
138.963
131.648
125.47
120.309
116.043
112.554
109.732
107.473
105.684
104.282
103.196
102.362
101.729
101.254
100.9
100.64
100.451
100.315
100.217
100.149
100.101
100.068
100.045
100.03
100.019
100.012
100.008
100.005
100.003
100.002
100.001
100.001
100
100
100
100
100
100
100
100
100
100
100
100
100
100
100
100
100
100
100
100
100
100
100
100
100
100
100
100
100
387.49
362.608
338.131
314.315
291.395
269.577
249.035
229.903
212.279
196.221
181.746
168.842
157.461
147.532
138.963
131.648
125.47
120.309
116.043
112.554
109.732
107.473
105.684
104.282
103.196
102.362
101.729
101.254
100.9
100.64
100.451
100.315
100.217
100.149
100.101
100.068
100.045
100.03
100.019
100.012
100.008
100.005
100.003
100.002
100.001
100.001
100
100
100
100
100
100
100
100
100
100
100
100
100
100
100
100
100
100
100
100
100
100
100
100
100
100
100
100
100
387.49
362.608
338.131
314.315
291.395
269.577
249.035
229.903
212.279
196.221
181.746
168.842
157.461
147.532
138.963
131.648
125.47
120.309
116.043
112.554
109.732
107.473
105.684
104.282
103.196
102.362
101.729
101.254
100.9
100.64
100.451
100.315
100.217
100.149
100.101
100.068
100.045
100.03
100.019
100.012
100.008
100.005
100.003
100.002
100.001
100.001
100
100
100
100
100
100
100
100
100
100
100
100
100
100
100
100
100
100
100
100
100
100
100
100
100
100
100
100
100
387.49
362.608
338.131
314.315
291.395
269.577
249.035
229.903
212.279
196.221
181.746
168.842
157.461
147.532
138.963
131.648
125.47
120.309
116.043
112.554
109.732
107.473
105.684
104.282
103.196
102.362
101.729
101.254
100.9
100.64
100.451
100.315
100.217
100.149
100.101
100.068
100.045
100.03
100.019
100.012
100.008
100.005
100.003
100.002
100.001
100.001
100
100
100
100
100
100
100
100
100
100
100
100
100
100
100
100
100
100
100
100
100
100
100
100
100
100
100
100
100
387.49
362.608
338.131
314.315
291.395
269.577
249.035
229.903
212.279
196.221
181.746
168.842
157.461
147.532
138.963
131.648
125.47
120.309
116.043
112.554
109.732
107.473
105.684
104.282
103.196
102.362
101.729
101.254
100.9
100.64
100.451
100.315
100.217
100.149
100.101
100.068
100.045
100.03
100.019
100.012
100.008
100.005
100.003
100.002
100.001
100.001
100
100
100
100
100
100
100
100
100
100
100
100
100
100
100
100
100
100
100
100
100
100
100
100
100
100
100
100
100
387.49
362.608
338.131
314.315
291.395
269.577
249.035
229.903
212.279
196.221
181.746
168.842
157.461
147.532
138.963
131.648
125.47
120.309
116.043
112.554
109.732
107.473
105.684
104.282
103.196
102.362
101.729
101.254
100.9
100.64
100.451
100.315
100.217
100.149
100.101
100.068
100.045
100.03
100.019
100.012
100.008
100.005
100.003
100.002
100.001
100.001
100
100
100
100
100
100
100
100
100
100
100
100
100
100
100
100
100
100
100
100
100
100
100
100
100
100
100
100
100
387.49
362.608
338.131
314.315
291.395
269.577
249.035
229.903
212.279
196.221
181.746
168.842
157.461
147.532
138.963
131.648
125.47
120.309
116.043
112.554
109.732
107.473
105.684
104.282
103.196
102.362
101.729
101.254
100.9
100.64
100.451
100.315
100.217
100.149
100.101
100.068
100.045
100.03
100.019
100.012
100.008
100.005
100.003
100.002
100.001
100.001
100
100
100
100
100
100
100
100
100
100
100
100
100
100
100
100
100
100
100
100
100
100
100
100
100
100
100
100
100
387.49
362.608
338.131
314.315
291.395
269.577
249.035
229.903
212.279
196.221
181.746
168.842
157.461
147.532
138.963
131.648
125.47
120.309
116.043
112.554
109.732
107.473
105.684
104.282
103.196
102.362
101.729
101.254
100.9
100.64
100.451
100.315
100.217
100.149
100.101
100.068
100.045
100.03
100.019
100.012
100.008
100.005
100.003
100.002
100.001
100.001
100
100
100
100
100
100
100
100
100
100
100
100
100
100
100
100
100
100
100
100
100
100
100
100
100
100
100
100
100
387.49
362.608
338.131
314.315
291.395
269.577
249.035
229.903
212.279
196.221
181.746
168.842
157.461
147.532
138.963
131.648
125.47
120.309
116.043
112.554
109.732
107.473
105.684
104.282
103.196
102.362
101.729
101.254
100.9
100.64
100.451
100.315
100.217
100.149
100.101
100.068
100.045
100.03
100.019
100.012
100.008
100.005
100.003
100.002
100.001
100.001
100
100
100
100
100
100
100
100
100
100
100
100
100
100
100
100
100
100
100
100
100
100
100
100
100
100
100
100
100
387.49
362.608
338.131
314.315
291.395
269.577
249.035
229.903
212.279
196.221
181.746
168.842
157.461
147.532
138.963
131.648
125.47
120.309
116.043
112.554
109.732
107.473
105.684
104.282
103.196
102.362
101.729
101.254
100.9
100.64
100.451
100.315
100.217
100.149
100.101
100.068
100.045
100.03
100.019
100.012
100.008
100.005
100.003
100.002
100.001
100.001
100
100
100
100
100
100
100
100
100
100
100
100
100
100
100
100
100
100
100
100
100
100
100
100
100
100
100
100
100
387.49
362.608
338.131
314.315
291.395
269.577
249.035
229.903
212.279
196.221
181.746
168.842
157.461
147.532
138.963
131.648
125.47
120.309
116.043
112.554
109.732
107.473
105.684
104.282
103.196
102.362
101.729
101.254
100.9
100.64
100.451
100.315
100.217
100.149
100.101
100.068
100.045
100.03
100.019
100.012
100.008
100.005
100.003
100.002
100.001
100.001
100
100
100
100
100
100
100
100
100
100
100
100
100
100
100
100
100
100
100
100
100
100
100
100
100
100
100
100
100
387.49
362.608
338.131
314.315
291.395
269.577
249.035
229.903
212.279
196.221
181.746
168.842
157.461
147.532
138.963
131.648
125.47
120.309
116.043
112.554
109.732
107.473
105.684
104.282
103.196
102.362
101.729
101.254
100.9
100.64
100.451