/*--------------------------------*- C++ -*----------------------------------*\
  =========                 |
  \\      /  F ield         | OpenFOAM: The Open Source CFD Toolbox
   \\    /   O peration     | Website:  https://openfoam.org
    \\  /    A nd           | Version:  10
     \\/     M anipulation  |
\*---------------------------------------------------------------------------*/
FoamFile
{
    format      ascii;
    class       volScalarField;
    location    "367";
    object      gradTz;
}
// * * * * * * * * * * * * * * * * * * * * * * * * * * * * * * * * * * * * * //

dimensions      [0 -1 0 1 0 0 0];

internalField   nonuniform List<scalar> 
11250
(
-14345.6
-4141.2
-1521.11
-717.84
-413.494
-272.292
-195.367
-148.322
-117.072
-95.002
-78.6553
-66.0794
-56.102
-47.9859
-41.2497
-35.569
-30.7186
-26.5387
-22.9125
-19.7527
-16.9923
-14.5783
-12.468
-10.6255
-9.02046
-7.62634
-6.41968
-5.37942
-4.48654
-3.72375
-3.07532
-2.52695
-2.06566
-1.67976
-1.35873
-1.09318
-0.874784
-0.696215
-0.551067
-0.433781
-0.33957
-0.264347
-0.204641
-0.157537
-0.120596
-0.0918007
-0.0694884
-0.0523036
-0.0391472
-0.0291352
-0.0215617
-0.015867
-0.0116106
-0.00844813
-0.00611244
-0.00439761
-0.00314607
-0.00223806
-0.00158317
-0.00111362
-0.00077894
-0.000541788
-0.000374728
-0.000257734
-0.00017628
-0.000119904
-8.11175e-05
-5.45962e-05
-3.65814e-05
-2.44389e-05
-1.63394e-05
-1.10272e-05
-7.65671e-06
-5.67925e-06
-4.76696e-06
-8241
-4839
-2746.28
-1654.36
-1077.12
-752.402
-556.048
-429.024
-341.92
-279.192
-232.133
-195.605
-166.436
-142.594
-122.732
-105.934
-91.5603
-79.1513
-68.371
-58.9669
-50.7439
-43.5479
-37.253
-31.7545
-26.9626
-22.7991
-19.1943
-16.0859
-13.4173
-11.1371
-9.19852
-7.55883
-6.17939
-5.02526
-4.06506
-3.27073
-2.61741
-2.0832
-1.64895
-1.29804
-1.01615
-0.791069
-0.612413
-0.471458
-0.360915
-0.274742
-0.207969
-0.15654
-0.117166
-0.0872019
-0.0645353
-0.0474914
-0.0347519
-0.0252866
-0.0182957
-0.013163
-0.00941698
-0.00669913
-0.00473891
-0.00333343
-0.00233164
-0.00162177
-0.00112171
-0.000771503
-0.000527682
-0.000358927
-0.000242823
-0.000163433
-0.000109506
-7.31585e-05
-4.89127e-05
-3.30104e-05
-2.29209e-05
-1.70014e-05
-1.42705e-05
-5537.59
-4226.77
-2969.89
-2075.5
-1487.58
-1103.56
-846.885
-669.37
-542.036
-447.441
-374.894
-317.667
-271.418
-233.269
-201.265
-174.05
-150.661
-130.401
-112.753
-97.3236
-83.8088
-71.9647
-61.5919
-52.5225
-44.6124
-37.7347
-31.7769
-26.6369
-22.2224
-18.4492
-15.2402
-12.5253
-10.2408
-8.32903
-6.73824
-5.42205
-4.33937
-3.45397
-2.73417
-2.15244
-1.68511
-1.31192
-1.01568
-0.781946
-0.598627
-0.455714
-0.344971
-0.259671
-0.194363
-0.14466
-0.107061
-0.0787882
-0.0576549
-0.0419524
-0.0303546
-0.0218393
-0.0156244
-0.0111152
-0.00786295
-0.00553103
-0.00386885
-0.00269102
-0.00186129
-0.0012802
-0.000875622
-0.000595601
-0.000402943
-0.000271206
-0.00018172
-0.000121404
-8.11697e-05
-5.47807e-05
-3.80376e-05
-2.82144e-05
-2.36825e-05
-4143.71
-3559.3
-2829.8
-2189
-1693.04
-1326.42
-1057.71
-858.808
-708.822
-593.196
-502.024
-428.578
-368.258
-317.877
-275.198
-238.627
-207.005
-179.481
-155.412
-134.304
-115.767
-99.4891
-85.2086
-72.7051
-61.787
-52.2849
-44.0466
-36.9344
-30.8225
-25.5957
-21.1485
-17.3847
-14.2165
-11.5645
-9.35713
-7.53041
-6.02747
-4.79816
-3.79861
-2.99069
-2.34156
-1.82313
-1.41156
-1.08679
-0.832058
-0.633454
-0.479543
-0.360986
-0.270209
-0.20112
-0.148852
-0.109547
-0.0801659
-0.0583344
-0.0422091
-0.0303692
-0.0217275
-0.0154574
-0.0109349
-0.00769209
-0.00538059
-0.00374261
-0.00258868
-0.00178053
-0.00121786
-0.000828409
-0.000560454
-0.000377226
-0.000252763
-0.000168869
-0.000112906
-7.62004e-05
-5.29114e-05
-3.92476e-05
-3.2944e-05
-3332.43
-3035.13
-2599.28
-2156.03
-1767.69
-1450
-1197.52
-998.327
-840.43
-713.871
-610.996
-526.124
-455.1
-394.894
-343.289
-298.653
-259.77
-225.721
-195.802
-169.46
-146.254
-125.821
-107.857
-92.1006
-78.3215
-66.3143
-55.8933
-46.8886
-39.1445
-32.5174
-26.8757
-22.0985
-18.0756
-14.7068
-11.902
-9.58014
-7.66933
-6.10605
-4.83467
-3.80686
-2.98091
-2.32116
-1.79733
-1.38393
-1.05963
-0.806766
-0.610788
-0.459812
-0.344204
-0.256209
-0.189635
-0.139568
-0.10214
-0.0743273
-0.0537832
-0.0386983
-0.0276875
-0.0196981
-0.0139353
-0.00980302
-0.00685738
-0.00476995
-0.00329936
-0.00226941
-0.00155228
-0.00105591
-0.000714384
-0.000480842
-0.000322198
-0.000215262
-0.000143927
-9.71387e-05
-6.74517e-05
-5.0034e-05
-4.19985e-05
-2816.13
-2647.26
-2373.96
-2066.09
-1769.76
-1506.65
-1282.54
-1095.26
-939.653
-810.064
-701.415
-609.516
-531.05
-463.45
-404.749
-353.438
-308.361
-268.616
-233.496
-202.434
-174.968
-150.711
-129.33
-110.537
-94.0734
-79.7057
-67.2202
-56.4202
-47.1234
-39.1615
-32.3787
-26.632
-21.7901
-17.7337
-14.3549
-11.557
-9.25369
-7.36876
-5.8354
-4.59551
-3.59894
-2.80275
-2.17049
-1.67143
-1.27989
-0.974551
-0.737877
-0.555531
-0.415887
-0.309588
-0.229158
-0.168666
-0.123442
-0.0898335
-0.0650068
-0.0467761
-0.0334684
-0.0238119
-0.0168462
-0.0118512
-0.00829042
-0.00576696
-0.00398912
-0.00274393
-0.00187691
-0.00127677
-0.000863829
-0.000581447
-0.000389619
-0.000260313
-0.000174053
-0.000117474
-8.15742e-05
-6.05111e-05
-5.07938e-05
-2465.9
-2361.07
-2180.57
-1962.1
-1736.31
-1522.2
-1328.88
-1158.97
-1011.59
-884.352
-774.422
-679.103
-596.041
-523.278
-459.224
-402.61
-352.418
-307.834
-268.198
-232.968
-201.687
-173.966
-149.464
-127.876
-108.927
-92.362
-77.9468
-65.4623
-54.7044
-45.4828
-37.6208
-30.9552
-25.3357
-20.6255
-16.7003
-13.4486
-10.7707
-8.57847
-6.79465
-5.35186
-4.19192
-3.26502
-2.52881
-1.9476
-1.49153
-1.13583
-0.860071
-0.647587
-0.484844
-0.360949
-0.267195
-0.196676
-0.143951
-0.104765
-0.0758165
-0.0545572
-0.0390379
-0.0277758
-0.0196515
-0.0138253
-0.00967177
-0.00672811
-0.00465414
-0.00320148
-0.00218996
-0.00148977
-0.00100797
-0.000678489
-0.000454659
-0.000303776
-0.00020312
-0.000137096
-9.52023e-05
-7.06222e-05
-5.92822e-05
-2217.23
-2147.33
-2022.07
-1862.51
-1688.47
-1514.54
-1349.67
-1198.32
-1061.92
-940.202
-832.04
-736
-650.628
-574.594
-506.738
-446.08
-391.8
-343.212
-299.742
-260.9
-226.262
-195.455
-168.142
-144.017
-122.794
-104.209
-88.0099
-73.9621
-61.8432
-51.4448
-42.5719
-35.0434
-28.6925
-23.366
-18.925
-15.2443
-12.2118
-9.72854
-7.70719
-6.07178
-4.75665
-3.70548
-2.87038
-2.21097
-1.69345
-1.28974
-0.976726
-0.735498
-0.550716
-0.410025
-0.30355
-0.223453
-0.163562
-0.119046
-0.0861569
-0.062002
-0.0443675
-0.0315696
-0.0223368
-0.0157152
-0.0109944
-0.00764856
-0.00529108
-0.00363976
-0.00248986
-0.00169384
-0.00114609
-0.000771486
-0.000516993
-0.000345435
-0.000230982
-0.000155906
-0.000108268
-8.03172e-05
-6.74218e-05
-2034.73
-1985.31
-1894.33
-1774.09
-1637.43
-1495.02
-1354.52
-1220.64
-1095.88
-981.212
-876.653
-781.735
-695.757
-617.958
-547.596
-483.995
-426.551
-374.734
-328.077
-286.163
-248.619
-215.102
-185.293
-158.893
-135.617
-115.194
-97.3644
-81.8808
-68.507
-57.0197
-47.2087
-38.8776
-31.8446
-25.9423
-21.0186
-16.9357
-13.5705
-10.8136
-8.56876
-6.75194
-5.29051
-4.12209
-3.19362
-2.46033
-1.8847
-1.43559
-1.08731
-0.818863
-0.613202
-0.456593
-0.338056
-0.248877
-0.182186
-0.132612
-0.0959814
-0.0690769
-0.0494333
-0.0351763
-0.0248901
-0.0175126
-0.0122525
-0.0085242
-0.0058971
-0.00405683
-0.00277528
-0.00188809
-0.00127757
-0.000860024
-0.000576346
-0.000385105
-0.000257518
-0.000173823
-0.000120715
-8.95535e-05
-7.51768e-05
-1897.49
-1860.78
-1791.91
-1698.4
-1588.69
-1470.52
-1350.01
-1231.53
-1117.89
-1010.68
-910.639
-817.977
-732.573
-654.137
-582.3
-516.67
-456.861
-402.505
-353.25
-308.769
-268.748
-232.884
-200.887
-172.472
-147.363
-125.287
-105.983
-89.194
-74.6744
-62.1891
-51.5155
-42.4444
-34.7808
-28.3452
-22.9734
-18.5167
-14.8417
-11.8297
-9.37614
-7.38979
-5.79148
-4.51328
-3.49732
-2.69473
-2.06457
-1.57282
-1.1914
-0.897366
-0.672065
-0.500476
-0.370584
-0.272849
-0.199752
-0.14541
-0.105253
-0.075755
-0.0542161
-0.0385822
-0.0273018
-0.0192106
-0.0134413
-0.00935171
-0.00646991
-0.00445109
-0.00304514
-0.00207177
-0.00140192
-0.000943769
-0.000632492
-0.000422638
-0.000282626
-0.000190779
-0.000132495
-9.82961e-05
-8.25179e-05
-1792.39
-1763.93
-1709.8
-1634.81
-1544.66
-1444.93
-1340.47
-1235.04
-1131.41
-1031.4
-936.165
-846.357
-762.274
-683.994
-611.46
-544.532
-483.023
-426.719
-375.391
-328.799
-286.695
-248.826
-214.934
-184.755
-158.026
-134.48
-113.855
-95.8906
-80.3345
-66.943
-55.4834
-45.7358
-37.4944
-30.5689
-24.7847
-19.9832
-16.0219
-12.7739
-10.1272
-7.98357
-6.25819
-4.87795
-3.7806
-2.9135
-2.23254
-1.70103
-1.2887
-0.970776
-0.727131
-0.541544
-0.401036
-0.295299
-0.216208
-0.157403
-0.113943
-0.0820162
-0.0587015
-0.0417771
-0.0295645
-0.0208041
-0.014557
-0.0101286
-0.00700776
-0.00482136
-0.00329862
-0.00224433
-0.00151875
-0.00102246
-0.000685261
-0.000457917
-0.00030623
-0.00020672
-0.000143572
-0.000106518
-8.94226e-05
-1710.8
-1687.89
-1643.88
-1581.96
-1506.1
-1420.4
-1328.64
-1234.02
-1139.05
-1045.63
-955.093
-868.357
-786.009
-708.406
-635.735
-568.068
-505.392
-447.636
-394.683
-346.381
-302.551
-262.99
-227.475
-195.769
-167.623
-142.782
-120.985
-101.972
-85.4868
-71.2796
-59.1099
-48.7492
-39.9828
-32.6109
-26.4501
-21.3332
-17.1097
-13.6451
-10.8206
-8.53231
-6.68982
-5.21547
-4.04296
-3.11624
-2.38829
-1.81998
-1.37901
-1.03895
-0.778291
-0.579715
-0.429351
-0.316181
-0.231519
-0.168566
-0.122034
-0.0878474
-0.0628799
-0.0447541
-0.0316734
-0.0222895
-0.0155974
-0.0108531
-0.00750947
-0.00516682
-0.00353515
-0.00240538
-0.00162781
-0.00109594
-0.000734534
-0.000490864
-0.000328277
-0.000221612
-0.000153922
-0.000114201
-9.5875e-05
-1646.8
-1627.74
-1590.83
-1538.3
-1472.98
-1397.96
-1316.2
-1230.38
-1142.75
-1055.14
-968.96
-885.262
-804.828
-728.209
-655.781
-587.786
-524.358
-465.55
-411.349
-361.684
-316.441
-275.467
-238.577
-205.561
-176.19
-150.217
-127.39
-107.45
-90.1395
-75.2043
-62.3986
-51.4869
-42.2471
-34.4719
-27.97
-22.5668
-18.1047
-14.4428
-11.4563
-9.03575
-7.08616
-5.52562
-4.28422
-3.3028
-2.5317
-1.92957
-1.46226
-1.10182
-0.825496
-0.61495
-0.455498
-0.335472
-0.24567
-0.178885
-0.129517
-0.0932417
-0.0667464
-0.0475096
-0.033626
-0.0236652
-0.0165611
-0.0115244
-0.00797441
-0.00548702
-0.00375443
-0.00255471
-0.00172895
-0.00116408
-0.000780245
-0.000521433
-0.000348737
-0.000235434
-0.000163529
-0.000121334
-0.000101866
-1596.21
-1579.88
-1548.06
-1502.37
-1444.91
-1378.02
-1304.11
-1225.4
-1143.89
-1061.29
-978.998
-898.155
-819.648
-744.165
-672.219
-604.185
-540.317
-480.775
-425.633
-374.896
-328.51
-286.369
-248.326
-214.198
-183.774
-156.823
-133.099
-112.346
-94.3084
-78.729
-65.3581
-53.9552
-44.2922
-36.1553
-29.3468
-23.6857
-19.0083
-15.168
-12.0347
-9.49434
-7.44751
-5.80862
-4.50453
-3.47328
-2.66283
-2.02983
-1.53848
-1.15941
-0.868755
-0.647255
-0.479482
-0.353174
-0.25866
-0.188362
-0.136391
-0.0981986
-0.0703005
-0.0500433
-0.0354218
-0.0249308
-0.017448
-0.0121423
-0.00840245
-0.00578187
-0.00395639
-0.00269228
-0.00182214
-0.00122689
-0.000822377
-0.000549615
-0.000367601
-0.000248181
-0.000172391
-0.000127915
-0.000107394
-1556
-1541.63
-1513.53
-1472.89
-1421.32
-1360.67
-1292.9
-1219.89
-1143.42
-1065.06
-986.173
-907.919
-831.252
-756.945
-685.615
-617.734
-553.655
-493.621
-437.786
-386.218
-338.917
-295.823
-256.822
-221.757
-190.438
-162.648
-138.148
-116.689
-98.0156
-81.8706
-68.0015
-56.1641
-46.1255
-37.6668
-30.5848
-24.6932
-19.823
-15.8226
-12.5574
-9.90912
-7.77462
-6.06503
-4.70429
-3.62797
-2.7819
-2.12093
-1.60776
-1.21179
-0.908126
-0.676671
-0.501331
-0.369308
-0.270504
-0.197006
-0.142663
-0.102723
-0.0735458
-0.0523575
-0.0370626
-0.0260875
-0.0182587
-0.0127073
-0.00879394
-0.00605162
-0.0041412
-0.00281818
-0.00190745
-0.00128439
-0.00086096
-0.000575427
-0.000384882
-0.00025986
-0.000180511
-0.000133946
-0.000112461
-1523.9
-1510.97
-1485.61
-1448.74
-1401.63
-1345.78
-1282.82
-1214.37
-1142.01
-1067.2
-991.232
-915.267
-840.29
-767.131
-696.472
-628.864
-564.732
-504.39
-448.055
-395.852
-347.828
-303.962
-264.17
-228.324
-196.25
-167.745
-142.581
-120.513
-101.288
-84.6501
-70.3453
-58.1265
-47.7571
-39.0142
-31.6901
-25.5939
-20.5523
-16.4093
-13.0264
-10.2816
-8.06869
-6.29573
-4.88417
-3.76737
-2.88927
-2.20315
-1.67033
-1.25912
-0.943719
-0.703278
-0.521103
-0.383915
-0.281231
-0.204839
-0.148348
-0.106826
-0.0764896
-0.0544575
-0.0385519
-0.0271376
-0.018995
-0.0132205
-0.00914969
-0.00629679
-0.0043092
-0.00293267
-0.00198504
-0.0013367
-0.000896065
-0.000598917
-0.000400612
-0.000270492
-0.000187906
-0.000139439
-0.000117076
-1498.2
-1486.34
-1463.03
-1428.99
-1385.28
-1333.14
-1273.95
-1209.14
-1140.12
-1068.24
-994.742
-920.764
-847.299
-775.211
-705.229
-637.957
-573.879
-513.364
-456.679
-403.997
-355.407
-310.919
-270.483
-233.989
-201.283
-172.174
-146.444
-123.855
-104.155
-87.0916
-72.4085
-59.8573
-49.1988
-40.2068
-32.6699
-26.3935
-21.2005
-16.9314
-13.4442
-10.6139
-8.33121
-6.50187
-5.04504
-3.89214
-2.98545
-2.27683
-1.72644
-1.3016
-0.975678
-0.727182
-0.538876
-0.397051
-0.290883
-0.211889
-0.153468
-0.110522
-0.0791424
-0.0563504
-0.0398949
-0.0280849
-0.0196593
-0.0136837
-0.00947085
-0.00651817
-0.00446095
-0.0030361
-0.00205515
-0.00138397
-0.0009278
-0.000620156
-0.000414837
-0.00028011
-0.000194596
-0.000144409
-0.000121252
-1477.59
-1466.54
-1444.76
-1412.88
-1371.77
-1322.5
-1266.27
-1204.35
-1138.02
-1068.56
-997.131
-924.851
-852.713
-781.596
-712.261
-645.352
-581.393
-520.798
-463.877
-410.84
-361.81
-316.829
-275.869
-238.842
-205.611
-175.996
-149.788
-126.755
-106.651
-89.2211
-74.2119
-61.3731
-50.4638
-41.2549
-33.5323
-27.0983
-21.7726
-17.3928
-13.8139
-10.9081
-8.56396
-6.6848
-5.18792
-4.00304
-3.07101
-2.34243
-1.77643
-1.33946
-1.00418
-0.748514
-0.554745
-0.408786
-0.299509
-0.218193
-0.158047
-0.11383
-0.0815172
-0.0580456
-0.041098
-0.0289338
-0.0202548
-0.0140991
-0.0097589
-0.00671679
-0.00459713
-0.00312894
-0.0021181
-0.00142643
-0.000956305
-0.000639237
-0.00042762
-0.000288754
-0.00020061
-0.000148878
-0.000125008
-1461.05
-1450.61
-1430
-1399.77
-1360.65
-1313.61
-1259.7
-1200.08
-1135.92
-1068.43
-998.717
-927.872
-856.878
-786.622
-717.885
-651.337
-587.535
-526.925
-469.851
-416.555
-367.187
-321.816
-280.434
-242.972
-209.307
-179.271
-152.663
-129.256
-108.807
-91.0656
-75.7773
-62.6916
-51.566
-42.1697
-34.2862
-27.7153
-22.2742
-17.7977
-14.1387
-11.167
-8.76891
-6.84605
-5.31397
-4.10097
-3.14661
-2.40043
-1.82066
-1.37299
-1.02944
-0.767425
-0.56882
-0.4192
-0.307168
-0.223792
-0.162117
-0.11677
-0.0836293
-0.0595539
-0.0421688
-0.0296896
-0.0207852
-0.0144691
-0.0100156
-0.00689384
-0.00471854
-0.00321174
-0.00217425
-0.00146431
-0.000981745
-0.00065627
-0.000439032
-0.000296473
-0.000205981
-0.000152871
-0.000128364
-1447.77
-1437.79
-1418.08
-1389.1
-1351.54
-1306.23
-1254.14
-1196.34
-1133.93
-1068.03
-999.735
-930.09
-860.071
-790.565
-722.366
-656.161
-592.532
-531.95
-474.784
-421.301
-371.677
-325.999
-284.28
-246.466
-212.445
-182.06
-155.117
-131.396
-110.658
-92.6526
-77.127
-63.8305
-52.5199
-42.9627
-34.9408
-28.2518
-22.7109
-18.1508
-14.4222
-11.3932
-8.94818
-6.98721
-5.42443
-4.18685
-3.21296
-2.45138
-1.85954
-1.40247
-1.05167
-0.784079
-0.581223
-0.42838
-0.313924
-0.228733
-0.16571
-0.119367
-0.0854955
-0.0608871
-0.0431156
-0.0303581
-0.0212545
-0.0147967
-0.0102429
-0.00705064
-0.00482611
-0.00328511
-0.00222401
-0.00149789
-0.0010043
-0.000671377
-0.000449157
-0.000303323
-0.000210749
-0.000156415
-0.000131344
-1437.12
-1427.5
-1408.47
-1380.46
-1344.09
-1300.13
-1249.47
-1193.11
-1132.1
-1067.5
-1000.36
-931.709
-862.51
-793.649
-725.923
-660.034
-596.579
-536.05
-478.834
-425.221
-375.404
-329.487
-287.5
-249.401
-215.09
-184.419
-157.2
-133.218
-112.236
-94.0089
-78.2829
-64.8079
-53.3399
-43.6456
-35.5053
-28.7152
-23.0886
-18.4565
-14.668
-11.5895
-9.10392
-7.10998
-5.52057
-4.26167
-3.27082
-2.49584
-1.89349
-1.42824
-1.0711
-0.798648
-0.592079
-0.436421
-0.319843
-0.233065
-0.168861
-0.121646
-0.0871337
-0.0620579
-0.0439474
-0.0309457
-0.021667
-0.0150847
-0.0104428
-0.00718861
-0.00492078
-0.0033497
-0.00226784
-0.00152748
-0.00102418
-0.000684691
-0.000458082
-0.000309362
-0.000214954
-0.000159542
-0.000133972
-1428.58
-1419.23
-1400.73
-1373.47
-1338.03
-1295.12
-1245.59
-1190.37
-1130.47
-1066.91
-1000.71
-932.882
-864.368
-796.053
-728.738
-663.132
-599.844
-539.38
-482.145
-428.442
-378.481
-332.38
-290.181
-251.854
-217.308
-186.402
-158.956
-134.757
-113.574
-95.1606
-79.2664
-65.641
-54.0402
-44.2297
-35.989
-29.1127
-23.413
-18.7195
-14.8797
-11.7587
-9.23834
-7.21603
-5.60371
-4.32642
-3.32093
-2.53438
-1.92294
-1.4506
-1.08798
-0.811311
-0.60152
-0.443418
-0.324997
-0.236839
-0.171608
-0.123633
-0.0885626
-0.0630794
-0.0446735
-0.0314587
-0.0220274
-0.0153364
-0.0106175
-0.00730925
-0.00500358
-0.00340621
-0.0023062
-0.00155337
-0.00104158
-0.00069635
-0.000465899
-0.000314653
-0.000218638
-0.000162282
-0.000136276
-1421.75
-1412.61
-1394.51
-1367.83
-1333.11
-1291.02
-1242.37
-1188.06
-1129.04
-1066.32
-1000.88
-933.725
-865.778
-797.922
-730.958
-665.6
-602.466
-542.074
-484.838
-431.076
-381.007
-334.765
-292.4
-253.891
-219.156
-188.059
-160.427
-136.05
-114.7
-96.1322
-80.0979
-66.3467
-54.6343
-44.7262
-36.4006
-29.4516
-23.6899
-18.9442
-15.0608
-11.9037
-9.35359
-7.30706
-5.67513
-4.38209
-3.36405
-2.56756
-1.94832
-1.46989
-1.10255
-0.822246
-0.609677
-0.449466
-0.329454
-0.240104
-0.173985
-0.125354
-0.0898008
-0.063965
-0.0453032
-0.0319038
-0.0223402
-0.0155549
-0.0107693
-0.00741405
-0.00507553
-0.00345533
-0.00233954
-0.00157589
-0.00105672
-0.000706494
-0.000472702
-0.000319259
-0.000221846
-0.000164669
-0.000138283
-1416.29
-1407.31
-1389.53
-1363.3
-1329.13
-1287.68
-1239.73
-1186.13
-1127.81
-1065.76
-1000.94
-934.326
-866.845
-799.37
-732.702
-667.559
-604.564
-544.242
-487.018
-433.217
-383.071
-336.721
-294.226
-255.573
-220.686
-189.436
-161.651
-137.129
-115.641
-96.9468
-80.7963
-66.9406
-55.1352
-45.1453
-36.7487
-29.7385
-23.9248
-19.135
-15.2147
-12.027
-9.45177
-7.38467
-5.73608
-4.42965
-3.40091
-2.59595
-1.97005
-1.48642
-1.11504
-0.831627
-0.61668
-0.454661
-0.333285
-0.242911
-0.17603
-0.126835
-0.0908669
-0.0647278
-0.0458458
-0.0322875
-0.0226099
-0.0157434
-0.0109003
-0.00750451
-0.00513766
-0.00349775
-0.00236835
-0.00159535
-0.0010698
-0.000715265
-0.000478586
-0.000323243
-0.000224622
-0.000166734
-0.000140021
-1411.94
-1403.08
-1385.54
-1359.66
-1325.93
-1284.98
-1237.57
-1184.53
-1126.77
-1065.25
-1000.92
-934.75
-867.649
-800.489
-734.069
-669.109
-606.236
-545.98
-488.774
-434.951
-384.749
-338.317
-295.721
-256.954
-221.946
-190.572
-162.665
-138.024
-116.425
-97.6256
-81.3794
-67.4372
-55.5548
-45.497
-37.0412
-29.98
-24.1226
-19.2959
-15.3448
-12.1313
-9.53486
-7.45042
-5.78777
-4.47001
-3.43222
-2.62009
-1.98854
-1.50049
-1.12568
-0.839623
-0.622652
-0.459094
-0.336556
-0.24531
-0.177779
-0.128102
-0.0917789
-0.0653807
-0.0463104
-0.0326161
-0.022841
-0.015905
-0.0110126
-0.0075821
-0.00519096
-0.00353416
-0.00239308
-0.00161206
-0.00108104
-0.0007228
-0.000483642
-0.000326667
-0.000227009
-0.00016851
-0.000141515
-1408.48
-1399.72
-1382.37
-1356.76
-1323.36
-1282.8
-1235.81
-1183.21
-1125.89
-1064.8
-1000.87
-935.046
-868.253
-801.351
-735.137
-670.33
-607.562
-547.368
-490.183
-436.348
-386.106
-339.612
-296.938
-258.082
-222.978
-191.505
-163.5
-138.763
-117.072
-98.1876
-81.8631
-67.85
-55.9041
-45.7902
-37.2854
-30.1819
-24.2882
-19.4309
-15.4539
-12.2189
-9.60473
-7.50577
-5.83131
-4.50404
-3.45865
-2.64048
-2.00416
-1.51239
-1.13468
-0.846395
-0.627714
-0.462854
-0.339331
-0.247346
-0.179263
-0.129178
-0.0925542
-0.065936
-0.0467056
-0.0328958
-0.0230378
-0.0160426
-0.0111082
-0.00764823
-0.00523641
-0.00356522
-0.00241418
-0.00162632
-0.00109063
-0.000729233
-0.00048796
-0.000329593
-0.000229047
-0.000170028
-0.000142792
-1405.74
-1397.05
-1379.85
-1354.44
-1321.31
-1281.05
-1234.39
-1182.14
-1125.17
-1064.4
-1000.79
-935.251
-868.706
-802.013
-735.968
-671.29
-608.611
-548.47
-491.308
-437.468
-387.198
-340.658
-297.924
-258.998
-223.818
-192.267
-164.183
-139.369
-117.604
-98.6503
-82.262
-68.1909
-56.1931
-46.0331
-37.4881
-30.3496
-24.426
-19.5432
-15.5448
-12.2921
-9.66312
-7.55206
-5.86777
-4.53256
-3.48081
-2.65758
-2.01729
-1.52239
-1.14226
-0.852095
-0.631976
-0.466021
-0.34167
-0.249063
-0.180516
-0.130086
-0.0932091
-0.0664052
-0.0470398
-0.0331324
-0.0232043
-0.016159
-0.0111892
-0.00770424
-0.00527491
-0.00359153
-0.00243206
-0.00163841
-0.00109877
-0.00073469
-0.000491623
-0.000332075
-0.000230778
-0.000171317
-0.000143876
-1403.57
-1394.94
-1377.85
-1352.6
-1319.67
-1279.65
-1233.25
-1181.27
-1124.57
-1064.07
-1000.7
-935.389
-869.044
-802.52
-736.612
-672.04
-609.437
-549.343
-492.203
-438.361
-388.072
-341.498
-298.718
-259.738
-224.499
-192.885
-164.738
-139.862
-118.038
-99.0289
-82.589
-68.4709
-56.4307
-46.2332
-37.6552
-30.4881
-24.5399
-19.6362
-15.6202
-12.3527
-9.7116
-7.59054
-5.8981
-4.5563
-3.49928
-2.67185
-2.02824
-1.53074
-1.14859
-0.856861
-0.635542
-0.468673
-0.34363
-0.250503
-0.181567
-0.130848
-0.0937588
-0.0667992
-0.0473205
-0.0333312
-0.0233442
-0.016257
-0.0112574
-0.00775138
-0.00530732
-0.00361369
-0.00244713
-0.00164859
-0.00110562
-0.000739291
-0.000494713
-0.000334169
-0.000232239
-0.000172404
-0.000144792
-1401.86
-1393.28
-1376.27
-1351.15
-1318.38
-1278.54
-1232.34
-1180.56
-1124.08
-1063.78
-1000.61
-935.481
-869.295
-802.907
-737.111
-672.625
-610.085
-550.031
-492.91
-439.071
-388.769
-342.169
-299.354
-260.332
-225.047
-193.384
-165.187
-140.262
-118.391
-99.3369
-82.8554
-68.6993
-56.6249
-46.397
-37.7921
-30.6017
-24.6335
-19.7127
-15.6823
-12.4028
-9.75161
-7.62231
-5.92317
-4.57595
-3.51457
-2.68367
-2.03732
-1.53767
-1.15384
-0.860821
-0.638507
-0.470879
-0.345262
-0.251701
-0.182442
-0.131484
-0.0942173
-0.0671279
-0.0475548
-0.0334972
-0.0234612
-0.0163389
-0.0113144
-0.0077908
-0.00533444
-0.00363223
-0.00245974
-0.00165712
-0.00111136
-0.000743145
-0.000497301
-0.000335924
-0.000233463
-0.000173316
-0.000145559
-1400.52
-1391.97
-1375.03
-1350.01
-1317.35
-1277.66
-1231.61
-1180
-1123.68
-1063.55
-1000.53
-935.541
-869.481
-803.202
-737.495
-673.08
-610.591
-550.571
-493.468
-439.632
-389.321
-342.703
-299.861
-260.807
-225.486
-193.785
-165.548
-140.585
-118.676
-99.5859
-83.0712
-68.8846
-56.7827
-46.5302
-37.9037
-30.6944
-24.71
-19.7753
-15.7331
-12.4437
-9.78441
-7.6484
-5.94376
-4.5921
-3.52715
-2.69341
-2.04481
-1.54339
-1.15818
-0.864092
-0.640958
-0.472704
-0.346611
-0.252694
-0.183167
-0.13201
-0.0945973
-0.0674005
-0.0477492
-0.033635
-0.0235583
-0.0164069
-0.0113617
-0.00782356
-0.00535698
-0.00364765
-0.00247023
-0.00166422
-0.00111614
-0.000746354
-0.000499457
-0.000337386
-0.000234483
-0.000174076
-0.000146199
-1399.47
-1390.95
-1374.06
-1349.11
-1316.55
-1276.96
-1231.03
-1179.55
-1123.36
-1063.35
-1000.45
-935.579
-869.619
-803.425
-737.79
-673.432
-610.985
-550.993
-493.905
-440.074
-389.757
-343.125
-300.264
-261.185
-225.835
-194.104
-165.837
-140.843
-118.904
-99.7862
-83.245
-69.0341
-56.9101
-46.6379
-37.9941
-30.7696
-24.772
-19.8261
-15.7744
-12.4771
-9.81115
-7.66968
-5.96058
-4.6053
-3.53744
-2.70138
-2.05094
-1.54807
-1.16174
-0.866776
-0.64297
-0.474202
-0.34772
-0.25351
-0.183764
-0.132444
-0.0949103
-0.0676252
-0.0479095
-0.0337486
-0.0236383
-0.016463
-0.0114008
-0.00785062
-0.0053756
-0.0036604
-0.0024789
-0.00167009
-0.0011201
-0.000749008
-0.000501241
-0.000338596
-0.000235328
-0.000174706
-0.000146729
-1398.66
-1390.15
-1373.3
-1348.41
-1315.92
-1276.41
-1230.58
-1179.19
-1123.1
-1063.19
-1000.39
-935.602
-869.72
-803.594
-738.016
-673.703
-611.29
-551.322
-494.247
-440.42
-390.1
-343.458
-300.581
-261.484
-226.113
-194.358
-166.067
-141.049
-119.087
-99.9463
-83.3842
-69.1539
-57.0125
-46.7245
-38.0668
-30.8302
-24.8221
-19.8672
-15.8078
-12.5041
-9.83281
-7.68693
-5.97423
-4.61602
-3.5458
-2.70786
-2.05593
-1.55189
-1.16464
-0.868965
-0.644611
-0.475426
-0.348627
-0.254177
-0.184252
-0.132798
-0.0951665
-0.0678091
-0.0480408
-0.0338418
-0.023704
-0.016509
-0.0114328
-0.00787282
-0.00539089
-0.00367086
-0.00248602
-0.00167491
-0.00112334
-0.000751191
-0.000502708
-0.000339591
-0.000236022
-0.000175223
-0.000147165
-1398.02
-1389.53
-1372.71
-1347.86
-1315.43
-1275.99
-1230.22
-1178.91
-1122.9
-1063.07
-1000.34
-935.615
-869.794
-803.722
-738.188
-673.911
-611.526
-551.576
-494.513
-440.689
-390.367
-343.718
-300.831
-261.719
-226.331
-194.559
-166.249
-141.212
-119.231
-100.074
-83.4949
-69.2495
-57.0941
-46.7938
-38.125
-30.8787
-24.8622
-19.9001
-15.8347
-12.5258
-9.85025
-7.70083
-5.98523
-4.62467
-3.55256
-2.7131
-2.05996
-1.55498
-1.16699
-0.870739
-0.645943
-0.476419
-0.349362
-0.254718
-0.184648
-0.133087
-0.0953749
-0.0679589
-0.0481477
-0.0339176
-0.0237575
-0.0165465
-0.011459
-0.00789094
-0.00540337
-0.0036794
-0.00249184
-0.00167885
-0.001126
-0.000752974
-0.000503906
-0.000340405
-0.00023659
-0.000175647
-0.000147522
-1397.53
-1389.05
-1372.25
-1347.44
-1315.05
-1275.65
-1229.95
-1178.69
-1122.74
-1062.96
-1000.29
-935.621
-869.848
-803.817
-738.319
-674.071
-611.707
-551.773
-494.718
-440.899
-390.576
-343.921
-301.026
-261.903
-226.502
-194.717
-166.392
-141.341
-119.346
-100.174
-83.5826
-69.3252
-57.1589
-46.8488
-38.1712
-30.9173
-24.8942
-19.9264
-15.8561
-12.5432
-9.8642
-7.71197
-5.99405
-4.63161
-3.55798
-2.71731
-2.06321
-1.55746
-1.16888
-0.872168
-0.647016
-0.47722
-0.349956
-0.255156
-0.184969
-0.13332
-0.0955434
-0.0680799
-0.0482342
-0.033979
-0.0238008
-0.0165769
-0.0114802
-0.00790562
-0.00541348
-0.00368633
-0.00249656
-0.00168204
-0.00112815
-0.000754422
-0.00050488
-0.000341066
-0.000237052
-0.000175991
-0.000147812
-1397.15
-1388.68
-1371.9
-1347.11
-1314.75
-1275.4
-1229.73
-1178.52
-1122.61
-1062.88
-1000.25
-935.624
-869.887
-803.889
-738.418
-674.192
-611.846
-551.923
-494.876
-441.06
-390.737
-344.079
-301.177
-262.046
-226.636
-194.84
-166.504
-141.441
-119.435
-100.253
-83.6516
-69.3849
-57.2101
-46.8922
-38.2078
-30.9479
-24.9196
-19.9473
-15.8732
-12.557
-9.8753
-7.72083
-6.00108
-4.63715
-3.56231
-2.72067
-2.0658
-1.55945
-1.17039
-0.873312
-0.647876
-0.477861
-0.350432
-0.255507
-0.185226
-0.133507
-0.0956788
-0.0681773
-0.0483037
-0.0340284
-0.0238357
-0.0166014
-0.0114972
-0.00791745
-0.00542164
-0.00369192
-0.00250036
-0.00168462
-0.00112989
-0.00075559
-0.000505666
-0.0003416
-0.000237425
-0.000176269
-0.000148046
-1396.86
-1388.4
-1371.63
-1346.86
-1314.52
-1275.2
-1229.56
-1178.39
-1122.51
-1062.82
-1000.22
-935.624
-869.916
-803.942
-738.493
-674.284
-611.951
-552.039
-494.998
-441.184
-390.861
-344.201
-301.294
-262.157
-226.74
-194.935
-166.592
-141.52
-119.505
-100.315
-83.7056
-69.4316
-57.2502
-46.9263
-38.2366
-30.972
-24.9396
-19.9637
-15.8866
-12.5679
-9.88408
-7.72785
-6.00665
-4.64154
-3.56574
-2.72334
-2.06786
-1.56103
-1.17159
-0.874222
-0.64856
-0.478373
-0.350812
-0.255787
-0.185431
-0.133656
-0.0957869
-0.0682551
-0.0483593
-0.0340679
-0.0238636
-0.0166209
-0.0115109
-0.00792692
-0.00542816
-0.00369639
-0.00250341
-0.00168669
-0.00113129
-0.000756527
-0.000506296
-0.000342028
-0.000237724
-0.000176492
-0.000148234
-1396.64
-1388.18
-1371.42
-1346.67
-1314.35
-1275.05
-1229.43
-1178.28
-1122.43
-1062.77
-1000.2
-935.622
-869.936
-803.982
-738.549
-674.354
-612.031
-552.127
-495.091
-441.279
-390.956
-344.294
-301.384
-262.243
-226.82
-195.009
-166.659
-141.581
-119.56
-100.363
-83.7476
-69.468
-57.2815
-46.953
-38.2591
-30.9908
-24.9552
-19.9766
-15.8972
-12.5764
-9.89098
-7.73336
-6.01103
-4.64499
-3.56845
-2.72545
-2.06949
-1.56228
-1.17254
-0.874942
-0.649102
-0.478778
-0.351112
-0.256009
-0.185593
-0.133775
-0.0958727
-0.0683168
-0.0484035
-0.0340993
-0.0238858
-0.0166365
-0.0115218
-0.00793446
-0.00543336
-0.00369996
-0.00250584
-0.00168833
-0.0011324
-0.000757274
-0.000506799
-0.000342369
-0.000237963
-0.000176671
-0.000148384
-1396.47
-1388.02
-1371.27
-1346.52
-1314.22
-1274.93
-1229.34
-1178.2
-1122.37
-1062.73
-1000.18
-935.62
-869.951
-804.011
-738.591
-674.406
-612.092
-552.193
-495.161
-441.352
-391.029
-344.365
-301.453
-262.308
-226.881
-195.066
-166.711
-141.628
-119.602
-100.4
-83.7801
-69.4963
-57.3057
-46.9737
-38.2766
-31.0055
-24.9674
-19.9867
-15.9054
-12.5831
-9.89637
-7.73768
-6.01446
-4.6477
-3.57057
-2.7271
-2.07076
-1.56326
-1.17329
-0.875508
-0.649528
-0.479096
-0.351349
-0.256183
-0.185722
-0.133868
-0.0959404
-0.0683655
-0.0484383
-0.0341241
-0.0239033
-0.0166488
-0.0115304
-0.00794042
-0.00543747
-0.00370278
-0.00250776
-0.00168964
-0.00113328
-0.000757866
-0.000507197
-0.00034264
-0.000238152
-0.000176812
-0.000148503
-1396.34
-1387.89
-1371.15
-1346.41
-1314.12
-1274.84
-1229.26
-1178.14
-1122.33
-1062.7
-1000.16
-935.618
-869.961
-804.033
-738.622
-674.446
-612.138
-552.243
-495.214
-441.407
-391.084
-344.42
-301.506
-262.358
-226.928
-195.11
-166.751
-141.664
-119.634
-100.429
-83.8052
-69.518
-57.3244
-46.9896
-38.2901
-31.0168
-24.9768
-19.9945
-15.9118
-12.5883
-9.90055
-7.74103
-6.01713
-4.6498
-3.57222
-2.72838
-2.07176
-1.56402
-1.17388
-0.875951
-0.649861
-0.479345
-0.351534
-0.25632
-0.185822
-0.133942
-0.0959935
-0.0684038
-0.0484657
-0.0341436
-0.0239171
-0.0166585
-0.0115371
-0.00794511
-0.00544071
-0.00370499
-0.00250927
-0.00169066
-0.00113397
-0.000758332
-0.000507511
-0.000342853
-0.000238301
-0.000176923
-0.000148597
-1396.25
-1387.8
-1371.06
-1346.32
-1314.04
-1274.77
-1229.2
-1178.1
-1122.29
-1062.68
-1000.15
-935.616
-869.969
-804.049
-738.646
-674.475
-612.172
-552.281
-495.254
-441.448
-391.125
-344.461
-301.546
-262.396
-226.964
-195.143
-166.781
-141.691
-119.659
-100.45
-83.8243
-69.5346
-57.3388
-47.0019
-38.3005
-31.0255
-24.9841
-20.0005
-15.9167
-12.5923
-9.90379
-7.74363
-6.01919
-4.65144
-3.5735
-2.72938
-2.07253
-1.56462
-1.17433
-0.876294
-0.65012
-0.479539
-0.351679
-0.256427
-0.1859
-0.133999
-0.0960349
-0.0684336
-0.048487
-0.0341588
-0.0239278
-0.016666
-0.0115424
-0.00794877
-0.00544324
-0.00370673
-0.00251046
-0.00169147
-0.00113451
-0.000758696
-0.000507757