/*--------------------------------*- C++ -*----------------------------------*\
  =========                 |
  \\      /  F ield         | OpenFOAM: The Open Source CFD Toolbox
   \\    /   O peration     | Website:  https://openfoam.org
    \\  /    A nd           | Version:  10
     \\/     M anipulation  |
\*---------------------------------------------------------------------------*/
FoamFile
{
    format      ascii;
    class       volScalarField;
    location    "367";
    object      T;
}
// * * * * * * * * * * * * * * * * * * * * * * * * * * * * * * * * * * * * * //

dimensions      [0 0 0 1 0 0 0];

internalField   nonuniform List<scalar> 
11250
(
249.855
167.595
139.423
127.032
120.281
116.006
113.02
110.796
109.065
107.674
106.531
105.576
104.769
104.08
103.489
102.98
102.541
102.161
101.833
101.55
101.306
101.097
100.918
100.765
100.634
100.524
100.431
100.353
100.288
100.233
100.188
100.151
100.121
100.096
100.076
100.06
100.047
100.037
100.028
100.022
100.017
100.013
100.01
100.007
100.006
100.004
100.003
100.002
100.002
100.001
100.001
100.001
100
100
100
100
100
100
100
100
100
100
100
100
100
100
100
100
100
100
100
100
100
100
100
331.538
248.702
202.498
175.468
158.382
146.745
138.318
131.917
126.877
122.799
119.432
116.609
114.216
112.171
110.413
108.898
107.588
106.456
105.478
104.633
103.905
103.28
102.744
102.286
101.897
101.567
101.289
101.055
100.86
100.698
100.563
100.452
100.362
100.288
100.228
100.179
100.14
100.109
100.085
100.065
100.05
100.038
100.029
100.022
100.016
100.012
100.009
100.007
100.005
100.004
100.003
100.002
100.001
100.001
100.001
100
100
100
100
100
100
100
100
100
100
100
100
100
100
100
100
100
100
100
100
359.138
293.193
246.424
213.996
191.077
174.327
161.649
151.744
143.799
137.29
131.867
127.292
123.396
120.055
117.176
114.688
112.534
110.67
109.057
107.663
106.462
105.428
104.543
103.786
103.142
102.596
102.136
101.749
101.425
101.156
100.933
100.75
100.599
100.477
100.377
100.297
100.233
100.181
100.141
100.108
100.083
100.063
100.048
100.036
100.027
100.02
100.015
100.011
100.008
100.006
100.004
100.003
100.002
100.002
100.001
100.001
100.001
100
100
100
100
100
100
100
100
100
100
100
100
100
100
100
100
100
100
370.965
318.536
276.051
243.075
217.677
197.927
182.306
169.721
159.405
150.819
143.586
137.432
132.157
127.612
123.681
120.273
117.317
114.753
112.531
110.609
108.95
107.522
106.297
105.249
104.358
103.602
102.964
102.427
101.979
101.605
101.296
101.041
100.832
100.662
100.524
100.413
100.323
100.252
100.195
100.151
100.116
100.088
100.067
100.051
100.038
100.028
100.021
100.016
100.011
100.008
100.006
100.004
100.003
100.002
100.002
100.001
100.001
100.001
100
100
100
100
100
100
100
100
100
100
100
100
100
100
100
100
100
377.165
333.971
296.228
264.656
238.734
217.518
200.067
185.584
173.445
163.173
154.408
146.88
140.378
134.744
129.848
125.589
121.884
118.662
115.865
113.441
111.346
109.54
107.99
106.664
105.534
104.576
103.766
103.085
102.516
102.041
101.648
101.325
101.059
100.843
100.667
100.525
100.412
100.321
100.249
100.192
100.147
100.112
100.085
100.064
100.048
100.036
100.027
100.02
100.015
100.011
100.008
100.006
100.004
100.003
100.002
100.001
100.001
100.001
100.001
100
100
100
100
100
100
100
100
100
100
100
100
100
100
100
100
380.903
344
310.31
280.694
255.214
233.501
215.036
199.3
185.829
174.242
164.228
155.538
147.974
141.377
135.615
130.583
126.19
122.36
119.027
116.134
113.629
111.468
109.61
108.019
106.662
105.51
104.537
103.718
103.032
102.461
101.988
101.598
101.278
101.017
100.805
100.634
100.497
100.387
100.3
100.232
100.178
100.136
100.103
100.078
100.058
100.044
100.032
100.024
100.018
100.013
100.009
100.007
100.005
100.003
100.002
100.002
100.001
100.001
100.001
100
100
100
100
100
100
100
100
100
100
100
100
100
100
100
100
383.37
350.873
320.408
292.724
268.085
246.423
227.493
210.986
196.587
184.01
173.005
163.359
154.895
147.464
140.941
135.218
130.205
125.821
121.996
118.669
115.783
113.29
111.144
109.305
107.734
106.4
105.271
104.321
103.526
102.862
102.313
101.859
101.487
101.184
100.937
100.738
100.579
100.451
100.35
100.27
100.207
100.158
100.12
100.091
100.068
100.051
100.038
100.028
100.021
100.015
100.011
100.008
100.006
100.004
100.003
100.002
100.001
100.001
100.001
100
100
100
100
100
100
100
100
100
100
100
100
100
100
100
100
385.095
355.779
327.832
301.858
278.165
256.832
237.778
220.84
205.823
192.523
180.751
170.335
161.124
152.985
145.801
139.472
133.906
129.024
124.754
121.031
117.796
114.997
112.584
110.513
108.744
107.239
105.965
104.892
103.992
103.243
102.621
102.107
101.686
101.342
101.063
100.838
100.656
100.512
100.397
100.306
100.235
100.18
100.136
100.103
100.077
100.058
100.043
100.032
100.023
100.017
100.012
100.009
100.006
100.005
100.003
100.002
100.002
100.001
100.001
100.001
100
100
100
100
100
100
100
100
100
100
100
100
100
100
100
386.349
359.392
333.407
308.876
286.098
265.211
246.231
229.091
213.681
199.867
187.515
176.49
166.669
157.936
150.19
143.334
137.283
131.959
127.29
123.211
119.659
116.581
113.923
111.64
109.686
108.023
106.614
105.427
104.431
103.6
102.91
102.341
101.874
101.492
101.182
100.931
100.73
100.569
100.442
100.341
100.262
100.2
100.152
100.115
100.086
100.064
100.048
100.035
100.026
100.019
100.014
100.01
100.007
100.005
100.004
100.003
100.002
100.001
100.001
100.001
100
100
100
100
100
100
100
100
100
100
100
100
100
100
100
387.287
362.114
337.666
314.329
292.376
271.964
253.162
235.964
220.321
206.154
193.37
181.87
171.557
162.335
154.113
146.807
140.335
134.624
129.602
125.204
121.368
118.037
115.158
112.68
110.559
108.751
107.218
105.924
104.839
103.933
103.181
102.559
102.049
101.632
101.293
101.019
100.799
100.623
100.484
100.373
100.287
100.219
100.166
100.126
100.094
100.071
100.052
100.039
100.029
100.021
100.015
100.011
100.008
100.006
100.004
100.003
100.002
100.001
100.001
100.001
100
100
100
100
100
100
100
100
100
100
100
100
100
100
100
388.002
364.201
340.964
318.606
297.369
277.415
258.837
241.67
225.903
211.499
198.399
186.534
175.829
166.207
157.59
149.901
143.069
137.021
131.69
127.01
122.922
119.365
116.286
113.634
111.359
109.42
107.773
106.383
105.216
104.241
103.431
102.762
102.211
101.762
101.396
101.101
100.863
100.674
100.523
100.404
100.31
100.237
100.18
100.136
100.102
100.076
100.057
100.042
100.031
100.023
100.016
100.012
100.009
100.006
100.004
100.003
100.002
100.002
100.001
100.001
100.001
100
100
100
100
100
100
100
100
100
100
100
100
100
100
388.556
365.823
343.545
321.986
301.36
281.824
263.482
246.393
230.575
216.018
202.692
190.549
179.536
169.589
160.645
152.636
145.496
139.159
133.559
128.634
124.322
120.566
117.309
114.5
112.089
110.03
108.281
106.804
105.562
104.524
103.661
102.948
102.361
101.882
101.492
101.176
100.923
100.72
100.559
100.432
100.331
100.253
100.192
100.145
100.109
100.082
100.061
100.045
100.033
100.024
100.018
100.013
100.009
100.007
100.005
100.003
100.002
100.002
100.001
100.001
100.001
100
100
100
100
100
100
100
100
100
100
100
100
100
100
388.989
367.096
345.583
324.674
304.561
285.395
267.282
250.296
234.472
219.822
206.335
193.984
182.728
172.521
163.309
155.034
147.635
141.051
135.22
130.082
125.575
121.643
118.23
115.281
112.748
110.583
108.742
107.186
105.877
104.782
103.871
103.118
102.498
101.992
101.579
101.246
100.977
100.763
100.592
100.457
100.351
100.268
100.204
100.154
100.116
100.087
100.064
100.048
100.035
100.026
100.019
100.014
100.01
100.007
100.005
100.004
100.002
100.002
100.001
100.001
100.001
100
100
100
100
100
100
100
100
100
100
100
100
100
100
389.331
368.103
347.201
326.822
307.138
288.291
270.39
253.515
237.713
223.011
209.412
196.904
185.461
175.047
165.617
157.121
149.505
142.713
136.685
131.362
126.687
122.602
119.051
115.98
113.339
111.08
109.157
107.53
106.161
105.015
104.062
103.272
102.623
102.091
101.659
101.309
101.027
100.802
100.623
100.481
100.369
100.282
100.215
100.162
100.122
100.091
100.068
100.05
100.037
100.027
100.02
100.014
100.01
100.007
100.005
100.004
100.003
100.002
100.001
100.001
100.001
100
100
100
100
100
100
100
100
100
100
100
100
100
100
389.602
368.904
348.492
328.544
309.215
290.642
272.931
256.165
240.4
225.673
211.999
199.375
187.788
177.209
167.602
158.926
151.129
144.161
137.966
132.487
127.667
123.449
119.779
116.601
113.865
111.522
109.528
107.839
106.416
105.225
104.233
103.411
102.735
102.181
101.731
101.366
101.072
100.837
100.65
100.502
100.386
100.295
100.224
100.17
100.127
100.095
100.071
100.052
100.039
100.028
100.021
100.015
100.011
100.008
100.005
100.004
100.003
100.002
100.001
100.001
100.001
100
100
100
100
100
100
100
100
100
100
100
100
100
100
389.819
369.544
349.526
329.928
310.893
292.551
275.006
258.342
242.623
227.889
214.164
201.456
189.757
179.048
169.3
160.476
152.53
145.416
139.08
133.468
128.524
124.192
120.418
117.148
114.33
111.915
109.857
108.112
106.643
105.411
104.385
103.536
102.835
102.262
101.795
101.417
101.113
100.869
100.675
100.522
100.401
100.306
100.233
100.176
100.132
100.099
100.074
100.055
100.04
100.029
100.021
100.015
100.011
100.008
100.006
100.004
100.003
100.002
100.001
100.001
100.001
100
100
100
100
100
100
100
100
100
100
100
100
100
100
389.992
370.056
350.356
331.042
312.25
294.101
276.699
260.129
244.456
229.726
215.969
203.2
191.416
180.605
170.743
161.799
153.731
146.495
140.042
134.317
129.268
124.84
120.977
117.627
114.737
112.259
110.146
108.354
106.843
105.577
104.521
103.646
102.925
102.334
101.852
101.463
101.149
100.897
100.697
100.539
100.414
100.317
100.241
100.182
100.137
100.102
100.076
100.056
100.042
100.03
100.022
100.016
100.012
100.008
100.006
100.004
100.003
100.002
100.001
100.001
100.001
100
100
100
100
100
100
100
100
100
100
100
100
100
100
390.131
370.467
351.023
331.94
313.346
295.359
278.08
261.592
245.964
231.245
217.469
204.654
192.806
181.915
171.964
162.922
154.754
147.418
140.866
135.048
129.91
125.4
121.462
118.043
115.093
112.56
110.399
108.566
107.019
105.722
104.64
103.743
103.003
102.397
101.903
101.503
101.181
100.922
100.717
100.554
100.426
100.326
100.248
100.187
100.141
100.105
100.078
100.058
100.043
100.031
100.023
100.016
100.012
100.009
100.006
100.004
100.003
100.002
100.001
100.001
100.001
100
100
100
100
100
100
100
100
100
100
100
100
100
100
390.242
370.797
351.559
332.663
314.232
296.379
279.203
262.787
247.201
232.496
218.709
205.863
193.966
183.013
172.989
163.87
155.62
148.202
141.569
135.673
130.461
125.881
121.879
118.403
115.4
112.821
110.619
108.75
107.173
105.849
104.744
103.828
103.072
102.453
101.948
101.539
101.209
100.945
100.734
100.568
100.436
100.334
100.254
100.192
100.144
100.108
100.08
100.06
100.044
100.032
100.023
100.017
100.012
100.009
100.006
100.004
100.003
100.002
100.002
100.001
100.001
100
100
100
100
100
100
100
100
100
100
100
100
100
100
390.331
371.061
351.99
333.246
314.947
297.205
280.115
263.761
248.212
233.523
219.732
206.863
194.929
183.928
173.848
164.665
156.35
148.864
142.165
136.203
130.93
126.292
122.237
118.711
115.664
113.046
110.809
108.909
107.305
105.959
104.835
103.902
103.132
102.501
101.987
101.57
101.233
100.964
100.749
100.579
100.446
100.341
100.259
100.196
100.148
100.11
100.082
100.061
100.045
100.033
100.024
100.017
100.012
100.009
100.006
100.005
100.003
100.002
100.002
100.001
100.001
100.001
100
100
100
100
100
100
100
100
100
100
100
100
100
390.403
371.274
352.336
333.715
315.524
297.872
280.854
264.553
249.038
234.364
220.571
207.687
195.726
184.687
174.562
165.329
156.961
149.42
142.666
136.651
131.327
126.641
122.54
118.974
115.89
113.238
110.972
109.046
107.419
106.053
104.913
103.966
103.184
102.543
102.02
101.597
101.255
100.981
100.763
100.59
100.454
100.347
100.264
100.2
100.15
100.112
100.084
100.062
100.046
100.033
100.024
100.018
100.013
100.009
100.006
100.005
100.003
100.002
100.002
100.001
100.001
100.001
100
100
100
100
100
100
100
100
100
100
100
100
100
390.46
371.444
352.614
334.091
315.988
298.411
281.452
265.195
249.709
235.049
221.258
208.363
196.381
185.314
175.153
165.881
157.469
149.885
143.086
137.028
131.661
126.935
122.797
119.197
116.081
113.402
111.111
109.163
107.517
106.134
104.979
104.021
103.229
102.579
102.05
101.62
101.273
100.995
100.774
100.599
100.46
100.352
100.268
100.203
100.153
100.114
100.085
100.063
100.046
100.034
100.025
100.018
100.013
100.009
100.007
100.005
100.003
100.002
100.002
100.001
100.001
100.001
100
100
100
100
100
100
100
100
100
100
100
100
100
390.506
371.58
352.837
334.393
316.361
298.844
281.934
265.714
250.253
235.606
221.817
208.916
196.918
185.828
175.64
166.336
157.891
150.271
143.436
137.342
131.94
127.181
123.013
119.384
116.243
113.54
111.228
109.262
107.6
106.203
105.036
104.067
103.267
102.61
102.074
101.64
101.289
101.008
100.784
100.606
100.466
100.357
100.272
100.205
100.155
100.116
100.086
100.064
100.047
100.034
100.025
100.018
100.013
100.009
100.007
100.005
100.003
100.002
100.002
100.001
100.001
100.001
100
100
100
100
100
100
100
100
100
100
100
100
100
390.543
371.689
353.015
334.635
316.66
299.192
282.322
266.132
250.692
236.057
222.272
209.365
197.356
186.25
176.04
166.711
158.238
150.589
143.725
137.602
132.173
127.387
123.193
119.541
116.378
113.656
111.326
109.345
107.67
106.261
105.084
104.107
103.299
102.636
102.095
101.657
101.302
101.019
100.792
100.613
100.471
100.361
100.275
100.208
100.156
100.117
100.087
100.065
100.048
100.035
100.025
100.018
100.013
100.009
100.007
100.005
100.003
100.002
100.002
100.001
100.001
100.001
100
100
100
100
100
100
100
100
100
100
100
100
100
390.572
371.776
353.157
334.828
316.899
299.47
282.633
266.468
251.045
236.421
222.639
209.73
197.712
186.592
176.366
167.017
158.523
150.851
143.963
137.817
132.365
127.557
123.343
119.671
116.491
113.753
111.409
109.415
107.728
106.31
105.125
104.14
103.327
102.659
102.113
101.671
101.314
101.028
100.799
100.618
100.476
100.364
100.277
100.21
100.158
100.118
100.088
100.065
100.048
100.035
100.026
100.019
100.013
100.01
100.007
100.005
100.003
100.002
100.002
100.001
100.001
100.001
100
100
100
100
100
100
100
100
100
100
100
100
100
390.595
371.845
353.27
334.982
317.089
299.692
282.881
266.737
251.329
236.713
222.934
210.024
198
186.87
176.631
167.267
158.755
151.065
144.159
137.993
132.523
127.697
123.466
119.779
116.584
113.833
111.477
109.473
107.777
106.351
105.159
104.168
103.349
102.677
102.128
101.683
101.323
101.035
100.805
100.623
100.479
100.367
100.279
100.211
100.159
100.119
100.089
100.066
100.048
100.035
100.026
100.019
100.013
100.01
100.007
100.005
100.003
100.002
100.002
100.001
100.001
100.001
100
100
100
100
100
100
100
100
100
100
100
100
100
390.614
371.9
353.359
335.104
317.241
299.869
283.079
266.952
251.556
236.947
223.172
210.26
198.232
187.094
176.845
167.469
158.943
151.239
144.318
138.137
132.652
127.812
123.568
119.867
116.661
113.899
111.534
109.521
107.817
106.385
105.187
104.191
103.368
102.692
102.141
101.693
101.331
101.041
100.81
100.627
100.482
100.369
100.281
100.213
100.16
100.12
100.089
100.066
100.049
100.036
100.026
100.019
100.014
100.01
100.007
100.005
100.003
100.002
100.002
100.001
100.001
100.001
100
100
100
100
100
100
100
100
100
100
100
100
100
390.628
371.943
353.43
335.2
317.36
300.009
283.236
267.122
251.736
237.134
223.361
210.449
198.417
187.274
177.017
167.631
159.096
151.38
144.446
138.254
132.757
127.906
123.65
119.94
116.724
113.953
111.58
109.56
107.851
106.412
105.21
104.21
103.384
102.705
102.151
101.701
101.338
101.047
100.814
100.63
100.485
100.371
100.283
100.214
100.161
100.121
100.09
100.067
100.049
100.036
100.026
100.019
100.014
100.01
100.007
100.005
100.003
100.002
100.002
100.001
100.001
100.001
100
100
100
100
100
100
100
100
100
100
100
100
100
390.64
371.977
353.486
335.277
317.455
300.12
283.361
267.257
251.879
237.282
223.511
210.599
198.565
187.418
177.154
167.762
159.218
151.493
144.55
138.348
132.842
127.981
123.717
119.999
116.775
113.997
111.618
109.592
107.878
106.435
105.229
104.226
103.397
102.716
102.16
101.708
101.344
101.051
100.818
100.633
100.487
100.373
100.284
100.215
100.162
100.121
100.09
100.067
100.049
100.036
100.026
100.019
100.014
100.01
100.007
100.005
100.004
100.002
100.002
100.001
100.001
100.001
100
100
100
100
100
100
100
100
100
100
100
100
100
390.649
372.004
353.53
335.336
317.529
300.207
283.459
267.364
251.992
237.399
223.631
210.719
198.683
187.532
177.264
167.866
159.315
151.583
144.634
138.424
132.91
128.042
123.771
120.046
116.816
114.033
111.649
109.618
107.9
106.454
105.244
104.239
103.407
102.724
102.167
101.714
101.348
101.055
100.821
100.635
100.489
100.374
100.285
100.216
100.162
100.122
100.091
100.067
100.049
100.036
100.026
100.019
100.014
100.01
100.007
100.005
100.004
100.002
100.002
100.001
100.001
100.001
100
100
100
100
100
100
100
100
100
100
100
100
100
390.656
372.025
353.564
335.383
317.588
300.275
283.535
267.448
252.081
237.492
223.725
210.813
198.776
187.623
177.351
167.948
159.393
151.656
144.7
138.485
132.965
128.091
123.815
120.084
116.85
114.062
111.674
109.64
107.918
106.469
105.257
104.249
103.416
102.731
102.172
101.718
101.352
101.058
100.823
100.637
100.49
100.375
100.286
100.216
100.163
100.122
100.091
100.067
100.05
100.036
100.026
100.019
100.014
100.01
100.007
100.005
100.004
100.002
100.002
100.001
100.001
100.001
100
100
100
100
100
100
100
100
100
100
100
100
100
390.661
372.041
353.591
335.42
317.633
300.329
283.595
267.513
252.15
237.564
223.798
210.887
198.849
187.694
177.42
168.014
159.454
151.713
144.753
138.533
133.008
128.13
123.849
120.115
116.876
114.085
111.693
109.657
107.932
106.481
105.267
104.257
103.423
102.737
102.177
101.722
101.355
101.06
100.825
100.638
100.491
100.376
100.286
100.217
100.163
100.122
100.091
100.067
100.05
100.036
100.027
100.019
100.014
100.01
100.007
100.005
100.004
100.002
100.002
100.001
100.001
100.001
100
100
100
100
100
100
100
100
100
100
100
100
100
390.666
372.054
353.611
335.448
317.669
300.37
283.642
267.564
252.205
237.62
223.856
210.945
198.906
187.75
177.474
168.065
159.503
151.758
144.794
138.571
133.042
128.161
123.877
120.139
116.897
114.103
111.709
109.67
107.944
106.491
105.275
104.264
103.428
102.741
102.18
101.725
101.357
101.062
100.826
100.64
100.492
100.377
100.287
100.217
100.164
100.123
100.091
100.068
100.05
100.036
100.027
100.019
100.014
100.01
100.007
100.005
100.004
100.002
100.002
100.001
100.001
100.001
100
100
100
100
100
100
100
100
100
100
100
100
100
390.669
372.064
353.628
335.47
317.696
300.402
283.678
267.604
252.247
237.664
223.901
210.99
198.951
187.794
177.516
168.105
159.541
151.793
144.827
138.601
133.069
128.185
123.898
120.158
116.914
114.118
111.722
109.681
107.953
106.498
105.281
104.269
103.433
102.745
102.183
101.727
101.359
101.063
100.828
100.641
100.493
100.377
100.287
100.218
100.164
100.123
100.091
100.068
100.05
100.037
100.027
100.019
100.014
100.01
100.007
100.005
100.004
100.002
100.002
100.001
100.001
100.001
100
100
100
100
100
100
100
100
100
100
100
100
100
390.671
372.071
353.64
335.487
317.717
300.427
283.706
267.634
252.279
237.698
223.936
211.025
198.986
187.828
177.549
168.137
159.57
151.821
144.852
138.624
133.091
128.204
123.915
120.173
116.927
114.129
111.732
109.689
107.96
106.504
105.286
104.274
103.436
102.748
102.186
101.729
101.36
101.065
100.828
100.641
100.494
100.378
100.288
100.218
100.164
100.123
100.092
100.068
100.05
100.037
100.027
100.019
100.014
100.01
100.007
100.005
100.004
100.002
100.002
100.001
100.001
100.001
100
100
100
100
100
100
100
100
100
100
100
100
100
390.673
372.077
353.649
335.5
317.733
300.446
283.728
267.658
252.304
237.724
223.962
211.052
199.012
187.854
177.574
168.161
159.593
151.842
144.872
138.642
133.107
128.219
123.928
120.185
116.938
114.138
111.739
109.696
107.965
106.509
105.29
104.277
103.439
102.75
102.188
101.731
101.362
101.066
100.829
100.642
100.494
100.378
100.288
100.218
100.164
100.123
100.092
100.068
100.05
100.037
100.027
100.019
100.014
100.01
100.007
100.005
100.004
100.002
100.002
100.001
100.001
100.001
100
100
100
100
100
100
100
100
100
100
100
100
100
390.675
372.081
353.657
335.51
317.746
300.461
283.744
267.676
252.323
237.744
223.983
211.072
199.033
187.874
177.594
168.179
159.611
151.859
144.887
138.656
133.12
128.231
123.939
120.194
116.946
114.145
111.745
109.701
107.97
106.513
105.294
104.279
103.441
102.752
102.189
101.732
101.363
101.066
100.83
100.642
100.494
100.379
100.288
100.218
100.164
100.123
100.092
100.068
100.05
100.037
100.027
100.019
100.014
100.01
100.007
100.005
100.004
100.002
100.002
100.001
100.001
100.001
100
100
100
100
100
100
100
100
100
100
100
100
100
390.676
372.085
353.662
335.518
317.755
300.472
283.757
267.69
252.338
237.76
223.999
211.088
199.049
187.89
177.608
168.194
159.624
151.871
144.899
138.667
133.13
128.24
123.947
120.201
116.952
114.151
111.75
109.705
107.973
106.516
105.296
104.282
103.443
102.753
102.19
101.733
101.363
101.067
100.83
100.643
100.495
100.379
100.288
100.218
100.165
100.123
100.092
100.068
100.05
100.037
100.027
100.019
100.014
100.01
100.007
100.005
100.004
100.003
100.002
100.001
100.001
100.001
100
100
100
100
100
100
100
100
100
100
100
100
100
390.677
372.087
353.666
335.523
317.762
300.48
283.766
267.7
252.349
237.771
224.011
211.1
199.061
187.901
177.62
168.205
159.635
151.881
144.908
138.675
133.137
128.246
123.953
120.206
116.957
114.155
111.754
109.708
107.976
106.518
105.298
104.283
103.444
102.754
102.191
101.733
101.364
101.067
100.831
100.643
100.495
100.379
100.289
100.219
100.165
100.123
100.092
100.068
100.05
100.037
100.027
100.019
100.014
100.01
100.007
100.005
100.004
100.003
100.002
100.001
100.001
100.001
100
100
100
100
100
100
100
100
100
100
100
100
100
390.678
372.089
353.67
335.528
317.768
300.487
283.774
267.708
252.358
237.78
224.02
211.109
199.07
187.91
177.629
168.213
159.643
151.888
144.915
138.682
133.143
128.252
123.957
120.21
116.96
114.158
111.756
109.711
107.978
106.52
105.299
104.284
103.445
102.755
102.192
101.734
101.364
101.068
100.831
100.643
100.495
100.379
100.289
100.219
100.165
100.123
100.092
100.068
100.05
100.037
100.027
100.019
100.014
100.01
100.007
100.005
100.004
100.003
100.002
100.001
100.001
100.001
100
100
100
100
100
100
100
100
100
100
100
100
100
390.678
372.091
353.672
335.531
317.772
300.491
283.779
267.714
252.364
237.787
224.026
211.116
199.077
187.917
177.635
168.219
159.648
151.894
144.92
138.686
133.147
128.256
123.961
120.214
116.963
114.16
111.759
109.712
107.98
106.521
105.3
104.285
103.446
102.756
102.192
101.734
101.365
101.068
100.831
100.643
100.495
100.379
100.289
100.219
100.165
100.123
100.092
100.068
100.05
100.037
100.027
100.019
100.014
100.01
100.007
100.005
100.004
100.003
100.002
100.001
100.001
100.001
100
100
100
100
100
100
100
100
100
100
100
100
100
390.678
372.092
353.674
335.533
317.775
300.495
283.783
267.718
252.369
237.791
224.031
211.121
199.082
187.922
177.64
168.224
159.653
151.898
144.924
138.69
133.151
128.259
123.964
120.216
116.965
114.162
111.76
109.714
107.981
106.522
105.301
104.286
103.446
102.756
102.193
101.735
101.365
101.068
100.831
100.644
100.495
100.379
100.289
100.219
100.165
100.123
100.092
100.068
100.05
100.037
100.027
100.019
100.014
100.01
100.007
100.005
100.004
100.003
100.002
100.001
100.001
100.001
100
100
100
100
100
100
100
100
100
100
100
100
100
390.679
372.093
353.675
335.535
317.777
300.498
283.786
267.721
252.372
237.795
224.035
211.125
199.086
187.926
177.644
168.227
159.656
151.901
144.927
138.693
133.153
128.261
123.966
120.218
116.967
114.164
111.761
109.715
107.982
106.523
105.302
104.286
103.447
102.757
102.193
101.735
101.365
101.068
100.831
100.644
100.495
100.379
100.289
100.219
100.165
100.123
100.092
100.068
100.05
100.037
100.027
100.019
100.014
100.01
100.007
100.005
100.004
100.003
100.002
100.001
100.001
100.001
100
100
100
100
100
100
100
100
100
100
100
100
100
390.679
372.093
353.676
335.536
317.779
300.499
283.788
267.724
252.375
237.798
224.038
211.128
199.088
187.929
177.646
168.23
159.659
151.904
144.929
138.695
133.155
128.262
123.967
120.219
116.968
114.165
111.762
109.716
107.982
106.523
105.302
104.287
103.447
102.757
102.193
101.735
101.365
101.068
100.832
100.644
100.496
100.379
100.289
100.219
100.165
100.123
100.092
100.068
100.05
100.037
100.027
100.019
100.014
100.01
100.007
100.005
100.004
100.003
100.002
100.001
100.001
100.001
100
100
100
100
100
100
100
100
100
100
100
100
100
390.679
372.094
353.677
335.537
317.78
300.501
283.79
267.726
252.377
237.8
224.04
211.13
199.091
187.931
177.648
168.232
159.661
151.905
144.931
138.696
133.156
128.264
123.968
120.22
116.969
114.165
111.763
109.716
107.983
106.524
105.303
104.287
103.447
102.757
102.193
101.735
101.365
101.069
100.832
100.644
100.496
100.379
100.289
100.219
100.165
100.123
100.092
100.068
100.05
100.037
100.027
100.019
100.014
100.01
100.007
100.005
100.004
100.003
100.002
100.001
100.001
100.001
100
100
100
100
100
100
100
100
100
100
100
100
100
390.679
372.094
353.677
335.538
317.781
300.502
283.791
267.727
252.378
237.801
224.042
211.132
199.092
187.932
177.65
168.233
159.662
151.907
144.932
138.697
133.157
128.265
123.969
120.221
116.969
114.166
111.763
109.717
107.983
106.524
105.303
104.287
103.448
102.757
102.193
101.735
101.365
101.069
100.832
100.644
100.496
100.379
100.289
100.219
100.165
100.123
100.092
100.068
100.05
100.037
100.027
100.019
100.014
100.01
100.007
100.005
100.004
100.003
100.002
100.001
100.001
100.001
100
100
100
100
100
100
100
100
100
100
100
100
100
390.679
372.094
353.678
335.539
317.781
300.503
283.792
267.728
252.379
237.802
224.043
211.133
199.093
187.933
177.651
168.234
159.663
151.908
144.933
138.698
133.158
128.265
123.97
120.221
116.97
114.166
111.764
109.717
107.983
106.524
105.303
104.288
103.448
102.757
102.193
101.735
101.366
101.069
100.832
100.644
100.496
100.379
100.289
100.219
100.165
100.123
100.092
100.068
100.05
100.037
100.027
100.019
100.014
100.01
100.007
100.005
100.004
100.003
100.002
100.001
100.001
100.001
100
100
100
100
100
100
100
100
100
100
100
100
100
390.679
372.094
353.678
335.539
317.782
300.503
283.793
267.729
252.38
237.803
224.044
211.134
199.094
187.934
177.652
168.235
159.664
151.908
144.934
138.699
133.159
128.266
123.97
120.222
116.97
114.167
111.764
109.717
107.984
106.524
105.303
104.288
103.448
102.758
102.194
101.735
101.366
101.069
100.832
100.644
100.496
100.38
100.289
100.219
100.165
100.123
100.092
100.068
100.05
100.037
100.027
100.019
100.014
100.01
100.007
100.005
100.004
100.003
100.002
100.001
100.001
100.001
100
100
100
100
100
100
100
100
100
100
100
100
100
390.679
372.094
353.678
335.539
317.782
300.504
283.793
267.729
252.38
237.804
224.044
211.134
199.095
187.935
177.652
168.236
159.664
151.909
144.934
138.699
133.159
128.266
123.97
120.222
116.97
114.167
111.764
109.717
107.984
106.524
105.303
104.288
103.448
102.758
102.194
101.735
101.366
101.069
100.832
100.644
100.496
100.38
100.289
100.219
100.165
100.123
100.092
100.068
100.05
100.037
100.027
100.019
100.014
100.01
100.007
100.005
100.004
100.003
100.002
100.001
100.001
100.001
100
100
100
100
100
100
100
100
100
100
100
100
100
390.679
372.094
353.678
335.539
317.782
300.504
283.793
267.729
252.381
237.804
224.045
211.135
199.095
187.935
177.653
168.236
159.665
151.909
144.934
138.699
133.159
128.266
123.971
120.222
116.971
114.167
111.764
109.717
107.984
106.525
105.304
104.288
103.448
102.758
102.194
101.736
101.366
101.069
100.832
100.644
100.496
100.38
100.289
100.219
100.165
100.123
100.092
100.068
100.05
100.037
100.027
100.019
100.014
100.01
100.007
100.005
100.004
100.003
100.002
100.001
100.001
100.001
100
100
100
100
100
100
100
100
100
100
100
100
100
390.679
372.095
353.678
335.54
317.783
300.504
283.794
267.73
252.381
237.805
224.045
211.135
199.095
187.935
177.653
168.236
159.665
151.909
144.935
138.7
133.16
128.267
123.971
120.222
116.971
114.167
111.764
109.717
107.984
106.525
105.304
104.288
103.448
102.758
102.194
101.736
101.366
101.069
100.832
100.644
100.496
100.38
100.289
100.219
100.165
100.123
100.092
100.068
100.05
100.037
100.027
100.019
100.014
100.01
100.007
100.005
100.004
100.003
100.002
100.001
100.001
100.001
100
100
100
100
100
100
100
100
100
100
100
100
100
390.679
372.095
353.678
335.54
317.783
300.504
283.794
267.73
252.381
237.805
224.045
211.135
199.096
187.936
177.653
168.237
159.665
151.91
144.935
138.7
133.16
128.267
123.971
120.222
116.971
114.167
111.765
109.718
107.984
106.525
105.304
104.288
103.448
102.758
102.194
101.736
101.366
101.069
100.832
100.644
100.496
100.38
100.289
100.219
100.165
100.123
100.092
100.068
100.05
100.037
100.027
100.019
100.014
100.01
100.007
100.005
100.004
100.003
100.002
100.001
100.001
100.001
100
100
100
100
100
100
100
100
100
100
100
100
100
390.679
372.095
353.678
335.54
317.783
300.504
283.794
267.73
252.381
237.805
224.045
211.135
199.096
187.936
177.653
168.237
159.665
151.91
144.935
138.7
133.16
128.267
123.971
120.223
116.971
114.167
111.765
109.718
107.984
106.525
105.304
104.288
103.448
102.758
102.194
101.736
101.366
101.069
100.832
100.644
100.496
100.38
100.289
100.219
100.165
100.123
100.092
100.068
100.05
100.037
100.027
100.019
100.014
100.01
100.007
100.005
100.004
100.003
100.002
100.001
100.001
100.001
100
100
100
100
100
100
100
100
100
100
100
100
100
390.679
372.095
353.678
335.54
317.783
300.505
283.794
267.73
252.382
237.805
224.045
211.135
199.096
187.936
177.653
168.237
159.665
151.91
144.935
138.7
133.16
128.267
123.971
120.223
116.971
114.167
111.765
109.718
107.984
106.525
105.304
104.288
103.448
102.758
102.194
101.736
101.366
101.069
100.832
100.644
100.496
100.38
100.289
100.219
100.165
100.123
100.092
100.068
100.05
100.037
100.027
100.019
100.014
100.01
100.007
100.005
100.004
100.003
100.002
100.001
100.001
100.001
100
100
100
100
100
100
100
100
100
100
100
100
100
390.679
372.095
353.678
335.54
317.783
300.505
283.794
267.73
252.382
237.805
224.045
211.136
199.096
187.936
177.654
168.237
159.665
151.91
144.935
138.7
133.16
128.267
123.971
120.223
116.971
114.167
111.765
109.718
107.984
106.525
105.304
104.288
103.448
102.758
102.194