/*--------------------------------*- C++ -*----------------------------------*\
  =========                 |
  \\      /  F ield         | OpenFOAM: The Open Source CFD Toolbox
   \\    /   O peration     | Website:  https://openfoam.org
    \\  /    A nd           | Version:  10
     \\/     M anipulation  |
\*---------------------------------------------------------------------------*/
FoamFile
{
    format      ascii;
    class       volScalarField;
    location    "288";
    object      gradTx;
}
// * * * * * * * * * * * * * * * * * * * * * * * * * * * * * * * * * * * * * //

dimensions      [0 -1 0 1 0 0 0];

internalField   nonuniform List<scalar> 
11250
(
14296.3
8093.39
5292.85
3803.73
2899.79
2294.05
1858.15
1528.07
1268.82
1059.78
888.042
745.082
625.01
523.586
437.643
364.73
302.893
250.534
206.316
169.099
137.903
111.872
90.26
72.4139
57.7609
45.8007
36.0984
28.2772
22.0129
17.0286
13.0892
9.99652
7.58518
5.71799
4.28217
3.18575
2.35436
1.72836
1.26034
0.912894
0.656792
0.469355
0.333147
0.234869
0.164462
0.114381
0.0790102
0.0542068
0.036937
0.0249979
0.0168026
0.0112171
0.00743717
0.00489732
0.0032028
0.00208025
0.00134187
0.000859636
0.000546912
0.000345552
0.000216819
0.000135101
8.35973e-05
5.1367e-05
3.1342e-05
1.89891e-05
1.14234e-05
6.82285e-06
4.045e-06
2.37895e-06
1.38534e-06
7.94096e-07
4.39447e-07
2.18813e-07
6.60228e-08
4092.17
4692.3
3983.53
3221.41
2605.15
2128.38
1757.05
1462.41
1224.1
1028.21
865.123
728.085
612.196
513.804
430.103
358.878
298.329
246.963
203.517
166.904
136.181
110.523
89.2062
71.5923
57.1222
45.3061
35.7167
27.984
21.7887
16.858
12.96
9.89917
7.51225
5.66366
4.24192
3.1561
2.33265
1.71256
1.24891
0.90468
0.650923
0.465189
0.330208
0.232809
0.163028
0.113388
0.078328
0.0537409
0.0366209
0.0247849
0.01666
0.0111222
0.00737451
0.0048562
0.00317599
0.0020629
0.00133072
0.000852509
0.000542391
0.000342705
0.000215037
0.000133994
8.29142e-05
5.09486e-05
3.10874e-05
1.88352e-05
1.13311e-05
6.76791e-06
4.01253e-06
2.35992e-06
1.37429e-06
7.8779e-07
4.36023e-07
2.17092e-07
6.55245e-08
1472.68
2601.37
2729.64
2496.04
2174.56
1861.44
1583.95
1345.52
1142.42
969.507
821.97
695.785
587.675
494.982
415.537
347.535
289.458
240.007
198.054
162.612
132.812
107.882
87.1395
69.9797
55.8679
44.334
34.9663
27.4072
21.3474
16.522
12.7055
9.7074
7.36853
5.55655
4.16255
3.09763
2.28983
1.6814
1.22636
0.888468
0.63934
0.456965
0.324406
0.228742
0.160195
0.111428
0.0769803
0.0528204
0.0359963
0.0243639
0.0163781
0.0109347
0.00725063
0.0047749
0.003123
0.00202858
0.00130865
0.000838412
0.000533448
0.00033707
0.000211511
0.000131803
8.15622e-05
5.012e-05
3.05832e-05
1.85307e-05
1.11484e-05
6.65908e-06
3.94819e-06
2.32221e-06
1.35242e-06
7.75293e-07
4.29107e-07
2.1365e-07
6.44949e-08
670.299
1512.11
1839.65
1861.36
1739.09
1562.95
1376.39
1198.34
1035.94
891.023
763.189
651.167
553.436
468.482
394.89
331.372
276.764
230.017
190.186
156.416
127.937
104.053
84.1397
67.6359
54.0428
42.9181
33.8724
26.5658
20.7033
16.0313
12.3335
9.427
7.1583
5.39981
4.04637
3.01202
2.22712
1.63573
1.19332
0.864705
0.622358
0.444905
0.315896
0.222775
0.156038
0.108551
0.0750024
0.0514693
0.0350795
0.0237458
0.0159642
0.0106594
0.00706869
0.00465549
0.00304514
0.00197816
0.00127622
0.000817697
0.000520305
0.000328788
0.000206329
0.000128583
7.95745e-05
4.89019e-05
2.98419e-05
1.80827e-05
1.08797e-05
6.499e-06
3.85356e-06
2.26671e-06
1.32018e-06
7.56872e-07
4.18927e-07
2.08604e-07
6.29506e-08
367.111
938.335
1257.47
1373.38
1360.9
1278.86
1164.85
1040.44
917.207
800.926
694.19
597.881
511.99
436.058
369.411
311.287
260.899
217.473
180.268
148.58
121.755
99.1865
80.3185
64.6451
51.7104
41.1062
32.471
25.4867
19.8764
15.4008
11.8553
9.06628
6.88768
5.19795
3.89667
2.90165
2.14624
1.57682
1.15068
0.834029
0.600428
0.429327
0.304901
0.215065
0.150666
0.104833
0.072445
0.0497221
0.0338936
0.0229462
0.0154287
0.0103031
0.00683322
0.00450091
0.00294435
0.00191289
0.00123423
0.00079087
0.000503282
0.000318061
0.000199615
0.00012441
7.69988e-05
4.73232e-05
2.88811e-05
1.75021e-05
1.05313e-05
6.29148e-06
3.73086e-06
2.19474e-06
1.27839e-06
7.32956e-07
4.05722e-07
2.02058e-07
6.0988e-08
227.317
617.829
880.438
1016.45
1055.55
1030.63
968.061
886.141
796.609
706.587
620.186
539.629
465.985
399.622
340.492
288.302
242.62
202.939
168.721
139.42
114.504
93.4617
75.8123
61.1106
48.9486
38.9573
30.8063
24.2033
18.8918
14.6494
11.2849
8.63559
6.56435
4.9566
3.71757
2.76954
2.04938
1.50624
1.09956
0.797243
0.574122
0.410635
0.291704
0.205807
0.144214
0.100365
0.069372
0.0476221
0.032468
0.0219849
0.0147847
0.00987456
0.00654997
0.00431494
0.00282307
0.00183433
0.00118369
0.000758575
0.000482787
0.000305142
0.000191529
0.000119383
7.38959e-05
4.54211e-05
2.77233e-05
1.68023e-05
1.01114e-05
6.0413e-06
3.58293e-06
2.10798e-06
1.22803e-06
7.04158e-07
3.89811e-07
1.94141e-07
5.86073e-08
152.025
426.36
631.858
758.992
817.381
823.784
794.826
744.047
681.395
613.728
545.554
479.712
417.894
361.026
309.521
263.462
222.715
187.011
155.998
129.282
106.447
87.0784
70.7732
57.148
45.8454
36.538
28.929
22.7537
17.7782
13.7985
10.6382
8.14687
6.19712
4.68227
3.51385
2.61917
1.93906
1.42581
1.04129
0.755285
0.544104
0.389296
0.276633
0.195231
0.136841
0.0952587
0.0658583
0.0452204
0.0308372
0.0208849
0.0140476
0.00938399
0.00622564
0.00410196
0.00268415
0.00174433
0.00112578
0.000721563
0.000459294
0.000290333
0.000182257
0.000113619
7.03369e-05
4.32391e-05
2.63949e-05
1.59993e-05
9.62936e-06
5.75408e-06
3.41305e-06
2.00834e-06
1.17015e-06
6.71078e-07
3.71551e-07
1.8505e-07
5.58545e-08
106.81
304.811
463.419
572.7
634.224
655.855
647.427
618.211
575.867
526.243
473.57
420.778
369.815
321.909
277.772
237.752
201.945
170.275
142.552
118.512
97.8507
80.2428
65.3593
52.8784
42.4936
33.919
26.8928
21.1787
16.5664
12.8712
9.93261
7.61304
5.79558
4.38204
3.29071
2.45434
1.81805
1.33753
0.977281
0.709178
0.511101
0.365825
0.260048
0.183589
0.128722
0.0896332
0.0619863
0.042573
0.029039
0.0196716
0.0132345
0.00884266
0.00586768
0.00386684
0.00253076
0.00164493
0.0010618
0.00068067
0.000433332
0.000273964
0.000172007
0.000107245
6.64008e-05
4.08254e-05
2.49251e-05
1.51106e-05
9.09587e-06
5.43612e-06
3.22495e-06
1.89792e-06
1.10597e-06
6.34384e-07
3.51312e-07
1.74988e-07
5.28152e-08
77.5565
223.68
345.987
436.468
493.824
521.358
524.617
509.658
482.046
446.422
406.421
364.758
323.378
283.613
246.328
212.037
180.996
153.273
128.806
107.444
88.9749
73.1561
59.7267
48.4225
38.9857
31.1715
24.7521
19.5197
15.2878
11.8913
9.18593
7.04741
5.36965
4.06324
3.05355
2.279
1.68923
1.24347
0.90905
0.659995
0.475877
0.340762
0.24233
0.171146
0.12004
0.0836154
0.0578429
0.0397389
0.0271134
0.018372
0.0123632
0.00826248
0.00548392
0.00361471
0.00236623
0.00153829
0.000993154
0.000636778
0.000405461
0.000256387
0.000160999
0.000100398
6.21717e-05
3.82314e-05
2.33452e-05
1.41551e-05
8.52212e-06
5.09407e-06
3.02253e-06
1.77909e-06
1.0369e-06
5.94886e-07
3.29483e-07
1.64159e-07
4.95717e-08
57.6169
167.327
261.963
335.522
385.943
414.302
423.599
417.665
400.396
375.312
345.37
312.917
279.742
247.149
216.046
187.029
160.449
136.474
115.138
96.3761
80.0567
66.0052
54.0216
43.8943
35.4106
28.3641
22.5596
17.817
13.9731
10.882
8.41572
6.46316
4.92916
3.73316
2.80775
2.0971
1.55547
1.14574
0.838097
0.608816
0.439201
0.314649
0.223861
0.158168
0.110981
0.0773337
0.0535159
0.0367782
0.0251011
0.0170134
0.0114521
0.00765556
0.00508236
0.00335082
0.00219397
0.00142662
0.000921245
0.000590791
0.000376252
0.000237962
0.000149457
9.3217e-05
5.77353e-05
3.55096e-05
2.16871e-05
1.3152e-05
7.91964e-06
4.7348e-06
2.80988e-06
1.65425e-06
9.64334e-07
5.53313e-07
3.0649e-07
1.52742e-07
4.61318e-08
43.5029
126.948
200.489
259.731
302.638
329.263
341.145
340.65
330.44
313.107
290.965
265.958
239.644
213.217
187.556
163.273
140.766
120.264
101.864
85.5665
71.3028
58.9551
48.3752
39.3973
31.8492
25.5596
20.364
16.1083
12.651
9.86531
7.63861
5.87281
4.48346
3.39878
2.55847
1.91244
1.41956
1.04635
0.765881
0.556688
0.401819
0.288018
0.205013
0.144917
0.101727
0.0709136
0.0490916
0.0337496
0.0230418
0.0156226
0.0105191
0.00703383
0.00467087
0.00308031
0.00201735
0.00131207
0.000847471
0.000543598
0.00034627
0.000219044
0.000137602
8.58401e-05
5.31766e-05
3.27121e-05
1.99824e-05
1.21205e-05
7.29989e-06
4.36514e-06
2.59102e-06
1.52571e-06
8.89558e-07
5.10492e-07
2.82832e-07
1.40941e-07
4.25546e-08
33.2284
97.3064
154.678
202.143
237.941
261.705
274.154
276.723
271.2
259.455
243.254
224.158
203.473
182.245
161.277
141.157
122.292
104.938
89.2333
75.223
62.8844
52.1451
42.8993
35.0206
28.3721
22.8139
18.209
14.4271
11.3477
8.86111
6.86973
5.28781
4.04119
3.06654
2.31049
1.72855
1.28407
0.947173
0.693764
0.50459
0.364431
0.261364
0.186138
0.131639
0.0924484
0.0644736
0.0446515
0.0307088
0.0209734
0.014225
0.00958112
0.0064086
0.00425691
0.00280809
0.00183956
0.00119674
0.000773162
0.000496049
0.000316052
0.000199973
0.000125649
7.83994e-05
4.85772e-05
2.98888e-05
1.82614e-05
1.10789e-05
6.67393e-06
3.99164e-06
2.36982e-06
1.39574e-06
8.13926e-07
4.67203e-07
2.58892e-07
1.29014e-07
3.89632e-08
25.5894
75.1343
120.029
157.934
187.418
207.972
219.878
223.985
221.481
213.696
201.957
187.485
171.348
154.433
137.445
120.924
105.257
90.7072
77.4315
65.5041
54.9348
45.6856
37.6845
30.8377
25.0383
20.1737
16.1313
12.8025
10.0855
7.8867
6.12234
4.71824
3.60994
2.74214
2.06806
1.54856
1.15132
0.849912
0.622974
0.453409
0.327673
0.235141
0.167555
0.118558
0.0833026
0.058122
0.04027
0.0277068
0.0189303
0.0128439
0.00865391
0.0057903
0.00384739
0.00253869
0.00166354
0.00108252
0.00069955
0.000448931
0.0002861
0.000181063
0.000113793
7.10173e-05
4.40126e-05
2.70861e-05
1.65525e-05
1.00443e-05
6.05199e-06
3.62041e-06
2.14989e-06
1.26647e-06
7.387e-07
4.241e-07
2.35054e-07
1.17186e-07
3.54157e-08
19.8184
58.3085
93.5124
123.711
147.77
165.178
175.986
180.682
180.05
175.027
166.597
155.701
143.195
129.811
116.153
102.695
89.7948
77.7027
66.5814
56.5202
47.5504
39.6587
32.7997
26.9054
21.894
17.6762
14.1608
11.258
8.88281
6.95643
5.4075
4.17256
3.19615
2.43044
1.83482
1.37519
1.02331
0.756027
0.554577
0.403914
0.292097
0.209742
0.149543
0.105871
0.0744266
0.0519542
0.036013
0.0247885
0.0169433
0.0115002
0.00775134
0.00518818
0.00344843
0.00227615
0.00149194
0.000971129
0.000627735
0.000402949
0.00025686
0.000162597
0.000102211
6.3804e-05
3.95511e-05
2.43458e-05
1.48811e-05
9.03206e-06
5.44324e-06
3.25697e-06
1.93447e-06
1.13981e-06
6.64993e-07
3.81903e-07
2.11725e-07
1.05573e-07
3.18924e-08
15.4056
45.3987
73.0341
97.0423
116.537
131.056
140.541
145.261
145.729
142.602
136.601
128.445
118.808
108.284
97.3775
86.4965
75.9568
65.9894
56.7517
48.3382
40.7929
34.1197
28.2926
23.2643
18.9732
15.3495
12.32
9.81165
7.75411
6.08157
4.73398
3.65756
2.805
2.13537
1.61372
1.21065
0.901681
0.666726
0.489456
0.356747
0.258166
0.185497
0.132337
0.0937439
0.0659365
0.0460509
0.0319363
0.0219923
0.0150385
0.0102114
0.00688528
0.00461015
0.00306528
0.0020239
0.00132701
0.000864029
0.000558663
0.000358707
0.000228717
0.000144818
9.10572e-05
5.68547e-05
3.52514e-05
2.1704e-05
1.32694e-05
8.05557e-06
4.85583e-06
2.90615e-06
1.72649e-06
1.01752e-06
5.93786e-07
3.41081e-07
1.89126e-07
9.43271e-08
2.84887e-08
12.0011
35.4118
57.111
76.1556
91.8595
103.829
111.958
116.386
117.445
115.595
111.361
105.289
97.8998
89.6712
81.0163
72.2783
63.7299
55.577
47.965
40.9873
34.6938
29.0993
24.1919
19.9399
16.2978
13.212
10.6245
8.4762
6.70961
5.27032
4.10826
3.17826
2.44039
1.85991
1.40704
1.05664
0.787703
0.582953
0.428303
0.312413
0.226244
0.162669
0.116125
0.0823084
0.0579255
0.0404772
0.0280849
0.0193492
0.0132369
0.00899187
0.00606538
0.0040627
0.00270224
0.0017848
0.00117061
0.000762427
0.000493112
0.000316706
0.000201991
0.000127929
8.04574e-05
5.02484e-05
3.11627e-05
1.9191e-05
1.17356e-05
7.12606e-06
4.2965e-06
2.57196e-06
1.52832e-06
9.00937e-07
5.25874e-07
3.0211e-07
1.6754e-07
8.35704e-08
2.52628e-08
9.3573
27.6399
44.6686
59.7399
72.3251
82.0994
88.9431
92.921
94.2463
93.2384
90.2799
85.7794
80.1406
73.7397
66.911
59.9384
53.0526
46.4321
40.2074
34.4659
29.2589
24.6074
20.5092
16.9441
13.8794
11.2743
9.08334
7.25937
5.75576
4.52796
3.53458
2.73806
2.10498
1.60613
1.21637
0.914367
0.682288
0.505386
0.371623
0.271281
0.196601
0.141454
0.101045
0.071664
0.0504635
0.035282
0.0244928
0.0168826
0.0115548
0.00785259
0.00529905
0.00355077
0.0023626
0.00156102
0.00102418
0.000667261
0.000431691
0.000277337
0.000176929
0.000112086
7.05111e-05
4.40473e-05
2.73234e-05
1.68305e-05
1.02944e-05
6.25235e-06
3.77056e-06
2.25763e-06
1.34183e-06
7.91155e-07
4.61884e-07
2.65431e-07
1.47218e-07
7.34174e-08
2.21719e-08
7.29499
21.5671
34.9141
46.8094
56.847
64.764
70.4456
73.9132
75.3027
74.8357
72.7896
69.4695
65.1844
60.2291
54.8704
49.3397
43.829
38.4901
33.4367
28.7481
24.4734
20.6368
17.2421
14.2776
11.7202
9.5394
7.69991
6.16445
4.89557
3.85711
3.01518
2.33881
1.80028
1.37524
1.04264
0.784576
0.586003
0.434457
0.319738
0.233592
0.169414
0.121979
0.087192
0.0618777
0.0435981
0.0304991
0.0211836
0.0146089
0.0100033
0.00680124
0.00459151
0.00307789
0.00204873
0.00135411
0.000888728
0.0005792
0.000374833
0.000240879
0.000153713
9.74038e-05
6.12905e-05
3.82967e-05
2.37618e-05
1.464e-05
8.95663e-06
5.44104e-06
3.28201e-06
1.96556e-06
1.16847e-06
6.89092e-07
4.024e-07
2.31284e-07
1.28318e-07
6.39823e-08
1.93159e-08
5.6817
16.8099
27.252
36.6128
44.5814
50.9483
55.6105
58.5665
59.9017
59.7696
58.3707
55.9321
52.6889
48.87
44.6864
40.3246
35.9416
31.6646
27.5908
23.7898
20.307
17.1669
14.3771
11.9317
9.81501
8.00435
6.47273
5.19089
4.12905
3.2581
2.55052
1.98101
1.52677
1.16767
0.886244
0.667578
0.499101
0.370367
0.272806
0.199466
0.144775
0.104314
0.0746152
0.0529862
0.0373558
0.0261472
0.0181708
0.0125375
0.00858909
0.00584237
0.00394587
0.00264616
0.00176203
0.00116505
0.000764902
0.000498663
0.000322812
0.000207509
0.000132456
8.39558e-05
5.28419e-05
3.30257e-05
2.04961e-05
1.26308e-05
7.72911e-06
4.69635e-06
2.83339e-06
1.69723e-06
1.00919e-06
5.95294e-07
3.47708e-07
1.99862e-07
1.10904e-07
5.53254e-08
1.67024e-08
4.41779
13.0786
21.2288
28.5712
34.8684
39.9548
43.7426
46.2186
47.4356
47.4999
46.5561
44.7727
42.3276
39.3973
36.1473
32.7261
29.261
25.8566
22.5946
19.5349
16.7179
14.1672
11.8921
9.89069
8.15263
6.66137
5.39642
4.33505
3.45376
2.72932
2.13959
1.66403
1.28407
0.983199
0.747058
0.563318
0.421565
0.313118
0.230838
0.168919
0.122698
0.0884715
0.063327
0.0449994
0.0317446
0.0222326
0.0154588
0.0106718
0.00731455
0.00497771
0.00336336
0.00225645
0.00150312
0.000994218
0.000652974
0.000425833
0.000275751
0.00017731
0.00011321
7.17763e-05
4.51874e-05
2.82485e-05
1.75353e-05
1.08086e-05
6.61547e-06
4.0205e-06
2.42613e-06
1.45356e-06
8.64469e-07
5.10031e-07
2.9793e-07
1.71289e-07
9.50745e-08
4.74412e-08
1.4336e-08
3.42726
10.1516
16.4949
22.2339
27.1872
31.2255
34.2756
36.3198
37.39
37.5596
36.9328
35.6341
33.7977
31.5588
29.0462
26.3772
23.6536
20.9607
18.3658
15.9197
13.6575
11.6006
9.75916
8.13368
6.71759
5.49905
4.46265
3.59088
2.86535
2.26767
1.78016
1.3863
1.07108
0.821071
0.624556
0.471434
0.353148
0.262544
0.193723
0.141876
0.103136
0.0744209
0.0533068
0.0379042
0.026756
0.0187498
0.0130444
0.0090098
0.00617845
0.00420654
0.00284355
0.00190851
0.00127184
0.000841556
0.000552903
0.000360692
0.000233641
0.000150276
9.59765e-05
6.08658e-05
3.83281e-05
2.39661e-05
1.48803e-05
9.17402e-06
5.61617e-06
3.41386e-06
2.06047e-06
1.23475e-06
7.34453e-07
4.33399e-07
2.532e-07
1.4562e-07
8.08318e-08
4.03309e-08
1.22077e-08
2.65145
7.85723
12.7784
17.2469
21.125
24.312
26.7483
28.4154
29.3319
29.5484
29.14
28.1983
26.8243
25.1208
23.1876
21.1162
18.9878
16.8705
14.8196
12.8771
11.073
9.4263
7.94676
6.63646
5.49149
4.50348
3.66097
2.95058
2.35802
1.86887
1.4691
1.14555
0.886151
0.680096
0.517888
0.391322
0.293424
0.218345
0.161251
0.118193
0.0859864
0.0620923
0.0445073
0.0316682
0.0223681
0.0156842
0.0109178
0.00754496
0.00517653
0.00352606
0.00238462
0.00160117
0.00106745
0.000706575
0.000464383
0.000303044
0.00019636
0.000126334
8.07076e-05
5.11958e-05
3.22465e-05
2.01679e-05
1.25247e-05
7.72333e-06
4.72898e-06
2.87511e-06
1.73563e-06
1.04023e-06
6.18872e-07
3.65246e-07
2.13458e-07
1.22773e-07
6.81258e-08
3.40075e-08
1.02649e-08
2.04468
6.06155
9.86575
13.331
16.3527
18.8531
20.7846
22.1295
22.8983
23.1258
22.866
22.1863
21.162
19.8714
18.3909
16.7917
15.1376
13.483
11.8722
10.3398
8.91084
7.60174
6.42155
5.37309
4.45426
3.65925
2.97961
2.40522
1.92507
1.52789
1.20268
0.939
0.727249
0.558782
0.42597
0.322199
0.241829
0.180118
0.133136
0.0976659
0.0711088
0.0513872
0.0368598
0.0262443
0.0185488
0.0130139
0.00906413
0.00626729
0.0043021
0.00293183
0.00198364
0.00133249
0.00088868
0.000588462
0.000386891
0.000252558
0.000163697
0.00010535
6.73197e-05
4.2714e-05
2.69104e-05
1.68342e-05
1.04566e-05
6.44924e-06
3.94957e-06
2.40166e-06
1.45001e-06
8.69153e-07
5.17167e-07
3.05285e-07
1.78428e-07
1.02633e-07
5.69762e-08
2.84371e-08
8.58117e-09
1.57112
4.65929
7.58861
10.2644
12.6073
14.5578
16.078
17.1525
17.7866
18.0042
17.844
17.3556
16.595
15.6213
14.4928
13.2646
11.9862
10.7007
9.4435
8.24246
7.11823
6.08472
5.14998
4.3171
3.58518
2.95026
2.40617
1.9453
1.55923
1.23925
0.976758
0.763565
0.592079
0.455438
0.347561
0.263159
0.197707
0.14739
0.10904
0.0800555
0.0583327
0.0421858
0.030281
0.0215746
0.015258
0.0107115
0.00746473
0.00516417
0.00354667
0.00241816
0.00163683
0.00109999
0.000733908
0.000486156
0.000319739
0.00020879
0.000135369
8.71435e-05
5.57002e-05
3.535e-05
2.2276e-05
1.3938e-05
8.65921e-06
5.34165e-06
3.27184e-06
1.98982e-06
1.20151e-06
7.20318e-07
4.28653e-07
2.53048e-07
1.47911e-07
8.50906e-08
4.727e-08
2.36087e-08
7.14988e-09
1.20253
3.56729
5.81356
7.87037
9.67795
11.1907
12.3791
13.2299
13.7454
13.9421
13.8476
13.4982
12.9356
12.2041
11.348
10.4095
9.42705
8.43419
7.45894
6.52363
5.645
4.83463
4.09946
3.44256
2.86376
2.36043
1.92811
1.56112
1.25307
0.99726
0.787039
0.616009
0.47822
0.368265
0.281333
0.213228
0.160348
0.119648
0.0885921
0.0650967
0.0474699
0.0343553
0.0246776
0.017594
0.0124507
0.00874596
0.0060984
0.00422118
0.00290051
0.00197854
0.00133986
0.00090079
0.000601241
0.000398421
0.000262127
0.000171223
0.000111046
7.15049e-05
4.57158e-05
2.90202e-05
1.82911e-05
1.14468e-05
7.11283e-06
4.38844e-06
2.68834e-06
1.63518e-06
9.87523e-07
5.9211e-07
3.52387e-07
2.08035e-07
1.21639e-07
7.00049e-08
3.88864e-08
1.94267e-08
5.87116e-09
0.916563
2.71969
4.4346
6.00824
7.39566
8.56224
9.48499
10.153
10.5669
10.7379
10.6858
10.4371
10.0225
9.47536
8.82901
8.11563
7.36474
6.60237
5.85047
5.12672
4.44454
3.81341
3.2392
2.72475
2.27032
1.87422
1.53324
1.24319
0.999246
0.796301
0.62923
0.493084
0.383228
0.295436
0.22593
0.171407
0.12902
0.0963581
0.0714085
0.0525131
0.0383233
0.0277561
0.0199513
0.0142338
0.0100792
0.00708427
0.00494252
0.00342293
0.00235318
0.00160595
0.00108802
0.000731787
0.000488629
0.000323914
0.00021318
0.000139294
9.03643e-05
5.82029e-05
3.72204e-05
2.36325e-05
1.48983e-05
9.32524e-06
5.79544e-06
3.57613e-06
2.191e-06
1.33283e-06
8.05003e-07
4.82716e-07
2.87322e-07
1.69641e-07
9.91697e-08
5.70838e-08
3.16981e-08
1.58145e-08
4.78451e-09
0.695499
2.06423
3.36742
4.56554
5.62491
6.51935
7.23115
7.75149
8.08012
8.22461
8.19912
8.02289
7.7187
7.31121
6.82556
6.2861
5.71537
5.13339
4.55721
4.00068
3.47447
2.98622
2.5408
2.14071
1.78647
1.47699
1.21003
0.982481
0.790744
0.630948
0.499179
0.391628
0.304717
0.235161
0.180019
0.136709
0.102998
0.0769916
0.0571048
0.0420281
0.030695
0.0222474
0.0160027
0.0114243
0.00809475
0.00569287
0.00397401
0.00275364
0.00189401
0.00129319
0.000876515
0.000589772
0.000393954
0.000261247
0.000171993
0.000112416
7.29481e-05
4.69972e-05
3.00614e-05
1.90909e-05
1.20374e-05
7.53579e-06
4.68399e-06
2.89065e-06
1.77124e-06
1.07757e-06
6.50869e-07
3.90303e-07
2.32326e-07
1.37168e-07
8.01755e-08
4.61153e-08
2.56118e-08
1.28026e-08
3.89435e-09
0.525296
1.5594
2.54496
3.45259
4.25718
4.939
5.48454
5.88678
6.14502
6.2644
6.255
6.13078
5.90847
5.60636
5.24324
4.83743
4.40603
3.96434
3.52549
3.10023
2.69696
2.32174
1.97856
1.66957
1.39537
1.1553
0.947795
0.770589
0.621001
0.49612
0.392973
0.308656
0.240419
0.185734
0.142324
0.108186
0.0815827
0.061037
0.0453089
0.033373
0.0243923
0.017692
0.0127347
0.0090972
0.00644987
0.00453872
0.00317009
0.00219775
0.0015124
0.00103311
0.000700542
0.000471558
0.000315108
0.000209034
0.000137663
9.00043e-05
5.84205e-05
3.76468e-05
2.40857e-05
1.52989e-05
9.64807e-06
6.04089e-06
3.75528e-06
2.3178e-06
1.42032e-06
8.64126e-07
5.21974e-07
3.13026e-07
1.86325e-07
1.10025e-07
6.43061e-08
3.69678e-08
2.05298e-08
1.02638e-08
3.09857e-09
0.394822
1.1723
1.91392
2.59795
3.20571
3.72244
4.13789
4.44654
4.64755
4.74438
4.74418
4.65707
4.49529
4.27234
4.00217
3.69852
3.37425
3.04099
2.70875
2.38584
2.07876
1.79231
1.52968
1.29268
1.08191
0.897009
0.736874
0.599875
0.484026
0.387151
0.307013
0.241406
0.188236
0.145568
0.111655
0.0849523
0.0641197
0.0480129
0.0356701
0.0262939
0.0192325
0.0139595
0.0100549
0.00718744
0.00509897
0.00359019
0.00250896
0.0017403
0.00119819
0.000818851
0.000555491
0.000374068
0.000250055
0.000165936
0.000109314
7.14902e-05
4.64152e-05
2.99174e-05
1.91444e-05
1.21625e-05
7.67126e-06
4.80378e-06
2.98657e-06
1.84349e-06
1.12974e-06
6.87359e-07
4.15205e-07
2.49015e-07
1.48215e-07
8.75196e-08
5.11391e-08
2.94205e-08
1.63347e-08
8.13335e-09
2.44439e-09
0.295266
0.876847
1.43205
1.94484
2.40138
2.7907
3.10507
3.34021
3.49528
3.57259
3.57722
3.51646
3.39923
3.23546
3.03546
2.80945
2.56708
2.3171
2.0671
1.82342
1.59109
1.37384
1.17421
0.993667
0.832778
0.691362
0.568666
0.463512
0.374445
0.299848
0.238045
0.187377
0.146258
0.113217
0.0869235
0.0661959
0.0500066
0.0374765
0.0278646
0.020556
0.0150466
0.0109289
0.0078772
0.00563438
0.0039996
0.00281773
0.0019702
0.0013673
0.000941827
0.000643942
0.000437019
0.000294404
0.000196873
0.000130688
8.61195e-05
5.63366e-05
3.65857e-05
2.35868e-05
1.50963e-05
9.59223e-06
6.05094e-06
3.78952e-06
2.3562e-06
1.45446e-06
8.91362e-07
5.42339e-07
3.27609e-07
1.9644e-07
1.169e-07
6.90314e-08
4.03528e-08
2.32355e-08
1.28893e-08
6.42216e-09
1.93839e-09
0.219671
0.652455
1.0659
1.44824
1.78927
2.08087
2.31724
2.49512
2.61373
2.67461
2.68136
2.63921
2.55464
2.43491
2.28762
2.12031
1.94017
1.75375
1.56677
1.38404
1.20938
1.04569
0.894955
0.758353
0.636386
0.528986
0.435639
0.355505
0.287523
0.230499
0.183187
0.144345
0.112782
0.0873877
0.0671549
0.0511869
0.0387014
0.0290278
0.0215999
0.0159464
0.0116809
0.00849009
0.00612341
0.00438267
0.00311291
0.00219429
0.0015351
0.00106588
0.000734547
0.000502443
0.000341129
0.000229894
0.000153788
0.00010212
6.73138e-05
4.40461e-05
2.86107e-05
1.8449e-05
1.181e-05
7.50523e-06
4.73499e-06
2.96565e-06
1.84404e-06
1.13834e-06
6.97647e-07
4.24459e-07
2.56396e-07
1.53718e-07
9.1482e-08
5.40149e-08
3.15807e-08
1.81535e-08
1.00487e-08
5.0205e-09
1.52788e-09
0.162562
0.482901
0.789125
1.07262
1.32592
1.54303
1.71963
1.85326
1.94325
1.99061
1.99787
1.9688
1.90807
1.82096
1.71303
1.58986
1.45673
1.31853
1.17954
1.04336
0.912901
0.79037
0.677304
0.574646
0.482819
0.401819
0.3313
0.270667
0.21915
0.175875
0.13992
0.110363
0.0863141
0.0669422
0.0514896
0.0392805
0.029724
0.0223123
0.0166156
0.0122757
0.00899843
0.0065448
0.00472343
0.00338274
0.00240409
0.00169558
0.00118682
0.000824462
0.000568439
0.00038899
0.000264208
0.000178121
0.000119195
7.91739e-05
5.2203e-05
3.4167e-05
2.21985e-05
1.4317e-05
9.16636e-06
5.82595e-06
3.67592e-06
2.30249e-06
1.43173e-06
8.83809e-07
5.4164e-07
3.29533e-07
1.99033e-07
1.19349e-07
7.10378e-08
4.1907e-08
2.44878e-08
1.40671e-08
7.78979e-09
3.88337e-09
1.17006e-09
0.119647
0.355464
0.581021
0.790052
0.977104
1.13778
1.2689
1.3686
1.43633
1.47275
1.47966
1.45972
1.41631
1.35325
1.27458
1.18439
1.08658
0.984731
0.882034
0.781182
0.684359
0.593235
0.508989
0.432359
0.363695
0.303027
0.250126
0.204573
0.165812
0.133207
0.106081
0.0837533
0.0655644
0.0508956
0.0391814
0.0299161
0.0226563
0.0170202
0.0126842
0.00937794
0.00687902
0.0050066
0.00361558
0.0025909
0.00184239
0.00130012
0.000910488
0.000632802
0.000436493
0.000298824
0.000203045
0.000136936
9.16653e-05
6.09058e-05
4.01688e-05
2.62968e-05
1.70886e-05
1.10233e-05
7.05863e-06
4.48682e-06
2.83121e-06
1.77348e-06
1.10282e-06
6.80768e-07
4.17195e-07
2.53824e-07
1.53288e-07
9.19134e-08
5.4691e-08
3.22732e-08
1.88483e-08
1.08412e-08
6.02263e-09
3.00528e-09
8.79192e-10
0.0875729
0.260204
0.425413
0.578659
0.715982
0.834177
0.930911
1.00479
1.05538
1.08311
1.08922
1.07563
1.04474
0.999317
0.942291
0.876621
0.805163
0.730553
0.655138
0.580915
0.509513
0.442185
0.379827
0.323009
0.272015
0.226889
0.187481
0.153497
0.12454
0.10015
0.079833
0.063089
0.0494326
0.0384068
0.0295921
0.0226129
0.017139
0.0128852
0.00960964
0.00710982
0.00521881
0.00380074
0.00274645
0.00196925
0.00140111
0.000989248
0.000693128
0.000481961
0.000332593
0.000227787
0.000154836
0.00010446
6.99479e-05
4.64893e-05
3.06686e-05
2.00818e-05
1.30524e-05
8.42102e-06
5.39296e-06
3.42835e-06
2.16345e-06
1.35523e-06
8.42738e-07
5.20214e-07
3.1879e-07
1.93941e-07
1.17115e-07
7.02047e-08
4.17523e-08
2.46569e-08
1.44205e-08
8.30348e-09
4.59682e-09
2.30061e-09
6.83816e-10
0.0637356
0.189397
0.309713
0.421413
0.521633
0.608051
0.678966
0.733347
0.770844
0.791744
0.796915
0.787704
0.765834
0.733283
0.692163
0.644617
0.592716
0.538387
0.483345
0.429062
0.376742
0.327319
0.281467
0.239622
0.202007
0.16867
0.139517
0.114342
0.0928625
0.0747475
0.059639
0.0471731
0.0369943
0.0287672
0.0221832
0.0169649
0.012868
0.00968146
0.00722548
0.00534954
0.0039293
0.00286343
0.00207038
0.00148535
0.0010574
0.000746958
0.000523621
0.000364263
0.00025148
0.000172303
0.000117165
7.90718e-05
5.29638e-05
3.52109e-05
2.32339e-05
1.52168e-05
9.89212e-06
6.38298e-06
4.0882e-06
2.59909e-06
1.64021e-06
1.02748e-06
6.38922e-07
3.94388e-07
2.41634e-07
1.46982e-07
8.87654e-08
5.3184e-08
3.16289e-08
1.86606e-08
1.09114e-08
6.28606e-09
3.48384e-09
1.72106e-09
5.3454e-10
0.046121
0.137066
0.224183
0.305123
0.37783
0.440628
0.492284
0.532044
0.559635
0.575243
0.57947
0.573268
0.557858
0.534652
0.505164
0.470935
0.43346
0.394136
0.354211
0.31476
0.276667
0.240624
0.20713
0.176517
0.148958
0.1245
0.103082
0.0845623
0.0687417
0.0553828
0.0442279
0.0350137
0.0274819
0.0213878
0.0165059
0.0126328
0.00958926
0.00721982
0.00539204
0.00399478
0.0029361
0.00214096
0.00154892
0.00111186
0.000791939
0.000559718
0.000392552
0.000273206
0.000188695
0.000129336
8.79785e-05
5.93942e-05
3.97951e-05
2.64631e-05
1.74657e-05
1.14412e-05
7.4389e-06
4.80063e-06
3.07502e-06
1.95508e-06
1.23381e-06
7.72895e-07
4.8059e-07
2.96632e-07
1.81724e-07
1.10513e-07
6.67286e-08
3.99884e-08
2.37909e-08
1.40221e-08
8.16957e-09
4.69122e-09
2.60355e-09
1.27763e-09
4.03923e-10
0.0331807
0.0986181
0.161326
0.21963
0.272059
0.317412
0.354802
0.383677
0.403831
0.415384
0.418752
0.414602
0.403798
0.387341
0.366311
0.34181
0.314912
0.28662
0.257839
0.229348
0.201791
0.175675
0.15137
0.129124
0.109069
0.0912469
0.0756199
0.0620909
0.0505198
0.0407378
0.0325606
0.0257987
0.0202656
0.0157843
0.0121908
0.00933719
0.00709277
0.00534393
0.00399375
0.00296075
0.00217746
0.00158873
0.00115005
0.000825994
0.000588632
0.000416231
0.000292055
0.000203351
0.000140505
9.63419e-05
6.55577e-05
4.42718e-05
2.96712e-05
1.97358e-05
1.30285e-05
8.53609e-06
5.55084e-06
3.5826e-06
2.295e-06
1.45921e-06
9.20874e-07
5.7682e-07
3.58644e-07
2.21328e-07
1.3559e-07
8.24256e-08
4.97451e-08
2.98179e-08
1.77518e-08
1.04757e-08
6.10166e-09
3.48823e-09
1.93729e-09
9.70294e-10
2.93064e-10
0.0237307
0.0705371
0.115408
0.157155
0.194732
0.227284
0.254174
0.275006
0.289622
0.298101
0.300728
0.297969
0.290432
0.278824
0.26391
0.246474
0.227281
0.207051
0.186431
0.165984
0.146177
0.127377
0.109856
0.0937974
0.0793019
0.0664037
0.0550803
0.0452657
0.0368617
0.0297494
0.0237974
0.0188706
0.014835
0.0115634
0.00893746
0.00685036
0.00520735
0.00392605
0.00293602
0.00217798
0.00160275
0.00117009
0.000847478
0.000609002
0.000434215
0.000307188
0.00021564
0.000150209
0.000103828
7.12187e-05
4.84783e-05
3.27478e-05
2.19537e-05
1.4606e-05
9.64403e-06
6.31972e-06
4.11013e-06
2.653e-06
1.6996e-06
1.08067e-06
6.8198e-07
4.27158e-07
2.65562e-07
1.63853e-07
1.00344e-07
6.09737e-08
3.67932e-08
2.20402e-08
1.31077e-08
7.73052e-09
4.51999e-09
2.5805e-09
1.44556e-09
7.40892e-10
2.26109e-10
0.0168712
0.0501517
0.0820672
0.111778
0.138546
0.161765
0.180981
0.195909
0.206434
0.212605
0.214617
0.212796
0.207565
0.199421
0.188904
0.176568
0.162955
0.148577
0.133897
0.119316
0.10517
0.091725
0.0791779
0.0676626
0.0572556
0.0479844
0.0398357
0.0327648
0.0267037
0.0215687
0.0172671
0.0137028
0.0107806
0.00840927
0.00650428
0.00498886
0.00379488
0.002863
0.0021424
0.00159023
0.00117092
0.000855312
0.000619827
0.000445641
0.000317896
0.000225002
0.000158016
0.000110115
7.6143e-05
5.22473e-05
3.5576e-05
2.40391e-05
1.61197e-05
1.0727e-05
7.08414e-06
4.64297e-06
3.01999e-06
1.9495e-06
1.24896e-06
7.94124e-07
5.01148e-07
3.13868e-07
1.95095e-07
1.20356e-07
7.3671e-08
4.47641e-08
2.69893e-08
1.6158e-08
9.5844e-09
5.62858e-09
3.28846e-09
1.90546e-09
1.07237e-09
5.36735e-10
1.67935e-10
0.0119224
0.0354433
0.0580067
0.0790233
0.097974
0.114431
0.128075
0.138703
0.146228
0.150683
0.152201
0.151006
0.147395
0.141713
0.134339
0.125662
0.116065
0.105909
0.0955226
0.0851908
0.075153
0.0655997
0.0566734
0.0484712
0.0410498
0.0344308
0.0286069
0.0235479
0.0192069
0.0155255
0.0124386
0.00987832
0.00777732
0.00607091
0.00469888
0.00360652
0.00274517
0.00207237
0.00155172
0.00115247
0.000849073
0.000620554
0.000449939
0.000323657
0.00023099
0.000163565
0.000114919
8.01137e-05
5.54181e-05
3.80393e-05
2.59096e-05
1.75123e-05
1.17459e-05
7.81811e-06
5.16405e-06
3.38499e-06
2.20197e-06
1.42153e-06
9.10733e-07
5.79081e-07
3.65419e-07
2.28839e-07
1.42202e-07
8.77249e-08
5.36976e-08
3.26508e-08
1.96858e-08
1.175e-08
6.95999e-09
4.1007e-09
2.38073e-09
1.3841e-09
7.79308e-10
3.86361e-10
1.05371e-10
0.00837418
0.0248966
0.0407511
0.0555264
0.0688595
0.0804512
0.0900767
0.0975919
0.102936
0.106126
0.107255
0.106477
0.103996
0.100054
0.0949135
0.0888468