/*--------------------------------*- C++ -*----------------------------------*\
  =========                 |
  \\      /  F ield         | OpenFOAM: The Open Source CFD Toolbox
   \\    /   O peration     | Website:  https://openfoam.org
    \\  /    A nd           | Version:  10
     \\/     M anipulation  |
\*---------------------------------------------------------------------------*/
FoamFile
{
    format      ascii;
    class       volScalarField;
    location    "286";
    object      gradTx;
}
// * * * * * * * * * * * * * * * * * * * * * * * * * * * * * * * * * * * * * //

dimensions      [0 -1 0 1 0 0 0];

internalField   nonuniform List<scalar> 
11250
(
14296.1
8092.81
5291.91
3802.44
2898.18
2292.15
1856.01
1525.74
1266.33
1057.19
885.392
742.417
622.372
521.011
435.162
362.37
300.675
248.473
204.421
167.376
136.351
110.489
89.0397
71.3474
56.8375
45.0088
35.4253
27.7103
21.5397
16.6371
12.768
9.73536
7.37463
5.54967
4.14874
3.08085
2.27257
1.66511
1.21183
0.875989
0.62894
0.448503
0.31766
0.223457
0.156119
0.108329
0.0746545
0.0510961
0.0347325
0.0234476
0.0157207
0.0104677
0.00692213
0.00454599
0.00296493
0.00192041
0.00123528
0.000789072
0.000500549
0.000315317
0.000197247
0.000122526
7.5577e-05
4.62899e-05
2.81517e-05
1.69994e-05
1.01917e-05
6.06616e-06
3.58375e-06
2.10019e-06
1.21867e-06
6.96155e-07
3.84041e-07
1.90754e-07
5.74713e-08
4091.98
4691.73
3982.59
3220.12
2603.55
2126.5
1754.93
1460.09
1221.63
1025.63
862.493
725.441
609.578
511.249
427.642
356.537
296.128
244.918
201.636
165.193
134.641
109.151
87.9953
70.534
56.206
44.5202
35.0489
27.4215
21.3192
16.4695
12.6413
9.64004
7.30332
5.49663
4.10951
3.05201
2.25149
1.64981
1.20078
0.868059
0.623287
0.444498
0.314841
0.221485
0.154749
0.107383
0.0740059
0.0506542
0.0344334
0.0232465
0.0155864
0.0103787
0.00686344
0.00450758
0.00293996
0.00190429
0.00122494
0.000782489
0.000496386
0.000312702
0.000195616
0.000121516
7.49557e-05
4.59105e-05
2.79217e-05
1.68608e-05
1.01089e-05
6.01703e-06
3.55482e-06
2.08331e-06
1.20889e-06
6.906e-07
3.81039e-07
1.89249e-07
5.7041e-08
1472.5
2600.81
2728.71
2494.78
2172.99
1859.59
1581.86
1343.24
1139.99
966.975
819.381
693.182
585.097
492.467
413.113
345.229
287.291
237.993
196.202
160.928
131.296
106.531
85.9473
68.9377
54.9658
43.5602
34.3087
26.8533
20.8851
16.1395
12.3917
9.45225
7.16282
5.3921
4.03218
2.99515
2.20993
1.61961
1.17897
0.852412
0.612129
0.436593
0.309275
0.217592
0.152044
0.105515
0.0727247
0.0497812
0.0338425
0.0228492
0.015321
0.0102026
0.00674742
0.00443164
0.00289059
0.00187242
0.0012045
0.000769469
0.00048815
0.000307528
0.000192388
0.000119516
7.37259e-05
4.51593e-05
2.74661e-05
1.65866e-05
9.94496e-06
5.91971e-06
3.4975e-06
2.04982e-06
1.18956e-06
6.79587e-07
3.74956e-07
1.86224e-07
5.61409e-08
670.114
1511.56
1838.74
1860.13
1737.55
1561.14
1374.35
1196.11
1033.56
888.549
760.66
648.624
550.918
466.024
392.522
329.119
274.646
228.049
188.377
154.771
126.456
102.733
82.9748
66.6179
53.1615
42.1621
33.23
26.0247
20.2516
15.6575
12.027
9.17772
6.95732
5.23914
3.919
2.91189
2.14905
1.57536
1.14702
0.829477
0.595772
0.425001
0.301113
0.211882
0.148075
0.102775
0.0708446
0.0484999
0.0329751
0.0222659
0.0149314
0.0099441
0.00657705
0.00432011
0.00281808
0.00182559
0.00117446
0.000750338
0.000476047
0.000299925
0.000187645
0.000116578
7.19182e-05
4.40551e-05
2.67964e-05
1.61832e-05
9.70381e-06
5.77658e-06
3.41318e-06
2.00055e-06
1.16104e-06
6.63347e-07
3.66016e-07
1.81806e-07
5.47854e-08
366.932
937.801
1256.59
1372.19
1359.41
1277.11
1162.87
1038.28
914.905
798.528
691.738
595.415
509.549
433.675
367.116
309.103
258.846
215.565
178.514
146.985
120.319
97.9068
79.1892
63.6582
50.856
40.3734
31.8481
24.9621
19.4385
15.0385
11.5581
8.82461
6.69284
5.04219
3.77319
2.80458
2.07055
1.5183
1.10579
0.799876
0.574654
0.410031
0.290569
0.204504
0.142945
0.0992321
0.0684141
0.0468433
0.0318535
0.0215115
0.0144274
0.00960963
0.00635658
0.00417577
0.00272422
0.00176497
0.00113558
0.000725567
0.000460375
0.000290078
0.000181501
0.000112771
6.95761e-05
4.26242e-05
2.59284e-05
1.56605e-05
9.39125e-06
5.59105e-06
3.30389e-06
1.93668e-06
1.12408e-06
6.42277e-07
3.54422e-07
1.76073e-07
5.3072e-08
227.144
617.316
879.595
1015.3
1054.11
1028.95
966.158
884.061
794.395
704.28
617.827
537.258
463.637
397.33
338.284
286.201
240.645
201.104
167.034
137.886
113.123
92.2307
74.7261
60.1612
48.1267
38.2523
30.2072
23.6987
18.4706
14.3008
10.999
8.40311
6.37691
4.80676
3.59879
2.67616
1.97657
1.44994
1.05638
0.764389
0.549328
0.392072
0.277917
0.195648
0.136787
0.0949776
0.0654943
0.0448528
0.0305054
0.0206047
0.0138215
0.00920745
0.00609144
0.00400216
0.00261131
0.00169203
0.00108879
0.000695753
0.00044151
0.000278224
0.000174104
0.000108187
6.67551e-05
4.09006e-05
2.48827e-05
1.50306e-05
9.01456e-06
5.36742e-06
3.17214e-06
1.85969e-06
1.07956e-06
6.16912e-07
3.40445e-07
1.6914e-07
5.09876e-08
151.86
425.87
631.055
757.892
816.011
822.174
793.01
742.062
679.281
611.525
543.302
477.448
415.653
358.838
307.414
261.457
220.83
185.259
154.388
127.817
105.128
85.9034
69.7363
56.2417
45.0609
35.8651
28.3571
22.272
17.3761
13.4658
10.3653
7.92496
6.0182
4.53924
3.40047
2.53003
1.86956
1.37207
1.00006
0.723923
0.520436
0.371577
0.263472
0.185534
0.129751
0.0901158
0.0621568
0.0425768
0.0289638
0.0195674
0.0131282
0.00874719
0.00578795
0.00380339
0.00248201
0.0016085
0.00103519
0.000661595
0.000419893
0.000264637
0.000165624
0.000102931
6.35204e-05
3.89238e-05
2.36833e-05
1.4308e-05
8.58232e-06
5.11077e-06
3.02088e-06
1.7713e-06
1.02841e-06
5.87765e-07
3.24413e-07
1.61172e-07
4.85784e-08
106.654
304.347
462.657
571.659
632.926
654.33
645.707
616.331
573.866
524.158
471.437
418.633
367.692
319.837
275.776
235.853
200.16
168.616
141.027
117.125
96.6018
79.1299
64.3772
52.0201
41.7505
33.2816
26.3511
20.7225
16.1856
12.5561
9.67413
7.40285
5.62612
4.24656
3.18332
2.36991
1.75222
1.28662
0.938237
0.679472
0.488683
0.349041
0.247582
0.174403
0.122006
0.0847617
0.0584802
0.0400689
0.0272645
0.0184237
0.0123636
0.00823947
0.00545309
0.00358402
0.00233928
0.00151627
0.000975994
0.000623868
0.000396011
0.000249624
0.000156252
9.71211e-05
5.99441e-05
3.67378e-05
2.23565e-05
1.35085e-05
8.10403e-06
4.8267e-06
2.85342e-06
1.67335e-06
9.71675e-07
5.5545e-07
3.0665e-07
1.52364e-07
4.59243e-08
77.41
223.244
345.272
435.489
492.605
519.924
523
507.892
480.164
444.461
404.417
362.743
321.383
281.665
244.452
210.253
179.318
151.714
127.373
106.14
87.8012
72.1102
58.8036
47.6158
38.2873
30.5725
24.243
19.0909
14.9298
11.5951
8.94299
6.84986
5.21038
3.9359
2.95261
2.19965
1.62736
1.19563
0.872352
0.632075
0.454806
0.324986
0.230613
0.162512
0.113728
0.0790367
0.0545474
0.0373853
0.0254455
0.017199
0.0115446
0.00769553
0.00509424
0.00334889
0.00218626
0.00141736
0.000912502
0.000583389
0.000370383
0.00023351
0.00014619
9.08824e-05
5.61028e-05
3.43893e-05
2.09308e-05
1.26492e-05
7.58981e-06
4.52122e-06
2.67328e-06
1.56798e-06
9.10656e-07
5.20675e-07
2.87491e-07
1.42888e-07
4.3087e-08
57.4803
166.921
261.295
334.61
384.806
412.965
422.091
416.017
398.641
373.484
343.5
311.038
277.881
245.332
214.296
185.364
158.884
135.02
113.801
95.1601
78.962
65.0297
53.1608
43.142
34.7593
27.8054
22.0847
17.4171
13.6392
10.6058
8.18915
6.27892
4.78061
3.6144
2.71361
2.02309
1.49777
1.10112
0.80387
0.582776
0.419549
0.299936
0.212933
0.150115
0.105094
0.0730633
0.0504423
0.0345831
0.0235455
0.0159194
0.0106886
0.00712679
0.00471892
0.00310289
0.00202612
0.00131383
0.000846023
0.000540997
0.000343536
0.000216626
0.000135645
8.43422e-05
5.2075e-05
3.19262e-05
1.94352e-05
1.17474e-05
7.05005e-06
4.20048e-06
2.48411e-06
1.45732e-06
8.46559e-07
4.84091e-07
2.67314e-07
1.32898e-07
4.00883e-08
43.3764
126.572
199.871
258.887
301.586
328.026
339.75
339.125
328.817
311.415
289.235
264.219
237.922
211.537
185.937
161.733
139.318
118.918
100.627
84.4412
70.2898
58.0524
47.5785
38.701
31.2464
25.0426
19.9246
15.7382
12.3421
9.60968
7.42893
5.7023
4.34599
3.28888
2.47134
1.84395
1.36615
1.00505
0.734205
0.532589
0.383631
0.274401
0.194899
0.137464
0.096278
0.0669614
0.046247
0.0317181
0.0216021
0.0146101
0.00981247
0.00654446
0.0043345
0.00285086
0.00186201
0.00120769
0.000777854
0.000497514
0.000315991
0.000199298
0.00012482
7.76267e-05
4.79381e-05
2.93957e-05
1.78983e-05
1.08206e-05
6.49505e-06
3.87058e-06
2.2895e-06
1.34343e-06
7.80539e-07
4.46413e-07
2.46566e-07
1.22568e-07
3.69568e-08
33.1123
96.9608
154.111
201.367
236.975
260.568
272.873
275.323
269.709
257.901
241.666
222.561
201.892
180.701
159.79
139.743
120.962
103.702
88.0972
74.1897
61.9542
51.3161
42.1677
34.3812
27.8186
22.3391
17.8055
14.0873
11.064
8.62636
6.67718
5.13123
3.91494
2.96561
2.23048
1.66564
1.23502
0.909247
0.664674
0.482459
0.347729
0.248859
0.17685
0.124795
0.0874446
0.060844
0.0420391
0.0288431
0.0196512
0.0132951
0.0089322
0.00595918
0.00394801
0.00259737
0.00169689
0.00110088
0.000709229
0.000453728
0.000288246
0.000181839
0.00011391
7.08566e-05
4.37663e-05
2.68431e-05
1.63474e-05
9.88506e-06
5.93477e-06
3.53743e-06
2.09288e-06
1.22832e-06
7.13792e-07
4.08332e-07
2.25581e-07
1.12135e-07
3.38187e-08
25.4836
74.8194
119.513
157.228
186.537
206.937
218.711
222.709
220.122
212.281
200.509
186.03
169.907
153.026
136.09
119.635
104.045
89.581
76.3963
64.5625
54.0872
44.9302
37.0179
30.2551
24.5339
19.741
15.7636
12.4928
9.82693
7.67278
5.94687
4.57555
3.49489
2.65017
1.99515
1.49124
1.10663
0.815351
0.596465
0.433241
0.312452
0.223745
0.159091
0.112321
0.0787426
0.0548143
0.0378893
0.0260065
0.0177254
0.0119966
0.00806254
0.00538073
0.00356588
0.00234666
0.00153353
0.000995163
0.000641289
0.000410365
0.00026076
0.000164538
0.000103095
6.41437e-05
3.96286e-05
2.43106e-05
1.48083e-05
8.95634e-06
5.37836e-06
3.20647e-06
1.89749e-06
1.11388e-06
6.47437e-07
3.70448e-07
2.04686e-07
1.01802e-07
3.07278e-08
19.7227
58.0238
93.0453
123.073
146.974
164.242
174.93
179.529
178.821
173.747
165.288
154.386
141.892
128.539
114.928
101.53
88.6992
76.6844
65.6453
55.6688
46.7839
38.9757
32.1969
26.3786
21.4379
17.285
13.8283
10.978
8.64904
6.763
5.24883
4.04354
3.09212
2.34727
1.76888
1.32336
0.982897
0.724775
0.530606
0.385676
0.278333
0.199436
0.141889
0.100231
0.0703031
0.048963
0.0338601
0.023251
0.0158537
0.0107339
0.00721656
0.0048178
0.00319386
0.00210249
0.00137437
0.000892131
0.000575049
0.000368073
0.000233945
0.000147653
9.25376e-05
5.75884e-05
3.55867e-05
2.1836e-05
1.33039e-05
8.04823e-06
4.8341e-06
2.88264e-06
1.70623e-06
1.00182e-06
5.82452e-07
3.33379e-07
1.84255e-07
9.1662e-08
2.76545e-08
15.3198
45.1432
72.615
96.469
115.822
130.217
139.594
144.227
144.627
141.453
135.426
127.265
117.639
107.143
96.2784
85.4508
74.9737
65.0758
55.9118
47.5743
40.1052
33.5068
27.7518
22.7916
18.5639
14.9984
12.0217
9.56038
7.54434
5.90801
4.59161
3.54178
2.71165
2.06074
1.55456
1.16414
0.865416
0.638682
0.467945
0.340381
0.245814
0.176249
0.125469
0.0886826
0.0622362
0.0433667
0.0300044
0.0206126
0.0140606
0.00952375
0.00640538
0.00427779
0.00283684
0.00186807
0.00122151
0.000793139
0.000511385
0.000327412
0.000208155
0.000131409
8.2377e-05
5.12774e-05
3.16942e-05
1.9452e-05
1.18541e-05
7.17277e-06
4.30924e-06
2.57026e-06
1.52168e-06
8.93687e-07
5.19713e-07
2.97531e-07
1.64481e-07
8.18395e-08
2.46843e-08
11.9247
35.1844
56.7378
75.6452
91.2234
103.081
111.114
115.464
116.464
114.573
110.316
104.237
96.859
88.6553
80.0376
71.3472
62.8546
54.7635
47.2172
40.3071
34.0815
28.5536
23.7103
19.519
15.9334
12.8995
10.3589
8.25246
6.52283
5.11578
3.98149
3.07517
2.35727
1.79346
1.35437
1.01522
0.755412
0.557981
0.409149
0.29784
0.215245
0.154435
0.110009
0.0778014
0.0546304
0.038087
0.0263645
0.0181205
0.0123662
0.00837952
0.00563803
0.00376673
0.00249881
0.00164603
0.00107667
0.000699303
0.000451014
0.00028884
0.000183682
0.000115989
7.27284e-05
4.52823e-05
2.79953e-05
1.71858e-05
1.04755e-05
6.34003e-06
3.80983e-06
2.27289e-06
1.34596e-06
7.90679e-07
4.59919e-07
2.63337e-07
1.45596e-07
7.24493e-08
2.187e-08
9.2898
27.439
44.3389
59.289
71.7632
81.4387
88.1979
92.1068
93.3794
92.335
89.3562
84.8507
79.221
72.8421
66.0463
59.1158
52.2792
45.7133
39.5466
33.8649
28.7179
24.1253
20.0837
16.5722
13.5574
10.9981
8.84863
7.06168
5.59073
4.3914
3.42257
2.64697
2.03154
1.54741
1.16982
0.877772
0.653755
0.483321
0.354698
0.258404
0.186882
0.134178
0.0956408
0.0676814
0.0475518
0.0331699
0.0229726
0.0157969
0.0107853
0.00731148
0.00492143
0.00328924
0.00218285
0.0014384
0.000941162
0.000611482
0.000394492
0.000252713
0.000160752
0.000101536
6.36819e-05
3.96595e-05
2.45249e-05
1.50588e-05
9.18111e-06
5.55788e-06
3.34058e-06
1.9934e-06
1.18071e-06
6.93738e-07
4.03614e-07
2.31174e-07
1.27832e-07
6.35883e-08
1.91776e-08
7.23581
21.391
34.6251
46.414
56.3542
64.1848
69.7923
73.1994
74.5426
74.0437
71.9797
68.6552
64.3782
59.4421
54.1123
48.6185
43.151
37.8599
32.8573
28.2211
23.9991
20.2141
16.869
13.9515
11.4379
9.29726
7.49411
5.99111
4.75087
3.73737
2.91696
2.25894
1.73588
1.32375
1.00183
0.752488
0.560983
0.415109
0.304897
0.2223
0.160892
0.115599
0.0824528
0.0583853
0.0410448
0.0286469
0.0198505
0.0136568
0.00932859
0.00632674
0.00426037
0.00284855
0.0018911
0.00124659
0.000815936
0.00053029
0.000342215
0.000219288
0.000139528
8.81534e-05
5.53028e-05
3.44495e-05
2.13082e-05
1.30867e-05
7.98055e-06
4.8322e-06
2.90503e-06
1.73391e-06
1.02722e-06
6.0369e-07
3.51311e-07
2.01249e-07
1.11314e-07
5.53704e-08
1.66937e-08
5.63021
16.6566
27.0005
36.2689
44.1527
50.4443
55.0422
57.9455
59.2404
59.0804
57.6661
55.2236
51.9875
48.1852
44.0268
39.697
35.3517
31.1163
27.0867
23.3313
19.8943
16.7991
14.0525
11.648
9.56939
7.79367
6.29366
5.04007
4.00315
3.15392
2.46507
1.91152
1.47073
1.12287
0.85073
0.639657
0.47733
0.353531
0.259892
0.18964
0.137359
0.0987615
0.0704912
0.0499472
0.035134
0.0245355
0.0170107
0.011709
0.00800196
0.00542947
0.00365772
0.0024466
0.00162487
0.00107148
0.000701561
0.000456104
0.00029443
0.000188723
0.000120113
7.59073e-05
4.76322e-05
2.96785e-05
1.83614e-05
1.12795e-05
6.87996e-06
4.16669e-06
2.50547e-06
1.49572e-06
8.8632e-07
5.2101e-07
3.0327e-07
1.73731e-07
9.61107e-08
4.78342e-08
1.44194e-08
4.37334
12.9463
21.0116
28.2743
34.4982
39.5197
43.2519
45.6824
46.8646
46.9049
45.9477
44.161
41.722
38.8061
35.5778
32.1843
28.7517
25.3832
22.1594
19.139
16.3616
13.8496
11.6118
9.64574
7.94056
6.47946
5.24181
4.20483
3.34505
2.63937
2.0658
1.60403
1.23568
0.944518
0.716392
0.539208
0.402766
0.29858
0.219686
0.160434
0.116294
0.0836771
0.0597658
0.0423752
0.029826
0.0208408
0.0144571
0.0099564
0.00680753
0.00462116
0.00311453
0.00208412
0.00138468
0.000913426
0.000598279
0.000389084
0.000251244
0.000161089
0.000102554
6.48272e-05
4.06896e-05
2.53588e-05
1.56924e-05
9.64204e-06
5.88244e-06
3.56329e-06
2.14307e-06
1.27963e-06
7.58413e-07
4.4591e-07
2.5958e-07
1.48741e-07
8.23114e-08
4.09719e-08
1.23636e-08
3.38917
10.0382
16.3089
21.9794
26.8701
30.8527
33.8552
35.8604
36.9008
37.0498
36.4115
35.11
33.2788
31.0522
28.5582
25.9129
23.2172
20.5551
17.9929
15.5805
13.3521
11.3285
9.51902
7.92379
6.53588
5.34318
4.33017
3.47929
2.7722
2.19059
1.71693
1.33489
1.02962
0.787925
0.598278
0.450774
0.337039
0.250087
0.184167
0.134606
0.0976483
0.0703124
0.0502551
0.0356554
0.0251118
0.0175571
0.012186
0.00839671
0.00574396
0.00390099
0.00263032
0.00176084
0.00117035
0.000772324
0.000506035
0.000329202
0.000212642
0.000136378
8.68458e-05
5.4912e-05
3.44746e-05
2.14904e-05
1.33016e-05
8.17468e-06
4.98825e-06
3.02223e-06
1.81803e-06
1.08578e-06
6.43625e-07
3.78483e-07
2.20359e-07
1.26311e-07
6.98963e-08
3.47923e-08
1.05163e-08
2.61906
7.76082
12.6202
17.0306
20.8553
23.995
26.3908
28.0248
28.9159
29.115
28.6968
27.7527
26.3831
24.6901
22.7727
20.7215
18.6167
16.5256
14.5025
12.5887
10.8134
9.19493
7.74257
6.458
5.33698
4.37095
3.54832
2.85569
2.27882
1.80333
1.41534
1.10183
0.850897
0.65191
0.495542
0.373754
0.279725
0.207751
0.153124
0.11201
0.0813199
0.0585984
0.0419121
0.0297558
0.0209699
0.01467
0.0101878
0.00702357
0.00480703
0.00326622
0.00220329
0.00147558
0.000981136
0.000647702
0.000424529
0.000276268
0.000178505
0.000114517
7.29442e-05
4.61337e-05
2.89703e-05
1.80632e-05
1.11827e-05
6.87385e-06
4.19526e-06
2.54225e-06
1.52957e-06
9.13626e-07
5.41684e-07
3.18582e-07
1.85549e-07
1.06366e-07
5.88367e-08
2.93042e-08
8.82704e-09
2.01735
5.98021
9.73227
13.1485
16.1252
18.5857
20.483
21.7999
22.5473
22.7601
22.492
21.8102
20.7897
19.508
18.0408
16.4587
14.8245
13.1919
11.6046
10.0965
8.69176
7.4065
6.24925
5.22249
4.32387
3.54741
2.88456
2.32516
1.85823
1.47258
1.15731
0.902103
0.697499
0.534997
0.407113
0.307373
0.230268
0.171177
0.126278
0.0924481
0.0671706
0.0484385
0.0346696
0.0246304
0.0173688
0.012158
0.00844802
0.00582727
0.00399027
0.00271254
0.00183061
0.00122651
0.000815841
0.00053878
0.000353259
0.000229962
0.00014863
9.53782e-05
6.07694e-05
3.84432e-05
2.41465e-05
1.50587e-05
9.32445e-06
5.73271e-06
3.49942e-06
2.12094e-06
1.27624e-06
7.62402e-07
4.52086e-07
2.65947e-07
1.54895e-07
8.88027e-08
4.91502e-08
2.44747e-08
7.37489e-09
1.54824
4.59118
7.47685
10.1115
12.4168
14.3338
15.8255
16.8765
17.4927
17.698
17.5309
17.0407
16.2832
15.3169
14.1996
12.9857
11.724
10.457
9.21946
8.03868
6.93478
5.92123
5.0057
4.19099
3.476
2.8566
2.32656
1.87825
1.50325
1.19293
0.938763
0.732665
0.567165
0.435519
0.331769
0.250743
0.188025
0.139903
0.103296
0.0756856
0.0550345
0.0397163
0.0284467
0.0202229
0.0142697
0.00999461
0.00694873
0.00479564
0.0032855
0.0022345
0.00150867
0.00101123
0.000672908
0.00044455
0.000291576
0.000189869
0.000122753
7.8794e-05
5.02158e-05
3.17743e-05
1.9962e-05
1.24516e-05
7.71157e-06
4.74192e-06
2.89508e-06
1.75489e-06
1.05612e-06
6.30999e-07
3.74205e-07
2.20147e-07
1.28228e-07
7.35173e-08
4.07238e-08
2.02906e-08
6.14337e-09
1.18352
3.51069
5.72069
7.74335
9.51964
11.0046
12.1692
13.0005
13.5012
13.6876
13.5874
13.2365
12.6765
11.9512
11.1044
10.1777
9.20916
8.23167
7.27276
6.35428
5.49255
4.69875
3.97956
3.33776
2.77302
2.2826
1.86195
1.50539
1.20655
0.958766
0.755462
0.590329
0.457514
0.351709
0.268208
0.202908
0.152301
0.113425
0.0838185
0.0614646
0.0447286
0.0323028
0.023153
0.0164705
0.0116293
0.00815009
0.00566952
0.00391488
0.00268344
0.0018259
0.00123334
0.000827022
0.000550544
0.000363844
0.000238722
0.0001555
0.000100562
6.4567e-05
4.11589e-05
2.60494e-05
1.63687e-05
1.02122e-05
6.32569e-06
3.89033e-06
2.37546e-06
1.44011e-06
8.66802e-07
5.17951e-07
3.07192e-07
1.80722e-07
1.05307e-07
6.04052e-08
3.34554e-08
1.66761e-08
5.03038e-09
0.900882
2.67302
4.35801
5.90348
7.26511
8.40877
9.31189
9.96384
10.3655
10.528
10.4712
10.2213
9.80888
9.2668
8.6281
7.92448
7.18504
6.43535
5.69693
4.98705
4.31881
3.70135
3.14031
2.63831
2.19549
1.81002
1.47868
1.19723
0.960878
0.764551
0.603185
0.471903
0.36615
0.281781
0.215104
0.162895
0.122383
0.0912251
0.0674712
0.0495172
0.0360622
0.026063
0.0186937
0.0133071
0.0094016
0.00659277
0.00458876
0.00317028
0.00217414
0.00148005
0.00100016
0.000670944
0.000446815
0.000295397
0.000193877
0.000126327
8.1719e-05
5.24821e-05
3.34631e-05
2.11832e-05
1.33135e-05
8.30746e-06
5.14666e-06
3.16561e-06
1.93317e-06
1.1721e-06
7.05541e-07
4.21633e-07
2.50105e-07
1.4715e-07
8.5725e-08
4.9182e-08
2.72264e-08
1.3549e-08
4.09521e-09
0.682665
2.02602
3.30473
4.4798
5.51806
6.39374
7.08948
7.59669
7.91527
8.05283
8.02346
7.84629
7.54383
7.14051
6.66112
6.12965
5.56829
4.99668
4.43153
3.88636
3.37156
2.8945
2.45986
2.06996
1.72521
1.42445
1.16537
0.944862
0.759338
0.60496
0.47786
0.374291
0.290737
0.223983
0.171158
0.129741
0.0975646
0.0727899
0.0538817
0.0395757
0.028844
0.0208615
0.0149733
0.0106657
0.0075401
0.00529053
0.00368442
0.00254683
0.00174745
0.00119013
0.000804597
0.00053997
0.000359729
0.000237906
0.000156195
0.000101804
6.58733e-05
4.23159e-05
2.6987e-05
1.7087e-05
1.0741e-05
6.70326e-06
4.15335e-06
2.55494e-06
1.56042e-06
9.46161e-07
5.69563e-07
3.40384e-07
2.0191e-07
1.1879e-07
6.91927e-08
3.96624e-08
2.19666e-08
1.09487e-08
3.33017e-09
0.514872
1.52837
2.49404
3.38295
4.17038
4.83697
5.36946
5.76104
6.01112
6.12487
6.11232
5.98732
5.76643
5.4677
5.10966
4.71035
4.28656
3.8533
3.4234
3.00738
2.61336
2.24724
1.91281
1.6121
1.34561
1.11262
0.911515
0.74003
0.595489
0.475008
0.375655
0.294572
0.229063
0.176654
0.135125
0.102526
0.077169
0.0576235
0.0426905
0.0313807
0.0228885
0.0165661
0.0118984
0.00848089
0.00599926
0.00421185
0.00293483
0.00202973
0.00139333
0.000949389
0.000642119
0.000431102
0.000287308
0.000190075
0.000124831
8.13855e-05
5.26749e-05
3.38454e-05
2.15894e-05
1.3672e-05
8.59559e-06
5.36511e-06
3.3246e-06
2.04537e-06
1.24927e-06
7.57522e-07
4.56033e-07
2.72538e-07
1.6166e-07
9.51261e-08
5.54e-08
3.17398e-08
1.75761e-08
8.76557e-09
2.64306e-09
0.386419
1.14728
1.87288
2.54182
3.13575
3.64019
4.04512
4.34518
4.53961
4.6319
4.62916
4.54143
4.38079
4.16056
3.89449
3.59607
3.27794
2.95146
2.62645
2.31098
2.01136
1.73224
1.47668
1.24635
1.0418
0.862597
0.707625
0.575237
0.463457
0.370131
0.29305
0.23005
0.17908
0.138247
0.105851
0.0803886
0.0605611
0.0452607
0.0335589
0.0246875
0.0180201
0.0130517
0.00938054
0.00669053
0.00473567
0.00332665
0.00231928
0.00160484
0.00110219
0.000751351
0.000508391
0.000341454
0.000227645
0.000150654
9.89713e-05
6.45435e-05
4.17847e-05
2.6854e-05
1.7133e-05
1.08516e-05
6.82339e-06
4.25945e-06
2.63972e-06
1.62411e-06
9.9202e-07
6.01547e-07
3.62136e-07
2.16437e-07
1.28374e-07
7.55391e-08
4.39804e-08
2.52156e-08
1.39562e-08
6.93365e-09
2.07669e-09
0.288543
0.856835
1.39921
1.89992
2.34541
2.7249
3.03085
3.25911
3.40892
3.4826
3.48519
3.42393
3.30762
3.14603
2.94931
2.72749
2.49002
2.24547
2.00125
1.76353
1.53717
1.32578
1.1318
0.956596
0.80068
0.663829
0.545262
0.443798
0.357987
0.286229
0.226873
0.178291
0.138931
0.107359
0.082279
0.0625441
0.0471591
0.0352742
0.0261753
0.0192706
0.0140764
0.0102025
0.00733761
0.00523675
0.00370888
0.00260685
0.00181842
0.00125891
0.000865019
0.000589934
0.000399335
0.000268311
0.000178944
0.000118462
7.78461e-05
5.07802e-05
3.28822e-05
2.11369e-05
1.34878e-05
8.54416e-06
5.37312e-06
3.35444e-06
2.079e-06
1.27917e-06
7.81341e-07
4.73798e-07
2.85226e-07
1.70434e-07
1.01063e-07
5.94733e-08
3.46419e-08
1.988e-08
1.09915e-08
5.46833e-09
1.64423e-09
0.214333
0.636564
1.03983
1.41257
1.74483
2.02862
2.25831
2.43073
2.54515
2.60315
2.60829
2.56574
2.4819
2.3639
2.2192
2.05522
1.87898
1.69687
1.51448
1.33647
1.16657
1.00753
0.861275
0.728914
0.610897
0.507121
0.417054
0.33985
0.274453
0.219683
0.174314
0.137129
0.106963
0.0827356
0.0634665
0.0482868
0.03644
0.0272789
0.0202583
0.0149256
0.0109104
0.00791319
0.00569489
0.00406689
0.00288204
0.00202682
0.00141457
0.000979801
0.000673554
0.000459557
0.000311207
0.000209176
0.000139553
9.24141e-05
6.07459e-05
3.96355e-05
2.56712e-05
1.65048e-05
1.05337e-05
6.67367e-06
4.19727e-06
2.62055e-06
1.62421e-06
9.99364e-07
6.10433e-07
3.70136e-07
2.22813e-07
1.3312e-07
7.89407e-08
4.64413e-08
2.70585e-08
1.55038e-08
8.54715e-09
4.25766e-09
1.29848e-09
0.158355
0.470378
0.768575
1.04452
1.2909
1.50185
1.67319
1.80252
1.8892
1.93429
1.94028
1.9109
1.85074
1.76499
1.65912
1.53856
1.40851
1.27371
1.13833
1.00587
0.879154
0.760293
0.65076
0.551444
0.46273
0.384586
0.316652
0.258329
0.208849
0.167351
0.132927
0.104676
0.0817281
0.0632755
0.0485824
0.0369947
0.0279416
0.0209338
0.0155581
0.0114711
0.00839113
0.00609008
0.00438567
0.00313385
0.00222212
0.00156358
0.00109183
0.000756623
0.00052037
0.000355193
0.000240627
0.000161795
0.000107978
7.15264e-05
4.70286e-05
3.06925e-05
1.98831e-05
1.27857e-05
8.16126e-06
5.17121e-06
3.25261e-06
2.03086e-06
1.25874e-06
7.74464e-07
4.73041e-07
2.86817e-07
1.72634e-07
1.03156e-07
6.11867e-08
3.59601e-08
2.09392e-08
1.19838e-08
6.61534e-09
3.28188e-09
9.87856e-10
0.116356
0.345669
0.564948
0.76807
0.949707
1.10557
1.23257
1.32891
1.39406
1.4287
1.43461
1.41443
1.37147
1.30947
1.23241
1.14427
1.04886
0.949669
0.849799
0.751861
0.657962
0.569707
0.488225
0.414209
0.347981
0.289547
0.238668
0.194921
0.157754
0.126538
0.100611
0.0793043
0.0619769
0.0480272
0.0369072
0.0281279
0.0212619
0.0159418
0.0118569
0.0087485
0.00640394
0.00465089
0.00335137
0.0023962
0.00170004
0.00119687
0.000836179
0.000579739
0.000398895
0.00027239
0.000184603
0.000124169
8.28939e-05
5.49259e-05
3.6123e-05
2.35804e-05
1.52787e-05
9.82642e-06
6.27316e-06
3.97523e-06
2.50052e-06
1.56132e-06
9.67731e-07
5.95397e-07
3.63651e-07
2.20491e-07
1.32698e-07
7.9282e-08
4.70044e-08
2.76424e-08
1.60856e-08
9.2156e-09
5.10173e-09
2.54208e-09
7.38697e-10
0.0850184
0.2526
0.412935
0.561594
0.694714
0.809174
0.902711
0.97398
1.02256
1.04891
1.05425
1.04047
1.00993
0.965333
0.909551
0.845472
0.775877
0.703332
0.630112
0.558151
0.489019
0.423919
0.363706
0.308919
0.259815
0.216423
0.178584
0.146003
0.118284
0.0949729
0.0755857
0.0596347
0.0466472
0.0361797
0.0278264
0.0212246
0.0160563
0.0120479
0.00896735
0.00662111
0.00484995
0.00352456
0.00254131
0.00181808
0.0012906
0.000909087
0.000635439
0.000440767
0.000303406
0.000207268
0.000140521
9.45504e-05
6.31404e-05
4.18486e-05
2.75292e-05
1.79743e-05
1.16483e-05
7.49265e-06
4.7838e-06
3.03166e-06
1.90708e-06
1.19079e-06
7.38057e-07
4.54078e-07
2.77319e-07
1.68131e-07
1.01177e-07
6.04337e-08
3.58098e-08
2.10732e-08
1.22867e-08
7.05219e-09
3.88776e-09
1.94278e-09
5.77347e-10
0.0617673
0.183538
0.300099
0.408264
0.505246
0.588786
0.657236
0.709604
0.745558
0.765395
0.769971
0.760613
0.73901
0.707096
0.666935
0.620614
0.57015
0.517411
0.464061
0.411521
0.36095
0.313244
0.269045
0.228763
0.192605
0.160605
0.132661
0.108567
0.0880413
0.0707578
0.056366
0.0445111
0.0348478
0.027051
0.0208225
0.015895
0.0120337
0.00903623
0.00673052
0.00497293
0.00364505
0.0026506
0.00191231
0.00136887
0.000972241
0.000685191
0.000479171
0.000332524
0.000228993
0.000156495
0.000106137
7.14382e-05
4.77203e-05
3.16368e-05
2.08163e-05
1.3594e-05
8.81109e-06
5.66835e-06
3.61935e-06
2.29384e-06
1.44297e-06
9.00997e-07
5.58428e-07
3.43544e-07
2.09763e-07
1.27156e-07
7.65204e-08
4.56817e-08
2.70694e-08
1.59089e-08
9.27377e-09
5.32784e-09
2.94271e-09
1.44446e-09
4.4673e-10
0.0446157
0.132586
0.21683
0.295067
0.365296
0.425894
0.475666
0.513886
0.540297
0.555091
0.558864
0.552549
0.537343
0.514624
0.485869
0.452577
0.416201
0.378093
0.339462
0.301344
0.264589
0.229858
0.197629
0.168212
0.141767
0.118332
0.0978385
0.0801454
0.0650541
0.0523311
0.0417245
0.0329776
0.0258401
0.0200751
0.0154651
0.0118144
0.00895113
0.0067263
0.00501347
0.00370673
0.00271869
0.00197818
0.00142802
0.00102277
0.000726812
0.00051248
0.000358559
0.000248934
0.000171499
0.000117248
7.95469e-05
5.35582e-05
3.57867e-05
2.37312e-05
1.5618e-05
1.02011e-05
6.61292e-06
4.25469e-06
2.71692e-06
1.72197e-06
1.08323e-06
6.76351e-07
4.1917e-07
2.57846e-07
1.57417e-07
9.5395e-08
5.73966e-08
3.42698e-08
2.03147e-08
1.193e-08
6.91938e-09
3.96459e-09
2.19633e-09
1.07896e-09
3.41359e-10
0.0320381
0.0952168
0.155745
0.211996
0.262545
0.306228
0.342187
0.369893
0.389152
0.400087
0.40311
0.398874
0.388225
0.372138
0.351664
0.327875
0.30181
0.274442
0.246642
0.219163
0.192621
0.167502
0.144157
0.122819
0.10361
0.0865638
0.0716392
0.0587377
0.0477203
0.0384211
0.03066
0.024253
0.0190192
0.0147877
0.0114006
0.00871593
0.00660832
0.00496926
0.00370635
0.00274208
0.00201242
0.00146516
0.00105827
0.000758368
0.000539195
0.000380376
0.000266253
0.000184929
0.000127455
8.71686e-05
5.91595e-05
3.98436e-05
2.66301e-05
1.76633e-05
1.1627e-05
7.59557e-06
4.92452e-06
3.16869e-06
2.02356e-06
1.28256e-06
8.06786e-07
5.03694e-07
3.12129e-07
1.91971e-07
1.17199e-07
7.09884e-08
4.26885e-08
2.55031e-08
1.51274e-08
8.89729e-09
5.161e-09
2.93613e-09
1.63216e-09
8.17725e-10
2.46964e-10
0.0228698
0.0679744
0.111203
0.151403
0.187564
0.218857
0.24467
0.26462
0.278562
0.286575
0.288941
0.286118
0.278698
0.267368
0.252874
0.235973
0.217409
0.197874
0.177994
0.15831
0.139268
0.121219
0.104421
0.0890465
0.0751882
0.0628748
0.0520807
0.0427389
0.0347522
0.0280036
0.0223653
0.0177058
0.0138958
0.0108124
0.00834206
0.00638222
0.0048423
0.00364373
0.00271946
0.00201321
0.0014784
0.00107698
0.000778328
0.00055805
0.000396969
0.000280175
0.000196203
0.000136332
9.39975e-05
6.43093e-05
4.36595e-05
2.94131e-05
1.96638e-05
1.30456e-05
8.58897e-06
5.61181e-06
3.63879e-06
2.34158e-06
1.49542e-06
9.4782e-07
5.96198e-07
3.72198e-07
2.30606e-07
1.41798e-07
8.6534e-08
5.23948e-08
3.15005e-08
1.88055e-08
1.11452e-08
6.55058e-09
3.81642e-09
2.1634e-09
1.20848e-09
6.21251e-10
1.8879e-10
0.0162273
0.048235
0.0789221
0.107477
0.133185
0.155462
0.173872
0.188142
0.198162
0.203985
0.205802
0.203932
0.198788
0.190853
0.18065
0.168714
0.155572
0.141714
0.127587
0.113576
0.100002
0.0871189
0.0751127
0.0641091
0.0541788
0.0453449
0.0375921
0.0308749
0.0251259
0.020263
0.0161959
0.0128317
0.0100781
0.0078476
0.00605895
0.00463872
0.00352185
0.00265185
0.00198043
0.001467
0.00107792
0.000785684
0.000568114
0.000407539
0.000290044
0.000204803
0.000143483
9.97395e-05
6.87938e-05
4.70821e-05
3.1974e-05
2.15466e-05
1.44083e-05
9.56099e-06
6.29588e-06
4.11416e-06
2.66796e-06
1.71696e-06
1.09652e-06
6.94967e-07
4.37142e-07
2.72872e-07
1.69034e-07
1.03917e-07
6.33819e-08
3.83738e-08
2.30522e-08
1.37499e-08
8.12237e-09
4.7472e-09
2.7627e-09
1.59703e-09
8.94558e-10
4.4673e-10
1.4269e-10
0.0114444
0.0340205
0.055672
0.0758301
0.0939942
0.109753
0.122798
0.132936
0.140088
0.144284
0.145657
0.144426
0.140879
0.135352
0.128211
0.119832
0.110584
0.100814
0.090838
0.0809293
0.0713164
0.0621801
0.0536553
0.0458331
0.0387656
0.0324713
0.0269413
0.0221448
0.0180355
0.0145561
0.0116433
0.00923155
0.00725579
0.00565393
0.00436828
0.00334658
0.00254248
0.00191562
0.00143148
0.00106099
0.000780035
0.000568869
0.000411554
0.000295376
0.000210318
0.000148574
0.000104133
7.24143e-05
4.99647e-05
3.4207e-05
2.32373e-05
1.56634e-05
1.04766e-05
6.9534e-06
4.57955e-06
2.99295e-06
1.94103e-06
1.24919e-06
7.97792e-07
5.05632e-07
3.18018e-07
1.98487e-07
1.22915e-07
7.55622e-08
4.60912e-08
2.79256e-08
1.67738e-08
9.97185e-09
5.88103e-09
3.44871e-09
1.99218e-09
1.15908e-09
6.4979e-10
3.20504e-10
8.8907e-11
0.00802197
0.0238481
0.0390307
0.0531734
0.0659269
0.0770037
0.086188
0.0933428
0.0984103
0.10141