/*--------------------------------*- C++ -*----------------------------------*\
  =========                 |
  \\      /  F ield         | OpenFOAM: The Open Source CFD Toolbox
   \\    /   O peration     | Website:  https://openfoam.org
    \\  /    A nd           | Version:  10
     \\/     M anipulation  |
\*---------------------------------------------------------------------------*/
FoamFile
{
    format      ascii;
    class       volScalarField;
    location    "309";
    object      gradTz;
}
// * * * * * * * * * * * * * * * * * * * * * * * * * * * * * * * * * * * * * //

dimensions      [0 -1 0 1 0 0 0];

internalField   nonuniform List<scalar> 
11250
(
-14349.7
-4145.18
-1524.94
-721.434
-416.791
-275.237
-197.915
-150.44
-118.741
-96.2136
-79.4148
-66.403
-56.0157
-47.5243
-40.4539
-34.4849
-29.3949
-25.0252
-21.2584
-18.0051
-15.1949
-12.7707
-10.6847
-8.89588
-7.36827
-6.06997
-4.97238
-4.04971
-3.27871
-2.63845
-2.11016
-1.67713
-1.32456
-1.03945
-0.810466
-0.627843
-0.48321
-0.369466
-0.280645
-0.211775
-0.158752
-0.118219
-0.087452
-0.064264
-0.0469113
-0.0340171
-0.0245034
-0.0175334
-0.0124628
-0.00879984
-0.0061723
-0.00430063
-0.00297668
-0.00204668
-0.00139793
-0.000948507
-0.00063932
-0.000428073
-0.000284736
-0.000188145
-0.0001235
-8.05315e-05
-5.21664e-05
-3.35691e-05
-2.14592e-05
-1.36275e-05
-8.59732e-06
-5.38885e-06
-3.35694e-06
-2.08009e-06
-1.28522e-06
-7.97281e-07
-5.05695e-07
-3.42836e-07
-2.70148e-07
-8253.17
-4850.93
-2757.73
-1665.12
-1086.99
-761.217
-563.675
-435.365
-346.914
-282.818
-234.407
-196.573
-166.178
-141.212
-120.35
-102.689
-87.5981
-74.6209
-63.4198
-53.7357
-45.3638
-38.1371
-31.9151
-26.5771
-22.017
-18.1403
-14.862
-12.1056
-9.8018
-7.8884
-6.30942
-5.015
-3.96097
-3.10853
-2.42387
-1.87778
-1.44526
-1.1051
-0.839459
-0.633476
-0.474884
-0.353643
-0.261613
-0.19225
-0.140341
-0.101769
-0.073308
-0.0524563
-0.0372866
-0.0263281
-0.018467
-0.0128673
-0.00890623
-0.00612373
-0.0041827
-0.00283803
-0.00191293
-0.00128086
-0.000851982
-0.000562968
-0.00036954
-0.000240971
-0.000156096
-0.000100449
-6.4213e-05
-4.07783e-05
-2.57263e-05
-1.61255e-05
-1.00453e-05
-6.22455e-06
-3.84597e-06
-2.38576e-06
-1.51329e-06
-1.02601e-06
-8.08434e-07
-5557.78
-4246.55
-2988.89
-2093.35
-1503.95
-1118.19
-859.54
-679.891
-550.323
-453.46
-378.666
-319.274
-270.99
-230.976
-197.312
-168.665
-144.087
-122.884
-104.537
-88.6435
-74.8815
-62.9865
-52.7346
-43.9316
-36.4059
-30.0042
-24.5881
-20.0322
-16.2231
-13.0584
-10.4461
-8.30415
-6.55961
-5.14847
-4.0149
-3.11063
-2.39433
-1.83093
-1.3909
-1.04967
-0.786929
-0.586051
-0.433561
-0.318623
-0.232602
-0.168678
-0.121509
-0.0869501
-0.0618072
-0.0436433
-0.0306131
-0.0213309
-0.0147647
-0.0101521
-0.00693435
-0.00470516
-0.0031715
-0.00212362
-0.00141258
-0.000933409
-0.000612712
-0.000399546
-0.000258822
-0.000166556
-0.000106474
-6.76168e-05
-4.26588e-05
-2.67392e-05
-1.66574e-05
-1.03218e-05
-6.37763e-06
-3.95626e-06
-2.50949e-06
-1.70145e-06
-1.34071e-06
-4171.79
-3586.82
-2856.22
-2213.82
-1715.82
-1346.76
-1075.31
-873.441
-720.349
-601.566
-507.271
-430.814
-367.663
-314.689
-269.702
-231.138
-197.862
-169.027
-143.986
-122.231
-103.351
-87.0022
-72.8899
-60.7567
-50.3734
-41.5332
-34.0483
-27.7484
-22.4784
-18.098
-14.4808
-11.5138
-9.09655
-7.14078
-5.56934
-4.31553
-3.32217
-2.54071
-1.93029
-1.45686
-1.09228
-0.81352
-0.601884
-0.442351
-0.322945
-0.234206
-0.168722
-0.120741
-0.0858306
-0.0606092
-0.0425153
-0.0296253
-0.0205066
-0.0141007
-0.00963168
-0.00653557
-0.0044054
-0.00294991
-0.00196225
-0.00129666
-0.000851177
-0.000555059
-0.000359569
-0.000231393
-0.000147925
-9.39425e-05
-5.92686e-05
-3.71512e-05
-2.3144e-05
-1.43415e-05
-8.8615e-06
-5.49722e-06
-3.48703e-06
-2.36427e-06
-1.86302e-06
-3368.22
-3070.21
-2632.96
-2187.67
-1796.72
-1475.93
-1219.95
-1016.98
-855.121
-724.539
-617.684
-528.974
-454.342
-390.831
-336.284
-289.109
-248.117
-212.397
-181.239
-154.074
-130.429
-109.906
-92.1565
-76.872
-63.7744
-52.6108
-43.1499
-35.1805
-28.5093
-22.961
-18.3771
-14.6155
-11.5497
-9.06839
-7.07406
-5.48242
-4.2211
-3.22863
-2.45325
-1.85178
-1.38852
-1.03425
-0.765264
-0.562473
-0.410674
-0.29785
-0.214586
-0.153571
-0.109175
-0.077098
-0.0540844
-0.0376886
-0.0260892
-0.0179401
-0.0122548
-0.00831577
-0.00560557
-0.00375369
-0.002497
-0.00165007
-0.0010832
-0.000706385
-0.000457611
-0.000294493
-0.000188269
-0.000119567
-7.54368e-05
-4.7287e-05
-2.94589e-05
-1.82551e-05
-1.128e-05
-6.99769e-06
-4.43892e-06
-3.00977e-06
-2.37172e-06
-2859.4
-2689.67
-2414.68
-2104.35
-1804.86
-1538
-1309.66
-1117.81
-957.416
-822.963
-709.503
-612.962
-530.133
-458.538
-396.279
-341.9
-294.272
-252.506
-215.889
-183.832
-155.836
-131.469
-110.347
-92.1248
-76.485
-63.137
-51.8125
-42.264
-34.2645
-27.6068
-22.103
-17.5842
-13.8995
-10.9161
-8.51729
-6.60226
-5.08424
-3.88949
-2.95585
-2.23147
-1.67344
-1.24663
-0.922505
-0.678115
-0.495154
-0.359152
-0.258772
-0.185207
-0.131675
-0.0929933
-0.065239
-0.0454644
-0.0314735
-0.0216437
-0.0147854
-0.0100335
-0.00676374
-0.00452943
-0.00301315
-0.00199123
-0.00130721
-0.000852492
-0.000552281
-0.000355429
-0.000227232
-0.000144316
-9.10543e-05
-5.70784e-05
-3.55599e-05
-2.20364e-05
-1.36169e-05
-8.4477e-06
-5.35889e-06
-3.63365e-06
-2.86344e-06
-2516.38
-2410.55
-2228.08
-2006.74
-1777.26
-1558.78
-1360.53
-1185.28
-1032.32
-899.402
-783.858
-683.125
-594.973
-517.548
-449.344
-389.148
-335.981
-289.04
-247.657
-211.265
-179.365
-151.517
-127.317
-106.395
-88.4061
-73.0309
-59.97
-48.9456
-39.7012
-32.0013
-25.6315
-20.3984
-16.1292
-12.6707
-9.88893
-7.66729
-5.90566
-4.51875
-3.43468
-2.59337
-1.94513
-1.44922
-1.07256
-0.788513
-0.575828
-0.41771
-0.300992
-0.215444
-0.153185
-0.108193
-0.0759075
-0.0529027
-0.0366252
-0.0251879
-0.0172075
-0.0116777
-0.00787258
-0.00527223
-0.00350745
-0.00231799
-0.00152178
-0.000992467
-0.000642988
-0.000413821
-0.000264572
-0.000168037
-0.000106024
-6.64648e-05
-4.14089e-05
-2.56619e-05
-1.58577e-05
-9.83829e-06
-6.24126e-06
-4.23212e-06
-3.33515e-06
-2274.61
-2203.58
-2076.08
-1913.26
-1735.02
-1556.12
-1385.65
-1228.23
-1085.48
-957.313
-842.769
-740.574
-649.416
-568.082
-495.507
-430.778
-373.114
-321.847
-276.391
-236.227
-200.886
-169.934
-142.964
-119.595
-99.4648
-82.2316
-67.5723
-55.1843
-44.7861
-36.1175
-28.9409
-23.0411
-18.2252
-14.3218
-11.1807
-8.67114
-6.68044
-5.11269
-3.8869
-2.93535
-2.202
-1.64086
-1.21457
-0.893026
-0.652231
-0.473187
-0.341004
-0.244108
-0.173581
-0.122609
-0.086029
-0.0599613
-0.0415149
-0.0285526
-0.0195074
-0.0132393
-0.00892585
-0.00597792
-0.00397713
-0.00262852
-0.00172573
-0.00112553
-0.000729225
-0.000469341
-0.000300081
-0.000190597
-0.000120264
-7.53941e-05
-4.69738e-05
-2.91117e-05
-1.79902e-05
-1.11618e-05
-7.0812e-06
-4.80189e-06
-3.78425e-06
-2098.68
-2048
-1954.52
-1830.65
-1689.31
-1541.37
-1394.61
-1253.98
-1122.15
-1000.28
-888.612
-786.834
-694.407
-610.702
-535.081
-466.942
-405.727
-350.923
-302.052
-258.665
-220.337
-186.657
-157.231
-131.673
-109.615
-90.6989
-74.5853
-60.9516
-49.4954
-39.936
-32.0156
-25.4996
-20.1774
-15.8614
-12.3865
-9.60893
-7.40484
-5.66842
-4.31031
-3.25576
-2.4428
-1.8206
-1.34782
-0.991147
-0.723991
-0.525314
-0.378613
-0.27106
-0.192766
-0.136173
-0.0955546
-0.0666061
-0.0461191
-0.0317216
-0.021674
-0.0147108
-0.00991848
-0.00664311
-0.00441994
-0.00292132
-0.00191807
-0.00125103
-0.000810579
-0.000521726
-0.000333589
-0.000211889
-0.000133704
-8.38235e-05
-5.22279e-05
-3.23692e-05
-2.00041e-05
-1.24118e-05
-7.87463e-06
-5.34022e-06
-4.20864e-06
-1967.65
-1929.56
-1857.94
-1760.44
-1645.62
-1521.36
-1394
-1268.1
-1146.7
-1031.6
-923.761
-823.574
-731.094
-646.178
-568.57
-497.962
-434.017
-376.382
-324.699
-278.602
-237.719
-201.677
-170.099
-142.609
-118.835
-98.4127
-80.9905
-66.2309
-53.815
-43.4449
-34.8455
-27.7658
-21.9793
-17.284
-13.5018
-10.4773
-8.07622
-6.1839
-4.70336
-3.55339
-2.66663
-1.98778
-1.47183
-1.0825
-0.790837
-0.573892
-0.413676
-0.296197
-0.210665
-0.148832
-0.104448
-0.0728116
-0.0504201
-0.0346827
-0.0236989
-0.0160863
-0.0108466
-0.00726522
-0.00483415
-0.00319528
-0.00209806
-0.0013685
-0.000886734
-0.000570772
-0.000364966
-0.000231829
-0.000146293
-9.17203e-05
-5.71507e-05
-3.54218e-05
-2.18916e-05
-1.35836e-05
-8.61849e-06
-5.84496e-06
-4.60665e-06
-1868.39
-1838.42
-1781.33
-1702.01
-1606.31
-1500
-1388.12
-1274.66
-1162.62
-1054.06
-950.38
-852.421
-760.674
-675.375
-596.591
-524.271
-458.281
-398.427
-344.468
-296.124
-253.088
-215.026
-181.587
-152.41
-127.126
-105.371
-86.7841
-71.0176
-57.74
-46.6394
-37.4264
-29.8357
-23.6274
-18.587
-14.5246
-11.2744
-8.69309
-6.65796
-5.06512
-3.82754
-2.87294
-2.14197
-1.58627
-1.16686
-0.852594
-0.618794
-0.446101
-0.319452
-0.22723
-0.160553
-0.112684
-0.0785607
-0.0544061
-0.0374276
-0.0255766
-0.0173621
-0.0117077
-0.00784251
-0.0052186
-0.0034496
-0.00226518
-0.00147759
-0.000957473
-0.000616337
-0.000394122
-0.000250361
-0.000157995
-9.90616e-05
-6.1728e-05
-3.82605e-05
-2.36472e-05
-1.46736e-05
-9.31056e-06
-6.31466e-06
-4.97707e-06
-1792.24
-1767.72
-1720.53
-1653.97
-1572.17
-1479.41
-1379.7
-1276.47
-1172.5
-1069.92
-970.328
-874.857
-784.297
-699.173
-619.805
-546.359
-478.881
-417.32
-361.547
-311.369
-266.54
-226.771
-191.741
-161.108
-134.511
-111.588
-91.975
-75.3172
-61.2735
-49.5211
-39.7587
-31.7094
-25.1216
-19.7698
-15.4542
-11.9998
-9.25503
-7.09021
-5.39528
-4.07794
-3.06153
-2.28301
-1.69102
-1.24412
-0.909185
-0.659961
-0.475843
-0.340793
-0.242439
-0.171318
-0.120252
-0.0838449
-0.0580709
-0.0399522
-0.027304
-0.0185361
-0.0125003
-0.00837403
-0.00557265
-0.00368387
-0.00241916
-0.00157813
-0.00102268
-0.000658343
-0.000421005
-0.000267452
-0.000168789
-0.000105834
-6.59514e-05
-4.08803e-05
-2.52676e-05
-1.56799e-05
-9.94965e-06
-6.74848e-06
-5.31917e-06
-1733.28
-1712.5
-1672.22
-1614.77
-1543.14
-1460.62
-1370.42
-1275.46
-1178.27
-1080.94
-985.14
-892.167
-803.013
-718.408
-638.868
-564.736
-496.209
-433.36
-376.164
-324.506
-278.201
-237.006
-200.632
-168.754
-141.027
-117.091
-96.5832
-79.1441
-64.4259
-52.0974
-41.8479
-33.3907
-26.4644
-20.8344
-16.2919
-12.6542
-9.7626
-7.48103
-5.69406
-4.30474
-3.23248
-2.41096
-1.78611
-1.3143
-0.960623
-0.6974
-0.502906
-0.360221
-0.25629
-0.181126
-0.12715
-0.0886634
-0.0614139
-0.0422559
-0.0288808
-0.0196081
-0.0132242
-0.00885962
-0.00589619
-0.003898
-0.00255993
-0.00167006
-0.00108231
-0.000696772
-0.000445604
-0.000283094
-0.000178669
-0.000112035
-6.98188e-05
-4.32796e-05
-2.67519e-05
-1.66019e-05
-1.05353e-05
-7.14608e-06
-5.63281e-06
-1687.33
-1669.19
-1633.82
-1582.94
-1518.83
-1444.05
-1361.24
-1272.9
-1181.31
-1088.47
-996.048
-905.433
-817.739
-733.84
-654.401
-579.901
-510.66
-446.86
-388.562
-335.725
-288.219
-245.845
-208.345
-175.416
-146.724
-121.919
-100.638
-82.5199
-67.2134
-54.3804
-43.7029
-34.8862
-27.6608
-21.7842
-17.0404
-13.2397
-10.2172
-7.83145
-5.96222
-4.50848
-3.38617
-2.52608
-1.87173
-1.37754
-1.007
-0.731175
-0.527333
-0.377766
-0.268806
-0.189992
-0.133388
-0.0930226
-0.0644394
-0.0443416
-0.0303089
-0.0205793
-0.0138803
-0.00929979
-0.00618956
-0.00409222
-0.00268764
-0.00175348
-0.00113644
-0.000731659
-0.000467939
-0.000297299
-0.000187644
-0.000117669
-7.33332e-05
-4.54604e-05
-2.81013e-05
-1.74402e-05
-1.10678e-05
-7.50773e-06
-5.91817e-06
-1651.36
-1635.1
-1603.27
-1557.21
-1498.68
-1429.78
-1352.69
-1269.61
-1182.59
-1093.51
-1004.02
-915.539
-829.256
-746.143
-666.97
-592.323
-522.619
-458.13
-398.991
-345.224
-296.752
-253.413
-214.978
-181.168
-151.662
-126.117
-104.174
-85.4722
-69.657
-56.3862
-45.3359
-36.2051
-28.7177
-22.6246
-17.7036
-13.7591
-10.621
-8.14304
-6.20091
-4.69
-3.52323
-2.62882
-1.94821
-1.43406
-1.04848
-0.761401
-0.549207
-0.393485
-0.280024
-0.197944
-0.138985
-0.0969355
-0.0671563
-0.0462151
-0.0315921
-0.0214523
-0.0144702
-0.00969573
-0.00645351
-0.004267
-0.00280261
-0.0018286
-0.00118519
-0.000763087
-0.000488065
-0.000310102
-0.000195735
-0.000122748
-7.65025e-05
-4.74273e-05
-2.93186e-05
-1.81966e-05
-1.15485e-05
-7.83426e-06
-6.1758e-06
-1623.11
-1608.22
-1578.98
-1536.47
-1482.12
-1417.68
-1345.03
-1266.1
-1182.77
-1096.8
-1009.8
-923.199
-838.218
-755.895
-677.077
-602.429
-532.445
-467.467
-407.695
-353.203
-303.959
-259.837
-220.636
-186.094
-155.906
-129.736
-107.232
-88.032
-71.781
-58.1335
-46.7614
-37.3585
-29.6436
-23.362
-18.2863
-14.2161
-10.9767
-8.41784
-6.41164
-4.85042
-3.64446
-2.71977
-2.01596
-1.48417
-1.08528
-0.788236
-0.568638
-0.407458
-0.290001
-0.205018
-0.143968
-0.10042
-0.0695769
-0.0478851
-0.0327364
-0.022231
-0.0149965
-0.0100491
-0.00668917
-0.0044231
-0.00290532
-0.00189572
-0.00122876
-0.000791183
-0.000506062
-0.000321552
-0.000202972
-0.000127293
-7.93388e-05
-4.9188e-05
-3.04085e-05
-1.8874e-05
-1.1979e-05
-8.12675e-06
-6.40667e-06
-1600.89
-1587
-1559.68
-1519.8
-1468.6
-1407.56
-1338.34
-1262.68
-1182.3
-1098.88
-1013.97
-928.977
-845.158
-763.585
-685.158
-610.599
-540.463
-475.148
-414.905
-359.854
-310
-265.249
-225.422
-190.278
-159.523
-132.832
-109.854
-90.2332
-73.612
-59.6431
-47.9954
-38.3589
-30.448
-24.0037
-18.7942
-14.6149
-11.2875
-8.65822
-6.59618
-4.99104
-3.75083
-2.79965
-2.07551
-1.52824
-1.11767
-0.811872
-0.585764
-0.419779
-0.298805
-0.211264
-0.148369
-0.1035
-0.0717168
-0.049362
-0.0337487
-0.0229203
-0.0154626
-0.0103621
-0.00689796
-0.00456144
-0.00299636
-0.00195523
-0.00126741
-0.000816109
-0.000522031
-0.000331716
-0.000209398
-0.000131329
-8.18579e-05
-5.07521e-05
-3.13768e-05
-1.9476e-05
-1.23617e-05
-8.38682e-06
-6.61196e-06
-1583.4
-1570.25
-1544.35
-1506.45
-1457.62
-1399.18
-1332.62
-1259.52
-1181.49
-1100.13
-1016.94
-933.317
-850.51
-769.621
-691.584
-617.165
-546.965
-481.425
-420.837
-365.358
-315.026
-269.771
-229.439
-193.803
-162.582
-135.457
-112.085
-92.1108
-75.1774
-60.9367
-49.055
-39.2196
-31.1413
-24.5576
-19.2332
-14.9601
-11.5569
-8.86682
-6.75649
-5.11332
-3.84342
-2.86924
-2.12743
-1.56671
-1.14595
-0.832528
-0.600739
-0.43056
-0.306512
-0.216736
-0.152225
-0.1062
-0.073594
-0.0506581
-0.0346376
-0.0235256
-0.015872
-0.0106372
-0.00708153
-0.00468311
-0.00307646
-0.00200761
-0.00130142
-0.000838055
-0.000536095
-0.000340668
-0.000215058
-0.000134885
-8.40782e-05
-5.2131e-05
-3.22307e-05
-2.00069e-05
-1.26994e-05
-8.61632e-06
-6.79308e-06
-1569.63
-1557.04
-1532.2
-1495.78
-1448.75
-1392.3
-1327.79
-1256.69
-1180.54
-1100.84
-1019.05
-936.563
-854.62
-774.336
-696.669
-622.414
-552.206
-486.52
-425.683
-369.881
-319.176
-273.523
-232.785
-196.75
-165.148
-137.666
-113.968
-93.6995
-76.5053
-62.0363
-49.9577
-39.954
-31.7339
-25.0318
-19.6096
-15.2566
-11.7885
-9.0464
-6.89466
-5.21882
-3.92337
-2.92939
-2.17235
-1.60001
-1.17046
-0.850437
-0.613733
-0.43992
-0.313207
-0.221491
-0.15558
-0.108549
-0.075228
-0.0517869
-0.0354119
-0.0240532
-0.016229
-0.0108771
-0.00724168
-0.00478929
-0.00314638
-0.00205334
-0.00133114
-0.000857229
-0.000548385
-0.000348493
-0.000220008
-0.000137995
-8.60204e-05
-5.33373e-05
-3.29779e-05
-2.04716e-05
-1.2995e-05
-8.81728e-06
-6.95172e-06
-1558.81
-1546.63
-1522.59
-1487.3
-1441.63
-1386.7
-1323.77
-1254.24
-1179.55
-1101.18
-1020.54
-938.982
-857.766
-778.005
-700.673
-626.587
-556.406
-490.633
-429.617
-373.572
-322.579
-276.614
-235.552
-199.196
-167.284
-139.512
-115.545
-95.0335
-77.6228
-62.9638
-50.7205
-40.5759
-32.2366
-25.4347
-19.9299
-15.5091
-11.9861
-9.19977
-7.01279
-5.30913
-3.99188
-2.98098
-2.21091
-1.62862
-1.19153
-0.865845
-0.624919
-0.447984
-0.318978
-0.225592
-0.158474
-0.110577
-0.0766395
-0.0527623
-0.0360813
-0.0245095
-0.0165379
-0.0110848
-0.00738035
-0.00488125
-0.00320696
-0.00209297
-0.00135689
-0.000873854
-0.000559045
-0.000355282
-0.000224303
-0.000140694
-8.77063e-05
-5.43848e-05
-3.36269e-05
-2.08753e-05
-1.32518e-05
-8.99191e-06
-7.0896e-06
-1550.32
-1538.45
-1515.01
-1480.56
-1435.94
-1382.17
-1320.46
-1252.15
-1178.62
-1101.29
-1021.57
-940.777
-860.164
-780.848
-703.811
-629.888
-559.754
-493.931
-432.791
-376.564
-325.352
-279.141
-237.824
-201.211
-169.05
-141.041
-116.856
-96.145
-78.5561
-63.74
-51.3602
-41.0984
-32.6596
-25.7743
-20.2003
-15.7227
-12.1533
-9.32975
-7.11302
-5.38582
-4.05012
-3.02487
-2.24375
-1.653
-1.20951
-0.878998
-0.634475
-0.454876
-0.323914
-0.229102
-0.160952
-0.112315
-0.0778493
-0.0535988
-0.0366557
-0.0249011
-0.0168031
-0.0112632
-0.0074995
-0.0049603
-0.00325904
-0.00212706
-0.00137905
-0.000888161
-0.00056822
-0.000361127
-0.000228001
-0.000143019
-8.91588e-05
-5.52874e-05
-3.41862e-05
-2.12233e-05
-1.34732e-05
-9.14251e-06
-7.20856e-06
-1543.67
-1532.04
-1509.05
-1475.24
-1431.41
-1378.53
-1317.76
-1250.39
-1177.76
-1101.27
-1022.28
-942.105
-861.986
-783.042
-706.261
-632.486
-562.407
-496.562
-435.336
-378.975
-327.595
-281.195
-239.677
-202.86
-170.499
-142.3
-117.937
-97.0641
-79.3297
-64.3848
-51.8925
-41.534
-33.0129
-26.0584
-20.4268
-15.9017
-12.2938
-9.43905
-7.1974
-5.45046
-4.09926
-3.06194
-2.2715
-1.67363
-1.22473
-0.890141
-0.642576
-0.460723
-0.328104
-0.232084
-0.163058
-0.113792
-0.0788785
-0.0543107
-0.0371447
-0.0252347
-0.0170291
-0.0114152
-0.0076011
-0.00502773
-0.00330349
-0.00215616
-0.00139797
-0.00090038
-0.000576058
-0.000366121
-0.000231162
-0.000145007
-9.04008e-05
-5.60593e-05
-3.46646e-05
-2.1521e-05
-1.36627e-05
-9.27139e-06
-7.31038e-06
-1538.47
-1527.02
-1504.37
-1471.05
-1427.82
-1375.62
-1315.57
-1248.93
-1177.01
-1101.17
-1022.76
-943.082
-863.366
-784.729
-708.163
-634.52
-564.499
-498.648
-437.365
-380.906
-329.398
-282.852
-241.176
-204.199
-171.679
-143.328
-118.822
-97.8187
-79.9661
-64.9163
-52.3322
-41.8944
-33.3056
-26.2942
-20.615
-16.0508
-12.4109
-9.53026
-7.2679
-5.50452
-4.14039
-3.093
-2.29478
-1.69094
-1.23751
-0.899509
-0.649391
-0.465646
-0.331634
-0.234596
-0.164835
-0.115039
-0.0797474
-0.054912
-0.0375579
-0.0255167
-0.0172203
-0.0115439
-0.00768709
-0.00508481
-0.00334113
-0.00218081
-0.001414
-0.000910736
-0.000582703
-0.000370356
-0.000233843
-0.000146693
-9.14546e-05
-5.67144e-05
-3.50707e-05
-2.17738e-05
-1.38236e-05
-9.38089e-06
-7.39685e-06
-1534.43
-1523.1
-1500.72
-1467.77
-1424.99
-1373.31
-1313.82
-1247.74
-1176.37
-1101.04
-1023.08
-943.799
-864.406
-786.02
-709.635
-636.106
-566.14
-500.293
-438.972
-382.442
-330.839
-284.18
-242.383
-205.279
-172.634
-144.162
-119.542
-98.4336
-80.4858
-65.3512
-52.6926
-42.1904
-33.5465
-26.4884
-20.7704
-16.174
-12.5077
-9.6058
-7.32634
-5.54938
-4.17456
-3.11883
-2.31415
-1.70536
-1.24816
-0.907325
-0.655081
-0.469758
-0.334585
-0.236698
-0.166321
-0.116083
-0.0804753
-0.055416
-0.0379045
-0.0257533
-0.0173807
-0.0116519
-0.00775932
-0.00513278
-0.00337276
-0.00220153
-0.00142748
-0.000919447
-0.000588294
-0.00037392
-0.0002361
-0.000148112
-9.2342e-05
-5.72662e-05
-3.54128e-05
-2.19868e-05
-1.39592e-05
-9.47317e-06
-7.46977e-06
-1531.29
-1520.06
-1497.87
-1465.2
-1422.77
-1371.48
-1312.42
-1246.77
-1175.82
-1100.89
-1023.29
-944.323
-865.189
-787.006
-710.769
-637.337
-567.421
-501.583
-440.238
-383.657
-331.982
-285.238
-243.347
-206.145
-173.401
-144.834
-120.124
-98.9311
-80.9072
-65.7045
-52.986
-42.4316
-33.7431
-26.6473
-20.8976
-16.275
-12.5872
-9.66789
-7.37444
-5.58634
-4.20274
-3.14015
-2.33015
-1.71729
-1.25698
-0.913796
-0.659796
-0.473168
-0.337033
-0.238443
-0.167556
-0.116951
-0.0810807
-0.0558353
-0.0381929
-0.0259503
-0.0175143
-0.0117419
-0.00781953
-0.00517278
-0.00339915
-0.00221882
-0.00143874
-0.000926721
-0.000592963
-0.000376897
-0.000237985
-0.000149299
-9.30838e-05
-5.77275e-05
-3.56988e-05
-2.21649e-05
-1.40726e-05
-9.55037e-06
-7.53081e-06
-1528.86
-1517.71
-1495.66
-1463.2
-1421.03
-1370.05
-1311.31
-1245.99
-1175.37
-1100.75
-1023.43
-944.705
-865.775
-787.754
-711.638
-638.287
-568.415
-502.59
-441.23
-384.612
-332.885
-286.076
-244.112
-206.834
-174.014
-145.371
-120.59
-99.3308
-81.2464
-65.9894
-53.223
-42.6269
-33.9025
-26.7762
-21.001
-16.3572
-12.652
-9.71855
-7.41372
-5.61656
-4.2258
-3.15761
-2.34328
-1.72707
-1.26422
-0.919115
-0.663674
-0.475974
-0.339049
-0.239881
-0.168574
-0.117666
-0.0815803
-0.0561816
-0.0384312
-0.0261131
-0.0176248
-0.0118163
-0.00786935
-0.00520589
-0.003421
-0.00223314
-0.00144806
-0.000932748
-0.000596833
-0.000379365
-0.000239549
-0.000150283
-9.36991e-05
-5.81102e-05
-3.59362e-05
-2.23127e-05
-1.41667e-05
-9.61448e-06
-7.58146e-06
-1526.98
-1515.89
-1493.96
-1461.66
-1419.69
-1368.93
-1310.44
-1245.37
-1175
-1100.61
-1023.52
-944.981
-866.212
-788.32
-712.301
-639.016
-569.183
-503.371
-442.002
-385.359
-333.592
-286.734
-244.715
-207.379
-174.499
-145.798
-120.961
-99.6498
-81.5175
-66.2176
-53.4131
-42.7838
-34.0308
-26.8801
-21.0844
-16.4236
-12.7044
-9.75957
-7.44557
-5.64108
-4.24454
-3.17181
-2.35395
-1.73504
-1.27012
-0.923453
-0.666839
-0.478267
-0.340697
-0.241057
-0.169408
-0.118253
-0.0819895
-0.0564654
-0.0386266
-0.0262467
-0.0177155
-0.0118775
-0.00791026
-0.00523309
-0.00343896
-0.00224492
-0.00145572
-0.000937705
-0.000600017
-0.000381396
-0.000240836
-0.000151093
-9.42056e-05
-5.84253e-05
-3.61317e-05
-2.24344e-05
-1.42443e-05
-9.66726e-06
-7.62319e-06
-1525.55
-1514.5
-1492.65
-1460.47
-1418.65
-1368.06
-1309.75
-1244.89
-1174.7
-1100.5
-1023.57
-945.181
-866.537
-788.747
-712.806
-639.574
-569.773
-503.973
-442.6
-385.939
-334.144
-287.249
-245.188
-207.807
-174.881
-146.135
-121.254
-99.9024
-81.7328
-66.399
-53.5645
-42.9089
-34.1332
-26.9632
-21.1512
-16.4768
-12.7465
-9.79254
-7.47119
-5.66084
-4.25964
-3.18327
-2.36258
-1.74148
-1.2749
-0.926966
-0.669404
-0.480125
-0.342034
-0.242012
-0.170084
-0.118729
-0.0823223
-0.0566962
-0.0387856
-0.0263555
-0.0177893
-0.0119273
-0.00794362
-0.00525526
-0.0034536
-0.00225452
-0.00146198
-0.000941752
-0.000602616
-0.000383055
-0.000241887
-0.000151754
-9.46196e-05
-5.86829e-05
-3.62914e-05
-2.25339e-05
-1.43077e-05
-9.71041e-06
-7.65735e-06
-1524.45
-1513.43
-1491.65
-1459.56
-1417.85
-1367.39
-1309.22
-1244.5
-1174.46
-1100.4
-1023.6
-945.324
-866.778
-789.068
-713.187
-639.999
-570.224
-504.435
-443.061
-386.388
-334.571
-287.649
-245.556
-208.141
-175.18
-146.399
-121.485
-100.101
-81.9024
-66.5423
-53.6843
-43.008
-34.2145
-27.0292
-21.2043
-16.5192
-12.7801
-9.81886
-7.49167
-5.67663
-4.27173
-3.19245
-2.3695
-1.74665
-1.27874
-0.92979
-0.671467
-0.481621
-0.343111
-0.242781
-0.17063
-0.119113
-0.0825909
-0.0568826
-0.038914
-0.0264434
-0.017849
-0.0119676
-0.0079706
-0.00527322
-0.00346546
-0.0022623
-0.00146705
-0.000945031
-0.000604723
-0.000384399
-0.000242739
-0.000152291
-9.49552e-05
-5.88918e-05
-3.64211e-05
-2.26147e-05
-1.43591e-05
-9.74545e-06
-7.685e-06
-1523.61
-1512.62
-1490.88
-1458.86
-1417.23
-1366.88
-1308.82
-1244.2
-1174.28
-1100.32
-1023.61
-945.426
-866.955
-789.307
-713.474
-640.32
-570.567
-504.788
-443.414
-386.732
-334.9
-287.958
-245.841
-208.4
-175.412
-146.605
-121.664
-100.257
-82.0353
-66.6546
-53.7783
-43.086
-34.2785
-27.0813
-21.2463
-16.5528
-12.8066
-9.83971
-7.5079
-5.68918
-4.28134
-3.19975
-2.375
-1.75077
-1.28179
-0.932042
-0.673113
-0.482816
-0.343971
-0.243397
-0.171067
-0.119421
-0.0828061
-0.0570321
-0.0390171
-0.0265139
-0.017897
-0.0119999
-0.00799228
-0.00528764
-0.00347499
-0.00226855
-0.00147112
-0.000947668
-0.000606418
-0.000385481
-0.000243425
-0.000152723
-9.52255e-05
-5.906e-05
-3.65254e-05
-2.26797e-05
-1.44005e-05
-9.77367e-06
-7.70729e-06
-1522.98
-1512.01
-1490.3
-1458.33
-1416.77
-1366.48
-1308.5
-1243.97
-1174.13
-1100.25
-1023.62
-945.499
-867.086
-789.485
-713.689
-640.563
-570.826
-505.056
-443.682
-386.995
-335.152
-288.195
-246.06
-208.599
-175.592
-146.764
-121.804
-100.377
-82.1385
-66.7421
-53.8516
-43.1468
-34.3285
-27.122
-21.2792
-16.5791
-12.8275
-9.85611
-7.52069
-5.69906
-4.28892
-3.20552
-2.37935
-1.75403
-1.28421
-0.933826
-0.674419
-0.483764
-0.344654
-0.243885
-0.171414
-0.119665
-0.0829772
-0.057151
-0.0390991
-0.02657
-0.0179352
-0.0120257
-0.00800955
-0.00529914
-0.00348259
-0.00227354
-0.00147438
-0.000949773
-0.000607771
-0.000386345
-0.000243973
-0.000153068
-9.54413e-05
-5.91943e-05
-3.66088e-05
-2.27317e-05
-1.44336e-05
-9.79621e-06
-7.72512e-06
-1522.5
-1511.55
-1489.87
-1457.93
-1416.41
-1366.18
-1308.26
-1243.8
-1174.01
-1100.19
-1023.62
-945.551
-867.181
-789.617
-713.85
-640.744
-571.022
-505.258
-443.886
-387.194
-335.344
-288.375
-246.228
-208.752
-175.729
-146.886
-121.911
-100.47
-82.2183
-66.8098
-53.9084
-43.1941
-34.3674
-27.1537
-21.3048
-16.5996
-12.8438
-9.86892
-7.53069
-5.70679
-4.29486
-3.21004
-2.38277
-1.75659
-1.28611
-0.935229
-0.675446
-0.48451
-0.345192
-0.244271
-0.171687
-0.119858
-0.0831124
-0.0572449
-0.0391639
-0.0266144
-0.0179654
-0.0120461
-0.00802323
-0.00530824
-0.00348861
-0.0022775
-0.00147695
-0.000951441
-0.000608844
-0.00038703
-0.000244407
-0.000153341
-9.56126e-05
-5.93009e-05
-3.66749e-05
-2.27729e-05
-1.44599e-05
-9.81405e-06
-7.73924e-06
-1522.15
-1511.2
-1489.54
-1457.63
-1416.15
-1365.96
-1308.08
-1243.66
-1173.92
-1100.15
-1023.62
-945.588
-867.251
-789.714
-713.969
-640.88
-571.168
-505.41
-444.039
-387.345
-335.488
-288.512
-246.355
-208.869
-175.834
-146.979
-121.993
-100.542
-82.2795
-66.8617
-53.9521
-43.2304
-34.3974
-27.1782
-21.3246
-16.6154
-12.8564
-9.87886
-7.53844
-5.7128
-4.29947
-3.21355
-2.38542
-1.75858
-1.2876
-0.936324
-0.676248
-0.485094
-0.345613
-0.244572
-0.171902
-0.120009
-0.0832183
-0.0573185
-0.0392147
-0.0266493
-0.0179891
-0.0120621
-0.00803397
-0.0053154
-0.00349335
-0.0022806
-0.00147898
-0.000952753
-0.000609688
-0.000387569
-0.000244749
-0.000153557
-9.57473e-05
-5.93848e-05
-3.6727e-05
-2.28053e-05
-1.44806e-05
-9.82815e-06
-7.75034e-06
-1521.88
-1510.94
-1489.29
-1457.4
-1415.95
-1365.79
-1307.95
-1243.56
-1173.86
-1100.11
-1023.62
-945.613
-867.302
-789.786
-714.057
-640.98
-571.277
-505.524
-444.154
-387.458
-335.597
-288.616
-246.451
-208.957
-175.914
-147.05
-122.055
-100.596
-82.3261
-66.9014
-53.9855
-43.2583
-34.4203
-27.197
-21.3398
-16.6276
-12.8661
-9.88651
-7.54442
-5.71744
-4.30304
-3.21627
-2.38748
-1.76012
-1.28875
-0.937173
-0.67687
-0.485546
-0.34594
-0.244806
-0.172068
-0.120127
-0.0833007
-0.0573758
-0.0392543
-0.0266764
-0.0180075
-0.0120746
-0.00804235
-0.00532098
-0.00349704
-0.00228303
-0.00148056
-0.000953778
-0.000610347
-0.00038799
-0.000245016
-0.000153725
-9.58526e-05
-5.94503e-05
-3.67677e-05
-2.28307e-05
-1.44967e-05
-9.83916e-06
-7.75904e-06
-1521.68
-1510.75
-1489.11
-1457.24
-1415.8
-1365.66
-1307.84
-1243.48
-1173.81
-1100.09
-1023.61
-945.631
-867.338
-789.838
-714.122
-641.054
-571.357
-505.608
-444.239
-387.542
-335.679
-288.693
-246.523
-209.023
-175.974
-147.103
-122.103
-100.637
-82.3614
-66.9315
-54.0109
-43.2794
-34.4378
-27.2113
-21.3514
-16.637
-12.8735
-9.89236
-7.549
-5.72099
-4.30577
-3.21836
-2.38906
-1.76131
-1.28963
-0.937826
-0.677349
-0.485895
-0.346192
-0.244987
-0.172197
-0.120218
-0.0833643
-0.0574201
-0.0392849
-0.0266974
-0.0180218
-0.0120842
-0.00804884
-0.00532531
-0.0034999
-0.00228491
-0.00148179
-0.000954572
-0.000610858
-0.000388316
-0.000245223
-0.000153855
-9.59343e-05
-5.95011e-05
-3.67992e-05
-2.28504e-05
-1.45093e-05
-9.84769e-06
-7.76578e-06
-1521.54
-1510.61
-1488.98
-1457.11
-1415.69
-1365.57
-1307.77
-1243.42
-1173.77
-1100.07
-1023.61
-945.643
-867.364
-789.876
-714.169
-641.109
-571.416
-505.67
-444.302
-387.605
-335.74
-288.75
-246.577
-209.072
-176.018
-147.143
-122.138
-100.668
-82.388
-66.9541
-54.03
-43.2954
-34.451
-27.2221
-21.3602
-16.644
-12.8791
-9.8968
-7.55248
-5.72369
-4.30785
-3.21995
-2.39026
-1.76221
-1.2903
-0.938325
-0.677715
-0.486162
-0.346385
-0.245125
-0.172295
-0.120287
-0.0834132
-0.0574541
-0.0393084
-0.0267135
-0.0180328
-0.0120917
-0.00805383
-0.00532863
-0.0035021
-0.00228635
-0.00148273
-0.000955184
-0.000611251
-0.000388567
-0.000245382
-0.000153956
-9.59971e-05
-5.95403e-05
-3.68235e-05
-2.28655e-05
-1.45189e-05
-9.85425e-06
-7.77096e-06
-1521.43
-1510.5
-1488.88
-1457.02
-1415.61
-1365.5
-1307.71
-1243.38
-1173.74
-1100.05
-1023.61
-945.652
-867.383
-789.903
-714.204
-641.149
-571.46
-505.716
-444.348
-387.651
-335.784
-288.793
-246.617
-209.109
-176.052
-147.173
-122.164
-100.691
-82.4078
-66.9711
-54.0443
-43.3073
-34.4609
-27.2302
-21.3668
-16.6493
-12.8834
-9.90015
-7.55511
-5.72573
-4.30942
-3.22115
-2.39117
-1.7629
-1.29082
-0.938703
-0.677993
-0.486364
-0.346531
-0.24523
-0.17237
-0.12034
-0.0834503
-0.05748
-0.0393263
-0.0267258
-0.0180412
-0.0120973
-0.00805763
-0.00533117
-0.00350378
-0.00228746
-0.00148345
-0.000955651
-0.000611551
-0.000388759
-0.000245504
-0.000154032
-9.60452e-05
-5.95702e-05
-3.68421e-05
-2.2877e-05
-1.45263e-05
-9.85926e-06
-7.77492e-06
-1521.35
-1510.42
-1488.8
-1456.96
-1415.55
-1365.45
-1307.67
-1243.35
-1173.72
-1100.04
-1023.6
-945.658
-867.396
-789.923
-714.229
-641.177
-571.492
-505.749
-444.383
-387.684
-335.817
-288.824
-246.646
-209.136
-176.076
-147.195
-122.184
-100.708
-82.4225
-66.9836
-54.0549
-43.3162
-34.4683
-27.2363
-21.3717
-16.6533
-12.8865
-9.90266
-7.55707
-5.72726
-4.3106
-3.22205
-2.39186
-1.76341
-1.2912
-0.938988
-0.678203
-0.486517
-0.346642
-0.24531
-0.172427
-0.12038
-0.0834784
-0.0574996
-0.0393398
-0.0267351
-0.0180475
-0.0121016
-0.00806051
-0.00533309
-0.00350505
-0.0022883
-0.001484
-0.000956005
-0.000611779
-0.000388905
-0.000245596
-0.000154091
-9.60816e-05
-5.95929e-05
-3.68562e-05
-2.28858e-05
-1.45319e-05
-9.86307e-06
-7.77794e-06
-1521.3
-1510.37
-1488.75
-1456.91
-1415.51
-1365.41
-1307.64
-1243.33
-1173.7
-1100.03
-1023.6
-945.662
-867.406
-789.937
-714.247
-641.198
-571.515
-505.773
-444.407
-387.709
-335.841
-288.847
-246.668
-209.156
-176.094
-147.211
-122.198
-100.72
-82.4334
-66.9929
-54.0628
-43.3228
-34.4737
-27.2407
-21.3754
-16.6562
-12.8889
-9.90452
-7.55854
-5.7284
-4.31148
-3.22272
-2.39237
-1.7638
-1.29149
-0.939202
-0.67836
-0.486631
-0.346725
-0.245369
-0.172469
-0.12041
-0.0834995
-0.0575143
-0.03935
-0.0267421
-0.0180523
-0.0121048
-0.00806268
-0.00533454
-0.00350601
-0.00228893
-0.00148441
-0.000956271
-0.000611951
-0.000389014
-0.000245666
-0.000154134
-9.61091e-05
-5.961e-05
-3.68668e-05
-2.28924e-05
-1.4536e-05
-9.86593e-06
-7.78022e-06