/*--------------------------------*- C++ -*----------------------------------*\
  =========                 |
  \\      /  F ield         | OpenFOAM: The Open Source CFD Toolbox
   \\    /   O peration     | Website:  https://openfoam.org
    \\  /    A nd           | Version:  10
     \\/     M anipulation  |
\*---------------------------------------------------------------------------*/
FoamFile
{
    format      ascii;
    class       volScalarField;
    location    "202";
    object      gradTx;
}
// * * * * * * * * * * * * * * * * * * * * * * * * * * * * * * * * * * * * * //

dimensions      [0 -1 0 1 0 0 0];

internalField   nonuniform List<scalar> 
11250
(
14284.5
8058.33
5235.52
3725.7
2803.17
2181.39
1732.31
1392.12
1125.9
912.976
740.297
599.093
483.155
387.879
309.698
245.758
193.713
151.597
117.744
90.732
69.35
52.5651
39.5033
29.4297
21.7318
15.9042
11.5345
8.28921
5.90243
4.16414
2.91055
2.0154
1.38252
0.939485
0.63242
0.421703
0.278537
0.182231
0.118089
0.0757934
0.04818
0.0303315
0.0189096
0.0116736
0.00713532
0.00431785
0.00258651
0.00153353
0.000899785
0.00052237
0.000300009
0.000170422
9.57339e-05
5.31699e-05
2.91903e-05
1.58377e-05
8.49067e-06
4.49674e-06
2.35224e-06
1.21511e-06
6.1975e-07
3.12059e-07
1.55116e-07
7.60912e-08
3.68635e-08
1.76233e-08
8.33311e-09
3.88886e-09
1.78912e-09
7.84797e-10
3.19407e-10
1.20738e-10
1.4269e-11
0
-9.87856e-12
4080.48
4657.57
3926.73
3144.1
2509.43
2016.77
1632.39
1327.72
1082.51
882.768
718.751
583.451
471.657
379.353
303.341
241.005
190.156
148.937
115.758
89.2549
68.2557
51.7585
38.912
28.9989
21.4199
15.6801
11.3746
8.176
5.8229
4.10872
2.87225
1.98916
1.36469
0.927474
0.624401
0.416397
0.275058
0.17997
0.116633
0.0748647
0.0475932
0.0299642
0.018682
0.0115339
0.00705047
0.00426684
0.00255616
0.00151567
0.000889387
0.000516386
0.000296605
0.000168508
9.46707e-05
5.25867e-05
2.88744e-05
1.56689e-05
8.40156e-06
4.45038e-06
2.32843e-06
1.20308e-06
6.13756e-07
3.09112e-07
1.53665e-07
7.54327e-08
3.65419e-08
1.74576e-08
8.22774e-09
3.83727e-09
1.76497e-09
7.94675e-10
3.28188e-10
1.39397e-10
6.5857e-11
1.75619e-11
0
1461.22
2567.29
2673.89
2420.17
2080.62
1751.9
1461.6
1213.33
1003.45
826.76
678.305
553.822
449.728
363.009
291.107
231.828
183.269
143.776
111.9
86.3805
66.1237
50.1851
37.7576
28.1572
20.8103
15.2417
11.0616
7.95432
5.66711
4.00012
2.79717
1.93769
1.32971
0.903909
0.608664
0.405981
0.268225
0.175529
0.113773
0.07304
0.04644
0.0292423
0.0182345
0.0112592
0.00688356
0.00416646
0.00249642
0.0014805
0.000868906
0.000504593
0.000289893
0.000164733
9.2573e-05
5.14355e-05
2.82505e-05
1.53351e-05
8.22538e-06
4.35863e-06
2.28132e-06
1.17919e-06
6.01836e-07
3.03246e-07
1.50817e-07
7.40167e-08
3.58361e-08
1.71426e-08
8.08066e-09
3.76044e-09
1.71558e-09
7.81504e-10
3.53433e-10
1.59155e-10
6.91499e-11
1.31714e-11
8.78094e-12
659.148
1478.97
1785.45
1787.59
1647.76
1456.45
1257.43
1069.81
900.811
752.22
623.489
513.118
419.288
340.138
273.878
218.838
173.482
136.416
106.382
82.2607
63.0619
47.9221
36.0948
26.9433
19.9302
14.6082
10.609
7.63349
5.44149
3.84276
2.68833
1.86305
1.27896
0.869702
0.585812
0.390851
0.258298
0.169074
0.109615
0.0703865
0.0447624
0.0281919
0.0175832
0.0108593
0.00664049
0.00402022
0.00240937
0.00142923
0.000839038
0.000487388
0.000280096
0.000159219
8.95074e-05
4.97519e-05
2.73375e-05
1.48464e-05
7.96716e-06
4.224e-06
2.21208e-06
1.14407e-06
5.84255e-07
2.94565e-07
1.46605e-07
7.19993e-08
3.48878e-08
1.66871e-08
7.86443e-09
3.64189e-09
1.66289e-09
7.43087e-10
3.25992e-10
1.47081e-10
6.25642e-11
1.53666e-11
-4.39047e-12
356.371
906.416
1205.26
1302.33
1272.92
1176.28
1050.26
916.632
787.037
667.211
559.605
464.881
382.743
312.396
252.808
202.847
161.369
127.267
99.4981
77.1042
59.2197
45.0757
33.9994
25.411
18.8177
13.8064
10.0356
7.2266
5.15511
3.64286
2.54997
1.7681
1.21436
0.826143
0.556698
0.371566
0.245639
0.160841
0.10431
0.0669992
0.0426203
0.0268501
0.0167509
0.0103481
0.00632964
0.00383314
0.00229794
0.00136357
0.000800769
0.000465332
0.000267528
0.000152142
8.55692e-05
4.75873e-05
2.61626e-05
1.42167e-05
7.63411e-06
4.05014e-06
2.12254e-06
1.09859e-06
5.61477e-07
2.83323e-07
1.41127e-07
6.93837e-08
3.36508e-08
1.60966e-08
7.59771e-09
3.52225e-09
1.6124e-09
7.07963e-10
3.08431e-10
1.25128e-10
4.17095e-11
9.87856e-12
-2.19523e-12
217.068
587.371
830.621
948.653
971.595
932.734
858.704
767.984
672.377
578.965
491.728
412.679
342.609
281.571
229.172
184.768
147.586
116.801
91.5877
71.1568
54.774
41.7732
31.5625
23.6254
17.519
12.8689
9.36416
6.74959
4.81902
3.40803
2.38729
1.65637
1.1383
0.774819
0.522374
0.348818
0.230699
0.151119
0.0980419
0.0629958
0.0400874
0.025263
0.0157659
0.00974282
0.00596143
0.00361142
0.00216581
0.00128566
0.000755333
0.000439125
0.000252584
0.000143719
8.0878e-05
4.50061e-05
2.47599e-05
1.34641e-05
7.23549e-06
3.8418e-06
2.01509e-06
1.0439e-06
5.34041e-07
2.69745e-07
1.34508e-07
6.61852e-08
3.21481e-08
1.54127e-08
7.2794e-09
3.39274e-09
1.56301e-09
7.17842e-10
3.44652e-10
1.41593e-10
3.7319e-11
9.87856e-12
1.09762e-12
142.336
397.566
584.763
694.892
738.009
731.227
691.432
632.328
563.926
493.048
424.077
359.653
301.209
249.368
204.222
165.52
132.806
105.51
83.0105
64.6801
49.9148
38.1521
28.8832
21.6575
16.0846
11.8316
8.62007
6.2202
4.44553
3.14678
2.20612
1.53183
1.05345
0.717515
0.484024
0.323385
0.213986
0.140237
0.091022
0.0585098
0.0372477
0.0234825
0.0146604
0.00906314
0.00554771
0.00336214
0.00201716
0.00119796
0.000704141
0.000409574
0.000235717
0.000134202
7.55718e-05
4.2083e-05
2.31694e-05
1.26095e-05
6.78214e-06
3.60442e-06
1.89242e-06
9.81355e-07
5.02586e-07
2.54132e-07
1.26856e-07
6.25148e-08
3.04292e-08
1.4617e-08
6.91609e-09
3.23139e-09
1.50044e-09
7.21135e-10
3.62214e-10
1.64643e-10
6.91499e-11
3.18309e-11
0
97.7349
277.842
419.308
512.662
559.879
569.157
550.574
513.556
465.82
413.181
359.754
308.282
260.472
217.269
179.082
145.948
117.662
93.8662
74.1162
57.9323
44.8314
34.3506
26.0617
19.5797
14.5665
10.7316
7.82948
5.65682
4.04749
2.86798
2.01255
1.39863
0.962598
0.656111
0.442897
0.296089
0.196036
0.128542
0.083473
0.0536827
0.0341902
0.0215644
0.0134687
0.00833
0.00510116
0.00309289
0.00185649
0.00110308
0.000648715
0.000377548
0.000217419
0.000123866
6.98014e-05
3.88998e-05
2.14348e-05
1.16759e-05
6.28601e-06
3.34414e-06
1.75765e-06
9.1252e-07
4.67877e-07
2.36871e-07
1.18371e-07
5.84119e-08
2.84371e-08
1.36686e-08
6.50009e-09
3.0426e-09
1.41263e-09
6.55278e-10
3.02942e-10
1.53666e-10
9.11023e-11
3.7319e-11
4.39047e-12
69.1357
198.654
305.053
380.753
424.831
440.897
434.728
412.523
379.9
341.471
300.763
260.317
221.854
186.446
154.677
126.772
102.708
82.2897
65.2218
51.1504
39.7002
30.4988
23.1935
17.4612
13.0148
9.60453
7.0179
5.07743
3.63747
2.58038
1.81261
1.26088
0.868547
0.592479
0.400238
0.267752
0.177387
0.116382
0.0756186
0.0486569
0.0310048
0.0195647
0.0122255
0.00756462
0.00463463
0.00281138
0.00168836
0.00100371
0.000590609
0.000343939
0.000198193
0.000112993
6.37226e-05
3.55414e-05
1.96016e-05
1.06875e-05
5.75973e-06
3.06748e-06
1.61408e-06
8.38994e-07
4.30708e-07
2.18352e-07
1.0929e-07
5.39753e-08
2.63022e-08
1.26489e-08
6.02921e-09
2.83185e-09
1.31056e-09
5.89421e-10
2.70014e-10
1.47081e-10
8.12237e-11
4.50023e-11
1.31714e-11
49.8749
144.318
224.327
284.295
322.505
340.317
340.941
328.338
306.455
278.784
248.183
216.841
186.34
157.746
131.709
108.558
88.3892
71.1295
56.5961
44.5392
34.6754
26.7119
20.3637
15.3647
11.475
8.48341
6.20881
4.4987
3.22721
2.29215
1.61195
1.12245
0.773921
0.528389
0.357229
0.239157
0.158552
0.104091
0.0676731
0.0435689
0.0277775
0.0175373
0.0109641
0.00678749
0.00416057
0.00252509
0.00151723
0.000902468
0.000531345
0.00030962
0.000178537
0.000101861
5.74901e-05
3.20926e-05
1.77158e-05
9.66878e-06
5.21616e-06
2.78108e-06
1.4651e-06
7.62475e-07
3.91937e-07
1.98961e-07
9.97306e-08
4.9339e-08
2.40993e-08
1.16018e-08
5.51553e-09
2.60135e-09
1.1986e-09
5.52102e-10
2.65623e-10
1.13055e-10
3.95142e-11
4.28071e-11
2.52452e-11
36.4502
105.988
166.204
213.063
244.844
261.857
265.832
259.256
244.835
225.137
202.386
178.383
154.498
131.707
110.654
91.7107
75.041
60.6539
48.4508
38.2633
29.8834
23.0856
17.644
13.3434
9.98609
7.39662
5.4227
3.93525
2.82703
2.01054
1.4156
0.986803
0.68108
0.465435
0.314937
0.211011
0.139995
0.091971
0.0598314
0.0385434
0.0245875
0.0155317
0.00971527
0.00601748
0.00369046
0.00224094
0.00134721
0.000801785
0.000472344
0.000275413
0.00015892
9.07352e-05
5.12513e-05
2.86344e-05
1.58214e-05
8.64344e-06
4.66793e-06
2.49158e-06
1.31414e-06
6.84766e-07
3.52457e-07
1.79164e-07
8.99278e-08
4.45764e-08
2.1825e-08
1.0524e-08
4.98428e-09
2.3478e-09
1.08884e-09
5.10392e-10
2.17328e-10
7.79308e-11
2.74404e-11
3.29285e-12
-2.19523e-12
26.8624
78.3866
123.731
160.016
185.769
200.852
206.16
203.233
193.902
180.014
163.256
145.058
126.557
108.603
91.7886
76.4844
62.8851
51.0497
40.9385
32.4447
25.4197
19.6938
15.0909
11.4395
8.57962
6.36727
4.67636
3.39916
2.44555
1.74161
1.22779
0.856869
0.592029
0.404975
0.274275
0.18392
0.122116
0.0802831
0.0522629
0.0336888
0.0215033
0.013591
0.00850594
0.00527119
0.00323443
0.00196504
0.00118197
0.000703831
0.000414877
0.000242055
0.000139764
7.98551e-05
4.51406e-05
2.52414e-05
1.39592e-05
7.63351e-06
4.1268e-06
2.20516e-06
1.16443e-06
6.07514e-07
3.13095e-07
1.59366e-07
8.01206e-08
3.97689e-08
1.94695e-08
9.40987e-09
4.48267e-09
2.10852e-09
9.84563e-10
4.52218e-10
1.70131e-10
6.36618e-11
2.19524e-11
-2.41476e-11
-1.09762e-11
19.8956
58.2121
92.3484
120.254
140.749
153.536
159.05
158.235
152.318
142.609
130.362
116.685
102.494
88.5011
75.2228
63.0037
52.0437
42.4281
34.1557
27.1637
21.3497
16.5883
12.7447
9.68408
7.27893
5.41277
3.98261
2.89973
2.08944
1.49012
1.05186
0.734968
0.508367
0.348102
0.235979
0.158378
0.105242
0.0692409
0.0451058
0.0290941
0.0185818
0.0117511
0.00735843
0.00456244
0.00280096
0.00170255
0.0010246
0.000610444
0.000360027
0.000210176
0.000121433
6.94283e-05
3.92752e-05
2.1979e-05
1.21654e-05
6.65866e-06
3.60335e-06
1.92746e-06
1.01893e-06
5.32211e-07
2.7462e-07
1.39958e-07
7.04506e-08
3.50129e-08
1.71689e-08
8.33421e-09
3.99643e-09
1.86485e-09
8.72606e-10
3.86361e-10
1.51471e-10
4.17095e-11
8.78094e-12
9.87856e-12
2.74404e-11
14.772
43.3101
68.978
90.3125
106.403
116.923
122.06
122.388
118.724
111.988
103.1
92.9019
82.113
71.3125
60.9361
51.2876
42.5558
34.8356
28.1487
22.4632
17.7107
13.8003
10.6305
8.097
6.09943
4.54483
3.35021
2.44346
1.76344
1.25945
0.890221
0.622795
0.43127
0.295621
0.200597
0.134752
0.0896166
0.0590061
0.0384657
0.0248274
0.0158663
0.0100396
0.00629003
0.00390198
0.00239666
0.0014575
0.000877546
0.000523084
0.00030866
0.000180284
0.000104222
5.96244e-05
3.37516e-05
1.89015e-05
1.04702e-05
5.73563e-06
3.10666e-06
1.66341e-06
8.80268e-07
4.60288e-07
2.37766e-07
1.21326e-07
6.11472e-08
3.04534e-08
1.49836e-08
7.27281e-09
3.47506e-09
1.62447e-09
7.39794e-10
3.15016e-10
1.27324e-10
7.35404e-11
4.50023e-11
3.95142e-11
1.20738e-11
10.9734
32.2254
51.4846
67.7055
80.1989
88.6653
93.1645
94.0431
91.8415
87.2024
80.7921
73.2413
65.1056
56.8446
48.8154
41.2758
34.3948
28.266
22.923
18.3541
14.5153
11.3424
8.75982
6.68812
5.04922
3.76994
2.7842
2.03415
1.47039
1.0517
0.74439
0.521429
0.361498
0.248061
0.168492
0.11329
0.0754068
0.0496886
0.0324149
0.0209357
0.0133874
0.00847574
0.00531299
0.00329747
0.00202628
0.0012328
0.000742576
0.000442822
0.000261414
0.000152759
8.83527e-05
5.05726e-05
2.86441e-05
1.60512e-05
8.89736e-06
4.87767e-06
2.64406e-06
1.41695e-06
7.50556e-07
3.92877e-07
2.03167e-07
1.03781e-07
5.23618e-08
2.60948e-08
1.28586e-08
6.24105e-09
2.98442e-09
1.41044e-09
6.42106e-10
2.88673e-10
1.29519e-10
7.57356e-11
4.60999e-11
3.7319e-11
3.29285e-12
8.14314
23.9452
38.3529
50.618
60.2257
66.9232
70.7082
71.787
70.5169
67.3442
62.7477
57.1942
51.106
44.8414
38.6861
32.8528
27.4865
22.6736
18.4518
14.8217
11.7567
9.21218
7.1328
5.45877
4.13012
3.08994
2.28628
1.67326
1.21146
0.867789
0.615067
0.431391
0.29943
0.205694
0.139856
0.0941231
0.0627028
0.0413498
0.0269943
0.0174461
0.0111626
0.00707101
0.00443461
0.00275354
0.00169274
0.00103027
0.000620811
0.000370343
0.000218706
0.00012785
7.39748e-05
4.23608e-05
2.4004e-05
1.34579e-05
7.46405e-06
4.09441e-06
2.22098e-06
1.1911e-06
6.31411e-07
3.30782e-07
1.71228e-07
8.75591e-08
4.42131e-08
2.20325e-08
1.08598e-08
5.28613e-09
2.54208e-09
1.1997e-09
5.69663e-10
2.71112e-10
1.32812e-10
5.48809e-11
2.52452e-11
3.07333e-11
2.74404e-11
6.02918
17.7481
28.4861
37.7077
45.0319
50.255
53.3477
54.4314
53.7416
51.5868
48.3091
44.2505
39.7277
35.0157
30.3389
25.8686
21.7256
17.9852
14.6851
11.8326
9.41287
7.39542
5.74042
4.40335
3.33877
2.50289
1.85536
1.36023
0.986406
0.707634
0.502248
0.352715
0.245112
0.168566
0.114728
0.0772842
0.0515292
0.0340079
0.0222171
0.0143678
0.00919828
0.00582969
0.00365778
0.00227211
0.00139729
0.000850716
0.000512769
0.000305975
0.000180741
0.000105685
6.11669e-05
3.5037e-05
1.98605e-05
1.1139e-05
6.18047e-06
3.39189e-06
1.84088e-06
9.87822e-07
5.23955e-07
2.74665e-07
1.42262e-07
7.27973e-08
3.68064e-08
1.83653e-08
9.04547e-09
4.39596e-09
2.12389e-09
1.00542e-09
4.75268e-10
2.04157e-10
9.21999e-11
6.36618e-11
2.85381e-11
-7.68332e-12
-5.48809e-12
4.44941
13.1093
21.0772
27.9698
33.5073
37.5304
40.0012
40.9899
40.6514
39.1984
36.8736
33.9256
30.5895
27.0733
23.5505
20.1563
16.9886
14.1111
11.5583
9.34083
7.45129
5.86947
4.56701
3.5112
2.66793
2.00395
1.48823
1.09294
0.79384
0.570336
0.40536
0.285039
0.198318
0.136536
0.0930225
0.062721
0.0418549
0.0276444
0.0180724
0.0116947
0.00749107
0.00474997
0.00298155
0.00185271
0.0011397
0.000694062
0.000418432
0.000249727
0.000147538
8.62826e-05
4.99448e-05
2.86133e-05
1.62222e-05
9.10027e-06
5.05054e-06
2.77262e-06
1.50528e-06
8.08052e-07
4.28799e-07
2.24896e-07
1.16551e-07
5.96654e-08
3.01702e-08
1.50802e-08
7.43087e-09
3.62214e-09
1.76058e-09
8.60532e-10
3.91849e-10
1.74521e-10
9.11023e-11
5.37833e-11
2.96357e-11
-1.97571e-11
-2.85381e-11
3.27013
9.64198
15.5249
20.6451
24.7983
27.8627
29.8007
30.652
30.5182
29.5455
27.9054
25.7771
23.3334
20.7299
18.0986
15.5445
13.1453
10.9534
8.9988
7.29295
5.83316
4.60635
3.5926
2.76813
2.10766
1.58617
1.1801
0.868118
0.631538
0.454398
0.323402
0.227699
0.158611
0.109319
0.0745546
0.0503154
0.0336046
0.0222121
0.0145309
0.00940858
0.00602978
0.00382506
0.00240185
0.00149292
0.000918585
0.000559496
0.000337344
0.000201345
0.000118959
6.95694e-05
4.02703e-05
2.30707e-05
1.30799e-05
7.33777e-06
4.07266e-06
2.23599e-06
1.21414e-06
6.51905e-07
3.46024e-07
1.81531e-07
9.41075e-08
4.8181e-08
2.43616e-08
1.21857e-08
5.99299e-09
2.92515e-09
1.40385e-09
6.7284e-10
3.29285e-10
1.6135e-10
1.03176e-10
2.52452e-11
1.20738e-11
2.19523e-12
-1.86595e-11
2.39192
7.05701
11.3768
15.156
18.2464
20.5564
22.0529
22.7573
22.7364
22.0902
20.9394
19.4121
17.6344
15.7213
13.7721
11.8671
10.0669
8.4133
6.93153
5.63266
4.51666
3.57529
2.79477
2.15798
1.64639
1.24136
0.925198
0.681735
0.496719
0.357915
0.255079
0.179822
0.125408
0.086528
0.0590704
0.0399018
0.0266716
0.0176425
0.011549
0.00748207
0.0047974
0.00304447
0.00191229
0.00118889
0.000731619
0.00044565
0.000268702
0.000160368
9.47389e-05
5.53976e-05
3.20617e-05
1.83649e-05
1.04101e-05
5.83906e-06
3.24038e-06
1.77886e-06
9.65872e-07
5.18585e-07
2.75271e-07
1.44419e-07
7.4874e-08
3.83365e-08
1.93817e-08
9.68867e-09
4.76366e-09
2.31927e-09
1.10091e-09
5.30149e-10
2.54647e-10
1.28421e-10
4.50023e-11
4.39047e-12
1.20738e-11
3.29285e-12
8.78094e-12
1.74019
5.13692
8.29009
11.0609
13.3425
15.0669
16.2065
16.7723
16.8081
16.3823
15.5791
14.4899
13.2055
11.8105
10.3784
8.96977
7.63121
6.39554
5.28323
4.30416
3.45974
2.74495
2.15036
1.66382
1.27184
0.960715
0.717263
0.529375
0.386296
0.278746
0.198923
0.140409
0.0980343
0.0677134
0.0462715
0.0312841
0.0209281
0.0138532
0.00907414
0.00588182
0.00377297
0.00239517
0.00150481
0.000935697
0.000575845
0.000350754
0.000211463
0.000126183
7.45261e-05
4.35657e-05
2.52056e-05
1.44325e-05
8.17799e-06
4.58534e-06
2.54369e-06
1.39592e-06
7.57705e-07
4.06704e-07
2.15854e-07
1.13225e-07
5.86962e-08
3.00703e-08
1.51954e-08
7.57137e-09
3.73629e-09
1.82314e-09
8.8468e-10
4.55511e-10
2.1184e-10
1.07567e-10
2.96357e-11
2.08547e-11
9.87856e-12
-2.19523e-12
2.08547e-11
1.25863
3.71713
6.00425
8.02171
9.69296
10.968
11.8249
12.2689
12.3284
12.0502
11.4927
10.7207
9.79921
8.78956
7.74589
6.7133
5.72696
4.81219
3.98525
3.25455
2.62206
2.0849
1.63669
1.26888
0.971765
0.735347
0.549925
0.406514
0.297083
0.214671
0.153397
0.108407
0.0757768
0.0523948
0.0358381
0.0242512
0.0162359
0.0107546
0.00704865
0.00457113
0.00293335
0.00186268
0.00117048
0.000727858
0.000447923
0.0002728
0.000164429
9.80873e-05
5.79096e-05
3.38368e-05
1.95668e-05
1.11976e-05
6.34136e-06
3.55347e-06
1.97009e-06
1.08052e-06
5.86173e-07
3.14475e-07
1.66804e-07
8.74626e-08
4.53162e-08
2.32036e-08
1.17258e-08
5.83493e-09
2.86917e-09
1.40276e-09
7.03573e-10
3.39164e-10
1.71228e-10
8.34189e-11
6.0369e-11
2.96357e-11
-1.75619e-11
0
-1.53666e-11
0.904641
2.67275
4.32069
5.77915
6.9936
7.92769
8.56454
8.90613
8.971
8.79077
8.40607
7.86229
7.20578
6.48061
5.72617
4.97567
4.25534
3.58438
2.97545
2.43542
1.9664
1.56682
1.23244
0.957291
0.734461
0.556728
0.417022
0.308744
0.225959
0.1635
0.116982
0.082771
0.0579214
0.04009
0.0274473
0.018589
0.0124545
0.00825521
0.0054135
0.00351229
0.00225464
0.00143202
0.000899953
0.00055963
0.000344354
0.000209674
0.000126337
7.53307e-05
4.44504e-05
2.59565e-05
1.49995e-05
8.57747e-06
4.85373e-06
2.71764e-06
1.50546e-06
8.25036e-07
4.47215e-07
2.39754e-07
1.27081e-07
6.65979e-08
3.45069e-08
1.76442e-08
8.90936e-09
4.43657e-09
2.18755e-09
1.07567e-09
5.03806e-10
2.12938e-10
1.05371e-10
6.5857e-11
3.7319e-11
1.53666e-11
0
-3.29285e-12
-1.4269e-11
0.64591
1.909
3.08817
4.13477
5.01023
5.68837
6.15645
6.41481
6.47548
6.35984
6.0959
5.71535
5.25093
4.73405
4.19311
3.65226
3.13085
2.64323
2.19905
1.80379
1.45942
1.16517
0.918249
0.71454
0.549165
0.41696
0.312818
0.231941
0.169989
0.123165
0.0882323
0.0625019
0.0437849
0.0303358
0.0207881
0.0140905
0.00944733
0.00626586
0.00411107
0.00266834
0.00171337
0.00108842
0.000684046
0.000425334
0.000261663
0.00015927
9.59223e-05
5.71624e-05
3.37067e-05
1.96673e-05
1.13553e-05
6.48739e-06
3.66735e-06
2.05126e-06
1.13512e-06
6.21428e-07
3.36489e-07
1.80205e-07
9.54247e-08
4.99559e-08
2.58599e-08
1.32274e-08
6.67242e-09
3.32907e-09
1.66509e-09
7.99066e-10
3.5453e-10
1.60252e-10
7.4638e-11
3.18309e-11
1.20738e-11
6.58571e-12
2.74404e-11
1.75619e-11
1.20738e-11
0.457986
1.35401
2.19169
2.93709
3.56309
4.05101
4.39139
4.58385
4.63616
4.56271
4.3827
4.11813
3.79193
3.42635
3.04163
2.65518
2.28108
1.92992
1.60895
1.32242
1.07204
0.857501
0.677004
0.527728
0.406264
0.308951
0.232136
0.172366
0.126499
0.0917726
0.0658236
0.046681
0.0327362
0.0227028
0.0155712
0.0105627
0.00708695
0.00470312
0.00308721
0.00200451
0.00128743
0.000817925
0.000514033
0.000319569
0.000196538
0.000119577
7.19751e-05
4.28613e-05
2.52528e-05
1.47206e-05
8.49033e-06
4.84512e-06
2.73565e-06
1.52822e-06
8.44603e-07
4.61746e-07
2.49716e-07
1.33559e-07
7.06262e-08
3.69403e-08
1.90711e-08
9.74355e-09
4.91842e-09
2.46086e-09
1.20409e-09
5.77347e-10
2.87576e-10
1.47081e-10
6.25642e-11
1.64643e-11
2.74404e-11
3.95142e-11
3.7319e-11
3.29285e-11
1.31714e-11
0.322406
0.953432
1.54412
2.07092
2.51488
2.86281
3.10781
3.24921
3.29199
3.24583
3.12381
2.94111
2.71367
2.45709
2.1857
1.91192
1.64587
1.39527
1.16548
0.959743
0.779463
0.624589
0.493966
0.385686
0.297387
0.226498
0.170432
0.126725
0.0931257
0.0676451
0.0485752
0.0344866
0.0242094
0.0168052
0.011536
0.00783138
0.00525785
0.0034912
0.00229269
0.0014891
0.000956577
0.000607762
0.00038192
0.00023738
0.000145934
8.87411e-05
5.33778e-05
3.17601e-05
1.86941e-05
1.08853e-05
6.27058e-06
3.57366e-06
2.01492e-06
1.12392e-06
6.20216e-07
3.38541e-07
1.82799e-07
9.76287e-08
5.15606e-08
2.69268e-08
1.38936e-08
7.07634e-09
3.57384e-09
1.7507e-09
8.50654e-10
4.15997e-10
1.97571e-10
1.06469e-10
6.5857e-11
2.85381e-11
1.09762e-11
2.63428e-11
1.20738e-11
1.09762e-12
1.20738e-11
0.225281
0.66637
1.07973
1.44911
1.76138
2.00729
2.18187
2.28441
2.31812
2.28943
2.20724
2.08193
1.92452
1.74585
1.55597
1.36365
1.17611
0.998882
0.835898
0.689567
0.561009
0.450298
0.356706
0.278953
0.215416
0.164306
0.123807
0.0921798
0.0678259
0.0493271
0.0354615
0.0252032
0.01771
0.0123047
0.0084536
0.00574304
0.00385819
0.00256316
0.00168392
0.00109401
0.000702872
0.00044657
0.000280584
0.000174342
0.00010713
6.5104e-05
3.91293e-05
2.326e-05
1.36757e-05
7.95324e-06
4.57516e-06
2.6035e-06
1.46555e-06
8.16088e-07
4.49538e-07
2.44949e-07
1.31997e-07
7.03518e-08
3.70929e-08
1.93115e-08
9.95868e-09
5.06221e-09
2.5344e-09
1.23921e-09
6.14666e-10
2.89771e-10
1.21836e-10
5.48809e-11
3.51238e-11
5.48809e-12
-8.78094e-12
-2.19524e-11
-6.58571e-12
4.39047e-12
2.63428e-11
0.156217
0.462182
0.749197
1.00613
1.22394
1.39621
1.51939
1.59286
1.61864
1.60104
1.54603
1.46068
1.35254
1.22911
1.09735
0.963408
0.83236
0.708157
0.593619
0.490519
0.399722
0.32135
0.254952
0.199678
0.15442
0.117946
0.0889928
0.0663441
0.0488757
0.0355867
0.0256116
0.0182214
0.0128162
0.0089124
0.00612785
0.00416592
0.00280036
0.0018613
0.00122327
0.000794922
0.000510768
0.000324501
0.000203845
0.000126613
7.77601e-05
4.72219e-05
2.83565e-05
1.68385e-05
9.88808e-06
5.7425e-06
3.29833e-06
1.87376e-06
1.05287e-06
5.8519e-07
3.21703e-07
1.74924e-07
9.40636e-08
5.00129e-08
2.62967e-08
1.36588e-08
7.0039e-09
3.56396e-09
1.77924e-09
9.08827e-10
4.34657e-10
1.93181e-10
8.56142e-11
4.06118e-11
1.97571e-11
1.53666e-11
-3.29285e-12
-3.40261e-11
-8.78094e-12
5.48809e-12
-9.87856e-12
0.107483
0.31806
0.515771
0.693042
0.843693
0.963297
1.04937
1.1014
1.12066
1.11
1.07342
1.0157
0.941974
0.857376
0.766705
0.674212
0.583446
0.497185
0.417432
0.345472
0.281956
0.227013
0.18037
0.141465
0.109552
0.0837865
0.0632998
0.0472479
0.0348484
0.0254017
0.0183008
0.0130331
0.00917544
0.00638602
0.00439414
0.0029893
0.00201057
0.00133697
0.000878964
0.000571299
0.000367104
0.000233207
0.000146459
9.09311e-05
5.58123e-05
3.38671e-05
2.03174e-05
1.20508e-05
7.0672e-06
4.0981e-06
2.3499e-06
1.3325e-06
7.47271e-07
4.14454e-07
2.27344e-07
1.23343e-07
6.61754e-08
3.50886e-08
1.83972e-08
9.52073e-09
4.85696e-09
2.46415e-09
1.23701e-09
6.27837e-10
2.93064e-10
1.22933e-10
5.26856e-11
4.28071e-11
1.75619e-11
1.86595e-11
-1.31714e-11
-8.78094e-12
-2.19523e-12
-1.64643e-11
-2.52452e-11
0.073366
0.217139
0.352236
0.473539
0.576855
0.65916
0.718732
0.755159
0.769258
0.76289
0.738726
0.699971
0.650094
0.592577
0.530698
0.467376
0.405063
0.345691
0.29067
0.240913
0.196903
0.158757
0.126312
0.0991997
0.0769209
0.0589042
0.0445557
0.033296
0.0245856
0.0179402
0.0129383
0.00922297
0.00649884
0.00452683
0.00311715
0.00212193
0.00142796
0.000949963
0.000624729
0.000406126
0.000260976
0.000165767
0.000104075
6.45862e-05
3.96164e-05
2.40191e-05
1.43945e-05
8.52733e-06
4.99371e-06
2.89107e-06
1.6548e-06
9.36488e-07
5.24055e-07
2.89994e-07
1.58706e-07
8.58952e-08
4.59671e-08
2.42958e-08
1.27049e-08
6.55717e-09
3.33017e-09
1.66618e-09
8.39677e-10
4.05021e-10
1.90985e-10
8.01261e-11
3.18309e-11
0
-2.19524e-11
5.48809e-12
1.09762e-12
2.19524e-11
1.09762e-12
-3.29285e-12
3.29285e-12
0.0496745
0.147043
0.238601
0.320916
0.391164
0.447299
0.488136
0.513365
0.523499
0.519754
0.503898
0.478066
0.444583
0.405793
0.363917
0.320938
0.278535
0.238038
0.200427
0.166344
0.136139
0.109909
0.08756
0.0688526
0.053455
0.0409834
0.0310361
0.0232189
0.0171632
0.0125369
0.00905034
0.0064574
0.00455403
0.00317465
0.0021876
0.00149008
0.00100328
0.000667713
0.000439238
0.000285584
0.000183517
0.000116549
7.31507e-05
4.53725e-05
2.78118e-05
1.68472e-05
1.00854e-05
5.9669e-06
3.48905e-06
2.01651e-06
1.15202e-06
6.50606e-07
3.63254e-07
2.00551e-07
1.09475e-07
5.90913e-08
3.15378e-08
1.66234e-08
8.6602e-09
4.46182e-09
2.26768e-09
1.13274e-09
5.49906e-10
2.61233e-10
1.29519e-10
3.95142e-11
2.305e-11
-1.53666e-11
-1.86595e-11
-3.29285e-12
1.20738e-11
-1.09762e-12
-3.07333e-11
-8.78094e-12
1.97571e-11
0.0333583
0.0987586
0.160296
0.215684
0.263038
0.300983
0.328711
0.345999
0.353165
0.351
0.340665
0.323573
0.301271
0.275324
0.247221
0.218301
0.189701
0.162328
0.136853
0.113725
0.0931907
0.0753285
0.0600835
0.0473024
0.0367666
0.0282204
0.0213943
0.0160226
0.0118559
0.00866867
0.00626374
0.00447313
0.00315724
0.00220261
0.00151882
0.00103516
0.00069733
0.000464276
0.000305494
0.000198654
0.000127654
8.10575e-05
5.08574e-05
3.15284e-05
1.9312e-05
1.16876e-05
6.98885e-06
4.12932e-06
2.41083e-06
1.39088e-06
7.93037e-07
4.46933e-07
2.48954e-07
1.37095e-07
7.46248e-08
4.01772e-08
2.13849e-08
1.12583e-08
5.8503e-09
3.01735e-09
1.53447e-09
7.7382e-10
3.60019e-10
1.47081e-10
5.92713e-11
1.75619e-11
2.19523e-12
9.87856e-12
1.75619e-11
-1.53666e-11
-9.87856e-12
-1.75619e-11
-2.63428e-11
-2.52452e-11
-5.48809e-12
0.0222159
0.0657791
0.106793
0.143747
0.175391
0.20081
0.219461
0.231182
0.236173
0.234944
0.228253
0.217028
0.20229
0.185075
0.166375
0.147084
0.127964
0.109628
0.0925326
0.0769845
0.063157
0.0511098
0.040812
0.0321659
0.0250286
0.0192312
0.0145945
0.0109411
0.00810368
0.00593073
0.00428922
0.00306566
0.00216554
0.00151187
0.0010432
0.000711417
0.000479471
0.000319348
0.000210186
0.000136695
8.78377e-05
5.5765e-05
3.4976e-05
2.16713e-05
1.32646e-05
8.02023e-06
4.7904e-06
2.82651e-06
1.64759e-06
9.4885e-07
5.39926e-07
3.03602e-07
1.68704e-07
9.26356e-08
5.02983e-08
2.69882e-08
1.43074e-08
7.52417e-09
3.93167e-09
2.02949e-09
1.04164e-09
5.25759e-10
2.62331e-10
1.09762e-10
4.71976e-11
3.51238e-11
9.87856e-12
1.64643e-11
1.20738e-11
6.58571e-12
-4.39047e-12
2.19524e-12
4.39047e-12
1.09762e-12
-3.84166e-11
0.0146713
0.0434452
0.0705496
0.094993
0.115954
0.132829
0.145256
0.153121
0.156548
0.155865
0.151562
0.144245
0.134582
0.123255
0.110917
0.0981599
0.0854915
0.0733204
0.0619533
0.0515987
0.0423759
0.0343289
0.0274407
0.0216495
0.0168626
0.0129695
0.00985208
0.00739281
0.00548063
0.0040146
0.00290592
0.00207865
0.00146945
0.00102662
0.000708831
0.000483661
0.000326125
0.000217293
0.000143052
9.30454e-05
5.97879e-05
3.79503e-05
2.37942e-05
1.47351e-05
9.01251e-06
5.44421e-06
3.24802e-06
1.91383e-06
1.11379e-06
6.40281e-07
3.63606e-07
2.03979e-07
1.13078e-07
6.19254e-08
3.35278e-08
1.79054e-08
9.46585e-09
4.96782e-09
2.58269e-09
1.32043e-09
6.84913e-10
3.40261e-10
1.69033e-10
7.90285e-11
4.71976e-11
4.06118e-11
2.19524e-11
1.09762e-11
-2.19524e-12
1.53666e-11
2.74404e-11
2.52452e-11
4.39047e-12
4.39047e-12
-1.75619e-11
0.00960692
0.0284512
0.0462103
0.062239
0.0760021
0.0871037
0.0953051
0.100529
0.10285
0.102478
0.0997295
0.0949958
0.0887107
0.0813189
0.0732477
0.0648855
0.0565663
0.0485606
0.0410722
0.034241
0.0281481
0.0228248
0.0182624
0.0144218
0.0112435
0.00865563
0.00658103
0.00494264
0.00366737
0.00268863
0.0019477
0.00139431
0.000986392
0.000689604
0.000476432
0.000325264
0.000219422
0.000146251
9.63063e-05
6.26482e-05
4.0255e-05
2.55474e-05
1.60123e-05
9.91085e-06
6.05747e-06
3.6558e-06
2.17857e-06
1.28197e-06
7.44884e-07
4.27422e-07
2.42239e-07
1.35606e-07
7.50035e-08
4.0996e-08
2.21203e-08
1.18049e-08
6.23666e-09
3.26761e-09
1.67167e-09
8.52849e-10
4.34657e-10
2.27207e-10
1.25128e-10
7.02475e-11
1.53666e-11
1.31714e-11
3.18309e-11
4.39047e-12
-4.39047e-12
-6.5857e-12
8.78094e-12
1.97571e-11
3.29285e-12
-1.64643e-11
1.31714e-11
0.00623698
0.0184727
0.0300085
0.0404278
0.0493844
0.0566216
0.0619832
0.0654168
0.0669685
0.0667711
0.0650268
0.0619872
0.0579319
0.0531483
0.0479134
0.0424799
0.0370656
0.0318476
0.0269602
0.0224959
0.0185091
0.0150218
0.0120296
0.00950791
0.00741885
0.00571609
0.00434966
0.00326946
0.00242785
0.00178131
0.00129141
0.000925165
0.000654959
0.000458193
0.000316745
0.00021636
0.000146021
9.73621e-05
6.41291e-05
4.17221e-05
2.68085e-05
1.70111e-05
1.06586e-05
6.59387e-06
4.02737e-06
2.42843e-06
1.44555e-06
8.49479e-07
4.92852e-07
2.823e-07
1.59679e-07
8.92034e-08
4.92117e-08
2.68181e-08
1.44205e-08
7.68991e-09
4.06228e-09
2.11511e-09
1.09323e-09
5.58687e-10
2.78795e-10
1.50374e-10
9.21999e-11
5.48809e-11
1.53666e-11
2.19524e-12
1.31714e-11
1.31714e-11
2.08547e-11
6.58571e-12
-1.53666e-11
-7.68332e-12
-3.29285e-12
-1.09762e-11
1.64643e-11
0.00401427
0.0118904
0.0193186
0.0260322
0.031809
0.0364838
0.0399556
0.0421894
0.0432135
0.0431113
0.0420115
0.0400744
0.0374787
0.0344088
0.0310426
0.0275431
0.024051
0.0206812
0.017521
0.0146311
0.0120476
0.00978531
0.0078422
0.00620309
0.00484388
0.00373497
0.00284429
0.00213955
0.00158998
0.00116742
0.00084696
0.000607182
0.000430134
0.0003011
0.000208268
0.000142336
9.61054e-05
6.41029e-05
4.22333e-05
2.74806e-05
1.76578e-05
1.12031e-05
7.01737e-06
4.33922e-06
2.64857e-06
1.59566e-06
9.48819e-07
5.56863e-07
3.22599e-07
1.8447e-07
1.04118e-07
5.80354e-08
3.19242e-08
1.73303e-08
9.29243e-09
4.91403e-09
2.59038e-09
1.35336e-09
7.09061e-10
3.63311e-10
1.71228e-10
6.80523e-11
4.06118e-11
1.09762e-11
1.20738e-11
-1.4269e-11
-1.31714e-11
1.20738e-11
3.40261e-11
3.51238e-11
9.87856e-12
-9.87856e-12
1.09762e-12
5.48809e-12
-4.39047e-12
0.00256124
0.00758695
0.0123283
0.0166159
0.0203082
0.0233001
0.0255267
0.0269651
0.0276323
0.0275809
0.0268918
0.0256665
0.0240184
0.0220647
0.0199189
0.0176849
0.015453
0.0132967
0.0112725
0.00941964
0.00776159
0.00630842
0.00505917
0.00400447
0.00312915
0.00241444
0.00183992
0.00138498
0.00102993
0.000756725
0.000549369
0.000394097
0.000279358
0.000195672
0.000135421
9.25967e-05
6.25488e-05
4.17354e-05
2.75041e-05
1.78993e-05
1.15017e-05
7.29648e-06
4.56918e-06
2.82414e-06
1.72274e-06
1.03704e-06
6.16044e-07
3.61138e-07
2.0889e-07
1.19256e-07
6.71654e-08
3.73388e-08
2.04958e-08
1.11013e-08
5.94909e-09
3.14906e-09
1.65411e-09
8.78094e-10
4.57706e-10
2.38183e-10
1.13055e-10
4.39047e-11
1.75619e-11
-1.09762e-11
-2.19523e-11
-3.7319e-11
-2.74404e-11
-3.29285e-12
6.5857e-12
1.4269e-11
2.19523e-11
-6.5857e-12
9.87856e-12
2.74404e-11
8.78094e-12
0.00161983
0.00479858
0.00779823
0.010512
0.0128507
0.0147477
0.0161619
0.0170785
0.0175078
0.0174826
0.0170535
0.0162842
0.0152462
0.0140133
0.0126573
0.0112439
0.00983026
0.00846335
0.00717903
0.00600242
0.00494871
0.00402451
0.00322942
0.00255767
0.00199978