/*--------------------------------*- C++ -*----------------------------------*\
  =========                 |
  \\      /  F ield         | OpenFOAM: The Open Source CFD Toolbox
   \\    /   O peration     | Website:  https://openfoam.org
    \\  /    A nd           | Version:  10
     \\/     M anipulation  |
\*---------------------------------------------------------------------------*/
FoamFile
{
    format      ascii;
    class       volScalarField;
    location    "311";
    object      gradTx;
}
// * * * * * * * * * * * * * * * * * * * * * * * * * * * * * * * * * * * * * //

dimensions      [0 -1 0 1 0 0 0];

internalField   nonuniform List<scalar> 
11250
(
14298.3
8099.49
5302.87
3817.44
2916.89
2314.18
1880.9
1552.99
1295.42
1087.58
916.559
773.852
653.603
551.612
464.76
390.65
327.384
273.42
227.474
188.46
155.442
127.606
104.243
84.724
68.4999
55.0854
44.055
35.0364
27.7059
21.7829
17.0263
13.23
10.2189
7.84587
5.98749
4.54152
3.42369
2.56514
1.91003
1.41341
1.03942
0.759627
0.551678
0.398146
0.28554
0.203494
0.144111
0.101413
0.0709158
0.0492767
0.0340241
0.0233441
0.0159151
0.0107816
0.00725761
0.00485449
0.00322647
0.00213082
0.00139828
0.000911744
0.000590712
0.000380278
0.000243246
0.000154598
9.76268e-05
6.12536e-05
3.81832e-05
2.36451e-05
1.45416e-05
8.87402e-06
5.36081e-06
3.18341e-06
1.81875e-06
9.28421e-07
2.84122e-07
4094.2
4698.35
3993.47
3235.01
2622.13
2148.37
1779.64
1487.14
1250.51
1055.8
893.428
756.642
640.577
541.622
457.02
384.606
322.639
269.679
224.518
186.121
153.59
126.142
103.085
83.8111
67.7817
54.522
43.6144
34.6932
27.4395
21.577
16.8679
13.1087
10.1265
7.77579
5.93463
4.50184
3.39407
2.54315
1.8938
1.4015
1.03073
0.753317
0.547126
0.394881
0.283212
0.201844
0.142948
0.100599
0.0703493
0.0488847
0.0337546
0.0231599
0.01579
0.0106971
0.00720097
0.00481672
0.00320145
0.00211434
0.0013875
0.000904734
0.000586183
0.00037737
0.000241391
0.000153422
9.68859e-05
6.07899e-05
3.78948e-05
2.3467e-05
1.44323e-05
8.80751e-06
5.32072e-06
3.15968e-06
1.80526e-06
9.21539e-07
2.82042e-07
1474.69
2607.34
2739.43
2509.45
2191.29
1881.13
1606.2
1369.89
1168.44
996.694
849.857
723.92
615.636
522.39
442.055
372.883
313.409
262.387
218.745
181.545
149.964
123.269
100.813
82.0181
66.37
53.4138
42.7474
34.0174
26.9148
21.1714
16.5558
12.8696
9.94425
7.63754
5.83031
4.42354
3.33562
2.49975
1.86175
1.37797
1.01355
0.740851
0.538131
0.388429
0.278611
0.198583
0.14065
0.0989896
0.0692289
0.0481096
0.0332215
0.0227955
0.0155425
0.01053
0.00708887
0.00474198
0.00315193
0.00208173
0.00136616
0.000890857
0.000577216
0.000371612
0.000237717
0.000151092
9.54183e-05
5.98713e-05
3.73235e-05
2.3114e-05
1.42157e-05
8.67565e-06
5.24127e-06
3.11259e-06
1.77839e-06
9.07836e-07
2.77863e-07
672.258
1517.94
1849.22
1874.47
1755.45
1582.21
1398.16
1222.17
1061.38
917.609
790.46
678.68
580.78
495.284
420.823
356.16
300.185
251.903
210.42
174.931
144.71
119.101
97.5118
79.4087
64.3132
51.7976
41.4819
33.0302
26.1479
20.5782
16.099
12.5195
9.67726
7.43496
5.67739
4.30872
3.24987
2.43607
1.81472
1.34344
0.988335
0.722545
0.524919
0.378951
0.271851
0.19379
0.137273
0.0966239
0.0675819
0.0469699
0.0324377
0.0222597
0.0151785
0.0102843
0.00692398
0.00463202
0.00307906
0.00203374
0.00133476
0.000870434
0.000564018
0.000363137
0.000232308
0.000147663
9.32577e-05
5.85187e-05
3.64823e-05
2.25942e-05
1.38967e-05
8.48142e-06
5.12417e-06
3.0432e-06
1.73882e-06
8.87671e-07
2.71674e-07
369.012
943.995
1266.76
1386.11
1376.78
1297.56
1185.97
1063.57
941.902
826.733
720.661
624.587
538.532
462.073
394.583
335.348
283.633
238.717
199.908
166.552
138.036
113.793
93.2987
76.0729
61.6798
49.7256
39.8575
31.7617
25.1615
19.8146
15.5105
12.0682
9.33291
7.17353
5.47996
4.16042
3.13907
2.35375
1.75391
1.29876
0.955708
0.698853
0.507817
0.366678
0.263096
0.187582
0.132897
0.0935584
0.0654473
0.0454926
0.0314215
0.021565
0.0147065
0.00996558
0.0067101
0.00448939
0.00298453
0.00197148
0.00129401
0.000843931
0.000546888
0.000352135
0.000225287
0.000143211
9.04525e-05
5.67625e-05
3.53898e-05
2.19192e-05
1.34825e-05
8.22913e-06
4.97208e-06
2.95304e-06
1.68738e-06
8.61463e-07
2.63669e-07
229.148
623.283
889.392
1028.71
1070.85
1048.64
988.412
908.427
820.402
731.45
645.689
565.36
491.557
424.687
364.745
311.484
264.524
223.407
187.644
156.736
130.191
107.535
88.3188
72.1214
58.5543
47.2622
37.9234
30.2495
23.9842
18.9022
14.8068
11.5281
8.92044
6.86018
5.24317
3.98245
3.00605
2.25487
1.68082
1.24506
0.916469
0.670352
0.487236
0.351904
0.252554
0.180105
0.127626
0.0898649
0.0628749
0.0437119
0.0301964
0.0207274
0.0141373
0.00958116
0.00645209
0.0043173
0.00287046
0.00189635
0.00124483
0.000811937
0.000526208
0.000338852
0.000216809
0.000137834
8.70643e-05
5.4641e-05
3.40701e-05
2.11036e-05
1.29819e-05
7.92429e-06
4.78831e-06
2.84411e-06
1.62524e-06
8.29777e-07
2.53984e-07
153.776
431.576
640.422
770.715
832.009
841.008
814.289
765.36
704.148
637.505
569.943
504.319
442.35
384.997
332.715
285.633
243.663
206.586
174.096
145.842
121.449
100.538
82.734
67.6783
55.0321
44.4806
35.7357
28.5362
22.6486
17.8659
14.0066
10.9133
8.45055
6.50292
4.97299
3.77925
2.85407
2.14185
1.59725
1.18361
0.871554
0.637713
0.463659
0.334974
0.24047
0.171532
0.12158
0.0856273
0.0599228
0.0416679
0.0287899
0.0197655
0.0134835
0.00913955
0.00615565
0.00411954
0.00273936
0.00180997
0.00118828
0.00077515
0.000502426
0.000323574
0.000207057
0.000131648
8.31658e-05
5.21998e-05
3.25512e-05
2.01648e-05
1.24057e-05
7.5733e-06
4.57667e-06
2.71866e-06
1.55369e-06
7.93284e-07
2.42806e-07
108.472
309.762
471.547
583.828
648.109
672.205
665.902
638.442
597.466
548.814
496.721
444.136
393.029
344.664
299.789
258.798
221.831
188.857
159.731
134.232
112.092
93.0197
76.7136
62.8748
51.2144
41.459
33.3545
26.6682
21.19
16.7325
13.1304
10.2394
7.93489
6.1105
4.67598
3.5557
2.68676
2.01733
1.50511
1.11584
0.82199
0.601681
0.437619
0.316269
0.227113
0.162053
0.114893
0.0809388
0.0566557
0.0394053
0.0272325
0.0187002
0.0127593
0.00865025
0.00582712
0.00390033
0.00259401
0.0017142
0.00112557
0.000734345
0.000476042
0.000306623
0.000196234
0.000124783
7.88381e-05
4.94893e-05
3.08646e-05
1.91222e-05
1.17656e-05
7.18333e-06
4.34146e-06
2.57923e-06
1.47417e-06
7.52726e-07
2.30401e-07
79.123
228.344
353.646
446.953
506.908
536.762
542.024
528.72
502.396
467.688
428.235
386.767
345.251
305.052
267.073
231.867
199.733
170.782
144.994
122.256
102.394
85.1954
70.4255
57.8419
47.2033
38.2764
30.8409
24.6924
19.6447
15.5299
12.1993
9.52229
7.38562
5.69206
4.35898
3.31689
2.50788
1.88412
1.40648
1.04323
0.768866
0.563039
0.409681
0.296189
0.21277
0.151869
0.107707
0.0758985
0.0531423
0.0369713
0.0255567
0.0175535
0.0119795
0.00812333
0.00547326
0.00366418
0.00243738
0.00161098
0.00105796
0.000690348
0.000447589
0.000288339
0.000184559
0.000117375
7.41679e-05
4.65639e-05
2.9044e-05
1.79965e-05
1.10744e-05
6.76215e-06
4.08741e-06
2.42859e-06
1.38821e-06
7.08916e-07
2.17021e-07
59.082
171.69
269.126
345.328
398.179
428.708
439.878
435.492
419.428
395.201
365.771
333.5
300.199
267.2
235.448
205.575
177.973
152.85
130.278
110.23
92.6076
77.2654
64.0282
52.7044
43.0967
35.0095
28.2546
22.6553
18.0483
14.2854
11.2343
8.77811
6.81487
5.25675
4.02886
3.06796
2.32126
1.74502
1.30342
0.967322
0.713284
0.522587
0.380417
0.275147
0.197732
0.141187
0.100166
0.0706075
0.0494529
0.0344145
0.0237958
0.0163483
0.0111597
0.00756918
0.00510101
0.00341568
0.00227254
0.00150231
0.000986783
0.000644014
0.000417619
0.000269075
0.000172257
0.000109568
6.92448e-05
4.34794e-05
2.71239e-05
1.68092e-05
1.03452e-05
6.31778e-06
3.81934e-06
2.26956e-06
1.29743e-06
6.6264e-07
2.02869e-07
44.8629
130.998
207.138
268.834
313.997
342.637
356.258
357.2
348.108
331.571
309.904
285.066
258.635
231.832
205.568
180.49
157.035
135.466
115.919
98.428
82.9548
69.409
57.6653
47.5766
38.985
31.7294
25.6515
20.6003
16.4346
13.0252
10.2556
8.02219
6.23432
4.81344
3.69228
2.81391
2.13061
1.60281
1.19796
0.889585
0.656327
0.481108
0.350392
0.253547
0.182287
0.130211
0.0924133
0.065166
0.0456569
0.0317829
0.0219828
0.0151069
0.0103151
0.00699808
0.00471728
0.00315946
0.00210253
0.00139021
0.000913331
0.00059619
0.000386678
0.000249185
0.00015955
0.000101502
6.41582e-05
4.02919e-05
2.51393e-05
1.55817e-05
9.59117e-06
5.85819e-06
3.54198e-06
2.10503e-06
1.20353e-06
6.14702e-07
1.88188e-07
34.4816
101.038
160.805
210.53
248.408
274.028
288.08
291.972
287.48
276.468
260.706
241.766
220.973
199.398
177.874
157.023
137.283
118.947
102.185
87.0751
73.622
61.7787
51.4605
42.5582
34.9482
28.4997
23.0818
18.5669
14.8346
11.7733
9.28158
7.26874
5.65485
4.37036
3.35548
2.55941
1.93944
1.46007
1.09202
0.811432
0.599024
0.439347
0.320144
0.231772
0.166709
0.119134
0.0845867
0.0596697
0.0418212
0.0291227
0.0201493
0.0138511
0.0094604
0.00641998
0.00432871
0.00289993
0.00193027
0.0012766
0.000838874
0.0005477
0.000355299
0.000229007
0.000146658
9.3317e-05
5.89947e-05
3.70555e-05
2.31239e-05
1.43348e-05
8.82511e-06
5.39114e-06
3.26007e-06
1.93778e-06
1.10804e-06
5.65975e-07
1.73281e-07
26.7356
78.5473
125.633
165.606
196.991
219.244
232.615
237.933
236.372
229.258
217.919
203.59
187.355
170.122
152.627
135.436
118.969
103.521
89.2788
76.3455
64.7568
54.4978
45.5158
37.7328
31.0538
25.3749
20.5889
16.5896
13.2753
10.5508
8.32877
6.53047
5.0862
3.93496
3.0241
2.30871
1.75093
1.31917
0.987351
0.734154
0.542317
0.397991
0.29017
0.210181
0.151253
0.108139
0.0768129
0.054208
0.0380078
0.0264768
0.018325
0.0126012
0.00860932
0.00584413
0.00394154
0.00264124
0.00175853
0.0011633
0.000764596
0.000499314
0.000323979
0.000208862
0.000133783
8.51413e-05
5.38359e-05
3.38213e-05
2.11094e-05
1.30883e-05
8.05906e-06
4.92397e-06
2.97805e-06
1.7704e-06
1.01247e-06
5.17248e-07
1.58394e-07
20.859
61.4071
98.6003
130.677
156.462
175.412
187.55
193.346
193.57
189.156
181.089
170.324
157.728
144.056
129.937
115.871
102.245
89.3372
77.3384
66.3639
56.4686
47.6601
39.9106
33.1662
27.3562
22.3991
18.2084
14.6969
11.7794
9.37568
7.41114
5.81826
4.53677
3.51368
2.70304
2.06553
1.56786
1.1822
0.885506
0.658893
0.487045
0.357651
0.260911
0.189091
0.136146
0.0973854
0.0692062
0.048861
0.0342727
0.0238841
0.0165366
0.0113753
0.0077743
0.00527894
0.0035614
0.00238718
0.0015898
0.00105195
0.000691578
0.000451735
0.000293173
0.000189043
0.000121113
7.70935e-05
4.87567e-05
3.06362e-05
1.9125e-05
1.186e-05
7.30404e-06
4.46343e-06
2.69998e-06
1.60539e-06
9.18248e-07
4.69158e-07
1.43664e-07
16.3435
48.1912
77.6193
103.319
124.37
140.279
150.963
156.674
157.914
155.335
149.662
141.623
131.905
121.122
109.8
98.3716
87.1776
76.4753
66.4467
57.2102
48.8308
41.3314
34.7018
28.9074
23.8965
19.6064
15.9684
12.9114
10.3651
8.26228
6.54009
5.14103
4.01349
3.11186
2.3964
1.83298
1.39259
1.05093
0.7878
0.586624
0.433924
0.31885
0.232747
0.168777
0.121585
0.0870143
0.0618657
0.0436982
0.0306645
0.0213782
0.0148072
0.0101894
0.00696622
0.00473178
0.00319325
0.00214104
0.00142628
0.000944
0.000620769
0.000405582
0.000263281
0.000169806
0.000108813
6.92782e-05
4.3823e-05
2.75415e-05
1.71964e-05
1.06661e-05
6.56993e-06
4.01557e-06
2.4295e-06
1.4448e-06
8.26505e-07
4.2234e-07
1.29326e-07
12.84
37.9099
61.2127
81.7708
98.8665
112.079
121.281
126.595
128.345
126.986
123.046
117.077
109.617
101.156
92.1298
82.9019
73.7684
64.958
56.6386
48.9247
41.885
35.5514
29.9261
24.9887
20.7027
17.0208
13.8888
11.2496
9.04581
7.22156
5.72434
4.50568
3.52177
2.73371
2.10743
1.61354
1.22701
0.926777
0.695297
0.518138
0.38354
0.282017
0.20599
0.149463
0.107732
0.0771412
0.0548736
0.0387777
0.0272238
0.0189875
0.0131566
0.00905696
0.00619423
0.00420884
0.00284126
0.00190563
0.00126983
0.000840684
0.000552975
0.000361381
0.000234646
0.000151373
9.70222e-05
6.17849e-05
3.90911e-05
2.45727e-05
1.53457e-05
9.52004e-06
5.86515e-06
3.58547e-06
2.16967e-06
1.29047e-06
7.38321e-07
3.77319e-07
1.15563e-07
10.1023
29.8582
48.3109
64.7261
78.5472
89.4254
97.2217
101.987
103.925
103.353
100.656
96.2481
90.5454
83.9389
76.7802
69.3727
61.9672
54.763
47.9101
41.5149
35.6453
30.3375
25.6017
21.428
17.7916
14.6571
11.9826
9.72268
7.83075
6.26105
4.97001
3.91711
3.06552
2.3823
1.8385
1.40906
1.07254
0.810818
0.608808
0.454042
0.336342
0.247483
0.180885
0.131328
0.0947154
0.0678577
0.0482949
0.0341454
0.0239828
0.0167344
0.0116002
0.00798868
0.00546565
0.0037151
0.0025088
0.00168318
0.00112194
0.00074299
0.000488851
0.000319558
0.000207542
0.00013392
8.5856e-05
5.46862e-05
3.46073e-05
2.17586e-05
1.35911e-05
8.43319e-06
5.19655e-06
3.17732e-06
1.92302e-06
1.14399e-06
6.54607e-07
3.34541e-07
1.02451e-07
7.95165
23.5224
38.1246
51.2045
62.3315
71.2216
77.7429
81.9045
83.8345
83.7518
81.9357
78.6975
74.3563
69.2197
63.5702
57.6562
51.6875
45.834
40.227
34.9621
30.1035
25.6884
21.7317
18.2306
15.1692
12.5217
10.256
8.33624
6.72503
5.38516
4.2808
3.37841
2.64722
2.05963
1.59123
1.2208
0.930127
0.703796
0.5289
0.394763
0.29265
0.215488
0.157605
0.114498
0.082627
0.0592305
0.0421773
0.0298352
0.0209655
0.0146356
0.0101497
0.0069926
0.004786
0.00325432
0.0021984
0.00147541
0.000983758
0.000651676
0.000428892
0.00028044
0.000182183
0.000117586
7.5402e-05
4.80385e-05
3.0407e-05
1.91219e-05
1.19466e-05
7.41425e-06
4.56955e-06
2.79448e-06
1.69163e-06
1.00649e-06
5.7602e-07
2.94396e-07
9.01517e-08
6.25626
18.5208
30.0611
40.4585
49.3803
56.5986
61.9957
65.5589
67.367
67.5712
66.3737
64.0068
60.7145
56.7371
52.2991
47.6019
42.8183
38.0911
33.5329
29.2277
25.2339
21.5876
18.306
15.3912
12.8334
10.6144
8.70979
7.09164
5.73022
4.59549
3.65826
2.89094
2.26808
1.76671
1.36643
1.04942
0.800333
0.60614
0.455905
0.340558
0.25266
0.186177
0.13626
0.0990558
0.0715266
0.051303
0.0365522
0.0258695
0.0181876
0.0127023
0.00881287
0.00607414
0.00415902
0.00282906
0.0019118
0.0012835
0.000856073
0.000567267
0.000373448
0.000244254
0.000158718
0.000102467
6.57224e-05
4.18814e-05
2.65156e-05
1.66782e-05
1.0422e-05
6.46938e-06
3.988e-06
2.4393e-06
1.4769e-06
8.78845e-07
5.03036e-07
2.57144e-07
7.87431e-08
4.91683
14.5646
23.6687
31.9114
39.0365
44.8626
49.2886
52.292
53.9199
54.2763
53.5075
51.7864
49.2987
46.2308
42.7599
39.0475
35.2344
31.4391
27.7563
24.2587
20.9979
18.0075
15.3052
12.8961
10.7749
8.92889
7.33993
5.98641
4.84487
3.89129
3.10204
2.45463
1.92818
1.50371
1.1643
0.895113
0.683323
0.518001
0.389951
0.291531
0.216455
0.159616
0.116902
0.0850391
0.0614436
0.0440968
0.0314355
0.02226
0.0156578
0.0109407
0.00759405
0.00523632
0.00358681
0.00244076
0.00165
0.00110813
0.000739343
0.00049007
0.000322723
0.000211137
0.000137235
8.862e-05
5.68551e-05
3.62391e-05
2.29485e-05
1.44377e-05
9.02376e-06
5.60253e-06
3.4543e-06
2.11326e-06
1.27968e-06
7.61625e-07
4.36024e-07
2.22915e-07
6.82795e-08
3.85754
11.4328
18.5986
25.1138
30.781
35.457
39.0575
41.5565
42.981
43.4025
42.9266
41.6817
39.8086
37.4511
34.7481
31.828
28.8045
25.7744
22.8168
19.9931
17.3483
14.9123
12.7025
10.7254
8.97901
7.45458
6.13878
5.01508
4.06512
3.26984
2.61027
2.06821
1.62665
1.27004
0.984458
0.757639
0.578945
0.439284
0.330984
0.247652
0.18402
0.135799
0.0995288
0.0724493
0.0523802
0.0376147
0.0268298
0.0190088
0.0133777
0.00935202
0.00649433
0.00447997
0.00306999
0.00208989
0.00141333
0.000949516
0.000633729
0.000420197
0.000276793
0.00018114
0.000117769
7.60696e-05
4.88152e-05
3.11218e-05
1.97124e-05
1.24043e-05
7.75452e-06
4.81548e-06
2.96958e-06
1.81704e-06
1.10049e-06
6.55105e-07
3.75083e-07
1.91775e-07
5.87664e-08
3.01972
8.95383
14.579
19.7119
24.201
27.9338
30.8412
32.8976
34.1173
34.5495
34.2703
33.3747
31.9693
30.1644
28.0682
25.782
23.3968
20.9911
18.6297
16.3641
14.2325
12.2613
10.4665
8.85522
7.42748
6.17763
5.09595
4.1699
3.38523
2.72691
2.17984
1.72941
1.36185
1.06453
0.826066
0.636401
0.48678
0.369695
0.278797
0.208778
0.155258
0.114659
0.0840948
0.0612558
0.0443156
0.0318427
0.0227258
0.0161099
0.0113434
0.00793381
0.00551204
0.00380404
0.00260788
0.00177602
0.00120152
0.000807504
0.000539129
0.000357587
0.000235622
0.000154241
0.000100308
6.48078e-05
4.15985e-05
2.6527e-05
1.68058e-05
1.05776e-05
6.61387e-06
4.1079e-06
2.53372e-06
1.55061e-06
9.39327e-07
5.59243e-07
3.202e-07
1.63745e-07
5.01469e-08
2.35759
6.99329
11.3956
15.4254
18.9663
21.9305
24.2622
25.9379
26.9644
27.3752
27.2252
26.5846
25.5338
24.157
22.5381
20.7564
18.8842
16.9844
15.1099
13.303
11.5957
10.0109
8.56287
7.25868
6.09957
5.08206
4.19919
3.44153
2.79811
2.25718
1.80678
1.43527
1.1316
0.885561
0.687936
0.530533
0.406199
0.308783
0.233067
0.174678
0.130002
0.0960802
0.0705186
0.0514015
0.0372104
0.0267536
0.0191048
0.0135506
0.00954631
0.00668017
0.00464325
0.00320589
0.00219875
0.00149799
0.00101381
0.000681597
0.000455223
0.000302032
0.000199076
0.000130355
8.47975e-05
5.48008e-05
3.51839e-05
2.24417e-05
1.42207e-05
8.95237e-06
5.59873e-06
3.47803e-06
2.14559e-06
1.31332e-06
7.95696e-07
4.73791e-07
2.71331e-07
1.38758e-07
4.24976e-08
1.83505
5.44517
8.879
12.0309
14.8117
17.1534
19.0113
20.3648
21.2163
21.5885
21.521
21.0656
20.2826
19.2363
17.9911
16.6089
15.1467
13.6545
12.1748
10.7422
9.38323
8.11716
6.95647
5.90789
4.97328
4.15066
3.43513
2.81965
2.29585
1.85459
1.48649
1.18232
0.933277
0.731188
0.568626
0.43897
0.336421
0.255976
0.193377
0.145053
0.108039
0.0799083
0.058691
0.0428094
0.0310105
0.0223097
0.0159407
0.0113126
0.00797384
0.0055826
0.00388219
0.00268163
0.00183997
0.00125407
0.000849054
0.000571034
0.000381511
0.000253208
0.000166946
0.000109348
7.11513e-05
4.59937e-05
2.95366e-05
1.88439e-05
1.19435e-05
7.52027e-06
4.704e-06
2.92274e-06
1.80334e-06
1.10399e-06
6.68961e-07
3.9838e-07
2.28202e-07
1.16725e-07
3.57757e-08
1.42352
4.22532
6.89403
9.34953
11.5238
13.3641
14.8352
15.9196
16.6172
16.9434
16.9265
16.6049
16.0235
15.2312
14.2774
13.2101
12.0737
10.9077
9.74624
8.61702
7.54187
6.53676
5.6124
4.77487
4.02634
3.36583
2.78994
2.29347
1.87007
1.51269
1.21401
0.966788
0.76404
0.599265
0.466528
0.360516
0.276561
0.210622
0.159253
0.119556
0.0891186
0.0659634
0.0484834
0.035388
0.0256511
0.0184653
0.0132016
0.00937391
0.00661084
0.00463066
0.00322174
0.00222643
0.00152829
0.00104206
0.000705787
0.000474852
0.00031736
0.000210699
0.000138961
9.10442e-05
5.92573e-05
3.83149e-05
2.46112e-05
1.57051e-05
9.95611e-06
6.27016e-06
3.92279e-06
2.43779e-06
1.50436e-06
9.21085e-07
5.58225e-07
3.32506e-07
1.90476e-07
9.74454e-08
2.9853e-08
1.10026
3.26667
5.33272
7.23777
8.93
10.3689
11.5266
12.3889
12.9541
13.2328
13.2452
13.0196
12.5895
11.9918
11.2643
10.4438
9.56497
8.65876
7.75205
6.86712
6.02158
5.22858
4.4971
3.83249
3.23696
2.71019
2.24985
1.85215
1.51231
1.22491
0.984293
0.78479
0.620922
0.487546
0.379951
0.293905
0.225676
0.172025
0.130182
0.0978115
0.0729674
0.0540491
0.0397546
0.0290365
0.0210608
0.0151703
0.0108521
0.00770995
0.00544023
0.0038126
0.00265385
0.00183481
0.00126001
0.000859482
0.000582351
0.000391946
0.000262041
0.000174028
0.000114811
7.52426e-05
4.89857e-05
3.16814e-05
2.0355e-05
1.29918e-05
8.23774e-06
5.18895e-06
3.24692e-06
2.0181e-06
1.24558e-06
7.6275e-07
4.62307e-07
2.75406e-07
1.5777e-07
8.06913e-08
2.47326e-08
0.847082
2.5156
4.10856
5.58016
6.89107
8.01021
8.91595
9.5966
10.0501
10.2835
10.3113
10.1541
9.83715
9.388
8.83538
8.20757
7.53124
6.83057
6.12664
5.43712
4.77611
4.15427
3.57906
3.05506
2.58436
2.16705
1.80157
1.48517
1.21428
0.984777
0.792303
0.632455
0.500956
0.393772
0.307186
0.237852
0.182806
0.139472
0.105637
0.0794344
0.0593041
0.0439609
0.0323573
0.0236495
0.0171645
0.0123713
0.00885504
0.00629461
0.00444389
0.00311592
0.00216994
0.00150092
0.00103116
0.000703665
0.000476958
0.000321128
0.000214768
0.000142678
9.41566e-05
6.1724e-05
4.01952e-05
2.60024e-05
1.67101e-05
1.06677e-05
6.7654e-06
4.26228e-06
2.6675e-06
1.65822e-06
1.02359e-06
6.26884e-07
3.79993e-07
2.26355e-07
1.29692e-07
6.63554e-08
2.03553e-08
0.649477
1.92918
3.15212
4.2838
5.29445
6.16037
6.8648
7.39838
7.75897
7.95118
7.98543
7.87687
7.6441
7.30788
6.88991
6.41173
5.89384
5.35492
4.81143
4.27722
3.76351
3.27886
2.82935
2.41883
2.04921
1.72079
1.43256
1.18256
0.968108
0.786106
0.633214
0.50604
0.401264
0.315741
0.246561
0.191094
0.147005
0.112255
0.0850949
0.0640391
0.0478471
0.0354941
0.0261437
0.0191208
0.0138865
0.0100148
0.00717248
0.00510138
0.00360338
0.00252784
0.00176124
0.00121878
0.000837681
0.000571862
0.000387767
0.000261171
0.000174727
0.000116115
7.66494e-05
5.02611e-05
3.27388e-05
2.11839e-05
1.36165e-05
8.69457e-06
5.51506e-06
3.47513e-06
2.17521e-06
1.35238e-06
8.34906e-07
5.11398e-07
3.10015e-07
1.8467e-07
1.05817e-07
5.41477e-08
1.65817e-08
0.495819
1.47304
2.40773
3.27398
4.04934
4.7158
5.26048
5.67597
5.96023
6.1163
6.15163
6.07727
5.907
5.65632
5.34156
4.97906
4.58446
4.17213
3.75479
3.34327
2.94637
2.57092
2.2218
1.90222
1.61385
1.35707
1.13128
0.935056
0.766443
0.623099
0.502491
0.402017
0.319119
0.251361
0.196479
0.152422
0.117361
0.089697
0.0680509
0.051253
0.038323
0.0284495
0.0209695
0.0153467
0.0111526
0.00804801
0.00576721
0.00410414
0.00290049
0.00203576
0.00141906
0.000982426
0.00067552
0.000461344
0.000312945
0.000210851
0.00014111
9.38033e-05
6.19392e-05
4.06262e-05
2.64695e-05
1.71313e-05
1.10139e-05
7.03409e-06
4.46257e-06
2.81239e-06
1.76062e-06
1.09478e-06
6.75941e-07
4.14071e-07
2.51022e-07
1.4956e-07
8.57009e-08
4.38257e-08
1.34151e-08
0.376814
1.11967
1.83077
2.49069
3.08257
3.59279
4.01151
4.33292
4.55522
4.68038
4.71371
4.66326
4.53919
4.35304
4.11705
3.84354
3.54439
3.23057
2.91186
2.59664
2.29179
2.00267
1.7332
1.48597
1.26241
1.06296
0.887234
0.734254
0.602572
0.490445
0.395955
0.317125
0.251993
0.198686
0.155454
0.120708
0.093024
0.0711568
0.0540289
0.040724
0.030473
0.0226382
0.0166975
0.0122283
0.00889198
0.00642051
0.00460357
0.00327784
0.00231773
0.00162754
0.00113503
0.000786139
0.000540779
0.000369469
0.000250717
0.000168983
0.000113127
7.52247e-05
4.96857e-05
3.25977e-05
2.12437e-05
1.37522e-05
8.84325e-06
5.6488e-06
3.58432e-06
2.25923e-06
1.41452e-06
8.79641e-07
5.43142e-07
3.32757e-07
2.0176e-07
1.20239e-07
6.88865e-08
3.52379e-08
1.07962e-08
0.285042
0.84711
1.38552
1.88581
2.33533
2.72385
3.04388
3.29093
3.46344
3.56269
3.59245
3.55858
3.46854
3.33088
3.15474
2.94937
2.72372
2.48613
2.24408
2.004
1.77121
1.5499
1.34318
1.15311
0.980902
0.826967
0.691105
0.572624
0.470473
0.383355
0.309832
0.248407
0.197587
0.15594
0.122124
0.0949124
0.0732082
0.0560456
0.0425891
0.0321259
0.0240569
0.0178843
0.0132001
0.0096732
0.00703837
0.00508511
0.00364813
0.00259895
0.00183863
0.00129174
0.000901262
0.000624503
0.000429769
0.00029374
0.000199401
0.000134443
9.00327e-05
5.98858e-05
3.95654e-05
2.59646e-05
1.6925e-05
1.09588e-05
7.04831e-06
4.50302e-06
2.85774e-06
1.80149e-06
1.12806e-06
7.01556e-07
4.3323e-07
2.65429e-07
1.60962e-07
9.59032e-08
5.49193e-08
2.81001e-08
8.62398e-09
0.214588
0.637819
1.0435
1.42087
1.76051
2.05476
2.29795
2.48663
2.61952
2.69743
2.72302
2.70054
2.63546
2.5341
2.40323
2.24976
2.08042
1.90151
1.71868
1.53686
1.36014
1.19175
1.03413
0.888915
0.757096
0.639054
0.534693
0.443534
0.364816
0.297584
0.240762
0.193225
0.153845
0.121533
0.0952643
0.0741026
0.0572054
0.0438301
0.0333325
0.0251624
0.018856
0.0140276
0.0103604
0.00759708
0.00553113
0.00399849
0.00287017
0.00204581
0.00144804
0.00101782
0.000710471
0.000492512
0.000339075
0.000231841
0.000157439
0.000106186
7.11326e-05
4.73282e-05
3.12773e-05
2.05306e-05
1.33859e-05
8.669e-06
5.57663e-06
3.56334e-06
2.26171e-06
1.42594e-06
8.92984e-07
5.55423e-07
3.43032e-07
2.10151e-07
1.27431e-07
7.59178e-08
4.34854e-08
2.22399e-08
6.81401e-09
0.160755
0.477873
0.782017
1.06522
1.3205
1.54213
1.72587
1.86907
1.97071
2.03128
2.05267
2.03795
1.99111
1.91679
1.82001
1.70589
1.57947
1.44545
1.30812
1.17121
1.03783
0.910471
0.791012
0.680756
0.580489
0.490547
0.410901
0.341221
0.280962
0.229421
0.185802
0.149262
0.118955
0.0940562
0.0737919
0.0574491
0.0443858
0.0340349
0.0259032
0.0195685
0.0146745
0.0109243
0.00807361
0.00592394
0.00431557
0.00312154
0.00224192
0.00159884
0.00113224
0.000796221
0.000556037
0.00038562
0.00026559
0.000181665
0.000123409
8.32622e-05
5.57932e-05
3.71327e-05
2.45459e-05
1.6116e-05
1.05099e-05
6.80774e-06
4.38007e-06
2.79919e-06
1.77692e-06
1.12043e-06
7.01721e-07
4.36494e-07
2.6958e-07
1.65178e-07
1.00149e-07
5.96775e-08
3.41985e-08
1.74971e-08
5.33003e-09
0.119822
0.356233
0.583093
0.79453
0.985378
1.15139
1.28941
1.39743
1.47462
1.52129
1.53878
1.52928
1.49572
1.44147
1.37023
1.28579
1.19189
1.09205
0.989473
0.886961
0.786878
0.691123
0.601139
0.517939
0.442148
0.374053
0.313658
0.260743
0.214917
0.175667
0.142406
0.114509
0.0913414
0.0722868
0.0567615
0.0442271
0.0341978
0.0262431
0.0199879
0.0151107
0.0113394
0.00844715
0.0062469
0.00458642
0.00334317
0.00241955
0.00173868
0.00124059
0.00087897
0.000618404
0.000432051
0.000299759
0.000206537
0.000141324
9.60382e-05
6.48164e-05
4.34459e-05
2.89231e-05
1.91239e-05
1.2559e-05
8.19189e-06
5.30725e-06
3.41521e-06
2.18289e-06
1.38587e-06
8.73933e-07
5.47383e-07
3.40505e-07
2.1029e-07
1.28862e-07
7.8158e-08
4.65807e-08
2.66809e-08
1.36544e-08
4.17534e-09
0.0888542
0.264193
0.43253
0.589554
0.731466
0.855134
0.958207
1.03918
1.0974
1.13306
1.14709
1.14108
1.11713
1.07771
1.02552
0.963365
0.893989
0.820009
0.743811
0.667494
0.592835
0.52127
0.453898
0.391501
0.334569
0.283339
0.237836
0.197912
0.163289
0.133596
0.108403
0.087246
0.069656
0.0551726
0.0433591
0.0338116
0.0261646
0.0200936
0.0153154
0.0115865
0.00870064
0.00648565
0.00479933
0.00352575
0.0025715
0.0018621
0.00133881
0.000955756
0.000677491
0.000476871
0.000333313
0.000231349
0.000159463
0.000109154
7.42015e-05
5.00946e-05
3.35878e-05
2.23663e-05
1.47922e-05
9.71639e-06
6.33897e-06
4.10753e-06
2.64359e-06
1.68992e-06
1.07297e-06
6.76676e-07
4.23872e-07
2.6367e-07
1.62843e-07
9.97734e-08
6.05117e-08
3.60721e-08
2.06626e-08
1.05558e-08
3.25114e-09
0.0655463
0.19491
0.319163
0.435155
0.540104
0.631711
0.708239
0.768564
0.812188
0.839214
0.850299
0.846575
0.829558
0.801043
0.763001
0.717474
0.666488
0.611969
0.555684
0.499194
0.443825
0.390657
0.34052
0.294011
0.251512
0.213213
0.179148
0.14922
0.123231
0.100916
0.0819591
0.0660214
0.0527557
0.0418211
0.0328929
0.0256701
0.0198795
0.0152781
0.0116533
0.00882201
0.00662912
0.00494465
0.00366125
0.00269127
0.00196398
0.00142295
0.0010236
0.000731098
0.000518486
0.000365115
0.000255309
0.000177279
0.00012224
8.3704e-05
5.69199e-05
3.84393e-05
2.57804e-05
1.71717e-05
1.13594e-05
7.46308e-06
4.86981e-06
3.15605e-06
2.03151e-06
1.29879e-06
8.24704e-07
5.20124e-07
3.25823e-07
2.02697e-07
1.25204e-07
7.67015e-08
4.64841e-08
2.76995e-08
1.58737e-08
8.10151e-09
2.49708e-09
0.0480963
0.143033
0.234256
0.319475
0.396662
0.464137
0.520626
0.565294
0.597762
0.618085
0.626721
0.624478
0.612443
0.591913
0.564317
0.531144
0.493872
0.453915
0.412573
0.370998
0.330176
0.29091
0.253825
0.219372
0.187843
0.159392
0.134052
0.11176
0.0923797
0.0757182
0.0615481
0.0496215
0.0396838
0.0314838
0.0247819
0.0193548
0.0149999
0.0115361
0.00880519
0.00667036
0.00501554
0.00374341
0.00277346
0.00203986
0.00148944
0.00107971
0.000777084
0.000555294
0.000393991
0.000277568
0.000194172
0.00013488
9.30393e-05
6.37308e-05
4.33518e-05
2.92852e-05
1.96463e-05
1.30892e-05
8.66068e-06
5.69119e-06
3.71426e-06
2.40749e-06
1.54986e-06
9.90943e-07
6.29294e-07
3.9689e-07
2.48614e-07
1.54684e-07
9.55597e-08
5.85579e-08
3.54937e-08
2.11313e-08
1.21111e-08
6.20373e-09
1.89778e-09
0.0351023
0.104399
0.17101
0.233277
0.28973
0.339149
0.380602
0.413475
0.437482
0.452649
0.459295
0.457992
0.449519
0.434808
0.41489
0.390844
0.363745
0.334621
0.304426
0.274005
0.244084
0.215258
0.187993
0.162626
0.139382
0.118378
0.0996479
0.0831509
0.0687912
0.0564322
0.0459095
0.0370435
0.0296484
0.0235404
0.0185433
0.0144931
0.0112401
0.00865058
0.00660716
0.0050085
0.00376833
0.00281425
0.00208627
0.00153531
0.00112164
0.000813508
0.000585787
0.000418794
0.000297276
0.000209523
0.000146631
0.000101895
7.03118e-05
4.8179e-05
3.27832e-05
2.21523e-05
1.48651e-05
9.90612e-06
6.55594e-06
4.30892e-06
2.8126e-06
1.82331e-06
1.17391e-06
7.50625e-07
4.76693e-07
3.00651e-07
1.88334e-07
1.17168e-07
7.23725e-08
4.43481e-08
2.68993e-08
1.60055e-08
9.18925e-09
4.72195e-09
1.44776e-09
0.0254795
0.0757849
0.124158
0.169403
0.210461
0.246448
0.276689
0.300735
0.31837
0.329605
0.334662
0.333944
0.328007
0.317516
0.303213
0.285875
0.266277
0.245169
0.22324
0.201109
0.179307
0.158271
0.138347
0.119785
0.102753
0.0873451
0.0735881
0.0614573
0.0508863
0.0417782
0.0340152
0.0274678
0.0220012
0.0174817
0.0137808
0.0107785
0.00836503
0.00644219
0.00492365
0.00373469
0.00281165
0.00210103
0.00155843
0.00114749
0.000838759
0.000608649
0.000438486
0.000313631
0.000222726
0.000157045
0.000109949
7.64333e-05
5.27606e-05
3.61644e-05
2.46154e-05
1.66378e-05
1.11675e-05
7.44374e-06
4.92732e-06
3.23907e-06
2.1146e-06
1.371e-06
8.82769e-07
5.6451e-07
3.58495e-07
2.26109e-07
1.4163e-07
8.81025e-08
5.44012e-08
3.3305e-08
2.01951e-08
1.20442e-08
6.91609e-09
3.53872e-09
1.09652e-09
0.0183928
0.0547106
0.0896443
0.122338
0.15203
0.178086
0.200017
0.217499
0.23037
0.238633
0.24244
0.242077
0.237935
0.230491
0.220272
0.207837
0.193742
0.178528
0.162693
0.146686
0.130893
0.115635
0.101163
0.087663
0.0752615
0.0640287
0.0539882
0.0451248
0.0373929
0.030724
0.0250343
0.0202308
0.0162165
0.0128946
0.010172
0.00796137
0.00618284
0.00476472
0.00364389
0.00276566
0.00208336
0.0015577
0.00115606
0.000851681
0.000622856
0.000452202
0.000325932
0.000233231
0.000165701
0.000116885
8.18639e-05
5.69302e-05
3.93114e-05
2.69543e-05
1.8352e-05
1.24076e-05
8.33014e-06
5.5537e-06
3.67693e-06
2.41752e-06
1.57848e-06
1.02352e-06
6.5907e-07
4.21495e-07
2.67696e-07
1.68874e-07
1.05782e-07
6.57638e-08
4.05932e-08
2.48665e-08
1.50615e-08
8.99058e-09
5.15441e-09
2.63757e-09
7.95773e-10
0.0132034
0.039277
0.0643643
0.0878547
0.109205
0.127961
0.143773
0.156404
0.165738
0.171773
0.174612
0.174455
0.17158
0.166323
0.15906
0.150189
0.140108
0.129204
0.117835
0.106325
0.0949525
0.0839504
0.0735021
0.0637444
0.05477
0.0466322
0.0393504
0.0329155
0.0272964
0.022445
0.018302
0.014801
0.0118725
0.00944706
0.00745745
0.00584064
0.00453881
0.00349998
0.0026783
0.002034
0.00153309
0.00114691
0.000851654
0.000627746
0.000459317
0.000333631
0.000240581
0.000172232