/*--------------------------------*- C++ -*----------------------------------*\
  =========                 |
  \\      /  F ield         | OpenFOAM: The Open Source CFD Toolbox
   \\    /   O peration     | Website:  https://openfoam.org
    \\  /    A nd           | Version:  10
     \\/     M anipulation  |
\*---------------------------------------------------------------------------*/
FoamFile
{
    format      ascii;
    class       volScalarField;
    location    "382";
    object      gradTz;
}
// * * * * * * * * * * * * * * * * * * * * * * * * * * * * * * * * * * * * * //

dimensions      [0 -1 0 1 0 0 0];

internalField   nonuniform List<scalar> 
11250
(
-14344.8
-4140.36
-1520.31
-717.078
-412.788
-271.653
-194.804
-147.842
-116.681
-94.7002
-78.444
-65.9566
-56.064
-48.0273
-41.3637
-35.7475
-30.9529
-26.8196
-23.2307
-20.0989
-17.3576
-14.9545
-12.8474
-11.0014
-9.38714
-7.97899
-6.75446
-5.69345
-4.77782
-3.99107
-3.31819
-2.74549
-2.2605
-1.85192
-1.50953
-1.22416
-0.987622
-0.792647
-0.632832
-0.502578
-0.39702
-0.311965
-0.243822
-0.189542
-0.146555
-0.112707
-0.0862092
-0.0655848
-0.0496246
-0.0373451
-0.0279519
-0.0208079
-0.0154058
-0.0113444
-0.00830836
-0.00605188
-0.00438435
-0.00315909
-0.00226392
-0.00161363
-0.00114391
-0.00080655
-0.000565616
-0.000394521
-0.00027371
-0.00018889
-0.000129685
-8.86072e-05
-6.02941e-05
-4.09316e-05
-2.78321e-05
-1.91253e-05
-1.35352e-05
-1.02241e-05
-8.68701e-06
-8238.45
-4836.5
-2743.87
-1652.08
-1075.01
-750.49
-554.364
-427.588
-340.746
-278.288
-231.5
-195.237
-166.322
-142.718
-123.073
-106.469
-92.2619
-79.9924
-69.3237
-60.0034
-51.8377
-44.674
-38.3889
-32.88
-28.0605
-23.8549
-20.1966
-17.0261
-14.2894
-11.9375
-9.92569
-8.21315
-6.76273
-5.5407
-4.51655
-3.66289
-2.95525
-2.37192
-1.89376
-1.50402
-1.18816
-0.93364
-0.729722
-0.567285
-0.438638
-0.337338
-0.258033
-0.196305
-0.148536
-0.111783
-0.0836678
-0.0622847
-0.0461151
-0.0339582
-0.0248705
-0.018116
-0.0131245
-0.00945676
-0.00677712
-0.0048305
-0.0034244
-0.00241449
-0.00169324
-0.00118106
-0.000819398
-0.000565479
-0.000388238
-0.000265265
-0.000180505
-0.000122539
-8.3323e-05
-5.72571e-05
-4.05218e-05
-3.06093e-05
-2.60076e-05
-5533.37
-4222.61
-2965.89
-2071.71
-1484.07
-1100.39
-844.089
-666.986
-540.088
-445.942
-373.843
-317.057
-271.23
-233.475
-201.831
-174.937
-151.826
-131.797
-114.334
-99.0443
-85.6246
-73.8343
-63.4776
-54.391
-46.4349
-39.4875
-33.4408
-28.1977
-23.6702
-19.7778
-16.4473
-13.6115
-11.2092
-9.18469
-7.48775
-6.07307
-4.90022
-3.93328
-3.14057
-2.49439
-1.97066
-1.5486
-1.21043
-0.941027
-0.727653
-0.559629
-0.428081
-0.325684
-0.24644
-0.185467
-0.138823
-0.103347
-0.0765189
-0.0563481
-0.0412694
-0.0300618
-0.0217792
-0.0156932
-0.0112466
-0.00801632
-0.00568295
-0.00400702
-0.00281009
-0.0019601
-0.0013599
-0.000938499
-0.000644348
-0.000440258
-0.000299585
-0.000203381
-0.000138295
-9.50328e-05
-6.7257e-05
-5.0805e-05
-4.31676e-05
-4137.83
-3553.52
-2824.22
-2183.73
-1688.16
-1322
-1053.81
-855.491
-706.111
-591.109
-500.562
-427.729
-367.996
-318.164
-275.987
-239.861
-208.626
-181.424
-157.613
-136.698
-118.294
-102.091
-87.8329
-75.3055
-64.3235
-54.7243
-46.3625
-39.1067
-32.8374
-27.4449
-22.8286
-18.8965
-15.5643
-12.7554
-10.4003
-8.43647
-6.80803
-5.46523
-4.36423
-3.4666
-2.73898
-2.15253
-1.6826
-1.3082
-1.01163
-0.778078
-0.595211
-0.45286
-0.342687
-0.257913
-0.193057
-0.143726
-0.10642
-0.0783697
-0.0573998
-0.041813
-0.0302936
-0.0218288
-0.0156441
-0.011151
-0.0079054
-0.00557417
-0.0039092
-0.0027268
-0.00189187
-0.00130564
-0.000896435
-0.000612509
-0.000416804
-0.000282962
-0.000192411
-0.000132222
-9.35784e-05
-7.06888e-05
-6.00629e-05
-3324.93
-3027.76
-2592.17
-2149.31
-1761.46
-1444.36
-1192.56
-994.095
-836.971
-711.208
-609.131
-525.041
-454.766
-395.26
-344.295
-300.228
-261.838
-228.2
-198.609
-172.515
-149.477
-129.14
-111.205
-95.4179
-81.5572
-69.4262
-58.8476
-49.6598
-41.7148
-34.8763
-29.0189
-24.027
-19.7949
-16.226
-13.2327
-10.736
-8.66507
-6.95701
-5.55622
-4.41397
-3.48788
-2.74137
-2.14308
-1.66636
-1.28871
-0.99126
-0.758344
-0.577015
-0.436664
-0.328659
-0.246026
-0.18317
-0.135632
-0.0998861
-0.073162
-0.053297
-0.0386151
-0.0278261
-0.0199428
-0.0142156
-0.0100783
-0.00710648
-0.00498395
-0.00347656
-0.00241211
-0.00166472
-0.001143
-0.000780994
-0.000531466
-0.000360812
-0.000245352
-0.000168606
-0.000119331
-9.01439e-05
-7.65945e-05
-2807.05
-2638.34
-2365.36
-2057.95
-1762.23
-1499.83
-1276.53
-1090.14
-935.467
-806.841
-699.159
-608.205
-530.644
-463.892
-405.966
-355.345
-310.863
-271.616
-236.894
-206.132
-178.87
-154.728
-133.382
-114.552
-97.99
-83.4723
-70.796
-59.7743
-50.2345
-42.0167
-34.9728
-28.9662
-23.8711
-19.5725
-15.9656
-12.956
-10.4589
-8.39876
-6.70876
-5.33036
-4.21258
-3.31137
-2.58899
-2.01329
-1.55716
-1.19786
-0.916479
-0.697393
-0.527801
-0.397282
-0.297415
-0.221442
-0.163981
-0.12077
-0.088463
-0.0644465
-0.0466954
-0.0336501
-0.0241178
-0.0171922
-0.012189
-0.00859513
-0.00602817
-0.00420509
-0.00291766
-0.00201368
-0.00138263
-0.000944756
-0.000642922
-0.00043649
-0.000296821
-0.00020398
-0.00014437
-0.000109061
-9.26698e-05
-2455.29
-2350.65
-2170.52
-1952.6
-1727.5
-1514.24
-1321.86
-1152.98
-1006.7
-880.587
-771.785
-677.572
-595.568
-523.795
-460.646
-404.837
-355.341
-311.339
-272.168
-237.287
-206.245
-178.66
-154.198
-132.567
-113.502
-96.7623
-82.1241
-69.3807
-58.3389
-48.8183
-40.6513
-33.6821
-27.7669
-22.7736
-18.5819
-15.0829
-12.1786
-9.78174
-7.81493
-6.21032
-4.90879
-3.85921
-3.01771
-2.34698
-1.81546
-1.39671
-1.06872
-0.813315
-0.615586
-0.463396
-0.346936
-0.258332
-0.19131
-0.140907
-0.103219
-0.0752006
-0.0544902
-0.0392692
-0.0281465
-0.0200649
-0.0142263
-0.0100321
-0.00703627
-0.00490849
-0.00340582
-0.00235067
-0.00161406
-0.00110293
-0.000750582
-0.000509596
-0.000346544
-0.000238158
-0.000168565
-0.000127342
-0.000108205
-2205.15
-2135.47
-2010.62
-1851.69
-1678.44
-1505.46
-1341.68
-1191.5
-1056.35
-935.915
-829.038
-734.256
-650.089
-575.182
-508.357
-448.616
-395.128
-347.203
-304.262
-265.818
-231.452
-200.799
-173.532
-149.357
-128.003
-109.218
-92.7659
-78.4233
-65.9812
-55.2424
-46.0222
-38.1481
-31.4604
-25.8117
-21.0673
-17.105
-13.8149
-11.0985
-8.86881
-7.04918
-5.57283
-4.38198
-3.42702
-2.66568
-2.06225
-1.58677
-1.21428
-0.924188
-0.699572
-0.526666
-0.394338
-0.293651
-0.217483
-0.160195
-0.117356
-0.0855057
-0.0619609
-0.0446556
-0.0320089
-0.0228194
-0.0161801
-0.0114104
-0.00800329
-0.00558331
-0.0038742
-0.00267404
-0.00183617
-0.00125474
-0.000853923
-0.000579777
-0.000394282
-0.000270973
-0.000191797
-0.000144897
-0.000123124
-2021.24
-1972.06
-1881.55
-1762.01
-1626.24
-1484.9
-1345.59
-1213.03
-1089.67
-976.427
-873.302
-779.788
-695.156
-618.615
-549.403
-486.826
-430.267
-379.189
-333.123
-291.653
-254.413
-221.067
-191.309
-164.854
-141.432
-120.786
-102.674
-86.8611
-73.1265
-61.2593
-51.0605
-42.3436
-34.9346
-28.6726
-23.4102
-19.013
-15.3601
-12.343
-9.86556
-7.84308
-6.20167
-4.87732
-3.81504
-2.96796
-2.29643
-1.76718
-1.35251
-1.02951
-0.779383
-0.58681
-0.439411
-0.327245
-0.242383
-0.17855
-0.130812
-0.0953162
-0.0690745
-0.0497854
-0.035688
-0.0254437
-0.0180418
-0.0127239
-0.00892502
-0.00622661
-0.00432077
-0.00298239
-0.00204798
-0.00139953
-0.000952497
-0.000646727
-0.000439827
-0.000302285
-0.000213968
-0.000161651
-0.000137364
-1882.66
-1846.22
-1777.87
-1685.12
-1576.39
-1459.38
-1340.2
-1223.17
-1111.06
-1005.42
-906.956
-815.838
-731.912
-654.859
-584.285
-519.781
-460.945
-407.401
-358.796
-314.804
-275.115
-239.44
-207.5
-179.025
-153.754
-131.434
-111.818
-94.6678
-79.7516
-66.8488
-55.7491
-46.2538
-38.177
-31.3461
-25.602
-20.7999
-16.8086
-13.5106
-10.8015
-8.58907
-6.79295
-5.34336
-4.18032
-3.25267
-2.5171
-1.93728
-1.48289
-1.12889
-0.854717
-0.643599
-0.481985
-0.358985
-0.265916
-0.195902
-0.143536
-0.104595
-0.0758042
-0.0546395
-0.0391701
-0.0279279
-0.0198044
-0.0139677
-0.00979799
-0.00683597
-0.00474384
-0.00327456
-0.0022487
-0.00153676
-0.00104594
-0.000710197
-0.00048301
-0.000331977
-0.000234993
-0.000177542
-0.00015087
-1776.3
-1748.13
-1694.57
-1620.4
-1531.31
-1432.85
-1329.83
-1225.97
-1123.99
-1025.69
-932.168
-844.036
-761.556
-684.777
-613.615
-547.908
-487.455
-432.033
-381.409
-335.347
-293.605
-255.941
-222.11
-191.866
-164.962
-141.151
-120.188
-101.831
-85.8443
-71.9997
-60.0776
-49.8698
-41.18
-33.8255
-27.6372
-22.4609
-18.1565
-14.5981
-11.6739
-9.28504
-7.345
-5.77878
-4.52181
-3.51899
-2.72364
-2.09655
-1.60503
-1.22204
-0.92535
-0.696866
-0.521932
-0.388777
-0.288011
-0.212199
-0.15549
-0.113315
-0.0821297
-0.0592032
-0.0424445
-0.0302645
-0.0214626
-0.0151381
-0.0106195
-0.00740955
-0.00514213
-0.00354966
-0.00243772
-0.00166601
-0.00113395
-0.000769992
-0.000523698
-0.000359957
-0.000254809
-0.000192521
-0.000163603
-1693.53
-1670.93
-1627.52
-1566.49
-1491.76
-1407.43
-1317.21
-1224.28
-1131.09
-1039.5
-950.801
-865.864
-785.239
-709.247
-638.049
-571.693
-510.15
-453.341
-401.145
-353.412
-309.971
-270.63
-235.181
-203.404
-175.071
-149.945
-127.785
-108.35
-91.403
-76.7092
-64.043
-53.1882
-43.9402
-36.1077
-29.5131
-23.9937
-19.4017
-15.6038
-12.4815
-9.92979
-7.85681
-6.18275
-4.83885
-3.7664
-2.91562
-2.24468
-1.71868
-1.30875
-0.991136
-0.746497
-0.559166
-0.416556
-0.308621
-0.227405
-0.166646
-0.121456
-0.088037
-0.0634661
-0.045504
-0.0324481
-0.0230126
-0.0162324
-0.0113878
-0.00794603
-0.00551472
-0.00380705
-0.00261461
-0.00178698
-0.00121634
-0.000825973
-0.000561797
-0.00038616
-0.00027337
-0.000206552
-0.000175531
-1628.42
-1609.68
-1573.42
-1521.83
-1457.73
-1384.15
-1304.04
-1220.01
-1134.28
-1048.62
-964.393
-882.609
-804.008
-729.104
-658.244
-591.643
-529.422
-471.622
-418.225
-369.166
-324.337
-283.596
-246.777
-213.686
-184.115
-157.839
-134.626
-114.238
-96.4352
-80.9823
-67.6481
-56.2106
-46.4585
-38.193
-31.2295
-25.398
-20.5438
-16.5272
-13.2237
-10.5229
-8.32803
-6.55497
-5.13118
-3.99468
-3.09286
-2.38152
-1.82373
-1.38893
-1.052
-0.792436
-0.593646
-0.442289
-0.32772
-0.241501
-0.176992
-0.129007
-0.0935183
-0.0674227
-0.0483443
-0.0344759
-0.0244523
-0.017249
-0.0121017
-0.00844464
-0.00586108
-0.00404637
-0.00277911
-0.0018995
-0.00129299
-0.000878059
-0.00059725
-0.000410547
-0.000290647
-0.000219615
-0.000186637
-1576.81
-1560.81
-1529.68
-1484.98
-1428.8
-1363.45
-1291.27
-1214.45
-1134.94
-1054.4
-974.175
-895.353
-818.782
-745.11
-674.819
-608.258
-545.664
-487.186
-432.894
-382.797
-336.847
-294.954
-256.985
-222.778
-192.143
-164.872
-140.74
-119.514
-100.956
-84.8303
-70.9015
-58.9433
-48.7392
-40.0847
-32.7887
-26.6754
-21.5839
-17.3691
-13.9011
-11.0647
-8.75889
-6.89559
-5.3989
-4.20388
-3.25541
-2.50709
-1.92018
-1.4626
-1.10794
-0.834678
-0.625364
-0.465972
-0.345304
-0.254484
-0.186525
-0.135967
-0.0985717
-0.0710716
-0.0509644
-0.036347
-0.0257811
-0.0181875
-0.0127609
-0.00890516
-0.00618105
-0.00426749
-0.00293112
-0.0020035
-0.00136384
-0.000926218
-0.000630036
-0.000433104
-0.00030663
-0.000231702
-0.000196914
-1535.64
-1521.63
-1494.24
-1454.65
-1404.42
-1345.38
-1279.43
-1208.41
-1134.04
-1057.83
-981.114
-904.98
-830.343
-757.937
-688.342
-622.006
-559.263
-500.346
-445.402
-394.505
-347.663
-304.827
-265.904
-230.756
-199.217
-171.09
-146.162
-124.207
-104.989
-88.2703
-73.8161
-61.3962
-50.7901
-41.7884
-34.1951
-27.8291
-22.5246
-18.1314
-14.5151
-11.5563
-9.15017
-7.20517
-5.64242
-4.39432
-3.40347
-2.62154
-2.00815
-1.52982
-1.15902
-0.873266
-0.654353
-0.487627
-0.361389
-0.266364
-0.195251
-0.14234
-0.103201
-0.0744151
-0.053366
-0.0380625
-0.0269998
-0.0190484
-0.0133658
-0.00932781
-0.00647477
-0.00447052
-0.00307073
-0.00209903
-0.00142894
-0.000970471
-0.000660168
-0.000453839
-0.000321325
-0.000242816
-0.000206365
-1502.67
-1490.12
-1465.5
-1429.72
-1384.01
-1329.84
-1268.77
-1202.4
-1132.23
-1059.66
-985.956
-912.203
-839.343
-768.164
-699.316
-633.319
-570.58
-511.403
-455.998
-404.494
-356.948
-313.351
-273.641
-237.708
-205.404
-176.548
-150.938
-128.352
-108.559
-91.3236
-76.4086
-63.5824
-52.6213
-43.3121
-35.4549
-28.864
-23.3694
-18.8169
-15.0678
-11.9993
-9.50309
-7.48467
-5.86245
-4.56652
-3.53745
-2.72518
-2.08785
-1.59076
-1.20535
-0.908288
-0.680676
-0.507299
-0.376007
-0.277166
-0.203188
-0.148139
-0.107414
-0.0774595
-0.0555535
-0.0396254
-0.0281104
-0.0198332
-0.0139174
-0.00971329
-0.00674272
-0.00465577
-0.00319814
-0.00218623
-0.00148837
-0.00101088
-0.00068769
-0.00047278
-0.000334751
-0.000252973
-0.000215003
-1476.17
-1464.71
-1442.17
-1409.26
-1367
-1316.6
-1259.38
-1196.72
-1129.97
-1060.42
-989.269
-917.585
-846.317
-776.283
-708.179
-642.579
-579.946
-520.638
-464.918
-412.962
-364.867
-320.66
-280.308
-243.724
-210.779
-181.307
-155.114
-131.987
-111.699
-94.0148
-78.6986
-65.5173
-54.245
-44.6655
-36.5755
-29.786
-24.1231
-19.429
-15.562
-12.3959
-9.81929
-7.73531
-6.05994
-4.7212
-3.65789
-2.8184
-2.15959
-1.64565
-1.2471
-0.939868
-0.704423
-0.525054
-0.389208
-0.286925
-0.210361
-0.153383
-0.111225
-0.080214
-0.0575332
-0.0410405
-0.0291161
-0.0205441
-0.0144171
-0.0100627
-0.00698563
-0.00482375
-0.0033137
-0.00226533
-0.0015423
-0.00104756
-0.000712671
-0.000489978
-0.000346944
-0.000262198
-0.00022285
-1454.85
-1444.2
-1423.22
-1392.51
-1352.9
-1305.42
-1251.22
-1191.52
-1127.54
-1060.49
-991.479
-921.568
-851.698
-782.703
-715.307
-650.124
-587.658
-528.31
-472.386
-420.098
-371.579
-326.887
-286.014
-248.895
-215.417
-185.427
-158.742
-135.154
-114.441
-96.3706
-80.7076
-67.2183
-55.6749
-45.8594
-37.5657
-30.6017
-24.7908
-19.9721
-16.001
-12.7484
-10.1007
-7.95859
-6.23602
-4.85923
-3.76544
-2.90172
-2.22375
-1.69477
-1.28449
-0.968159
-0.725709
-0.540978
-0.401052
-0.295684
-0.216803
-0.158093
-0.11465
-0.0826903
-0.0593137
-0.0423135
-0.0300213
-0.0211841
-0.0148671
-0.0103773
-0.00720448
-0.00497513
-0.00341786
-0.00233665
-0.00159093
-0.00108064
-0.000735208
-0.000505495
-0.000357948
-0.000270525
-0.000229933
-1437.66
-1427.63
-1407.85
-1378.81
-1341.24
-1296.04
-1244.22
-1186.88
-1125.14
-1060.13
-992.904
-924.495
-855.833
-787.76
-721.018
-656.246
-593.979
-534.652
-478.603
-426.077
-377.235
-332.161
-290.869
-253.313
-219.394
-188.971
-161.872
-137.894
-116.82
-98.4192
-82.4584
-68.7035
-56.9258
-46.9056
-38.4347
-31.3187
-25.3785
-20.4507
-16.3882
-13.0598
-10.3495
-8.15619
-6.39199
-4.98159
-3.86087
-2.97569
-2.28076
-1.73844
-1.31775
-0.993343
-0.744667
-0.555168
-0.411611
-0.303497
-0.222551
-0.162298
-0.117709
-0.0849027
-0.060905
-0.0434516
-0.0308307
-0.0217566
-0.0152698
-0.010659
-0.00740042
-0.0051107
-0.00351116
-0.00240055
-0.00163451
-0.00111029
-0.000755414
-0.000519411
-0.000367818
-0.000277995
-0.000236289
-1423.8
-1414.25
-1395.38
-1367.63
-1331.64
-1288.22
-1238.28
-1182.82
-1122.88
-1059.52
-993.778
-926.63
-859
-791.732
-725.577
-661.192
-599.136
-539.868
-483.752
-431.06
-381.974
-336.602
-294.975
-257.063
-222.781
-192.001
-164.555
-140.249
-118.87
-100.189
-83.9742
-69.9919
-58.013
-47.8164
-39.1924
-31.9448
-25.8924
-20.8697
-16.7277
-13.333
-10.5681
-8.32994
-6.52926
-5.08938
-3.94499
-3.04095
-2.33108
-1.77702
-1.34715
-1.01562
-0.761445
-0.567732
-0.420966
-0.310422
-0.227648
-0.166028
-0.120423
-0.0868669
-0.0623182
-0.0444627
-0.0315501
-0.0222656
-0.0156279
-0.0109096
-0.00757476
-0.00523135
-0.00359422
-0.00245745
-0.00167332
-0.0011367
-0.00077342
-0.000531814
-0.000376617
-0.000284657
-0.000241957
-1412.63
-1403.44
-1385.27
-1358.52
-1323.77
-1281.73
-1233.27
-1179.3
-1120.81
-1058.81
-994.273
-928.174
-861.417
-794.841
-729.204
-665.174
-603.326
-544.139
-487.997
-435.19
-385.924
-340.319
-298.426
-260.227
-225.65
-194.575
-166.842
-142.262
-120.625
-101.708
-85.278
-71.1023
-58.9516
-48.6041
-39.8488
-32.488
-26.3388
-21.2342
-17.0233
-13.5713
-10.7589
-8.48173
-6.64928
-5.1837
-4.01867
-3.09816
-2.37523
-1.81088
-1.37297
-1.03519
-0.776199
-0.578786
-0.429201
-0.316521
-0.232139
-0.169316
-0.122817
-0.0885998
-0.0635655
-0.0453555
-0.0321855
-0.0227153
-0.0159444
-0.0111311
-0.00772893
-0.00533808
-0.00366771
-0.0025078
-0.00170768
-0.00116009
-0.000789365
-0.0005428
-0.000384413
-0.00029056
-0.000246981
-1403.63
-1394.73
-1377.1
-1351.12
-1317.32
-1276.38
-1229.08
-1176.3
-1118.97
-1058.05
-994.512
-929.28
-863.254
-797.267
-732.079
-668.367
-606.717
-547.621
-491.479
-438.598
-389.197
-343.414
-301.311
-262.883
-228.066
-196.748
-168.778
-143.97
-122.12
-103.004
-86.3925
-72.0533
-59.757
-49.2811
-40.4137
-32.9562
-26.7241
-21.5492
-17.2791
-13.7776
-10.9243
-8.61348
-6.75357
-5.26573
-4.08279
-3.14798
-2.4137
-1.84042
-1.39551
-1.05229
-0.789092
-0.588452
-0.436405
-0.321859
-0.236072
-0.172197
-0.124915
-0.0901192
-0.0646596
-0.0461388
-0.0327432
-0.0231101
-0.0162223
-0.0113257
-0.00786442
-0.0054319
-0.00373234
-0.00255209
-0.00173791
-0.00118067
-0.0008034
-0.000552472
-0.000391278
-0.00029576
-0.000251406
-1396.4
-1387.71
-1370.5
-1345.12
-1312.07
-1271.98
-1225.6
-1173.76
-1117.36
-1057.32
-994.584
-930.065
-864.646
-799.155
-734.353
-670.92
-609.45
-550.447
-494.322
-441.395
-391.897
-345.978
-303.71
-265.098
-230.087
-198.573
-170.407
-145.412
-123.384
-104.102
-87.3392
-72.8627
-60.4436
-49.8592
-40.897
-33.3572
-27.0546
-21.8197
-17.499
-13.9553
-11.0668
-8.72713
-6.8436
-5.33661
-4.13825
-3.1911
-2.44703
-1.86602
-1.41506
-1.06713
-0.800287
-0.59685
-0.442667
-0.326502
-0.239494
-0.174705
-0.126743
-0.091443
-0.0656132
-0.0468218
-0.0332297
-0.0234546
-0.016465
-0.0114956
-0.00798276
-0.00551387
-0.00378881
-0.00259081
-0.00176434
-0.00119867
-0.000815678
-0.000560936
-0.000397287
-0.000300311
-0.000255281
-1390.59
-1382.06
-1365.18
-1340.27
-1307.8
-1268.38
-1222.72
-1171.63
-1115.97
-1056.64
-994.552
-930.615
-865.697
-800.621
-736.145
-672.953
-611.645
-552.732
-496.634
-443.681
-394.113
-348.09
-305.694
-266.936
-231.77
-200.096
-171.771
-146.622
-124.447
-105.028
-88.1385
-73.5474
-61.0254
-50.3499
-41.3077
-33.6986
-27.3363
-22.0506
-17.687
-14.1072
-11.1889
-8.82454
-6.92084
-5.39748
-4.18591
-3.22819
-2.47572
-1.88807
-1.43191
-1.07993
-0.809949
-0.604101
-0.448077
-0.330515
-0.242453
-0.176875
-0.128325
-0.0925895
-0.0664394
-0.0474138
-0.0336515
-0.0237534
-0.0166755
-0.011643
-0.00808549
-0.00558504
-0.00383786
-0.00262445
-0.00178731
-0.00121432
-0.000826353
-0.000568297
-0.000402514
-0.000304272
-0.000258653
-1385.93
-1377.53
-1360.91
-1336.36
-1304.34
-1265.45
-1220.36
-1169.86
-1114.78
-1056.02
-994.459
-930.995
-866.487
-801.754
-737.553
-674.567
-613.401
-554.572
-498.506
-445.539
-395.923
-349.822
-307.325
-268.453
-233.162
-201.359
-172.906
-147.631
-125.335
-105.803
-88.8093
-74.123
-61.5154
-50.7638
-41.6547
-33.9874
-27.575
-22.2464
-17.8465
-14.2364
-11.2928
-8.90751
-6.9867
-5.44941
-4.22661
-3.25989
-2.50025
-1.90695
-1.44634
-1.09089
-0.818235
-0.610324
-0.452723
-0.333963
-0.244997
-0.178741
-0.129685
-0.0935761
-0.0671507
-0.0479237
-0.0340149
-0.024011
-0.016857
-0.0117702
-0.00817413
-0.00564647
-0.00388021
-0.0026535
-0.00180715
-0.00122784
-0.000835579
-0.00057466
-0.000407033
-0.000307697
-0.00026157
-1382.2
-1373.91
-1357.48
-1333.21
-1301.55
-1263.07
-1218.43
-1168.39
-1113.78
-1055.47
-994.334
-931.253
-867.08
-802.629
-738.656
-675.844
-614.801
-556.047
-500.014
-447.044
-397.394
-351.234
-308.661
-269.698
-234.309
-202.403
-173.845
-148.467
-126.073
-106.449
-89.3689
-74.604
-61.9256
-51.1108
-41.9461
-34.2302
-27.7759
-22.4115
-17.9812
-14.3455
-11.3806
-8.97775
-7.0425
-5.49346
-4.26116
-3.28682
-2.52111
-1.92301
-1.45863
-1.10024
-0.825298
-0.61563
-0.456687
-0.336906
-0.24717
-0.180335
-0.130849
-0.09442
-0.0677593
-0.0483602
-0.0343261
-0.0242316
-0.0170125
-0.0118793
-0.00825014
-0.00569917
-0.00391655
-0.00267843
-0.00182419
-0.00123945
-0.000843503
-0.000580127
-0.000410917
-0.000310642
-0.000264078
-1379.23
-1371.02
-1354.74
-1330.69
-1299.31
-1261.15
-1216.86
-1167.19
-1112.95
-1055
-994.198
-931.424
-867.522
-803.303
-739.517
-676.851
-615.913
-557.225
-501.224
-448.257
-398.583
-352.381
-309.748
-270.715
-235.247
-203.259
-174.618
-149.157
-126.683
-106.983
-89.8331
-75.0037
-62.2669
-51.4
-42.1892
-34.4331
-27.944
-22.5498
-18.0942
-14.4372
-11.4544
-9.03685
-7.0895
-5.53059
-4.29031
-3.30955
-2.53873
-1.93658
-1.46902
-1.10815
-0.83128
-0.620129
-0.460048
-0.339404
-0.249014
-0.18169
-0.131837
-0.0951375
-0.068277
-0.0487316
-0.034591
-0.0244195
-0.017145
-0.0119722
-0.00831493
-0.00574409
-0.00394754
-0.00269969
-0.00183872
-0.00124935
-0.000850269
-0.000584795
-0.000414235
-0.000313158
-0.00026622
-1376.87
-1368.72
-1352.56
-1328.68
-1297.52
-1259.6
-1215.59
-1166.21
-1112.26
-1054.59
-994.061
-931.534
-867.852
-803.819
-740.188
-677.643
-616.792
-558.162
-502.191
-449.23
-399.541
-353.307
-310.629
-271.541
-236.012
-203.958
-175.25
-149.723
-127.185
-107.423
-90.2158
-75.3338
-62.5493
-51.6396
-42.391
-34.6017
-28.0838
-22.6649
-18.1883
-14.5136
-11.5161
-9.08627
-7.12883
-5.56169
-4.31474
-3.32863
-2.55353
-1.94799
-1.47776
-1.1148
-0.836318
-0.623918
-0.462882
-0.34151
-0.250571
-0.182833
-0.132672
-0.0957437
-0.0687146
-0.0490456
-0.0348151
-0.0245785
-0.0172572
-0.0120509
-0.00836981
-0.00578217
-0.0039738
-0.00271773
-0.00185105
-0.00125776
-0.00085601
-0.000588758
-0.000417052
-0.000315294
-0.00026804
-1375
-1366.89
-1350.82
-1327.08
-1296.08
-1258.36
-1214.56
-1165.41
-1111.69
-1054.25
-993.933
-931.602
-868.095
-804.214
-740.709
-678.263
-617.486
-558.905
-502.961
-450.007
-400.309
-354.051
-311.34
-272.209
-236.631
-204.526
-175.764
-150.184
-127.594
-107.783
-90.5296
-75.6049
-62.7815
-51.8369
-42.5574
-34.7409
-28.1995
-22.7603
-18.2664
-14.5771
-11.5673
-9.12735
-7.16156
-5.58759
-4.33511
-3.34454
-2.56588
-1.95752
-1.48507
-1.12037
-0.840533
-0.627091
-0.465256
-0.343276
-0.251876
-0.183792
-0.133373
-0.0962529
-0.0690823
-0.0493096
-0.0350035
-0.0247123
-0.0173516
-0.0121171
-0.00841602
-0.00581423
-0.00399594
-0.00273293
-0.00186144
-0.00126485
-0.000860853
-0.000592101
-0.000419429
-0.000317097
-0.000269577
-1373.52
-1365.45
-1349.45
-1325.81
-1294.94
-1257.37
-1213.74
-1164.77
-1111.23
-1053.96
-993.816
-931.642
-868.275
-804.516
-741.111
-678.747
-618.031
-559.491
-503.571
-450.625
-400.922
-354.647
-311.909
-272.746
-237.131
-204.984
-176.181
-150.558
-127.927
-108.076
-90.7854
-75.8262
-62.9714
-51.9985
-42.6938
-34.8552
-28.2945
-22.8387
-18.3307
-14.6294
-11.6096
-9.1613
-7.18862
-5.60903
-4.35198
-3.35773
-2.57613
-1.96543
-1.49114
-1.125
-0.84404
-0.629732
-0.467233
-0.344747
-0.252964
-0.184593
-0.133958
-0.0966779
-0.0693894
-0.0495302
-0.035161
-0.0248241
-0.0174305
-0.0121725
-0.00845471
-0.00584108
-0.00401447
-0.00274566
-0.00187015
-0.00127079
-0.000864913
-0.000594905
-0.000421423
-0.000318611
-0.000270866
-1372.35
-1364.31
-1348.37
-1324.81
-1294.04
-1256.59
-1213.09
-1164.25
-1110.86
-1053.73
-993.714
-931.663
-868.407
-804.745
-741.422
-679.123
-618.457
-559.952
-504.053
-451.115
-401.408
-355.122
-312.364
-273.175
-237.531
-205.353
-176.516
-150.86
-128.196
-108.314
-90.9928
-76.0059
-63.1258
-52.1301
-42.805
-34.9485
-28.3722
-22.9029
-18.3833
-14.6723
-11.6443
-9.18917
-7.21087
-5.62667
-4.36587
-3.3686
-2.58458
-1.97196
-1.49615
-1.12882
-0.846939
-0.631917
-0.46887
-0.345965
-0.253866
-0.185256
-0.134443
-0.0970306
-0.0696443
-0.0497133
-0.0352919
-0.024917
-0.0174961
-0.0122186
-0.00848689
-0.00586343
-0.0040299
-0.00275626
-0.0018774
-0.00127574
-0.000868297
-0.000597242
-0.000423086
-0.000319873
-0.000271942
-1371.43
-1363.41
-1347.52
-1324.02
-1293.33
-1255.97
-1212.57
-1163.84
-1110.55
-1053.53
-993.625
-931.671
-868.504
-804.919
-741.661
-679.415
-618.789
-560.313
-504.431
-451.5
-401.793
-355.498
-312.726
-273.518
-237.851
-205.648
-176.785
-151.102
-128.412
-108.505
-91.16
-76.151
-63.2506
-52.2366
-42.8952
-35.0242
-28.4353
-22.9551
-18.4262
-14.7073
-11.6726
-9.21194
-7.22905
-5.64109
-4.37724
-3.3775
-2.59151
-1.97731
-1.50026
-1.13196
-0.849321
-0.633713
-0.470216
-0.346968
-0.254609
-0.185802
-0.134843
-0.0973215
-0.0698546
-0.0498645
-0.0353999
-0.0249938
-0.0175504
-0.0122567
-0.0085135
-0.00588191
-0.00404267
-0.00276504
-0.00188341
-0.00127984
-0.0008711
-0.000599179
-0.000424464
-0.000320919
-0.000272834
-1370.72
-1362.71
-1346.85
-1323.4
-1292.77
-1255.48
-1212.16
-1163.51
-1110.31
-1053.38
-993.55
-931.672
-868.574
-805.05
-741.844
-679.64
-619.047
-560.594
-504.727
-451.803
-402.096
-355.794
-313.011
-273.789
-238.104
-205.882
-176.999
-151.296
-128.584
-108.657
-91.294
-76.2675
-63.351
-52.3223
-42.9678
-35.0853
-28.4863
-22.9973
-18.4609
-14.7356
-11.6956
-9.23041
-7.24382
-5.65282
-4.38649
-3.38475
-2.59715
-1.98168
-1.50362
-1.13452
-0.851268
-0.635182
-0.471317
-0.347789
-0.255217
-0.18625
-0.135171
-0.09756
-0.0700271
-0.0499886
-0.0354887
-0.0250569
-0.017595
-0.012288
-0.00853537
-0.00589711
-0.00405317
-0.00277226
-0.00188835
-0.00128322
-0.000873408
-0.000600774
-0.0004256
-0.000321781
-0.000273569
-1370.16
-1362.17
-1346.33
-1322.91
-1292.33
-1255.1
-1211.84
-1163.25
-1110.12
-1053.25
-993.487
-931.669
-868.625
-805.149
-741.984
-679.814
-619.247
-560.813
-504.958
-452.04
-402.333
-356.027
-313.236
-274.002
-238.305
-206.067
-177.168
-151.449
-128.722
-108.779
-91.4009
-76.3605
-63.4312
-52.391
-43.026
-35.1343
-28.5272
-23.0312
-18.4888
-14.7584
-11.7141
-9.24532
-7.25575
-5.6623
-4.39397
-3.39062
-2.60172
-1.98522
-1.50634
-1.13661
-0.852849
-0.636375
-0.472213
-0.348457
-0.255711
-0.186615
-0.135438
-0.0977543
-0.0701678
-0.0500898
-0.035561
-0.0251083
-0.0176313
-0.0123136
-0.00855325
-0.00590953
-0.00406176
-0.00277816
-0.00189239
-0.00128598
-0.000875297
-0.000602081
-0.00042653
-0.000322487
-0.000274171
-1369.73
-1361.75
-1345.92
-1322.54
-1291.99
-1254.8
-1211.58
-1163.05
-1109.97
-1053.15
-993.435
-931.664
-868.662
-805.223
-742.091
-679.947
-619.4
-560.982
-505.137
-452.224
-402.517
-356.209
-313.412
-274.17
-238.462
-206.213
-177.302
-151.57
-128.83
-108.876
-91.4857
-76.4344
-63.495
-52.4456
-43.0724
-35.1734
-28.5599
-23.0584
-18.5112
-14.7767
-11.7289
-9.25729
-7.26533
-5.66992
-4.39999
-3.39534
-2.60541
-1.98807
-1.50854
-1.13828
-0.854125
-0.637339
-0.472936
-0.348996
-0.256112
-0.18691
-0.135654
-0.0979118
-0.0702818
-0.0501718
-0.0356197
-0.0251501
-0.0176609
-0.0123344
-0.00856777
-0.00591963
-0.00406874
-0.00278296
-0.00189568
-0.00128822
-0.000876834
-0.000603144
-0.000427287
-0.000323062
-0.000274661
-1369.39
-1361.42
-1345.61
-1322.25
-1291.73
-1254.57
-1211.39
-1162.89
-1109.85
-1053.07
-993.393
-931.657
-868.688
-805.279
-742.171
-680.048
-619.518
-561.112
-505.275
-452.366
-402.661
-356.35
-313.549
-274.301
-238.585
-206.328
-177.407
-151.665
-128.916
-108.952
-91.5526
-76.4927
-63.5454
-52.4888
-43.1092
-35.2044
-28.5858
-23.0799
-18.529
-14.7912
-11.7408
-9.26683
-7.27298
-5.676
-4.4048
-3.39912
-2.60835
-1.99036
-1.5103
-1.13963
-0.855149
-0.638113
-0.473518
-0.34943
-0.256434
-0.187147
-0.135828
-0.0980386
-0.0703737
-0.050238
-0.0356671
-0.0251838
-0.0176847
-0.0123511
-0.0085795
-0.00592778
-0.00407438
-0.00278684
-0.00189834
-0.00129004
-0.000878078
-0.000604004
-0.0004279
-0.000323528
-0.000275058
-1369.13
-1361.17
-1345.37
-1322.02
-1291.52
-1254.39
-1211.23
-1162.77
-1109.76
-1053.01
-993.359
-931.651
-868.707
-805.32
-742.232
-680.125
-619.609
-561.212
-505.381
-452.476
-402.772
-356.46
-313.656
-274.403
-238.681
-206.417
-177.489
-151.74
-128.983
-109.011
-91.605
-76.5385
-63.5851
-52.5229
-43.1382
-35.2289
-28.6063
-23.097
-18.543
-14.8027
-11.7501
-9.2744
-7.27904
-5.68084
-4.40863
-3.40212
-2.6107
-1.99218
-1.5117
-1.14071
-0.855967
-0.638731
-0.473982
-0.349777
-0.256691
-0.187337
-0.135967
-0.0981402
-0.0704472
-0.050291
-0.035705
-0.0252108
-0.0177038
-0.0123646
-0.00858891
-0.00593433
-0.00407891
-0.00278996
-0.00190048
-0.0012915
-0.000879078
-0.000604696
-0.000428393
-0.000323903
-0.000275378
-1368.94
-1360.97
-1345.19
-1321.85
-1291.36
-1254.25
-1211.12
-1162.67
-1109.68
-1052.96
-993.331
-931.644
-868.721
-805.351
-742.278
-680.184
-619.677
-561.288
-505.462
-452.561
-402.857
-356.544
-313.738
-274.481
-238.755
-206.486
-177.552
-151.797
-129.035
-109.057
-91.6459
-76.5743
-63.6161
-52.5495
-43.1609
-35.2481
-28.6224
-23.1104
-18.5541
-14.8118
-11.7575
-9.28036
-7.28383
-5.68466
-4.41165
-3.4045
-2.61256
-1.99362
-1.51281
-1.14156
-0.856615
-0.639222
-0.474351
-0.350053
-0.256896
-0.187488
-0.136078
-0.098221
-0.0705058
-0.0503332
-0.0357353
-0.0252323
-0.0177191
-0.0123753
-0.00859642
-0.00593956
-0.00408253
-0.00279245
-0.00190218
-0.00129267
-0.000879877
-0.000605249
-0.000428787
-0.000324202
-0.000275634
-1368.78
-1360.82
-1345.04
-1321.72
-1291.24
-1254.14
-1211.03
-1162.6
-1109.63
-1052.92
-993.309
-931.639
-868.73
-805.374
-742.313
-680.228
-619.729
-561.346
-505.525
-452.625
-402.922
-356.609
-313.801
-274.542
-238.812
-206.539
-177.601
-151.842
-129.075
-109.093
-91.6777
-76.6021
-63.6402
-52.5703
-43.1786
-35.263
-28.635
-23.1208
-18.5627
-14.8189
-11.7633
-9.28504
-7.28759
-5.68765
-4.41402
-3.40637
-2.61402
-1.99475
-1.51369
-1.14223
-0.857126
-0.639609
-0.474642
-0.350271
-0.257058
-0.187608
-0.136166
-0.098285
-0.0705522
-0.0503667
-0.0357593
-0.0252494
-0.0177312
-0.0123838
-0.00860238
-0.00594371
-0.0040854
-0.00279443
-0.00190354
-0.0012936
-0.000880512
-0.000605688
-0.0004291
-0.000324441
-0.000275837
-1368.67
-1360.71
-1344.94
-1321.62
-1291.15
-1254.06
-1210.96
-1162.54
-1109.58
-1052.89
-993.292
-931.634
-868.737
-805.391
-742.339
-680.261
-619.769
-561.39
-505.572
-452.674
-402.972
-356.659
-313.849
-274.588
-238.856
-206.58
-177.639
-151.877
-129.106
-109.121
-91.7022
-76.6236
-63.6589
-52.5863
-43.1923
-35.2747
-28.6448
-23.129
-18.5695
-14.8244
-11.7678
-9.28869
-7.29053
-5.68999
-4.41588
-3.40783
-2.61516
-1.99564
-1.51437
-1.14275
-0.857527
-0.639913
-0.474871
-0.350442
-0.257185
-0.187702
-0.136235
-0.0983353
-0.0705887
-0.050393
-0.0357781
-0.0252629
-0.0177407
-0.0123905
-0.00860708
-0.00594698
-0.00408766
-0.00279599
-0.00190461
-0.00129433
-0.000881014
-0.000606036
-0.000429348
-0.000324629
-0.000275998
-1368.58
-1360.63
-1344.86
-1321.54
-1291.08
-1254
-1210.9
-1162.5
-1109.55
-1052.87
-993.279
-931.63
-868.741