/*--------------------------------*- C++ -*----------------------------------*\
  =========                 |
  \\      /  F ield         | OpenFOAM: The Open Source CFD Toolbox
   \\    /   O peration     | Website:  https://openfoam.org
    \\  /    A nd           | Version:  10
     \\/     M anipulation  |
\*---------------------------------------------------------------------------*/
FoamFile
{
    format      ascii;
    class       volScalarField;
    location    "75";
    object      gradTz;
}
// * * * * * * * * * * * * * * * * * * * * * * * * * * * * * * * * * * * * * //

dimensions      [0 -1 0 1 0 0 0];

internalField   nonuniform List<scalar> 
11250
(
-14429.7
-4220.82
-1592.23
-777.27
-459.145
-303.276
-211.939
-151.698
-109.161
-78.107
-55.1941
-38.3528
-26.1325
-17.4277
-11.3619
-7.23553
-4.49877
-2.73025
-1.61714
-0.93482
-0.527445
-0.290506
-0.156223
-0.082043
-0.0420874
-0.0210956
-0.0103344
-0.0049494
-0.00231808
-0.00106204
-0.000476127
-0.000208932
-8.97673e-05
-3.7774e-05
-1.55725e-05
-6.29133e-06
-2.49154e-06
-9.67522e-07
-3.68504e-07
-1.37695e-07
-5.04816e-08
-1.81809e-08
-6.43423e-09
-2.23585e-09
-7.63942e-10
-2.54647e-10
-8.78094e-11
-1.53666e-11
0
-1.09762e-12
0
1.31714e-11
0
-1.4269e-11
0
0
0
0
0
0
0
0
-2.08547e-11
-1.09762e-12
2.19523e-11
1.09762e-12
-1.09762e-12
0
1.09762e-12
-1.09762e-12
0
-5.48809e-12
-1.09762e-12
6.5857e-12
0
-8491.81
-5076.47
-2958.4
-1831.64
-1213.34
-844.912
-605.6
-439.232
-318.465
-228.933
-162.272
-112.997
-77.1101
-51.4825
-33.5924
-21.4068
-13.3169
-8.08535
-4.79068
-2.77015
-1.56336
-0.861251
-0.463231
-0.243312
-0.124834
-0.0625788
-0.0306596
-0.0146851
-0.00687848
-0.00315167
-0.00141304
-0.000620107
-0.000266446
-0.000112127
-4.62275e-05
-1.8677e-05
-7.39702e-06
-2.87257e-06
-1.09413e-06
-4.08863e-07
-1.49911e-07
-5.39677e-08
-1.91095e-08
-6.64278e-09
-2.24463e-09
-7.5077e-10
-2.64526e-10
-6.47594e-11
-2.19523e-12
0
0
0
0
0
0
0
-2.19523e-12
0
5.48809e-12
-1.09762e-12
-3.29285e-12
1.09762e-12
1.09762e-12
8.78094e-12
-1.09762e-12
-1.20738e-11
1.09762e-12
2.19523e-12
-1.09762e-12
-4.39047e-12
1.09762e-12
4.39047e-12
0
-8.78094e-12
8.78094e-12
-5950.68
-4617.9
-3319.36
-2367.67
-1712.22
-1256.29
-928.924
-686.636
-503.849
-365.067
-260.164
-181.855
-124.445
-83.2588
-54.4133
-34.7183
-21.6194
-13.1368
-7.78892
-4.50635
-2.54439
-1.40225
-0.754471
-0.396402
-0.203432
-0.102003
-0.0499851
-0.0239459
-0.011218
-0.00514079
-0.00230517
-0.00101174
-0.00043477
-0.000182982
-7.54469e-05
-3.04852e-05
-1.20747e-05
-4.68949e-06
-1.78631e-06
-6.67556e-07
-2.44801e-07
-8.8131e-08
-3.11822e-08
-1.08269e-08
-3.67921e-09
-1.23153e-09
-4.13802e-10
-1.26226e-10
-2.52452e-11
-1.64643e-11
1.09762e-12
1.53666e-11
8.78094e-12
-1.31714e-11
-1.53666e-11
-2.19523e-12
6.58571e-12
9.87856e-12
0
5.48809e-12
0
0
1.09762e-12
5.48809e-12
-1.09762e-12
-5.48809e-12
0
0
0
-1.09762e-11
0
1.20738e-11
1.09762e-12
-1.09762e-12
-1.09762e-12
-4711.98
-4097.44
-3310.75
-2591.33
-2002.66
-1537.27
-1171.42
-883.474
-657.184
-480.683
-344.861
-242.237
-166.367
-111.614
-73.1016
-46.7215
-29.1336
-17.7224
-10.5174
-6.08961
-3.44056
-1.8972
-1.02126
-0.536798
-0.275583
-0.138224
-0.0677541
-0.0324666
-0.0152133
-0.00697309
-0.00312738
-0.00137285
-0.000590042
-0.000248368
-0.000102421
-4.13897e-05
-1.63958e-05
-6.3684e-06
-2.42611e-06
-9.06744e-07
-3.32551e-07
-1.19723e-07
-4.23373e-08
-1.47059e-08
-5.00075e-09
-1.68155e-09
-5.65273e-10
-1.74521e-10
-4.71976e-11
-5.48809e-12
0
3.29285e-12
1.09762e-11
-4.39047e-12
-1.09762e-11
0
3.29285e-12
1.09762e-12
-2.19523e-12
0
-1.09762e-12
0
-1.20738e-11
-1.09762e-12
1.4269e-11
1.09762e-12
0
0
-2.19524e-12
0
8.78094e-12
1.09762e-12
-9.87856e-12
0
0
-4046.54
-3711.52
-3204.03
-2662.26
-2157.71
-1716.18
-1341.83
-1030.8
-776.988
-573.792
-414.58
-292.754
-201.875
-135.86
-89.2008
-57.1234
-35.6768
-21.7313
-12.9106
-7.48211
-4.23061
-2.33441
-1.25734
-0.661216
-0.339607
-0.170404
-0.0835567
-0.0400514
-0.0187726
-0.00860674
-0.00386095
-0.00169523
-0.000728742
-0.000306806
-0.000126541
-5.11449e-05
-2.02631e-05
-7.87163e-06
-2.99915e-06
-1.12108e-06
-4.11249e-07
-1.48077e-07
-5.23377e-08
-1.81667e-08
-6.20373e-09
-2.07779e-09
-6.89304e-10
-2.28304e-10
-5.92713e-11
-6.5857e-12
1.09762e-12
0
0
0
0
0
-5.48809e-12
0
1.20738e-11
0
-8.78094e-12
0
2.19523e-12
1.09762e-12
5.48809e-12
-2.19523e-12
-4.39047e-12
1.09762e-12
2.19523e-12
-5.48809e-12
-2.19523e-12
4.39047e-12
0
-5.48809e-12
5.48809e-12
-3665.04
-3451.5
-3093.36
-2668.78
-2234.74
-1824.79
-1456.07
-1135.98
-866.303
-645.415
-469.475
-333.239
-230.722
-155.771
-102.535
-65.7988
-41.165
-25.1095
-14.9352
-8.66411
-4.90313
-2.70748
-1.45921
-0.767806
-0.394546
-0.198056
-0.0971539
-0.0465852
-0.021842
-0.0100168
-0.00449467
-0.00197395
-0.000848744
-0.000357401
-0.000147436
-5.96009e-05
-2.36172e-05
-9.17604e-06
-3.49666e-06
-1.30722e-06
-4.79596e-07
-1.72691e-07
-6.10506e-08
-2.12115e-08
-7.23549e-09
-2.43561e-09
-8.03456e-10
-2.41476e-10
-6.0369e-11
-4.39047e-12
-3.29285e-12
-9.87856e-12
0
0
2.19524e-12
0
-5.48809e-12
-6.58571e-12
6.5857e-12
4.39047e-12
-1.09762e-12
0
4.39047e-12
0
-5.48809e-12
1.09762e-12
0
0
0
-1.09762e-11
-2.19523e-12
4.39047e-12
1.09762e-12
4.39047e-12
3.29285e-12
-3437.39
-3281.67
-3004.5
-2653
-2270.17
-1888.52
-1530.06
-1208.31
-930.344
-698.37
-511.017
-364.434
-253.269
-171.511
-113.174
-72.7728
-45.6044
-27.8566
-16.5888
-9.63315
-5.45626
-3.01519
-1.62612
-0.856124
-0.440154
-0.221051
-0.108477
-0.0520339
-0.0244047
-0.0111954
-0.00502491
-0.00220737
-0.000949329
-0.000399843
-0.000164978
-6.67045e-05
-2.64367e-05
-1.02732e-05
-3.91538e-06
-1.464e-06
-5.37174e-07
-1.93462e-07
-6.84123e-08
-2.37513e-08
-8.09164e-09
-2.70343e-09
-8.97851e-10
-3.02942e-10
-8.12237e-11
-6.5857e-12
1.09762e-12
7.68332e-12
-3.29285e-12
-1.09762e-12
4.39047e-12
0
-2.19524e-12
0
2.19523e-12
2.19524e-12
0
1.09762e-12
-1.09762e-12
-1.09762e-12
1.09762e-12
-1.09762e-12
0
0
0
0
0
-4.39047e-12
-1.09762e-12
0
5.48809e-12
-3298.5
-3172.24
-2939.88
-2632.92
-2284.77
-1924.96
-1576.73
-1256.58
-974.775
-736.188
-541.355
-387.623
-270.268
-183.516
-121.365
-78.1847
-49.0723
-30.0144
-17.894
-10.4011
-5.89616
-3.26065
-1.75962
-0.926934
-0.476798
-0.239561
-0.117608
-0.056434
-0.0264771
-0.0121498
-0.00545474
-0.00239679
-0.00103103
-0.000434349
-0.000179251
-7.24894e-05
-2.87345e-05
-1.1168e-05
-4.25708e-06
-1.59198e-06
-5.84198e-07
-2.1042e-07
-7.44569e-08
-2.58862e-08
-8.79521e-09
-2.92625e-09
-9.72489e-10
-3.18309e-10
-8.01261e-11
-1.09762e-12
1.09762e-12
-1.09762e-12
-1.09762e-12
1.09762e-12
-7.68332e-12
0
-5.48809e-12
0
8.78094e-12
0
2.19523e-12
0
3.29285e-12
0
0
-1.09762e-12
0
-1.20738e-11
0
1.31714e-11
1.09762e-12
-8.78094e-12
-8.78094e-12
4.39047e-12
1.09762e-11
-3212.91
-3102.39
-2895.3
-2615.2
-2289.61
-1945.36
-1605.55
-1287.99
-1004.73
-762.375
-562.807
-404.297
-282.66
-192.367
-127.462
-82.245
-51.6916
-31.6537
-18.8903
-10.9899
-6.23468
-3.45017
-1.863
-0.981904
-0.505309
-0.253992
-0.12474
-0.0598766
-0.028101
-0.0128986
-0.00579244
-0.00254579
-0.00109537
-0.000461549
-0.000190513
-7.70576e-05
-3.05505e-05
-1.18757e-05
-4.52756e-06
-1.69337e-06
-6.21496e-07
-2.23898e-07
-7.92041e-08
-2.75337e-08
-9.38463e-09
-3.11614e-09
-9.97734e-10
-3.28188e-10
-1.10859e-10
-7.68332e-12
5.48809e-12
2.19524e-12
0
0
5.48809e-12
2.305e-11
-5.48809e-12
-2.41476e-11
0
1.09762e-12
1.09762e-12
-1.09762e-12
0
0
1.09762e-12
6.58571e-12
-1.09762e-12
-6.5857e-12
1.09762e-12
-1.09762e-12
0
1.09762e-12
0
-1.09762e-12
0
-3160.09
-3058.25
-2865.6
-2601.58
-2290.28
-1956.57
-1623.03
-1307.97
-1024.42
-780.007
-577.531
-415.922
-291.413
-198.687
-131.855
-85.1939
-53.6069
-32.8592
-19.6268
-11.427
-6.48697
-3.5919
-1.94053
-1.02325
-0.526803
-0.264895
-0.130139
-0.0624873
-0.0293345
-0.0134682
-0.00604969
-0.00265943
-0.0011445
-0.000482341
-0.000199131
-8.05567e-05
-3.19428e-05
-1.24188e-05
-4.7353e-06
-1.7713e-06
-6.50177e-07
-2.34251e-07
-8.2858e-08
-2.87927e-08
-9.80611e-09
-3.2687e-09
-1.07127e-09
-3.42457e-10
-1.18543e-10
-1.97571e-11
1.31714e-11
1.09762e-12
-4.39047e-12
1.09762e-12
3.29285e-12
1.4269e-11
0
-1.75619e-11
0
3.29285e-12
0
9.87856e-12
0
-9.87856e-12
0
1.64643e-11
1.09762e-12
-1.64643e-11
-1.09762e-12
2.19524e-12
5.48809e-12
-2.19524e-12
-5.48809e-12
0
0
-3127.63
-3030.67
-2846.32
-2591.88
-2289.46
-1962.62
-1633.47
-1320.44
-1037.06
-791.574
-587.36
-423.795
-297.413
-203.064
-134.925
-87.27
-54.9641
-33.7184
-20.1543
-11.7415
-6.66919
-3.69461
-1.9969
-1.05338
-0.542512
-0.272882
-0.134102
-0.0644073
-0.0302431
-0.0138885
-0.00623977
-0.00274351
-0.0011809
-0.000497763
-0.00020553
-8.31575e-05
-3.29787e-05
-1.28233e-05
-4.89011e-06
-1.82943e-06
-6.71599e-07
-2.41968e-07
-8.55845e-08
-2.97443e-08
-1.01475e-08
-3.39932e-09
-1.12396e-09
-3.68799e-10
-1.05371e-10
-1.53666e-11
0
3.29285e-12
2.19523e-12
1.09762e-12
0
2.19523e-12
-1.09762e-12
-2.19523e-12
-2.19523e-12
1.09762e-12
1.09762e-12
0
-1.09762e-12
-1.09762e-12
1.09762e-12
1.09762e-12
1.09762e-12
-1.09762e-12
0
0
1.09762e-12
-6.5857e-12
0
5.48809e-12
0
-3107.86
-3013.66
-2834.09
-2585.32
-2288.31
-1965.83
-1639.6
-1328.07
-1044.99
-798.978
-593.752
-428.982
-301.41
-206.008
-137.007
-88.6883
-55.8971
-34.3124
-20.5208
-11.9609
-6.79684
-3.76682
-2.03665
-1.0747
-0.55365
-0.278558
-0.136924
-0.0657771
-0.0308926
-0.0141894
-0.00637606
-0.00280389
-0.00120707
-0.000508865
-0.000210141
-8.5034e-05
-3.37268e-05
-1.31156e-05
-5.00214e-06
-1.87153e-06
-6.87135e-07
-2.47604e-07
-8.75844e-08
-3.04369e-08
-1.04032e-08
-3.5014e-09
-1.15469e-09
-3.7758e-10
-9.43951e-11
-3.29285e-12
0
0
0
1.09762e-12
1.09762e-12
-2.19523e-12
0
-1.09762e-12
-1.09762e-12
3.29285e-12
1.4269e-11
-2.19523e-12
-1.31714e-11
0
-9.87856e-12
-2.08547e-11
8.78094e-12
2.19523e-11
0
0
0
0
-2.19524e-12
-3.29285e-12
5.48809e-12
-3095.95
-3003.32
-2826.5
-2581.05
-2287.28
-1967.5
-1643.15
-1332.65
-1049.87
-803.607
-597.804
-432.31
-304.001
-207.933
-138.379
-89.6294
-56.5201
-34.7111
-20.768
-12.1095
-6.88363
-3.81608
-2.06386
-1.08933
-0.561313
-0.282472
-0.138874
-0.0667258
-0.0313432
-0.0143986
-0.00647093
-0.00284598
-0.00122533
-0.000516625
-0.000213369
-8.63487e-05
-3.42516e-05
-1.33209e-05
-5.08093e-06
-1.90119e-06
-6.98069e-07
-2.51564e-07
-8.89992e-08
-3.0944e-08
-1.05657e-08
-3.54091e-09
-1.16018e-09
-3.72092e-10
-1.14152e-10
-1.97571e-11
2.19524e-12
1.09762e-12
-2.19523e-12
-1.09762e-12
0
0
0
0
0
2.19524e-12
-2.19524e-12
6.5857e-12
0
-1.86595e-11
-4.39047e-12
9.87856e-12
3.29285e-12
3.29285e-12
1.09762e-12
0
-1.09762e-12
0
0
1.09762e-12
-1.09762e-12
-3088.88
-2997.14
-2821.89
-2578.35
-2286.51
-1968.35
-1645.18
-1335.35
-1052.8
-806.436
-600.311
-434.391
-305.636
-209.158
-139.259
-90.2366
-56.9243
-34.9712
-20.9299
-12.2073
-6.94095
-3.84873
-2.08194
-1.09908
-0.566435
-0.285094
-0.140184
-0.067364
-0.0316469
-0.0145397
-0.00653508
-0.00287448
-0.00123772
-0.000521894
-0.000215563
-8.72437e-05
-3.46092e-05
-1.3461e-05
-5.13471e-06
-1.92146e-06
-7.05572e-07
-2.54305e-07
-8.99926e-08
-3.12799e-08
-1.06765e-08
-3.57055e-09
-1.14591e-09
-3.52335e-10
-1.13055e-10
-2.74404e-11
-2.19523e-12
0
-2.19523e-12
1.09762e-12
0
-1.09762e-12
-8.78094e-12
-8.78094e-12
4.39047e-12
8.78094e-12
4.39047e-12
0
-1.20738e-11
-1.09762e-12
1.31714e-11
2.19523e-12
-2.19523e-12
-1.09762e-12
1.09762e-12
-1.09762e-12
-4.39047e-12
-7.68332e-12
3.29285e-12
1.31714e-11
-3.29285e-12
-3084.75
-2993.51
-2819.14
-2576.71
-2285.97
-1968.77
-1646.31
-1336.91
-1054.53
-808.126
-601.826
-435.661
-306.642
-209.917
-139.807
-90.6177
-57.1793
-35.1361
-21.0331
-12.2699
-6.97774
-3.86975
-2.09362
-1.10539
-0.569761
-0.286801
-0.141038
-0.0677811
-0.0318458
-0.0146324
-0.00657723
-0.00289323
-0.00124589
-0.000525371
-0.000217013
-8.78357e-05
-3.4846e-05
-1.35538e-05
-5.1704e-06
-1.93491e-06
-7.10548e-07
-2.5611e-07
-9.06303e-08
-3.15258e-08
-1.07786e-08
-3.58811e-09
-1.14701e-09
-3.72092e-10
-1.06469e-10
-8.78094e-12
0
0
2.19523e-12
0
-2.19524e-12
5.48809e-12
0
-5.48809e-12
1.09762e-12
0
-2.19524e-12
0
1.09762e-12
0
4.39047e-12
0
-4.39047e-12
-1.09762e-12
0
-4.39047e-12
4.39047e-12
5.48809e-12
-4.39047e-12
1.09762e-12
-1.09762e-12
-3082.38
-2991.41
-2817.54
-2575.72
-2285.62
-1968.98
-1646.94
-1337.8
-1055.53
-809.114
-602.72
-436.417
-307.246
-210.376
-140.141
-90.8506
-57.336
-35.2378
-21.097
-12.3088
-7.0007
-3.88291
-2.10096
-1.10937
-0.57186
-0.287881
-0.141579
-0.0680462
-0.0319724
-0.0146914
-0.00660416
-0.00290523
-0.00125112
-0.000527602
-0.000217945
-8.82166e-05
-3.49986e-05
-1.36137e-05
-5.19344e-06
-1.94359e-06
-7.13736e-07
-2.57277e-07
-9.10638e-08
-3.16652e-08
-1.08291e-08
-3.60128e-09
-1.17335e-09
-4.03923e-10
-9.7688e-11
4.39047e-12
-3.29285e-12
-9.87856e-12
3.29285e-12
-5.48809e-12
-2.19524e-12
1.53666e-11
-1.09762e-12
0
5.48809e-12
1.09762e-12
-8.78094e-12
-1.09762e-12
5.48809e-12
8.78094e-12
0
-8.78094e-12
0
-4.39047e-12
0
-6.58571e-12
-1.09762e-12
9.87856e-12
9.87856e-12
1.09762e-12
-8.78094e-12
-3081.04
-2990.22
-2816.63
-2575.15
-2285.41
-1969.08
-1647.28
-1338.3
-1056.09
-809.679
-603.236
-436.856
-307.599
-210.646
-140.338
-90.9893
-57.4297
-35.2989
-21.1356
-12.3323
-7.01465
-3.89093
-2.10544
-1.11181
-0.57315
-0.288546
-0.141914
-0.06821
-0.0320508
-0.0147281
-0.00662089
-0.0029127
-0.00125438
-0.000528995
-0.000218527
-8.84549e-05
-3.50942e-05
-1.36513e-05
-5.20788e-06
-1.94905e-06
-7.15775e-07
-2.58005e-07
-9.13218e-08
-3.17552e-08
-1.08467e-08
-3.63421e-09
-1.18104e-09
-3.95142e-10
-1.21836e-10
-1.09762e-11
1.09762e-12
0
-1.09762e-12
1.09762e-12
-4.39047e-12
-1.09762e-12
6.5857e-12
8.78094e-12
-1.09762e-12
-8.78094e-12
0
0
-2.19523e-12
4.39047e-12
2.19523e-12
-5.48809e-12
-2.19523e-12
0
2.19523e-12
-6.5857e-12
-4.39047e-12
6.5857e-12
4.39047e-12
8.78094e-12
-7.68332e-12
-3080.3
-2989.56
-2816.12
-2574.83
-2285.28
-1969.13
-1647.47
-1338.57
-1056.41
-809.995
-603.527
-437.105
-307.801
-210.801
-140.452
-91.0697
-57.4844
-35.3347
-21.1582
-12.3462
-7.0229
-3.89569
-2.10811
-1.11326
-0.573921
-0.288944
-0.142114
-0.0683086
-0.032098
-0.0147502
-0.00663101
-0.00291722
-0.00125635
-0.000529841
-0.000218881
-8.86001e-05
-3.51525e-05
-1.36742e-05
-5.21673e-06
-1.95239e-06
-7.17013e-07
-2.58459e-07
-9.14623e-08
-3.18166e-08
-1.08631e-08
-3.62872e-09
-1.19531e-09
-3.88557e-10
-1.25128e-10
-2.52452e-11
1.09762e-12
0
-1.09762e-12
0
2.19524e-12
0
-1.09762e-12
0
-1.09762e-12
0
0
1.09762e-12
-1.09762e-12
0
0
0
-1.09762e-12
0
1.09762e-12
-1.4269e-11
4.39047e-12
9.87856e-12
-3.29285e-12
4.39047e-12
-1.09762e-12
-3079.9
-2989.2
-2815.84
-2574.65
-2285.2
-1969.15
-1647.56
-1338.72
-1056.58
-810.168
-603.688
-437.244
-307.914
-210.889
-140.517
-91.1153
-57.5154
-35.3551
-21.1712
-12.3542
-7.02765
-3.89844
-2.10965
-1.1141
-0.574369
-0.289177
-0.142231
-0.0683663
-0.0321258
-0.0147632
-0.00663696
-0.00291989
-0.00125752
-0.000530341
-0.000219091
-8.86861e-05
-3.51871e-05
-1.36878e-05
-5.22198e-06
-1.95436e-06
-7.17736e-07
-2.58727e-07
-9.15929e-08
-3.18638e-08
-1.0884e-08
-3.64189e-09
-1.1964e-09
-3.75385e-10
-1.11957e-10
-2.74404e-11
0
0
-1.09762e-12
-1.09762e-12
0
1.09762e-12
-1.09762e-12
0
1.09762e-12
0
-3.29285e-12
0
3.29285e-12
0
1.09762e-12
8.78094e-12
0
-9.87856e-12
0
0
9.87856e-12
3.29285e-12
-1.4269e-11
-2.19523e-12
3.29285e-12
-3079.68
-2989.01
-2815.69
-2574.55
-2285.16
-1969.16
-1647.61
-1338.79
-1056.67
-810.261
-603.774
-437.319
-307.975
-210.936
-140.552
-91.1404
-57.5326
-35.3665
-21.1784
-12.3586
-7.03032
-3.89999
-2.11052
-1.11458
-0.574624
-0.289309
-0.142298
-0.0683992
-0.0321416
-0.0147706
-0.00664038
-0.00292142
-0.00125819
-0.000530629
-0.000219211
-8.87358e-05
-3.5207e-05
-1.36957e-05
-5.22503e-06
-1.95553e-06
-7.18163e-07
-2.58897e-07
-9.1662e-08
-3.18551e-08
-1.08763e-08
-3.65287e-09
-1.20518e-09
-3.89654e-10
-1.20738e-10
-3.18309e-11
0
0
0
1.09762e-12
1.09762e-12
-2.19523e-12
1.09762e-12
-1.09762e-12
2.19523e-12
-2.19523e-12
-1.09762e-11
3.29285e-12
7.68332e-12
-8.78094e-12
-1.09762e-11
9.87856e-12
9.87856e-12
5.48809e-12
-1.09762e-12
-4.39047e-12
0
-1.09762e-12
0
0
1.09762e-12
-3079.57
-2988.91
-2815.61
-2574.5
-2285.14
-1969.16
-1647.64
-1338.83
-1056.72
-810.31
-603.82
-437.359
-308.008
-210.962
-140.571
-91.154
-57.5419
-35.3726
-21.1824
-12.3611
-7.03178
-3.90084
-2.111
-1.11484
-0.574764
-0.289382
-0.142335
-0.0684175
-0.0321504
-0.0147748
-0.00664228
-0.00292228
-0.00125857
-0.00053079
-0.000219279
-8.87638e-05
-3.52183e-05
-1.37001e-05
-5.22672e-06
-1.95618e-06
-7.18417e-07
-2.58981e-07
-9.16972e-08
-3.1899e-08
-1.09048e-08
-3.64629e-09
-1.18433e-09
-3.94045e-10
-1.32812e-10
-1.86595e-11
7.68332e-12
0
0
1.09762e-12
2.19524e-12
1.86595e-11
-4.39047e-12
-1.75619e-11
1.09762e-12
0
-1.09762e-11
-1.09762e-12
1.31714e-11
0
-2.19523e-12
0
1.09762e-12
-1.09762e-12
0
-2.19524e-12
-2.19523e-12
6.58571e-12
-3.29285e-12
-7.68332e-12
8.78094e-12
-3079.51
-2988.86
-2815.57
-2574.47
-2285.12
-1969.16
-1647.65
-1338.85
-1056.74
-810.335
-603.843
-437.379
-308.025
-210.975
-140.581
-91.1611
-57.5468
-35.3759
-21.1844
-12.3624
-7.03256
-3.90129
-2.11126
-1.11499
-0.57484
-0.289421
-0.142355
-0.0684274
-0.0321552
-0.014777
-0.00664332
-0.00292275
-0.00125877
-0.000530879
-0.000219317
-8.87792e-05
-3.52245e-05
-1.37026e-05
-5.22768e-06
-1.95652e-06
-7.18537e-07
-2.59039e-07
-9.17114e-08
-3.19231e-08
-1.09125e-08
-3.65287e-09
-1.21836e-09
-3.83069e-10
-9.7688e-11
-1.86595e-11
2.19524e-12
0
1.09762e-12
0
-3.29285e-12
9.87856e-12
0
-9.87856e-12
0
0
0
0
-1.64643e-11
0
1.64643e-11
0
1.09762e-12
0
0
-1.31714e-11
0
1.20738e-11
-3.29285e-12
1.09762e-12
2.19524e-12
-3079.49
-2988.83
-2815.55
-2574.46
-2285.12
-1969.16
-1647.66
-1338.86
-1056.75
-810.347
-603.855
-437.39
-308.033
-210.982
-140.586
-91.1648
-57.5494
-35.3776
-21.1855
-12.363
-7.03297
-3.90153
-2.11139
-1.11506
-0.57488
-0.289442
-0.142366
-0.0684327
-0.0321578
-0.0147782
-0.00664388
-0.002923
-0.00125888
-0.000530926
-0.000219337
-8.87873e-05
-3.52278e-05
-1.37039e-05
-5.2282e-06
-1.95673e-06
-7.1863e-07
-2.59064e-07
-9.17114e-08
-3.19242e-08
-1.09136e-08
-3.65397e-09
-1.20518e-09
-3.87459e-10
-1.00981e-10
-1.4269e-11
1.09762e-12
0
-1.09762e-12
1.09762e-12
0
-1.09762e-12
-7.68332e-12
-1.09762e-12
7.68332e-12
1.09762e-12
0
0
0
-1.09762e-12
-4.39047e-12
1.20738e-11
4.39047e-12
-1.09762e-11
-2.19523e-12
-1.09762e-12
2.19523e-12
0
0
-1.09762e-11
1.20738e-11
-3079.47
-2988.82
-2815.54
-2574.45
-2285.11
-1969.16
-1647.66
-1338.87
-1056.76
-810.353
-603.861
-437.395
-308.038
-210.985
-140.589
-91.1666
-57.5506
-35.3785
-21.1861
-12.3634
-7.03317
-3.90165
-2.11146
-1.1151
-0.574901
-0.289453
-0.142371
-0.0684354
-0.0321591
-0.0147789
-0.00664416
-0.00292313
-0.00125894
-0.000530951
-0.000219347
-8.87916e-05
-3.52296e-05
-1.37046e-05
-5.22848e-06
-1.95685e-06
-7.18677e-07
-2.59079e-07
-9.17235e-08
-3.19176e-08
-1.08982e-08
-3.64409e-09
-1.21616e-09
-3.91849e-10
-9.65903e-11
-1.86595e-11
0
5.48809e-12
0
-7.68332e-12
3.29285e-12
2.19523e-12
7.68332e-12
1.09762e-12
-1.20738e-11
0
-1.09762e-12
-1.09762e-12
-2.19524e-12
0
1.75619e-11
0
-1.4269e-11
0
1.09762e-12
-5.48809e-12
-2.19523e-12
6.58571e-12
-1.09762e-12
-1.09762e-12
2.19524e-12
-3079.46
-2988.81
-2815.53
-2574.45
-2285.11
-1969.16
-1647.66
-1338.87
-1056.76
-810.356
-603.864
-437.398
-308.04
-210.987
-140.59
-91.1675
-57.5513
-35.3789
-21.1864
-12.3635
-7.03328
-3.90171
-2.1115
-1.11512
-0.574911
-0.289458
-0.142374
-0.0684368
-0.0321597
-0.0147792
-0.00664431
-0.00292319
-0.00125897
-0.000530963
-0.000219352
-8.87938e-05
-3.52305e-05
-1.3705e-05
-5.22862e-06
-1.95691e-06
-7.18712e-07
-2.591e-07
-9.17389e-08
-3.19012e-08
-1.08884e-08
-3.65068e-09
-1.21726e-09
-4.05021e-10
-9.43951e-11
-1.4269e-11
-8.78094e-12
5.48809e-12
8.78094e-12
-1.31714e-11
6.58571e-12
1.53666e-11
-2.19524e-12
-3.29285e-12
-5.48809e-12
2.19524e-12
1.09762e-12
-3.29285e-12
4.39047e-12
4.39047e-12
-4.39047e-12
-2.19524e-12
0
0
0
0
0
0
1.09762e-12
1.09762e-12
-2.19524e-12
-3079.46
-2988.81
-2815.53
-2574.44
-2285.11
-1969.16
-1647.66
-1338.87
-1056.76
-810.358
-603.865
-437.399
-308.041
-210.988
-140.591
-91.168
-57.5516
-35.3791
-21.1865
-12.3636
-7.03333
-3.90174
-2.11151
-1.11513
-0.574916
-0.289461
-0.142376
-0.0684374
-0.0321601
-0.0147793
-0.00664438
-0.00292322
-0.00125898
-0.000530969
-0.000219355
-8.87949e-05
-3.52309e-05
-1.37051e-05
-5.22867e-06
-1.95692e-06
-7.18731e-07
-2.59135e-07
-9.17531e-08
-3.19088e-08
-1.08818e-08
-3.65507e-09
-1.22714e-09
-3.84166e-10
-9.87856e-11
-2.08547e-11
-3.29285e-12
-1.09762e-12
3.29285e-12
0
0
0
8.78094e-12
-2.19523e-12
-5.48809e-12
1.09762e-12
-2.19523e-12
0
2.19523e-12
-2.19523e-12
-2.19523e-12
4.39047e-12
1.09762e-12
-3.29285e-12
0
0
2.19523e-12
0
-2.19523e-12
-5.48809e-12
5.48809e-12
-3079.46
-2988.81
-2815.53
-2574.44
-2285.11
-1969.16
-1647.66
-1338.87
-1056.76
-810.358
-603.866
-437.399
-308.041
-210.988
-140.591
-91.1682
-57.5517
-35.3792
-21.1865
-12.3637
-7.03335
-3.90175
-2.11152
-1.11513
-0.574918
-0.289462
-0.142376
-0.0684378
-0.0321602
-0.0147794
-0.00664442
-0.00292324
-0.00125899
-0.000530972
-0.000219356
-8.87954e-05
-3.52311e-05
-1.37052e-05
-5.22871e-06
-1.95693e-06
-7.18707e-07
-2.59109e-07
-9.17466e-08
-3.19198e-08
-1.08917e-08
-3.65068e-09
-1.20409e-09
-4.0063e-10
-1.29519e-10
-2.19523e-11
0
0
0
0
0
2.19523e-12
0
-1.09762e-12
0
0
-2.19524e-12
0
-4.39047e-12
-1.09762e-12
5.48809e-12
1.09762e-12
0
2.19523e-12
-1.09762e-12
-6.58571e-12
0
2.19524e-12
-1.4269e-11
4.39047e-12
1.31714e-11
-3079.46
-2988.81
-2815.53
-2574.44
-2285.11
-1969.16
-1647.66
-1338.87
-1056.76
-810.359
-603.866
-437.4
-308.041
-210.988
-140.591
-91.1683
-57.5518
-35.3792
-21.1866
-12.3637
-7.03336
-3.90176
-2.11153
-1.11513
-0.574919
-0.289463
-0.142376
-0.0684379
-0.0321603
-0.0147794
-0.00664443
-0.00292325
-0.00125899
-0.000530974
-0.000219357
-8.87957e-05
-3.52313e-05
-1.37053e-05
-5.22872e-06
-1.95693e-06
-7.18708e-07
-2.59097e-07
-9.17389e-08
-3.19209e-08
-1.08917e-08
-3.62543e-09
-1.19531e-09
-3.9624e-10
-1.32812e-10
-4.82952e-11
-4.39047e-12
-5.48809e-12
-1.09762e-12
5.48809e-12
0
2.19523e-12
0
1.09762e-12
0
-2.19524e-12
0
-5.48809e-12
-1.75619e-11
4.39047e-12
1.86595e-11
0
-1.09762e-12
1.09762e-12
0
0
0
0
0
8.78094e-12
-8.78094e-12
-3079.46
-2988.81
-2815.53
-2574.44
-2285.11
-1969.16
-1647.66
-1338.87
-1056.76
-810.359
-603.866
-437.4
-308.042
-210.988
-140.591
-91.1683
-57.5518
-35.3792
-21.1866
-12.3637
-7.03337
-3.90176
-2.11153
-1.11513
-0.57492
-0.289463
-0.142377
-0.068438
-0.0321603
-0.0147795
-0.00664444
-0.00292325
-0.001259
-0.000530974
-0.000219357
-8.87958e-05
-3.52313e-05
-1.37053e-05
-5.22873e-06
-1.95694e-06
-7.18719e-07
-2.59096e-07
-9.17235e-08
-3.18781e-08
-1.0862e-08
-3.63641e-09
-1.20738e-09
-3.99533e-10
-1.47081e-10
-5.1588e-11
2.19523e-12
1.09762e-12
2.19523e-12
-1.09762e-12
-2.19523e-12
0
0
0
-1.09762e-12
0
1.09762e-12
-1.09762e-12
0
1.09762e-12
-3.29285e-12
0
3.29285e-12
9.87856e-12
3.29285e-12
-8.78094e-12
-2.41476e-11
-1.09762e-12
1.64643e-11
2.19523e-12
2.19523e-12
-3079.46
-2988.81
-2815.53
-2574.44
-2285.11
-1969.16
-1647.66
-1338.87
-1056.76
-810.359
-603.866
-437.4
-308.042
-210.988
-140.591
-91.1683
-57.5518
-35.3792
-21.1866
-12.3637
-7.03337
-3.90176
-2.11153
-1.11513
-0.57492
-0.289463
-0.142377
-0.068438
-0.0321603
-0.0147795
-0.00664444
-0.00292325
-0.001259
-0.000530975
-0.000219357
-8.87959e-05
-3.52313e-05
-1.37053e-05
-5.22873e-06
-1.95693e-06
-7.18711e-07
-2.59105e-07
-9.17213e-08
-3.18957e-08
-1.08785e-08
-3.61445e-09
-1.21067e-09
-4.03923e-10
-1.26226e-10
-4.17095e-11
0
1.4269e-11
0
-1.53666e-11
0
1.20738e-11
-1.09762e-12
-9.87856e-12
0
-1.09762e-12
1.09762e-12
0
0
0
0
0
9.87856e-12
2.19523e-12
-9.87856e-12
-6.58571e-12
-1.09762e-12
5.48809e-12
0
0
0
-3079.46
-2988.81
-2815.53
-2574.44
-2285.11
-1969.16
-1647.66
-1338.87
-1056.76
-810.359
-603.866
-437.4
-308.042
-210.988
-140.591
-91.1684
-57.5518
-35.3793
-21.1866
-12.3637
-7.03337
-3.90177
-2.11153
-1.11513
-0.57492
-0.289463
-0.142377
-0.068438
-0.0321604
-0.0147795
-0.00664444
-0.00292325
-0.001259
-0.000530975
-0.000219357
-8.87959e-05
-3.52313e-05
-1.37053e-05
-5.22873e-06
-1.95695e-06
-7.18711e-07
-2.59089e-07
-9.17312e-08
-3.18957e-08
-1.08774e-08
-3.62433e-09
-1.19421e-09
-3.9624e-10
-1.20738e-10
-3.18309e-11
-1.09762e-11
1.09762e-12
1.09762e-11
1.09762e-12
2.19524e-12
8.78094e-12
-1.31714e-11
-9.87856e-12
1.20738e-11
-1.09762e-12
-4.39047e-12
-3.29285e-12
4.39047e-12
3.29285e-12
0
0
1.09762e-12
-1.09762e-12
7.68332e-12
1.09762e-12
-4.39047e-12
0
-2.19524e-12
0
-2.19524e-12
-3079.46
-2988.81
-2815.53
-2574.44
-2285.11
-1969.16
-1647.66
-1338.87
-1056.76
-810.359
-603.866
-437.4
-308.042
-210.988
-140.591
-91.1684
-57.5518
-35.3793
-21.1866
-12.3637
-7.03337
-3.90177
-2.11153
-1.11513
-0.57492
-0.289463
-0.142377
-0.068438
-0.0321604
-0.0147795
-0.00664445
-0.00292325
-0.001259
-0.000530975
-0.000219357
-8.87959e-05
-3.52313e-05
-1.37053e-05
-5.22872e-06
-1.95696e-06
-7.1872e-07
-2.59085e-07
-9.1718e-08
-3.19044e-08
-1.08906e-08
-3.63531e-09
-1.1986e-09
-3.76483e-10
-1.07567e-10
-2.74404e-11
-4.39047e-12
3.29285e-12
7.68332e-12
0
-2.19523e-12
0
-1.75619e-11
-9.87856e-12
5.48809e-12
5.48809e-12
1.20738e-11
4.39047e-12
-2.19523e-12
0
-7.68332e-12
0
1.4269e-11
0
-4.39047e-12
-7.68332e-12
-1.09762e-12
-1.09762e-12
0
1.64643e-11
-6.5857e-12
-3079.46
-2988.81
-2815.53
-2574.44
-2285.11
-1969.16
-1647.66
-1338.87
-1056.76
-810.359
-603.866
-437.4
-308.042
-210.988
-140.591
-91.1684
-57.5518
-35.3793
-21.1866
-12.3637
-7.03337
-3.90177
-2.11153
-1.11513
-0.57492
-0.289463
-0.142377
-0.068438
-0.0321604
-0.0147795
-0.00664445
-0.00292325
-0.001259
-0.000530975
-0.000219357
-8.87959e-05
-3.52313e-05
-1.37053e-05
-5.22872e-06
-1.95692e-06
-7.18696e-07
-2.59073e-07
-9.17092e-08
-3.19121e-08
-1.0895e-08
-3.62763e-09
-1.18872e-09
-3.7319e-10
-1.26226e-10
-4.28071e-11
3.29285e-12
1.09762e-12
-1.09762e-12
-1.09762e-12
8.78094e-12
3.29285e-12
-1.09762e-11
-9.87856e-12
1.09762e-12
-5.48809e-12
1.09762e-12
1.31714e-11
-5.48809e-12
-1.09762e-12
6.5857e-12
0
1.09762e-12
0
-1.09762e-12
-1.31714e-11
0
6.58571e-12
-4.39047e-12
6.5857e-12
4.39047e-12
-3079.46
-2988.81
-2815.53
-2574.44
-2285.11
-1969.16
-1647.66
-1338.87
-1056.76
-810.359
-603.866
-437.4
-308.042
-210.988
-140.591
-91.1684
-57.5518
-35.3793
-21.1866
-12.3637
-7.03337
-3.90177
-2.11153
-1.11513
-0.57492
-0.289463
-0.142377
-0.068438
-0.0321604
-0.0147795
-0.00664445
-0.00292325
-0.001259
-0.000530975
-0.000219357
-8.87959e-05
-3.52313e-05
-1.37053e-05
-5.22871e-06
-1.95693e-06
-7.18692e-07
-2.5907e-07
-9.17224e-08
-3.1899e-08
-1.08873e-08
-3.62543e-09
-1.1964e-09
-4.03923e-10
-1.08664e-10
-2.41476e-11
-6.58571e-12
3.29285e-12
-7.68332e-12
1.09762e-12
1.53666e-11
1.09762e-12
-1.75619e-11
8.78094e-12
1.31714e-11
-8.78094e-12
2.19524e-12
0
-2.19524e-12
-1.09762e-12
1.09762e-12
-3.29285e-12
4.39047e-12
4.39047e-12
1.09762e-12
-2.19524e-12
-5.48809e-12
1.09762e-12
1.09762e-12
-1.09762e-12
0
-3079.46
-2988.81
-2815.53
-2574.44
-2285.11
-1969.16
-1647.66
-1338.87
-1056.76
-810.359
-603.866
-437.4
-308.042
-210.988
-140.591
-91.1684
-57.5518
-35.3793
-21.1866
-12.3637
-7.03337
-3.90177
-2.11153
-1.11513
-0.57492
-0.289463
-0.142377
-0.068438
-0.0321604
-0.0147795
-0.00664445
-0.00292325
-0.001259
-0.000530975
-0.000219357
-8.87959e-05
-3.52313e-05
-1.37053e-05
-5.22873e-06
-1.95692e-06
-7.18677e-07
-2.59075e-07
-9.17268e-08
-3.19066e-08
-1.08763e-08
-3.6386e-09
-1.20848e-09
-4.08314e-10
-1.31714e-10
-1.64643e-11
1.4269e-11
0
-7.68332e-12
1.09762e-12
-1.09762e-11
-1.09762e-12
9.87856e-12
0
3.29285e-12
-1.09762e-12
-2.19523e-12
-1.09762e-12
-5.48809e-12
-2.19523e-12
7.68332e-12
4.39047e-12
1.31714e-11
0
-1.31714e-11
8.78094e-12
1.31714e-11
-1.09762e-11
-1.09762e-11
-1.09762e-12
1.09762e-12
-3079.46
-2988.81
-2815.53
-2574.44
-2285.11
-1969.16
-1647.66
-1338.87
-1056.76
-810.359
-603.866
-437.4
-308.042
-210.988
-140.591
-91.1684
-57.5518
-35.3793
-21.1866
-12.3637
-7.03337
-3.90177
-2.11153
-1.11513
-0.57492
-0.289463
-0.142377
-0.068438
-0.0321604
-0.0147795
-0.00664445
-0.00292325
-0.001259
-0.000530975
-0.000219357
-8.87959e-05
-3.52313e-05
-1.37053e-05
-5.22875e-06
-1.9569e-06
-7.18683e-07
-2.59076e-07
-9.16873e-08
-3.18979e-08
-1.0895e-08
-3.64299e-09
-1.20738e-09
-4.14899e-10
-1.45983e-10
-2.85381e-11
7.68332e-12
1.4269e-11
7.68332e-12
-1.4269e-11
0
4.39047e-12
-8.78094e-12
-5.48809e-12
0
0
0
0
0
-3.29285e-12
0
4.39047e-12
0
-1.09762e-12
-8.78094e-12
-6.58571e-12
1.53666e-11
5.48809e-12
-8.78094e-12
0
3.29285e-12
-3079.46
-2988.81
-2815.53
-2574.44
-2285.11
-1969.16
-1647.66
-1338.87
-1056.76
-810.359
-603.866
-437.4
-308.042
-210.988
-140.591
-91.1684
-57.5518
-35.3793
-21.1866
-12.3637
-7.03337
-3.90177
-2.11153
-1.11513
-0.57492
-0.289463
-0.142377
-0.068438
-0.0321604
-0.0147795
-0.00664445
-0.00292325
-0.001259
-0.000530975
-0.000219357
-8.87959e-05
-3.52313e-05
-1.37053e-05
-5.22873e-06
-1.95691e-06
-7.18685e-07
-2.59064e-07
-9.16851e-08
-3.18825e-08
-1.08873e-08
-3.66604e-09
-1.2425e-09
-4.06118e-10
-1.22933e-10
-3.51238e-11
7.68332e-12
1.4269e-11
-8.78094e-12
-1.53666e-11
0
1.53666e-11
0
-1.31714e-11
0
-1.09762e-12
-3.29285e-12
-1.09762e-12
4.39047e-12
0
0
0
0
1.09762e-12
-1.09762e-12
-7.68332e-12
1.09762e-12
7.68332e-12
-8.78094e-12
0
7.68332e-12
-3079.46
-2988.81
-2815.53
-2574.44
-2285.11
-1969.16
-1647.66
-1338.87
-1056.76
-810.359
-603.866
-437.4
-308.042
-210.988
-140.591
-91.1684
-57.5518
-35.3793
-21.1866
-12.3637
-7.03337
-3.90177
-2.11153
-1.11513
-0.57492
-0.289463
-0.142377
-0.068438
-0.0321604
-0.0147795
-0.00664445
-0.00292325
-0.001259
-0.000530975
-0.000219357
-8.87959e-05
-3.52313e-05
-1.37053e-05
-5.22872e-06
-1.95691e-06
-7.18703e-07
-2.59097e-07
-9.16906e-08
-3.18507e-08
-1.08873e-08
-3.68031e-09
-1.22823e-09
-4.10509e-10
-1.29519e-10
-2.63428e-11
-5.48809e-12
0
0
-1.09762e-12
-9.87856e-12
0
4.39047e-12
0
5.48809e-12
0
-2.19523e-12
5.48809e-12
2.19523e-12
-4.39047e-12
0
-1.09762e-12
0
7.68332e-12
7.68332e-12
-6.5857e-12
-9.87856e-12
-7.68332e-12
-2.19523e-12
3.29285e-12
7.68332e-12
-3079.46
-2988.81
-2815.53
-2574.44
-2285.11
-1969.16
-1647.66
-1338.87
-1056.76
-810.359
-603.866
-437.4
-308.042
-210.988
-140.591
-91.1684
-57.5518
-35.3793
-21.1866
-12.3637
-7.03337
-3.90177
-2.11153
-1.11513
-0.57492
-0.289463
-0.142377
-0.068438
-0.0321604