/*--------------------------------*- C++ -*----------------------------------*\
  =========                 |
  \\      /  F ield         | OpenFOAM: The Open Source CFD Toolbox
   \\    /   O peration     | Website:  https://openfoam.org
    \\  /    A nd           | Version:  10
     \\/     M anipulation  |
\*---------------------------------------------------------------------------*/
FoamFile
{
    format      ascii;
    class       volScalarField;
    location    "214";
    object      gradTx;
}
// * * * * * * * * * * * * * * * * * * * * * * * * * * * * * * * * * * * * * //

dimensions      [0 -1 0 1 0 0 0];

internalField   nonuniform List<scalar> 
11250
(
14286.7
8064.91
5246.24
3740.24
2821.08
2202.12
1755.29
1416.7
1151.45
938.903
766.03
624.131
507.077
410.346
330.46
264.652
210.655
166.573
130.8
101.962
78.8832
60.5544
46.1147
34.8333
26.0946
19.3847
14.2781
10.4269
7.54875
5.41759
3.85411
2.71776
1.89955
1.31591
0.903499
0.614814
0.414634
0.277128
0.183562
0.120493
0.0783801
0.0505245
0.0322727
0.0204262
0.0128097
0.00795912
0.0048993
0.00298754
0.00180454
0.00107956
0.000639606
0.000375237
0.000217958
0.00012533
7.13324e-05
4.01795e-05
2.23946e-05
1.23491e-05
6.73611e-06
3.63417e-06
1.93888e-06
1.02281e-06
5.3344e-07
2.75012e-07
1.40157e-07
7.05922e-08
3.51633e-08
1.72995e-08
8.40116e-09
4.01399e-09
1.8879e-09
8.75899e-10
3.61116e-10
1.48178e-10
4.39047e-12
4082.67
4664.08
3937.34
3158.49
2527.15
2037.29
1655.11
1352.04
1107.79
908.419
744.209
608.222
495.323
401.58
323.882
259.698
206.917
163.753
128.675
100.365
77.6873
59.6626
45.4529
34.3449
25.7363
19.1235
14.089
10.2909
7.45169
5.34883
3.80578
2.68405
1.87622
1.2999
0.892598
0.607455
0.409707
0.273858
0.18141
0.119089
0.0774722
0.0499426
0.031903
0.0201935
0.0126645
0.00786938
0.00484436
0.00295422
0.00178453
0.00106767
0.000632601
0.000371156
0.000215605
0.000123988
7.0575e-05
3.97569e-05
2.21614e-05
1.22219e-05
6.66755e-06
3.59766e-06
1.91968e-06
1.01283e-06
5.28292e-07
2.72425e-07
1.38853e-07
6.99281e-08
3.47978e-08
1.71261e-08
8.32982e-09
3.98325e-09
1.85717e-09
8.72606e-10
4.2368e-10
1.73424e-10
4.39047e-11
1463.36
2573.66
2684.28
2434.25
2097.96
1771.98
1483.84
1237.14
1028.2
851.867
703.223
578.068
472.892
384.765
311.212
250.124
199.675
158.278
124.543
97.2552
75.3553
57.9217
44.1599
33.3899
25.0352
18.6121
13.7186
10.0244
7.26141
5.21397
3.71093
2.61787
1.83041
1.26845
0.871185
0.592996
0.400026
0.267431
0.17718
0.116329
0.0756866
0.0487978
0.0311756
0.0197354
0.0123787
0.0076927
0.00473616
0.00288859
0.00174511
0.00104422
0.000618793
0.000363109
0.000210964
0.000121339
6.90799e-05
3.89223e-05
2.17007e-05
1.19705e-05
6.53199e-06
3.5254e-06
1.88164e-06
9.9304e-07
5.1812e-07
2.67213e-07
1.36202e-07
6.86373e-08
3.41644e-08
1.68067e-08
8.15969e-09
3.92398e-09
1.85827e-09
8.67118e-10
4.02826e-10
1.58057e-10
6.36618e-11
661.226
1485.14
1795.5
1801.23
1664.55
1475.89
1278.97
1092.86
924.777
776.532
647.619
536.596
441.719
361.205
293.347
236.555
189.369
150.459
118.625
92.7914
72.0016
55.4139
42.2946
32.0105
24.0216
17.8721
13.182
9.63819
6.98542
5.01826
3.57323
2.52174
1.76385
1.22273
0.840045
0.571962
0.385938
0.258075
0.17102
0.112308
0.0730856
0.0471298
0.0301155
0.0190678
0.011962
0.00743503
0.00457832
0.00279283
0.00168757
0.00100998
0.000598629
0.000351352
0.000204181
0.000117467
6.68934e-05
3.77011e-05
2.10263e-05
1.16023e-05
6.33328e-06
3.41942e-06
1.82579e-06
9.6395e-07
5.03174e-07
2.59629e-07
1.324e-07
6.67373e-08
3.32293e-08
1.63391e-08
7.92809e-09
3.80654e-09
1.7957e-09
8.35287e-10
3.81971e-10
1.58057e-10
3.95142e-11
358.361
912.324
1214.9
1315.39
1289.01
1194.9
1070.89
938.713
809.997
690.502
582.721
487.374
404.232
332.579
271.46
219.821
176.589
140.721
111.227
87.1932
67.7844
52.2534
39.9393
30.2659
22.7376
16.9335
12.5007
9.1473
6.63435
4.76912
3.3978
2.39921
1.67895
1.16439
0.800288
0.545095
0.367936
0.246116
0.163144
0.107166
0.0697576
0.0449949
0.0287583
0.0182127
0.0114282
0.00710485
0.00437601
0.00267004
0.00161376
0.000966054
0.000572745
0.000336255
0.000195466
0.000112489
6.40811e-05
3.61295e-05
2.01578e-05
1.11278e-05
6.077e-06
3.28263e-06
1.75364e-06
9.26369e-07
4.83831e-07
2.49801e-07
1.27469e-07
6.42754e-08
3.2034e-08
1.5764e-08
7.66796e-09
3.66385e-09
1.72216e-09
7.90285e-10
3.5453e-10
1.58057e-10
4.60999e-11
218.955
592.971
839.755
961.033
986.84
950.39
878.263
788.913
694.138
601.041
513.639
433.998
362.978
300.701
246.851
200.857
162.013
129.553
102.705
80.7197
62.8921
48.5767
37.1927
28.2272
21.2345
15.833
11.7009
8.57024
6.22121
4.47564
3.19098
2.25463
1.5787
1.09546
0.753287
0.513317
0.346632
0.231957
0.153814
0.101072
0.0658123
0.0424632
0.0271481
0.0171979
0.0107945
0.00671272
0.00413564
0.0025241
0.001526
0.000913796
0.000541936
0.000318276
0.000185082
0.000106555
6.07258e-05
3.42531e-05
1.91201e-05
1.05603e-05
5.77028e-06
3.11874e-06
1.66711e-06
8.81229e-07
4.60564e-07
2.37946e-07
1.21524e-07
6.1348e-08
3.05939e-08
1.50725e-08
7.34635e-09
3.54091e-09
1.70131e-09
7.86992e-10
3.41359e-10
1.52569e-10
4.50023e-11
144.105
402.817
593.327
706.501
752.305
747.783
709.773
651.954
584.333
513.749
444.623
379.644
320.309
267.307
220.8
180.607
146.335
117.469
93.4363
73.648
57.5278
44.5323
34.1631
25.9731
19.5691
14.6114
10.8115
7.92767
5.76057
4.14804
2.95987
2.09292
1.46649
1.01824
0.700595
0.477668
0.32272
0.216055
0.143331
0.0942218
0.0613749
0.0396144
0.0253355
0.016055
0.0100804
0.00627069
0.00386457
0.00235943
0.00142693
0.000854773
0.00050712
0.000297946
0.000173333
9.98353e-05
5.69235e-05
3.21249e-05
1.7942e-05
9.91546e-06
5.4213e-06
2.93207e-06
1.56844e-06
8.2967e-07
4.3394e-07
2.24396e-07
1.14727e-07
5.79762e-08
2.89376e-08
1.42756e-08
6.97316e-09
3.39164e-09
1.6563e-09
7.77113e-10
3.47945e-10
1.4269e-10
2.96357e-11
99.3763
282.713
427.254
523.432
573.142
584.517
567.59
531.763
484.752
432.387
378.815
326.829
278.192
233.912
194.463
159.946
130.214
104.961
83.7892
66.2526
51.8948
40.2703
30.9606
23.5838
17.7996
13.3108
9.86284
7.24114
5.2677
3.79705
2.71196
1.91927
1.34587
0.935168
0.643863
0.439256
0.296937
0.198898
0.132014
0.086822
0.0565792
0.036534
0.0233746
0.0148179
0.00930712
0.00579176
0.00357071
0.00218082
0.00131941
0.000790677
0.000469287
0.000275838
0.000160546
9.25162e-05
5.27784e-05
2.98025e-05
1.66551e-05
9.21025e-06
5.0392e-06
2.72744e-06
1.4601e-06
7.72997e-07
4.04631e-07
2.09428e-07
1.0714e-07
5.41817e-08
2.71013e-08
1.33843e-08
6.53851e-09
3.16663e-09
1.5224e-09
7.33208e-10
3.5014e-10
1.37202e-10
2.96357e-11
70.6423
203.125
312.347
390.639
437.005
454.995
450.347
429.236
397.277
359.099
318.259
277.341
238.119
201.723
168.795
139.621
114.229
92.4741
74.101
58.7881
46.1842
35.9329
27.6906
21.137
15.9828
11.9723
8.88456
6.53188
4.75768
3.43332
2.45472
1.73887
1.22043
0.848682
0.584748
0.399198
0.270027
0.180979
0.120186
0.0790833
0.0515609
0.0333087
0.0213202
0.0135212
0.0084961
0.00528918
0.00326215
0.00199317
0.00120638
0.000723246
0.000429456
0.000252545
0.000147062
8.47912e-05
4.8399e-05
2.73463e-05
1.52924e-05
8.46258e-06
4.63357e-06
2.50987e-06
1.34474e-06
7.12562e-07
3.73368e-07
1.93398e-07
9.90249e-08
5.01183e-08
2.50981e-08
1.24173e-08
6.06324e-09
2.91747e-09
1.39836e-09
6.89304e-10
3.23797e-10
1.50374e-10
5.1588e-11
51.2431
148.379
230.951
293.273
333.561
353.12
355.124
343.515
322.236
294.793
264.072
232.302
201.112
171.62
144.531
120.227
98.8525
80.379
64.6602
51.4759
40.5643
31.6473
24.4481
18.7032
14.1707
10.634
7.90429
5.81979
4.24471
3.0669
2.19521
1.55664
1.09356
0.761121
0.524839
0.358564
0.242708
0.162773
0.10816
0.0712093
0.0464514
0.0300227
0.0192259
0.0121985
0.0076683
0.00477588
0.00294681
0.00180127
0.0010907
0.000654189
0.000388633
0.000228651
0.000133217
7.68518e-05
4.38933e-05
2.48163e-05
1.3887e-05
7.69044e-06
4.21406e-06
2.28449e-06
1.22505e-06
6.4973e-07
3.4078e-07
1.76705e-07
9.0593e-08
4.58969e-08
2.2983e-08
1.13911e-08
5.56712e-09
2.68916e-09
1.30068e-09
6.0808e-10
2.68916e-10
1.4269e-10
5.37833e-11
37.6795
109.636
172.155
221.129
254.776
273.36
278.576
272.893
259.015
239.521
216.663
192.275
167.77
144.173
122.175
102.196
84.4429
68.9652
55.6971
44.4965
35.1751
27.5206
21.3144
16.3435
12.4086
9.32929
6.94638
5.1225
3.74147
2.70683
1.9398
1.37703
0.968365
0.674611
0.465585
0.318336
0.215636
0.144716
0.0962226
0.063388
0.0413724
0.0267541
0.0171413
0.010881
0.00684324
0.00426393
0.0026321
0.00160961
0.000975083
0.000585114
0.000347764
0.000204709
0.000119332
6.88806e-05
3.93645e-05
2.22702e-05
1.24709e-05
6.91132e-06
3.79011e-06
2.05638e-06
1.10372e-06
5.85932e-07
3.07603e-07
1.59692e-07
8.19778e-08
4.15734e-08
2.08163e-08
1.03187e-08
5.05672e-09
2.46086e-09
1.16787e-09
5.27954e-10
2.39281e-10
9.98832e-11
2.74404e-11
27.9552
81.6298
129.021
167.187
194.599
211.078
217.489
215.356
206.507
192.802
175.948
157.408
138.356
119.686
102.031
85.8058
71.2438
58.4389
47.381
37.9865
30.1245
23.637
18.3543
14.107
10.7336
8.08572
6.03119
4.45485
3.25867
2.36077
1.69393
1.20388
0.847505
0.590995
0.408248
0.279368
0.189388
0.127193
0.084628
0.055785
0.0364314
0.0235719
0.0151104
0.00959661
0.00603833
0.00376414
0.00232463
0.00142222
0.00086196
0.000517473
0.00030771
0.000181223
0.000105697
6.10446e-05
3.49073e-05
1.97613e-05
1.10736e-05
6.14144e-06
3.37055e-06
1.83028e-06
9.83223e-07
5.22445e-07
2.74561e-07
1.42686e-07
7.32912e-08
3.72202e-08
1.86782e-08
9.26389e-09
4.54523e-09
2.20621e-09
1.02847e-09
4.6978e-10
2.10743e-10
7.02475e-11
2.41476e-11
20.8568
61.0647
97.0014
126.561
148.516
162.531
169.015
168.898
163.405
153.856
141.526
127.548
112.873
98.2497
84.2325
71.2032
59.3965
48.9282
39.8229
32.0388
25.4886
20.0572
15.6156
12.0308
9.17386
6.9246
5.17456
3.82853
2.80485
2.03488
1.46199
1.0403
0.733161
0.511785
0.353868
0.242368
0.16444
0.110521
0.0735875
0.0485391
0.0317188
0.0205345
0.0131704
0.0083688
0.00526833
0.00328568
0.00203008
0.00124257
0.000753419
0.000452518
0.000269211
0.000158627
9.25659e-05
5.349e-05
3.06051e-05
1.73366e-05
9.7213e-06
5.39529e-06
2.96331e-06
1.61042e-06
8.65847e-07
4.60483e-07
2.42226e-07
1.25999e-07
6.47946e-08
3.29636e-08
1.65817e-08
8.21128e-09
4.03265e-09
1.94717e-09
9.04437e-10
4.01728e-10
1.82205e-10
9.32975e-11
4.82952e-11
15.6085
45.7927
73.0275
95.8013
113.162
124.751
130.732
131.668
128.373
121.777
112.816
102.356
91.1463
79.7971
68.7777
58.4241
48.9554
40.4931
33.0814
26.7065
21.3132
16.8197
13.1294
10.1397
7.74892
5.86088
4.38782
3.25201
2.38624
1.7337
1.24728
0.888622
0.626984
0.438134
0.303241
0.207883
0.141162
0.0949506
0.0632664
0.0417595
0.0273058
0.017688
0.0113509
0.00721639
0.00454509
0.00283594
0.00175299
0.00107345
0.000651154
0.000391267
0.000232876
0.000137281
8.01484e-05
4.63382e-05
2.65275e-05
1.50356e-05
8.4363e-06
4.68527e-06
2.57519e-06
1.40057e-06
7.53614e-07
4.01144e-07
2.11202e-07
1.0999e-07
5.66447e-08
2.88355e-08
1.45006e-08
7.19708e-09
3.51896e-09
1.68045e-09
7.9248e-10
3.91849e-10
1.97571e-10
1.04274e-10
3.51238e-11
11.6937
34.3632
54.9716
72.4319
86.0194
95.4061
100.632
102.034
100.151
95.632
89.159
81.383
72.8846
64.1512
55.5683
47.4217
39.9061
33.1383
27.1712
22.0085
17.618
13.9429
10.9121
8.4475
6.46996
4.90349
3.67795
2.73061
2.00686
1.46022
1.05198
0.750429
0.530103
0.370838
0.256924
0.176297
0.119817
0.0806587
0.0537838
0.0355251
0.0232441
0.0150659
0.00967364
0.00615322
0.00387735
0.00242041
0.00149679
0.000916945
0.000556449
0.000334497
0.00019917
0.000117461
6.86069e-05
3.96839e-05
2.27293e-05
1.28896e-05
7.23629e-06
4.02128e-06
2.21169e-06
1.20374e-06
6.48201e-07
3.45305e-07
1.8195e-07
9.48276e-08
4.88868e-08
2.49027e-08
1.25337e-08
6.24544e-09
3.05467e-09
1.47739e-09
7.10159e-10
3.52335e-10
1.74521e-10
9.43951e-11
2.52452e-11
8.75687
25.7667
41.3239
54.6451
65.185
72.6667
77.0711
78.5959
77.597
74.5268
69.8769
64.1316
57.7345
51.0674
44.4404
38.0898
32.1829
26.8255
22.0719
17.9359
14.4008
11.4284
8.96705
6.95818
5.34096
4.05604
3.04802
2.26687
1.66872
1.21601
0.877252
0.626596
0.443157
0.310359
0.215245
0.147838
0.100565
0.0677542
0.0452134
0.0298851
0.0195666
0.0126899
0.00815253
0.00518831
0.00327088
0.00204272
0.00126375
0.000774484
0.000470173
0.000282738
0.000168413
9.93584e-05
5.8056e-05
3.35944e-05
1.92498e-05
1.09213e-05
6.13432e-06
3.41071e-06
1.87694e-06
1.02217e-06
5.50805e-07
2.93635e-07
1.54833e-07
8.07298e-08
4.16458e-08
2.12433e-08
1.0716e-08
5.33552e-09
2.64197e-09
1.29299e-09
6.30032e-10
2.90869e-10
1.31714e-10
6.69547e-11
3.29285e-11
6.54661
19.2837
30.9909
41.1029
49.2131
55.0974
58.7124
60.172
59.7109
57.6427
54.32
50.0996
45.3164
40.2652
35.1907
30.2844
25.6856
21.4861
17.7377
14.4587
11.6425
9.26426
7.28721
5.66782
4.3599
3.31765
2.49779
1.86088
1.37206
1.00133
0.723391
0.517369
0.366349
0.256856
0.178324
0.122599
0.0834714
0.0562841
0.037588
0.0248625
0.0162887
0.0105703
0.00679451
0.00432621
0.00272862
0.00170478
0.00105508
0.00064683
0.000392808
0.000236289
0.000140789
8.30867e-05
4.85635e-05
2.81107e-05
1.61131e-05
9.14513e-06
5.13873e-06
2.85839e-06
1.57371e-06
8.57458e-07
4.62288e-07
2.46591e-07
1.30125e-07
6.78997e-08
3.50349e-08
1.78747e-08
9.02461e-09
4.50572e-09
2.23036e-09
1.07347e-09
5.14783e-10
2.61233e-10
1.17445e-10
2.96357e-11
1.09762e-12
4.88108
14.3905
23.1669
30.8023
36.9954
41.5702
44.4768
45.7792
45.6315
44.2507
41.8885
38.8056
35.2523
31.4531
27.5986
23.8406
20.2926
17.0322
14.1053
11.532
9.31174
7.42891
5.85775
4.56636
3.52006
2.68388
2.02436
1.51076
1.11571
0.815461
0.589936
0.422471
0.299515
0.210234
0.14611
0.100549
0.0685208
0.0462416
0.0309051
0.0204565
0.0134107
0.00870777
0.00560025
0.0035675
0.00225105
0.00140694
0.000871047
0.000534172
0.000324483
0.000195239
0.000116358
6.86845e-05
4.01547e-05
2.32488e-05
1.33295e-05
7.56735e-06
4.25339e-06
2.36669e-06
1.30347e-06
7.1049e-07
3.8322e-07
2.04496e-07
1.0795e-07
5.63802e-08
2.91088e-08
1.48672e-08
7.52197e-09
3.7758e-09
1.85168e-09
9.02242e-10
4.44535e-10
2.19524e-10
1.03176e-10
1.53666e-11
-1.09762e-11
3.62648
10.6996
17.25
22.9834
27.6779
31.1976
33.4955
34.6057
34.6295
33.7166
32.0455
29.806
27.183
24.3459
21.4407
18.5863
15.8733
13.3653
11.1018
9.10219
7.36934
5.89401
4.65841
3.63944
2.81134
2.14766
1.62285
1.21317
0.89736
0.656848
0.475849
0.341212
0.242199
0.170195
0.118408
0.0815646
0.0556336
0.0375758
0.0251326
0.0166472
0.0109204
0.00709479
0.00456522
0.00290947
0.00183657
0.00114828
0.000711119
0.000436206
0.000265031
0.000159497
9.50714e-05
5.61276e-05
3.2818e-05
1.90035e-05
1.08971e-05
6.18734e-06
3.47833e-06
1.93582e-06
1.06641e-06
5.81413e-07
3.13685e-07
1.67432e-07
8.84076e-08
4.61921e-08
2.38457e-08
1.2189e-08
6.15434e-09
3.06894e-09
1.52788e-09
7.55161e-10
3.88557e-10
1.63545e-10
7.57356e-11
2.63428e-11
-8.78094e-12
2.68303
7.92097
12.786
17.0661
20.5988
23.2809
25.0713
25.9873
26.0951
25.4978
24.3217
22.7036
20.7794
18.6756
16.5027
14.3524
12.2957
10.3839
8.64984
7.11096
5.77187
4.62747
3.66568
2.86999
2.22142
1.70021
1.28702
0.963732
0.713968
0.523377
0.379678
0.272603
0.193731
0.136289
0.0949182
0.0654474
0.0446804
0.0302028
0.0202164
0.0134
0.00879565
0.00571754
0.00368079
0.0023468
0.00148192
0.000926823
0.000574113
0.000352234
0.000214042
0.000128826
7.67949e-05
4.53398e-05
2.65112e-05
1.53518e-05
8.80326e-06
4.99858e-06
2.81018e-06
1.56404e-06
8.61681e-07
4.69843e-07
2.53521e-07
1.35344e-07
7.14736e-08
3.7342e-08
1.92829e-08
9.84453e-09
4.96233e-09
2.48391e-09
1.23372e-09
6.09178e-10
2.83185e-10
1.21836e-10
7.24428e-11
3.18309e-11
6.5857e-12
1.97552
5.83535
9.42932
12.6051
15.2442
17.2693
18.6466
19.3835
19.5235
19.1371
18.3136
17.1509
15.7482
14.1989
12.586
10.9792
9.43331
7.98885
6.67259
5.49949
4.4747
3.59575
2.85462
2.23959
1.73686
1.33179
1.00988
0.757441
0.562003
0.412573
0.299703
0.215456
0.153301
0.107967
0.0752707
0.05195
0.0354973
0.0240148
0.0160863
0.0106696
0.00700764
0.00455765
0.00293543
0.00187229
0.00118266
0.000739844
0.000458375
0.000281262
0.000170927
0.000102878
6.1326e-05
3.62049e-05
2.1168e-05
1.22565e-05
7.02748e-06
3.9898e-06
2.24279e-06
1.24812e-06
6.87585e-07
3.74895e-07
2.02287e-07
1.0801e-07
5.70344e-08
2.97806e-08
1.53908e-08
7.86333e-09
3.98325e-09
2.0251e-09
9.96637e-10
4.90635e-10
2.18426e-10
1.13055e-10
5.70761e-11
1.75619e-11
2.08547e-11
1.4469
4.27587
6.91565
9.2571
11.2144
12.73
13.777
14.3579
14.5008
14.2542
13.6805
12.8497
11.8336
10.7006
9.51228
8.32108
7.1689
6.0871
5.09699
4.21104
3.43425
2.76575
2.20028
1.72965
1.34391
1.03232
0.784122
0.58905
0.437718
0.321789
0.234067
0.168481
0.120018
0.0846188
0.0590537
0.0407961
0.0279001
0.0188902
0.0126628
0.00840432
0.005523
0.00359386
0.00231565
0.0014775
0.000933534
0.000584111
0.000361936
0.000222098
0.000134971
8.12316e-05
4.84166e-05
2.85789e-05
1.67059e-05
9.67064e-06
5.54343e-06
3.1464e-06
1.7682e-06
9.83763e-07
5.41794e-07
2.95344e-07
1.59328e-07
8.50489e-08
4.49024e-08
2.34385e-08
1.21012e-08
6.19605e-09
3.15894e-09
1.57947e-09
7.89187e-10
3.88557e-10
2.0745e-10
1.08664e-10
2.19524e-11
1.09762e-11
-9.87856e-12
1.0537
3.11513
5.04227
6.75724
8.19814
9.32276
10.1102
10.5601
10.691
10.5358
10.1383
9.54803
8.81661
7.99379
7.12487
6.24879
5.39717
4.59396
3.85584
3.19289
2.60961
2.10603
1.67879
1.32222
1.02921
0.791948
0.602522
0.453329
0.337358
0.248353
0.180886
0.130361
0.0929703
0.0656195
0.0458405
0.0316974
0.0216962
0.0147011
0.00986164
0.0065493
0.0043063
0.00280345
0.00180707
0.00115334
0.000728884
0.000456126
0.000282648
0.000173441
0.000105392
6.34195e-05
3.77916e-05
2.2301e-05
1.30319e-05
7.54105e-06
4.32098e-06
2.45155e-06
1.37712e-06
7.65867e-07
4.21617e-07
2.29751e-07
1.23916e-07
6.61084e-08
3.489e-08
1.82117e-08
9.41097e-09
4.82074e-09
2.41586e-09
1.18104e-09
5.87225e-10
3.06235e-10
1.55862e-10
7.13451e-11
3.07333e-11
1.31714e-11
-8.78094e-12
0.7627
2.25562
3.65356
4.90116
5.95405
6.78149
7.36754
7.71085
7.82324
7.72726
7.45327
7.03634
6.51323
5.91985
5.28921
4.64998
4.02569
3.43445
2.88904
2.39746
1.96355
1.58779
1.2681
1.00059
0.780207
0.601343
0.458231
0.345285
0.25732
0.189686
0.138333
0.0998135
0.0712648
0.0503526
0.0352099
0.0243688
0.0166938
0.0113202
0.00759884
0.00504956
0.00332192
0.00216354
0.00139507
0.000890624
0.000562949
0.000352314
0.000218318
0.000133954
8.13831e-05
4.89595e-05
2.91652e-05
1.72037e-05
1.00486e-05
5.81182e-06
3.32833e-06
1.88729e-06
1.05952e-06
5.88876e-07
3.23986e-07
1.76438e-07
9.50998e-08
5.07231e-08
2.67621e-08
1.39738e-08
7.23879e-09
3.6869e-09
1.83522e-09
9.09925e-10
4.45633e-10
2.18426e-10
1.03176e-10
4.71976e-11
4.50023e-11
3.7319e-11
2.52452e-11
0.548554
1.6228
2.63014
3.53141
4.295
4.89871
5.33059
5.58894
5.68137
5.62317
5.43539
5.14262
4.77094
4.34604
3.89176
3.42903
2.97515
2.54363
2.14415
1.78292
1.46309
1.18534
0.948403
0.749635
0.585504
0.451998
0.344953
0.260305
0.194258
0.143387
0.104698
0.0756328
0.0540597
0.0382356
0.0267625
0.0185388
0.0127103
0.00862528
0.00579364
0.00385218
0.00253544
0.00165198
0.00106554
0.000680393
0.000430116
0.000269189
0.000166795
0.000102323
6.21499e-05
3.73757e-05
2.2255e-05
1.31208e-05
7.65935e-06
4.4271e-06
2.53358e-06
1.43555e-06
8.05319e-07
4.4724e-07
2.45863e-07
1.33794e-07
7.20333e-08
3.83925e-08
2.02521e-08
1.05733e-08
5.44638e-09
2.76819e-09
1.40605e-09
7.14549e-10
3.51238e-10
1.60252e-10
9.7688e-11
7.24428e-11
5.1588e-11
3.95142e-11
1.09762e-11
0.391917
1.15973
1.88063
2.52706
3.07664
3.51344
3.82868
4.02066
4.09425
4.05981
3.93184
3.7275
3.46516
3.16307
2.8383
2.50597
2.17869
1.86641
1.57637
1.31329
1.0797
0.876298
0.702346
0.556071
0.435015
0.336338
0.257061
0.194253
0.145159
0.107282
0.078429
0.056721
0.0405857
0.0287344
0.0201311
0.0139571
0.00957664
0.00650337
0.00437109
0.00290792
0.00191482
0.00124806
0.000805226
0.000514258
0.000325115
0.000203466
0.000126054
7.7311e-05
4.69414e-05
2.82169e-05
1.67924e-05
9.89403e-06
5.77158e-06
3.33333e-06
1.90602e-06
1.079e-06
6.04739e-07
3.35533e-07
1.84293e-07
1.00191e-07
5.38996e-08
2.86884e-08
1.51197e-08
7.85126e-09
4.03813e-09
2.06023e-09
1.03725e-09
5.32344e-10
2.84283e-10
1.37202e-10
6.47594e-11
5.48809e-11
2.41476e-11
2.19523e-12
3.29285e-12
0.278084
0.823085
1.33536
1.79562
2.18812
2.50155
2.72949
2.87047
2.92759
2.90782
2.82112
2.67939
2.49547
2.28224
2.05182
1.81502
1.58096
1.35688
1.14812
0.958224
0.789164
0.64158
0.515065
0.408441
0.320012
0.247785
0.189648
0.143504
0.107374
0.0794542
0.0581532
0.0421037
0.0301579
0.0213725
0.014987
0.0103993
0.00714091
0.00485262
0.00326355
0.00217223
0.00143099
0.000933011
0.000602099
0.000384579
0.000243135
0.000152147
9.42407e-05
5.7781e-05
3.50681e-05
2.10684e-05
1.25301e-05
7.37718e-06
4.29979e-06
2.48102e-06
1.41724e-06
8.01463e-07
4.48665e-07
2.48643e-07
1.36409e-07
7.40508e-08
3.98007e-08
2.11588e-08
1.11178e-08
5.76469e-09
2.97454e-09
1.51142e-09
7.49673e-10
3.72092e-10
1.89888e-10
8.45165e-11
3.18309e-11
-2.19524e-12
3.29285e-12
7.68332e-12
2.85381e-11
0.195919
0.580014
0.941403
1.26667
1.54482
1.76785
1.93116
2.03354
2.07694
2.06605
2.00765
1.90996
1.78191
1.63249
1.47025
1.30287
1.13685
0.977414
0.828451
0.69259
0.571334
0.465231
0.374072
0.297082
0.233102
0.180744
0.138524
0.104955
0.0786282
0.0582519
0.0426832
0.0309363
0.0221813
0.0157345
0.0110431
0.00766895
0.00526991
0.00358354
0.00241143
0.00160584
0.00105829
0.000690213
0.0004455
0.000284578
0.000179908
0.000112564
6.97043e-05
4.27206e-05
2.59146e-05
1.55593e-05
9.24675e-06
5.43944e-06
3.16734e-06
1.82568e-06
1.04169e-06
5.88371e-07
3.28955e-07
1.82044e-07
9.97185e-08
5.40599e-08
2.8998e-08
1.54062e-08
8.08286e-09
4.22144e-09
2.16011e-09
1.08225e-09
5.40028e-10
2.66721e-10
1.32812e-10
7.13451e-11
2.08547e-11
-1.97571e-11
-6.58571e-12
4.39047e-12
-1.09762e-12
0.137031
0.405755
0.658819
0.886949
1.0825
1.2399
1.35584
1.42939
1.46177
1.45611
1.41702
1.35012
1.26158
1.15765
1.04429
0.926917
0.810125
0.69764
0.592264
0.495917
0.409727
0.33414
0.269063
0.213992
0.168139
0.130548
0.100182
0.0759995
0.0570037
0.0422796
0.0310135
0.0225015
0.0161493
0.0114661
0.00805426
0.00559769
0.00384933
0.0026192
0.00176348
0.00117489
0.000774561
0.0005053
0.000326198
0.000208379
0.000131725
8.24011e-05
5.10096e-05
3.12487e-05
1.89447e-05
1.13665e-05
6.74937e-06
3.96653e-06
2.30722e-06
1.32832e-06
7.56952e-07
4.26963e-07
2.38374e-07
1.31712e-07
7.20322e-08
3.89764e-08
2.08613e-08
1.10673e-08
5.80859e-09
3.03381e-09
1.54105e-09
7.65039e-10
3.79776e-10
2.05254e-10
9.54927e-11
5.70761e-11
3.29285e-12
-2.19523e-12
-2.19523e-12
-1.53666e-11
-2.08547e-11
0.0951335
0.281743
0.457618
0.61639
0.752788
0.862937
0.944518
0.996805
1.02057
1.0179
0.99189
0.94638
0.88559
0.813832
0.735247
0.653594
0.572107
0.493415
0.419514
0.351789
0.29107
0.237712
0.191682
0.152655
0.120103
0.0933707
0.071741
0.0544886
0.0409162
0.0303809
0.0223087
0.016202
0.0116391
0.00827115
0.00581478
0.00404432
0.00278303
0.0018948
0.00127642
0.000850763
0.000561065
0.000366107
0.000236371
0.000150997
9.54406e-05
5.96886e-05
3.69358e-05
2.26155e-05
1.37019e-05
8.21445e-06
4.87323e-06
2.86093e-06
1.66216e-06
9.55708e-07
5.43871e-07
3.06314e-07
1.70745e-07
9.41745e-08
5.14124e-08
2.77653e-08
1.48255e-08
7.82821e-09
4.10728e-09
2.12499e-09
1.08115e-09
5.40028e-10
2.62331e-10
1.17445e-10
3.40261e-11
2.74404e-11
1.75619e-11
2.74404e-11
3.29285e-12
-1.09762e-12
-3.29285e-12
0.0655481
0.194155
0.315451
0.42509
0.519466
0.595908
0.652799
0.689598
0.706787
0.705741
0.688545
0.657791
0.616353
0.567182
0.513124
0.456778
0.400391
0.345804
0.294422
0.247234
0.20484
0.167514
0.135254
0.107854
0.0849617
0.0661311
0.0508714
0.0386817
0.0290785
0.0216139
0.0158872
0.0115493
0.0083043
0.00590635
0.00415558
0.00289241
0.00199167
0.00135681
0.000914456
0.000609756
0.00040225
0.000262531
0.000169514
0.000108285
6.84336e-05
4.27863e-05
2.64654e-05
1.61955e-05
9.8053e-06
5.87342e-06
3.48095e-06
2.04126e-06
1.18443e-06
6.80105e-07
3.86438e-07
2.17294e-07
1.20922e-07
6.6565e-08
3.62631e-08
1.95541e-08
1.04307e-08
5.49906e-09
2.86149e-09
1.46861e-09
7.55161e-10
3.63311e-10
1.82205e-10
6.5857e-11
2.19524e-11
1.31714e-11
2.08547e-11
2.19524e-12
-2.85381e-11
-1.31714e-11
7.68332e-12
0.0448174
0.132768
0.215774
0.290889
0.355662
0.408268
0.447589
0.473233
0.485496
0.485282
0.473984
0.453343
0.4253
0.39186
0.354965
0.316396
0.277701
0.240154
0.204737
0.172145
0.142809
0.116933
0.0945307
0.075472
0.059523
0.0463839
0.0357207
0.0271908
0.0204618
0.0152245
0.0112015
0.00815055
0.00586561
0.00417529
0.00293989
0.00204769
0.00141091
0.000961701
0.000648473
0.000432566
0.000285442
0.00018633
0.00012032
7.68563e-05
4.85625e-05
3.03528e-05
1.87661e-05
1.1477e-05
6.94337e-06
4.15535e-06
2.46013e-06
1.44095e-06
8.34988e-07
4.78732e-07
2.71565e-07
1.52452e-07
8.46845e-08
4.65533e-08
2.53165e-08
1.36346e-08
7.26403e-09
3.82959e-09
1.9823e-09
9.88953e-10
4.98318e-10
2.35988e-10
1.13055e-10
6.47594e-11
4.39047e-11
-4.39047e-12
-3.29285e-12
-2.08547e-11
-2.96357e-11
-2.41476e-11
-1.09762e-11
0.030405
0.0900841
0.146441
0.197493
0.241586
0.277485
0.304423
0.322119
0.330755
0.330924
0.323548
0.309789
0.29095
0.268382
0.243399
0.217211
0.190877
0.165269
0.141066
0.118753
0.0986336
0.080857
0.065442
0.0523075
0.0412997
0.0322182
0.0248379
0.0189262
0.0142567
0.0106178
0.00781935
0.00569463
0.00410163
0.00292195
0.00205891
0.00143504
0.000989381
0.000674744
0.000455186
0.000303745
0.000200489
0.000130896
8.45287e-05
5.399e-05
3.41073e-05
2.13107e-05
1.31693e-05
8.04898e-06
4.86564e-06
2.90917e-06
1.72046e-06
1.00644e-06
5.82385e-07
3.33356e-07
1.88799e-07
1.05784e-07
5.86391e-08
3.21887e-08
1.74982e-08
9.41317e-09
5.01611e-09
2.64306e-09
1.37531e-09
6.87109e-10
3.46847e-10
1.81107e-10
8.34189e-11
5.26856e-11
2.74404e-11
1.86595e-11
-3.29285e-12
0
3.29285e-12
4.39047e-12
-2.74404e-11
0.0204651
0.060641
0.0986003
0.133019
0.162789
0.18708
0.205372
0.217466
0.223475
0.223782
0.218997
0.209889
0.197326
0.182212
0.165429
0.147793
0.13002
0.112703
0.0963062
0.0811634
0.0674875
0.0553851
0.0448749
0.0359065
0.0283799
0.0221621
0.0171025
0.0130446
0.0098355
0.00733183
0.00540419
0.00393906
0.00283944
0.00202432
0.00142742
0.000995547
0.000686778
0.000468615
0.000316269
0.00021112
0.000139387
9.10168e-05
5.87779e-05
3.75392e-05
2.37095e-05
1.48087e-05
9.14668e-06
5.58673e-06
3.37444e-06
2.01563e-06
1.19068e-06
6.95618e-07
4.01945e-07
2.29706e-07
1.29868e-07
7.25986e-08
4.01607e-08
2.2005e-08
1.19366e-08
6.39801e-09
3.4081e-09
1.78692e-09
9.24194e-10
4.73073e-10
2.51354e-10
1.383e-10
6.80523e-11
3.51238e-11
8.78094e-12
2.305e-11
2.85381e-11
2.85381e-11
2.19524e-12
6.5857e-12
-9.87856e-12
0.0136651
0.040496
0.0658586
0.088875
0.108809
0.125106
0.137417
0.145605
0.149736
0.15006
0.146974
0.140987
0.132672
0.122629
0.111444
0.0996643
0.0877686
0.0761576
0.0651452
0.0549588
0.0457454
0.0375803
0.0304796
0.0244124
0.0193141
0.015097
0.0116613
0.00890266
0.00671852
0.00501265
0.00369785
0.0026975
0.00194597
0.00138835
0.000979643
0.000683677
0.000471902
0.000322157
0.000217516
0.000145248
9.59197e-05
6.26423e-05
4.04549e-05
2.58345e-05
1.63132e-05
1.01853e-05
6.28777e-06
3.83798e-06
2.31626e-06
1.38218e-06
8.15552e-07
4.75844e-07
2.74565e-07
1.56677e-07
8.84098e-08
4.935e-08
2.72571e-08
1.49002e-08
8.04444e-09
4.29937e-09
2.27756e-09
1.1986e-09
6.28935e-10
3.3148e-10
1.47081e-10
8.45165e-11
6.25642e-11
1.86595e-11
6.5857e-12
1.09762e-12
1.20738e-11
2.305e-11
5.48809e-12
-1.53666e-11
8.78094e-12
0.00905133
0.0268257
0.0436346
0.0589002
0.0721371
0.0829783
0.0911908
0.0966808
0.0994889
0.0997751
0.0977984
0.0938904
0.0884279
0.0818057
0.0744118
0.0666077
0.0587126
0.0509937
0.0436615
0.0368695
0.0307177
0.0252587
0.0205053
0.0164387
0.0130175
0.0101843
0.00787359
0.00601616
0.00454401
0.00339304
0.00250505
0.00182878
0.00132025
0.000942588
0.000665539
0.000464749
0.000320965
0.000219221
0.000148076
9.89108e-05
6.53345e-05
4.26736e-05
2.75595e-05
1.75978e-05
1.11095e-05
6.9338e-06
4.27827e-06
2.60964e-06
1.57367e-06
9.38118e-07
5.52903e-07
3.22175e-07
1.85615e-07
1.05733e-07
5.95403e-08
3.31865e-08
1.83017e-08
9.98283e-09
5.3893e-09
2.87576e-09
1.51581e-09
7.99066e-10
4.25876e-10
2.26109e-10
9.87856e-11
4.60999e-11
3.7319e-11
2.305e-11
2.52452e-11
6.58571e-12
-1.4269e-11
-7.68332e-12
-3.29285e-12
-1.97571e-11
1.4269e-11
0.0059467
0.0176259
0.0286749
0.0387164
0.0474325
0.0545826
0.0600126
0.0636592
0.0655467
0.0657775
0.0645188
0.0619859
0.0584243
0.054092
0.0492433
0.0441158
0.0389198
0.0338322
0.0289927
0.0245039
0.0204331
0.0168163
0.0136634
0.010963
0.0086887
0.00680334
0.00526401
0.00402543
0.00304281
0.00227384
0.00168002
0.00122737
0.00088669
0.00063347
0.000447558
0.000312714
0.00021608
0.000147653
9.97736e-05
6.66673e-05
4.40464e-05
2.87729e-05
1.85825e-05
1.18644e-05
7.48838e-06
4.67202e-06
2.88123e-06
1.75632e-06
1.05822e-06
6.30238e-07
3.70997e-07
2.15891e-07
1.24175e-07
7.06042e-08
3.968e-08
2.20456e-08
1.21364e-08
6.61424e-09
3.57165e-09
1.90327e-09
9.90051e-10
4.99416e-10
2.64526e-10
1.29519e-10
7.35404e-11
1.53666e-11
3.29285e-12
2.19523e-11
3.51238e-11
2.96357e-11
9.87856e-12
-1.09762e-11
1.09762e-12
7.68332e-12
-1.09762e-12
0.00387503
0.0114863
0.0186895
0.0252397
0.0309307
0.0356058
0.0391642
0.0415636
0.0428184
0.0429938
0.0421971
0.040567
0.0382624
0.0354504
0.0322965
0.0289554
0.0255646
0.0222401
0.0190737
0.0161333
0.0134637
0.0110892
0.00901713
0.00724067
0.00574297
0.00450024
0.00348464
0.00266672
0.00201724
0.00150853
0.00111536
0.000815403
0.000589463
0.000421391
0.000297899
0.000208261
0.000143978
9.84284e-05
6.65367e-05
4.44727e-05
2.93893e-05
1.92007e-05
1.24008e-05
7.91684e-06
4.99573e-06
3.11574e-06
1.92055e-06
1.16997e-06
7.04347e-07
4.1908e-07
2.46395e-07
1.4318e-07
8.22357e-08
4.66784e-08
2.61979e-08
1.45368e-08
7.98407e-09
4.35315e-09
2.34122e-09
1.24909e-09
6.45399e-10
3.30383e-10
1.69033e-10
6.69547e-11
1.86595e-11
-1.75619e-11
-1.31714e-11
3.29285e-12
9.87856e-12
1.20738e-11
2.08547e-11
-7.68332e-12
1.53666e-11
2.85381e-11
7.68332e-12
0.00250426
0.0074236
0.0120805
0.0163176
0.020002
0.0230323
0.0253434
0.0269073
0.0277325
0.0278602
0.0273588
0.0263171
0.0248371
0.0230263
0.0209915
0.0188325
0.0166385
0.0144848
0.0124312
0.0105222
0.00878726
0.00724266
0.00589346
0.00473571
0.00375877
0.00294744
0.00228385
0.00174897
0.0013239
0.000990702
0.00073297
0.000536195
0.000387862
0.000277438
0.000196244
0.000137267
9.49442e-05
6.49356e-05
4.39124e-05
2.93597e-05
1.94064e-05
1.26804e-05
8.18991e-06
5.22814e-06