/*--------------------------------*- C++ -*----------------------------------*\
  =========                 |
  \\      /  F ield         | OpenFOAM: The Open Source CFD Toolbox
   \\    /   O peration     | Website:  https://openfoam.org
    \\  /    A nd           | Version:  10
     \\/     M anipulation  |
\*---------------------------------------------------------------------------*/
FoamFile
{
    format      ascii;
    class       volScalarField;
    location    "448";
    object      T;
}
// * * * * * * * * * * * * * * * * * * * * * * * * * * * * * * * * * * * * * //

dimensions      [0 0 0 1 0 0 0];

internalField   nonuniform List<scalar> 
11250
(
249.881
167.673
139.552
127.21
120.504
116.271
113.323
111.133
109.43
108.062
106.937
105.995
105.195
104.508
103.915
103.399
102.949
102.555
102.211
101.909
101.644
101.412
101.21
101.034
100.88
100.747
100.632
100.533
100.448
100.375
100.312
100.259
100.215
100.177
100.145
100.119
100.097
100.078
100.063
100.051
100.041
100.032
100.026
100.02
100.016
100.013
100.01
100.008
100.006
100.005
100.003
100.003
100.002
100.002
100.001
100.001
100.001
100
100
100
100
100
100
100
100
100
100
100
100
100
100
100
100
100
100
331.616
248.936
202.884
176
159.05
147.54
139.226
132.925
127.971
123.962
120.648
117.862
115.491
113.453
111.688
110.152
108.811
107.637
106.608
105.706
104.916
104.224
103.62
103.093
102.634
102.236
101.892
101.595
101.34
101.121
100.935
100.777
100.643
100.53
100.435
100.355
100.289
100.235
100.189
100.152
100.122
100.097
100.077
100.061
100.048
100.038
100.029
100.023
100.018
100.014
100.01
100.008
100.006
100.005
100.003
100.003
100.002
100.001
100.001
100.001
100.001
100
100
100
100
100
100
100
100
100
100
100
100
100
100
359.268
293.582
247.065
214.879
192.187
175.647
163.158
153.419
145.615
139.221
133.887
129.374
125.514
122.183
119.292
116.77
114.564
112.631
110.934
109.445
108.14
106.997
105.997
105.125
104.366
103.707
103.137
102.645
102.222
101.86
101.551
101.288
101.066
100.879
100.721
100.59
100.48
100.389
100.314
100.253
100.202
100.161
100.128
100.101
100.08
100.062
100.049
100.038
100.029
100.023
100.017
100.013
100.01
100.008
100.006
100.004
100.003
100.002
100.002
100.001
100.001
100.001
100.001
100
100
100
100
100
100
100
100
100
100
100
100
371.147
319.077
276.943
244.304
219.223
199.764
184.407
172.053
161.933
153.508
146.398
140.331
135.106
130.576
126.628
123.173
120.144
117.483
115.145
113.09
111.287
109.705
108.322
107.114
106.062
105.148
104.357
103.675
103.088
102.585
102.156
101.791
101.482
101.222
101.003
100.82
100.668
100.542
100.437
100.352
100.282
100.225
100.178
100.141
100.111
100.087
100.068
100.053
100.041
100.031
100.024
100.018
100.014
100.011
100.008
100.006
100.004
100.003
100.002
100.002
100.001
100.001
100.001
100.001
100
100
100
100
100
100
100
100
100
100
100
377.396
334.662
297.367
266.225
240.706
219.863
202.748
188.561
176.672
166.605
157.998
150.579
144.142
138.527
133.609
129.291
125.492
122.146
119.201
116.608
114.329
112.328
110.575
109.044
107.709
106.549
105.545
104.678
103.932
103.292
102.746
102.282
101.889
101.557
101.279
101.046
100.851
100.691
100.558
100.449
100.359
100.286
100.227
100.18
100.142
100.111
100.087
100.067
100.052
100.04
100.031
100.023
100.018
100.013
100.01
100.008
100.006
100.004
100.003
100.002
100.002
100.001
100.001
100.001
100
100
100
100
100
100
100
100
100
100
100
381.184
344.837
311.689
282.594
257.603
236.341
218.284
202.905
189.739
178.399
168.576
160.019
152.533
145.959
140.172
135.067
130.561
126.581
123.068
119.97
117.242
114.844
112.741
110.902
109.297
107.901
106.692
105.647
104.748
103.976
103.318
102.758
102.283
101.882
101.546
101.264
101.03
100.835
100.675
100.543
100.435
100.347
100.275
100.218
100.171
100.134
100.105
100.081
100.063
100.049
100.037
100.028
100.022
100.016
100.012
100.009
100.007
100.005
100.004
100.003
100.002
100.001
100.001
100.001
100.001
100
100
100
100
100
100
100
100
100
100
383.698
351.852
322.021
294.946
270.879
249.744
231.29
215.201
201.158
188.87
178.088
168.598
160.225
152.822
146.268
140.461
135.314
130.755
126.721
123.154
120.008
117.238
114.805
112.675
110.814
109.195
107.791
106.577
105.531
104.634
103.868
103.215
102.662
102.196
101.804
101.475
101.202
100.975
100.788
100.634
100.507
100.405
100.321
100.254
100.2
100.157
100.122
100.095
100.074
100.057
100.043
100.033
100.025
100.019
100.014
100.011
100.008
100.006
100.004
100.003
100.002
100.002
100.001
100.001
100.001
100
100
100
100
100
100
100
100
100
100
385.468
356.895
329.671
304.389
281.349
260.617
242.105
225.644
211.031
198.062
186.544
176.306
167.198
159.091
151.872
145.446
139.729
134.648
130.138
126.143
122.611
119.496
116.756
114.354
112.254
110.424
108.836
107.462
106.278
105.262
104.393
103.653
103.025
102.496
102.05
101.678
101.367
101.109
100.896
100.721
100.577
100.461
100.366
100.289
100.228
100.179
100.139
100.108
100.084
100.065
100.05
100.038
100.029
100.022
100.016
100.012
100.009
100.007
100.005
100.004
100.003
100.002
100.001
100.001
100.001
100.001
100
100
100
100
100
100
100
100
100
386.767
360.638
335.462
311.705
289.656
269.441
251.067
234.459
219.501
206.057
193.989
183.163
173.457
164.76
156.974
150.011
143.791
138.244
133.308
128.924
125.04
121.609
118.586
115.932
113.609
111.584
109.823
108.299
106.985
105.856
104.891
104.068
103.37
102.781
102.285
101.87
101.524
101.237
100.999
100.804
100.644
100.514
100.408
100.323
100.254
100.199
100.156
100.121
100.094
100.072
100.055
100.042
100.032
100.024
100.018
100.014
100.01
100.008
100.006
100.004
100.003
100.002
100.002
100.001
100.001
100.001
100
100
100
100
100
100
100
100
100
387.747
363.485
339.927
317.442
296.29
276.619
258.483
241.871
226.726
212.965
200.493
189.212
179.026
169.843
161.579
154.154
147.496
141.54
136.223
131.491
127.289
123.57
120.289
117.404
114.876
112.669
110.749
109.086
107.65
106.416
105.36
104.46
103.696
103.051
102.507
102.052
101.673
101.358
101.097
100.883
100.708
100.565
100.449
100.355
100.279
100.219
100.171
100.133
100.103
100.079
100.061
100.046
100.035
100.027
100.02
100.015
100.011
100.008
100.006
100.005
100.003
100.002
100.002
100.001
100.001
100.001
100
100
100
100
100
100
100
100
100
388.502
365.691
343.42
321.989
301.623
282.473
264.619
248.088
232.862
218.899
206.139
194.512
183.945
174.366
165.701
157.885
150.85
144.536
138.885
133.842
129.355
125.377
121.862
118.767
116.051
113.677
111.611
109.819
108.271
106.94
105.8
104.827
104.002
103.304
102.716
102.224
101.813
101.472
101.19
100.958
100.768
100.613
100.487
100.385
100.303
100.238
100.186
100.144
100.112
100.086
100.066
100.05
100.038
100.029
100.022
100.016
100.012
100.009
100.007
100.005
100.004
100.003
100.002
100.001
100.001
100.001
100.001
100
100
100
100
100
100
100
100
389.093
367.425
346.186
325.623
305.933
287.261
269.699
253.294
238.058
223.976
211.014
199.127
188.262
178.361
169.367
161.22
153.862
147.239
141.296
135.979
131.24
127.031
123.305
120.019
117.133
114.608
112.408
110.498
108.847
107.426
106.208
105.169
104.287
103.54
102.911
102.384
101.944
101.579
101.276
101.028
100.824
100.657
100.522
100.413
100.326
100.255
100.199
100.155
100.12
100.092
100.071
100.054
100.041
100.031
100.023
100.018
100.013
100.01
100.007
100.005
100.004
100.003
100.002
100.002
100.001
100.001
100.001
100
100
100
100
100
100
100
100
389.561
368.804
348.397
328.549
309.435
291.189
273.907
257.649
242.446
228.302
215.204
203.124
192.027
181.869
172.604
164.181
156.551
149.662
143.465
137.909
132.948
128.533
124.619
121.163
118.124
115.462
113.14
111.123
109.378
107.875
106.586
105.486
104.55
103.759
103.092
102.533
102.066
101.678
101.357
101.093
100.876
100.699
100.556
100.44
100.347
100.272
100.212
100.165
100.128
100.098
100.076
100.058
100.044
100.033
100.025
100.019
100.014
100.01
100.008
100.006
100.004
100.003
100.002
100.002
100.001
100.001
100.001
100
100
100
100
100
100
100
100
389.936
369.909
350.177
330.92
312.291
294.418
277.395
261.291
246.145
231.978
218.79
206.571
195.295
184.932
175.446
166.794
158.934
151.819
145.403
139.64
134.484
129.888
125.808
122.201
119.025
116.24
113.808
111.694
109.864
108.286
106.933
105.776
104.793
103.96
103.259
102.67
102.178
101.77
101.431
101.153
100.924
100.738
100.587
100.464
100.366
100.287
100.224
100.174
100.135
100.104
100.08
100.061
100.046
100.035
100.026
100.02
100.015
100.011
100.008
100.006
100.004
100.003
100.002
100.002
100.001
100.001
100.001
100
100
100
100
100
100
100
100
390.238
370.801
351.619
332.848
314.629
297.078
280.289
264.333
249.258
235.093
221.85
209.53
198.118
187.593
177.928
169.087
161.034
153.728
147.125
141.183
135.858
131.103
126.877
123.136
119.838
116.943
114.414
112.213
110.306
108.661
107.249
106.042
105.015
104.145
103.412
102.796
102.282
101.854
101.5
101.208
100.969
100.774
100.615
100.487
100.384
100.301
100.235
100.183
100.142
100.109
100.084
100.064
100.049
100.037
100.028
100.021
100.016
100.012
100.009
100.006
100.005
100.003
100.002
100.002
100.001
100.001
100.001
100
100
100
100
100
100
100
100
390.483
371.525
352.791
334.423
316.547
299.273
282.691
266.873
251.873
237.726
224.453
212.061
200.545
189.894
180.084
171.088
162.875
155.407
148.646
142.55
137.078
132.186
127.832
123.973
120.568
117.577
114.96
112.681
110.706
109.001
107.536
106.284
105.217
104.313
103.551
102.911
102.376
101.931
101.563
101.259
101.01
100.807
100.641
100.508
100.4
100.314
100.245
100.191
100.148
100.114
100.087
100.067
100.051
100.038
100.029
100.022
100.016
100.012
100.009
100.007
100.005
100.004
100.003
100.002
100.001
100.001
100.001
100
100
100
100
100
100
100
100
390.682
372.114
353.748
335.713
318.124
301.085
284.684
268.993
254.067
239.947
226.659
214.218
202.625
191.874
181.948
172.826
164.479
156.876
149.981
143.755
138.157
133.146
128.681
124.719
121.22
118.143
115.449
113.102
111.065
109.307
107.795
106.501
105.4
104.466
103.677
103.015
102.462
102.001
101.62
101.305
101.047
100.837
100.665
100.527
100.415
100.326
100.255
100.198
100.153
100.118
100.091
100.069
100.053
100.04
100.03
100.023
100.017
100.013
100.009
100.007
100.005
100.004
100.003
100.002
100.001
100.001
100.001
100.001
100
100
100
100
100
100
100
390.844
372.595
354.532
336.771
319.422
302.582
286.338
270.759
255.904
241.816
228.525
216.051
204.4
193.571
183.552
174.327
165.871
158.155
151.147
144.809
139.104
133.991
129.43
125.379
121.798
118.646
115.885
113.477
111.387
109.58
108.027
106.697
105.564
104.602
103.791
103.109
102.539
102.064
101.671
101.347
101.081
100.864
100.687
100.544
100.429
100.337
100.263
100.205
100.159
100.122
100.094
100.072
100.055
100.041
100.031
100.023
100.017
100.013
100.01
100.007
100.005
100.004
100.003
100.002
100.001
100.001
100.001
100.001
100
100
100
100
100
100
100
390.977
372.989
355.173
337.64
320.491
303.82
287.709
272.23
257.44
243.385
230.099
217.603
205.909
195.02
184.927
175.619
167.073
159.263
152.16
145.728
139.932
134.732
130.088
125.96
122.308
119.091
116.271
113.81
111.672
109.824
108.234
106.871
105.71
104.725
103.893
103.193
102.608
102.121
101.718
101.385
101.111
100.888
100.706
100.56
100.441
100.346
100.271
100.211
100.163
100.126
100.097
100.074
100.056
100.043
100.032
100.024
100.018
100.013
100.01
100.007
100.005
100.004
100.003
100.002
100.001
100.001
100.001
100.001
100
100
100
100
100
100
100
391.086
373.312
355.7
338.354
321.371
304.842
288.846
273.454
258.723
244.7
231.422
218.913
207.188
196.252
186.101
176.725
168.105
160.218
153.035
146.525
140.652
135.377
130.663
126.469
122.755
119.482
116.61
114.103
111.924
110.039
108.417
107.026
105.84
104.834
103.984
103.269
102.67
102.172
101.759
101.418
101.138
100.91
100.724
100.573
100.452
100.355
100.278
100.216
100.167
100.129
100.099
100.076
100.058
100.044
100.033
100.025
100.018
100.014
100.01
100.007
100.006
100.004
100.003
100.002
100.002
100.001
100.001
100.001
100
100
100
100
100
100
100
391.175
373.576
356.132
338.94
322.096
305.686
289.787
274.469
259.791
245.799
232.532
220.016
208.268
197.296
187.099
177.668
168.988
161.037
153.789
147.212
141.274
135.937
131.162
126.912
123.145
119.824
116.908
114.361
112.146
110.229
108.578
107.163
105.955
104.93
104.064
103.335
102.725
102.217
101.796
101.448
101.163
100.929
100.74
100.586
100.462
100.363
100.284
100.221
100.171
100.132
100.101
100.077
100.059
100.045
100.034
100.025
100.019
100.014
100.01
100.008
100.006
100.004
100.003
100.002
100.002
100.001
100.001
100.001
100
100
100
100
100
100
100
391.248
373.793
356.486
339.422
322.693
306.382
290.565
275.312
260.679
246.716
233.46
220.941
209.177
198.177
187.943
178.469
169.74
161.736
154.434
147.802
141.809
136.419
131.594
127.295
123.484
120.121
117.167
114.585
112.339
110.395
108.719
107.283
106.056
105.015
104.134
103.394
102.774
102.257
101.828
101.475
101.184
100.947
100.753
100.597
100.471
100.37
100.289
100.225
100.174
100.134
100.103
100.079
100.06
100.046
100.034
100.026
100.019
100.014
100.011
100.008
100.006
100.004
100.003
100.002
100.002
100.001
100.001
100.001
100
100
100
100
100
100
100
391.307
373.97
356.777
339.818
323.184
306.955
291.208
276.008
261.416
247.478
234.234
221.715
209.939
198.918
188.656
179.146
170.377
162.331
154.983
148.306
142.268
136.833
131.965
127.626
123.776
120.378
117.391
114.78
112.507
110.539
108.843
107.387
106.145
105.089
104.196
103.445
102.816
102.292
101.857
101.498
101.203
100.962
100.766
100.607
100.479
100.376
100.294
100.229
100.177
100.137
100.105
100.08
100.061
100.046
100.035
100.026
100.02
100.015
100.011
100.008
100.006
100.004
100.003
100.002
100.002
100.001
100.001
100.001
100
100
100
100
100
100
100
391.356
374.116
357.015
340.143
323.587
307.427
291.737
276.584
262.025
248.11
234.878
222.36
210.576
199.54
189.254
179.717
170.916
162.834
155.45
148.735
142.659
137.187
132.283
127.909
124.027
120.599
117.585
114.948
112.653
110.664
108.949
107.478
106.221
105.153
104.25
103.49
102.853
102.322
101.882
101.518
101.219
100.975
100.776
100.615
100.485
100.381
100.298
100.232
100.18
100.139
100.107
100.081
100.062
100.047
100.035
100.027
100.02
100.015
100.011
100.008
100.006
100.004
100.003
100.002
100.002
100.001
100.001
100.001
100
100
100
100
100
100
100
391.396
374.235
357.209
340.409
323.917
307.814
292.173
277.058
262.529
248.634
235.412
222.896
211.107
200.059
189.756
180.196
171.369
163.259
155.844
149.098
142.99
137.487
132.553
128.151
124.242
120.788
117.751
115.093
112.778
110.772
109.041
107.556
106.288
105.209
104.297
103.529
102.885
102.349
101.904
101.536
101.234
100.987
100.786
100.623
100.491
100.386
100.302
100.235
100.182
100.14
100.108
100.083
100.063
100.048
100.036
100.027
100.02
100.015
100.011
100.008
100.006
100.004
100.003
100.002
100.002
100.001
100.001
100.001
100
100
100
100
100
100
100
391.429
374.332
357.368
340.626
324.188
308.131
292.53
277.448
262.944
249.065
235.854
223.34
211.548
200.49
190.174
180.596
171.748
163.615
156.175
149.403
143.27
137.741
132.782
128.356
124.424
120.949
117.892
115.216
112.885
110.864
109.12
107.624
106.345
105.257
104.337
103.562
102.913
102.372
101.922
101.551
101.246
100.997
100.794
100.629
100.496
100.39
100.305
100.237
100.184
100.142
100.109
100.083
100.063
100.048
100.036
100.027
100.02
100.015
100.011
100.008
100.006
100.004
100.003
100.002
100.002
100.001
100.001
100.001
100
100
100
100
100
100
100
391.456
374.411
357.498
340.803
324.409
308.391
292.823
277.768
263.284
249.421
236.218
223.707
211.913
200.848
190.521
180.929
172.064
163.912
156.453
149.66
143.505
137.955
132.976
128.529
124.579
121.086
118.012
115.321
112.976
110.943
109.188
107.681
106.393
105.298
104.372
103.591
102.937
102.392
101.939
101.565
101.257
101.005
100.801
100.635
100.501
100.394
100.308
100.24
100.186
100.143
100.11
100.084
100.064
100.049
100.037
100.028
100.021
100.015
100.011
100.008
100.006
100.004
100.003
100.002
100.002
100.001
100.001
100.001
100
100
100
100
100
100
100
391.477
374.475
357.604
340.948
324.589
308.603
293.062
278.029
263.563
249.712
236.517
224.01
212.214
201.144
190.808
181.205
172.327
164.16
156.684
149.874
143.702
138.135
133.138
128.675
124.709
121.201
118.114
115.41
113.053
111.009
109.245
107.73
106.435
105.333
104.401
103.616
102.958
102.408
101.952
101.576
101.266
101.013
100.807
100.64
100.505
100.397
100.31
100.242
100.187
100.144
100.111
100.085
100.065
100.049
100.037
100.028
100.021
100.015
100.011
100.008
100.006
100.005
100.003
100.002
100.002
100.001
100.001
100.001
100
100
100
100
100
100
100
391.495
374.527
357.69
341.065
324.735
308.775
293.256
278.243
263.791
249.951
236.762
224.258
212.461
201.388
191.045
181.433
172.545
164.365
156.876
150.052
143.866
138.284
133.274
128.797
124.818
121.298
118.199
115.484
113.118
111.065
109.293
107.771
106.47
105.363
104.426
103.637
102.975
102.423
101.964
101.586
101.274
101.019
100.812
100.644
100.508
100.399
100.312
100.243
100.188
100.145
100.112
100.085
100.065
100.049
100.037
100.028
100.021
100.016
100.012
100.008
100.006
100.005
100.003
100.002
100.002
100.001
100.001
100.001
100
100
100
100
100
100
100
391.509
374.57
357.759
341.16
324.854
308.915
293.415
278.416
263.977
250.145
236.962
224.46
212.663
201.587
191.24
181.621
172.724
164.535
157.035
150.2
144.002
138.409
133.386
128.899
124.909
121.378
118.27
115.547
113.173
111.113
109.334
107.806
106.5
105.388
104.447
103.654
102.99
102.435
101.974
101.594
101.281
101.025
100.816
100.647
100.511
100.401
100.314
100.245
100.19
100.146
100.112
100.086
100.065
100.05
100.037
100.028
100.021
100.016
100.012
100.009
100.006
100.005
100.003
100.002
100.002
100.001
100.001
100.001
100
100
100
100
100
100
100
391.52
374.604
357.815
341.237
324.95
309.028
293.543
278.557
264.128
250.303
237.125
224.626
212.829
201.751
191.399
181.775
172.871
164.674
157.166
150.322
144.114
138.511
133.48
128.983
124.984
121.446
118.33
115.599
113.218
111.152
109.368
107.835
106.525
105.409
104.465
103.669
103.002
102.445
101.983
101.601
101.286
101.029
100.82
100.65
100.513
100.403
100.315
100.246
100.19
100.147
100.113
100.086
100.066
100.05
100.038
100.028
100.021
100.016
100.012
100.009
100.006
100.005
100.003
100.002
100.002
100.001
100.001
100.001
100
100
100
100
100
100
100
391.53
374.631
357.86
341.299
325.027
309.12
293.646
278.671
264.25
250.431
237.257
224.76
212.963
201.884
191.529
181.901
172.991
164.788
157.273
150.421
144.206
138.596
133.557
129.053
125.047
121.501
118.379
115.642
113.256
111.185
109.396
107.859
106.545
105.427
104.48
103.682
103.012
102.454
101.99
101.606
101.291
101.033
100.823
100.653
100.515
100.405
100.317
100.247
100.191
100.148
100.113
100.087
100.066
100.05
100.038
100.028
100.021
100.016
100.012
100.009
100.006
100.005
100.003
100.002
100.002
100.001
100.001
100.001
100
100
100
100
100
100
100
391.537
374.654
357.897
341.349
325.09
309.193
293.73
278.763
264.348
250.535
237.364
224.868
213.072
201.992
191.635
182.003
173.089
164.881
157.36
150.503
144.282
138.665
133.62
129.11
125.098
121.547
118.419
115.678
113.287
111.212
109.42
107.88
106.562
105.441
104.492
103.692
103.021
102.461
101.996
101.611
101.295
101.036
100.825
100.655
100.517
100.406
100.318
100.248
100.192
100.148
100.114
100.087
100.066
100.05
100.038
100.028
100.021
100.016
100.012
100.009
100.006
100.005
100.003
100.002
100.002
100.001
100.001
100.001
100
100
100
100
100
100
100
391.543
374.671
357.926
341.389
325.14
309.252
293.797
278.836
264.427
250.618
237.45
224.956
213.16
202.079
191.72
182.086
173.169
164.957
157.432
150.57
144.343
138.722
133.672
129.157
125.14
121.585
118.453
115.707
113.313
111.234
109.439
107.896
106.577
105.453
104.502
103.7
103.028
102.467
102.001
101.615
101.298
101.039
100.828
100.656
100.518
100.407
100.319
100.248
100.192
100.149
100.114
100.087
100.066
100.05
100.038
100.029
100.021
100.016
100.012
100.009
100.006
100.005
100.003
100.002
100.002
100.001
100.001
100.001
100
100
100
100
100
100
100
391.548
374.685
357.949
341.421
325.179
309.3
293.85
278.895
264.49
250.685
237.519
225.026
213.231
202.149
191.789
182.153
173.233
165.018
157.489
150.623
144.393
138.768
133.714
129.195
125.174
121.615
118.48
115.731
113.334
111.253
109.455
107.91
106.588
105.463
104.51
103.707
103.034
102.472
102.005
101.619
101.301
101.041
100.829
100.658
100.519
100.408
100.319
100.249
100.193
100.149
100.114
100.088
100.067
100.051
100.038
100.029
100.021
100.016
100.012
100.009
100.006
100.005
100.003
100.002
100.002
100.001
100.001
100.001
100
100
100
100
100
100
100
391.552
374.697
357.968
341.446
325.211
309.337
293.893
278.942
264.541
250.738
237.574
225.083
213.287
202.205
191.844
182.206
173.285
165.067
157.536
150.667
144.434
138.805
133.748
129.226
125.202
121.64
118.502
115.751
113.351
111.268
109.468
107.921
106.598
105.471
104.517
103.713
103.039
102.476
102.008
101.621
101.303
101.043
100.831
100.659
100.52
100.409
100.32
100.249
100.193
100.149
100.115
100.088
100.067
100.051
100.038
100.029
100.021
100.016
100.012
100.009
100.006
100.005
100.003
100.002
100.002
100.001
100.001
100.001
100
100
100
100
100
100
100
391.554
374.706
357.982
341.466
325.237
309.367
293.927
278.98
264.581
250.781
237.618
225.128
213.333
202.25
191.889
182.249
173.326
165.107
157.573
150.702
144.466
138.835
133.775
129.25
125.225
121.66
118.52
115.767
113.365
111.28
109.478
107.93
106.605
105.478
104.523
103.718
103.043
102.479
102.011
101.624
101.305
101.044
100.832
100.66
100.521
100.41
100.32
100.25
100.194
100.149
100.115
100.088
100.067
100.051
100.038
100.029
100.021
100.016
100.012
100.009
100.006
100.005
100.003
100.002
100.002
100.001
100.001
100.001
100
100
100
100
100
100
100
391.557
374.713
357.994
341.482
325.257
309.391
293.954
279.009
264.613
250.814
237.653
225.163
213.369
202.286
191.924
182.284
173.359
165.138
157.603
150.73
144.492
138.859
133.797
129.27
125.243
121.676
118.534
115.779
113.376
111.289
109.487
107.937
106.612
105.483
104.527
103.722
103.046
102.482
102.013
101.625
101.307
101.046
100.833
100.661
100.522
100.41
100.321
100.25
100.194
100.15
100.115
100.088
100.067
100.051
100.038
100.029
100.022
100.016
100.012
100.009
100.006
100.005
100.003
100.002
100.002
100.001
100.001
100.001
100
100
100
100
100
100
100
391.559
374.718
358.003
341.495
325.272
309.409
293.975
279.033
264.639
250.841
237.681
225.192
213.397
202.314
191.952
182.311
173.385
165.163
157.627
150.752
144.513
138.878
133.815
129.286
125.257
121.689
118.546
115.79
113.385
111.297
109.494
107.943
106.617
105.488
104.531
103.725
103.048
102.484
102.015
101.627
101.308
101.047
100.834
100.661
100.522
100.41
100.321
100.25
100.194
100.15
100.115
100.088
100.067
100.051
100.038
100.029
100.022
100.016
100.012
100.009
100.006
100.005
100.003
100.002
100.002
100.001
100.001
100.001
100
100
100
100
100
100
100
391.56
374.723
358.01
341.505
325.285
309.424
293.992
279.051
264.658
250.862
237.703
225.214
213.42
202.337
191.974
182.332
173.406
165.183
157.645
150.77
144.53
138.894
133.829
129.299
125.269
121.7
118.555
115.798
113.392
111.304
109.499
107.948
106.621
105.491
104.534
103.727
103.05
102.485
102.016
101.628
101.309
101.047
100.835
100.662
100.523
100.411
100.321
100.25
100.194
100.15
100.115
100.088
100.067
100.051
100.038
100.029
100.022
100.016
100.012
100.009
100.006
100.005
100.003
100.002
100.002
100.001
100.001
100.001
100
100
100
100
100
100
100
391.561
374.726
358.016
341.513
325.294
309.436
294.005
279.066
264.674
250.878
237.72
225.231
213.437
202.354
191.991
182.349
173.423
165.199
157.66
150.784
144.543
138.906
133.84
129.309
125.278
121.708
118.562
115.804
113.398
111.309
109.504
107.952
106.624
105.494
104.536
103.729
103.052
102.487
102.017
101.629
101.31
101.048
100.835
100.662
100.523
100.411
100.322
100.251
100.194
100.15
100.115
100.088
100.067
100.051
100.038
100.029
100.022
100.016
100.012
100.009
100.006
100.005
100.003
100.002
100.002
100.001
100.001
100.001
100
100
100
100
100
100
100
391.562
374.729
358.02
341.519
325.302
309.444
294.015
279.077
264.686
250.891
237.733
225.245
213.451
202.368
192.005
182.363
173.435
165.211
157.672
150.795
144.553
138.915
133.849
129.317
125.285
121.714
118.568
115.809
113.402
111.313
109.507
107.955
106.627
105.496
104.538
103.731
103.053
102.488
102.018
101.63
101.31
101.049
100.835
100.663
100.523
100.411
100.322
100.251
100.194
100.15
100.115
100.088
100.067
100.051
100.038
100.029
100.022
100.016
100.012
100.009
100.006
100.005
100.003
100.002
100.002
100.001
100.001
100.001
100
100
100
100
100
100
100
391.563
374.731
358.024
341.523
325.308
309.451
294.023
279.086
264.696
250.901
237.744
225.256
213.462
202.379
192.016
182.373
173.445
165.221
157.681
150.804
144.561
138.923
133.855
129.324
125.291
121.72
118.573
115.814
113.406
111.316
109.51
107.957
106.629
105.498
104.54
103.732
103.054
102.489
102.019
101.63
101.311
101.049
100.836
100.663
100.523
100.411
100.322
100.251
100.195
100.15
100.115
100.088
100.067
100.051
100.038
100.029
100.022
100.016
100.012
100.009
100.006
100.005
100.003
100.002
100.002
100.001
100.001
100.001
100
100
100
100
100
100
100
391.563
374.732
358.026
341.527
325.312
309.457
294.029
279.093
264.703
250.909
237.752
225.264
213.47
202.387
192.024
182.381
173.453
165.228
157.688
150.81
144.567
138.929
133.861
129.329
125.295
121.724
118.576
115.817
113.409
111.318
109.512
107.959
106.63
105.499
104.541
103.733
103.055
102.49
102.019
101.631
101.311
101.049
100.836
100.663
100.524
100.412
100.322
100.251
100.195
100.15
100.115
100.088
100.067
100.051
100.038
100.029
100.022
100.016
100.012
100.009
100.006
100.005
100.003
100.002
100.002
100.001
100.001
100.001
100
100
100
100
100
100
100
391.564
374.734
358.028
341.53
325.316
309.461
294.034
279.098
264.709
250.915
237.758
225.271
213.477
202.394
192.03
182.387
173.459
165.234
157.694
150.816
144.572
138.933
133.865
129.332
125.299
121.727
118.579
115.819
113.411
111.32
109.514
107.96
106.632
105.5
104.542
103.734
103.056
102.49
102.02
101.631
101.311
101.05
100.836
100.663
100.524
100.412
100.322
100.251
100.195
100.15
100.115
100.088
100.067
100.051
100.038
100.029
100.022
100.016
100.012
100.009
100.006
100.005
100.003
100.002
100.002
100.001
100.001
100.001
100
100
100
100
100
100
100
391.564
374.735
358.03
341.532
325.319
309.464
294.038
279.102
264.713
250.92
237.763
225.275
213.482
202.399
192.035
182.392
173.464
165.239
157.698
150.82
144.576
138.937
133.868
129.335
125.301
121.729
118.581
115.821
113.413
111.322
109.515
107.962
106.633
105.501
104.543
103.734
103.056
102.49
102.02
101.631
101.312
101.05
100.836
100.663
100.524
100.412
100.322
100.251
100.195
100.15
100.115
100.088
100.067
100.051
100.038
100.029
100.022
100.016
100.012
100.009
100.006
100.005
100.003
100.002
100.002
100.001
100.001
100.001
100
100
100
100
100
100
100
391.564
374.735
358.031
341.534
325.321
309.467
294.04
279.105
264.716
250.923
237.767
225.279
213.486
202.403
192.039
182.396
173.468
165.242
157.701
150.823
144.579
138.939
133.871
129.338
125.303
121.731
118.583
115.823
113.414
111.323
109.516
107.962
106.633
105.502
104.543
103.735
103.057
102.491
102.021
101.632
101.312
101.05
100.837
100.664
100.524
100.412
100.322
100.251
100.195
100.15
100.116
100.088
100.067
100.051
100.039
100.029
100.022
100.016
100.012
100.009
100.006
100.005
100.003
100.002
100.002
100.001
100.001
100.001
100
100
100
100
100
100
100
391.565
374.736
358.032
341.535
325.322
309.469
294.043
279.107
264.719
250.926
237.769
225.282
213.489
202.406
192.042
182.399
173.47
165.245
157.704
150.825
144.581
138.941
133.873
129.339
125.305
121.732
118.584
115.824
113.415
111.324
109.517
107.963
106.634
105.502
104.544
103.735
103.057
102.491
102.021
101.632
101.312
101.05
100.837
100.664
100.524
100.412
100.322
100.251
100.195
100.15
100.116
100.088
100.067
100.051
100.039
100.029
100.022
100.016
100.012
100.009
100.006
100.005
100.003
100.002
100.002
100.001
100.001
100.001
100
100
100
100
100
100
100
391.565
374.736
358.033
341.536
325.323
309.47
294.044
279.109
264.721
250.928
237.772
225.284
213.491
202.408
192.044
182.401
173.473
165.247
157.706
150.827
144.583
138.943
133.874
129.341
125.306
121.734
118.585
115.825
113.416
111.324
109.517
107.964
106.634
105.503
104.544
103.736
103.057
102.491
102.021
101.632
101.312
101.05
100.837
100.664
100.524
100.412
100.322
100.251
100.195
100.15
100.116
100.088
100.067
100.051
100.039
100.029
100.022
100.016
100.012
100.009
100.006
100.005
100.003
100.002
100.002
100.001
100.001
100.001
100
100
100
100
100
100
100
391.565
374.737
358.033
341.536
325.324
309.471
294.045
279.111
264.722
250.93
237.773
225.286
213.493
202.41
192.046
182.403
173.474
165.248
157.707
150.828
144.584
138.944
133.875
129.342
125.307
121.734
118.586
115.825
113.417
111.325
109.518
107.964
106.635
105.503
104.544
103.736
103.058
102.491
102.021
101.632
101.312
101.05
100.837
100.664
100.524
100.412
100.322
100.251
100.195
100.15
100.116
100.088
100.067
100.051
100.039
100.029
100.022
100.016
100.012
100.009
100.006
100.005
100.003
100.002
100.002
100.001
100.001
100.001
100
100
100
100
100
100
100
391.565
374.737
358.034
341.537
325.325
309.472
294.046
279.112
264.723
250.931
237.774
225.287
213.494
202.411
192.047
182.404
173.475
165.25
157.708
150.829
144.585
138.945
133.876
129.343
125.308
121.735
118.587
115.826
113.417
111.325
109.518
107.964
106.635
105.503
104.544
103.736
103.058
102.492
102.021
101.632
101.312
101.05
100.837
100.664
100.524
100.412
100.322
100.251
100.195
100.15
100.116
100.088
100.067
100.051
100.039
100.029
100.022
100.016
100.012
100.009
100.006
100.005
100.003
100.002
100.002
100.001
100.001
100.001
100
100
100
100
100
100
100
391.565
374.737
358.034
341.537
325.326
309.472
294.047
279.112
264.724
250.932
237.775
225.288
213.495
202.412
192.048
182.405
173.476
165.25
157.709
150.83
144.586
138.946
133.877
129.343
125.308
121.736
118.587
115.826
113.417
111.326
109.518
107.965
106.635
105.503
104.545
103.736
103.058
102.492
102.021
101.632
101.312
101.05
100.837
100.664
100.524
100.412
100.322
100.251
100.195
100.15
100.116
100.088
100.067
100.051
100.039
100.029
100.022
100.016
100.012
100.009
100.006
100.005
100.003
100.002
100.002
100.001
100.001
100.001
100
100
100
100
100
100
100
391.565
374.737
358.034
341.538
325.326
309.473
294.048
279.113
264.725
250.932