/*--------------------------------*- C++ -*----------------------------------*\
  =========                 |
  \\      /  F ield         | OpenFOAM: The Open Source CFD Toolbox
   \\    /   O peration     | Website:  https://openfoam.org
    \\  /    A nd           | Version:  10
     \\/     M anipulation  |
\*---------------------------------------------------------------------------*/
FoamFile
{
    format      ascii;
    class       volScalarField;
    location    "335";
    object      gradTx;
}
// * * * * * * * * * * * * * * * * * * * * * * * * * * * * * * * * * * * * * //

dimensions      [0 -1 0 1 0 0 0];

internalField   nonuniform List<scalar> 
11250
(
14300.2
8104.96
5311.86
3829.77
2932.32
2332.4
1901.55
1575.69
1319.76
1113.14
942.917
800.605
680.365
578.03
490.517
415.472
351.041
295.731
248.303
207.716
173.076
143.607
118.631
97.5494
79.8338
65.0167
52.685
42.4745
34.0648
27.1761
21.5644
17.0188
13.3579
10.4265
8.09312
6.24668
4.79427
3.65866
2.7761
2.09435
1.57093
1.17151
0.868589
0.640249
0.469188
0.341823
0.247576
0.178264
0.127604
0.0908042
0.0642373
0.0451758
0.0315834
0.0219506
0.0151658
0.0104163
0.00711201
0.00482725
0.00325712
0.00218471
0.00145673
0.000965579
0.000636237
0.000416743
0.000271351
0.00017563
0.000112991
7.22432e-05
4.58865e-05
2.89224e-05
1.80373e-05
1.10402e-05
6.47899e-06
3.3763e-06
1.04513e-06
4096.03
4703.79
4002.4
3247.26
2637.45
2166.46
1800.14
1509.68
1274.68
1081.18
919.605
783.21
667.155
567.858
482.6
409.257
346.133
291.837
245.204
205.245
171.103
142.032
117.375
96.5484
79.0377
64.385
52.1852
42.0801
33.7548
26.9332
21.3748
16.8715
13.2439
10.3387
8.0258
6.1953
4.75525
3.62917
2.75393
2.07777
1.55859
1.16238
0.861865
0.635326
0.465602
0.339226
0.245705
0.176924
0.126649
0.0901282
0.0637612
0.0448424
0.0313512
0.0217898
0.0150551
0.0103406
0.00706046
0.00479237
0.00323365
0.00216902
0.00144629
0.000958681
0.000631703
0.00041378
0.000269427
0.000174387
0.000112193
7.17344e-05
4.5564e-05
2.87196e-05
1.79111e-05
1.09631e-05
6.43387e-06
3.35281e-06
1.03789e-06
1476.49
2612.7
2748.24
2521.53
2206.4
1898.97
1626.42
1392.12
1192.28
1021.73
875.675
750.124
641.85
548.266
467.284
397.196
336.581
284.241
239.147
200.407
167.237
138.943
114.907
94.5809
77.4718
63.1418
51.2008
41.3032
33.1437
26.4543
21.001
16.5809
13.019
10.1654
7.89288
6.09384
4.67818
3.57092
2.71013
2.045
1.5342
1.14433
0.848571
0.62559
0.45851
0.334089
0.242005
0.174273
0.124761
0.0887904
0.0628189
0.0441824
0.0308916
0.0214715
0.014836
0.0101906
0.00695837
0.00472328
0.00318717
0.00213793
0.00142562
0.000945012
0.000622718
0.00040791
0.000265613
0.000171925
0.000110612
7.07256e-05
4.49246e-05
2.83174e-05
1.76607e-05
1.08102e-05
6.34424e-06
3.30615e-06
1.02347e-06
674.02
1523.19
1857.85
1886.3
1770.25
1599.68
1417.97
1243.95
1084.73
942.129
815.749
704.347
606.456
520.63
445.535
379.975
322.883
273.309
230.404
193.407
161.63
134.454
111.317
91.7143
75.1878
61.3265
49.7623
40.1669
32.2493
25.7529
20.4533
16.1549
12.6891
9.91114
7.69779
5.94488
4.565
3.48535
2.64576
1.99684
1.49835
1.11778
0.829021
0.611269
0.448078
0.326531
0.236559
0.170371
0.121981
0.0868211
0.0614316
0.0432106
0.0302148
0.0210028
0.0145132
0.00996961
0.00680798
0.0046215
0.0031187
0.00209212
0.00139516
0.000924869
0.000609478
0.000399257
0.000259992
0.000168294
0.000108281
6.92385e-05
4.39819e-05
2.77244e-05
1.72916e-05
1.05846e-05
6.21205e-06
3.23735e-06
1.00216e-06
370.726
949.103
1275.16
1397.62
1391.17
1314.55
1205.24
1084.75
964.615
850.585
745.261
649.555
563.509
486.73
418.623
358.515
305.713
259.541
219.349
184.525
154.496
128.728
106.729
88.0438
72.2586
58.9953
47.9127
38.7044
31.097
24.8486
19.7465
15.6048
12.2629
9.58244
7.44548
5.75213
4.41848
3.37454
2.56238
1.93443
1.45188
1.08336
0.803667
0.592694
0.434543
0.316723
0.229491
0.165307
0.118372
0.0842639
0.0596298
0.0419484
0.0293355
0.0203939
0.0140939
0.00968249
0.00661252
0.00448922
0.00302968
0.00203257
0.00135555
0.000898679
0.00059226
0.000388005
0.000252681
0.000163572
0.00010525
6.7304e-05
4.27556e-05
2.69528e-05
1.68112e-05
1.02911e-05
6.04003e-06
3.14782e-06
9.74476e-07
230.805
628.217
897.503
1039.83
1084.75
1065.06
1007.03
928.891
842.345
754.494
669.455
589.482
515.688
448.507
387.969
333.866
285.855
243.525
206.426
174.1
146.093
121.964
101.294
83.6866
68.7746
56.2179
45.7058
36.957
29.7187
23.7658
18.8993
14.945
11.7513
9.18756
7.14217
5.52031
4.24218
3.24114
2.46196
1.85923
1.39587
1.04187
0.773088
0.570283
0.41821
0.304884
0.220958
0.15919
0.114013
0.0811744
0.0574527
0.0404229
0.0282727
0.0196577
0.0135868
0.00933528
0.00637614
0.00432921
0.002922
0.00196052
0.00130762
0.000866986
0.000571424
0.000374386
0.000243832
0.000157856
0.000101579
6.49617e-05
4.12705e-05
2.60185e-05
1.62296e-05
9.93557e-06
5.83168e-06
3.03936e-06
9.40922e-07
155.365
436.31
648.203
781.385
845.353
856.762
832.15
784.994
725.201
659.614
592.745
527.462
465.502
407.851
354.998
307.106
264.13
225.888
192.116
162.502
136.706
114.382
95.183
78.775
64.8384
53.0735
43.2029
34.9721
28.1509
22.5325
17.9334
14.1919
11.1668
8.73611
6.79516
5.25489
4.0402
3.08822
2.34679
1.77295
1.33157
0.994211
0.737958
0.54453
0.399433
0.29127
0.211143
0.152154
0.108996
0.0776183
0.0549462
0.0386662
0.0270487
0.0188096
0.0130027
0.00893518
0.00610369
0.00414477
0.00279786
0.00187745
0.00125236
0.000830434
0.000547389
0.000358675
0.000233622
0.00015126
9.73439e-05
6.22585e-05
3.95565e-05
2.494e-05
1.5558e-05
9.52516e-06
5.59115e-06
2.91411e-06
9.02161e-07
109.986
314.272
478.962
593.996
660.824
687.216
682.921
657.15
617.526
569.88
518.448
466.188
415.09
366.441
321.022
279.259
241.333
207.25
176.903
150.107
126.63
106.211
88.5761
73.4488
60.5589
49.6472
40.47
32.801
26.4333
21.1795
16.8724
13.3636
10.5233
8.23863
6.41243
4.96193
3.8171
2.91921
2.21942
1.67747
1.26039
0.941426
0.699031
0.51598
0.37861
0.276168
0.200251
0.144342
0.103426
0.0736686
0.0521616
0.0367142
0.0256882
0.0178668
0.0123531
0.00849022
0.00580065
0.00393958
0.00265973
0.00178501
0.00119085
0.000789745
0.000520631
0.000341181
0.000222252
0.000143914
9.2626e-05
5.9247e-05
3.76468e-05
2.37381e-05
1.48096e-05
9.06771e-06
5.32303e-06
2.77451e-06
8.58964e-07
80.5558
232.613
360.663
456.574
518.94
550.967
558.129
546.424
521.379
487.623
448.796
407.635
366.127
325.661
287.166
251.231
218.188
188.187
161.244
137.279
116.152
97.6792
81.6516
67.8487
56.0465
46.0255
37.5749
30.4965
24.6068
19.7385
15.7407
12.4791
9.83536
7.70617
6.00241
4.64781
3.57769
2.7377
2.08255
1.5748
1.1838
0.884604
0.657106
0.485217
0.356164
0.259882
0.1885
0.135912
0.0974127
0.0694035
0.0491538
0.0346052
0.0242179
0.0168477
0.0116508
0.00800901
0.00547286
0.00371758
0.00251026
0.00168495
0.00112426
0.000745694
0.000491658
0.000322236
0.000209937
0.000135956
8.75144e-05
5.59838e-05
3.55772e-05
2.24355e-05
1.39983e-05
8.57179e-06
5.03231e-06
2.62316e-06
8.1215e-07
60.4285
175.701
275.72
354.37
409.487
442.059
455.014
452.13
437.269
413.937
385.094
353.113
319.819
286.568
254.332
223.773
195.318
169.208
145.55
124.349
105.538
88.9985
74.5793
62.1095
51.4082
42.2927
34.5838
28.1105
22.7122
18.2411
14.563
11.5573
9.11746
7.1499
5.57359
4.31897
3.32684
2.54737
1.93891
1.46699
1.10332
0.824862
0.613002
0.452839
0.332528
0.242725
0.176117
0.127025
0.0910706
0.0649037
0.0459794
0.0323788
0.0226653
0.0157712
0.0109087
0.00750049
0.00512638
0.00348288
0.0023522
0.00157913
0.00105383
0.000699085
0.000460996
0.000302184
0.000196901
0.000127531
8.21017e-05
5.25278e-05
3.3385e-05
2.10556e-05
1.31388e-05
8.04625e-06
4.72416e-06
2.46272e-06
7.6251e-07
46.1197
134.742
213.293
277.273
324.551
355.098
370.385
372.729
364.76
349.058
327.94
303.372
276.948
249.91
223.194
197.477
173.224
150.735
130.174
111.607
95.0243
80.3608
67.5139
56.3556
46.7433
38.5278
31.5595
25.6925
20.7882
16.7178
13.3628
10.6166
8.38378
6.5807
5.13431
3.98175
3.06936
2.35183
1.79122
1.35606
1.02046
0.763307
0.567532
0.419441
0.308135
0.225009
0.163324
0.11784
0.0845138
0.0602499
0.0426952
0.0300745
0.0210579
0.0146565
0.0101401
0.00697359
0.00476729
0.00323959
0.00218832
0.00146938
0.000980765
0.000650728
0.000429179
0.000281372
0.000183368
0.000118783
7.64808e-05
4.89384e-05
3.11078e-05
1.96218e-05
1.22456e-05
7.50007e-06
4.40392e-06
2.29591e-06
7.10877e-07
35.6466
104.509
166.511
218.353
258.191
285.579
301.175
306.368
302.916
292.678
277.425
258.735
237.948
216.156
194.213
172.768
152.291
133.101
115.4
99.2924
84.8107
71.9312
60.5904
50.6967
42.1404
34.8023
28.5588
23.2877
18.8708
15.1966
12.1623
9.67398
7.64764
6.00883
4.69244
3.64216
2.8098
2.15453
1.64208
1.24394
0.936644
0.701004
0.521481
0.385595
0.2834
0.207037
0.15034
0.108513
0.0778528
0.0555202
0.0393563
0.027731
0.0194226
0.013522
0.00935763
0.00643705
0.00440153
0.0029917
0.0020213
0.00135752
0.000906272
0.000601414
0.000396725
0.000260139
0.000169559
0.000109855
7.07432e-05
4.52737e-05
2.87825e-05
1.81576e-05
1.13332e-05
6.94211e-06
4.07671e-06
2.12547e-06
6.5814e-07
27.8081
81.7426
130.885
172.808
205.997
229.877
244.671
251.186
250.582
244.181
233.31
219.212
202.983
185.55
167.669
149.932
132.786
116.552
101.445
87.5935
75.0579
63.845
53.9216
45.2258
37.6757
31.1777
25.6316
20.9361
16.9915
13.7028
10.9812
8.74512
6.9211
5.44363
4.25516
3.30571
2.55237
1.95865
1.49387
1.13243
0.853219
0.638944
0.475578
0.351836
0.258715
0.18909
0.137368
0.0991905
0.0711916
0.0507883
0.0360144
0.0253846
0.0177846
0.0123853
0.00857338
0.00589913
0.00403472
0.00274304
0.00185372
0.00124524
0.000831488
0.000551896
0.00036413
0.00023881
0.000155683
0.000100883
6.49758e-05
4.15892e-05
2.64441e-05
1.66848e-05
1.04155e-05
6.38073e-06
3.74745e-06
1.95401e-06
6.0509e-07
21.8396
64.3286
103.402
137.261
164.697
185.134
198.572
205.462
206.562
202.8
195.162
184.607
172.017
158.162
143.69
129.126
114.878
101.252
88.4626
76.6486
65.8875
56.207
47.5967
40.0178
33.4113
27.7052
22.8197
18.6715
15.1777
12.258
9.83666
7.84349
6.21475
4.89334
3.82885
2.9773
2.3008
1.76703
1.34874
1.02314
0.771389
0.578024
0.430486
0.318652
0.234435
0.171427
0.124593
0.0900052
0.0646256
0.0461219
0.0327174
0.0230686
0.0161674
0.0112625
0.00779847
0.00536744
0.00367205
0.00249711
0.00168793
0.00113413
0.000757465
0.00050287
0.000331851
0.000217682
0.000141936
9.19912e-05
5.92593e-05
3.79366e-05
2.41255e-05
1.52242e-05
9.50509e-06
5.82383e-06
3.4208e-06
1.78383e-06
5.52403e-07
17.2339
50.844
81.9798
109.298
131.847
149.107
160.972
167.677
169.712
167.725
162.44
154.594
144.881
133.932
122.29
110.408
98.6498
87.2952
76.5486
66.5499
57.3844
49.0931
41.6818
35.1295
29.3954
24.4252
20.1562
16.521
13.4513
10.88
8.74298
6.9804
5.53749
4.36494
3.41893
2.66112
2.05831
1.58213
1.20856
0.917481
0.692206
0.519027
0.386784
0.286467
0.21087
0.154275
0.112181
0.0810754
0.0582388
0.0415806
0.0295073
0.0208128
0.0145915
0.010168
0.00704282
0.00484878
0.00331816
0.00225706
0.00152606
0.00102561
0.000685149
0.000454962
0.000300299
0.000197026
0.000128493
8.32941e-05
5.36665e-05
3.43622e-05
2.18561e-05
1.37944e-05
8.6137e-06
5.27841e-06
3.1008e-06
1.61711e-06
5.00788e-07
13.6431
40.3023
65.1452
87.163
105.61
120.041
130.307
136.518
138.985
138.16
134.57
128.775
121.319
112.709
103.394
93.7572
84.1151
74.7164
65.7495
57.3482
49.5996
42.5519
36.2216
30.6007
25.6625
21.3672
17.6661
14.5055
11.8296
9.58277
7.71138
6.16483
4.89648
3.86405
3.02981
2.36059
1.82755
1.40598
1.07488
0.816616
0.616549
0.46261
0.34496
0.255643
0.188287
0.137826
0.10027
0.0725017
0.0521034
0.037216
0.0264206
0.0186427
0.0130748
0.00911426
0.006315
0.00434904
0.00297705
0.0020256
0.00136993
0.000920922
0.000615361
0.000408715
0.000269834
0.000177076
0.000115506
7.48901e-05
4.8261e-05
3.09068e-05
1.96617e-05
1.24115e-05
7.75143e-06
4.75068e-06
2.79111e-06
1.45574e-06
4.50856e-07
10.8215
32.001
51.8331
69.5558
84.5873
96.5565
105.307
110.874
113.455
113.362
110.978
106.726
101.027
94.2864
86.8694
79.096
71.2351
63.504
56.0712
49.0603
42.5558
36.6083
31.2411
26.4552
22.2345
18.5506
15.3663
12.6394
10.3246
8.37635
6.75013
5.40352
4.29711
3.39498
2.66489
2.07837
1.61059
1.24017
0.948902
0.721476
0.54512
0.4093
0.305407
0.226471
0.166898
0.122237
0.088975
0.0643664
0.0462785
0.03307
0.0234871
0.0165794
0.0116321
0.00811145
0.00562209
0.0038731
0.00265207
0.00180501
0.00122108
0.00082108
0.000548786
0.000364585
0.000240756
0.000158028
0.000103103
6.68624e-05
4.30962e-05
2.76045e-05
1.75641e-05
1.10893e-05
6.92678e-06
4.24594e-06
2.49488e-06
1.30133e-06
4.0304e-07
8.59144
25.4286
41.2578
55.5008
67.7045
77.5652
84.935
89.8106
92.3122
92.655
91.1185
88.0181
83.6808
78.4248
72.5455
66.3062
59.9324
53.6103
47.4874
41.6749
36.2514
31.2673
26.7489
22.7032
19.1221
15.9858
13.2666
10.9313
8.94387
7.26725
5.8647
4.70098
3.74308
2.96071
2.32656
1.81637
1.40891
1.08586
0.831544
0.632752
0.478445
0.359493
0.268423
0.199173
0.146869
0.107628
0.0783835
0.056733
0.0408098
0.0291754
0.02073
0.0146392
0.0102749
0.00716768
0.00496971
0.00342482
0.00234586
0.00159709
0.00108074
0.000726909
0.000485972
0.000322937
0.000213304
0.000140042
9.13883e-05
5.92778e-05
3.82153e-05
2.44829e-05
1.55808e-05
9.83889e-06
6.14677e-06
3.76838e-06
2.21457e-06
1.15522e-06
3.57795e-07
6.82152
20.2048
32.8293
44.2543
54.1274
62.2032
68.3499
72.544
74.8572
75.4373
74.4868
72.2418
68.9531
64.8702
60.2293
55.2446
50.1031
44.962
39.9479
35.1589
30.6661
26.5171
22.7393
19.3433
16.3263
13.6754
11.3701
9.3848
7.69097
6.25869
5.05796
4.05972
3.23654
2.56305
2.0163
1.57578
1.22348
0.943814
0.723392
0.550906
0.416879
0.313461
0.234213
0.173902
0.128312
0.0940842
0.0685576
0.049647
0.0357303
0.0255561
0.0181664
0.0128343
0.00901163
0.00628887
0.00436197
0.00300704
0.00206038
0.00140317
0.000949796
0.000639019
0.00042733
0.000284041
0.000187659
0.000123234
8.04384e-05
5.21866e-05
3.36507e-05
2.15628e-05
1.37252e-05
8.66868e-06
5.41663e-06
3.32124e-06
1.95205e-06
1.0184e-06
3.15432e-07
5.41284
16.0424
26.0977
35.2422
43.202
49.7805
54.8644
58.4214
60.4925
61.1789
60.6269
59.0128
56.5282
53.3678
49.7189
45.7543
41.6272
37.4686
33.3859
29.4638
25.7651
22.3336
19.1959
16.3645
13.8403
11.6154
9.67475
7.99903
6.56578
5.35106
4.33056
3.4805
2.77823
2.2027
1.73473
1.35714
1.05477
0.814416
0.624761
0.476185
0.360618
0.271358
0.202896
0.150748
0.111298
0.0816572
0.0595357
0.0431367
0.0310607
0.0222268
0.015807
0.0111722
0.00784786
0.00547887
0.00380157
0.00262164
0.00179692
0.00122414
0.000828866
0.000557821
0.000373134
0.000248084
0.000163945
0.000107687
7.03067e-05
4.56235e-05
2.9425e-05
1.88589e-05
1.20064e-05
7.58451e-06
4.73997e-06
2.9068e-06
1.70871e-06
8.91542e-07
2.76168e-07
4.28981
12.7207
20.7156
28.0166
34.4113
39.7431
43.9169
46.8984
48.7092
49.4183
49.1314
47.9798
46.1095
43.6714
40.8133
37.6734
34.3763
31.0297
27.7236
24.5299
21.5034
18.6831
16.0938
13.7487
11.6511
9.79631
8.17402
6.76949
5.56527
4.54236
3.68123
2.96252
2.3677
1.87941
1.48176
1.16045
0.902785
0.697717
0.535709
0.408651
0.309718
0.233231
0.174512
0.129746
0.0958533
0.0703679
0.0513341
0.0372144
0.0268102
0.0191945
0.013657
0.00965688
0.00678627
0.00473963
0.0032899
0.00226961
0.00155616
0.00106047
0.000718275
0.000483538
0.000323538
0.000215167
0.000142229
9.34461e-05
6.10234e-05
3.96083e-05
2.5551e-05
1.63794e-05
1.04298e-05
6.58983e-06
4.11905e-06
2.52644e-06
1.48531e-06
7.75049e-07
2.40117e-07
3.39389
10.0686
16.4114
22.2246
27.3433
31.6438
35.0475
37.5216
39.0758
39.7569
39.6413
38.8265
37.4236
35.5489
33.3185
30.8422
28.2201
25.5404
22.8774
20.2916
17.8296
15.5257
13.4024
11.4726
9.7408
8.20502
6.85801
5.68885
4.68406
3.82869
3.10712
2.50375
2.0035
1.59218
1.25668
0.985199
0.767205
0.593487
0.456084
0.348203
0.264114
0.199038
0.149034
0.110879
0.0819674
0.0602107
0.0439499
0.0318788
0.0229783
0.0164594
0.0117164
0.00828845
0.00582713
0.00407141
0.00282717
0.00195111
0.00133825
0.000912282
0.000618099
0.000416227
0.00027858
0.00018532
0.000122531
8.05248e-05
5.25979e-05
3.41474e-05
2.2033e-05
1.41271e-05
8.99745e-06
5.68587e-06
3.55468e-06
2.18062e-06
1.28214e-06
6.69112e-07
2.07274e-07
2.67927
7.95167
12.971
17.5856
21.6678
25.1201
27.8785
29.9133
31.2273
31.8522
31.8428
31.2718
30.2231
28.7864
27.0521
25.107
23.0312
20.896
18.7621
16.6799
14.6887
12.8178
11.0873
9.50924
8.08875
6.8254
5.7144
4.74771
3.91503
3.20466
2.60421
2.10119
1.68342
1.33935
1.05828
0.83052
0.647386
0.501265
0.385554
0.294603
0.223635
0.168661
0.126379
0.0940881
0.0696
0.0511575
0.0373635
0.0271166
0.019556
0.0140151
0.00998128
0.0070642
0.00496859
0.00347299
0.00241258
0.00166561
0.00114284
0.000779338
0.000528197
0.000355797
0.000238204
0.000158505
0.00010483
6.8909e-05
4.50215e-05
2.92354e-05
1.88677e-05
1.21001e-05
7.70797e-06
4.87192e-06
3.04633e-06
1.86906e-06
1.09912e-06
5.7365e-07
1.77711e-07
2.10973
6.26352
10.2242
13.8755
17.1186
19.877
22.0992
23.7594
24.8565
25.4115
25.4641
25.0682
24.287
23.1896
21.8459
20.3242
18.6881
16.9948
15.2937
13.6261
12.0246
10.5143
9.11244
7.82998
6.67216
5.63961
4.72926
3.93527
3.24983
2.66386
2.16761
1.75113
1.40464
1.11882
0.884986
0.695232
0.542458
0.42041
0.323648
0.247507
0.188034
0.141919
0.106417
0.0792812
0.058685
0.0431616
0.0315422
0.0229046
0.0165273
0.0118505
0.00844384
0.00597885
0.00420706
0.00294193
0.00204449
0.00141202
0.000969196
0.00066115
0.000448242
0.000302033
0.00020227
0.000134631
8.90644e-05
5.85608e-05
3.82698e-05
2.48568e-05
1.60454e-05
1.02922e-05
6.55764e-06
4.14559e-06
2.59261e-06
1.59094e-06
9.35718e-07
4.88428e-07
1.51345e-07
1.65648
4.91938
8.0349
10.9139
13.4803
15.6741
17.4542
18.7987
19.7046
20.1858
20.2709
19.9996
19.4199
18.5843
17.547
16.3613
15.0775
13.741
12.3918
11.0632
9.78241
8.57012
7.44123
6.40533
5.46748
4.62891
3.88777
3.23989
2.67938
2.19925
1.79187
1.44937
1.16395
0.928143
0.734946
0.577948
0.451382
0.350147
0.269793
0.206494
0.157001
0.118586
0.0889851
0.0663396
0.0491376
0.0361621
0.0264428
0.0192125
0.0138706
0.00995073
0.00709365
0.00502516
0.00353757
0.00247481
0.00172056
0.00118876
0.000816247
0.000557008
0.000377761
0.000254622
0.00017057
0.000113564
7.51477e-05
4.94231e-05
3.23061e-05
2.09881e-05
1.35511e-05
8.69409e-06
5.54047e-06
3.50319e-06
2.19125e-06
1.34487e-06
7.91092e-07
4.12976e-07
1.27959e-07
1.2965
3.85133
6.29377
8.5556
10.5781
12.3148
13.7328
14.8142
15.5549
15.9642
16.0626
15.8794
15.4507
14.8166
14.0187
13.0986
12.0956
11.0457
9.98088
8.92803
7.90926
6.94173
6.03794
5.20623
4.45121
3.77443
3.17487
2.64961
2.19425
1.80344
1.47123
1.19145
0.957926
0.764697
0.606157
0.477147
0.373012
0.289616
0.223347
0.171087
0.130183
0.0984036
0.0738938
0.0551265
0.0408588
0.0300882
0.0220144
0.0160041
0.0115605
0.00829775
0.00591819
0.00419443
0.00295408
0.00206749
0.00143796
0.000993892
0.000682696
0.000466035
0.000316169
0.000213175
0.000142847
9.51336e-05
6.2969e-05
4.1424e-05
2.70839e-05
1.75995e-05
1.13657e-05
7.29346e-06
4.64881e-06
2.93994e-06
1.83922e-06
1.12899e-06
6.64164e-07
3.4673e-07
1.07445e-07
1.01128
3.00478
4.91266
6.68278
8.27004
9.63834
10.7619
11.6259
12.2263
12.569
12.6686
12.5471
12.2312
11.7516
11.1402
10.429
9.64881
8.82798
7.99174
7.16173
6.35577
5.58791
4.86853
4.2047
3.60055
3.05771
2.57574
2.15259
1.78503
1.46899
1.19986
0.972831
0.783036
0.625758
0.496534
0.391241
0.306142
0.23791
0.183629
0.140778
0.107204
0.081095
0.0609399
0.0454936
0.033741
0.0248622
0.0182015
0.0132397
0.00956886
0.00687175
0.00490354
0.00347695
0.00244986
0.00171534
0.00119352
0.000825259
0.000567073
0.000387242
0.000262802
0.000177248
0.000118809
7.9147e-05
5.24015e-05
3.4481e-05
2.25499e-05
1.46565e-05
9.46714e-06
6.07638e-06
3.87377e-06
2.45023e-06
1.5331e-06
9.41175e-07
5.53754e-07
2.89133e-07
8.96183e-08
0.785931
2.33572
3.82038
5.20015
6.44047
7.51345
8.39892
9.08489
9.56752
9.85059
9.94462
9.86562
9.63384
9.27231
8.80548
8.25804
7.65386
7.01509
6.36164
5.71069
5.07652
4.47051
3.90118
3.37446
2.89392
2.46117
2.07612
1.73738
1.44259
1.18865
0.972041
0.78902
0.635784
0.508618
0.403991
0.31863
0.249555
0.194107
0.149947
0.115049
0.0876791
0.0663744
0.0499133
0.0372872
0.0276725
0.0204032
0.014946
0.0108778
0.00786607
0.00565183
0.00403503
0.00286246
0.0020178
0.00141342
0.000983848
0.000680546
0.000467807
0.000319568
0.000216947
0.000146367
9.81388e-05
6.53958e-05
4.33088e-05
2.85051e-05
1.86462e-05
1.2122e-05
7.83165e-06
5.02766e-06
3.20579e-06
2.02807e-06
1.26915e-06
7.79222e-07
4.58522e-07
2.39428e-07
7.41946e-08
0.608457
1.80862
2.95936
4.0304
4.99535
5.83274
6.52687
7.06816
7.45317
7.68427
7.76895
7.71902
7.54958
7.27801
6.92294
6.50328
6.03746
5.54272
5.03462
4.52673
4.03041
3.55477
3.10675
2.69124
2.3113
1.96839
1.66266
1.39319
1.15824
0.955499
0.782284
0.635699
0.512788
0.410645
0.326494
0.257751
0.202057
0.1573
0.121615
0.0933853
0.0712238
0.053957
0.0406039
0.0303532
0.022541
0.0166299
0.0121891
0.00887631
0.0064222
0.00461678
0.00329769
0.00234049
0.00165059
0.0011567
0.000805477
0.000557379
0.000383283
0.00026192
0.00017787
0.000120041
8.05113e-05
5.36647e-05
3.55492e-05
2.34038e-05
1.53128e-05
9.95715e-06
6.43435e-06
4.13145e-06
2.6348e-06
1.66713e-06
1.04342e-06
6.40734e-07
3.7707e-07
1.96887e-07
6.10034e-08
0.469169
1.39483
2.28306
3.1109
3.85823
4.50861
5.04987
5.47444
5.77936
5.96604
6.03985
6.00944
5.88607
5.68281
5.41378
5.09342
4.73588
4.35449
3.96137
3.56715
3.18077
2.80951
2.45894
2.13306
1.83441
1.56433
1.32305
1.11
0.923921
0.763085
0.625452
0.508804
0.410855
0.329346
0.262108
0.207113
0.162505
0.126617
0.0979733
0.0752906
0.0574666
0.0435665
0.0328076
0.0245414
0.0182367
0.0134626
0.00987335
0.00719396
0.00520778
0.00374568
0.00267679
0.0019007
0.00134104
0.000940166
0.000654961
0.000453399
0.000311896
0.000213211
0.00014484
9.77802e-05
6.56004e-05
4.3738e-05
2.89811e-05
1.90843e-05
1.24896e-05
8.1231e-06
5.25024e-06
3.37175e-06
2.15066e-06
1.36102e-06
8.51976e-07
5.23268e-07
3.07956e-07
1.60822e-07
4.98362e-08
0.360258
1.0712
1.75388
2.39093
2.96705
3.46972
3.88956
4.22063
4.46044
4.60981
4.67254
4.655
4.56555
4.41397
4.21093
3.9674
3.69421
3.40161
3.09896
2.79453
2.49535
2.20715
1.93437
1.68024
1.44687
1.23541
1.04616
0.878742
0.732278
0.605482
0.496814
0.404581
0.327026
0.262403
0.209028
0.16532
0.129827
0.10124
0.0784003
0.0602958
0.0460558
0.0349407
0.02633
0.0197089
0.0146549
0.010825
0.00794357
0.00579109
0.00419446
0.00301839
0.00215809
0.0015331
0.00108216
0.000758996
0.000528963
0.000366317
0.000252084
0.000172383
0.000117143
7.91069e-05
5.30881e-05
3.54054e-05
2.34659e-05
1.54563e-05
1.01175e-05
6.58174e-06
4.25484e-06
2.73297e-06
1.74352e-06
1.10353e-06
6.90898e-07
4.2436e-07
2.49751e-07
1.30439e-07
4.04417e-08
0.275436
0.819106
1.34149
1.8295
2.27157
2.65816
2.9821
3.23876
3.4261
3.54455
3.59683
3.58758
3.52298
3.41036
3.25774
3.07341
2.86562
2.6422
2.41036
2.17649
1.94606
1.72356
1.51249
1.31545
1.13416
0.969569
0.822009
0.691258
0.576685
0.477347
0.392087
0.31962
0.258606
0.2077
0.165604
0.131091
0.103034
0.0804129
0.0623209
0.0479659
0.0366646
0.0278356
0.02099
0.0157219
0.0116976
0.00864573
0.00634803
0.00463044
0.00335558
0.00241593
0.00172818
0.00122827
0.000867368
0.000608603
0.00042432
0.000293962
0.000202365
0.000138432
9.41017e-05
6.35667e-05
4.26715e-05
2.84661e-05
1.88715e-05
1.2433e-05
8.14035e-06
5.29661e-06
3.4247e-06
2.20017e-06
1.40386e-06
8.88644e-07
5.56415e-07
3.41786e-07
2.01179e-07
1.05068e-07
3.25619e-08
0.209651
0.623549
1.02148
1.39359
1.73117
2.02701
2.27564
2.47348
2.61887
2.71203
2.75488
2.75079
2.70435
2.62099
2.50673
2.36783
2.21051
2.04074
1.86403
1.68529
1.50875
1.3379
1.1755
1.02359
0.883565
0.756218
0.641852
0.540353
0.451276
0.37393
0.307452
0.250874
0.203176
0.163332
0.130344
0.103268
0.0812338
0.0634495
0.0492121
0.0379048
0.0289949
0.0220279
0.0166217
0.0124579
0.00927476
0.00685906
0.00503904
0.00367763
0.00266648
0.00192076
0.00137463
0.000977433
0.000690538
0.000484729
0.000338089
0.000234311
0.000161359
0.000110418
7.5083e-05
5.07347e-05
3.40673e-05
2.27323e-05
1.50741e-05
9.93352e-06
6.50523e-06
4.23357e-06
2.73785e-06
1.75921e-06
1.12265e-06
7.10756e-07
4.45078e-07
2.73435e-07
1.60974e-07
8.40874e-08
2.60333e-08
0.158851
0.472514
0.774234
1.05664
1.31318
1.53844
1.72825
1.87988
1.99201
2.0647
2.09932
2.09832
2.06507
2.00362
1.91844
1.81422
1.69567
1.56729
1.43327
1.29738
1.16285
1.03238
0.908118
0.791668
0.684135
0.586178
0.498066
0.419748
0.350914
0.291061
0.23955
0.195653
0.1586
0.127611
0.101926
0.0808212
0.0636276
0.0497367
0.0386055
0.0297569
0.0227782
0.0173168
0.0130753
0.00980606
0.00730491
0.00540542
0.00397334
0.0029014
0.00210476
0.00151688
0.0010861
0.000772621
0.000546079
0.000383483
0.000267577
0.000185512
0.000127798
8.74819e-05
5.95055e-05
4.02207e-05
2.70149e-05
1.80312e-05
1.19596e-05
7.88296e-06
5.16346e-06
3.361e-06
2.17395e-06
1.39709e-06
8.91676e-07
5.64611e-07
3.53632e-07
2.17288e-07
1.27915e-07
6.6823e-08
2.07022e-08
0.1198
0.356391
0.584085
0.797378
0.991385
1.16203
1.30617
1.42172
1.50765
1.56395
1.59157
1.5923
1.5686
1.52348
1.46024
1.3824
1.29348
1.19688
1.09576
0.992974
0.891002
0.791912
0.69736
0.608598
0.526495
0.451585
0.384102
0.324031
0.271162
0.225129
0.185461
0.151615
0.123011
0.0990619
0.0791893
0.0628435
0.0495134
0.0387334
0.0300869
0.0232074
0.0177769
0.0135236
0.0102178
0.00766773
0.00571538
0.00423164
0.00311224
0.00227382
0.00165033
0.00118996
0.000852416
0.000606656
0.00042896
0.000301358
0.000210355
0.000145894
0.000100541
6.8846e-05
4.68438e-05
3.16718e-05
2.12787e-05
1.42062e-05
9.42487e-06
6.21359e-06
4.0708e-06
2.65026e-06
1.71454e-06
1.102e-06
7.03438e-07
4.45459e-07
2.79025e-07
1.71471e-07
1.00952e-07
5.27186e-08
1.63523e-08
0.0899202
0.267528
0.438532
0.598844
0.744826
0.873432
0.982312
1.06988
1.13532
1.17861
1.2004
1.20199
1.18518
1.15217
1.10543
1.04756
0.981185
0.908849
0.832936
0.7556
0.678719
0.603871
0.532326
0.46505
0.402723
0.345771
0.294391
0.248592
0.208229
0.17304
0.14268
0.116744
0.0948008
0.0764078
0.0611294
0.0485498
0.038281
0.0299687
0.0232955
0.0179814
0.0137831
0.0104921
0.00793232
0.00595627
0.00444228
0.00329089
0.00242166
0.0017702
0.00128545
0.000927307
0.000664574
0.000473179
0.00033472
0.000235246
0.00016427
0.000113972
7.85695e-05
5.38184e-05
3.66301e-05
2.47732e-05
1.66484e-05
1.11176e-05
7.37753e-06
4.86487e-06
3.18782e-06
2.07576e-06
1.34309e-06
8.6339e-07
5.51219e-07
3.49092e-07
2.18653e-07
1.34366e-07
7.91185e-08
4.13132e-08
1.28235e-08
0.0671665
0.19985
0.327652
0.447547
0.556839
0.653264
0.735067
0.801052
0.850596
0.883643
0.90066
0.902576
0.890707
0.866667
0.832269
0.789439
0.740128
0.686233
0.629535
0.571652
0.513998
0.457771
0.403934
0.353231
0.306188
0.26314
0.22425
0.189539
0.158909
0.132173
0.109078
0.0893262
0.0725968
0.0585592
0.0468868
0.0372666
0.0294062
0.0230377
0.0179204
0.0138418
0.010617
0.00808714
0.00611783
0.00459652
0.00343013
0.00254248
0.00187192
0.00136905
0.000994637
0.000717858
0.0005147
0.000366627
0.000259454
0.00018242
0.00012743
8.84437e-05
6.09913e-05
4.1791e-05
2.84525e-05
1.92481e-05
1.29387e-05
8.64243e-06
5.73631e-06
3.78339e-06
2.47963e-06
1.61488e-06
1.04503e-06
6.71896e-07
4.29028e-07
2.71747e-07
1.70231e-07
1.04597e-07
6.16005e-08
3.21887e-08
9.97515e-09
0.0499242
0.148559
0.2436
0.332819
0.414226
0.486146
0.547276
0.596718
0.634
0.659058
0.67222
0.674153
0.665813
0.648376
0.623174
0.591625
0.55517
0.515215
0.473086
0.42999
0.386988
0.344978
0.304693
0.266695
0.231391
0.199041
0.169777
0.143625
0.12052
0.100329
0.0828678
0.0679182
0.0552425
0.0445955
0.0357337
0.0284231
0.0224442
0.0175957
0.0136966
0.0105863
0.00812517
0.00619293
0.0046877
0.00352406
0.00263129
0.00195142
0.0014375
0.00105186
0.00076456
0.00055206
0.000396
0.000282196
0.000199785
0.000140522
9.81979e-05
6.81788e-05
4.70321e-05
3.22363e-05
2.19538e-05
1.48558e-05
9.98872e-06
6.67358e-06
4.43046e-06
2.92268e-06
1.91585e-06
1.24791e-06
8.07668e-07
5.19348e-07
3.31643e-07
2.10087e-07
1.31633e-07
8.0879e-08
4.76487e-08
2.49137e-08
7.72284e-09
0.0369234
0.109881
0.180204
0.24626
0.306585
0.359946
0.40538
0.44222
0.470106
0.488981
0.499071
0.500854
0.495021
0.482427
0.464046
0.440917
0.414098
0.384627
0.353486
0.321569
0.289667
0.258452
0.228474
0.200159
0.173815
0.149645
0.127754
0.108167
0.0908427
0.0756858
0.0625639
0.0513177
0.0417726
0.0337472
0.0270611
0.0215402
0.0170211
0.0133533
0.0104012
0.00804441
0.00617806
0.00471172
0.0035686
0.00268428
0.00200535
0.001488
0.00109669
0.000802869
0.000583855
0.000421772
0.000302675
0.00021578
0.000152826
0.000107533
7.51726e-05
5.22103e-05
3.60281e-05
2.47016e-05
1.68273e-05
1.13898e-05
7.66016e-06
5.11901e-06
3.39912e-06
2.24277e-06
1.47039e-06
9.57904e-07
6.20041e-07
3.98737e-07
2.54623e-07
1.61286e-07
1.01058e-07
6.21284e-08
3.66012e-08
1.9126e-08
5.9414e-09
0.0271704
0.0808623
0.132633
0.181288
0.225758
0.265141
0.298727
0.326023
0.346758
0.360882
0.368551
0.370107
0.366048
0.356992
0.343647
0.326771
0.307139
0.285512
0.262612
0.239099
0.21556
0.192493
0.17031
0.149329
0.129784
0.11183
0.0955494
0.0809659
0.0680525
0.056743
0.0469417
0.038533
0.0313892
0.0253772
0.020364
0.0162207
0.0128264
0.0100691
0.00784809
0.00607364
0.00466736
0.00356168
0.00269912
0.00203139
0.00151841
0.00112726
0.000831231
0.000608826
0.000442951
0.000320126
0.000229829
0.000163915
0.000116138
8.17489e-05
5.71679e-05
3.97186e-05
2.74168e-05
1.88031e-05
1.28127e-05
8.67472e-06
5.83556e-06
3.90056e-06
2.59055e-06
1.70959e-06
1.12103e-06
7.30446e-07
4.72874e-07
3.04097e-07
1.94198e-07
1.23032e-07
7.70769e-08
4.7394e-08
2.79212e-08
1.45873e-08
4.51011e-09
0.0198916
0.0592036
0.0971199
0.132773
0.165384
0.194295
0.218988
0.239099
0.254426
0.264927
0.27071
0.272017
0.269206
0.262722
0.253079
0.240825
0.226526
0.210736
0.193984
0.176755
0.15948
0.142529
0.126204
0.110745
0.0963275
0.0830674
0.0710302
0.060236
0.0506678
0.0422794
0.0350025
0.0287536
0.0234397
0.0189637
0.0152279
0.0121378
0.00960415
0.00754442
0.00588397
0.00455638
0.00350348
0.00267505
0.00202834
0.00152738
0.00114227
0.000848451
0.000625944
0.000458682
0.000333865
0.000241394
0.000173377
0.000123703
8.76802e-05
6.17401e-05
4.31905e-05
3.00174e-05
2.07267e-05
1.4219e-05
9.69164e-06
6.5633e-06
4.41621e-06
2.95251e-06
1.96129e-06
1.29454e-06
8.49015e-07
5.53288e-07
3.58238e-07
2.3038e-07
1.47132e-07
9.32525e-08
5.84415e-08
3.58976e-08
2.11577e-08
1.10596e-08
3.407e-09
0.0144877
0.0431225
0.0707483
0.0967373
0.120526
0.141636