/*--------------------------------*- C++ -*----------------------------------*\
  =========                 |
  \\      /  F ield         | OpenFOAM: The Open Source CFD Toolbox
   \\    /   O peration     | Website:  https://openfoam.org
    \\  /    A nd           | Version:  10
     \\/     M anipulation  |
\*---------------------------------------------------------------------------*/
FoamFile
{
    format      ascii;
    class       volScalarField;
    location    "457";
    object      T;
}
// * * * * * * * * * * * * * * * * * * * * * * * * * * * * * * * * * * * * * //

dimensions      [0 0 0 1 0 0 0];

internalField   nonuniform List<scalar> 
11250
(
249.884
167.68
139.564
127.225
120.524
116.295
113.351
111.163
109.463
108.098
106.975
106.034
105.235
104.549
103.955
103.439
102.989
102.594
102.248
101.944
101.678
101.445
101.24
101.062
100.907
100.771
100.654
100.553
100.466
100.391
100.327
100.272
100.226
100.187
100.154
100.126
100.103
100.084
100.068
100.055
100.044
100.035
100.028
100.022
100.018
100.014
100.011
100.008
100.007
100.005
100.004
100.003
100.002
100.002
100.001
100.001
100.001
100.001
100
100
100
100
100
100
100
100
100
100
100
100
100
100
100
100
100
331.623
248.957
202.918
176.047
159.11
147.611
139.308
133.017
128.07
124.069
120.76
117.979
115.61
113.573
111.809
110.272
108.929
107.752
106.72
105.813
105.018
104.321
103.71
103.177
102.712
102.308
101.958
101.655
101.394
101.17
100.978
100.815
100.677
100.559
100.461
100.378
100.309
100.251
100.204
100.164
100.132
100.106
100.084
100.067
100.053
100.042
100.033
100.025
100.02
100.015
100.012
100.009
100.007
100.005
100.004
100.003
100.002
100.002
100.001
100.001
100.001
100.001
100
100
100
100
100
100
100
100
100
100
100
100
100
359.28
293.617
247.122
214.958
192.287
175.766
163.294
153.571
145.781
139.398
134.073
129.567
125.712
122.384
119.493
116.97
114.761
112.822
111.119
109.623
108.31
107.157
106.148
105.265
104.496
103.826
103.246
102.744
102.312
101.941
101.623
101.352
101.122
100.928
100.764
100.627
100.512
100.417
100.338
100.273
100.219
100.175
100.14
100.111
100.088
100.069
100.054
100.042
100.033
100.025
100.02
100.015
100.011
100.009
100.007
100.005
100.004
100.003
100.002
100.002
100.001
100.001
100.001
100
100
100
100
100
100
100
100
100
100
100
100
371.163
319.126
277.023
244.414
219.362
199.93
184.597
172.265
162.164
153.755
146.658
140.6
135.382
130.855
126.908
123.452
120.418
117.75
115.403
113.338
111.523
109.929
108.532
107.309
106.243
105.315
104.51
103.813
103.213
102.698
102.256
101.88
101.561
101.291
101.063
100.872
100.713
100.58
100.47
100.379
100.305
100.244
100.195
100.155
100.122
100.096
100.075
100.059
100.046
100.035
100.027
100.021
100.016
100.012
100.009
100.007
100.005
100.004
100.003
100.002
100.002
100.001
100.001
100.001
100
100
100
100
100
100
100
100
100
100
100
377.417
334.723
297.469
266.366
240.884
220.075
202.991
188.831
176.967
166.92
158.329
150.923
144.494
138.884
133.967
129.646
125.841
122.487
119.531
116.925
114.63
112.613
110.843
109.294
107.941
106.763
105.74
104.855
104.091
103.436
102.874
102.396
101.989
101.645
101.355
101.112
100.909
100.74
100.599
100.484
100.389
100.311
100.248
100.197
100.156
100.123
100.096
100.075
100.058
100.045
100.035
100.027
100.02
100.015
100.012
100.009
100.007
100.005
100.004
100.003
100.002
100.001
100.001
100.001
100.001
100
100
100
100
100
100
100
100
100
100
381.209
344.912
311.813
282.765
257.818
236.598
218.578
203.233
190.096
178.781
168.977
160.436
152.96
146.392
140.605
135.498
130.984
126.994
123.468
120.354
117.608
115.19
113.066
111.205
109.578
108.16
106.928
105.862
104.941
104.151
103.473
102.895
102.404
101.989
101.639
101.345
101.099
100.895
100.725
100.586
100.471
100.377
100.301
100.239
100.189
100.148
100.116
100.091
100.071
100.055
100.042
100.032
100.025
100.019
100.014
100.011
100.008
100.006
100.004
100.003
100.002
100.002
100.001
100.001
100.001
100
100
100
100
100
100
100
100
100
100
383.727
351.939
322.166
295.145
271.131
250.044
231.635
215.585
201.576
189.318
178.558
169.086
160.725
153.329
146.776
140.965
135.81
131.239
127.189
123.604
120.436
117.643
115.186
113.029
111.143
109.498
108.067
106.828
105.758
104.838
104.049
103.377
102.805
102.32
101.912
101.569
101.283
101.045
100.847
100.684
100.55
100.44
100.351
100.279
100.22
100.173
100.136
100.106
100.082
100.064
100.049
100.038
100.029
100.022
100.017
100.013
100.009
100.007
100.005
100.004
100.003
100.002
100.002
100.001
100.001
100.001
100
100
100
100
100
100
100
100
100
385.502
356.995
329.836
304.617
281.636
260.959
242.498
226.082
211.508
198.572
187.08
176.863
167.769
159.669
152.452
146.022
140.295
135.2
130.672
126.655
123.099
119.958
117.19
114.759
112.629
110.77
109.152
107.749
106.537
105.494
104.6
103.837
103.188
102.638
102.174
101.785
101.459
101.188
100.964
100.778
100.626
100.501
100.4
100.317
100.251
100.198
100.155
100.121
100.094
100.073
100.056
100.043
100.033
100.025
100.019
100.014
100.011
100.008
100.006
100.004
100.003
100.002
100.002
100.001
100.001
100.001
100
100
100
100
100
100
100
100
100
386.804
360.75
335.647
311.96
289.978
269.825
251.507
234.949
220.035
206.628
194.59
183.786
174.095
165.407
157.623
150.655
144.424
138.862
133.906
129.498
125.587
122.126
119.072
116.385
114.029
111.97
110.177
108.62
107.275
106.117
105.123
104.274
103.552
102.94
102.424
101.99
101.628
101.326
101.075
100.868
100.698
100.559
100.446
100.354
100.28
100.221
100.173
100.135
100.105
100.081
100.063
100.048
100.037
100.028
100.021
100.016
100.012
100.009
100.007
100.005
100.004
100.003
100.002
100.001
100.001
100.001
100.001
100
100
100
100
100
100
100
100
387.788
363.609
340.131
317.723
296.645
277.041
258.968
242.411
227.315
213.594
201.155
189.899
179.73
170.556
162.293
154.863
148.194
142.221
136.882
132.123
127.891
124.14
120.824
117.903
115.338
113.094
111.138
109.439
107.97
106.703
105.616
104.687
103.896
103.226
102.66
102.185
101.787
101.456
101.181
100.954
100.767
100.615
100.49
100.389
100.308
100.243
100.19
100.148
100.115
100.089
100.069
100.053
100.04
100.031
100.023
100.018
100.013
100.01
100.007
100.005
100.004
100.003
100.002
100.002
100.001
100.001
100.001
100
100
100
100
100
100
100
100
388.547
365.826
343.642
322.294
302.008
282.932
265.147
248.676
233.503
219.584
206.86
195.26
184.711
175.142
166.479
158.657
151.61
145.277
139.602
134.53
130.011
125.998
122.445
119.31
116.554
114.141
112.034
110.204
108.619
107.252
106.078
105.074
104.22
103.495
102.883
102.368
101.937
101.578
101.281
101.035
100.832
100.667
100.532
100.423
100.334
100.263
100.206
100.161
100.125
100.097
100.075
100.057
100.044
100.033
100.025
100.019
100.014
100.011
100.008
100.006
100.004
100.003
100.002
100.002
100.001
100.001
100.001
100
100
100
100
100
100
100
100
389.141
367.57
346.425
325.952
306.348
287.756
270.267
253.927
238.748
224.713
211.79
199.932
189.087
179.197
170.205
162.052
154.681
148.038
142.068
136.721
131.947
127.699
123.932
120.605
117.676
115.107
112.864
110.913
109.222
107.762
106.508
105.435
104.521
103.746
103.09
102.539
102.078
101.693
101.374
101.11
100.894
100.716
100.571
100.454
100.359
100.283
100.222
100.173
100.135
100.104
100.08
100.062
100.047
100.036
100.027
100.02
100.015
100.011
100.009
100.006
100.005
100.003
100.003
100.002
100.001
100.001
100.001
100
100
100
100
100
100
100
100
389.613
368.958
348.652
328.901
309.878
291.717
274.513
258.326
243.183
229.09
216.032
203.984
192.908
182.762
173.498
165.069
157.424
150.514
144.289
138.701
133.702
129.246
125.289
121.788
118.703
115.995
113.627
111.565
109.778
108.234
106.906
105.77
104.801
103.978
103.283
102.699
102.209
101.8
101.461
101.181
100.951
100.762
100.608
100.483
100.382
100.301
100.236
100.184
100.143
100.111
100.086
100.066
100.05
100.038
100.029
100.022
100.016
100.012
100.009
100.007
100.005
100.004
100.003
100.002
100.001
100.001
100.001
100.001
100
100
100
100
100
100
100
389.991
370.073
350.447
331.292
312.761
294.978
278.038
262.007
246.926
232.812
219.669
207.482
196.229
185.878
176.394
167.735
159.86
152.722
146.277
140.479
135.283
130.644
126.518
122.863
119.638
116.804
114.324
112.163
110.287
108.667
107.272
106.078
105.059
104.193
103.462
102.846
102.33
101.899
101.542
101.247
101.004
100.804
100.642
100.51
100.404
100.318
100.25
100.195
100.152
100.117
100.09
100.069
100.053
100.04
100.031
100.023
100.017
100.013
100.01
100.007
100.005
100.004
100.003
100.002
100.001
100.001
100.001
100.001
100
100
100
100
100
100
100
390.296
370.973
351.903
333.241
315.124
297.668
280.966
265.087
250.08
235.971
222.775
210.489
199.1
188.589
178.926
170.078
162.009
154.678
148.045
142.066
136.699
131.899
127.624
123.833
120.484
117.538
114.957
112.707
110.752
109.062
107.606
106.359
105.295
104.39
103.625
102.981
102.441
101.991
101.616
101.307
101.052
100.844
100.673
100.535
100.424
100.334
100.262
100.205
100.159
100.123
100.095
100.073
100.056
100.042
100.032
100.024
100.018
100.014
100.01
100.008
100.006
100.004
100.003
100.002
100.002
100.001
100.001
100.001
100
100
100
100
100
100
100
390.543
371.705
353.089
334.834
317.065
299.89
283.399
267.663
252.733
238.646
225.42
213.064
201.574
190.935
181.128
172.125
163.895
156.402
149.609
143.475
137.959
133.019
128.614
124.703
121.244
118.199
115.529
113.198
111.173
109.42
107.91
106.615
105.51
104.57
103.775
103.105
102.543
102.074
101.685
101.362
101.097
100.88
100.702
100.558
100.442
100.348
100.273
100.214
100.166
100.129
100.099
100.076
100.058
100.044
100.034
100.025
100.019
100.014
100.011
100.008
100.006
100.004
100.003
100.002
100.002
100.001
100.001
100.001
100
100
100
100
100
100
100
390.745
372.302
354.058
336.14
318.663
301.728
285.421
269.815
254.962
240.904
227.667
215.263
203.696
192.958
183.035
173.905
165.542
157.913
150.983
144.717
139.073
134.013
129.495
125.479
121.924
118.791
116.041
113.64
111.551
109.743
108.184
106.847
105.704
104.732
103.91
103.217
102.636
102.15
101.747
101.413
101.138
100.913
100.729
100.579
100.459
100.362
100.284
100.222
100.172
100.134
100.103
100.079
100.06
100.046
100.035
100.026
100.02
100.015
100.011
100.008
100.006
100.004
100.003
100.002
100.002
100.001
100.001
100.001
100
100
100
100
100
100
100
390.909
372.79
354.853
337.214
319.98
303.249
287.102
271.611
256.832
242.808
229.57
217.134
205.51
194.695
184.679
175.446
166.972
159.229
152.186
145.807
140.054
134.89
130.274
126.167
122.527
119.317
116.499
114.035
111.89
110.033
108.43
107.055
105.879
104.879
104.032
103.318
102.719
102.219
101.803
101.459
101.175
100.942
100.753
100.599
100.474
100.374
100.293
100.229
100.178
100.138
100.107
100.082
100.063
100.048
100.036
100.027
100.02
100.015
100.011
100.008
100.006
100.005
100.003
100.002
100.002
100.001
100.001
100.001
100
100
100
100
100
100
100
391.044
373.19
355.505
338.097
321.067
304.507
288.498
273.11
258.399
244.41
231.177
218.721
207.055
196.18
186.091
176.774
168.209
160.372
153.232
146.758
140.913
135.66
130.96
126.773
123.061
119.784
116.904
114.386
112.192
110.291
108.65
107.241
106.036
105.011
104.142
103.409
102.794
102.281
101.853
101.5
101.208
100.969
100.774
100.616
100.488
100.384
100.302
100.236
100.184
100.142
100.11
100.084
100.064
100.049
100.037
100.028
100.021
100.016
100.012
100.009
100.006
100.005
100.003
100.003
100.002
100.001
100.001
100.001
100
100
100
100
100
100
100
391.155
373.518
356.041
338.824
321.964
305.549
289.658
274.358
259.708
245.754
232.531
220.063
208.366
197.446
187.298
177.913
169.274
161.358
154.139
147.584
141.661
136.332
131.559
127.305
123.53
120.195
117.262
114.696
112.459
110.52
108.845
107.406
106.176
105.128
104.24
103.491
102.862
102.336
101.899
101.537
101.238
100.994
100.794
100.631
100.5
100.394
100.31
100.242
100.188
100.146
100.113
100.086
100.066
100.05
100.038
100.029
100.022
100.016
100.012
100.009
100.007
100.005
100.004
100.003
100.002
100.001
100.001
100.001
100
100
100
100
100
100
100
391.246
373.788
356.481
339.423
322.704
306.411
290.619
275.397
260.801
246.88
233.669
221.195
209.476
198.52
188.326
178.886
170.186
162.206
154.92
148.298
142.308
136.915
132.081
127.769
123.939
120.554
117.576
114.968
112.694
110.721
109.017
107.552
106.299
105.231
104.326
103.563
102.921
102.385
101.939
101.57
101.265
101.015
100.811
100.645
100.511
100.403
100.316
100.247
100.193
100.149
100.115
100.088
100.068
100.051
100.039
100.029
100.022
100.017
100.012
100.009
100.007
100.005
100.004
100.003
100.002
100.001
100.001
100.001
100.001
100
100
100
100
100
100
391.32
374.009
356.843
339.916
323.315
307.123
291.416
276.26
261.712
247.82
234.622
222.146
210.412
199.428
189.198
179.714
170.965
162.931
155.59
148.912
142.867
137.419
132.533
128.171
124.296
120.868
117.85
115.206
112.9
110.898
109.168
107.681
106.408
105.323
104.403
103.626
102.974
102.429
101.975
101.599
101.289
101.034
100.826
100.658
100.521
100.411
100.323
100.252
100.196
100.152
100.117
100.09
100.069
100.052
100.04
100.03
100.023
100.017
100.013
100.009
100.007
100.005
100.004
100.003
100.002
100.001
100.001
100.001
100.001
100
100
100
100
100
100
391.381
374.191
357.141
340.321
323.818
307.711
292.075
276.975
262.469
248.604
235.419
222.944
211.198
200.194
189.935
180.416
171.627
163.55
156.162
149.438
143.346
137.853
132.923
128.519
124.604
121.139
118.088
115.413
113.079
111.052
109.3
107.793
106.503
105.403
104.47
103.682
103.021
102.467
102.006
101.624
101.31
101.051
100.84
100.668
100.53
100.418
100.328
100.257
100.2
100.155
100.119
100.092
100.07
100.053
100.04
100.031
100.023
100.017
100.013
100.009
100.007
100.005
100.004
100.003
100.002
100.001
100.001
100.001
100.001
100
100
100
100
100
100
391.432
374.34
357.385
340.654
324.231
308.196
292.619
277.567
263.097
249.256
236.083
223.61
211.857
200.837
190.555
181.008
172.186
164.074
156.649
149.886
143.755
138.224
133.257
128.818
124.869
121.374
118.293
115.592
113.234
111.186
109.415
107.891
106.586
105.473
104.529
103.731
103.061
102.501
102.034
101.647
101.328
101.066
100.852
100.678
100.537
100.424
100.333
100.26
100.203
100.157
100.121
100.093
100.071
100.054
100.041
100.031
100.023
100.017
100.013
100.01
100.007
100.005
100.004
100.003
100.002
100.001
100.001
100.001
100.001
100
100
100
100
100
100
391.473
374.463
357.586
340.928
324.572
308.595
293.068
278.056
263.616
249.796
236.636
224.165
212.407
201.376
191.076
181.507
172.658
164.517
157.061
150.266
144.103
138.54
133.542
129.073
125.096
121.574
118.47
115.746
113.368
111.302
109.514
107.976
106.657
105.533
104.58
103.774
103.096
102.53
102.058
101.667
101.344
101.079
100.863
100.687
100.544
100.429
100.337
100.264
100.205
100.159
100.123
100.094
100.072
100.055
100.042
100.031
100.024
100.018
100.013
100.01
100.007
100.005
100.004
100.003
100.002
100.001
100.001
100.001
100.001
100
100
100
100
100
100
391.506
374.563
357.75
341.152
324.851
308.922
293.437
278.459
264.045
250.243
237.093
224.626
212.865
201.825
191.511
181.924
173.055
164.889
157.408
150.587
144.398
138.808
133.784
129.291
125.29
121.746
118.621
115.878
113.483
111.401
109.6
108.049
106.719
105.586
104.624
103.811
103.127
102.555
102.079
101.684
101.358
101.09
100.872
100.694
100.55
100.434
100.341
100.267
100.208
100.161
100.124
100.095
100.073
100.056
100.042
100.032
100.024
100.018
100.013
100.01
100.007
100.005
100.004
100.003
100.002
100.001
100.001
100.001
100.001
100
100
100
100
100
100
391.534
374.645
357.884
341.335
325.079
309.191
293.74
278.791
264.399
250.612
237.472
225.008
213.245
202.198
191.874
182.272
173.386
165.202
157.7
150.857
144.646
139.034
133.989
129.475
125.455
121.892
118.749
115.991
113.581
111.486
109.672
108.111
106.772
105.631
104.661
103.842
103.153
102.577
102.097
101.698
101.37
101.1
100.88
100.7
100.555
100.438
100.344
100.269
100.209
100.162
100.125
100.096
100.074
100.056
100.043
100.032
100.024
100.018
100.013
100.01
100.007
100.005
100.004
100.003
100.002
100.002
100.001
100.001
100.001
100
100
100
100
100
100
391.556
374.711
357.993
341.485
325.266
309.411
293.988
279.063
264.689
250.916
237.783
225.323
213.559
202.507
192.175
182.562
173.662
165.462
157.944
151.083
144.854
139.224
134.161
129.63
125.593
122.015
118.858
116.086
113.664
111.558
109.734
108.164
106.818
105.669
104.694
103.869
103.176
102.596
102.112
101.711
101.38
101.108
100.886
100.706
100.559
100.441
100.347
100.271
100.211
100.164
100.126
100.097
100.074
100.057
100.043
100.032
100.024
100.018
100.014
100.01
100.007
100.005
100.004
100.003
100.002
100.002
100.001
100.001
100.001
100
100
100
100
100
100
391.574
374.766
358.083
341.607
325.418
309.59
294.191
279.285
264.927
251.165
238.039
225.582
213.818
202.763
192.424
182.802
173.891
165.679
158.147
151.272
145.028
139.383
134.306
129.76
125.71
122.119
118.95
116.167
113.734
111.619
109.787
108.209
106.856
105.702
104.721
103.892
103.195
102.612
102.125
101.722
101.389
101.116
100.892
100.71
100.563
100.444
100.349
100.273
100.213
100.165
100.127
100.098
100.075
100.057
100.043
100.033
100.025
100.018
100.014
100.01
100.007
100.006
100.004
100.003
100.002
100.002
100.001
100.001
100.001
100
100
100
100
100
100
391.589
374.81
358.155
341.706
325.542
309.736
294.356
279.466
265.121
251.368
238.249
225.795
214.031
202.973
192.629
183
174.08
165.858
158.315
151.429
145.172
139.516
134.426
129.869
125.807
122.206
119.027
116.234
113.793
111.67
109.831
108.247
106.889
105.729
104.744
103.912
103.211
102.625
102.136
101.731
101.397
101.122
100.897
100.714
100.566
100.447
100.351
100.275
100.214
100.166
100.128
100.098
100.075
100.057
100.043
100.033
100.025
100.018
100.014
100.01
100.008
100.006
100.004
100.003
100.002
100.002
100.001
100.001
100.001
100
100
100
100
100
100
391.601
374.845
358.214
341.787
325.643
309.854
294.491
279.614
265.279
251.534
238.42
225.969
214.205
203.145
192.797
183.163
174.236
166.006
158.454
151.558
145.292
139.626
134.526
129.959
125.889
122.278
119.091
116.291
113.843
111.713
109.868
108.279
106.916
105.752
104.764
103.928
103.225
102.636
102.146
101.739
101.403
101.127
100.901
100.718
100.569
100.449
100.353
100.276
100.215
100.167
100.129
100.099
100.076
100.058
100.044
100.033
100.025
100.019
100.014
100.01
100.008
100.006
100.004
100.003
100.002
100.002
100.001
100.001
100.001
100
100
100
100
100
100
391.611
374.874
358.261
341.852
325.724
309.95
294.599
279.733
265.407
251.669
238.559
226.11
214.347
203.285
192.935
183.296
174.364
166.127
158.568
151.665
145.391
139.716
134.609
130.034
125.956
122.338
119.144
116.338
113.884
111.749
109.9
108.306
106.939
105.772
104.78
103.942
103.237
102.646
102.154
101.745
101.408
101.131
100.905
100.721
100.571
100.451
100.354
100.277
100.216
100.167
100.129
100.099
100.076
100.058
100.044
100.033
100.025
100.019
100.014
100.01
100.008
100.006
100.004
100.003
100.002
100.002
100.001
100.001
100.001
100
100
100
100
100
100
391.619
374.897
358.299
341.904
325.789
310.028
294.687
279.83
265.511
251.778
238.672
226.225
214.462
203.4
193.047
183.404
174.468
166.226
158.662
151.752
145.472
139.791
134.677
130.096
126.012
122.388
119.188
116.377
113.918
111.778
109.925
108.328
106.958
105.788
104.794
103.954
103.246
102.654
102.16
101.751
101.413
101.135
100.908
100.723
100.573
100.452
100.356
100.278
100.217
100.168
100.13
100.1
100.076
100.058
100.044
100.033
100.025
100.019
100.014
100.01
100.008
100.006
100.004
100.003
100.002
100.002
100.001
100.001
100.001
100
100
100
100
100
100
391.625
374.916
358.33
341.946
325.842
310.09
294.758
279.908
265.594
251.866
238.763
226.318
214.556
203.492
193.138
183.493
174.553
166.307
158.738
151.824
145.538
139.852
134.733
130.146
126.057
122.429
119.225
116.409
113.946
111.803
109.947
108.346
106.973
105.801
104.805
103.963
103.254
102.661
102.166
101.755
101.417
101.138
100.91
100.725
100.575
100.454
100.357
100.279
100.217
100.168
100.13
100.1
100.077
100.058
100.044
100.033
100.025
100.019
100.014
100.01
100.008
100.006
100.004
100.003
100.002
100.002
100.001
100.001
100.001
100
100
100
100
100
100
391.63
374.931
358.354
341.98
325.884
310.14
294.815
279.97
265.662
251.937
238.837
226.393
214.631
203.567
193.211
183.564
174.622
166.373
158.8
151.882
145.592
139.902
134.778
130.188
126.094
122.462
119.254
116.435
113.969
111.823
109.964
108.361
106.986
105.812
104.815
103.971
103.261
102.666
102.171
101.759
101.42
101.141
100.912
100.727
100.576
100.455
100.357
100.28
100.218
100.169
100.13
100.1
100.077
100.058
100.044
100.033
100.025
100.019
100.014
100.01
100.008
100.006
100.004
100.003
100.002
100.002
100.001
100.001
100.001
100
100
100
100
100
100
391.634
374.943
358.374
342.007
325.918
310.18
294.86
280.02
265.716
251.994
238.896
226.453
214.692
203.628
193.27
183.622
174.678
166.426
158.85
151.929
145.636
139.942
134.815
130.222
126.125
122.489
119.279
116.457
113.988
111.84
109.978
108.374
106.997
105.821
104.822
103.978
103.267
102.671
102.174
101.762
101.422
101.143
100.914
100.728
100.577
100.456
100.358
100.28
100.218
100.169
100.131
100.1
100.077
100.059
100.044
100.034
100.025
100.019
100.014
100.01
100.008
100.006
100.004
100.003
100.002
100.002
100.001
100.001
100.001
100
100
100
100
100
100
391.637
374.952
358.39
342.028
325.945
310.212
294.896
280.06
265.759
252.039
238.943
226.501
214.74
203.676
193.318
183.668
174.722
166.468
158.891
151.967
145.671
139.975
134.845
130.249
126.15
122.511
119.298
116.474
114.004
111.853
109.99
108.384
107.006
105.829
104.829
103.983
103.271
102.675
102.177
101.765
101.424
101.144
100.915
100.729
100.578
100.456
100.359
100.281
100.219
100.17
100.131
100.101
100.077
100.059
100.045
100.034
100.025
100.019
100.014
100.01
100.008
100.006
100.004
100.003
100.002
100.002
100.001
100.001
100.001
100
100
100
100
100
100
391.64
374.96
358.402
342.046
325.966
310.237
294.925
280.092
265.793
252.075
238.98
226.54
214.779
203.715
193.356
183.705
174.758
166.503
158.923
151.997
145.7
140.001
134.87
130.271
126.169
122.529
119.314
116.488
114.016
111.864
110
108.392
107.013
105.835
104.834
103.987
103.275
102.678
102.18
101.767
101.426
101.146
100.917
100.73
100.579
100.457
100.359
100.281
100.219
100.17
100.131
100.101
100.077
100.059
100.045
100.034
100.025
100.019
100.014
100.01
100.008
100.006
100.004
100.003
100.002
100.002
100.001
100.001
100.001
100
100
100
100
100
100
391.642
374.966
358.412
342.059
325.983
310.257
294.948
280.117
265.82
252.104
239.01
226.57
214.81
203.745
193.386
183.735
174.787
166.53
158.949
152.022
145.722
140.022
134.889
130.288
126.185
122.544
119.327
116.5
114.026
111.873
110.007
108.399
107.019
105.84
104.838
103.991
103.278
102.68
102.182
101.769
101.427
101.147
100.918
100.731
100.579
100.457
100.36
100.281
100.219
100.17
100.131
100.101
100.077
100.059
100.045
100.034
100.025
100.019
100.014
100.01
100.008
100.006
100.004
100.003
100.002
100.002
100.001
100.001
100.001
100
100
100
100
100
100
391.643
374.971
358.42
342.07
325.997
310.273
294.966
280.137
265.841
252.127
239.034
226.594
214.834
203.77
193.41
183.758
174.809
166.552
158.97
152.041
145.741
140.039
134.904
130.303
126.198
122.555
119.337
116.509
114.034
111.88
110.014
108.404
107.023
105.844
104.841
103.994
103.28
102.682
102.184
101.77
101.429
101.148
100.918
100.731
100.58
100.458
100.36
100.282
100.219
100.17
100.131
100.101
100.077
100.059
100.045
100.034
100.025
100.019
100.014
100.01
100.008
100.006
100.004
100.003
100.002
100.002
100.001
100.001
100.001
100
100
100
100
100
100
391.645
374.974
358.426
342.078
326.007
310.285
294.98
280.153
265.858
252.145
239.052
226.614
214.853
203.789
193.429
183.777
174.827
166.569
158.986
152.056
145.755
140.052
134.917
130.314
126.208
122.564
119.346
116.516
114.041
111.886
110.018
108.408
107.027
105.847
104.844
103.996
103.282
102.684
102.185
101.771
101.43
101.149
100.919
100.732
100.58
100.458
100.36
100.282
100.22
100.17
100.131
100.101
100.077
100.059
100.045
100.034
100.025
100.019
100.014
100.01
100.008
100.006
100.004
100.003
100.002
100.002
100.001
100.001
100.001
100
100
100
100
100
100
391.646
374.977
358.431
342.085
326.015
310.295
294.991
280.165
265.872
252.159
239.067
226.628
214.869
203.804
193.444
183.792
174.841
166.583
158.999
152.069
145.766
140.063
134.926
130.323
126.216
122.572
119.352
116.522
114.046
111.89
110.022
108.412
107.03
105.849
104.846
103.998
103.283
102.685
102.186
101.772
101.43
101.149
100.919
100.732
100.581
100.458
100.36
100.282
100.22
100.17
100.132
100.101
100.077
100.059
100.045
100.034
100.025
100.019
100.014
100.011
100.008
100.006
100.004
100.003
100.002
100.002
100.001
100.001
100.001
100
100
100
100
100
100
391.646
374.98
358.434
342.09
326.022
310.303
295
280.175
265.882
252.17
239.078
226.64
214.88
203.816
193.456
183.803
174.852
166.593
159.009
152.078
145.775
140.071
134.934
130.33
126.223
122.577
119.357
116.527
114.05
111.894
110.026
108.415
107.032
105.851
104.848
103.999
103.285
102.686
102.187
101.773
101.431
101.15
100.92
100.733
100.581
100.459
100.36
100.282
100.22
100.17
100.132
100.101
100.077
100.059
100.045
100.034
100.025
100.019
100.014
100.011
100.008
100.006
100.004
100.003
100.002
100.002
100.001
100.001
100.001
100
100
100
100
100
100
391.647
374.981
358.437
342.094
326.027
310.309
295.007
280.182
265.89
252.178
239.087
226.649
214.89
203.825
193.465
183.812
174.861
166.602
159.017
152.086
145.782
140.078
134.94
130.335
126.228
122.582
119.361
116.53
114.053
111.897
110.028
108.417
107.034
105.853
104.849
104
103.286
102.687
102.188
101.773
101.431
101.15
100.92
100.733
100.581
100.459
100.361
100.282
100.22
100.171
100.132
100.101
100.077
100.059
100.045
100.034
100.025
100.019
100.014
100.011
100.008
100.006
100.004
100.003
100.002
100.002
100.001
100.001
100.001
100
100
100
100
100
100
391.647
374.983
358.439
342.097
326.031
310.313
295.012
280.188
265.896
252.185
239.094
226.656
214.897
203.832
193.472
183.819
174.868
166.608
159.023
152.092
145.788
140.083
134.945
130.34
126.232
122.586
119.365
116.533
114.056
111.899
110.03
108.418
107.035
105.854
104.85
104.001
103.286
102.688
102.188
101.774
101.432
101.15
100.92
100.733
100.581
100.459
100.361
100.282
100.22
100.171
100.132
100.101
100.077
100.059
100.045
100.034
100.025
100.019
100.014
100.011
100.008
100.006
100.004
100.003
100.002
100.002
100.001
100.001
100.001
100
100
100
100
100
100
391.648
374.984
358.441
342.099
326.034
310.317
295.016
280.192
265.901
252.19
239.099
226.662
214.902
203.838
193.478
183.824
174.873
166.613
159.028
152.096
145.792
140.087
134.948
130.343
126.235
122.588
119.367
116.535
114.058
111.901
110.031
108.42
107.037
105.855
104.851
104.002
103.287
102.688
102.189
101.774
101.432
101.151
100.921
100.733
100.581
100.459
100.361
100.282
100.22
100.171
100.132
100.101
100.078
100.059
100.045
100.034
100.025
100.019
100.014
100.011
100.008
100.006
100.004
100.003
100.002
100.002
100.001
100.001
100.001
100
100
100
100
100
100
391.648
374.984
358.442
342.101
326.036
310.32
295.019
280.196
265.905
252.194
239.103
226.666
214.907
203.842
193.482
183.829
174.877
166.617
159.032
152.1
145.795
140.09
134.951
130.345
126.237
122.59
119.369
116.537
114.059
111.902
110.033
108.421
107.037
105.856
104.852
104.003
103.288
102.688
102.189
101.774
101.432
101.151
100.921
100.733
100.582
100.459
100.361
100.282
100.22
100.171
100.132
100.101
100.078
100.059
100.045
100.034
100.025
100.019
100.014
100.011
100.008
100.006
100.004
100.003
100.002
100.002
100.001
100.001
100.001
100
100
100
100
100
100
391.648
374.985
358.443
342.102
326.038
310.322
295.021
280.198
265.908
252.197
239.107
226.669
214.91
203.845
193.485
183.832
174.88
166.62
159.034
152.102
145.798
140.092
134.953
130.348
126.239
122.592
119.371
116.538
114.06
111.903
110.034
108.422
107.038
105.857
104.852
104.003
103.288
102.689
102.189
101.775
101.432
101.151
100.921
100.733
100.582
100.459
100.361
100.282
100.22
100.171
100.132
100.101
100.078
100.059
100.045
100.034
100.025
100.019
100.014
100.011
100.008
100.006
100.004
100.003
100.002
100.002
100.001
100.001
100.001
100
100
100
100
100
100
391.648
374.986
358.444
342.103
326.039
310.323
295.023
280.2
265.91
252.199
239.109
226.672
214.912
203.848
193.488
183.834
174.883
166.622
159.037
152.104
145.8
140.094
134.955
130.349
126.24
122.593
119.372
116.539
114.061
111.904
110.034
108.422
107.039
105.857
104.853
104.003
103.288
102.689
102.189
101.775
101.433
101.151
100.921
100.734
100.582
100.459
100.361
100.282
100.22
100.171
100.132
100.101
100.078
100.059
100.045
100.034
100.025
100.019
100.014
100.011
100.008
100.006
100.004
100.003
100.002
100.002
100.001
100.001
100.001
100
100
100
100
100
100
391.648
374.986
358.445
342.104
326.04
310.324
295.025
280.202
265.912
252.201
239.111
226.674
214.914
203.85
193.49
183.836
174.884
166.624
159.038
152.106
145.801
140.096
134.956
130.35
126.242
122.594
119.373
116.54
114.062
111.904
110.035
108.423
107.039
105.857
104.853
104.004
103.288
102.689
102.19
101.775
101.433
101.151
100.921
100.734
100.582
100.459
100.361
100.282
100.22
100.171
100.132
100.101
100.078
100.059
100.045
100.034
100.025
100.019
100.014
100.011
100.008
100.006
100.004
100.003
100.002
100.002
100.001
100.001
100.001
100
100
100
100
100
100
391.649
374.986
358.445
342.105
326.041
310.325
295.026
280.203
265.913
252.202
239.112
226.675
214.916
203.851
193.491
183.838
174.886
166.625
159.04
152.107
145.803
140.097
134.957
130.351
126.242
122.595
119.373
116.541
114.063
111.905
110.035
108.423
107.039
105.858
104.853
104.004
103.289
102.689
102.19
101.775
101.433
101.151
100.921
100.734
100.582
100.459
100.361
100.282
100.22
100.171
100.132
100.101
100.078
100.059
100.045
100.034
100.025
100.019
100.014
100.011
100.008
100.006
100.004
100.003
100.002
100.002
100.001
100.001
100.001
100
100
100
100
100
100
391.649
374.986
358.446
342.105
326.041
310.326
295.026
280.204
265.914
252.203
239.113
226.676
214.917
203.852
193.492
183.839
174.887
166.626
159.041
152.108
145.803
140.097
134.958
130.352
126.243
122.596
119.374
116.541
114.063
111.905
110.036
108.423
107.04
105.858
104.854
104.004
103.289
102.689
102.19
101.775
101.433
101.151
100.921
100.734
100.582
100.459
100.361
100.283
100.22
100.171
100.132
100.101
100.078
100.059
100.045
100.034
100.025
100.019
100.014
100.011
100.008
100.006
100.004
100.003
100.002
100.002
100.001
100.001
100.001
100
100