/*--------------------------------*- C++ -*----------------------------------*\
  =========                 |
  \\      /  F ield         | OpenFOAM: The Open Source CFD Toolbox
   \\    /   O peration     | Website:  https://openfoam.org
    \\  /    A nd           | Version:  10
     \\/     M anipulation  |
\*---------------------------------------------------------------------------*/
FoamFile
{
    format      ascii;
    class       volScalarField;
    location    "312";
    object      gradTz;
}
// * * * * * * * * * * * * * * * * * * * * * * * * * * * * * * * * * * * * * //

dimensions      [0 -1 0 1 0 0 0];

internalField   nonuniform List<scalar> 
11250
(
-14349.4
-4144.94
-1524.71
-721.217
-416.594
-275.062
-197.766
-150.319
-118.649
-96.1504
-79.3799
-66.395
-56.0327
-47.5638
-40.5131
-34.5604
-29.4837
-25.1239
-21.3638
-18.1143
-15.3052
-12.8798
-10.7906
-8.99694
-7.46326
-6.15801
-5.05292
-4.12247
-3.34368
-2.69581
-2.16027
-1.72044
-1.36162
-1.07085
-0.836815
-0.649749
-0.501254
-0.384197
-0.292565
-0.221336
-0.166356
-0.124215
-0.0921409
-0.0679005
-0.0497087
-0.0361517
-0.0261193
-0.0187469
-0.013367
-0.0094684
-0.0066628
-0.00465775
-0.00323472
-0.00223172
-0.00152963
-0.00104155
-0.000704566
-0.000473492
-0.000316121
-0.000209675
-0.000138163
-9.04458e-05
-5.88218e-05
-3.80051e-05
-2.43948e-05
-1.55565e-05
-9.85605e-06
-6.20461e-06
-3.88225e-06
-2.41658e-06
-1.50025e-06
-9.35405e-07
-5.96583e-07
-4.06736e-07
-3.21817e-07
-8252.43
-4850.2
-2757.03
-1664.47
-1086.4
-760.696
-563.231
-435.003
-346.639
-282.629
-234.302
-196.55
-166.229
-141.33
-120.527
-102.915
-87.8637
-74.9162
-63.7353
-54.0625
-45.694
-38.4636
-32.232
-26.8796
-22.3013
-18.4038
-15.103
-12.3233
-9.99625
-8.06009
-6.45938
-5.14462
-4.07188
-3.2025
-2.50273
-1.94334
-1.49927
-1.14919
-0.875132
-0.662091
-0.49764
-0.371588
-0.275646
-0.203134
-0.148714
-0.108157
-0.078144
-0.0560882
-0.0399929
-0.028329
-0.019935
-0.0139361
-0.00967849
-0.00667753
-0.00457686
-0.00311649
-0.0021082
-0.00141679
-0.000945913
-0.000627404
-0.000413424
-0.000270643
-0.000176015
-0.000113725
-7.29989e-05
-4.65516e-05
-2.94935e-05
-1.8567e-05
-1.16175e-05
-7.23162e-06
-4.48952e-06
-2.79915e-06
-1.7853e-06
-1.21726e-06
-9.63081e-07
-5556.55
-4245.35
-2987.74
-2092.27
-1502.97
-1117.33
-858.803
-679.291
-549.866
-453.146
-378.493
-319.235
-271.074
-231.172
-197.606
-169.04
-144.527
-123.374
-105.06
-89.1856
-75.4291
-63.5281
-53.2602
-44.4332
-36.8775
-30.4413
-24.9879
-20.3934
-16.5456
-13.3432
-10.6949
-8.51915
-6.74358
-5.30434
-4.1457
-3.21938
-2.48391
-1.90406
-1.45008
-1.09714
-0.824676
-0.615817
-0.456838
-0.336676
-0.246489
-0.179275
-0.129531
-0.0929746
-0.0662963
-0.0469623
-0.0330481
-0.0231038
-0.0160457
-0.0110707
-0.00758817
-0.00516706
-0.00349541
-0.00234909
-0.00156838
-0.00104029
-0.000685505
-0.000448764
-0.000291862
-0.000188577
-0.000121047
-7.71933e-05
-4.89077e-05
-3.07891e-05
-1.92652e-05
-1.19923e-05
-7.44514e-06
-4.64199e-06
-2.9607e-06
-2.01869e-06
-1.59724e-06
-4170.08
-3585.15
-2854.62
-2212.33
-1714.46
-1345.56
-1074.28
-872.607
-719.713
-601.13
-507.03
-430.759
-367.78
-314.962
-270.11
-231.659
-198.474
-169.707
-144.713
-122.985
-104.113
-87.755
-73.6205
-61.4541
-51.0289
-42.1407
-34.6041
-28.2505
-22.9268
-18.4939
-14.8266
-11.8126
-9.35228
-7.35746
-5.75118
-4.4667
-3.44669
-2.64236
-2.01255
-1.52284
-1.14475
-0.854897
-0.634241
-0.467446
-0.34225
-0.248936
-0.179873
-0.129115
-0.0920707
-0.0652229
-0.0459002
-0.0320897
-0.0222873
-0.0153776
-0.0105405
-0.00717765
-0.00485565
-0.00326333
-0.00217884
-0.00144523
-0.000952364
-0.000623476
-0.000405498
-0.000262005
-0.000168184
-0.000107255
-6.79551e-05
-4.27808e-05
-2.67691e-05
-1.66636e-05
-1.03454e-05
-6.45045e-06
-4.11426e-06
-2.80527e-06
-2.2196e-06
-3366.04
-3068.08
-2630.92
-2185.77
-1794.99
-1474.4
-1218.65
-1015.92
-854.312
-723.984
-617.377
-528.905
-454.492
-391.178
-336.803
-289.774
-248.897
-213.264
-182.165
-155.033
-131.399
-110.865
-93.0871
-77.7601
-64.6092
-53.3845
-43.8578
-35.82
-29.0804
-23.4652
-18.8175
-14.9961
-11.8754
-9.34436
-7.30565
-5.67495
-4.3797
-3.35811
-2.55802
-1.93581
-1.45535
-1.08695
-0.806475
-0.594435
-0.435261
-0.316611
-0.228788
-0.164237
-0.117123
-0.0829742
-0.0583955
-0.0408274
-0.0283571
-0.0195665
-0.0134123
-0.00913356
-0.00617904
-0.00415288
-0.00277285
-0.00183931
-0.00121208
-0.000793525
-0.000516109
-0.000333483
-0.000214071
-0.000136522
-8.65004e-05
-5.44572e-05
-3.40762e-05
-2.12127e-05
-1.317e-05
-8.21179e-06
-5.23781e-06
-3.57146e-06
-2.82591e-06
-2856.77
-2687.1
-2412.22
-2102.05
-1802.77
-1536.15
-1308.08
-1116.53
-956.438
-822.292
-709.132
-612.878
-530.314
-458.958
-396.907
-342.702
-295.214
-253.554
-217.008
-184.991
-157.007
-132.627
-111.471
-93.1976
-77.4935
-64.0718
-52.6675
-43.0365
-34.9543
-28.2159
-22.635
-18.044
-14.293
-11.2494
-8.79706
-6.83484
-5.27583
-4.04589
-3.08241
-2.33298
-1.75417
-1.31029
-0.972289
-0.716726
-0.524856
-0.381816
-0.275929
-0.198092
-0.141276
-0.100092
-0.070447
-0.0492562
-0.0342133
-0.0236084
-0.0161838
-0.0110214
-0.00745652
-0.00501167
-0.00334639
-0.00221983
-0.0014629
-0.000957761
-0.000622948
-0.00040253
-0.000258403
-0.000164798
-0.00010442
-6.57403e-05
-4.11377e-05
-2.56093e-05
-1.59001e-05
-9.9144e-06
-6.32399e-06
-4.3122e-06
-3.41212e-06
-2513.32
-2407.55
-2225.22
-2004.06
-1774.82
-1556.62
-1358.69
-1183.78
-1031.18
-898.62
-783.426
-683.027
-595.184
-518.037
-450.076
-390.084
-337.079
-290.26
-248.961
-212.616
-180.731
-152.867
-128.627
-107.645
-89.5815
-74.1204
-60.9666
-49.846
-40.5052
-32.7112
-26.2515
-20.9344
-16.5877
-13.0593
-10.215
-7.93837
-6.12896
-4.70105
-3.58218
-2.71169
-2.03923
-1.52343
-1.13059
-0.833516
-0.610447
-0.444127
-0.320989
-0.230462
-0.164375
-0.116466
-0.0819776
-0.0573222
-0.0398185
-0.0274779
-0.0188374
-0.0128292
-0.00868005
-0.00583431
-0.00389586
-0.00258444
-0.00170324
-0.00111516
-0.000725354
-0.000468718
-0.000300903
-0.00019191
-0.000121602
-7.65607e-05
-4.79102e-05
-2.98263e-05
-1.8519e-05
-1.15478e-05
-7.36616e-06
-5.02303e-06
-3.97469e-06
-2271.14
-2200.18
-2072.82
-1910.22
-1732.25
-1553.67
-1383.56
-1226.53
-1084.19
-956.425
-842.278
-740.462
-649.655
-568.637
-496.338
-431.84
-374.361
-323.233
-277.872
-237.762
-202.436
-171.467
-144.452
-121.015
-100.8
-83.4687
-68.7039
-56.2068
-45.6991
-36.9236
-29.645
-23.6497
-18.7459
-14.763
-11.551
-8.97897
-6.93402
-5.3197
-4.0544
-3.06971
-2.30885
-1.72512
-1.28046
-0.94413
-0.691543
-0.503185
-0.363712
-0.261162
-0.186289
-0.132004
-0.092922
-0.0649799
-0.0451411
-0.031153
-0.0213582
-0.0145469
-0.00984278
-0.0066162
-0.0044182
-0.00293109
-0.00193179
-0.00126486
-0.000822757
-0.000531682
-0.000341337
-0.000217707
-0.000137953
-8.68586e-05
-5.43565e-05
-3.38407e-05
-2.10123e-05
-1.31031e-05
-8.35862e-06
-5.70003e-06
-4.51052e-06
-2094.82
-2044.21
-1950.9
-1827.26
-1686.23
-1538.64
-1392.29
-1252.09
-1120.71
-999.296
-888.066
-786.71
-694.674
-611.32
-536.005
-468.124
-407.115
-352.466
-303.7
-260.373
-222.063
-188.364
-158.887
-133.254
-111.1
-92.0759
-75.8449
-62.0897
-50.5116
-40.8333
-32.7993
-26.1771
-20.7571
-16.3525
-12.7986
-9.95158
-7.68709
-5.89884
-4.49676
-3.40531
-2.56174
-1.91439
-1.42116
-1.04803
-0.76775
-0.558705
-0.40389
-0.290043
-0.206911
-0.146631
-0.103227
-0.0721925
-0.0501556
-0.0346162
-0.0237342
-0.0161662
-0.0109391
-0.00735359
-0.00491089
-0.00325812
-0.00214744
-0.00140612
-0.000914692
-0.000591119
-0.000379512
-0.000242065
-0.000153395
-9.6585e-05
-6.04458e-05
-3.76332e-05
-2.33681e-05
-1.45728e-05
-9.29659e-06
-6.34e-06
-5.01709e-06
-1963.42
-1925.41
-1853.98
-1756.73
-1642.24
-1518.38
-1391.45
-1266.03
-1145.13
-1030.52
-923.163
-823.438
-731.386
-646.855
-569.583
-499.257
-435.537
-378.073
-326.505
-280.473
-239.61
-203.547
-171.914
-144.341
-120.462
-99.9214
-82.3706
-67.4778
-54.9284
-44.428
-35.7042
-28.508
-22.6144
-17.8221
-13.9534
-10.8527
-8.38546
-6.43635
-4.90763
-3.71724
-2.79694
-2.09054
-1.55218
-1.14483
-0.838779
-0.610475
-0.441369
-0.316995
-0.226162
-0.16029
-0.112854
-0.0789321
-0.0548425
-0.037854
-0.0259562
-0.0176809
-0.0119649
-0.00804364
-0.00537205
-0.00356428
-0.00234936
-0.00153842
-0.0010008
-0.000646799
-0.00041528
-0.000264891
-0.000167867
-0.000105702
-6.61544e-05
-4.11892e-05
-2.55773e-05
-1.59512e-05
-1.01765e-05
-6.94037e-06
-5.49244e-06
-1863.81
-1833.94
-1777.04
-1698
-1602.66
-1496.78
-1385.36
-1272.42
-1160.91
-1052.89
-949.733
-852.274
-760.99
-676.108
-597.687
-525.671
-459.925
-400.255
-346.421
-298.148
-255.133
-217.048
-183.549
-154.282
-128.887
-107.003
-88.2766
-72.3661
-58.9442
-47.7026
-38.355
-30.6384
-24.3143
-19.1689
-15.0129
-11.6804
-9.02754
-6.93098
-5.28605
-4.00475
-3.01388
-2.2531
-1.67318
-1.23427
-0.904445
-0.658359
-0.476052
-0.341945
-0.243991
-0.172945
-0.121776
-0.0851802
-0.059189
-0.0408575
-0.0280179
-0.0190867
-0.0129171
-0.00868439
-0.00580035
-0.00384869
-0.00253698
-0.00166137
-0.00108084
-0.000698563
-0.000448537
-0.000286119
-0.000181328
-0.000114183
-7.14657e-05
-4.44982e-05
-2.76334e-05
-1.72343e-05
-1.09956e-05
-7.49941e-06
-5.93511e-06
-1787.34
-1762.92
-1715.93
-1649.68
-1568.26
-1475.96
-1376.76
-1274.08
-1170.67
-1068.67
-969.636
-874.699
-784.635
-699.957
-620.977
-547.857
-480.641
-419.276
-363.637
-313.535
-268.727
-228.934
-193.841
-163.111
-136.395
-113.334
-93.5718
-76.76
-62.5618
-50.6586
-40.7523
-32.5682
-25.8565
-20.3924
-15.9767
-12.4341
-9.61286
-7.38232
-5.63164
-4.26753
-3.21231
-2.40191
-1.784
-1.31624
-0.964661
-0.702293
-0.507888
-0.364859
-0.260372
-0.184576
-0.129979
-0.0909272
-0.0631882
-0.0436219
-0.029916
-0.0203814
-0.0137943
-0.00927478
-0.00619508
-0.00411086
-0.00270996
-0.00177475
-0.00115467
-0.000746319
-0.000479225
-0.00030571
-0.000193753
-0.000122013
-7.63701e-05
-4.75541e-05
-2.95325e-05
-1.84197e-05
-1.17525e-05
-8.0161e-06
-6.34422e-06
-1728.08
-1707.42
-1667.36
-1610.22
-1539
-1456.96
-1367.3
-1272.92
-1176.34
-1079.61
-984.406
-892
-803.371
-719.239
-640.111
-566.325
-498.074
-435.434
-378.38
-326.802
-280.52
-239.299
-202.857
-170.878
-143.024
-118.942
-98.2762
-80.6736
-65.7917
-53.3033
-42.9012
-34.3011
-27.2435
-21.4944
-16.8458
-13.1147
-10.1419
-7.79072
-5.94465
-4.50575
-3.39233
-2.53701
-1.88469
-1.39076
-1.01944
-0.742279
-0.536879
-0.385735
-0.275302
-0.195182
-0.137463
-0.0961718
-0.0668392
-0.0461464
-0.0316499
-0.0215644
-0.0145961
-0.00981456
-0.00655608
-0.00435069
-0.00286823
-0.00187851
-0.00122225
-0.000790042
-0.000507328
-0.000323653
-0.000205136
-0.000129188
-8.08645e-05
-5.03551e-05
-3.12736e-05
-1.95066e-05
-1.24466e-05
-8.49001e-06
-6.71957e-06
-1681.87
-1663.84
-1628.7
-1578.16
-1514.48
-1440.2
-1357.96
-1270.23
-1179.28
-1087.07
-995.277
-905.257
-818.116
-734.714
-655.708
-581.572
-512.622
-449.041
-390.893
-338.139
-290.659
-248.257
-210.686
-177.65
-148.825
-123.866
-102.418
-84.1289
-68.6501
-55.6489
-44.8109
-35.8438
-28.4803
-22.4785
-17.6231
-13.7241
-10.6162
-8.1572
-6.22581
-4.71992
-3.55432
-2.65868
-1.97543
-1.45796
-1.06886
-0.778383
-0.563069
-0.404604
-0.288804
-0.204778
-0.144236
-0.100921
-0.0701463
-0.048434
-0.0332217
-0.0226371
-0.0153233
-0.0103043
-0.00688369
-0.0045684
-0.00301194
-0.00197275
-0.00128364
-0.000829769
-0.000532867
-0.000339964
-0.000215484
-0.000135712
-8.49521e-05
-5.29031e-05
-3.28576e-05
-2.04957e-05
-1.30784e-05
-8.92144e-06
-7.06137e-06
-1645.65
-1629.51
-1597.93
-1552.21
-1494.13
-1425.75
-1349.26
-1266.82
-1180.46
-1092.05
-1003.21
-915.356
-829.65
-747.057
-668.336
-594.068
-524.669
-460.409
-401.426
-347.747
-299.3
-255.933
-217.424
-183.503
-153.857
-128.151
-106.034
-87.1531
-71.158
-57.7115
-46.4935
-37.2056
-29.5739
-23.35
-18.3124
-14.2652
-11.0379
-8.48338
-6.4763
-4.91091
-3.69891
-2.76736
-2.05654
-1.51808
-1.11311
-0.810723
-0.586543
-0.421526
-0.300918
-0.213392
-0.150319
-0.105187
-0.0731187
-0.0504909
-0.0346354
-0.0236023
-0.0159779
-0.0107452
-0.00717874
-0.00476451
-0.00314144
-0.00205769
-0.00133898
-0.000865591
-0.0005559
-0.000354677
-0.000224822
-0.000141599
-8.86418e-05
-5.52034e-05
-3.42879e-05
-2.13889e-05
-1.36492e-05
-9.31131e-06
-7.37023e-06
-1617.18
-1602.41
-1573.43
-1531.27
-1477.39
-1413.5
-1341.47
-1263.2
-1180.56
-1095.28
-1008.97
-923.009
-838.627
-756.844
-678.496
-604.241
-534.574
-469.834
-410.223
-355.823
-306.606
-262.455
-223.176
-188.518
-158.185
-131.849
-109.164
-89.7779
-73.34
-59.51
-47.9636
-38.3977
-30.5328
-24.1154
-18.9186
-14.7417
-11.4097
-8.77132
-6.69767
-5.07985
-3.82692
-2.86366
-2.12848
-1.57144
-1.15241
-0.839464
-0.607417
-0.436581
-0.311703
-0.221064
-0.15574
-0.108991
-0.0757697
-0.052326
-0.0358973
-0.0244641
-0.0165625
-0.0111392
-0.00744242
-0.00493984
-0.00325723
-0.00213366
-0.0013885
-0.000897648
-0.000576518
-0.00036785
-0.000233183
-0.000146872
-9.19471e-05
-5.72645e-05
-3.55699e-05
-2.21897e-05
-1.41609e-05
-9.6609e-06
-7.64727e-06
-1594.76
-1581
-1553.93
-1514.43
-1463.71
-1403.24
-1334.66
-1259.68
-1180.02
-1097.31
-1013.1
-928.78
-845.58
-764.565
-686.623
-612.472
-542.663
-477.594
-417.518
-362.562
-312.735
-267.953
-228.047
-192.783
-161.878
-135.014
-111.851
-92.0372
-75.2228
-61.0653
-49.2377
-39.4327
-31.3668
-24.7822
-19.4475
-15.158
-11.7349
-9.02347
-6.89173
-5.22811
-3.93937
-2.94833
-2.19178
-1.61842
-1.18704
-0.864805
-0.625833
-0.449872
-0.321228
-0.227844
-0.160532
-0.112356
-0.0781159
-0.0539508
-0.0370149
-0.0252277
-0.0170807
-0.0114885
-0.00767629
-0.00509538
-0.00336
-0.0022011
-0.00143246
-0.000926118
-0.000594833
-0.000379555
-0.000240614
-0.00015156
-9.48859e-05
-5.90975e-05
-3.67101e-05
-2.29021e-05
-1.46163e-05
-9.97206e-06
-7.89387e-06
-1577.09
-1564.08
-1538.44
-1500.93
-1452.59
-1394.74
-1328.83
-1256.44
-1179.15
-1098.52
-1016.05
-933.115
-850.944
-770.629
-693.091
-619.092
-549.228
-483.94
-423.524
-368.143
-317.839
-272.553
-232.139
-196.379
-165.004
-137.702
-114.139
-93.9663
-76.8343
-62.3996
-50.3329
-40.3241
-32.0864
-25.3583
-19.9052
-15.5188
-12.0171
-9.24252
-7.0605
-5.35718
-4.03735
-3.02217
-2.24703
-1.65946
-1.21731
-0.886976
-0.641956
-0.461515
-0.329577
-0.233789
-0.164738
-0.115309
-0.0801763
-0.0553784
-0.0379972
-0.0258991
-0.0175365
-0.0117958
-0.00788214
-0.00523233
-0.0034505
-0.00226051
-0.0014712
-0.000951213
-0.000610981
-0.000389876
-0.000247168
-0.000155695
-9.74792e-05
-6.07153e-05
-3.77166e-05
-2.35311e-05
-1.50185e-05
-1.0247e-05
-8.11171e-06
-1563.17
-1550.72
-1526.15
-1490.13
-1443.61
-1387.75
-1323.91
-1253.54
-1178.13
-1099.18
-1018.14
-936.356
-855.066
-775.369
-698.213
-624.388
-554.524
-489.098
-428.437
-372.733
-322.058
-276.373
-235.551
-199.39
-167.629
-139.967
-116.072
-95.6006
-78.2028
-63.5352
-51.2668
-41.0856
-32.7022
-25.8522
-20.2981
-15.829
-12.26
-9.43132
-7.20612
-5.46866
-4.12207
-3.08608
-2.29488
-1.69504
-1.24357
-0.906222
-0.655961
-0.471635
-0.336839
-0.238964
-0.168399
-0.117882
-0.0819719
-0.056623
-0.038854
-0.0264849
-0.0179343
-0.0120642
-0.00806196
-0.005352
-0.00352961
-0.00231246
-0.00150508
-0.000973166
-0.00062511
-0.00039891
-0.000252906
-0.000159316
-9.97504e-05
-6.21324e-05
-3.85985e-05
-2.40823e-05
-1.5371e-05
-1.0488e-05
-8.30273e-06
-1552.22
-1540.18
-1516.42
-1481.53
-1436.38
-1382.06
-1319.81
-1251.02
-1177.1
-1099.49
-1019.6
-938.77
-858.22
-779.059
-702.249
-628.602
-558.773
-493.264
-432.429
-376.484
-325.522
-279.524
-238.377
-201.891
-169.818
-141.86
-117.693
-96.9744
-79.356
-64.4941
-52.0571
-41.7313
-33.2252
-26.2723
-20.6329
-16.0935
-12.4675
-9.59277
-7.3308
-5.56421
-4.19475
-3.14095
-2.33601
-1.72564
-1.26617
-0.922801
-0.668034
-0.480364
-0.343106
-0.243432
-0.171562
-0.120107
-0.083525
-0.0577
-0.0395958
-0.0269923
-0.018279
-0.0122968
-0.00821785
-0.00545578
-0.00359823
-0.00235753
-0.00153449
-0.000992225
-0.00063738
-0.000406757
-0.000257892
-0.000162463
-0.000101725
-6.33644e-05
-3.93654e-05
-2.45618e-05
-1.56777e-05
-1.06977e-05
-8.46898e-06
-1543.61
-1531.88
-1508.72
-1474.69
-1430.59
-1377.44
-1316.43
-1248.87
-1176.12
-1099.58
-1020.62
-940.562
-860.627
-781.921
-705.416
-631.939
-562.163
-496.609
-435.653
-379.529
-328.347
-282.103
-240.699
-203.955
-171.629
-143.432
-119.042
-98.1206
-80.3202
-65.2977
-52.7207
-42.2744
-33.6659
-26.6269
-20.9158
-16.3175
-12.6433
-9.72978
-7.43671
-5.64547
-4.25662
-3.18771
-2.37109
-1.75176
-1.28548
-0.936973
-0.678361
-0.487836
-0.348474
-0.247261
-0.174275
-0.122015
-0.084858
-0.0586248
-0.040233
-0.0274284
-0.0185754
-0.0124968
-0.00835198
-0.0055451
-0.00365732
-0.00239635
-0.00155983
-0.00100865
-0.000647956
-0.000413522
-0.000262191
-0.000165177
-0.000103428
-6.44276e-05
-4.00273e-05
-2.49757e-05
-1.59424e-05
-1.08788e-05
-8.6126e-06
-1536.86
-1525.37
-1502.67
-1469.28
-1425.98
-1373.73
-1313.67
-1247.06
-1175.22
-1099.53
-1021.31
-941.886
-862.456
-784.131
-707.89
-634.568
-564.853
-499.281
-438.241
-381.985
-330.635
-284.201
-242.595
-205.645
-173.117
-144.726
-120.157
-99.0697
-81.1205
-65.966
-53.2736
-42.7278
-34.0344
-26.9239
-21.1531
-16.5056
-12.7912
-9.84514
-7.526
-5.71404
-4.30888
-3.22725
-2.40077
-1.77389
-1.30185
-0.948995
-0.687128
-0.494183
-0.353037
-0.250518
-0.176583
-0.123639
-0.0859936
-0.059413
-0.0407763
-0.0278003
-0.0188283
-0.0126676
-0.00846653
-0.00562141
-0.00370781
-0.00242954
-0.00158149
-0.0010227
-0.000657004
-0.000419311
-0.00026587
-0.000167501
-0.000104886
-6.53381e-05
-4.05943e-05
-2.53303e-05
-1.61694e-05
-1.1034e-05
-8.73571e-06
-1531.57
-1520.26
-1497.91
-1465.01
-1422.32
-1370.76
-1311.43
-1245.56
-1174.44
-1099.41
-1021.78
-942.861
-863.841
-785.832
-709.814
-636.63
-566.976
-501.402
-440.307
-383.954
-332.478
-285.897
-244.132
-207.02
-174.331
-145.786
-121.071
-99.8499
-81.7799
-66.5178
-53.731
-43.1035
-34.3403
-27.1708
-21.3507
-16.6624
-12.9147
-9.94156
-7.60071
-5.77148
-4.3527
-3.26042
-2.4257
-1.79248
-1.31562
-0.959118
-0.694515
-0.499535
-0.356886
-0.253267
-0.178533
-0.125012
-0.0869536
-0.0600797
-0.0412361
-0.0281152
-0.0190425
-0.0128123
-0.00856361
-0.00568611
-0.00375063
-0.00245769
-0.00159987
-0.00103462
-0.000664686
-0.000424228
-0.000268996
-0.000169475
-0.000106125
-6.6112e-05
-4.10763e-05
-2.56319e-05
-1.63624e-05
-1.1166e-05
-8.84043e-06
-1527.45
-1516.28
-1494.18
-1461.66
-1419.43
-1368.39
-1309.63
-1244.33
-1173.77
-1099.25
-1022.1
-943.575
-864.887
-787.135
-711.303
-638.238
-568.644
-503.076
-441.945
-385.523
-333.951
-287.258
-245.37
-208.13
-175.314
-146.646
-121.815
-100.487
-82.3191
-66.9699
-54.1065
-43.4125
-34.5922
-27.3745
-21.514
-16.7922
-13.017
-10.0215
-7.66274
-5.81922
-4.38916
-3.28806
-2.44649
-1.808
-1.32712
-0.967576
-0.700691
-0.504012
-0.360109
-0.25557
-0.180167
-0.126164
-0.0877593
-0.0606395
-0.0416223
-0.0283798
-0.0192225
-0.012934
-0.00864529
-0.00574055
-0.00378668
-0.0024814
-0.00161536
-0.00104467
-0.00067116
-0.000428372
-0.000271631
-0.00017114
-0.000107171
-6.6765e-05
-4.14831e-05
-2.58863e-05
-1.65253e-05
-1.12775e-05
-8.92888e-06
-1524.25
-1513.18
-1491.28
-1459.04
-1417.16
-1366.52
-1308.19
-1243.33
-1173.2
-1099.09
-1022.3
-944.097
-865.674
-788.131
-712.452
-639.488
-569.947
-504.392
-443.238
-386.766
-335.123
-288.344
-246.361
-209.021
-176.105
-147.34
-122.416
-101.003
-82.757
-67.3378
-54.4126
-43.6648
-34.7983
-27.5413
-21.6478
-16.8987
-13.1011
-10.0874
-7.71386
-5.85861
-4.41927
-3.3109
-2.46369
-1.82085
-1.33665
-0.97459
-0.705817
-0.507731
-0.362787
-0.257486
-0.181527
-0.127122
-0.0884303
-0.0611059
-0.0419443
-0.0286005
-0.0193728
-0.0130356
-0.00871349
-0.00578603
-0.0038168
-0.00250121
-0.0016283
-0.00105307
-0.000676576
-0.00043184
-0.000273837
-0.000172534
-0.000108046
-6.73117e-05
-4.18237e-05
-2.60995e-05
-1.66618e-05
-1.13709e-05
-9.00305e-06
-1521.76
-1510.77
-1489.02
-1457
-1415.38
-1365.06
-1307.05
-1242.53
-1172.73
-1098.93
-1022.43
-944.477
-866.263
-788.888
-713.333
-640.454
-570.96
-505.419
-444.253
-387.744
-336.049
-289.205
-247.148
-209.732
-176.738
-147.896
-122.9
-101.418
-83.1101
-67.635
-54.6603
-43.8693
-34.9656
-27.6769
-21.7569
-16.9856
-13.1697
-10.1412
-7.75569
-5.89087
-4.44396
-3.32964
-2.47781
-1.83141
-1.34449
-0.980365
-0.71004
-0.510797
-0.364997
-0.259066
-0.18265
-0.127915
-0.0889851
-0.0614917
-0.0422107
-0.0287832
-0.0194972
-0.0131197
-0.00877001
-0.00582374
-0.00384178
-0.00251765
-0.00163905
-0.00106004
-0.000681073
-0.00043472
-0.000275669
-0.000173691
-0.000108773
-6.77662e-05
-4.21069e-05
-2.62768e-05
-1.67753e-05
-1.14487e-05
-9.0647e-06
-1519.85
-1508.91
-1487.28
-1455.41
-1414
-1363.91
-1306.15
-1241.89
-1172.34
-1098.79
-1022.51
-944.752
-866.704
-789.461
-714.007
-641.197
-571.744
-506.217
-445.044
-388.51
-336.776
-289.883
-247.771
-210.295
-177.24
-148.339
-123.285
-101.75
-83.3928
-67.8733
-54.8593
-44.0338
-35.1004
-27.7864
-21.845
-17.0559
-13.2253
-10.1848
-7.78965
-5.91709
-4.46405
-3.34491
-2.48932
-1.84003
-1.35089
-0.985084
-0.713493
-0.513305
-0.366806
-0.260361
-0.18357
-0.128564
-0.0894403
-0.0618084
-0.0424295
-0.0289334
-0.0195995
-0.0131889
-0.00881652
-0.00585477
-0.00386235
-0.00253119
-0.0016479
-0.00106579
-0.000684779
-0.000437094
-0.000277179
-0.000174646
-0.000109373
-6.81411e-05
-4.23406e-05
-2.6423e-05
-1.6869e-05
-1.15128e-05
-9.11559e-06
-1518.37
-1507.48
-1485.93
-1454.19
-1412.93
-1363.01
-1305.45
-1241.38
-1172.03
-1098.66
-1022.56
-944.95
-867.031
-789.894
-714.52
-641.766
-572.347
-506.834
-445.657
-389.107
-337.344
-290.413
-248.259
-210.738
-177.636
-148.689
-123.59
-102.013
-83.6176
-68.0632
-55.0181
-44.1653
-35.2083
-27.8741
-21.9157
-17.1124
-13.2701
-10.2199
-7.81704
-5.93825
-4.48027
-3.35725
-2.49864
-1.84701
-1.35608
-0.988911
-0.716296
-0.515343
-0.368276
-0.261415
-0.18432
-0.129093
-0.0898112
-0.0620666
-0.042608
-0.0290559
-0.019683
-0.0132454
-0.0088545
-0.00588013
-0.00387916
-0.00254225
-0.00165513
-0.00107049
-0.000687811
-0.000439036
-0.000278416
-0.000175428
-0.000109864
-6.84481e-05
-4.25319e-05
-2.65428e-05
-1.69457e-05
-1.15653e-05
-9.15733e-06
-1517.25
-1506.39
-1484.9
-1453.25
-1412.11
-1362.32
-1304.9
-1240.98
-1171.78
-1098.56
-1022.58
-945.093
-867.274
-790.219
-714.909
-642.2
-572.808
-507.309
-446.131
-389.568
-337.784
-290.827
-248.64
-211.084
-177.947
-148.963
-123.831
-102.221
-83.7951
-68.2134
-55.1439
-44.2697
-35.2941
-27.9439
-21.972
-17.1574
-13.3058
-10.248
-7.83895
-5.95521
-4.49328
-3.36716
-2.50612
-1.85262
-1.36025
-0.991993
-0.718555
-0.516986
-0.369462
-0.262265
-0.184925
-0.129521
-0.090111
-0.0622754
-0.0427524
-0.029155
-0.0197506
-0.0132912
-0.00888529
-0.00590069
-0.00389279
-0.00255123
-0.00166101
-0.0010743
-0.000690273
-0.000440614
-0.00027942
-0.000176063
-0.000110263
-6.86976e-05
-4.26875e-05
-2.66402e-05
-1.70081e-05
-1.1608e-05
-9.1912e-06
-1516.39
-1505.55
-1484.12
-1452.53
-1411.47
-1361.79
-1304.48
-1240.67
-1171.58
-1098.47
-1022.59
-945.194
-867.453
-790.462
-715.202
-642.529
-573.16
-507.671
-446.494
-389.923
-338.124
-291.146
-248.936
-211.353
-178.188
-149.178
-124.018
-102.383
-83.9343
-68.3314
-55.2429
-44.3519
-35.3617
-27.9991
-22.0166
-17.1931
-13.3341
-10.2704
-7.85637
-5.9687
-4.50364
-3.37505
-2.51209
-1.8571
-1.36359
-0.994457
-0.720361
-0.518301
-0.370412
-0.262947
-0.18541
-0.129864
-0.0903518
-0.0624432
-0.0428685
-0.0292348
-0.019805
-0.0133281
-0.00891007
-0.00591724
-0.00390377
-0.00255847
-0.00166574
-0.00107738
-0.000692257
-0.000441886
-0.00028023
-0.000176575
-0.000110585
-6.88989e-05
-4.2813e-05
-2.67188e-05
-1.70584e-05
-1.16425e-05
-9.21856e-06
-1515.74
-1504.92
-1483.52
-1451.99
-1410.99
-1361.38
-1304.15
-1240.43
-1171.43
-1098.4
-1022.6
-945.267
-867.585
-790.643
-715.422
-642.777
-573.427
-507.947
-446.771
-390.195
-338.385
-291.392
-249.163
-211.561
-178.375
-149.344
-124.164
-102.51
-84.0428
-68.4235
-55.3202
-44.4163
-35.4147
-28.0424
-22.0516
-17.2212
-13.3564
-10.2879
-7.87011
-5.97935
-4.51183
-3.3813
-2.51682
-1.86064
-1.36623
-0.996412
-0.721796
-0.519346
-0.371168
-0.263489
-0.185796
-0.130137
-0.0905436
-0.0625769
-0.042961
-0.0292984
-0.0198484
-0.0133575
-0.00892986
-0.00593046
-0.00391255
-0.00256425
-0.00166952
-0.00107984
-0.000693845
-0.000442904
-0.000280878
-0.000176985
-0.000110843
-6.906e-05
-4.29135e-05
-2.67818e-05
-1.70988e-05
-1.16701e-05
-9.24048e-06
-1515.24
-1504.44
-1483.07
-1451.57
-1410.63
-1361.07
-1303.9
-1240.25
-1171.31
-1098.34
-1022.59
-945.318
-867.682
-790.778
-715.586
-642.963
-573.628
-508.156
-446.981
-390.401
-338.584
-291.579
-249.338
-211.72
-178.519
-149.472
-124.277
-102.608
-84.1267
-68.4948
-55.3803
-44.4663
-35.456
-28.0761
-22.0789
-17.2431
-13.3739
-10.3017
-7.88087
-5.9877
-4.51826
-3.3862
-2.52053
-1.86344
-1.36831
-0.997952
-0.722927
-0.52017
-0.371764
-0.263917
-0.186102
-0.130353
-0.0906954
-0.0626828
-0.0430343
-0.0293488
-0.0198828
-0.0133808
-0.00894556
-0.00594096
-0.00391951
-0.00256884
-0.00167253
-0.00108179
-0.000695106
-0.000443713
-0.000281393
-0.000177311
-0.000111048
-6.91881e-05
-4.29934e-05
-2.68318e-05
-1.71308e-05
-1.16921e-05
-9.25791e-06
-1514.87
-1504.08
-1482.73
-1451.26
-1410.35
-1360.84
-1303.71
-1240.11
-1171.21
-1098.29
-1022.59
-945.354
-867.752
-790.877
-715.708
-643.103
-573.778
-508.313
-447.14
-390.557
-338.734
-291.722
-249.47
-211.842
-178.629
-149.57
-124.363
-102.683
-84.1913
-68.5498
-55.4265
-44.5049
-35.4879
-28.1022
-22.1
-17.2601
-13.3874
-10.3124
-7.88924
-5.9942
-4.52326
-3.39003
-2.52343
-1.86562
-1.36994
-0.999157
-0.723813
-0.520816
-0.372232
-0.264253
-0.186341
-0.130523
-0.0908146
-0.062766
-0.0430919
-0.0293884
-0.0199099
-0.0133992
-0.00895792
-0.00594922
-0.003925
-0.00257246
-0.0016749
-0.00108333
-0.000696101
-0.000444351
-0.0002818
-0.000177568
-0.00011121
-6.92893e-05
-4.30565e-05
-2.68713e-05
-1.71561e-05
-1.17094e-05
-9.27163e-06
-1514.6
-1503.81
-1482.47
-1451.03
-1410.14
-1360.66
-1303.57
-1240
-1171.14
-1098.25
-1022.59
-945.379
-867.804
-790.95
-715.799
-643.206
-573.891
-508.43
-447.259
-390.675
-338.848
-291.83
-249.571
-211.934
-178.712
-149.644
-124.428
-102.74
-84.2406
-68.5918
-55.462
-44.5345
-35.5124
-28.1222
-22.1163
-17.2732
-13.3979
-10.3206
-7.89571
-5.99923
-4.52714
-3.39299
-2.52568
-1.86731
-1.3712
-1.00009
-0.724501
-0.521318
-0.372596
-0.264515
-0.186528
-0.130655
-0.0909075
-0.0628309
-0.0431369
-0.0294194
-0.019931
-0.0134135
-0.00896758
-0.00595568
-0.00392929
-0.00257529
-0.00167675
-0.00108454
-0.00069688
-0.00044485
-0.000282118
-0.00017777
-0.000111336
-6.93684e-05
-4.31058e-05
-2.69022e-05
-1.71759e-05
-1.1723e-05
-9.28241e-06
-1514.39
-1503.61
-1482.28
-1450.85
-1409.99
-1360.53
-1303.47
-1239.92
-1171.09
-1098.22
-1022.58
-945.397
-867.841
-791.003
-715.866
-643.283
-573.974
-508.517
-447.347
-390.763
-338.933
-291.91
-249.646
-212.003
-178.775
-149.7
-124.478
-102.783
-84.2779
-68.6237
-55.4889
-44.557
-35.531
-28.1375
-22.1287
-17.2832
-13.4059
-10.327
-7.90067
-6.00309
-4.53012
-3.39527
-2.52741
-1.86861
-1.37218
-1.00082
-0.725032
-0.521706
-0.372877
-0.264717
-0.186672
-0.130757
-0.0909795
-0.0628811
-0.0431718
-0.0294434
-0.0199474
-0.0134246
-0.00897508
-0.0059607
-0.00393263
-0.00257749
-0.00167819
-0.00108548
-0.000697485
-0.000445238
-0.000282365
-0.000177926
-0.000111435
-6.943e-05
-4.31442e-05
-2.69263e-05
-1.71914e-05
-1.17335e-05
-9.29079e-06
-1514.24
-1503.46
-1482.14
-1450.73
-1409.87
-1360.43
-1303.39
-1239.86
-1171.05
-1098.2
-1022.58
-945.409
-867.867
-791.042
-715.914
-643.339
-574.036
-508.582
-447.413
-390.828
-338.996
-291.971
-249.702
-212.055
-178.822
-149.742
-124.515
-102.816
-84.3061
-68.6478
-55.5093
-44.5741
-35.5451
-28.1491
-22.1382
-17.2908
-13.4119
-10.3318
-7.90445
-6.00603
-4.53239
-3.39701
-2.52873
-1.86961
-1.37292
-1.00137
-0.725439
-0.522004
-0.373092
-0.264872
-0.186783
-0.130836
-0.0910349
-0.0629198
-0.0431986
-0.0294618
-0.0199601
-0.0134332
-0.00898086
-0.00596457
-0.00393519
-0.00257918
-0.0016793
-0.0010862
-0.000697952
-0.000445538
-0.000282556
-0.000178047
-0.000111511
-6.94775e-05
-4.31739e-05
-2.69449e-05
-1.72033e-05
-1.17417e-05
-9.29724e-06
-1514.13
-1503.35
-1482.04
-1450.63
-1409.79
-1360.36
-1303.33
-1239.81
-1171.02
-1098.18
-1022.57
-945.417
-867.886
-791.07
-715.95
-643.38
-574.081
-508.63
-447.462
-390.876
-339.043
-292.015
-249.744
-212.094
-178.857
-149.774
-124.543
-102.84
-84.3272
-68.6658
-55.5246
-44.5869
-35.5558
-28.1579
-22.1453
-17.2966
-13.4165
-10.3354
-7.90731
-6.00826
-4.53411
-3.39833
-2.52974
-1.87036
-1.37349
-1.00179
-0.725749
-0.52223
-0.373257
-0.26499
-0.186868
-0.130896
-0.0910771
-0.0629493
-0.0432191
-0.0294759
-0.0199697
-0.0134398
-0.00898528
-0.00596753
-0.00393716
-0.00258048
-0.00168015
-0.00108675
-0.000698309
-0.000445767
-0.000282702
-0.00017814
-0.000111569
-6.95139e-05
-4.31966e-05
-2.69591e-05
-1.72124e-05
-1.17479e-05
-9.30219e-06
-1514.04
-1503.27
-1481.96
-1450.56
-1409.73
-1360.3
-1303.28
-1239.78
-1170.99
-1098.17
-1022.57
-945.423
-867.9
-791.091
-715.976
-643.41
-574.114
-508.664
-447.497
-390.912
-339.077
-292.048
-249.775
-212.122
-178.883
-149.797
-124.564
-102.858
-84.3429
-68.6793
-55.536
-44.5964
-35.5637
-28.1644
-22.1506
-17.3009
-13.42
-10.3381
-7.90946
-6.00993
-4.53541
-3.39933
-2.53049
-1.87094
-1.37391
-1.00211
-0.725983
-0.522401
-0.373381
-0.26508
-0.186932
-0.130941
-0.0911091
-0.0629717
-0.0432346
-0.0294867
-0.019977
-0.0134447
-0.00898863
-0.00596977
-0.00393866
-0.00258147
-0.0016808
-0.00108717
-0.000698581
-0.000445942
-0.000282813
-0.00017821
-0.000111613
-6.95416e-05
-4.32139e-05
-2.69699e-05
-1.72193e-05
-1.17527e-05
-9.30597e-06
-1513.99
-1503.22
-1481.91
-1450.51
-1409.68
-1360.26
-1303.25
-1239.75
-1170.98
-1098.16
-1022.57
-945.427
-867.91
-791.105
-715.994
-643.432
-574.138
-508.69
-447.523
-390.938
-339.103
-292.072
-249.798
-212.143
-178.903
-149.814
-124.579
-102.872
-84.3545
-68.6892
-55.5444
-44.6035
-35.5696
-28.1693
-22.1546
-17.3041
-13.4225
-10.3402
-7.91106
-6.01118
-4.53637
-3.40007
-2.53106
-1.87136
-1.37423
-1.00234
-0.726159
-0.52253
-0.373474
-0.265147
-0.18698
-0.130975
-0.0911332
-0.0629886
-0.0432463
-0.0294947
-0.0199826
-0.0134485
-0.00899117
-0.00597147
-0.00393978
-0.00258221
-0.00168129
-0.00108749
-0.000698787
-0.000446074
-0.000282897
-0.000178263
-0.000111647
-6.95625e-05
-4.32269e-05
-2.69781e-05
-1.72245e-05
-1.17562e-05
-9.30883e-06
-1513.94
-1503.17
-1481.87