/*--------------------------------*- C++ -*----------------------------------*\
  =========                 |
  \\      /  F ield         | OpenFOAM: The Open Source CFD Toolbox
   \\    /   O peration     | Website:  https://openfoam.org
    \\  /    A nd           | Version:  10
     \\/     M anipulation  |
\*---------------------------------------------------------------------------*/
FoamFile
{
    format      ascii;
    class       volScalarField;
    location    "413";
    object      gradTz;
}
// * * * * * * * * * * * * * * * * * * * * * * * * * * * * * * * * * * * * * //

dimensions      [0 -1 0 1 0 0 0];

internalField   nonuniform List<scalar> 
11250
(
-14343.2
-4138.83
-1518.82
-715.67
-411.477
-270.459
-193.744
-146.928
-115.921
-94.1004
-78.0057
-65.6777
-55.939
-48.0478
-41.5187
-36.0239
-31.3362
-27.2942
-23.7803
-20.7075
-18.0093
-15.6344
-13.5415
-11.6971
-10.0734
-8.64621
-7.39482
-6.30071
-5.3473
-4.51956
-3.8038
-3.18751
-2.65921
-2.20845
-1.82567
-1.5022
-1.23022
-1.00269
-0.813321
-0.656523
-0.527374
-0.421557
-0.335314
-0.265397
-0.209018
-0.163797
-0.127719
-0.0990909
-0.0764947
-0.0587553
-0.0449032
-0.0341446
-0.0258331
-0.0194466
-0.0145653
-0.0108543
-0.00804815
-0.00593744
-0.00435826
-0.00318301
-0.002313
-0.00167235
-0.0012031
-0.000861201
-0.000613419
-0.00043481
-0.000306775
-0.000215531
-0.000150933
-0.000105572
-7.40873e-05
-5.26531e-05
-3.8598e-05
-3.01321e-05
-2.61587e-05
-8233.78
-4831.9
-2739.42
-1647.86
-1071.08
-746.916
-551.188
-424.849
-338.471
-276.492
-230.188
-194.402
-165.948
-142.779
-123.537
-107.297
-93.4096
-81.4133
-70.9695
-61.8257
-53.7893
-46.7099
-40.4673
-34.9633
-30.1153
-25.8528
-22.1141
-18.8445
-15.9947
-13.52
-11.3798
-9.53674
-7.95664
-6.60829
-5.46319
-4.49546
-3.6817
-3.00089
-2.43422
-1.96499
-1.57849
-1.2618
-1.00369
-0.794425
-0.625676
-0.49032
-0.382331
-0.296636
-0.228996
-0.175894
-0.134427
-0.10222
-0.0773389
-0.0582195
-0.0436063
-0.0324966
-0.0240955
-0.0177764
-0.0130485
-0.0095299
-0.00692515
-0.00500709
-0.00360215
-0.0025785
-0.00183664
-0.00130187
-0.000918526
-0.000645333
-0.000451919
-0.000316102
-0.000221832
-0.000157655
-0.000115571
-9.0223e-05
-7.83265e-05
-5525.6
-4214.98
-2958.51
-2064.71
-1477.55
-1094.45
-838.816
-662.438
-536.31
-442.959
-371.664
-315.67
-270.608
-233.576
-202.602
-176.311
-153.731
-134.157
-117.067
-102.07
-88.8651
-77.2147
-66.9287
-57.8501
-49.8468
-42.805
-36.6247
-31.2171
-26.5017
-22.4055
-18.8618
-15.8093
-13.1916
-10.9574
-9.05962
-7.45553
-6.10647
-4.97765
-4.03798
-3.25983
-2.61879
-2.0935
-1.66534
-1.31819
-1.03822
-0.813653
-0.634475
-0.492282
-0.380043
-0.291922
-0.223108
-0.169659
-0.128365
-0.0966337
-0.0723799
-0.0539406
-0.0399965
-0.0295078
-0.0216601
-0.0158196
-0.0114959
-0.00831201
-0.00597982
-0.00428056
-0.00304902
-0.00216128
-0.00152489
-0.00107136
-0.00075027
-0.000524794
-0.00036829
-0.000261744
-0.000191878
-0.000149794
-0.000130044
-4127.02
-3542.89
-2813.95
-2173.98
-1679.09
-1313.74
-1046.47
-849.159
-700.851
-586.957
-497.528
-425.799
-367.131
-318.306
-277.059
-241.775
-211.279
-184.709
-161.418
-140.911
-122.806
-106.797
-92.6376
-80.1214
-69.0736
-59.3429
-50.7951
-43.3103
-36.7795
-31.1032
-26.1901
-21.9562
-18.3243
-15.2233
-12.5887
-10.3612
-8.48739
-6.91924
-5.61362
-4.53226
-3.64133
-2.91116
-2.31594
-1.83329
-1.44402
-1.13174
-0.882561
-0.684803
-0.528694
-0.406124
-0.310402
-0.236049
-0.178603
-0.134457
-0.100713
-0.0750581
-0.0556565
-0.0410622
-0.0301424
-0.0220152
-0.0159985
-0.0115678
-0.00832229
-0.00595748
-0.00424357
-0.00300808
-0.00212239
-0.00149117
-0.00104428
-0.000730456
-0.000512628
-0.00036433
-0.000267085
-0.00020851
-0.00018102
-3311.13
-3014.2
-2579.06
-2136.87
-1749.88
-1433.82
-1183.19
-986.014
-830.259
-705.909
-605.259
-522.577
-453.661
-395.44
-345.664
-302.67
-265.224
-232.392
-203.465
-177.891
-155.235
-135.146
-117.337
-101.564
-87.6195
-75.3207
-64.5047
-55.0245
-46.7458
-39.5452
-33.309
-27.932
-23.3173
-19.3758
-16.0256
-13.1923
-10.8084
-8.81268
-7.15076
-5.77401
-4.63951
-3.70958
-2.95139
-2.33652
-1.84055
-1.44262
-1.12508
-0.873035
-0.674058
-0.517816
-0.395791
-0.300999
-0.227757
-0.171469
-0.128442
-0.095727
-0.0709854
-0.0523733
-0.0384468
-0.0280814
-0.0204074
-0.0147561
-0.0106163
-0.00759986
-0.00541358
-0.00383754
-0.00270768
-0.00190244
-0.00133232
-0.000931951
-0.000654048
-0.000464848
-0.00034078
-0.000266047
-0.000230974
-2790.34
-2621.91
-2349.48
-2042.89
-1748.2
-1487.06
-1265.18
-1080.35
-927.338
-800.424
-694.469
-605.221
-529.307
-464.111
-407.623
-358.302
-314.964
-276.693
-242.774
-212.643
-185.843
-162.002
-140.808
-121.996
-105.332
-90.6107
-77.6471
-66.2712
-56.3273
-47.671
-40.1684
-33.6954
-28.137
-23.387
-19.348
-15.9308
-13.0546
-10.6461
-8.63985
-6.97746
-5.60728
-4.48394
-3.5679
-2.8249
-2.22548
-1.7445
-1.36062
-1.0559
-0.815304
-0.626367
-0.478792
-0.364143
-0.275553
-0.207464
-0.155412
-0.115833
-0.0858988
-0.0633793
-0.046528
-0.0339852
-0.0246987
-0.0178597
-0.0128496
-0.00919887
-0.00655279
-0.00464522
-0.00327765
-0.00230296
-0.00161285
-0.00112821
-0.000791804
-0.000562769
-0.000412575
-0.000322104
-0.000279645
-2435.75
-2331.44
-2151.96
-1934.98
-1711.11
-1499.31
-1308.6
-1141.54
-997.199
-873.085
-766.303
-674.083
-594.004
-524.05
-462.584
-408.294
-360.134
-317.274
-279.042
-244.898
-214.396
-187.163
-162.879
-141.268
-122.084
-105.107
-90.1328
-76.9754
-65.4611
-55.428
-46.7248
-39.2104
-32.7535
-27.2327
-22.5359
-18.5604
-15.2129
-12.4089
-10.0724
-8.13577
-6.53918
-5.22993
-4.16206
-3.29574
-2.59672
-2.03572
-1.58793
-1.23241
-0.95168
-0.731199
-0.558968
-0.425151
-0.32174
-0.242253
-0.181484
-0.135273
-0.10032
-0.0740235
-0.0543447
-0.0396964
-0.0288506
-0.0208627
-0.0150108
-0.0107464
-0.00765545
-0.00542707
-0.00382944
-0.00269074
-0.00188448
-0.00131826
-0.000925211
-0.000657605
-0.000482114
-0.000376405
-0.000326793
-2182.89
-2113.58
-1989.48
-1831.62
-1659.77
-1488.45
-1326.57
-1178.47
-1045.52
-927.368
-822.792
-730.281
-648.308
-575.474
-510.565
-452.554
-400.589
-353.964
-312.094
-274.49
-240.739
-210.486
-183.422
-159.271
-137.782
-118.726
-101.891
-87.0765
-74.0961
-62.7733
-52.9421
-44.4469
-37.1421
-30.8923
-25.5724
-21.0673
-17.2721
-14.0918
-11.4409
-9.24302
-7.43049
-5.94378
-4.73088
-3.7467
-2.95242
-2.31487
-1.80587
-1.40171
-1.08252
-0.831804
-0.635931
-0.483729
-0.366097
-0.275672
-0.206534
-0.153954
-0.114181
-0.0842558
-0.06186
-0.0451884
-0.0328436
-0.0237513
-0.0170899
-0.0122354
-0.00871646
-0.00617946
-0.0043605
-0.00306399
-0.00214596
-0.00150122
-0.00105366
-0.000748922
-0.00054908
-0.000428699
-0.000372201
-1996.37
-1947.62
-1857.93
-1739.59
-1605.37
-1465.89
-1328.71
-1198.47
-1077.57
-966.877
-866.324
-775.347
-693.165
-618.94
-551.87
-491.226
-436.369
-386.744
-341.873
-301.342
-264.788
-231.891
-202.36
-175.93
-152.357
-131.409
-112.869
-96.5291
-82.1932
-69.6734
-58.7921
-49.3812
-41.2827
-34.3492
-28.4436
-23.44
-19.2228
-15.6874
-12.7394
-10.2943
-8.27725
-6.62233
-5.27186
-4.1758
-3.29103
-2.5807
-2.01351
-1.56306
-1.20726
-0.927749
-0.709351
-0.539625
-0.408435
-0.307577
-0.230454
-0.171797
-0.127422
-0.0940327
-0.0690423
-0.0504378
-0.0366609
-0.0265131
-0.019078
-0.0136594
-0.00973136
-0.00689925
-0.0048686
-0.00342115
-0.0023962
-0.00167634
-0.0011766
-0.000836342
-0.000613194
-0.000478772
-0.000415683
-1855.31
-1819.32
-1751.88
-1660.45
-1553.44
-1438.48
-1321.62
-1207.15
-1097.75
-994.913
-899.279
-810.952
-729.722
-655.217
-586.999
-524.621
-467.657
-415.711
-368.422
-325.462
-286.529
-251.347
-219.656
-191.209
-165.772
-143.12
-123.034
-105.303
-89.7257
-76.1051
-64.2544
-53.9957
-45.1605
-37.5908
-31.1393
-25.67
-21.058
-17.1898
-13.9629
-11.2856
-9.07631
-7.26307
-5.78299
-4.58143
-3.61129
-2.83225
-2.21006
-1.71586
-1.32544
-1.01868
-0.778955
-0.592632
-0.448596
-0.33785
-0.253156
-0.188735
-0.139996
-0.103318
-0.0758651
-0.0554255
-0.0402886
-0.0291382
-0.020968
-0.0150133
-0.0106965
-0.00758381
-0.00535191
-0.00376093
-0.00263429
-0.00184297
-0.00129361
-0.000919548
-0.000674225
-0.000526442
-0.000457081
-1746.59
-1718.92
-1666.34
-1593.61
-1506.37
-1410.14
-1309.65
-1208.57
-1109.54
-1014.28
-923.829
-838.729
-759.177
-685.166
-616.562
-553.165
-494.745
-441.059
-391.865
-346.924
-306.003
-268.875
-235.315
-205.102
-178.017
-153.845
-132.37
-113.384
-96.6787
-82.0544
-69.3167
-58.2796
-48.766
-40.6089
-33.6523
-27.7512
-22.7725
-18.5948
-15.1082
-12.2143
-9.82537
-7.86412
-6.26277
-4.96241
-3.91224
-3.06875
-2.39496
-1.85966
-1.4367
-1.10432
-0.844533
-0.642591
-0.48646
-0.366399
-0.274573
-0.204718
-0.151863
-0.112085
-0.0823077
-0.0601361
-0.0437154
-0.0316185
-0.0227541
-0.0162931
-0.0116088
-0.00823106
-0.00580894
-0.00408227
-0.00285949
-0.00200061
-0.00140432
-0.000998283
-0.000731985
-0.000571562
-0.000496268
-1661.59
-1639.52
-1597.17
-1537.69
-1464.96
-1383.02
-1295.53
-1205.57
-1115.55
-1027.24
-941.838
-860.159
-782.682
-709.665
-641.217
-577.344
-517.987
-463.043
-412.383
-365.856
-323.298
-284.532
-249.374
-217.63
-189.103
-163.588
-140.879
-120.768
-103.049
-87.5167
-73.9738
-62.2276
-52.0942
-43.3991
-35.9785
-29.6801
-24.3633
-19.8997
-16.1729
-13.0784
-10.5229
-8.42428
-6.71021
-5.31794
-4.19325
-3.28971
-2.56779
-1.99414
-1.54079
-1.18447
-0.905939
-0.689388
-0.52194
-0.39316
-0.294653
-0.219709
-0.162996
-0.120311
-0.0883548
-0.0645588
-0.0469335
-0.0339481
-0.0244321
-0.0174955
-0.0124662
-0.00883944
-0.00623859
-0.00438442
-0.00307127
-0.00214887
-0.00150846
-0.00107236
-0.000786335
-0.000614024
-0.00053315
-1594.4
-1576.23
-1541.1
-1491.16
-1429.18
-1358.15
-1280.93
-1200.09
-1117.73
-1035.56
-954.844
-876.532
-801.284
-729.549
-661.618
-597.663
-537.769
-481.957
-430.197
-382.422
-338.533
-298.406
-261.897
-228.841
-199.063
-172.374
-148.576
-127.466
-108.841
-92.4955
-78.2275
-65.8404
-55.145
-45.9606
-38.1172
-31.4558
-25.8295
-21.1038
-17.1563
-13.8772
-11.1683
-8.94295
-7.12481
-5.6476
-4.45398
-3.49483
-2.72832
-2.11911
-1.63758
-1.25904
-0.963083
-0.732955
-0.554983
-0.418092
-0.313368
-0.233684
-0.173379
-0.127984
-0.0939972
-0.0686864
-0.0499375
-0.0361233
-0.0259991
-0.0186187
-0.0132673
-0.00940795
-0.00664016
-0.00466686
-0.00326928
-0.00228752
-0.00160585
-0.00114165
-0.000837182
-0.000653755
-0.000567662
-1540.84
-1525.45
-1495.51
-1452.56
-1398.62
-1335.96
-1266.84
-1193.39
-1117.44
-1040.59
-964.08
-888.929
-815.902
-745.58
-678.386
-614.621
-554.489
-498.112
-445.55
-396.81
-351.855
-310.609
-272.968
-238.799
-207.946
-180.237
-155.486
-133.498
-114.071
-97.0016
-82.0855
-69.1235
-57.9222
-48.2963
-40.0701
-33.0795
-27.1719
-22.2073
-18.0585
-14.6108
-11.7616
-9.42012
-7.50654
-5.95133
-4.69437
-3.68408
-2.87651
-2.23454
-1.72702
-1.32797
-1.01594
-0.773268
-0.585571
-0.44118
-0.330704
-0.246634
-0.183003
-0.1351
-0.0992304
-0.0725157
-0.0527253
-0.0381424
-0.027454
-0.0196618
-0.0140113
-0.00993611
-0.0070133
-0.00492936
-0.00345333
-0.00241641
-0.00169642
-0.00120609
-0.000884479
-0.000690717
-0.000599772
-1497.87
-1484.5
-1458.36
-1420.59
-1372.73
-1316.52
-1253.78
-1186.29
-1115.66
-1043.33
-970.513
-898.234
-827.318
-758.429
-692.087
-628.688
-568.53
-511.819
-458.692
-409.22
-363.422
-321.267
-282.688
-247.58
-215.811
-187.225
-161.648
-138.893
-118.761
-101.052
-85.5606
-72.0867
-60.4334
-50.4116
-41.8416
-34.5543
-28.3927
-23.2122
-18.881
-15.2802
-12.3035
-9.85632
-7.85577
-6.22942
-4.91462
-3.85758
-3.01246
-2.3405
-1.80916
-1.39132
-1.06453
-0.810345
-0.613715
-0.462431
-0.346668
-0.258563
-0.191871
-0.141658
-0.104056
-0.0760475
-0.055297
-0.0400056
-0.0287969
-0.0206248
-0.0146984
-0.0104239
-0.00735801
-0.0051719
-0.00362342
-0.00253555
-0.00178015
-0.00126568
-0.000928221
-0.000724907
-0.000629477
-1463.24
-1451.35
-1428.04
-1394.16
-1350.92
-1299.7
-1242
-1179.31
-1113.05
-1044.52
-974.889
-905.159
-836.185
-768.678
-703.225
-640.295
-580.254
-523.38
-469.872
-419.856
-373.4
-330.514
-291.164
-255.272
-222.728
-193.393
-167.105
-143.684
-122.938
-104.667
-88.67
-74.7434
-62.689
-52.3149
-43.4379
-35.8852
-29.4959
-24.1213
-19.626
-15.8872
-12.7953
-10.2526
-8.17328
-6.48244
-5.11516
-4.01566
-3.1364
-2.43715
-1.88413
-1.44916
-1.10892
-0.844239
-0.639454
-0.481875
-0.361279
-0.269486
-0.199993
-0.147667
-0.108478
-0.0792856
-0.0576557
-0.0417147
-0.0300291
-0.0215086
-0.0153292
-0.0108719
-0.0076746
-0.00539471
-0.00377971
-0.00264505
-0.00185711
-0.00132046
-0.000968443
-0.000756352
-0.0006568
-1435.22
-1424.45
-1403.26
-1372.34
-1332.64
-1285.3
-1231.57
-1172.73
-1110.04
-1044.69
-977.774
-910.269
-843.036
-776.817
-712.239
-649.824
-589.993
-533.078
-479.328
-428.918
-381.955
-338.486
-298.507
-261.966
-228.773
-198.803
-171.906
-147.912
-126.633
-107.874
-91.4339
-77.1097
-64.7018
-54.0163
-44.8671
-37.0786
-30.4864
-24.9386
-20.2964
-16.4341
-13.2388
-10.6103
-8.46014
-6.71124
-5.29663
-4.15882
-3.24872
-2.5248
-1.95216
-1.50168
-1.14925
-0.875038
-0.662853
-0.499559
-0.374574
-0.279428
-0.20739
-0.153141
-0.112508
-0.082237
-0.0598061
-0.0432735
-0.0311532
-0.0223151
-0.0159049
-0.0112808
-0.0079637
-0.00559821
-0.00392248
-0.00274509
-0.00192744
-0.00137054
-0.00100522
-0.000785106
-0.000681787
-1412.51
-1402.57
-1382.99
-1354.33
-1317.37
-1273.06
-1222.47
-1166.72
-1106.94
-1044.22
-979.594
-914.004
-848.305
-783.254
-719.505
-657.615
-598.046
-541.172
-487.284
-436.594
-389.246
-345.318
-304.831
-267.756
-234.021
-203.516
-176.103
-151.618
-129.881
-110.7
-93.8749
-79.2039
-66.4866
-55.5275
-46.1387
-38.1418
-31.3701
-25.6687
-20.896
-16.9237
-13.6363
-10.9312
-8.71773
-6.91684
-5.45985
-4.28766
-3.34987
-2.60378
-2.0135
-1.54906
-1.18565
-0.902856
-0.683999
-0.515547
-0.386598
-0.288424
-0.214085
-0.158097
-0.116158
-0.0849114
-0.0617553
-0.0446868
-0.0321727
-0.0230468
-0.0164273
-0.011652
-0.00822616
-0.005783
-0.00405216
-0.00283598
-0.00199136
-0.00141605
-0.00103865
-0.00081125
-0.00070451
-1394.06
-1384.76
-1366.42
-1339.5
-1304.66
-1262.72
-1214.62
-1161.35
-1103.93
-1043.38
-980.665
-916.705
-852.34
-788.328
-725.34
-663.958
-604.675
-547.895
-493.944
-443.064
-395.427
-351.14
-310.245
-272.734
-238.55
-207.598
-179.749
-154.848
-132.719
-113.175
-96.0174
-81.0457
-68.0592
-56.8614
-47.2628
-39.0833
-32.1536
-26.3168
-21.429
-17.3594
-13.9904
-11.2173
-8.94761
-7.1005
-5.60574
-4.40292
-3.44043
-2.67454
-2.06848
-1.59156
-1.21832
-0.927833
-0.702994
-0.529916
-0.39741
-0.296516
-0.22011
-0.162559
-0.119446
-0.0873206
-0.0635118
-0.0459608
-0.033092
-0.0237067
-0.0168986
-0.0119869
-0.00846307
-0.00594985
-0.00416927
-0.00291808
-0.0020491
-0.00145718
-0.00106887
-0.000834886
-0.000725054
-1379.07
-1370.26
-1352.87
-1327.29
-1294.1
-1254.03
-1207.9
-1156.61
-1101.11
-1042.34
-981.22
-918.637
-855.416
-792.314
-730.011
-669.105
-610.11
-553.456
-499.492
-448.488
-400.64
-356.074
-314.855
-276.99
-242.437
-211.113
-182.898
-157.645
-135.183
-115.329
-97.8863
-82.6556
-69.4363
-58.0315
-48.2505
-39.9117
-32.844
-26.8888
-21.8999
-17.7447
-14.3039
-11.4708
-9.15152
-7.26354
-5.73538
-4.50541
-3.52101
-2.73755
-2.11748
-1.62944
-1.24746
-0.950127
-0.719957
-0.542754
-0.407074
-0.303753
-0.225499
-0.166553
-0.122389
-0.0894784
-0.0650855
-0.0471026
-0.0339161
-0.0242984
-0.0173214
-0.0122874
-0.00867569
-0.00609962
-0.00427442
-0.00299181
-0.00210097
-0.00149414
-0.00109602
-0.000856133
-0.000743525
-1366.88
-1358.46
-1341.8
-1317.27
-1285.37
-1246.77
-1202.2
-1152.5
-1098.55
-1041.23
-981.429
-919.999
-857.75
-795.436
-733.738
-673.266
-614.549
-558.036
-504.095
-453.015
-405.014
-360.234
-318.758
-280.608
-245.753
-214.122
-185.602
-160.053
-137.31
-117.193
-99.5068
-84.0543
-70.6351
-59.0518
-49.1132
-40.6363
-33.4488
-27.3903
-22.3133
-18.0835
-14.5798
-11.6942
-9.33131
-7.40743
-5.84988
-4.59601
-3.59229
-2.79332
-2.16087
-1.66302
-1.2733
-0.969908
-0.735016
-0.554156
-0.415662
-0.310186
-0.230293
-0.170106
-0.125008
-0.0913996
-0.0664872
-0.0481199
-0.0346506
-0.024826
-0.0176984
-0.0125555
-0.00886541
-0.0062333
-0.00436829
-0.00305765
-0.0021473
-0.00152716
-0.00112029
-0.000875124
-0.000760037
-1356.97
-1348.85
-1332.77
-1309.05
-1278.17
-1240.72
-1197.39
-1148.97
-1096.27
-1040.13
-981.414
-920.943
-859.515
-797.874
-736.704
-676.62
-618.162
-561.793
-507.896
-456.776
-408.666
-363.724
-322.047
-283.667
-248.567
-216.683
-187.91
-162.114
-139.136
-118.796
-100.904
-85.2623
-71.6723
-59.9362
-49.8621
-41.2662
-33.9753
-27.8276
-22.6742
-18.3795
-14.8211
-11.8898
-9.48889
-7.53366
-5.9504
-4.67561
-3.65497
-2.84239
-2.19908
-1.69261
-1.29609
-0.987357
-0.748306
-0.564225
-0.423248
-0.315872
-0.234532
-0.173249
-0.127327
-0.0931005
-0.0677286
-0.0490212
-0.0353016
-0.0252938
-0.0180328
-0.0127933
-0.00903374
-0.00635194
-0.00445163
-0.00311612
-0.00218845
-0.00155649
-0.00114186
-0.000892002
-0.000774713
-1348.93
-1341.04
-1325.4
-1302.32
-1272.24
-1235.7
-1193.37
-1145.96
-1094.26
-1039.09
-981.26
-921.584
-860.842
-799.772
-739.057
-679.315
-621.093
-564.864
-511.022
-459.887
-411.701
-366.638
-324.803
-286.24
-250.942
-218.851
-189.87
-163.869
-140.693
-120.167
-102.101
-86.2996
-72.5645
-60.6982
-50.5084
-41.8107
-34.431
-28.2065
-22.9873
-18.6366
-15.031
-12.06
-9.6262
-7.64374
-6.03814
-4.74514
-3.70976
-2.88532
-2.23253
-1.71853
-1.31606
-1.00266
-0.759968
-0.573064
-0.429912
-0.320868
-0.238258
-0.176013
-0.129366
-0.0945976
-0.0688217
-0.0498151
-0.0358751
-0.025706
-0.0183275
-0.0130031
-0.00918223
-0.00645662
-0.00452518
-0.00316773
-0.00222479
-0.0015824
-0.00116091
-0.000906918
-0.000787686
-1342.41
-1334.7
-1319.41
-1296.83
-1267.38
-1231.56
-1190.01
-1143.41
-1092.53
-1038.13
-981.029
-922.007
-861.836
-801.246
-740.919
-681.473
-623.462
-567.364
-513.583
-462.448
-414.213
-369.059
-327.101
-288.394
-252.936
-220.677
-191.525
-165.355
-142.015
-121.332
-103.121
-87.1852
-73.3277
-61.351
-51.063
-42.2786
-34.8231
-28.533
-23.2574
-18.8587
-15.2124
-12.2074
-9.74513
-7.73917
-6.11428
-4.80553
-3.75738
-2.92266
-2.26164
-1.7411
-1.33346
-1.016
-0.770141
-0.580779
-0.435731
-0.325233
-0.241515
-0.17843
-0.131151
-0.0959078
-0.0697786
-0.0505103
-0.0363776
-0.0260672
-0.0185859
-0.013187
-0.00931248
-0.00654847
-0.00458973
-0.00321304
-0.0022567
-0.00160515
-0.00117765
-0.000920026
-0.000799087
-1337.13
-1329.56
-1314.55
-1292.36
-1263.4
-1228.15
-1187.22
-1141.28
-1091.04
-1037.27
-980.761
-922.275
-862.576
-802.388
-742.388
-683.197
-625.37
-569.392
-515.673
-464.549
-416.282
-371.061
-329.009
-290.188
-254.602
-222.206
-192.915
-166.606
-143.13
-122.318
-103.985
-87.937
-73.9766
-61.9071
-51.5361
-42.6783
-35.1586
-28.8127
-23.4891
-19.0493
-15.3683
-12.3341
-9.84755
-7.82143
-6.17996
-4.85766
-3.79852
-2.95494
-2.28683
-1.76064
-1.34853
-1.02757
-0.778965
-0.587474
-0.440783
-0.329025
-0.244346
-0.180532
-0.132703
-0.0970478
-0.0706115
-0.0511157
-0.0368153
-0.026382
-0.0188112
-0.0133473
-0.00942608
-0.0066286
-0.00464606
-0.00325259
-0.00228456
-0.00162503
-0.00119227
-0.000931479
-0.000809051
-1332.87
-1325.4
-1310.6
-1288.73
-1260.15
-1225.36
-1184.92
-1139.49
-1089.78
-1036.52
-980.484
-922.436
-863.125
-803.269
-743.544
-684.57
-626.902
-571.031
-517.372
-466.265
-417.978
-372.709
-330.586
-291.675
-255.987
-223.481
-194.076
-167.653
-144.066
-123.148
-104.714
-88.5718
-74.5255
-62.3782
-51.9374
-43.0179
-35.4439
-29.0508
-23.6866
-19.2121
-15.5016
-12.4426
-9.93525
-7.89193
-6.23629
-4.90241
-3.83386
-2.9827
-2.3085
-1.77746
-1.36152
-1.03753
-0.786574
-0.593251
-0.445145
-0.3323
-0.246791
-0.182348
-0.134045
-0.0980341
-0.0713325
-0.0516399
-0.0371944
-0.0266548
-0.0190064
-0.0134863
-0.0095246
-0.00669811
-0.00469494
-0.00328692
-0.00230875
-0.00164229
-0.00120497
-0.000941431
-0.000817709
-1329.43
-1322.05
-1307.42
-1285.79
-1257.52
-1223.08
-1183.03
-1138.01
-1088.71
-1035.86
-980.215
-922.522
-863.529
-803.948
-744.452
-685.659
-628.129
-572.352
-518.747
-467.66
-419.364
-374.06
-331.882
-292.901
-257.132
-224.538
-195.041
-168.526
-144.848
-123.841
-105.324
-89.1047
-74.987
-62.7749
-52.276
-43.3048
-35.6853
-29.2526
-23.8541
-19.3502
-15.6148
-12.5348
-10.0099
-7.952
-6.28433
-4.94061
-3.86405
-3.00642
-2.32703
-1.79186
-1.37264
-1.04608
-0.793099
-0.598207
-0.448888
-0.335113
-0.248893
-0.18391
-0.135199
-0.0988826
-0.071953
-0.0520912
-0.0375209
-0.0268898
-0.0191747
-0.0136062
-0.00960957
-0.00675808
-0.00473712
-0.00331655
-0.00232963
-0.00165719
-0.00121595
-0.00095003
-0.000825192
-1326.66
-1319.35
-1304.85
-1283.41
-1255.38
-1221.22
-1181.49
-1136.79
-1087.83
-1035.3
-979.964
-922.56
-863.826
-804.47
-745.163
-686.522
-629.108
-573.412
-519.857
-468.791
-420.491
-375.163
-332.943
-293.908
-258.075
-225.411
-195.84
-169.249
-145.497
-124.419
-105.833
-89.5498
-75.3731
-63.1073
-52.56
-43.5457
-35.8883
-29.4224
-23.9953
-19.4668
-15.7105
-12.6128
-10.0731
-8.0029
-6.32507
-4.97303
-3.88969
-3.02658
-2.34279
-1.80411
-1.38211
-1.05335
-0.798661
-0.602434
-0.452083
-0.337514
-0.250688
-0.185245
-0.136186
-0.0996085
-0.0724839
-0.0524775
-0.0378005
-0.0270911
-0.0193188
-0.0137089
-0.00968242
-0.00680951
-0.00477331
-0.00334198
-0.00234756
-0.00166999
-0.00122537
-0.000957417
-0.000831622
-1324.44
-1317.18
-1302.78
-1281.49
-1253.65
-1219.72
-1180.23
-1135.79
-1087.09
-1034.83
-979.738
-922.566
-864.041
-804.869
-745.718
-687.204
-629.887
-574.26
-520.749
-469.704
-421.404
-376.059
-333.808
-294.731
-258.847
-226.127
-196.497
-169.846
-146.034
-124.897
-106.255
-89.9194
-75.6943
-63.3842
-52.7969
-43.747
-36.0581
-29.5647
-24.1136
-19.5647
-15.7909
-12.6784
-10.1263
-8.04578
-6.35943
-5.00038
-3.91135
-3.04362
-2.35612
-1.81448
-1.39013
-1.05952
-0.803377
-0.60602
-0.454795
-0.339554
-0.252213
-0.186379
-0.137025
-0.100226
-0.0729357
-0.0528064
-0.0380386
-0.0272626
-0.0194417
-0.0137965
-0.00974454
-0.00685339
-0.00480419
-0.00336368
-0.00236286
-0.00168092
-0.00123342
-0.00096373
-0.000837116
-1322.66
-1315.44
-1301.13
-1279.96
-1252.27
-1218.5
-1179.21
-1134.98
-1086.48
-1034.43
-979.538
-922.553
-864.197
-805.174
-746.15
-687.74
-630.504
-574.937
-521.463
-470.437
-422.14
-376.783
-334.51
-295.4
-259.477
-226.712
-197.035
-170.336
-146.475
-125.29
-106.603
-90.2249
-75.9601
-63.6137
-52.9936
-43.9143
-36.1994
-29.6832
-24.2123
-19.6464
-15.858
-12.7333
-10.1708
-8.0817
-6.38823
-5.02334
-3.92953
-3.05794
-2.36733
-1.8232
-1.39688
-1.06472
-0.807353
-0.609045
-0.457083
-0.341275
-0.253501
-0.187338
-0.137735
-0.100748
-0.0733181
-0.0530848
-0.0382403
-0.0274079
-0.0195458
-0.0138707
-0.00979722
-0.0068906
-0.00483039
-0.0033821
-0.00237585
-0.0016902
-0.00124026
-0.000969092
-0.000841785
-1321.24
-1314.06
-1299.81
-1278.73
-1251.15
-1217.53
-1178.38
-1134.31
-1085.99
-1034.09
-979.364
-922.528
-864.309
-805.407
-746.485
-688.16
-630.991
-575.474
-522.033
-471.024
-422.732
-377.367
-335.076
-295.941
-259.988
-227.189
-197.474
-170.735
-146.835
-125.613
-106.889
-90.4759
-76.1789
-63.8028
-53.1559
-44.0525
-36.3163
-29.7813
-24.2942
-19.7142
-15.9138
-12.7789
-10.2079
-8.11164
-6.41225
-5.04249
-3.94472
-3.06991
-2.37671
-1.83051
-1.40254
-1.06907
-0.810685
-0.611582
-0.459004
-0.342721
-0.254583
-0.188143
-0.138331
-0.101187
-0.0736398
-0.0533191
-0.0384101
-0.0275302
-0.0196336
-0.0139333
-0.00984164
-0.00692198
-0.00485249
-0.00339765
-0.00238682
-0.00169804
-0.00124604
-0.000973624
-0.000845731
-1320.11
-1312.96
-1298.75
-1277.74
-1250.26
-1216.75
-1177.72
-1133.78
-1085.58
-1033.82
-979.216
-922.499
-864.388
-805.583
-746.745
-688.489
-631.376
-575.899
-522.486
-471.493
-423.205
-377.835
-335.532
-296.378
-260.4
-227.574
-197.829
-171.06
-147.129
-125.875
-107.122
-90.6812
-76.358
-63.9579
-53.2891
-44.1662
-36.4125
-29.8622
-24.3617
-19.7702
-15.9599
-12.8166
-10.2386
-8.13643
-6.43216
-5.05839
-3.95733
-3.07985
-2.38451
-1.83658
-1.40724
-1.0727
-0.813464
-0.613698
-0.460606
-0.343928
-0.255487
-0.188817
-0.13883
-0.101555
-0.0739089
-0.0535153
-0.0385523
-0.0276328
-0.0197071
-0.0139858
-0.00987888
-0.00694831
-0.00487103
-0.0034107
-0.00239603
-0.00170462
-0.00125089
-0.000977431
-0.000849046
-1319.22
-1312.08
-1297.92
-1276.96
-1249.55
-1216.12
-1177.19
-1133.35
-1085.25
-1033.59
-979.091
-922.468
-864.444
-805.716
-746.945
-688.746
-631.677
-576.234
-522.844
-471.865
-423.581
-378.209
-335.897
-296.728
-260.732
-227.884
-198.116
-171.323
-147.367
-126.089
-107.312
-90.8482
-76.5039
-64.0844
-53.3979
-44.2591
-36.4912
-29.9285
-24.4171
-19.8161
-15.9978
-12.8477
-10.2639
-8.15687
-6.44859
-5.07151
-3.96774
-3.08807
-2.39095
-1.84161
-1.41114
-1.0757
-0.815767
-0.615453
-0.461936
-0.34493
-0.256238
-0.189376
-0.139244
-0.10186
-0.0741329
-0.0536786
-0.0386707
-0.0277182
-0.0197684
-0.0140295
-0.00990994
-0.00697027
-0.00488651
-0.00342159
-0.00240372
-0.00171012
-0.00125495
-0.000980612
-0.000851817
-1318.51
-1311.39
-1297.26
-1276.35
-1248.99
-1215.62
-1176.76
-1133
-1084.99
-1033.41
-978.986
-922.438
-864.483
-805.817
-747.1
-688.946
-631.913
-576.497
-523.127
-472.159
-423.88
-378.507
-336.187
-297.008
-260.998
-228.133
-198.347
-171.534
-147.558
-126.261
-107.465
-90.9834
-76.6222
-64.187
-53.4863
-44.3346
-36.5553
-29.9825
-24.4623
-19.8537
-16.0288
-12.8731
-10.2846
-8.17362
-6.46206
-5.08227
-3.9763
-3.09483
-2.39626
-1.84575
-1.41435
-1.07818
-0.817665
-0.616901
-0.463034
-0.345757
-0.256859
-0.189839
-0.139587
-0.102113
-0.0743183
-0.0538138
-0.0387687
-0.0277889
-0.0198191
-0.0140658
-0.0099357
-0.00698849
-0.00489935
-0.00343062
-0.0024101
-0.00171469
-0.00125831
-0.000983255
-0.00085412
-1317.96
-1310.84
-1296.74
-1275.86
-1248.55
-1215.23
-1176.43
-1132.73
-1084.78
-1033.26
-978.899
-922.41
-864.51
-805.893
-747.218
-689.1
-632.097
-576.704
-523.349
-472.391
-424.117
-378.742
-336.418
-297.231
-261.209
-228.332
-198.531
-171.703
-147.712
-126.399
-107.588
-91.0922
-76.7175
-64.2699
-53.5578
-44.3957
-36.6072
-30.0263
-24.4989
-19.8841
-16.054
-12.8937
-10.3014
-8.18727
-6.47304
-5.09106
-3.98329
-3.10035
-2.40059
-1.84914
-1.41698
-1.08021
-0.819222
-0.618088
-0.463935
-0.346437
-0.257368
-0.190219
-0.139869
-0.102321
-0.0744708
-0.0539251
-0.0388495
-0.0278472
-0.019861
-0.0140957
-0.00995694
-0.00700351
-0.00490994
-0.00343808
-0.00241537
-0.00171846
-0.0012611
-0.00098544
-0.000856023
-1317.52
-1310.42
-1296.33
-1275.48
-1248.2
-1214.92
-1176.16
-1132.51
-1084.61
-1033.14
-978.829
-922.385
-864.528
-805.95
-747.309
-689.22
-632.24
-576.865
-523.523
-472.573
-424.302
-378.928
-336.6
-297.407
-261.377
-228.49
-198.678
-171.838
-147.834
-126.509
-107.687
-91.1794
-76.794
-64.3364
-53.6152
-44.4449
-36.6491
-30.0616
-24.5285
-19.9088
-16.0744
-12.9105
-10.3151
-8.19833
-6.48196
-5.0982
-3.98896
-3.10484
-2.40412
-1.85189
-1.41912
-1.08186
-0.820492
-0.619057
-0.46467
-0.346992
-0.257785
-0.190529
-0.1401
-0.102491
-0.0745957
-0.0540162
-0.0389156
-0.027895
-0.0198953
-0.0141202
-0.00997436
-0.00701584
-0.00491864
-0.00344421
-0.0024197
-0.00172155
-0.00126338
-0.000987235
-0.000857588
-1317.18
-1310.08
-1296.01
-1275.18
-1247.92
-1214.68
-1175.95
-1132.34
-1084.47
-1033.05
-978.771
-922.364
-864.54
-805.992
-747.378
-689.312
-632.35
-576.99
-523.659
-472.715
-424.448
-379.074
-336.744
-297.546
-261.51
-228.614
-198.794
-171.945
-147.932
-126.597
-107.765
-91.2489
-76.855
-64.3896
-53.6611
-44.4843
-36.6826
-30.0899
-24.5523
-19.9286
-16.0908
-12.9239
-10.3261
-8.20726
-6.48915
-5.10396
-3.99355
-3.10847
-2.40698
-1.85413
-1.42086
-1.0832
-0.821521
-0.619843
-0.465267
-0.347442
-0.258123
-0.190782
-0.140287
-0.10263
-0.0746973
-0.0540904
-0.0389695
-0.0279339
-0.0199232
-0.0141401
-0.00998857
-0.0070259
-0.00492573
-0.00344921
-0.00242323
-0.00172408
-0.00126525
-0.000988702
-0.000858867
-1316.91
-1309.82
-1295.76
-1274.94
-1247.71
-1214.49
-1175.79
-1132.2
-1084.37
-1032.97
-978.724
-922.345
-864.548
-806.024
-747.431
-689.382
-632.436
-577.086
-523.764
-472.826
-424.562
-379.188
-336.856
-297.655
-261.614
-228.713
-198.885
-172.029
-148.009
-126.667
-107.827
-91.304
-76.9035
-64.4319
-53.6977
-44.5157
-36.7093
-30.1125
-24.5713
-19.9444
-16.1039
-12.9347
-10.3349
-8.21441
-6.49493
-5.10859
-3.99724
-3.11139
-2.40928
-1.85592
-1.42225
-1.08428
-0.822351
-0.620478
-0.465749
-0.347806
-0.258396
-0.190986
-0.140439
-0.102742
-0.0747796
-0.0541505
-0.0390132
-0.0279654
-0.0199459
-0.0141563
-0.0100001
-0.00703407
-0.00493149
-0.00345327
-0.00242611
-0.00172614
-0.00126677
-0.000989895
-0.000859907
-1316.71
-1309.62
-1295.56
-1274.76
-1247.54
-1214.34
-1175.66
-1132.1
-1084.28
-1032.91
-978.687
-922.33
-864.553
-806.047
-747.471
-689.436
-632.501
-577.161
-523.845
-472.912
-424.65
-379.277
-336.944
-297.74
-261.695
-228.789
-198.957
-172.095
-148.069
-126.721
-107.876
-91.3475
-76.9418
-64.4653
-53.7266
-44.5406
-36.7305
-30.1305
-24.5864
-19.957
-16.1143
-12.9433
-10.3419
-8.22012
-6.49954
-5.11229
-4.00019
-3.11373
-2.41112
-1.85736
-1.42338
-1.08515
-0.823018
-0.620987
-0.466136
-0.348099
-0.258616
-0.19115
-0.140561
-0.102832
-0.0748458
-0.0541989
-0.0390483
-0.0279908
-0.0199642
-0.0141694
-0.0100094
-0.00704065
-0.00493615
-0.00345655
-0.00242842
-0.0017278
-0.00126799
-0.000990859
-0.000860747
-1316.55
-1309.46
-1295.41
-1274.62
-1247.41
-1214.22
-1175.56
-1132.01
-1084.22
-1032.86
-978.657
-922.317
-864.556
-806.064
-747.501
-689.477
-632.551
-577.219
-523.908
-472.979
-424.718
-379.345
-337.012
-297.806
-261.758
-228.849
-199.013
-172.147
-148.117
-126.764
-107.915
-91.3817
-76.9719
-64.4916
-53.7494
-44.5602
-36.7473
-30.1446
-24.5983
-19.967
-16.1226
-12.9501
-10.3475
-8.22465
-6.5032
-5.11523
-4.00253
-3.11558
-2.41258
-1.85851
-1.42427
-1.08584
-0.823549
-0.621394
-0.466445
-0.348333
-0.258792
-0.191282
-0.140658
-0.102904
-0.0748988
-0.0542376
-0.0390765
-0.0280112
-0.0199788
-0.0141799
-0.0100169
-0.00704594
-0.00493988
-0.00345918
-0.00243029
-0.00172913
-0.00126898
-0.000991635
-0.000861423
-1316.42
-1309.34
-1295.3
-1274.51
-1247.31
-1214.13
-1175.48
-1131.95
-1084.17
-1032.83
-978.634
-922.307
-864.557
-806.077
-747.524
-689.508
-632.59
-577.263
-523.956
-473.03
-424.771
-379.399
-337.064
-297.857
-261.808
-228.896
-199.057
-172.187
-148.153
-126.798
-107.945
-91.4084
-76.9955
-64.5122
-53.7673
-44.5756
-36.7604
-30.1558
-24.6077
-19.9748
-16.1291
-12.9555
-10.3519
-8.22823
-6.50609
-5.11755
-4.00439
-3.11705