/*--------------------------------*- C++ -*----------------------------------*\
  =========                 |
  \\      /  F ield         | OpenFOAM: The Open Source CFD Toolbox
   \\    /   O peration     | Website:  https://openfoam.org
    \\  /    A nd           | Version:  10
     \\/     M anipulation  |
\*---------------------------------------------------------------------------*/
FoamFile
{
    format      ascii;
    class       volScalarField;
    location    "383";
    object      gradTx;
}
// * * * * * * * * * * * * * * * * * * * * * * * * * * * * * * * * * * * * * //

dimensions      [0 -1 0 1 0 0 0];

internalField   nonuniform List<scalar> 
11250
(
14303.1
8113.85
5326.5
3849.88
2957.54
2362.27
1935.56
1613.25
1360.25
1155.92
987.342
846.033
726.182
623.659
535.43
459.196
393.17
335.924
286.289
243.29
206.099
174.002
146.375
122.669
102.398
85.1274
70.4727
58.0895
47.6714
38.9462
31.6727
25.6383
20.6562
16.5632
13.2176
10.4967
8.29528
6.52332
5.10449
3.97439
3.07901
2.37336
1.82019
1.38889
1.0544
0.796383
0.59843
0.447378
0.332736
0.246198
0.181228
0.132715
0.0966865
0.0700743
0.050524
0.0362393
0.0258586
0.0183557
0.0129621
0.00910585
0.0063636
0.00442407
0.00305968
0.00210504
0.00144067
0.000980777
0.000664085
0.000447096
0.000299094
0.000198486
0.000130147
8.34821e-05
5.10277e-05
2.74201e-05
8.6307e-06
4098.99
4712.62
4016.95
3267.25
2662.51
2196.15
1833.94
1547.01
1314.92
1123.7
963.754
828.357
712.688
613.204
527.233
452.71
388.001
331.781
282.954
240.598
203.922
172.239
144.947
121.513
101.462
84.3712
69.8628
57.5985
47.2772
38.6305
31.4207
25.4377
20.4971
16.4376
13.1187
10.4191
8.23467
6.47617
5.06798
3.94623
3.05738
2.35683
1.80762
1.37936
1.04722
0.790993
0.594405
0.444386
0.330523
0.244569
0.180035
0.131846
0.0960558
0.0696191
0.0501971
0.0360057
0.0256925
0.0182382
0.0128794
0.00904795
0.00632326
0.0043961
0.00304039
0.0020918
0.00143164
0.000974642
0.000659941
0.000444313
0.000297236
0.000197256
0.000129341
8.29665e-05
5.07131e-05
2.72513e-05
8.57768e-06
1479.41
2621.42
2762.61
2541.27
2231.15
1928.29
1659.8
1428.98
1232.02
1063.72
919.278
794.712
686.82
593.051
511.366
440.112
377.931
323.691
276.431
235.324
199.65
168.776
142.139
119.237
99.6192
82.8814
68.6603
56.6302
46.4993
38.0074
30.923
25.0416
20.1829
16.1892
12.9231
10.2657
8.11481
6.38292
4.99573
3.8905
3.01459
2.32411
1.78272
1.3605
1.03299
0.78032
0.586433
0.43846
0.326139
0.241342
0.177671
0.130122
0.0948059
0.0687169
0.0495492
0.0355427
0.0253633
0.0180053
0.0127155
0.00893314
0.00624326
0.00434065
0.00300214
0.00206555
0.00141372
0.000962471
0.000651718
0.000438789
0.000293549
0.000194813
0.000127743
8.19429e-05
5.00883e-05
2.69159e-05
8.47221e-06
676.893
1531.76
1871.95
1905.67
1794.54
1628.46
1450.72
1280.13
1123.74
983.344
858.546
748.111
650.594
564.587
488.802
422.097
363.469
312.03
266.999
227.678
193.444
163.736
138.046
115.915
96.9263
80.7018
66.8997
55.2112
45.3587
37.0931
30.1924
24.4597
19.7211
15.824
12.6354
10.04
7.93842
6.24566
4.88937
3.80844
2.95155
2.27591
1.74603
1.3327
1.01203
0.764585
0.574679
0.429722
0.319675
0.236583
0.174184
0.12758
0.0929616
0.0673857
0.048593
0.0348594
0.0248774
0.0176615
0.0124735
0.00876365
0.00612515
0.00425876
0.00294565
0.00202679
0.00138725
0.000944496
0.000639574
0.00043063
0.000288102
0.000191206
0.000125381
8.04306e-05
4.91652e-05
2.64204e-05
8.31629e-06
373.529
957.458
1288.91
1416.52
1414.87
1342.62
1237.19
1120.05
1002.66
890.786
787.005
692.242
606.562
529.606
460.826
399.602
345.302
297.311
255.044
217.954
185.529
157.292
132.801
111.651
93.4638
77.8954
64.6299
53.3799
43.8852
35.911
29.2471
23.7063
19.1228
15.3506
12.2623
9.74711
7.70945
6.0674
4.75119
3.70179
2.86961
2.21324
1.69831
1.29654
0.984753
0.744108
0.55938
0.418346
0.311257
0.230384
0.169642
0.124269
0.0905589
0.0656511
0.047347
0.0339688
0.0242441
0.0172134
0.012158
0.00854267
0.00597115
0.00415198
0.00287199
0.00197624
0.00135274
0.00092105
0.000623733
0.000419987
0.000280996
0.000186499
0.0001223
7.84574e-05
4.79606e-05
2.57737e-05
8.11286e-06
233.521
636.316
910.833
1058.15
1107.72
1092.27
1038
963.101
879.227
793.463
709.92
630.861
557.421
490.07
428.879
373.694
324.232
280.138
241.029
206.506
176.176
149.654
126.569
106.572
89.3317
74.5404
61.9122
51.1842
42.1163
34.4904
28.11
22.7993
18.4019
14.7799
11.8122
9.39357
7.43291
5.85201
4.58415
3.57282
2.77049
2.13739
1.64055
1.25275
0.951714
0.719298
0.540839
0.404557
0.301051
0.222868
0.164134
0.120251
0.0876439
0.0635463
0.0458348
0.0328879
0.0234753
0.0166694
0.011775
0.00827433
0.00578412
0.00402229
0.00278252
0.00191483
0.0013108
0.000892563
0.000604484
0.000407054
0.00027236
0.000180778
0.000118556
7.60588e-05
4.64963e-05
2.49875e-05
7.86553e-06
157.982
444.112
661.045
799.029
867.479
882.974
861.988
817.949
760.731
697.154
631.727
567.325
505.706
447.891
394.409
345.476
301.1
261.16
225.452
193.722
165.689
141.058
119.534
100.823
84.6438
70.7262
58.817
48.6796
40.0957
32.8656
26.8079
21.7596
17.5748
14.1245
11.2949
8.98699
7.11468
5.604
4.39172
3.42418
2.65618
2.0499
1.57389
1.2022
0.913561
0.690639
0.519416
0.38862
0.289253
0.214177
0.157763
0.115604
0.0842711
0.0611106
0.0440847
0.0316366
0.0225852
0.0160394
0.0113313
0.00796352
0.00556747
0.00387204
0.00267885
0.00184366
0.0012622
0.000859546
0.000582173
0.000392061
0.000262348
0.000174145
0.000114214
7.32775e-05
4.47983e-05
2.40758e-05
7.57868e-06
112.492
321.742
491.256
610.888
682.007
712.31
711.486
688.701
651.541
605.82
555.769
504.352
453.581
404.774
358.754
315.995
276.729
241.02
208.819
179.998
154.38
131.753
111.891
94.5593
79.5221
66.5495
55.4206
45.9261
37.8707
31.0738
25.3701
20.6102
16.6595
13.3984
10.7214
8.53585
6.76133
5.32844
4.17777
3.25882
2.52896
1.95247
1.49962
1.14586
0.871023
0.658676
0.495514
0.370833
0.276082
0.204472
0.150647
0.110413
0.0805022
0.0583883
0.0421281
0.0302375
0.0215897
0.0153347
0.0108351
0.00761577
0.00532503
0.00370388
0.00256281
0.001764
0.00120779
0.000822576
0.000557187
0.000375269
0.000251134
0.000166715
0.000109349
7.01614e-05
4.28957e-05
2.30543e-05
7.25728e-06
82.9394
239.719
372.359
472.645
539.093
574.842
585.307
576.442
553.743
521.818
484.304
443.946
402.75
362.133
323.067
286.184
251.867
220.32
191.612
165.721
142.556
121.983
103.837
87.9364
74.0913
62.1093
51.8016
42.9863
35.4908
29.1541
23.8275
19.3753
15.675
12.6167
10.1033
8.04917
6.37981
5.03069
3.94645
3.07992
2.39124
1.84694
1.41914
1.08478
0.824883
0.623992
0.469569
0.35152
0.261776
0.193926
0.142913
0.104768
0.0764037
0.0554271
0.0399995
0.028715
0.0205063
0.0145676
0.0102947
0.00723706
0.00506097
0.0035207
0.00243638
0.00167719
0.00114849
0.00078228
0.00052995
0.000356963
0.000238907
0.000158613
0.000104044
6.67627e-05
4.08205e-05
2.194e-05
6.90671e-06
62.6823
182.421
286.779
369.566
428.543
464.633
480.712
480.513
467.87
446.27
418.669
387.447
354.448
321.056
288.279
256.824
227.164
199.593
174.267
151.245
130.507
111.981
95.559
81.1059
68.4729
57.5031
48.0383
39.9224
33.0057
27.146
22.2113
18.0797
14.6406
11.7944
9.45237
7.53619
5.97732
4.71631
3.70201
2.89074
2.24551
1.73521
1.33389
1.02004
0.775957
0.587198
0.442032
0.331014
0.24658
0.182722
0.134693
0.0987677
0.0720452
0.0522773
0.0377346
0.0270947
0.019353
0.0137509
0.00971927
0.00683369
0.00477966
0.00332552
0.00230165
0.00158466
0.00108528
0.000739318
0.000500907
0.00033744
0.000225866
0.000149971
9.83844e-05
6.31365e-05
3.86061e-05
2.0751e-05
6.53257e-06
48.2375
141.056
223.685
291.553
342.457
376.311
394.533
399.4
393.516
379.441
359.49
335.637
309.489
282.319
255.095
228.536
203.152
179.289
157.162
136.883
118.49
101.96
87.2311
74.2091
62.7815
52.8236
44.205
36.7945
30.4632
25.0878
20.5518
16.7473
13.5754
10.9465
8.78045
7.00607
5.56097
4.39082
3.44872
2.69456
2.09428
1.61919
1.24531
0.952732
0.725067
0.548907
0.413363
0.309655
0.230747
0.171043
0.126121
0.0925083
0.0674973
0.0489896
0.03537
0.0254026
0.0181483
0.0128976
0.00911791
0.00641206
0.00448556
0.00312142
0.00216074
0.00148787
0.00101914
0.000694362
0.000470512
0.000317005
0.000212214
0.000140922
9.24581e-05
5.93391e-05
3.62869e-05
1.95055e-05
6.14067e-06
37.6243
110.405
176.216
231.688
274.913
305.388
323.726
331.275
329.77
321.053
306.89
288.867
268.339
246.423
224.007
201.776
180.242
159.77
140.606
122.9
106.727
92.1052
79.0067
67.3725
57.121
48.1555
40.3708
33.6581
27.9083
23.0153
18.8779
15.4012
12.4977
10.0875
8.0988
6.46767
5.13768
4.05957
3.19073
2.49458
1.94
1.50075
1.15482
0.883932
0.673016
0.509722
0.384011
0.287777
0.214521
0.15907
0.11733
0.0860866
0.0628299
0.0456145
0.0329417
0.0236645
0.0169105
0.0120206
0.00849971
0.00597853
0.00418309
0.00291147
0.00201576
0.00138827
0.00095107
0.000648083
0.000439217
0.000295961
0.000198153
0.000131601
8.63528e-05
5.54264e-05
3.38972e-05
1.8222e-05
5.73681e-06
29.6436
87.2148
139.893
185.184
221.517
248.263
265.6
274.303
275.506
270.516
260.658
247.178
231.19
213.643
195.322
176.856
158.73
141.306
124.841
109.506
95.4015
82.5714
71.0168
60.7056
51.5821
43.5736
36.5971
30.5635
25.3817
20.9616
17.216
14.0625
11.4241
9.23056
7.41796
5.92926
4.71391
3.72762
2.93194
2.2938
1.78499
1.38165
1.06376
0.814659
0.620576
0.470222
0.354406
0.2657
0.198141
0.146977
0.108448
0.0795955
0.0581104
0.0422005
0.0304847
0.0219052
0.0156573
0.0111324
0.00787347
0.00553925
0.00387653
0.00269863
0.00186875
0.00128726
0.000882022
0.000601131
0.000407461
0.000274604
0.00018388
0.000122139
8.01536e-05
5.14531e-05
3.14701e-05
1.69185e-05
5.32664e-06
23.5326
69.3759
111.71
148.676
179.011
202.092
217.877
226.785
229.551
227.091
220.386
210.403
198.035
184.075
169.199
153.962
138.81
124.087
110.045
96.863
84.6548
73.4827
63.3677
54.2989
46.241
39.1417
32.9366
27.554
22.919
18.9556
15.5896
12.7499
10.3699
8.38782
6.74748
5.39837
4.29558
3.39957
2.67595
2.09501
1.63138
1.26353
0.973391
0.745861
0.568462
0.430944
0.324951
0.243723
0.181826
0.134927
0.0995934
0.0731221
0.0534019
0.0387933
0.0280317
0.0201482
0.0144053
0.0102448
0.00724749
0.00510003
0.00356994
0.00248572
0.00172167
0.00118617
0.000812904
0.000554122
0.00037566
0.000253213
0.000169582
0.000112658
7.39416e-05
4.74711e-05
2.90375e-05
1.56118e-05
4.91541e-06
18.7858
55.4706
89.5952
119.762
144.969
164.652
178.668
187.223
190.785
189.992
185.564
178.241
168.733
157.687
145.674
133.176
120.59
108.229
96.3353
85.0827
74.5907
64.9322
56.1417
48.2236
41.159
34.9116
29.4328
24.666
20.55
17.0217
14.0186
11.4799
9.34813
7.56975
6.09571
4.88164
3.88791
3.07953
2.42594
1.90068
1.48108
1.14787
0.884831
0.678392
0.51732
0.392374
0.296011
0.222118
0.165779
0.12307
0.0908759
0.0667461
0.0487623
0.0354346
0.0256127
0.0184151
0.0131698
0.00936873
0.00662942
0.00466624
0.00326705
0.00227533
0.00157628
0.00108623
0.000744556
0.000507627
0.000344201
0.000232047
0.000155432
0.000103273
6.77918e-05
4.35283e-05
2.66285e-05
1.43178e-05
4.50814e-06
15.0568
44.5172
72.0829
96.6957
117.564
134.203
146.429
154.325
158.184
158.446
155.637
150.319
143.05
134.352
124.699
114.502
104.105
93.7905
83.7783
74.2348
65.2779
56.9846
49.3978
42.5326
36.3823
30.9233
26.12
21.9283
18.299
15.1802
12.5196
10.2658
8.36972
6.7852
5.46974
4.38469
3.49536
2.77102
2.18468
1.71297
1.33577
1.03595
0.799063
0.613001
0.467719
0.354942
0.267906
0.201125
0.150178
0.111536
0.0823923
0.0605383
0.0442432
0.0321617
0.0232547
0.0167249
0.0119647
0.00851381
0.00602609
0.00424267
0.00297122
0.00206979
0.00143421
0.000988536
0.000677733
0.000462159
0.00031343
0.00021134
0.000141586
9.40888e-05
6.1772e-05
3.96683e-05
2.42698e-05
1.30505e-05
4.10934e-06
12.1015
35.8172
58.1145
78.1867
95.4106
109.379
119.903
126.997
130.839
131.73
130.053
126.233
120.704
113.884
106.162
97.8804
89.3366
80.7762
72.3972
64.3523
56.7538
49.6787
43.1739
37.2614
31.9431
27.2055
23.0232
19.3625
16.1843
13.4465
11.1055
9.11839
7.44343
6.04126
4.87531
3.91214
3.12162
2.47693
1.95446
1.53366
1.19683
0.928843
0.716916
0.550323
0.420141
0.319012
0.240912
0.180949
0.135176
0.100438
0.074226
0.0545598
0.0398891
0.029007
0.0209809
0.0150945
0.0108016
0.0076885
0.00544348
0.00383351
0.00268538
0.00187113
0.00129685
0.000894064
0.000613096
0.000418167
0.000283651
0.000191297
0.000128181
8.51951e-05
5.59417e-05
3.59292e-05
2.19847e-05
1.18227e-05
3.72287e-06
9.74324
28.8625
46.91
63.2672
77.4437
89.1032
98.0699
104.319
107.955
109.184
108.284
105.573
101.388
96.0611
89.9072
83.2111
76.223
69.1549
62.1807
55.4378
49.0301
43.0313
37.4892
32.4298
27.861
23.7765
20.159
16.9834
14.219
11.8316
9.78574
8.04548
6.57581
5.34333
4.31681
3.46754
2.76954
2.19956
1.73707
1.36418
1.06537
0.827413
0.63906
0.49087
0.374978
0.284882
0.215254
0.161759
0.120899
0.0898715
0.0664457
0.0488611
0.0357368
0.0259973
0.0188106
0.0135377
0.00969074
0.0068999
0.00488658
0.00344229
0.00241197
0.00168105
0.0011654
0.000803628
0.000551204
0.000376034
0.000255124
0.000172092
0.000115334
7.66696e-05
5.03517e-05
3.23436e-05
1.97931e-05
1.06451e-05
3.35219e-06
7.85157
23.2758
37.8841
51.1998
62.8372
72.5218
80.0967
85.5192
88.8471
90.2201
89.8387
87.9421
84.7897
80.6439
75.7576
70.3647
64.6741
58.8659
53.0907
47.4698
42.0968
37.0404
32.3471
28.0444
24.1441
20.6451
17.5364
14.7995
12.4106
10.3426
8.56638
7.05238
5.77134
4.69516
3.79735
3.05346
2.44119
1.94057
1.53387
1.20558
0.942244
0.73232
0.566003
0.435037
0.332532
0.252782
0.191105
0.143687
0.107446
0.0799084
0.0591061
0.0434825
0.0318158
0.0231538
0.0167594
0.0120657
0.00863992
0.00615367
0.00435942
0.00307183
0.002153
0.00150096
0.00104081
0.00071789
0.000492511
0.000336069
0.000228057
0.000153865
0.000103139
6.85752e-05
4.50434e-05
2.89381e-05
1.77113e-05
9.52632e-06
3.00002e-06
6.32836
18.7718
30.5905
41.4155
50.9435
58.9519
65.3053
69.9543
72.9274
74.3187
74.2726
72.9685
70.6053
67.3892
63.5223
59.1951
54.5801
49.8288
45.0698
40.4083
35.9274
31.6894
27.738
24.1007
20.7914
17.8125
15.1577
12.8138
10.7627
8.98274
7.4506
6.14196
5.03259
4.09899
3.31886
2.67149
2.13792
1.70107
1.34575
1.0586
0.828015
0.644016
0.498103
0.383103
0.293018
0.222878
0.168592
0.126828
0.0948877
0.0706031
0.0522473
0.0384536
0.0281479
0.0204927
0.0148388
0.0106869
0.00765522
0.00545413
0.00386506
0.00272431
0.00190997
0.00133189
0.000923824
0.000637357
0.000437367
0.000298509
0.000202614
0.000136728
9.16695e-05
6.0961e-05
4.0049e-05
2.57334e-05
1.57519e-05
8.47323e-06
2.66852e-06
5.09854
15.1318
24.6843
33.4699
41.2499
47.8449
53.1403
57.0865
59.6942
61.0261
61.1863
60.3087
58.5458
56.0588
53.0083
49.5483
45.8203
41.9504
38.0469
34.2002
30.4828
26.95
23.642
20.5849
17.7936
15.2729
13.0196
11.0247
9.27452
7.75219
6.43894
5.315
4.36042
3.55569
2.88216
2.3224
1.86039
1.48164
1.17318
0.923627
0.723014
0.56277
0.435574
0.335236
0.256571
0.195273
0.147796
0.111245
0.0832722
0.061991
0.0458959
0.0337941
0.0247478
0.0180247
0.0130568
0.00940694
0.00674077
0.00480423
0.00340562
0.00240121
0.00168394
0.00117461
0.00081495
0.00056239
0.000386018
0.000263525
0.000178909
0.000120758
8.09788e-05
5.3862e-05
3.53915e-05
2.27444e-05
1.39241e-05
7.49073e-06
2.35924e-06
4.10393
12.1855
19.8958
27.0123
33.3474
38.757
43.1454
46.4665
48.7205
49.9487
50.2258
49.6517
48.3433
46.4258
44.0267
41.2695
38.2693
35.1302
31.9428
28.7838
25.7153
22.7859
20.0315
17.4767
15.1358
13.0152
11.1142
9.42659
7.94235
6.64837
5.52974
4.57046
3.75423
3.06495
2.48712
2.00617
1.60866
1.28236
1.01629
0.800782
0.627351
0.488678
0.378499
0.291507
0.223248
0.170016
0.128755
0.0969669
0.0726227
0.0540904
0.0400658
0.0295149
0.0216235
0.0157557
0.0114177
0.00822916
0.00589895
0.00420571
0.00298233
0.00210342
0.00147556
0.00102955
0.000714506
0.000493205
0.000338616
0.000231222
0.000157014
0.000106003
7.10994e-05
4.73002e-05
3.10856e-05
1.99805e-05
1.22336e-05
6.58197e-06
2.0731e-06
3.29883
9.79882
16.0114
21.7634
26.907
31.3271
34.9448
37.7189
39.6437
40.746
41.0795
40.7186
39.7526
38.2787
36.3974
34.2073
31.8017
29.2657
26.6744
24.092
21.5716
19.155
16.8739
14.7503
12.7983
11.0246
9.43007
8.01092
6.75975
5.66655
4.7195
3.9058
3.21218
2.62545
2.13281
1.72217
1.3823
1.10294
0.874875
0.689932
0.540941
0.421689
0.32685
0.251901
0.193042
0.147104
0.11147
0.0839961
0.0629422
0.0469042
0.0347598
0.0256181
0.0187769
0.0136874
0.00992286
0.00715455
0.00513053
0.00365915
0.00259563
0.00183128
0.00128505
0.000896892
0.000622616
0.000429892
0.000295225
0.000201642
0.000136961
9.24853e-05
6.20461e-05
4.12857e-05
2.7138e-05
1.7446e-05
1.06833e-05
5.74844e-06
1.81066e-06
2.64706
7.86549
12.8611
17.4987
21.6624
25.2603
28.2278
30.5292
32.156
33.1252
33.4753
33.2618
32.5525
31.4229
29.9519
28.2179
26.2959
24.2552
22.1574
20.0561
17.9957
16.0121
14.1327
12.3772
10.7584
9.28312
7.95333
6.76686
5.71839
4.8003
4.00334
3.3173
2.73147
2.23509
1.81767
1.46922
1.18042
0.942734
0.74846
0.590737
0.463538
0.361625
0.280497
0.216327
0.165889
0.126491
0.0959075
0.0723107
0.0542151
0.0404218
0.0299706
0.0220988
0.0162048
0.0118175
0.0085708
0.00618213
0.00443487
0.00316414
0.00224527
0.00158461
0.00111231
0.000776562
0.00053924
0.000372427
0.000255829
0.000174779
0.000118743
8.02021e-05
5.38174e-05
3.58177e-05
2.35482e-05
1.51408e-05
9.27302e-06
4.99012e-06
1.57192e-06
2.11965
6.30025
10.3078
14.0371
17.397
20.3144
22.7371
24.6343
25.997
26.8353
27.1769
27.0631
26.5454
25.6822
24.5353
23.1667
21.6366
20.0007
18.3096
16.6073
14.931
13.3108
11.7702
10.3265
8.99128
7.77106
6.66831
5.68203
4.8085
4.042
3.37532
2.80037
2.30855
1.89115
1.5396
1.24573
1.00183
0.800843
0.636369
0.502688
0.394763
0.308205
0.239235
0.184632
0.141677
0.108098
0.0820103
0.0618681
0.0464112
0.0346214
0.0256827
0.0189462
0.0138993
0.0101406
0.00735771
0.00530924
0.00381014
0.00271941
0.00193036
0.00136282
0.000956928
0.000668289
0.000464192
0.000320686
0.000220346
0.000150576
0.000102325
6.91293e-05
4.63976e-05
3.0886e-05
2.03098e-05
1.30609e-05
8.0003e-06
4.30567e-06
1.35637e-06
1.6933
5.03437
8.24109
11.2314
13.9338
16.2904
18.259
19.814
20.9462
21.6615
21.9798
21.9315
21.5561
20.8985
20.0068
18.9301
17.7162
16.4099
15.0523
13.6793
12.3217
11.0047
9.74822
8.56711
7.47158
6.46777
5.55835
4.7431
4.01949
3.38324
2.8288
2.34978
1.93934
1.59045
1.29616
1.04981
0.845077
0.676157
0.537759
0.425147
0.334134
0.261068
0.202793
0.156616
0.120258
0.0918131
0.0696977
0.0526098
0.0394876
0.0294721
0.0218739
0.0161442
0.0118492
0.00864869
0.00627785
0.00453185
0.00325351
0.00232298
0.00164954
0.00116496
0.000818262
0.000571627
0.000397169
0.000274462
0.000188636
0.000128941
8.76445e-05
5.92254e-05
3.97594e-05
2.64727e-05
1.74111e-05
1.11987e-05
6.86063e-06
3.69268e-06
1.16334e-06
1.34917
4.01217
6.57087
8.96131
11.1275
13.0238
14.6162
15.8836
16.8173
17.4207
17.7077
17.7012
17.4308
16.9313
16.2401
15.3957
14.436
13.3969
12.3114
11.2088
10.1143
9.04893
8.02924
7.06787
6.17373
5.35238
4.60649
3.93635
3.3403
2.81518
2.35673
1.95997
1.61944
1.32954
1.08465
0.879366
0.708544
0.567428
0.451674
0.357384
0.281099
0.219796
0.170856
0.132042
0.101456
0.0775071
0.0588731
0.0444647
0.0333925
0.0249361
0.0185167
0.013673
0.0100401
0.00733147
0.00532397
0.00384483
0.00276136
0.00197233
0.00140105
0.000989802
0.00069546
0.000485992
0.000337771
0.000233482
0.000160516
0.000109748
7.46176e-05
5.04346e-05
3.38657e-05
2.25533e-05
1.48363e-05
9.54425e-06
5.84791e-06
3.14795e-06
9.91798e-07
1.07192
3.18834
5.22384
7.12865
8.85899
10.3789
11.6612
12.6886
13.4535
13.9573
14.21
14.2284
14.0352
13.6569
13.1227
12.4625
11.7065
10.8831
10.0187
9.1371
8.25878
7.40095
6.57744
5.79887
5.07287
4.40436
3.79589
3.24805
2.7598
2.32884
1.95194
1.62519
1.34431
1.10483
0.902245
0.732191
0.590508
0.473321
0.377087
0.29861
0.235055
0.18393
0.143079
0.110651
0.0850756
0.0650342
0.0494286
0.0373531
0.0280673
0.0209705
0.0155799
0.01151
0.00845569
0.00617729
0.00448774
0.00324225
0.0023295
0.0016645
0.0011828
0.000835908
0.000587525
0.000410697
0.000285527
0.000197426
0.000135765
9.28504e-05
6.3145e-05
4.26906e-05
2.86723e-05
1.90989e-05
1.25663e-05
8.08538e-06
4.95477e-06
2.66744e-06
8.40437e-07
0.84904
2.52589
4.14002
5.65276
7.02996
8.24331
9.27135
10.0999
10.7224
11.1393
11.3575
11.3896
11.2527
10.9671
10.5554
10.041
9.44753
8.79749
8.11203
7.41014
6.70845
6.02098
5.35913
4.73175
4.14528
3.60401
3.11029
2.66485
2.26711
1.9154
1.60728
1.33972
1.10937
0.912683
0.746073
0.606031
0.489207
0.392467
0.312934
0.248009
0.195374
0.152993
0.119098
0.0921673
0.0709105
0.0542399
0.0412492
0.0311899
0.0234491
0.0175293
0.0130299
0.00963077
0.00707846
0.00517346
0.00376008
0.00271766
0.00195336
0.00139626
0.000992552
0.000701698
0.000493359
0.000344982
0.000239914
0.000165936
0.000114142
7.80832e-05
5.31158e-05
3.59189e-05
2.41298e-05
1.60766e-05
1.05799e-05
6.80848e-06
4.17288e-06
2.24672e-06
7.07905e-07
0.670336
1.99459
3.27029
4.46747
5.55953
6.5243
7.3448
8.00964
8.51318
8.85525
9.04076
9.07903
8.98293
8.76803
8.4517
8.05221
7.58795
7.07677
6.53539
5.97898
5.4209
4.87253
4.34316
3.8401
3.36875
2.93277
2.53427
2.17404
1.85179
1.56634
1.31585
1.098
0.910162
0.749548
0.613312
0.498654
0.40289
0.323497
0.258154
0.204756
0.161424
0.1265
0.0985434
0.0763123
0.0587502
0.0449663
0.0342171
0.0258875
0.0194734
0.0145649
0.0108318
0.00801004
0.00588999
0.00430677
0.00313151
0.00226428
0.00162813
0.00116423
0.000827911
0.000585507
0.000411803
0.000288047
0.00020038
0.000138633
9.53886e-05
6.52717e-05
4.44123e-05
3.00406e-05
2.01855e-05
1.34516e-05
8.85416e-06
5.69898e-06
3.49337e-06
1.88107e-06
5.92737e-07
0.527452
1.56968
2.5744
3.51842
4.38107
5.14506
5.79701
6.32781
6.73273
7.01129
7.16693
7.20653
7.1398
6.97861
6.73631
6.42708
6.06524
5.6648
5.23896
4.79977
4.3579
3.9225
3.50112
3.09973
2.7228
2.37344
2.05347
1.76371
1.50403
1.27362
1.07111
0.894717
0.742411
0.611999
0.501237
0.407903
0.329856
0.265079
0.211708
0.168048
0.132584
0.103975
0.0810522
0.0628089
0.0483854
0.0370561
0.0282145
0.0213583
0.0160752
0.0120296
0.00895084
0.00662226
0.00487179
0.00356385
0.00259244
0.00187527
0.00134895
0.000964958
0.000686455
0.000485638
0.000341677
0.000239072
0.000166362
0.000115132
7.92404e-05
5.42365e-05
3.69133e-05
2.49743e-05
1.67852e-05
1.11881e-05
7.36574e-06
4.74176e-06
2.90702e-06
1.56552e-06
4.93348e-07
0.413559
1.23091
2.01935
2.76096
3.43974
4.04223
4.55795
4.97964
5.30342
5.52865
5.65772
5.69572
5.64995
5.52944
5.34444
5.10588
4.8249
4.51243
4.17885
3.83367
3.48538
3.14127
2.80745
2.48874
2.18883
1.9103
1.65473
1.42287
1.21474
1.02976
0.866939
0.724911
0.602104
0.496812
0.407272
0.33173
0.268488
0.21594
0.1726
0.137111
0.108255
0.0849561
0.0662719
0.0513892
0.0396132
0.0303564
0.0231269
0.0175169
0.0131911
0.00987651
0.00735249
0.00544236
0.00400562
0.00293153
0.00213339
0.00154385
0.00111098
0.000795033
0.000565779
0.000400405
0.000281805
0.000197243
0.000137297
9.5045e-05
6.5434e-05
4.47988e-05
3.04978e-05
2.06389e-05
1.38746e-05
9.25001e-06
6.09101e-06
3.92183e-06
2.4047e-06
1.29513e-06
4.0815e-07
0.323072
0.961705
1.57811
2.15847
2.69045
3.1636
3.56972
3.9031
4.16057
4.34144
4.44739
4.48215
4.4512
4.36141
4.22061
4.03721
3.81983
3.57697
3.31673
3.04661
2.7733
2.50261
2.2394
1.98758
1.75014
1.5292
1.32612
1.14157
0.975633
0.827937
0.697734
0.584003
0.485532
0.400996
0.32902
0.268224
0.217271
0.174889
0.139897
0.111215
0.0878734
0.0690092
0.0538685
0.0417984
0.0322404
0.0247213
0.0188448
0.0142815
0.0107605
0.0080608
0.0060038
0.00444618
0.00327394
0.00239711
0.00174521
0.00126346
0.000909567
0.000651145
0.000463551
0.000328172
0.000231045
0.000161766
0.000112637
7.7997e-05
5.37125e-05
3.67837e-05
2.50478e-05
1.69548e-05
1.14006e-05
7.60228e-06
5.00698e-06
3.22443e-06
1.97739e-06
1.06511e-06
3.35649e-07
0.25143
0.748532
1.22858
1.68098
2.0962
2.4662
2.78458
3.04687
3.2505
3.39482
3.48097
3.51172
3.49116
3.42449
3.31768
3.17717
3.00962
2.82161
2.61945
2.40898
2.19547
1.98351
1.77696
1.57895
1.39189
1.21753
1.05699
0.910856
0.779263
0.661963
0.55841
0.467835
0.389312
0.321818
0.264284
0.215632
0.174812
0.140823
0.112733
0.0896869
0.0709138
0.0557287
0.0435306
0.0337985
0.0260859
0.0200141
0.0152653
0.0115752
0.00872602
0.00654013
0.00487359
0.0036109
0.00266011
0.00194853
0.00141923
0.00102788
0.000740265
0.000530144
0.000377547
0.000267378
0.000188307
0.000131885
9.18594e-05
6.3628e-05
4.38296e-05
3.00237e-05
2.04498e-05
1.38458e-05
9.31221e-06
6.21103e-06
4.09151e-06
2.63534e-06
1.61635e-06
8.70727e-07
2.74425e-07
0.194916
0.580342
0.952728
1.30395
1.62671
1.9148
2.16328
2.36863
2.52882
2.64326
2.71272
2.73924
2.72587
2.67654
2.59578
2.48853
2.35988
2.21492
2.05852
1.89524
1.7292
1.56399
1.40267
1.24773
1.1011
0.964185
0.837919
0.722808
0.618998
0.526333
0.444418
0.372676
0.310403
0.256813
0.211079
0.172363
0.139845
0.112742
0.0903205
0.0719079
0.0568959
0.0447427
0.0349721
0.0271705
0.0209831
0.0161085
0.0122933
0.00932672
0.00703473
0.00527518
0.0039329
0.00291531
0.00214865
0.00157458
0.00114734
0.000831303
0.000598926
0.000429084
0.000305687
0.000216562
0.000152569
0.00010689
7.44724e-05
5.15997e-05
3.55539e-05
2.43613e-05
1.65973e-05
1.12401e-05
7.56144e-06
5.04435e-06
3.32362e-06
2.14112e-06
1.31341e-06
7.07588e-07
2.23039e-07
0.150502
0.44815
0.735853
1.00741
1.25724
1.48058
1.67362
1.83363
1.95899
2.04918
2.10474
2.12715
2.1187
2.08233
2.02148
1.93991
1.84151
1.73019
1.60971
1.48359
1.35504
1.22688
1.10148
0.980829
0.86645
0.759479
0.660676
0.57047
0.489006
0.416189
0.351737
0.295219
0.246103
0.203786
0.167633
0.136995
0.111235
0.0897443
0.0719489
0.057322
0.0453861
0.035715
0.0279336
0.0217156
0.0167805
0.0128896
0.00984231
0.0074712
0.00563813
0.00423003
0.00315522
0.00233994
0.00172536
0.00126494
0.0009221
0.000668373
0.000481727
0.000345249
0.000246049
0.000174372
0.000122887
8.61216e-05
6.00211e-05
4.15989e-05
2.8671e-05
1.96504e-05
1.33911e-05
9.07103e-06
6.10364e-06
4.07269e-06
2.68389e-06
1.72928e-06
1.06094e-06
5.71627e-07
1.80198e-07
0.115737
0.344658
0.566022
0.775109
0.967664
1.14004
1.28933
1.4134
1.511
1.58167
1.62578
1.64441
1.63926
1.61254
1.56685
1.50504
1.43008
1.34494
1.25252
1.15554
1.05647
0.957499
0.860492
0.766991
0.67821
0.595052
0.518131
0.447806
0.384211
0.327293
0.276851
0.232565
0.194035
0.160803
0.13238
0.108269
0.0879774
0.0710318
0.0569874
0.0454333
0.035997
0.0283449
0.0221832
0.0172557
0.0133419
0.0102542
0.00783426
0.00595007
0.00449251
0.0033722
0.00251656
0.00186717
0.00137738
0.00101025
0.000736744
0.000534233
0.000385195
0.000276167
0.000196887
0.000139579
9.83988e-05
6.89816e-05
4.80901e-05
3.33395e-05
2.29848e-05
1.57573e-05
1.07408e-05
7.27746e-06
4.8979e-06
3.26885e-06
2.15458e-06
1.38846e-06
8.51962e-07
4.59098e-07
1.44718e-07
0.0886326
0.263966
0.433573
0.593876
0.741645
0.874103
0.98902
1.08477
1.16036
1.21541
1.25018
1.26545
1.26248
1.24293
1.20875
1.16209
1.1052
1.04036
0.969774
0.895526
0.819522
0.743448
0.668757
0.596648
0.528075
0.463752
0.404171
0.349626
0.300238
0.255981
0.216713
0.182198
0.152136
0.126179
0.103957
0.0850863
0.0691901
0.0559029
0.0448808
0.0358054
0.0283872
0.022367
0.0175155
0.0136329
0.0105469
0.00811059
0.00619987
0.00471123
0.00355894
0.00267274
0.00199552
0.00148126
0.00109318
0.00080214
0.000585218
0.000424525
0.000306209
0.000219619
0.000156627
0.000111075
7.833e-05
5.49297e-05
3.83053e-05
2.65636e-05
1.83183e-05
1.25615e-05
8.5645e-06
5.80427e-06
3.90726e-06
2.60824e-06
1.7195e-06
1.10825e-06
6.80126e-07
3.66549e-07
1.15555e-07
0.0675897
0.201311
0.330709
0.453083
0.565985
0.667311
0.755365
0.828899
0.887142
0.929795
0.957016
0.969376
0.967811
0.953556
0.928074
0.892984
0.84999
0.800814
0.747136
0.690546
0.632502
0.574303
0.517067
0.461725
0.409021
0.359515
0.313598
0.271509
0.233352
0.19912
0.168711
0.141955
0.118625
0.0984614
0.0811811
0.0664935
0.0541093
0.0437485
0.0351465
0.0280578
0.022259
0.0175492
0.013751
0.0107091
0.00828967
0.00637824
0.00487822
0.00370882
0.0028031
0.00210613
0.00157321
0.0011683
0.000862591
0.000633208
0.000462157
0.000335386
0.000242004
0.000173633
0.000123874
8.78771e-05
6.19908e-05
4.3485e-05
3.03333e-05
2.10412e-05
1.4514e-05
9.95527e-06
6.78923e-06
4.6022e-06
3.09872e-06
2.06891e-06
1.36418e-06
8.79423e-07
5.39773e-07
2.9092e-07
9.17301e-08
0.0513219
0.152869
0.251165
0.344175
0.430056
0.507217
0.574374
0.630575
0.675225
0.708085
0.729256
0.739153
0.738466
0.728113
0.709187
0.682901
0.650539
0.613401
0.572758
0.529819
0.485695
0.441378
0.397727
0.35546
0.315151
0.277238
0.24203
0.209718
0.180391
0.154051
0.130628
0.109996
0.0919877
0.0764081
0.0630437
0.0516741
0.042079
0.0340446
0.0273686
0.0218626
0.0173549
0.0136911
0.0107342
0.00836443
0.00647828
0.0049872
0.00381631
0.00290294
0.00219509
0.00165008
0.00123312
0.00091615
0.00067671
0.000496963
0.000362861
0.000263429
0.000190153
0.000136479
9.74014e-05
6.91202e-05
4.87746e-05
3.42247e-05
2.38806e-05
1.65698e-05
1.14327e-05
7.84384e-06
5.35058e-06
3.62778e-06
2.44315e-06
1.63154e-06
1.07598e-06
6.93751e-07
4.25869e-07
2.29548e-07
7.23615e-08
0.0388002
0.115579
0.189921
0.260302
0.325336
0.383828
0.434807
0.477553
0.51161
0.536787
0.553149
0.560995
0.560833
0.553343
0.539338
0.519725
0.495467
0.467539
0.436902
0.404468
0.371079
0.337491
0.30436
0.272234
0.241557
0.212668
0.185807
0.161128
0.138703
0.118541
0.100592
0.0847671
0.070941
0.0589681
0.0486882
0.0399348
0.0325412
0.0263452
0.0211924
0.0169395
0.013455
0.0106208
0.00833174
0.006496
0.0050339
0.0038773
0.00296851
0.00225917
0.00170912
0.00128536
0.000960996
0.000714288
0.000527828
0.000387785
0.000283256
0.000205716
0.000148548
0.000106656
7.61428e-05
5.40519e-05
3.81537e-05
2.67801e-05
1.86915e-05
1.29729e-05
8.95329e-06
6.14427e-06
4.19224e-06
2.84303e-06
1.91506e-06
1.27916e-06
8.43761e-07
5.44066e-07
3.34025e-07
1.80066e-07
5.67501e-08
0.0292045
0.0870001
0.142977
0.195996
0.245021
0.289157
0.327674
0.36003
0.385876
0.405062
0.417628
0.423791
0.423923
0.418526
0.408202
0.393627
0.375519
0.354608
0.331615
0.307227
0.282079
0.256742
0.231715
0.207416
0.184184
0.16228
0.141891
0.123137
0.106079
0.0907255
0.0770445
0.0649701
0.0544113
0.0452593
0.0373945
0.0306919
0.0250258
0.0202735
0.0163184
0.0130515
0.0103729
0.00819259
0.0064305
0.00501639
0.00388938
0.00299729
0.00229591
0.00174814
0.00132314
0.000995535
0.000744638
0.000553711
0.000409339
0.000300854
0.000219843
0.000159722
0.000115377
8.28682e-05
5.91806e-05
4.20243e-05
2.96729e-05
2.08337e-05
1.45453e-05
1.00979e-05
6.97093e-06
4.785e-06
3.26555e-06
2.21509e-06