/*--------------------------------*- C++ -*----------------------------------*\
  =========                 |
  \\      /  F ield         | OpenFOAM: The Open Source CFD Toolbox
   \\    /   O peration     | Website:  https://openfoam.org
    \\  /    A nd           | Version:  10
     \\/     M anipulation  |
\*---------------------------------------------------------------------------*/
FoamFile
{
    format      ascii;
    class       volScalarField;
    location    "416";
    object      T;
}
// * * * * * * * * * * * * * * * * * * * * * * * * * * * * * * * * * * * * * //

dimensions      [0 0 0 1 0 0 0];

internalField   nonuniform List<scalar> 
11250
(
249.872
167.646
139.507
127.148
120.426
116.178
113.217
111.014
109.301
107.925
106.793
105.846
105.042
104.354
103.761
103.247
102.8
102.41
102.071
101.775
101.517
101.293
101.099
100.931
100.785
100.66
100.553
100.462
100.384
100.318
100.262
100.215
100.176
100.143
100.116
100.093
100.075
100.06
100.048
100.038
100.03
100.023
100.018
100.014
100.011
100.009
100.007
100.005
100.004
100.003
100.002
100.002
100.001
100.001
100.001
100
100
100
100
100
100
100
100
100
100
100
100
100
100
100
100
100
100
100
100
331.589
248.855
202.749
175.814
158.816
147.261
138.907
132.57
127.584
123.55
120.216
117.415
115.034
112.991
111.227
109.696
108.364
107.203
106.19
105.306
104.537
103.867
103.286
102.783
102.349
101.975
101.655
101.381
101.148
100.95
100.783
100.643
100.526
100.428
100.347
100.28
100.225
100.18
100.143
100.113
100.089
100.07
100.055
100.043
100.033
100.025
100.02
100.015
100.011
100.009
100.006
100.005
100.004
100.003
100.002
100.001
100.001
100.001
100.001
100
100
100
100
100
100
100
100
100
100
100
100
100
100
100
100
359.222
293.447
246.841
214.571
191.799
175.185
162.628
152.829
144.974
138.537
133.169
128.631
124.755
121.417
118.526
116.013
113.822
111.909
110.239
108.781
107.51
106.404
105.443
104.611
103.893
103.274
102.743
102.289
101.903
101.576
101.299
101.067
100.872
100.71
100.575
100.464
100.373
100.298
100.237
100.188
100.148
100.117
100.091
100.071
100.055
100.042
100.032
100.025
100.019
100.014
100.011
100.008
100.006
100.004
100.003
100.002
100.002
100.001
100.001
100.001
100
100
100
100
100
100
100
100
100
100
100
100
100
100
100
371.083
318.888
276.632
243.874
218.682
199.12
183.669
171.232
161.04
152.555
145.398
139.296
134.049
129.508
125.561
122.118
119.11
116.478
114.177
112.165
110.41
108.88
107.551
106.399
105.403
104.545
103.809
103.18
102.644
102.189
101.805
101.482
101.212
100.987
100.8
100.645
100.519
100.415
100.33
100.262
100.206
100.162
100.127
100.099
100.076
100.059
100.045
100.034
100.026
100.02
100.015
100.011
100.008
100.006
100.005
100.003
100.002
100.002
100.001
100.001
100.001
100
100
100
100
100
100
100
100
100
100
100
100
100
100
377.316
334.42
296.969
265.677
240.016
219.041
201.806
187.512
175.532
165.388
156.721
149.258
142.792
137.164
132.247
127.944
124.171
120.864
117.965
115.427
113.209
111.274
109.591
108.131
106.868
105.78
104.845
104.046
103.365
102.787
102.298
101.888
101.544
101.257
101.019
100.822
100.661
100.528
100.421
100.333
100.263
100.207
100.161
100.126
100.097
100.075
100.058
100.044
100.033
100.025
100.019
100.014
100.011
100.008
100.006
100.004
100.003
100.002
100.002
100.001
100.001
100.001
100
100
100
100
100
100
100
100
100
100
100
100
100
381.086
344.545
311.207
281.93
256.766
235.344
217.142
201.634
188.356
176.925
167.028
158.418
150.897
144.307
138.521
133.434
128.96
125.026
121.57
118.539
115.885
113.567
111.548
109.795
108.277
106.968
105.844
104.881
104.06
103.364
102.775
102.28
101.865
101.518
101.231
100.994
100.799
100.639
100.509
100.403
100.318
100.25
100.195
100.152
100.118
100.091
100.07
100.053
100.04
100.031
100.023
100.017
100.013
100.01
100.007
100.005
100.004
100.003
100.002
100.001
100.001
100.001
100.001
100
100
100
100
100
100
100
100
100
100
100
100
383.583
351.51
321.457
294.168
269.899
248.578
229.954
213.714
199.541
187.145
176.277
166.724
158.311
150.889
144.337
138.55
133.442
128.936
124.968
121.48
118.42
115.744
113.409
111.38
109.621
108.104
106.798
105.681
104.727
103.917
103.233
102.656
102.173
101.77
101.435
101.159
100.931
100.745
100.593
100.47
100.371
100.292
100.228
100.177
100.137
100.106
100.081
100.062
100.047
100.036
100.027
100.02
100.015
100.011
100.008
100.006
100.004
100.003
100.002
100.002
100.001
100.001
100.001
100
100
100
100
100
100
100
100
100
100
100
100
385.338
356.505
329.028
303.502
280.232
259.286
240.581
223.948
209.187
196.094
184.478
174.169
165.015
156.886
149.67
143.267
137.593
132.573
128.139
124.233
120.8
117.792
115.164
112.877
110.893
109.18
107.704
106.44
105.361
104.444
103.668
103.015
102.467
102.01
101.63
101.316
101.058
100.847
100.674
100.535
100.422
100.332
100.259
100.202
100.156
100.12
100.092
100.071
100.054
100.041
100.031
100.023
100.017
100.013
100.009
100.007
100.005
100.004
100.003
100.002
100.001
100.001
100.001
100
100
100
100
100
100
100
100
100
100
100
100
386.621
360.202
334.742
310.713
288.407
267.953
249.362
232.562
217.438
203.857
191.679
180.773
171.015
162.294
154.511
147.574
141.402
135.924
131.072
126.788
123.014
119.703
116.805
114.28
112.088
110.191
108.558
107.156
105.96
104.942
104.081
103.355
102.746
102.238
101.816
101.466
101.179
100.943
100.752
100.596
100.47
100.37
100.289
100.225
100.174
100.134
100.103
100.079
100.06
100.045
100.034
100.026
100.019
100.014
100.01
100.008
100.006
100.004
100.003
100.002
100.002
100.001
100.001
100.001
100
100
100
100
100
100
100
100
100
100
100
387.586
363.005
339.134
316.35
294.914
274.98
256.605
239.781
224.454
210.541
197.949
186.58
176.337
167.128
158.865
151.47
144.866
138.984
133.761
129.138
125.058
121.471
118.328
115.584
113.2
111.135
109.355
107.827
106.521
105.409
104.468
103.674
103.009
102.452
101.99
101.608
101.293
101.035
100.825
100.654
100.516
100.406
100.317
100.247
100.191
100.148
100.113
100.086
100.066
100.05
100.037
100.028
100.021
100.016
100.011
100.008
100.006
100.004
100.003
100.002
100.002
100.001
100.001
100.001
100
100
100
100
100
100
100
100
100
100
100
388.326
365.169
342.558
320.8
300.126
280.69
262.577
245.815
230.391
216.263
203.372
191.649
181.02
171.412
162.75
154.965
147.988
141.756
136.207
131.283
126.929
123.094
119.729
116.788
114.228
112.009
110.094
108.449
107.042
105.845
104.829
103.973
103.254
102.653
102.153
101.74
101.399
101.12
100.893
100.708
100.559
100.44
100.344
100.268
100.207
100.16
100.123
100.094
100.071
100.054
100.041
100.03
100.023
100.017
100.012
100.009
100.007
100.005
100.004
100.003
100.002
100.001
100.001
100.001
100
100
100
100
100
100
100
100
100
100
100
388.904
366.863
345.258
324.344
304.322
285.342
267.501
250.848
235.398
221.138
208.036
196.045
185.113
175.182
166.19
158.077
150.783
144.247
138.413
133.225
128.629
124.573
121.008
117.889
115.171
112.813
110.776
109.024
107.525
106.247
105.164
104.249
103.481
102.839
102.305
101.863
101.499
101.2
100.957
100.759
100.599
100.471
100.369
100.287
100.222
100.172
100.132
100.101
100.076
100.058
100.044
100.033
100.024
100.018
100.013
100.01
100.007
100.005
100.004
100.003
100.002
100.001
100.001
100.001
100
100
100
100
100
100
100
100
100
100
100
389.36
368.204
347.407
327.185
307.716
289.142
271.562
255.04
239.608
225.274
212.026
199.837
188.668
178.478
169.215
160.828
153.265
146.47
140.39
134.971
130.161
125.91
122.169
118.891
116.031
113.546
111.399
109.55
107.967
106.617
105.472
104.504
103.691
103.012
102.446
101.977
101.591
101.274
101.016
100.806
100.637
100.501
100.392
100.305
100.236
100.182
100.14
100.107
100.081
100.062
100.046
100.035
100.026
100.019
100.014
100.01
100.008
100.006
100.004
100.003
100.002
100.001
100.001
100.001
100.001
100
100
100
100
100
100
100
100
100
100
389.723
369.273
349.129
329.475
310.472
292.251
274.913
258.528
243.141
228.773
215.426
203.09
191.739
181.341
171.858
163.245
155.455
148.439
142.148
136.529
131.534
127.112
123.214
119.795
116.808
114.211
111.964
110.029
108.37
106.955
105.753
104.737
103.884
103.169
102.575
102.082
101.676
101.342
101.07
100.85
100.671
100.528
100.413
100.322
100.249
100.192
100.148
100.113
100.086
100.065
100.049
100.037
100.027
100.02
100.015
100.011
100.008
100.006
100.004
100.003
100.002
100.002
100.001
100.001
100.001
100
100
100
100
100
100
100
100
100
100
390.014
370.133
350.516
331.329
312.715
294.799
277.678
261.427
246.098
231.722
218.312
205.869
194.378
183.816
174.154
165.354
157.375
150.173
143.701
137.911
132.755
128.183
124.149
120.605
117.507
114.81
112.475
110.462
108.735
107.261
106.008
104.949
104.059
103.313
102.692
102.177
101.753
101.405
101.12
100.889
100.703
100.553
100.433
100.337
100.261
100.202
100.155
100.118
100.09
100.068
100.051
100.038
100.029
100.021
100.016
100.012
100.008
100.006
100.004
100.003
100.002
100.002
100.001
100.001
100.001
100
100
100
100
100
100
100
100
100
100
390.249
370.826
351.639
332.835
314.546
296.89
279.96
263.835
248.569
234.201
220.753
208.233
196.635
185.944
176.138
167.185
159.049
151.69
145.066
139.129
133.834
129.133
124.98
121.327
118.131
115.346
112.933
110.85
109.063
107.536
106.239
105.141
104.217
103.443
102.799
102.264
101.823
101.461
101.166
100.926
100.731
100.575
100.45
100.351
100.272
100.21
100.161
100.123
100.094
100.071
100.053
100.04
100.03
100.022
100.016
100.012
100.009
100.006
100.005
100.003
100.002
100.002
100.001
100.001
100.001
100
100
100
100
100
100
100
100
100
100
390.438
371.387
352.549
334.06
316.042
298.606
281.843
265.832
250.629
236.28
222.811
210.236
198.557
187.765
177.843
168.765
160.499
153.01
146.256
140.195
134.782
129.97
125.713
121.966
118.684
115.822
113.34
111.197
109.356
107.783
106.445
105.313
104.359
103.56
102.894
102.342
101.886
101.512
101.207
100.958
100.757
100.596
100.466
100.363
100.282
100.218
100.167
100.128
100.097
100.074
100.055
100.042
100.031
100.023
100.017
100.013
100.009
100.007
100.005
100.003
100.003
100.002
100.001
100.001
100.001
100
100
100
100
100
100
100
100
100
100
390.592
371.842
353.29
335.059
317.266
300.015
283.396
267.486
252.345
238.019
224.54
211.927
200.187
189.316
179.301
170.122
161.75
154.151
147.29
141.123
135.609
130.702
126.357
122.529
119.172
116.243
113.701
111.504
109.617
108.002
106.629
105.466
104.486
103.665
102.98
102.412
101.943
101.558
101.244
100.988
100.781
100.614
100.481
100.375
100.291
100.224
100.172
100.132
100.1
100.076
100.057
100.043
100.032
100.024
100.018
100.013
100.009
100.007
100.005
100.004
100.003
100.002
100.001
100.001
100.001
100
100
100
100
100
100
100
100
100
100
390.717
372.213
353.893
335.874
318.267
301.172
284.676
268.854
253.769
239.469
225.988
213.349
201.564
190.631
180.543
171.281
162.822
155.133
148.181
141.927
136.327
131.339
126.919
123.02
119.599
116.612
114.018
111.775
109.847
108.196
106.792
105.602
104.599
103.758
103.057
102.475
101.994
101.599
101.276
101.014
100.802
100.631
100.494
100.385
100.299
100.231
100.177
100.135
100.103
100.078
100.059
100.044
100.033
100.024
100.018
100.013
100.01
100.007
100.005
100.004
100.003
100.002
100.001
100.001
100.001
100
100
100
100
100
100
100
100
100
100
390.818
372.514
354.384
336.539
319.086
302.121
285.728
269.984
254.95
240.675
227.197
214.542
202.722
191.742
181.595
172.267
163.736
155.974
148.947
142.618
136.947
131.891
127.406
123.447
119.972
116.935
114.295
112.012
110.048
108.367
106.935
105.721
104.698
103.84
103.124
102.53
102.039
101.635
101.306
101.037
100.82
100.646
100.506
100.394
100.306
100.236
100.181
100.139
100.106
100.08
100.06
100.045
100.034
100.025
100.019
100.014
100.01
100.007
100.005
100.004
100.003
100.002
100.001
100.001
100.001
100
100
100
100
100
100
100
100
100
100
390.901
372.759
354.783
337.082
319.756
302.898
286.593
270.915
255.926
241.676
228.204
215.538
203.693
192.676
182.483
173.102
164.513
156.689
149.601
143.21
137.479
132.365
127.826
123.817
120.294
117.214
114.536
112.219
110.224
108.516
107.06
105.826
104.785
103.912
103.183
102.578
102.078
101.667
101.331
101.058
100.837
100.659
100.516
100.402
100.312
100.241
100.185
100.142
100.108
100.082
100.062
100.046
100.034
100.026
100.019
100.014
100.01
100.007
100.005
100.004
100.003
100.002
100.001
100.001
100.001
100
100
100
100
100
100
100
100
100
100
390.968
372.958
355.109
337.524
320.302
303.535
287.303
271.681
256.731
242.504
229.04
216.367
204.504
193.459
183.229
173.805
165.169
157.296
150.156
143.714
137.933
132.771
128.186
124.134
120.571
117.456
114.745
112.398
110.376
108.645
107.169
105.917
104.861
103.975
103.235
102.621
102.113
101.695
101.354
101.076
100.851
100.67
100.525
100.409
100.318
100.245
100.188
100.144
100.11
100.083
100.063
100.047
100.035
100.026
100.019
100.014
100.01
100.008
100.005
100.004
100.003
100.002
100.001
100.001
100.001
100.001
100
100
100
100
100
100
100
100
100
391.023
373.12
355.374
337.885
320.748
304.055
287.885
272.31
257.394
243.188
229.731
217.055
205.179
194.112
183.853
174.395
165.721
157.807
150.625
144.142
138.319
133.117
128.493
124.405
120.809
117.663
114.924
112.551
110.508
108.756
107.263
105.996
104.927
104.03
103.28
102.658
102.143
101.72
101.374
101.092
100.864
100.68
100.533
100.416
100.322
100.249
100.191
100.146
100.111
100.084
100.064
100.048
100.036
100.026
100.02
100.014
100.011
100.008
100.006
100.004
100.003
100.002
100.001
100.001
100.001
100.001
100
100
100
100
100
100
100
100
100
391.067
373.251
355.589
338.177
321.111
304.479
288.359
272.825
257.938
243.75
230.301
217.624
205.738
194.654
184.373
174.888
166.183
158.236
151.02
144.502
138.645
133.409
128.754
124.636
121.012
117.839
115.076
112.683
110.62
108.852
107.344
106.064
104.984
104.077
103.319
102.69
102.169
101.741
101.391
101.106
100.875
100.689
100.54
100.421
100.327
100.252
100.194
100.148
100.113
100.086
100.064
100.048
100.036
100.027
100.02
100.015
100.011
100.008
100.006
100.004
100.003
100.002
100.001
100.001
100.001
100.001
100
100
100
100
100
100
100
100
100
391.103
373.358
355.763
338.415
321.407
304.824
288.747
273.246
258.383
244.211
230.77
218.093
206.2
195.103
184.804
175.298
166.568
158.595
151.351
144.804
138.919
133.656
128.974
124.83
121.183
117.989
115.206
112.795
110.716
108.934
107.413
106.122
105.032
104.117
103.353
102.717
102.191
101.759
101.405
101.117
100.884
100.696
100.546
100.426
100.33
100.255
100.196
100.15
100.114
100.087
100.065
100.049
100.037
100.027
100.02
100.015
100.011
100.008
100.006
100.004
100.003
100.002
100.002
100.001
100.001
100.001
100
100
100
100
100
100
100
100
100
391.132
373.444
355.904
338.608
321.646
305.104
289.061
273.588
258.746
244.588
231.154
218.477
206.58
195.473
185.161
175.637
166.888
158.893
151.627
145.057
139.148
133.862
129.158
124.994
121.327
118.115
115.316
112.89
110.798
109.003
107.472
106.172
105.074
104.152
103.381
102.74
102.211
101.775
101.418
101.128
100.892
100.703
100.551
100.43
100.333
100.258
100.198
100.152
100.115
100.087
100.066
100.049
100.037
100.027
100.02
100.015
100.011
100.008
100.006
100.004
100.003
100.002
100.002
100.001
100.001
100.001
100
100
100
100
100
100
100
100
100
391.155
373.514
356.018
338.763
321.839
305.331
289.317
273.867
259.042
244.895
231.467
218.792
206.891
195.777
185.454
175.917
167.152
159.14
151.855
145.266
139.339
134.035
129.313
125.131
121.448
118.221
115.409
112.97
110.866
109.062
107.521
106.214
105.109
104.181
103.405
102.76
102.227
101.788
101.429
101.136
100.899
100.708
100.555
100.433
100.336
100.26
100.2
100.153
100.116
100.088
100.066
100.05
100.037
100.028
100.02
100.015
100.011
100.008
100.006
100.004
100.003
100.002
100.002
100.001
100.001
100.001
100
100
100
100
100
100
100
100
100
391.174
373.57
356.11
338.889
321.996
305.515
289.523
274.092
259.282
245.144
231.723
219.049
207.146
196.026
185.695
176.146
167.369
159.343
152.044
145.44
139.497
134.178
129.441
125.246
121.549
118.31
115.486
113.037
110.924
109.111
107.563
106.249
105.138
104.206
103.426
102.777
102.241
101.799
101.438
101.144
100.905
100.713
100.559
100.436
100.338
100.261
100.201
100.154
100.117
100.089
100.067
100.05
100.038
100.028
100.021
100.015
100.011
100.008
100.006
100.004
100.003
100.002
100.002
100.001
100.001
100.001
100
100
100
100
100
100
100
100
100
391.189
373.615
356.184
338.99
322.121
305.662
289.69
274.274
259.475
245.346
231.929
219.257
207.352
196.229
185.891
176.334
167.547
159.51
152.199
145.583
139.627
134.296
129.547
125.34
121.633
118.384
115.55
113.092
110.972
109.152
107.598
106.278
105.163
104.226
103.443
102.791
102.252
101.809
101.446
101.15
100.91
100.717
100.562
100.438
100.34
100.263
100.202
100.155
100.118
100.089
100.067
100.051
100.038
100.028
100.021
100.015
100.011
100.008
100.006
100.004
100.003
100.002
100.002
100.001
100.001
100.001
100
100
100
100
100
100
100
100
100
391.201
373.651
356.243
339.071
322.222
305.781
289.824
274.42
259.631
245.509
232.096
219.426
207.52
196.393
186.05
176.487
167.692
159.646
152.325
145.7
139.734
134.393
129.634
125.418
121.702
118.444
115.603
113.138
111.012
109.186
107.627
106.303
105.184
104.243
103.457
102.803
102.262
101.817
101.452
101.155
100.914
100.72
100.565
100.441
100.342
100.264
100.203
100.156
100.118
100.09
100.068
100.051
100.038
100.028
100.021
100.015
100.011
100.008
100.006
100.004
100.003
100.002
100.002
100.001
100.001
100.001
100
100
100
100
100
100
100
100
100
391.211
373.68
356.291
339.136
322.303
305.876
289.931
274.538
259.757
245.64
232.231
219.561
207.655
196.526
186.179
176.611
167.81
159.757
152.429
145.795
139.822
134.472
129.706
125.482
121.759
118.494
115.647
113.176
111.044
109.214
107.651
106.323
105.201
104.258
103.469
102.813
102.27
101.823
101.457
101.159
100.918
100.723
100.567
100.442
100.343
100.265
100.204
100.156
100.119
100.09
100.068
100.051
100.038
100.028
100.021
100.015
100.011
100.008
100.006
100.004
100.003
100.002
100.002
100.001
100.001
100.001
100
100
100
100
100
100
100
100
100
391.218
373.703
356.328
339.187
322.367
305.952
290.017
274.631
259.857
245.745
232.339
219.67
207.764
196.633
186.283
176.711
167.905
159.847
152.512
145.872
139.893
134.536
129.764
125.534
121.805
118.535
115.683
113.208
111.071
109.237
107.671
106.34
105.215
104.27
103.479
102.821
102.277
101.829
101.462
101.163
100.921
100.725
100.569
100.444
100.345
100.266
100.205
100.157
100.119
100.09
100.068
100.051
100.038
100.028
100.021
100.015
100.011
100.008
100.006
100.004
100.003
100.002
100.002
100.001
100.001
100.001
100
100
100
100
100
100
100
100
100
391.224
373.721
356.358
339.228
322.418
306.012
290.085
274.706
259.937
245.829
232.425
219.758
207.851
196.719
186.367
176.791
167.981
159.919
152.58
145.935
139.95
134.589
129.811
125.577
121.843
118.569
115.712
113.233
111.093
109.256
107.687
106.354
105.227
104.279
103.487
102.828
102.282
101.833
101.465
101.166
100.923
100.727
100.57
100.445
100.345
100.267
100.205
100.157
100.12
100.091
100.068
100.051
100.038
100.029
100.021
100.016
100.011
100.008
100.006
100.004
100.003
100.002
100.002
100.001
100.001
100.001
100
100
100
100
100
100
100
100
100
391.229
373.735
356.382
339.26
322.459
306.06
290.139
274.766
260
245.896
232.493
219.827
207.92
196.787
186.434
176.856
168.043
159.977
152.634
145.985
139.996
134.631
129.849
125.611
121.873
118.596
115.736
113.254
111.111
109.271
107.7
106.365
105.236
104.287
103.494
102.833
102.287
101.837
101.468
101.168
100.925
100.729
100.571
100.446
100.346
100.268
100.206
100.157
100.12
100.091
100.069
100.051
100.038
100.029
100.021
100.016
100.011
100.008
100.006
100.004
100.003
100.002
100.002
100.001
100.001
100.001
100
100
100
100
100
100
100
100
100
391.233
373.747
356.4
339.286
322.491
306.097
290.182
274.812
260.051
245.948
232.548
219.882
207.976
196.842
186.487
176.907
168.092
160.023
152.677
146.025
140.033
134.665
129.88
125.638
121.898
118.617
115.755
113.27
111.126
109.284
107.711
106.374
105.244
104.294
103.499
102.838
102.29
101.84
101.471
101.17
100.926
100.73
100.572
100.447
100.347
100.268
100.206
100.158
100.12
100.091
100.069
100.052
100.039
100.029
100.021
100.016
100.011
100.008
100.006
100.004
100.003
100.002
100.002
100.001
100.001
100.001
100
100
100
100
100
100
100
100
100
391.236
373.755
356.415
339.306
322.516
306.127
290.215
274.849
260.09
245.99
232.591
219.926
208.019
196.885
186.529
176.948
168.131
160.06
152.712
146.057
140.063
134.692
129.904
125.66
121.918
118.635
115.77
113.284
111.137
109.294
107.719
106.381
105.25
104.299
103.503
102.841
102.293
101.842
101.473
101.172
100.928
100.731
100.573
100.447
100.347
100.268
100.206
100.158
100.12
100.091
100.069
100.052
100.039
100.029
100.021
100.016
100.011
100.008
100.006
100.004
100.003
100.002
100.002
100.001
100.001
100.001
100
100
100
100
100
100
100
100
100
391.238
373.762
356.427
339.322
322.536
306.15
290.242
274.878
260.121
246.023
232.624
219.96
208.054
196.919
186.562
176.98
168.161
160.089
152.739
146.083
140.086
134.713
129.924
125.678
121.933
118.649
115.782
113.295
111.147
109.302
107.726
106.387
105.255
104.303
103.507
102.844
102.296
101.844
101.474
101.173
100.929
100.732
100.574
100.448
100.348
100.269
100.207
100.158
100.121
100.091
100.069
100.052
100.039
100.029
100.021
100.016
100.011
100.008
100.006
100.004
100.003
100.002
100.002
100.001
100.001
100.001
100
100
100
100
100
100
100
100
100
391.24
373.768
356.436
339.334
322.551
306.168
290.262
274.901
260.146
246.048
232.651
219.987
208.081
196.946
186.588
177.005
168.186
160.112
152.761
146.103
140.105
134.73
129.939
125.692
121.946
118.66
115.792
113.303
111.154
109.308
107.732
106.392
105.259
104.306
103.509
102.846
102.298
101.846
101.476
101.174
100.93
100.733
100.574
100.448
100.348
100.269
100.207
100.158
100.121
100.091
100.069
100.052
100.039
100.029
100.021
100.016
100.011
100.008
100.006
100.004
100.003
100.002
100.002
100.001
100.001
100.001
100
100
100
100
100
100
100
100
100
391.242
373.772
356.442
339.344
322.563
306.183
290.278
274.919
260.165
246.068
232.671
220.008
208.102
196.967
186.609
177.025
168.205
160.13
152.778
146.119
140.12
134.744
129.952
125.703
121.956
118.668
115.8
113.31
111.16
109.313
107.736
106.395
105.262
104.309
103.512
102.848
102.299
101.847
101.477
101.175
100.93
100.733
100.575
100.449
100.348
100.269
100.207
100.159
100.121
100.092
100.069
100.052
100.039
100.029
100.021
100.016
100.011
100.008
100.006
100.004
100.003
100.002
100.002
100.001
100.001
100.001
100
100
100
100
100
100
100
100
100
391.243
373.775
356.448
339.351
322.572
306.193
290.291
274.932
260.179
246.084
232.687
220.024
208.118
196.983
186.625
177.04
168.219
160.144
152.791
146.131
140.131
134.754
129.961
125.711
121.963
118.675
115.806
113.315
111.165
109.317
107.739
106.398
105.264
104.311
103.513
102.85
102.3
101.848
101.478
101.176
100.931
100.734
100.575
100.449
100.349
100.269
100.207
100.159
100.121
100.092
100.069
100.052
100.039
100.029
100.021
100.016
100.011
100.008
100.006
100.004
100.003
100.002
100.002
100.001
100.001
100.001
100
100
100
100
100
100
100
100
100
391.244
373.778
356.452
339.357
322.579
306.202
290.3
274.943
260.191
246.096
232.7
220.037
208.131
196.995
186.637
177.052
168.231
160.155
152.801
146.141
140.14
134.762
129.969
125.718
121.969
118.681
115.811
113.319
111.168
109.321
107.742
106.401
105.266
104.313
103.515
102.851
102.301
101.849
101.478
101.176
100.931
100.734
100.576
100.449
100.349
100.27
100.207
100.159
100.121
100.092
100.069
100.052
100.039
100.029
100.021
100.016
100.011
100.008
100.006
100.004
100.003
100.002
100.002
100.001
100.001
100.001
100
100
100
100
100
100
100
100
100
391.244
373.78
356.455
339.361
322.585
306.208
290.308
274.951
260.2
246.105
232.709
220.047
208.14
197.005
186.646
177.062
168.24
160.164
152.809
146.148
140.147
134.769
129.974
125.723
121.974
118.685
115.814
113.323
111.171
109.323
107.744
106.402
105.268
104.314
103.516
102.852
102.302
101.849
101.479
101.177
100.932
100.734
100.576
100.449
100.349
100.27
100.207
100.159
100.121
100.092
100.069
100.052
100.039
100.029
100.021
100.016
100.011
100.008
100.006
100.004
100.003
100.002
100.002
100.001
100.001
100.001
100
100
100
100
100
100
100
100
100
391.245
373.781
356.458
339.365
322.589
306.213
290.313
274.957
260.206
246.112
232.717
220.054
208.148
197.013
186.654
177.069
168.247
160.17
152.816
146.154
140.152
134.773
129.979
125.727
121.978
118.688
115.817
113.325
111.173
109.325
107.746
106.404
105.269
104.315
103.517
102.853
102.303
101.85
101.479
101.177
100.932
100.734
100.576
100.449
100.349
100.27
100.208
100.159
100.121
100.092
100.069
100.052
100.039
100.029
100.021
100.016
100.012
100.008
100.006
100.004
100.003
100.002
100.002
100.001
100.001
100.001
100
100
100
100
100
100
100
100
100
391.245
373.782
356.46
339.367
322.592
306.217
290.318
274.962
260.211
246.117
232.722
220.06
208.154
197.018
186.659
177.074
168.252
160.175
152.82
146.158
140.156
134.777
129.982
125.731
121.981
118.691
115.819
113.327
111.175
109.326
107.747
106.405
105.27
104.316
103.517
102.853
102.303
101.85
101.479
101.177
100.932
100.735
100.576
100.45
100.349
100.27
100.208
100.159
100.121
100.092
100.069
100.052
100.039
100.029
100.021
100.016
100.012
100.008
100.006
100.004
100.003
100.002
100.002
100.001
100.001
100.001
100
100
100
100
100
100
100
100
100
391.245
373.783
356.461
339.369
322.595
306.22
290.321
274.966
260.215
246.121
232.727
220.064
208.158
197.023
186.664
177.078
168.256
160.179
152.824
146.162
140.159
134.78
129.985
125.733
121.983
118.692
115.821
113.329
111.176
109.328
107.748
106.406
105.271
104.316
103.518
102.854
102.304
101.851
101.48
101.177
100.932
100.735
100.576
100.45
100.349
100.27
100.208
100.159
100.121
100.092
100.069
100.052
100.039
100.029
100.021
100.016
100.012
100.008
100.006
100.004
100.003
100.002
100.002
100.001
100.001
100.001
100
100
100
100
100
100
100
100
100
391.246
373.784
356.462
339.371
322.597
306.222
290.323
274.968
260.218
246.124
232.73
220.068
208.161
197.026
186.667
177.081
168.259
160.182
152.827
146.164
140.162
134.782
129.987
125.735
121.984
118.694
115.822
113.33
111.177
109.328
107.749
106.406
105.271
104.317
103.518
102.854
102.304
101.851
101.48
101.177
100.932
100.735
100.576
100.45
100.349
100.27
100.208
100.159
100.121
100.092
100.069
100.052
100.039
100.029
100.021
100.016
100.012
100.008
100.006
100.004
100.003
100.002
100.002
100.001
100.001
100.001
100
100
100
100
100
100
100
100
100
391.246
373.784
356.463
339.372
322.598
306.224
290.325
274.97
260.22
246.127
232.732
220.07
208.164
197.029
186.669
177.084
168.261
160.184
152.829
146.166
140.164
134.784
129.988
125.736
121.986
118.695
115.823
113.331
111.178
109.329
107.749
106.407
105.272
104.317
103.519
102.854
102.304
101.851
101.48
101.178
100.932
100.735
100.576
100.45
100.349
100.27
100.208
100.159
100.121
100.092
100.069
100.052
100.039
100.029
100.021
100.016
100.012
100.008
100.006
100.004
100.003
100.002
100.002
100.001
100.001
100.001
100
100
100
100
100
100
100
100
100
391.246
373.785
356.463
339.372
322.599
306.225
290.327
274.972
260.222
246.128
232.734
220.072
208.166
197.03
186.671
177.086
168.263
160.186
152.83
146.168
140.165
134.785
129.99
125.737
121.986
118.696
115.824
113.331
111.179
109.33
107.75
106.407
105.272
104.317
103.519
102.854
102.304
101.851
101.48
101.178
100.933
100.735
100.576
100.45
100.349
100.27
100.208
100.159
100.121
100.092
100.069
100.052
100.039
100.029
100.021
100.016
100.012
100.008
100.006
100.004
100.003
100.002
100.002
100.001
100.001
100.001
100
100
100
100
100
100
100
100
100
391.246
373.785
356.464
339.373
322.6
306.226
290.328
274.973
260.223
246.13
232.735
220.073
208.167
197.032
186.673
177.087
168.264
160.187
152.831
146.169
140.166
134.786
129.99
125.738
121.987
118.696
115.825
113.332
111.179
109.33
107.75
106.407
105.272
104.318
103.519
102.854
102.304
101.851
101.48
101.178
100.933
100.735
100.576
100.45
100.349
100.27
100.208
100.159
100.121
100.092
100.069
100.052
100.039
100.029
100.021
100.016
100.012
100.008
100.006
100.004
100.003
100.002
100.002
100.001
100.001
100.001
100
100
100
100
100
100
100
100
100
391.246
373.785
356.464
339.374
322.6
306.227
290.328
274.974
260.224
246.131
232.736
220.074
208.168
197.033
186.674
177.088
168.265
160.188
152.832
146.17
140.167
134.787
129.991
125.739
121.988
118.697
115.825
113.332
111.179
109.33
107.75
106.408
105.273
104.318
103.519
102.855
102.304
101.851
101.48
101.178
100.933
100.735
100.576
100.45
100.349
100.27
100.208
100.159
100.121
100.092
100.069
100.052
100.039
100.029
100.021
100.016
100.012
100.008
100.006
100.004
100.003
100.002
100.002
100.001
100.001
100.001
100
100
100
100
100
100
100
100
100
391.246
373.785
356.464
339.374
322.601
306.227
290.329
274.975
260.225
246.132
232.737
220.075
208.169
197.034
186.674
177.089
168.266
160.189
152.833
146.17
140.167
134.787
129.992
125.739
121.988
118.697
115.825
113.332
111.18
109.331
107.751
106.408
105.273
104.318
103.519
102.855
102.304
101.851
101.48
101.178
100.933
100.735
100.576
100.45
100.349
100.27
100.208
100.159
100.121
100.092
100.069
100.052
100.039
100.029
100.021
100.016
100.012
100.008
100.006
100.004
100.003
100.002
100.002
100.001
100.001
100.001
100
100
100
100
100
100
100
100
100
391.246
373.786
356.465
339.374
322.601
306.228
290.329
274.975
260.225
246.132
232.738
220.076
208.17
197.034
186.675
177.089
168.266
160.189
152.833
146.171
140.168
134.788
129.992
125.739
121.988
118.698
115.826
113.333
111.18
109.331
107.751
106.408
105.273
104.318
103.519
102.855
102.305
101.851
101.48
101.178
100.933
100.735
100.576
100.45
100.349
100.27
100.208
100.159
100.121
100.092
100.069
100.052
100.039
100.029
100.021
100.016
100.012
100.008
100.006
100.004
100.003
100.002
100.002
100.001
100.001
100.001
100
100
100
100
100
100
100
100
100
391.246
373.786
356.465
339.374
322.601
306.228
290.33
274.975
260.226
246.132
232.738
220.076
208.17
197.035
186.675
177.09
168.267
160.189
152.834
146.171
140.168
134.788
129.992
125.74
121.989
118.698
115.826
113.333
111.18
109.331
107.751
106.408
105.273
104.318
103.519
102.855
102.305
101.851
101.48
101.178
100.933
100.735
100.576
100.45
100.349
100.27
100.208
100.159
100.121
100.092
100.069
100.052
100.039
100.029
100.021
100.016
100.012
100.008
100.006
100.004
100.003
100.002
100.002
100.001
100.001
100.001
100
100
100
100
100
100
100
100
100