/*--------------------------------*- C++ -*----------------------------------*\
  =========                 |
  \\      /  F ield         | OpenFOAM: The Open Source CFD Toolbox
   \\    /   O peration     | Website:  https://openfoam.org
    \\  /    A nd           | Version:  10
     \\/     M anipulation  |
\*---------------------------------------------------------------------------*/
FoamFile
{
    format      ascii;
    class       volScalarField;
    location    "499";
    object      gradTx;
}
// * * * * * * * * * * * * * * * * * * * * * * * * * * * * * * * * * * * * * //

dimensions      [0 -1 0 1 0 0 0];

internalField   nonuniform List<scalar> 
11250
(
14308
8128.29
5350.31
3882.71
2998.89
2411.53
1992
1676.07
1428.58
1228.84
1063.9
925.272
807.165
705.475
617.217
540.153
472.567
413.113
360.71
314.472
273.663
237.659
205.922
177.984
153.433
131.903
113.066
96.6293
82.3258
69.9162
59.1833
49.9309
41.9817
35.1761
29.3702
24.4354
20.2565
16.7311
13.7685
11.2885
9.22055
7.50307
6.08235
4.91183
3.95136
3.16644
2.52762
2.00982
1.59186
1.25588
0.986913
0.772492
0.602266
0.46769
0.361742
0.278681
0.213836
0.163423
0.124395
0.0943082
0.0712104
0.0535525
0.0401093
0.0299171
0.0222208
0.0164317
0.012093
0.00885092
0.00643304
0.00462951
0.00327874
0.00225568
0.0014624
0.000820403
0.000264203
4103.8
4726.99
4040.64
3299.91
2703.65
2245.15
1890.09
1609.51
1382.9
1196.24
1039.92
907.19
793.256
694.602
608.603
533.254
466.993
408.576
356.995
311.417
271.142
235.572
204.191
176.546
152.238
130.909
112.241
95.9431
81.7563
69.444
58.7923
49.6078
41.7152
34.9566
29.19
24.2877
20.1358
16.6328
13.6886
11.2237
9.16823
7.46093
6.04852
4.88476
3.92977
3.14928
2.51402
1.99909
1.58342
1.24926
0.981744
0.76847
0.599148
0.465281
0.359888
0.27726
0.21275
0.162597
0.123769
0.0938353
0.0708546
0.0532859
0.0399103
0.0297691
0.0221112
0.016351
0.0120337
0.00880767
0.00640168
0.004607
0.00326283
0.00224476
0.00145533
0.000816442
0.000262929
1484.18
2635.64
2786.06
2573.6
2271.87
1976.79
1715.38
1490.85
1299.31
1135.52
994.664
872.742
766.566
673.619
591.906
519.835
456.119
399.706
349.72
305.423
266.187
231.466
200.782
173.713
149.881
128.949
110.61
94.5874
80.6304
68.5101
58.0189
48.9683
41.1875
34.5222
28.8331
23.9952
19.8967
16.4379
13.5302
11.0953
9.06449
7.37737
5.98143
4.83107
3.88694
3.11523
2.48705
1.9778
1.56667
1.23613
0.971486
0.760486
0.592957
0.460499
0.356207
0.274437
0.210594
0.160956
0.122525
0.0928959
0.070148
0.0527563
0.039515
0.0294752
0.0218936
0.0161905
0.011916
0.00872172
0.00633937
0.00456225
0.00323121
0.00222304
0.00144128
0.000808565
0.000260394
681.584
1545.76
1895.04
1937.51
1834.64
1676.22
1505.46
1341.05
1189.99
1054.05
932.78
824.949
729.125
643.927
568.115
500.606
440.466
386.888
339.173
296.712
258.971
225.474
195.799
169.565
146.427
126.072
108.214
92.5947
78.9743
67.1355
56.8798
48.0261
40.4096
33.8814
28.3065
23.5635
19.5438
16.1501
13.2962
10.9057
8.91119
7.25387
5.88224
4.75167
3.8236
3.06487
2.44714
1.94629
1.54187
1.21669
0.956303
0.748669
0.583793
0.453419
0.350758
0.270258
0.207401
0.158526
0.120683
0.0915046
0.0691012
0.0519718
0.0389294
0.0290398
0.0215712
0.0159528
0.0117415
0.00859435
0.00624702
0.00449595
0.00318435
0.00219086
0.00142044
0.000796889
0.000256636
378.124
971.173
1311.53
1447.7
1454.15
1389.42
1290.81
1179.73
1067.58
960.057
859.734
767.522
683.5
607.337
538.532
476.521
420.741
370.654
325.759
285.593
249.732
217.783
189.389
164.219
141.967
122.352
105.114
90.012
76.8257
65.3506
55.3995
46.8006
39.3974
33.047
27.6204
23.0009
19.0835
15.7747
12.9909
10.658
8.71101
7.09254
5.75265
4.64791
3.7408
2.99903
2.39496
1.90508
1.50945
1.19126
0.936436
0.733203
0.571799
0.44415
0.343623
0.264786
0.20322
0.155344
0.11827
0.0896822
0.06773
0.0509441
0.0381622
0.0284694
0.0211487
0.0156413
0.0115128
0.00842742
0.00612598
0.00440904
0.00312292
0.00214867
0.00139313
0.000781581
0.000251709
238
649.683
932.884
1088.55
1146.01
1137.88
1090.26
1021.27
942.497
860.981
780.809
704.237
632.414
565.837
504.622
448.671
397.767
351.631
309.961
272.441
238.762
208.623
181.734
157.819
136.617
117.881
101.381
86.8985
74.2322
63.1937
53.6088
45.317
38.1707
32.0353
26.7879
22.3177
18.5244
15.3184
12.6195
10.3568
8.46739
6.89614
5.59483
4.52152
3.63991
2.91877
2.33134
1.85483
1.46989
1.16024
0.912194
0.71433
0.557158
0.432836
0.334911
0.258104
0.198115
0.151458
0.115323
0.0874558
0.0660547
0.0496884
0.0372247
0.0277721
0.0206324
0.0152605
0.0112333
0.00822335
0.00597801
0.00430278
0.00304781
0.00209708
0.00135973
0.000762861
0.000245683
162.325
457.074
682.427
828.506
904.606
927.199
912.666
874.357
822.085
762.627
700.47
638.48
578.43
521.367
467.863
418.187
372.415
330.496
292.304
257.669
226.389
198.252
173.038
150.529
130.508
112.765
97.1012
83.323
71.2494
60.7096
51.5441
43.6044
36.7535
30.8653
25.8245
21.5264
17.8764
14.7892
12.1887
10.0071
8.18445
6.66794
5.41139
4.37455
3.52256
2.82539
2.2573
1.79632
1.42383
1.12411
0.883952
0.692336
0.540094
0.419646
0.324754
0.250312
0.192159
0.146924
0.111884
0.0848579
0.0640996
0.0482228
0.0361303
0.0269582
0.0200295
0.0148159
0.0109069
0.00798504
0.00580518
0.00417866
0.00296007
0.00203682
0.00132071
0.000740992
0.000238643
116.681
334.246
511.884
639.325
717.824
754.975
760.377
743.12
710.733
668.987
622.09
573.002
523.745
475.665
429.624
386.15
345.537
307.92
273.325
241.702
212.952
186.943
163.522
142.526
123.782
107.12
92.3681
79.361
67.9385
57.9481
49.2456
41.6956
35.1721
29.5584
24.7473
20.6411
17.1508
14.1962
11.7056
9.61476
7.86682
6.41164
5.20526
4.20933
3.39059
2.72034
2.17397
1.73046
1.37196
1.08341
0.852131
0.66755
0.520859
0.404775
0.3133
0.241523
0.185441
0.141808
0.108004
0.0819258
0.0618926
0.0465681
0.0348946
0.0260391
0.0193486
0.0143137
0.0105382
0.00771579
0.00560991
0.00403842
0.00286092
0.00196872
0.00127661
0.000716274
0.000230687
86.9607
251.721
392.158
499.939
573.471
615.793
632.234
628.675
610.557
582.448
547.963
509.841
470.1
430.182
391.097
353.528
317.92
284.542
253.538
224.957
198.788
174.969
153.408
133.99
116.588
101.064
87.2791
75.0919
64.3642
54.9618
46.7562
39.6254
33.4548
28.1376
23.5751
19.6766
16.3596
13.5492
11.1781
9.18608
7.51956
6.13127
4.97965
4.02841
3.24601
2.60521
2.08261
1.65822
1.31505
1.03874
0.817196
0.640331
0.499731
0.388436
0.300712
0.231862
0.178055
0.136183
0.103736
0.0787003
0.0594645
0.0447473
0.0335346
0.0250274
0.0185991
0.0137607
0.0101322
0.00741929
0.00539484
0.00388394
0.0027517
0.00189369
0.00122802
0.00068904
0.00022192
66.5223
193.881
305.685
395.629
461.37
503.738
525.524
530.393
522.124
504.169
479.462
450.376
418.767
386.044
353.25
321.143
290.25
260.932
233.414
207.825
184.218
162.594
142.911
125.099
109.07
94.718
81.9322
70.5961
60.5923
51.8046
44.1199
37.4297
31.6309
26.6267
22.3271
18.6488
15.5157
12.8585
10.6145
8.7277
7.14799
5.83109
4.73797
3.83449
3.09096
2.48168
1.98454
1.58065
1.25392
0.990733
0.779644
0.611062
0.477005
0.370856
0.287166
0.221463
0.170103
0.130125
0.099139
0.0752254
0.056848
0.0427849
0.0320686
0.0239366
0.0177909
0.0131644
0.00969431
0.00709944
0.00516282
0.00371726
0.00263384
0.00181272
0.00117559
0.000659647
0.000212458
51.8856
151.944
241.647
316.314
373.645
413.463
437.107
446.79
445.062
434.451
417.25
395.428
370.602
344.068
316.83
289.652
263.099
237.578
213.368
190.652
169.534
150.061
132.235
116.022
101.368
88.1967
76.4228
65.9525
56.6879
48.5299
41.3806
35.1445
29.7298
25.0498
21.023
17.5736
14.632
12.1344
10.0232
8.24641
6.75757
5.51545
4.48367
3.63034
2.92764
2.35149
1.88115
1.49883
1.1894
0.940056
0.739984
0.580142
0.452988
0.352273
0.272841
0.210464
0.161689
0.123714
0.094273
0.0715464
0.0540773
0.0407065
0.0305157
0.022781
0.0169344
0.0125324
0.00923013
0.00676035
0.0049168
0.00354051
0.00250885
0.00172684
0.00111997
0.000628467
0.000202421
41.0725
120.696
193.193
255.093
304.393
340.505
363.968
376.07
378.495
373.052
361.489
345.387
326.111
304.797
282.369
259.554
236.917
214.878
193.747
173.738
154.991
137.588
121.562
106.913
93.6112
81.6085
70.8412
61.2359
52.7129
45.1891
38.5808
32.8047
27.7804
23.4305
19.682
16.4666
13.7211
11.3874
9.41259
7.74897
6.35372
5.18872
4.22026
3.41873
2.75826
2.2164
1.77379
1.41383
1.12236
0.88737
0.698736
0.54797
0.427991
0.332925
0.257922
0.199005
0.152921
0.117031
0.0891997
0.0677097
0.0511873
0.0385381
0.0288952
0.0215748
0.0160404
0.0118726
0.0087454
0.00640619
0.00465982
0.00335585
0.00237826
0.0016371
0.00106184
0.000595882
0.000191931
32.8863
96.8929
155.858
207.194
249.24
281.287
303.446
316.429
321.329
319.42
312.008
300.337
285.526
268.547
250.216
231.203
212.04
193.144
174.831
157.331
140.807
125.361
111.054
97.9081
85.9164
75.0516
65.2698
56.5156
48.7252
41.8305
35.7603
30.4435
25.8098
21.7911
18.3226
15.343
12.7955
10.6275
8.7908
7.24197
5.94176
4.85517
3.95116
3.2024
2.58499
2.07812
1.66385
1.32674
1.05363
0.833335
0.656414
0.514947
0.402323
0.31305
0.242592
0.187226
0.143906
0.110158
0.0839804
0.0637617
0.0482126
0.0363057
0.0272265
0.0203325
0.0151193
0.0111927
0.00824587
0.00604116
0.0043949
0.00316547
0.00224359
0.00154455
0.00100189
0.000562272
0.00018111
26.5665
78.4309
126.648
169.269
204.95
232.991
253.287
266.201
272.428
272.851
268.436
260.146
248.881
235.454
220.569
204.822
188.702
172.602
156.833
141.626
127.155
113.536
100.847
89.1256
78.3842
68.6123
59.7822
51.8537
44.7773
38.4978
32.9561
28.0915
23.8436
20.1528
16.9621
14.217
11.8668
9.86413
8.16558
6.73168
5.52676
4.51888
3.67963
2.98397
2.40991
1.93832
1.55263
1.23859
0.984031
0.778586
0.613513
0.48146
0.376283
0.292879
0.227029
0.175264
0.134748
0.103174
0.0786749
0.0597474
0.0451872
0.0340346
0.0255285
0.0190681
0.0141817
0.0105004
0.00773715
0.00566935
0.00412502
0.00297149
0.00210636
0.00145023
0.000940793
0.000528012
0.00017008
21.6099
63.8998
103.5
138.932
169.115
193.416
211.632
223.917
230.701
232.593
230.298
224.552
216.072
205.524
193.505
180.533
167.046
153.407
139.905
126.769
114.171
102.236
91.0493
80.6624
71.0998
62.3644
54.4417
47.3044
40.9152
35.2302
30.2008
25.7762
21.9046
18.5346
15.6163
13.1017
10.9458
9.10619
7.54412
6.22395
5.11345
4.18366
3.40876
2.7659
2.23501
1.79856
1.44138
1.15037
0.914328
0.723731
0.570508
0.447875
0.350157
0.272634
0.211401
0.163248
0.125546
0.0961539
0.0733406
0.0557101
0.0421436
0.0317494
0.0238195
0.0177952
0.0132376
0.00980319
0.00722468
0.00529472
0.00385305
0.00277597
0.00196802
0.00135514
0.000879183
0.000493466
0.000158958
17.6725
52.324
84.9614
114.45
139.928
160.844
176.96
188.312
195.156
197.906
197.074
193.218
186.902
178.666
169.01
158.374
147.145
135.647
124.147
112.86
101.954
91.5528
81.7471
72.5956
64.1317
56.3683
49.3012
42.9135
37.1782
32.0611
27.523
23.5216
20.0132
16.9535
14.2993
12.0088
10.042
8.3616
6.9329
5.72407
4.70615
3.85302
3.14136
2.55046
2.06208
1.66029
1.33123
1.06297
0.845242
0.669332
0.527839
0.414537
0.32421
0.252519
0.195869
0.151301
0.116392
0.0891689
0.0680313
0.0516905
0.0391125
0.0294728
0.0221165
0.0165265
0.0122963
0.00910793
0.00671354
0.004921
0.00358168
0.00258086
0.00182995
0.00126021
0.000817676
0.000458974
0.000147852
14.5118
43.0111
69.9821
94.5476
116.019
133.93
148.04
158.318
164.911
168.096
168.242
165.77
161.121
154.728
147.004
138.321
129.011
119.361
109.612
99.9621
90.5677
81.5511
73.002
64.9829
57.5328
50.6715
44.4029
38.7181
33.5987
29.0186
24.9467
21.3483
18.1865
15.424
13.0234
10.9484
9.16398
7.63732
6.33769
5.23676
4.30869
3.53007
2.87995
2.33967
1.89276
1.5248
1.22324
0.977218
0.777422
0.6159
0.485907
0.381758
0.298688
0.232724
0.180577
0.139534
0.107374
0.0822843
0.0627966
0.047726
0.0361221
0.0272261
0.0204354
0.0152738
0.0113667
0.00842109
0.00620849
0.00455165
0.00331342
0.00238795
0.00169341
0.00116633
0.000756837
0.000424854
0.000136866
11.9531
35.4582
57.7908
78.2678
96.339
111.613
123.868
133.038
139.197
142.53
143.302
141.828
138.451
133.518
127.363
120.3
112.611
104.546
96.3166
88.1027
80.0493
72.271
64.8551
57.8645
51.3411
45.3094
39.7788
34.747
30.2021
26.125
22.4913
19.2728
16.439
13.9583
11.7988
9.92912
8.31889
6.93933
5.76341
4.76608
3.9244
3.21753
2.62674
2.13532
1.72849
1.39326
1.11831
0.893851
0.711445
0.56389
0.445069
0.349818
0.273806
0.213417
0.165656
0.128048
0.0985671
0.0755587
0.0576809
0.0438504
0.0331978
0.0250285
0.0187905
0.0140477
0.0104566
0.00774852
0.0057138
0.00418979
0.00305056
0.00219888
0.00155957
0.00107429
0.000697184
0.000391396
0.000126092
9.86749
29.2926
47.8099
64.8841
80.0746
93.0571
103.632
111.719
117.35
120.643
121.788
121.022
118.608
114.822
109.936
104.21
97.8812
91.1642
84.2453
77.2834
70.4099
63.7309
57.3286
51.2645
45.5812
40.3058
35.4515
31.0208
27.0072
23.397
20.1715
17.3082
14.7818
12.566
10.6337
8.95798
7.51262
6.27255
5.21415
4.31541
3.55606
2.91767
2.38359
1.93892
1.57048
1.26663
1.01724
0.813493
0.647809
0.513695
0.405634
0.31896
0.249754
0.194746
0.151219
0.11693
0.0900391
0.0690436
0.0527235
0.0400935
0.030362
0.0228967
0.0171945
0.0128577
0.00957306
0.00709537
0.00523329
0.00383822
0.00279512
0.0020151
0.00142945
0.000984793
0.000639174
0.000358858
0.000115614
8.1581
24.233
39.5998
53.8363
66.5895
77.5917
86.6682
93.7368
98.8006
101.936
103.276
102.999
101.307
98.4192
94.5542
89.9254
84.7326
79.1575
73.3615
67.4837
61.6416
55.9313
50.4292
45.1933
40.2658
35.6744
31.435
27.5533
24.0268
20.8465
17.9982
15.4639
13.2234
11.2545
9.53448
8.04039
6.74975
5.64086
4.69318
3.88746
3.20594
2.63235
2.15201
1.75171
1.41974
1.14574
0.920674
0.736666
0.586929
0.465646
0.367862
0.289386
0.226693
0.176834
0.137363
0.106255
0.0818472
0.0627828
0.0479578
0.0364805
0.027634
0.0208452
0.0156581
0.0117118
0.00872202
0.0064661
0.00477022
0.00349933
0.00254883
0.00183788
0.00130395
0.00089846
0.000583207
0.000327462
0.000105504
6.75099
20.0639
32.8207
44.6874
55.3803
64.6794
72.4345
78.5665
83.063
85.9707
87.3841
87.4348
86.2796
84.09
81.0424
77.3113
73.0626
68.4497
63.6107
58.6664
53.7204
48.8585
44.1504
39.6499
35.3972
31.42
27.7354
24.3513
21.2682
18.4806
15.9779
13.7464
11.7694
10.0288
8.50555
7.18024
6.03366
5.04715
4.20294
3.48431
2.87574
2.36301
1.93319
1.57466
1.27706
1.03123
0.829133
0.663785
0.529139
0.420006
0.331964
0.261264
0.204751
0.159784
0.124167
0.0960832
0.0740388
0.0568125
0.0434115
0.0330326
0.0250297
0.0188861
0.0141904
0.0106168
0.00790854
0.00586444
0.00432735
0.00317514
0.00231317
0.00166827
0.00118382
0.000815804
0.000529616
0.000297396
9.58212e-05
5.5888
16.6174
27.2071
37.0924
46.0453
53.885
60.4842
65.77
69.722
72.3668
73.771
74.0322
73.2709
71.6218
69.2264
66.2267
62.7597
58.954
54.9269
50.7823
46.6104
42.4873
38.4752
34.6234
30.9694
27.54
24.3525
21.4162
18.7337
16.3021
14.114
12.1587
10.423
8.89192
7.54972
6.38003
5.36655
4.49334
3.74509
3.10737
2.56669
2.11066
1.72799
1.40848
1.14303
0.923565
0.743006
0.595166
0.474691
0.376979
0.298101
0.234721
0.18403
0.143674
0.111693
0.0864636
0.0666506
0.0511613
0.0391064
0.0297663
0.0225617
0.0170289
0.0127986
0.00957805
0.00713664
0.00529337
0.00390688
0.00286727
0.00208932
0.00150712
0.00106965
0.000737242
0.000478673
0.000268813
8.66155e-05
4.62647
13.7614
22.5486
30.7763
38.2606
44.8539
50.4487
54.9799
58.4236
60.7933
62.1354
62.5223
62.0465
60.8136
58.9367
56.5308
53.7088
50.5778
47.2365
43.7737
40.2674
36.7839
33.3785
30.0956
26.9695
24.0255
21.2804
18.7445
16.4215
14.3106
12.4067
10.7017
9.18518
7.84506
6.66821
5.64098
4.74959
3.9805
3.32061
2.7575
2.27953
1.87595
1.53695
1.25362
1.01802
0.823078
0.662558
0.531026
0.423763
0.336708
0.266386
0.209848
0.164603
0.128562
0.0999855
0.0774309
0.0597101
0.0458502
0.0350587
0.0266942
0.0202395
0.0152808
0.0114881
0.00859971
0.00640938
0.00475516
0.0035105
0.00257696
0.00187819
0.00135509
0.000961928
0.000663097
0.000430586
0.00024183
7.79247e-05
3.82821
11.3909
18.677
25.5173
31.7637
37.2952
42.022
45.8872
48.8659
50.9635
52.2117
52.6642
52.392
51.4778
50.0117
48.0867
45.7952
43.226
40.4618
37.5779
34.641
31.7087
28.8293
26.0425
23.3792
20.8626
18.5091
16.3287
14.3262
12.5022
10.8533
9.37372
8.0551
6.88775
5.86089
4.96316
4.18299
3.50893
2.92982
2.43503
2.01458
1.65918
1.36033
1.11034
0.902263
0.729943
0.58794
0.471491
0.376459
0.299278
0.236891
0.186702
0.146514
0.114484
0.0890735
0.0690079
0.0532351
0.0408931
0.0312793
0.0238245
0.0180696
0.0136467
0.0102626
0.00768453
0.00572886
0.00425139
0.00313937
0.00230507
0.0016804
0.00121264
0.000860966
0.000593595
0.000385504
0.00021653
6.97757e-05
3.16526
9.42113
15.4565
21.1358
26.3395
30.9689
34.9493
38.2315
40.7914
42.6293
43.7666
44.2433
44.1134
43.4418
42.3001
40.7634
38.907
36.8041
34.5237
32.1293
29.6775
27.2179
24.7924
22.436
20.1761
18.0339
16.0247
14.1582
12.4398
10.8708
9.44945
8.17138
7.03022
6.01819
5.12647
4.34568
3.66615
3.07823
2.57247
2.13984
1.77177
1.46032
1.19817
0.978656
0.795785
0.644209
0.519198
0.416604
0.332819
0.264724
0.209646
0.165308
0.129785
0.101457
0.0789713
0.0612061
0.0472349
0.0362974
0.027774
0.0211618
0.0160554
0.0121294
0.00912428
0.00683415
0.00509632
0.00378299
0.0027942
0.00205213
0.00149634
0.00108005
0.000766971
0.000528877
0.000343519
0.000192966
6.21852e-05
2.61436
7.78348
12.7764
17.4845
21.8112
25.6762
29.0173
31.7926
33.98
35.5764
36.5962
37.0689
37.0359
36.5478
35.6616
34.4376
32.9371
31.2202
29.3441
27.362
25.3218
23.2658
21.2301
19.2451
17.3351
15.5192
13.811
12.2202
10.7519
9.40835
8.18864
7.08972
6.10671
5.23342
4.46271
3.78683
3.19777
2.68743
2.24785
1.87138
1.55073
1.27911
1.05025
0.858434
0.698491
0.565805
0.456285
0.366335
0.292822
0.233034
0.184643
0.145664
0.114415
0.0894817
0.0696801
0.0540272
0.041711
0.0320648
0.0245441
0.0187074
0.0141979
0.0107296
0.00807378
0.00604911
0.00451218
0.00335029
0.00247525
0.00181833
0.00132617
0.000957426
0.000680027
0.000469002
0.000304669
0.000171159
5.51605e-05
2.1565
6.42185
10.5463
14.4425
18.0326
21.2512
24.047
26.3843
28.2435
29.6196
30.5223
30.973
31.0035
30.6534
29.9677
28.9949
27.7847
26.3863
24.8471
23.2111
21.5188
19.8059
18.1035
16.4376
14.8296
13.2963
11.8501
10.4999
9.2508
8.10529
7.06326
6.12263
5.27971
4.52961
3.86656
3.28424
2.776
2.33509
1.95484
1.62879
1.35078
1.11503
0.916191
0.749377
0.610158
0.494566
0.399078
0.320592
0.2564
0.204158
0.161846
0.127742
0.100385
0.0785442
0.0611893
0.0474635
0.0366581
0.0281912
0.021587
0.0164593
0.012496
0.00944644
0.00711048
0.00532898
0.00397617
0.00295312
0.00218239
0.0016036
0.00116984
0.000844745
0.000600112
0.000413956
0.000268948
0.000151106
4.87004e-05
1.77608
5.29011
8.69131
11.9095
14.882
17.5554
19.8876
21.8486
23.421
24.5994
25.3896
25.8075
25.8773
25.63
25.1013
24.3299
23.356
22.2198
20.9602
19.6139
18.2145
16.7922
15.3734
13.9805
12.6319
11.3423
10.1229
8.98161
7.92348
6.95105
6.06472
5.26315
4.5436
3.90223
3.33442
2.83501
2.39852
2.01938
1.69199
1.41094
1.17103
0.967381
0.795447
0.651067
0.530462
0.430241
0.347383
0.279226
0.223442
0.178009
0.141189
0.111493
0.087657
0.0686166
0.0534786
0.0414997
0.0320649
0.0246684
0.0188965
0.014413
0.0109461
0.00827757
0.00623262
0.00467249
0.00348736
0.00259081
0.00191515
0.00140759
0.0010271
0.000741836
0.000527111
0.000363664
0.000236306
0.000132779
4.2796e-05
1.46022
4.35012
7.14962
9.80241
12.2578
14.4725
16.412
18.0512
19.375
20.3778
21.063
21.4424
21.5344
21.3631
20.9568
20.3464
19.5645
18.6435
17.6155
16.5107
15.3571
14.18
13.0017
11.8411
10.7143
9.63393
8.60983
7.64911
6.75647
5.93446
5.18382
4.50375
3.89222
3.34628
2.86222
2.43586
2.06273
1.73819
1.45763
1.21649
1.01043
0.835333
0.68736
0.562984
0.458998
0.372513
0.300955
0.242048
0.193799
0.154477
0.122587
0.0968508
0.0761814
0.0596608
0.0465189
0.0361141
0.027915
0.0214841
0.0164634
0.0125617
0.00954347
0.00721926
0.00543751
0.00407766
0.0030443
0.0022623
0.00167277
0.00122976
0.000897559
0.000648423
0.00046083
0.000317991
0.000206658
0.000116132
3.74322e-05
1.19821
3.57018
5.86973
8.05162
10.075
11.9048
13.5128
14.878
15.9876
16.8361
17.4255
17.7641
17.8663
17.7506
17.4395
16.9577
16.3312
15.5865
14.7497
13.8456
12.8976
11.9266
10.9513
9.98784
9.0498
8.14814
7.29142
6.48596
5.73603
5.04409
4.41106
3.83656
3.31912
2.85646
2.44563
2.08329
1.76575
1.48923
1.24989
1.04396
0.867789
0.717938
0.591179
0.484536
0.395298
0.321017
0.259507
0.208833
0.167298
0.133424
0.105935
0.0837361
0.0658968
0.05163
0.0402748
0.0312798
0.0241881
0.018623
0.0142763
0.0108969
0.00828156
0.00626678
0.00472164
0.00354192
0.00264512
0.00196622
0.00145425
0.00106939
0.000780704
0.000564132
0.000401008
0.000276762
0.000179889
0.000101099
3.25886e-05
0.981156
2.9239
4.80863
6.59906
8.26229
9.76991
11.0988
12.2319
13.158
13.8722
14.3753
14.6736
14.7777
14.7023
14.465
14.0854
13.5846
12.9839
12.3045
11.5669
10.7901
9.99168
9.18719
8.3902
7.61217
6.86251
6.1486
5.47599
4.84851
4.26847
3.73688
3.25363
2.81769
2.42732
2.0802
1.77362
1.50461
1.27007
1.06682
0.891751
0.741829
0.614176
0.506091
0.415077
0.33885
0.275348
0.222722
0.179334
0.143746
0.114702
0.0911165
0.0720584
0.0567339
0.0444712
0.0347057
0.0269659
0.0208607
0.0160675
0.0123219
0.00940857
0.00715296
0.00541458
0.00408089
0.00306223
0.00228758
0.00170094
0.00125839
0.000925614
0.000675906
0.000488519
0.000347332
0.000239759
0.000155861
8.76043e-05
2.82401e-05
0.801623
2.38921
3.93036
5.39597
6.75959
7.99825
9.09318
10.0302
10.8
11.3982
11.8248
12.0844
12.1852
12.1385
11.9582
11.6599
11.2604
10.7771
10.227
9.62683
8.99234
8.33792
7.67655
7.01955
6.37659
5.75563
5.16302
4.60356
4.08064
3.59639
3.15184
2.74707
2.38137
2.05342
1.7614
1.50315
1.27627
1.07821
0.906397
0.75824
0.631234
0.522987
0.431248
0.353929
0.289117
0.23508
0.190263
0.153286
0.122935
0.0981476
0.0780059
0.0617205
0.0486175
0.0381265
0.0297673
0.0231387
0.0179073
0.0137981
0.0105856
0.00808572
0.00614942
0.00465652
0.0035107
0.0026352
0.00196917
0.00146462
0.00108386
0.000797448
0.000582463
0.000421081
0.000299447
0.000206743
0.000134418
7.55595e-05
2.43586e-05
0.653386
1.94764
3.20476
4.40143
5.5164
6.53115
7.43044
8.20266
8.84002
9.33859
9.69812
9.92184
10.016
9.98939
9.85296
9.6191
9.30122
8.91322
8.46901
7.98213
7.46543
6.93077
6.38888
5.84917
5.31974
4.8073
4.31725
3.85373
3.41969
3.01705
2.64683
2.3092
2.00372
1.72939
1.48479
1.2682
1.07769
0.911197
0.766598
0.641779
0.534672
0.443297
0.365786
0.300401
0.245546
0.199775
0.161784
0.130416
0.10465
0.0835935
0.0664724
0.0526205
0.041469
0.0325354
0.0254132
0.0197625
0.0153007
0.0117943
0.00905174
0.00691664
0.00526216
0.00398602
0.00300618
0.00225721
0.00168724
0.00125529
0.000929211
0.000683852
0.000499618
0.000361274
0.000256971
0.000177449
0.000115389
6.48698e-05
2.09136e-05
0.531234
1.5837
2.60651
3.581
4.49014
5.31901
6.05528
6.68946
7.21509
7.62876
7.92999
8.12109
8.2068
8.19399
8.09121
7.90829
7.65592
7.34525
6.98751
6.59366
6.17416
5.73875
5.29624
4.85443
4.42004
3.99872
3.59502
3.21246
2.85362
2.52019
2.21312
1.93268
1.67857
1.45007
1.24607
1.06521
0.90594
0.766589
0.645435
0.540745
0.450824
0.374038
0.308844
0.253802
0.207586
0.168992
0.136935
0.110447
0.0886743
0.0708694
0.0563828
0.0446552
0.0352083
0.0276359
0.0215957
0.0168009
0.0130131
0.0100349
0.00770436
0.00588924
0.00448211
0.0033963
0.00256227
0.00192452
0.00143899
0.00107091
0.000792954
0.000583732
0.00042658
0.000308533
0.000219504
0.000151605
9.8598e-05
5.5436e-05
1.78732e-05
0.430795
1.28441
2.11436
2.90575
3.64494
4.31995
4.92082
5.43983
5.87165
6.21335
6.46436
6.62631
6.7028
6.69915
6.62208
6.47935
6.27947
6.03135
5.74402
5.42635
5.08683
4.73338
4.37323
4.01281
3.65768
3.31255
2.98124
2.66672
2.37121
2.0962
1.84255
1.61056
1.40007
1.21054
1.04112
0.890748
0.758171
0.642048
0.540984
0.453567
0.378409
0.314172
0.259583
0.213456
0.174695
0.142301
0.115373
0.0931075
0.0747932
0.0598064
0.0476051
0.0377215
0.0297553
0.0233663
0.0182672
0.0142174
0.0110165
0.00849858
0.00652735
0.00499136
0.00380011
0.0028805
0.00217386
0.0016333
0.00122162
0.000909415
0.000673564
0.000495978
0.000362544
0.00026228
0.000186638
0.000128929
8.38632e-05
4.71564e-05
1.52046e-05
0.348401
1.03885
1.71046
2.35134
2.95059
3.49862
3.9874
4.41069
4.76409
5.04513
5.25321
5.38946
5.45663
5.45883
5.40131
5.29021
5.13229
4.93464
4.7045
4.44903
4.17507
3.88908
3.59695
3.30394
3.01465
2.73297
2.46208
2.20449
1.96209
1.73616
1.52748
1.33635
1.16272
1.00618
0.866079
0.741582
0.631699
0.535353
0.451415
0.378741
0.316201
0.262699
0.217195
0.178712
0.146349
0.119281
0.096764
0.0781327
0.0627972
0.0502399
0.0400101
0.0317186
0.0250317
0.0196657
0.0153809
0.011976
0.00928348
0.00716447
0.00550476
0.00421095
0.00320709
0.00243182
0.00183585
0.00137979
0.00103233
0.000768726
0.000569525
0.000419483
0.000306707
0.000221939
0.000157965
0.000109142
7.10034e-05
3.99295e-05
1.28752e-05
0.280979
0.837891
1.37982
1.89731
2.38166
2.82521
3.22152
3.56553
3.85367
4.08384
4.25547
4.36934
4.42753
4.43323
4.39053
4.30427
4.1798
4.02277
3.83896
3.63411
3.41375
3.18309
2.94692
2.70955
2.47473
2.24567
2.02501
1.81486
1.61679
1.43191
1.26092
1.1041
0.961454
0.832695
0.717328
0.614694
0.524011
0.444417
0.375006
0.314853
0.26304
0.218676
0.180912
0.14895
0.122049
0.0995328
0.080789
0.0652689
0.0524858
0.0420117
0.0334738
0.0265494
0.020962
0.0164757
0.0128915
0.0100419
0.00778733
0.00601217
0.00462115
0.0035363
0.00269423
0.00204364
0.00154331
0.00116029
0.000868372
0.000646829
0.000479352
0.000353162
0.000258283
0.000186943
0.000133085
9.19697e-05
5.98406e-05
3.36556e-05
1.08528e-05
0.225953
0.673855
1.10987
1.52648
1.91677
2.27463
2.5949
2.87351
3.10755
3.29529
3.43617
3.53074
3.58058
3.58814
3.55662
3.48982
3.39196
3.26753
3.12114
2.95737
2.78067
2.59525
2.40497
2.21333
2.0234
1.83781
1.65875
1.48794
1.32672
1.17604
1.03648
0.908337
0.791628
0.68616
0.591555
0.507301
0.43278
0.367308
0.310157
0.260583
0.217845
0.18122
0.150018
0.123588
0.101327
0.0826808
0.0671475
0.054277
0.0436693
0.0349721
0.0278784
0.0221219
0.0174742
0.0137404
0.0107558
0.00838177
0.00650255
0.00502221
0.00386168
0.0029562
0.00225306
0.00170958
0.00129147
0.000971259
0.000727123
0.000541777
0.000401615
0.00029597
0.000216512
0.000156747
0.000111613
7.71455e-05
5.02027e-05
2.82381e-05
9.10631e-06
0.181167
0.54033
0.890079
1.22446
1.53798
1.82578
2.08373
2.30859
2.49797
2.65047
2.76558
2.84367
2.88592
2.89424
2.87111
2.81951
2.74277
2.64444
2.52818
2.39766
2.25642
2.10784
1.95505
1.80088
1.64781
1.49799
1.35321
1.21492
1.0842
0.961866
0.848419
0.744124
0.649026
0.56299
0.485734
0.416858
0.355879
0.302252
0.255397
0.214718
0.179618
0.149514
0.123846
0.102088
0.0837476
0.0683745
0.055559
0.0449334
0.0361702
0.0289809
0.0231134
0.0183494
0.0145008
0.0114074
0.00893333
0.00696439
0.0054051
0.00417621
0.00321238
0.00246003
0.00187556
0.00142363
0.0010758
0.000809325
0.000606079
0.000451721
0.000334953
0.000246911
0.00018067
0.00013083
9.31789e-05
6.44162e-05
4.19254e-05
2.35848e-05
7.60613e-06
0.144818
0.431951
0.711645
0.979193
1.23025
1.46095
1.66802
1.84885
2.00153
2.12491
2.21853
2.28265
2.31815
2.3265
2.30964
2.26988
2.20986
2.13237
2.04032
1.9366
1.82407
1.70541
1.58314
1.45953
1.33661
1.21611
1.09949
0.987941
0.882366
0.783433
0.691577
0.607033
0.529858
0.459962
0.397133
0.341064
0.291376
0.247637
0.209388
0.176151
0.147448
0.122811
0.101788
0.0839538
0.0689102
0.0562916
0.0457652
0.0370318
0.0298245
0.0239082
0.0190768
0.0151517
0.0119791
0.00942773
0.00738612
0.00576054
0.00447255
0.003457
0.00266014
0.00203787
0.00155424
0.00118013
0.000892089
0.00067133
0.000502893
0.000374926
0.000278088
0.000205049
0.000150077
0.000108703
7.74362e-05
5.3543e-05
3.48539e-05
1.96089e-05
6.32421e-06
0.115405
0.344243
0.567218
0.780615
0.981002
1.16532
1.33098
1.47589
1.59853
1.69795
1.77376
1.82612
1.85571
1.86365
1.85144
1.8209
1.77407
1.71318
1.6405
1.55835
1.46897
1.37452
1.277
1.17825
1.07989
0.983326
0.889741
0.800101
0.715158
0.635462
0.561382
0.493123
0.430746
0.374194
0.323309
0.277855
0.237536
0.202013
0.170921
0.14388
0.12051
0.100434
0.0832903
0.068736
0.0564505
0.0461382
0.0375301
0.0303836
0.0244824
0.0196352
0.0156746
0.0124552
0.00985154
0.00775661
0.00607941
0.00474333
0.00368421
0.00284875
0.0021929
0.00168053
0.00128215
0.000973858
0.000736403
0.000554345
0.000415387
0.000309778
0.000229832
0.000169513
0.0001241
8.99086e-05
6.40618e-05
4.43037e-05
2.88439e-05
1.62293e-05
5.23453e-06
0.0916772
0.27348
0.450673
0.620334
0.779758
0.926534
1.05861
1.17432
1.27246
1.35226
1.41337
1.45592
1.4804
1.48767
1.4789
1.45549
1.41907
1.37135
1.31414
1.24927
1.17851
1.10358
1.02607
0.947458
0.869032
0.791928
0.717106
0.645347
0.577266
0.513317
0.453808
0.398916
0.348702
0.303133
0.26209
0.225394
0.192814
0.164084
0.138917
0.117011
0.098064
0.0817751
0.0678552
0.0560292
0.0460397
0.0376491
0.0306406
0.0248184
0.0200078
0.0160541
0.0128217
0.0101928
0.00806559
0.00635312
0.00498144
0.00388821
0.00302119
0.00233696
0.0017996
0.00137961
0.00105292
0.000800018
0.000605146
0.000455682
0.000341559
0.000254795
0.000189092
0.000139503
0.000102156
7.4028e-05
5.2758e-05
3.6493e-05
2.37623e-05
1.33716e-05
4.31305e-06
0.0725945
0.216567
0.356924
0.491373
0.617788
0.734274
0.839208
0.931282
1.00952
1.07331
1.12237
1.15677
1.17688
1.18336
1.17711
1.15923
1.13097
1.09369
1.04879
0.997724
0.941891
0.882646
0.821258
0.75889
0.696583
0.635245
0.575646
0.518419
0.464061
0.412947
0.36533
0.321363
0.281104
0.244533
0.211564
0.18206
0.155843
0.132705
0.112419
0.0947485
0.0794525
0.0662928
0.0550389
0.0454713
0.037384
0.0305867
0.0249053
0.0201828
0.0162785
0.0130678
0.0104414
0.00830421
0.00657397
0.00518035
0.00406353
0.00317299
0.0024664
0.00190853
0.00147021
0.00112749
0.000860797
0.000654256
0.000495049
0.000372893
0.000279589
0.000208628
0.000154873
0.000114289
8.37133e-05
6.06778e-05
4.32529e-05
2.99238e-05
1.94877e-05
1.09673e-05
3.53774e-06
0.057297
0.17094
0.281755
0.387948
0.487854
0.579985
0.663066
0.736066
0.798213
0.849008
0.888226
0.915901
0.932315
0.93797
0.933559
0.919935
0.89807
0.869023
0.833901
0.79383
0.749918
0.703232
0.654777
0.605475
0.556153
0.507536
0.46024
0.414773
0.371539
0.330841
0.29289
0.257813
0.225664
0.196433
0.170058
0.146434
0.125425
0.106867
0.0905849
0.0763908
0.0640948
0.0535086
0.0444491
0.0367418
0.0302227
0.02474
0.0201546
0.0163408
0.0131859
0.01059
0.00846539
0.00673555
0.0053344
0.00420528
0.00329999
0.00257778
0.0020045
0.00155167
0.00119574
0.000917318
0.000700577
0.000532655
0.000403167
0.000303778
0.000227835
0.000170059