/*--------------------------------*- C++ -*----------------------------------*\
  =========                 |
  \\      /  F ield         | OpenFOAM: The Open Source CFD Toolbox
   \\    /   O peration     | Website:  https://openfoam.org
    \\  /    A nd           | Version:  10
     \\/     M anipulation  |
\*---------------------------------------------------------------------------*/
FoamFile
{
    format      ascii;
    class       volScalarField;
    location    "161";
    object      T;
}
// * * * * * * * * * * * * * * * * * * * * * * * * * * * * * * * * * * * * * //

dimensions      [0 0 0 1 0 0 0];

internalField   nonuniform List<scalar> 
11250
(
249.669
167.043
138.521
125.806
118.766
114.244
111.058
108.684
106.852
105.41
104.261
103.341
102.604
102.016
101.547
101.178
100.888
100.663
100.49
100.358
100.259
100.186
100.131
100.092
100.064
100.044
100.029
100.02
100.013
100.009
100.005
100.004
100.002
100.001
100.001
100.001
100
100
100
100
100
100
100
100
100
100
100
100
100
100
100
100
100
100
100
100
100
100
100
100
100
100
100
100
100
100
100
100
100
100
100
100
100
100
100
330.982
247.051
199.8
171.802
153.853
141.478
132.453
125.602
120.261
116.029
112.643
109.925
107.743
105.996
104.606
103.506
102.645
101.975
101.46
101.068
100.773
100.553
100.392
100.274
100.19
100.13
100.088
100.059
100.039
100.025
100.016
100.01
100.007
100.004
100.003
100.002
100.001
100.001
100
100
100
100
100
100
100
100
100
100
100
100
100
100
100
100
100
100
100
100
100
100
100
100
100
100
100
100
100
100
100
100
100
100
100
100
100
358.217
290.459
241.957
207.927
183.579
165.607
151.938
141.287
132.845
126.079
120.626
116.224
112.676
109.829
107.557
105.758
104.346
103.247
102.402
101.758
101.273
100.911
100.645
100.452
100.313
100.214
100.145
100.097
100.064
100.042
100.027
100.017
100.011
100.007
100.004
100.003
100.002
100.001
100.001
100
100
100
100
100
100
100
100
100
100
100
100
100
100
100
100
100
100
100
100
100
100
100
100
100
100
100
100
100
100
100
100
100
100
100
100
369.689
314.745
269.858
234.661
207.282
185.837
168.843
155.224
144.216
135.275
127.998
122.083
117.291
113.43
110.34
107.887
105.958
104.456
103.298
102.415
101.749
101.253
100.888
100.622
100.431
100.295
100.2
100.134
100.088
100.058
100.037
100.024
100.015
100.009
100.006
100.004
100.002
100.001
100.001
100
100
100
100
100
100
100
100
100
100
100
100
100
100
100
100
100
100
100
100
100
100
100
100
100
100
100
100
100
100
100
100
100
100
100
100
375.545
329.16
288.368
253.978
225.54
202.174
182.978
167.182
154.165
143.439
134.619
127.392
121.502
116.734
112.905
109.858
107.455
105.581
104.134
103.029
102.195
101.574
101.115
100.782
100.542
100.371
100.251
100.168
100.111
100.073
100.047
100.03
100.019
100.012
100.007
100.004
100.003
100.002
100.001
100.001
100
100
100
100
100
100
100
100
100
100
100
100
100
100
100
100
100
100
100
100
100
100
100
100
100
100
100
100
100
100
100
100
100
100
100
378.955
338.214
300.856
267.85
239.343
215.043
194.479
177.161
162.634
150.499
140.415
132.086
125.256
119.7
115.221
111.644
108.818
106.608
104.899
103.593
102.606
101.869
101.325
100.929
100.644
100.441
100.299
100.2
100.132
100.087
100.056
100.036
100.023
100.014
100.009
100.005
100.003
100.002
100.001
100.001
100
100
100
100
100
100
100
100
100
100
100
100
100
100
100
100
100
100
100
100
100
100
100
100
100
100
100
100
100
100
100
100
100
100
100
381.111
344.163
309.445
277.828
249.68
225.015
203.649
185.306
169.679
156.465
145.376
136.146
128.531
122.306
117.268
113.232
110.034
107.528
105.587
104.101
102.977
102.136
101.516
101.063
100.737
100.505
100.342
100.229
100.152
100.099
100.064
100.041
100.026
100.016
100.01
100.006
100.004
100.002
100.001
100.001
100
100
100
100
100
100
100
100
100
100
100
100
100
100
100
100
100
100
100
100
100
100
100
100
100
100
100
100
100
100
100
100
100
100
100
382.544
348.203
315.454
285.037
257.381
232.656
210.85
191.837
175.429
161.407
149.537
139.588
131.332
124.551
119.042
114.616
111.099
108.337
106.194
104.551
103.306
102.374
101.686
101.183
100.821
100.563
100.382
100.256
100.169
100.111
100.072
100.046
100.029
100.018
100.011
100.007
100.004
100.002
100.001
100.001
100
100
100
100
100
100
100
100
100
100
100
100
100
100
100
100
100
100
100
100
100
100
100
100
100
100
100
100
100
100
100
100
100
100
100
383.527
351.01
319.714
290.268
263.104
238.463
216.435
196.996
180.045
165.429
152.964
142.452
133.683
126.451
120.553
115.801
112.015
109.037
106.721
104.942
103.593
102.582
101.835
101.289
100.894
100.614
100.416
100.279
100.185
100.121
100.078
100.05
100.032
100.02
100.012
100.007
100.004
100.003
100.002
100.001
100.001
100
100
100
100
100
100
100
100
100
100
100
100
100
100
100
100
100
100
100
100
100
100
100
100
100
100
100
100
100
100
100
100
100
100
384.216
352.992
322.762
294.076
267.347
242.848
220.725
201.022
183.697
168.652
155.741
144.795
135.623
128.029
121.817
116.798
112.79
109.63
107.17
105.277
103.84
102.762
101.963
101.379
100.958
100.658
100.446
100.299
100.198
100.13
100.084
100.054
100.034
100.021
100.013
100.008
100.005
100.003
100.002
100.001
100.001
100
100
100
100
100
100
100
100
100
100
100
100
100
100
100
100
100
100
100
100
100
100
100
100
100
100
100
100
100
100
100
100
100
100
384.704
354.404
324.956
296.852
270.484
246.138
223.991
204.128
186.551
171.198
157.957
146.681
137.197
129.32
122.858
117.622
113.435
110.126
107.546
105.559
104.048
102.913
102.072
101.457
101.012
100.695
100.472
100.316
100.21
100.137
100.089
100.057
100.036
100.022
100.014
100.008
100.005
100.003
100.002
100.001
100.001
100
100
100
100
100
100
100
100
100
100
100
100
100
100
100
100
100
100
100
100
100
100
100
100
100
100
100
100
100
100
100
100
100
100
385.052
355.416
326.541
298.876
272.798
248.593
226.457
206.5
188.754
173.184
159.702
148.179
138.457
130.359
123.7
118.294
113.962
110.534
107.856
105.792
104.22
103.039
102.163
101.522
101.058
100.727
100.493
100.331
100.219
100.144
100.093
100.06
100.038
100.024
100.015
100.009
100.005
100.003
100.002
100.001
100.001
100
100
100
100
100
100
100
100
100
100
100
100
100
100
100
100
100
100
100
100
100
100
100
100
100
100
100
100
100
100
100
100
100
100
385.302
356.143
327.686
300.35
274.497
250.414
228.304
208.294
190.436
174.713
161.057
149.351
139.449
131.183
124.372
118.833
114.387
110.864
108.109
105.982
104.362
103.143
102.238
101.575
101.095
100.753
100.511
100.343
100.227
100.149
100.097
100.062
100.039
100.024
100.015
100.009
100.006
100.003
100.002
100.001
100.001
100
100
100
100
100
100
100
100
100
100
100
100
100
100
100
100
100
100
100
100
100
100
100
100
100
100
100
100
100
100
100
100
100
100
385.481
356.666
328.512
301.42
275.74
251.755
229.677
209.639
191.707
175.878
162.096
150.256
140.221
131.828
124.901
119.259
114.724
111.127
108.311
106.135
104.476
103.227
102.299
101.618
101.126
100.774
100.526
100.353
100.234
100.153
100.099
100.064
100.04
100.025
100.016
100.009
100.006
100.003
100.002
100.001
100.001
100
100
100
100
100
100
100
100
100
100
100
100
100
100
100
100
100
100
100
100
100
100
100
100
100
100
100
100
100
100
100
100
100
100
385.609
357.041
329.106
302.193
276.644
252.738
230.688
210.637
192.657
176.755
162.884
150.947
140.813
132.325
125.311
119.591
114.988
111.333
108.47
106.256
104.566
103.293
102.347
101.653
101.15
100.791
100.538
100.361
100.239
100.157
100.102
100.065
100.041
100.026
100.016
100.01
100.006
100.003
100.002
100.001
100.001
100
100
100
100
100
100
100
100
100
100
100
100
100
100
100
100
100
100
100
100
100
100
100
100
100
100
100
100
100
100
100
100
100
100
385.7
357.308
329.532
302.75
277.297
253.452
231.428
211.372
193.36
177.409
163.474
151.467
141.262
132.704
125.624
119.845
115.192
111.493
108.594
106.35
104.637
103.345
102.385
101.68
101.17
100.805
100.547
100.367
100.244
100.16
100.104
100.066
100.042
100.026
100.016
100.01
100.006
100.004
100.002
100.001
100.001
100
100
100
100
100
100
100
100
100
100
100
100
100
100
100
100
100
100
100
100
100
100
100
100
100
100
100
100
100
100
100
100
100
100
385.765
357.499
329.836
303.148
277.766
253.967
231.965
211.907
193.876
177.89
163.911
151.855
141.597
132.988
125.861
120.039
115.347
111.616
108.688
106.422
104.691
103.386
102.415
101.702
101.185
100.815
100.554
100.372
100.247
100.162
100.105
100.067
100.043
100.027
100.016
100.01
100.006
100.004
100.002
100.001
100.001
100
100
100
100
100
100
100
100
100
100
100
100
100
100
100
100
100
100
100
100
100
100
100
100
100
100
100
100
100
100
100
100
100
100
385.811
357.633
330.051
303.431
278.1
254.335
232.35
212.293
194.25
178.24
164.231
152.14
141.845
133.2
126.037
120.183
115.463
111.708
108.76
106.477
104.732
103.417
102.437
101.718
101.196
100.823
100.56
100.376
100.25
100.164
100.106
100.068
100.043
100.027
100.017
100.01
100.006
100.004
100.002
100.001
100.001
100
100
100
100
100
100
100
100
100
100
100
100
100
100
100
100
100
100
100
100
100
100
100
100
100
100
100
100
100
100
100
100
100
100
385.843
357.728
330.202
303.63
278.337
254.597
232.624
212.57
194.518
178.493
164.463
152.347
142.026
133.354
126.167
120.29
115.549
111.776
108.813
106.518
104.763
103.44
102.454
101.73
101.205
100.83
100.564
100.379
100.252
100.165
100.107
100.069
100.043
100.027
100.017
100.01
100.006
100.004
100.002
100.001
100.001
100
100
100
100
100
100
100
100
100
100
100
100
100
100
100
100
100
100
100
100
100
100
100
100
100
100
100
100
100
100
100
100
100
100
385.865
357.794
330.308
303.769
278.503
254.781
232.818
212.765
194.709
178.674
164.629
152.496
142.157
133.466
126.261
120.368
115.612
111.826
108.853
106.548
104.786
103.457
102.467
101.739
101.212
100.834
100.567
100.381
100.253
100.166
100.108
100.069
100.044
100.027
100.017
100.01
100.006
100.004
100.002
100.001
100.001
100
100
100
100
100
100
100
100
100
100
100
100
100
100
100
100
100
100
100
100
100
100
100
100
100
100
100
100
100
100
100
100
100
100
385.881
357.84
330.381
303.866
278.618
254.909
232.954
212.903
194.843
178.801
164.746
152.601
142.25
133.547
126.329
120.424
115.658
111.863
108.881
106.57
104.803
103.469
102.476
101.746
101.217
100.837
100.57
100.383
100.254
100.167
100.108
100.069
100.044
100.027
100.017
100.01
100.006
100.004
100.002
100.001
100.001
100
100
100
100
100
100
100
100
100
100
100
100
100
100
100
100
100
100
100
100
100
100
100
100
100
100
100
100
100
100
100
100
100
100
385.892
357.871
330.431
303.933
278.697
254.998
233.047
212.998
194.937
178.89
164.829
152.676
142.315
133.603
126.377
120.463
115.69
111.889
108.902
106.586
104.815
103.478
102.483
101.751
101.22
100.84
100.571
100.384
100.255
100.167
100.108
100.069
100.044
100.027
100.017
100.01
100.006
100.004
100.002
100.001
100.001
100
100
100
100
100
100
100
100
100
100
100
100
100
100
100
100
100
100
100
100
100
100
100
100
100
100
100
100
100
100
100
100
100
100
385.899
357.892
330.466
303.978
278.752
255.058
233.112
213.063
195.001
178.951
164.886
152.727
142.361
133.643
126.41
120.491
115.713
111.907
108.916
106.598
104.824
103.485
102.488
101.754
101.223
100.842
100.573
100.385
100.256
100.168
100.109
100.07
100.044
100.028
100.017
100.01
100.006
100.004
100.002
100.001
100.001
100
100
100
100
100
100
100
100
100
100
100
100
100
100
100
100
100
100
100
100
100
100
100
100
100
100
100
100
100
100
100
100
100
100
385.904
357.907
330.489
304.009
278.788
255.099
233.155
213.108
195.045
178.993
164.925
152.763
142.393
133.67
126.434
120.511
115.729
111.92
108.926
106.605
104.83
103.489
102.491
101.757
101.224
100.843
100.573
100.385
100.256
100.168
100.109
100.07
100.044
100.028
100.017
100.01
100.006
100.004
100.002
100.001
100.001
100
100
100
100
100
100
100
100
100
100
100
100
100
100
100
100
100
100
100
100
100
100
100
100
100
100
100
100
100
100
100
100
100
100
385.907
357.916
330.504
304.029
278.813
255.127
233.185
213.138
195.074
179.022
164.951
152.787
142.414
133.689
126.449
120.524
115.74
111.929
108.933
106.611
104.834
103.493
102.493
101.759
101.226
100.844
100.574
100.386
100.256
100.168
100.109
100.07
100.044
100.028
100.017
100.01
100.006
100.004
100.002
100.001
100.001
100
100
100
100
100
100
100
100
100
100
100
100
100
100
100
100
100
100
100
100
100
100
100
100
100
100
100
100
100
100
100
100
100
100
385.909
357.923
330.514
304.043
278.829
255.145
233.204
213.158
195.094
179.041
164.969
152.803
142.428
133.701
126.46
120.533
115.747
111.934
108.938
106.615
104.837
103.495
102.495
101.76
101.226
100.844
100.575
100.386
100.256
100.168
100.109
100.07
100.044
100.028
100.017
100.01
100.006
100.004
100.002
100.001
100.001
100
100
100
100
100
100
100
100
100
100
100
100
100
100
100
100
100
100
100
100
100
100
100
100
100
100
100
100
100
100
100
100
100
100
385.91
357.927
330.521
304.052
278.84
255.157
233.217
213.171
195.107
179.053
164.981
152.814
142.438
133.71
126.467
120.539
115.752
111.938
108.941
106.617
104.839
103.496
102.496
101.761
101.227
100.845
100.575
100.386
100.257
100.168
100.109
100.07
100.044
100.028
100.017
100.01
100.006
100.004
100.002
100.001
100.001
100
100
100
100
100
100
100
100
100
100
100
100
100
100
100
100
100
100
100
100
100
100
100
100
100
100
100
100
100
100
100
100
100
100
385.911
357.93
330.525
304.058
278.847
255.165
233.225
213.18
195.116
179.062
164.989
152.821
142.444
133.715
126.472
120.543
115.755
111.941
108.943
106.619
104.84
103.497
102.497
101.761
101.227
100.845
100.575
100.387
100.257
100.168
100.109
100.07
100.044
100.028
100.017
100.01
100.006
100.004
100.002
100.001
100.001
100
100
100
100
100
100
100
100
100
100
100
100
100
100
100
100
100
100
100
100
100
100
100
100
100
100
100
100
100
100
100
100
100
100
385.912
357.931
330.528
304.061
278.852
255.17
233.231
213.185
195.121
179.067
164.993
152.825
142.448
133.719
126.475
120.546
115.757
111.943
108.945
106.62
104.841
103.498
102.497
101.761
101.228
100.845
100.575
100.387
100.257
100.169
100.109
100.07
100.044
100.028
100.017
100.01
100.006
100.004
100.002
100.001
100.001
100
100
100
100
100
100
100
100
100
100
100
100
100
100
100
100
100
100
100
100
100
100
100
100
100
100
100
100
100
100
100
100
100
100
385.912
357.932
330.53
304.064
278.854
255.173
233.234
213.189
195.125
179.07
164.997
152.828
142.451
133.721
126.477
120.547
115.759
111.944
108.946
106.62
104.841
103.498
102.497
101.762
101.228
100.845
100.575
100.387
100.257
100.169
100.109
100.07
100.044
100.028
100.017
100.01
100.006
100.004
100.002
100.001
100.001
100
100
100
100
100
100
100
100
100
100
100
100
100
100
100
100
100
100
100
100
100
100
100
100
100
100
100
100
100
100
100
100
100
100
385.913
357.933
330.531
304.065
278.856
255.175
233.236
213.191
195.127
179.072
164.999
152.83
142.453
133.723
126.478
120.548
115.76
111.945
108.946
106.621
104.842
103.498
102.498
101.762
101.228
100.846
100.575
100.387
100.257
100.169
100.109
100.07
100.044
100.028
100.017
100.01
100.006
100.004
100.002
100.001
100.001
100
100
100
100
100
100
100
100
100
100
100
100
100
100
100
100
100
100
100
100
100
100
100
100
100
100
100
100
100
100
100
100
100
100
385.913
357.934
330.532
304.066
278.857
255.177
233.238
213.192
195.128
179.074
165
152.831
142.454
133.724
126.479
120.549
115.76
111.945
108.947
106.621
104.842
103.499
102.498
101.762
101.228
100.846
100.575
100.387
100.257
100.169
100.109
100.07
100.044
100.028
100.017
100.01
100.006
100.004
100.002
100.001
100.001
100
100
100
100
100
100
100
100
100
100
100
100
100
100
100
100
100
100
100
100
100
100
100
100
100
100
100
100
100
100
100
100
100
100
385.913
357.934
330.532
304.067
278.858
255.177
233.239
213.193
195.129
179.075
165.001
152.832
142.454
133.724
126.48
120.549
115.761
111.945
108.947
106.621
104.842
103.499
102.498
101.762
101.228
100.846
100.575
100.387
100.257
100.169
100.109
100.07
100.044
100.028
100.017
100.01
100.006
100.004
100.002
100.001
100.001
100
100
100
100
100
100
100
100
100
100
100
100
100
100
100
100
100
100
100
100
100
100
100
100
100
100
100
100
100
100
100
100
100
100
385.913
357.934
330.532
304.067
278.858
255.178
233.239
213.194
195.13
179.075
165.001
152.833
142.455
133.724
126.48
120.55
115.761
111.946
108.947
106.621
104.842
103.499
102.498
101.762
101.228
100.846
100.575
100.387
100.257
100.169
100.109
100.07
100.044
100.028
100.017
100.01
100.006
100.004
100.002
100.001
100.001
100
100
100
100
100
100
100
100
100
100
100
100
100
100
100
100
100
100
100
100
100
100
100
100
100
100
100
100
100
100
100
100
100
100
385.913
357.934
330.533
304.067
278.859
255.178
233.239
213.194
195.13
179.075
165.002
152.833
142.455
133.725
126.48
120.55
115.761
111.946
108.947
106.622
104.842
103.499
102.498
101.762
101.228
100.846
100.575
100.387
100.257
100.169
100.109
100.07
100.044
100.028
100.017
100.01
100.006
100.004
100.002
100.001
100.001
100
100
100
100
100
100
100
100
100
100
100
100
100
100
100
100
100
100
100
100
100
100
100
100
100
100
100
100
100
100
100
100
100
100
385.913
357.934
330.533
304.067
278.859
255.178
233.24
213.194
195.13
179.076
165.002
152.833
142.455
133.725
126.48
120.55
115.761
111.946
108.947
106.622
104.842
103.499
102.498
101.762
101.228
100.846
100.575
100.387
100.257
100.169
100.109
100.07
100.044
100.028
100.017
100.01
100.006
100.004
100.002
100.001
100.001
100
100
100
100
100
100
100
100
100
100
100
100
100
100
100
100
100
100
100
100
100
100
100
100
100
100
100
100
100
100
100
100
100
100
385.913
357.934
330.533
304.067
278.859
255.178
233.24
213.194
195.13
179.076
165.002
152.833
142.455
133.725
126.48
120.55
115.761
111.946
108.947
106.622
104.842
103.499
102.498
101.762
101.228
100.846
100.575
100.387
100.257
100.169
100.109
100.07
100.044
100.028
100.017
100.01
100.006
100.004
100.002
100.001
100.001
100
100
100
100
100
100
100
100
100
100
100
100
100
100
100
100
100
100
100
100
100
100
100
100
100
100
100
100
100
100
100
100
100
100
385.913
357.934
330.533
304.068
278.859
255.178
233.24
213.194
195.131
179.076
165.002
152.833
142.455
133.725
126.48
120.55
115.761
111.946
108.947
106.622
104.842
103.499
102.498
101.762
101.228
100.846
100.575
100.387
100.257
100.169
100.109
100.07
100.044
100.028
100.017
100.01
100.006
100.004
100.002
100.001
100.001
100
100
100
100
100
100
100
100
100
100
100
100
100
100
100
100
100
100
100
100
100
100
100
100
100
100
100
100
100
100
100
100
100
100
385.913
357.934
330.533
304.068
278.859
255.178
233.24
213.194
195.131
179.076
165.002
152.833
142.455
133.725
126.48
120.55
115.761
111.946
108.947
106.622
104.842
103.499
102.498
101.762
101.228
100.846
100.575
100.387
100.257
100.169
100.109
100.07
100.044
100.028
100.017
100.01
100.006
100.004
100.002
100.001
100.001
100
100
100
100
100
100
100
100
100
100
100
100
100
100
100
100
100
100
100
100
100
100
100
100
100
100
100
100
100
100
100
100
100
100
385.913
357.934
330.533
304.068
278.859
255.178
233.24
213.194
195.131
179.076
165.002
152.833
142.455
133.725
126.48
120.55
115.761
111.946
108.947
106.622
104.842
103.499
102.498
101.762
101.228
100.846
100.575
100.387
100.257
100.169
100.109
100.07
100.044
100.028
100.017
100.01
100.006
100.004
100.002
100.001
100.001
100
100
100
100
100
100
100
100
100
100
100
100
100
100
100
100
100
100
100
100
100
100
100
100
100
100
100
100
100
100
100
100
100
100
385.913
357.934
330.533
304.068
278.859
255.178
233.24
213.194
195.131
179.076
165.002
152.833
142.455
133.725
126.48
120.55
115.761
111.946
108.947
106.622
104.842
103.499
102.498
101.762
101.228
100.846
100.575
100.387
100.257
100.169
100.109
100.07
100.044
100.028
100.017
100.01
100.006
100.004
100.002
100.001
100.001
100
100
100
100
100
100
100
100
100
100
100
100
100
100
100
100
100
100
100
100
100
100
100
100
100
100
100
100
100
100
100
100
100
100
385.913
357.934
330.533
304.068
278.859
255.178
233.24
213.194
195.131
179.076
165.002
152.833
142.455
133.725
126.48
120.55
115.761
111.946
108.947
106.622
104.842
103.499
102.498
101.762
101.228
100.846
100.575
100.387
100.257
100.169
100.109
100.07
100.044
100.028
100.017
100.01
100.006
100.004
100.002
100.001
100.001
100
100
100
100
100
100
100
100
100
100
100
100
100
100
100
100
100
100
100
100
100
100
100
100
100
100
100
100
100
100
100
100
100
100
385.913
357.934
330.533
304.068
278.859
255.178
233.24
213.194
195.131
179.076
165.002
152.833
142.455
133.725
126.48
120.55
115.761
111.946
108.947
106.622
104.842
103.499
102.498
101.762
101.228
100.846
100.575
100.387
100.257
100.169
100.109
100.07
100.044
100.028
100.017
100.01
100.006
100.004
100.002
100.001
100.001
100
100
100
100
100
100
100
100
100
100
100
100
100
100
100
100
100
100
100
100
100
100
100
100
100
100
100
100
100
100
100
100
100
100
385.913
357.934
330.533
304.068
278.859
255.178
233.24
213.194
195.131
179.076
165.002
152.833
142.455
133.725
126.48
120.55
115.761
111.946
108.947
106.622
104.842
103.499
102.498
101.762
101.228
100.846
100.575
100.387
100.257
100.169
100.109
100.07
100.044
100.028
100.017
100.01
100.006
100.004
100.002
100.001
100.001
100
100
100
100
100
100
100
100
100
100
100
100
100
100
100
100
100
100
100
100
100
100
100
100
100
100
100
100
100
100
100
100
100
100
385.913
357.934
330.533
304.068
278.859
255.178
233.24
213.194
195.131
179.076
165.002
152.833
142.455
133.725
126.48
120.55
115.761
111.946
108.947
106.622
104.842
103.499
102.498
101.762
101.228
100.846
100.575
100.387
100.257
100.169
100.109
100.07
100.044
100.028
100.017
100.01
100.006
100.004
100.002
100.001
100.001
100
100
100
100
100
100
100
100
100
100
100
100
100
100
100
100
100
100
100
100
100
100
100
100
100
100
100
100
100
100
100
100
100
100
385.913
357.934
330.533
304.068
278.859
255.178
233.24
213.194
195.131
179.076
165.002
152.833
142.455
133.725
126.48
120.55
115.761
111.946
108.947
106.622
104.842
103.499
102.498
101.762
101.228
100.846
100.575
100.387
100.257
100.169
100.109
100.07
100.044
100.028
100.017
100.01
100.006
100.004
100.002
100.001
100.001
100
100
100
100
100
100
100
100
100
100
100
100
100
100
100
100
100
100
100
100
100
100
100
100
100
100
100
100
100
100
100
100
100
100
385.913
357.934
330.533
304.068
278.859
255.178
233.24
213.194
195.131
179.076
165.002
152.833
142.455
133.725
126.48
120.55
115.761
111.946
108.947
106.622
104.842
103.499
102.498
101.762
101.228
100.846
100.575
100.387
100.257
100.169
100.109
100.07
100.044
100.028
100.017
100.01
100.006
100.004
100.002
100.001
100.001
100
100
100
100
100
100
100
100
100
100
100
100
100
100
100
100
100
100
100
100
100
100
100
100
100
100
100
100
100
100
100
100
100
100
385.913
357.934
330.533
304.068
278.859
255.178
233.24
213.194
195.131
179.076
165.002
152.833
142.455
133.725
126.48
120.55
115.761
111.946
108.947
106.622
104.842
103.499
102.498
101.762
101.228
100.846
100.575
100.387
100.257
100.169
100.109
100.07
100.044
100.028
100.017
100.01
100.006
100.004
100.002
100.001
100.001
100
100
100
100
100
100
100
100
100
100
100
100
100
100
100
100
100
100
100
100
100
100
100
100
100
100
100
100
100
100
100
100
100
100
385.913
357.934
330.533
304.068
278.859
255.178
233.24
213.194
195.131
179.076
165.002
152.833
142.455
133.725
126.48
120.55
115.761
111.946
108.947
106.622
104.842
103.499
102.498
101.762
101.228
100.846
100.575
100.387
100.257
100.169
100.109
100.07
100.044
100.028
100.017
100.01
100.006
100.004
100.002
100.001
100.001
100
100
100
100
100
100
100
100
100
100
100
100
100
100
100
100
100
100
100
100
100
100
100
100
100
100
100
100
100
100
100
100
100
100
385.913
357.934
330.533
304.068
278.859
255.178
233.24
213.194
195.131
179.076
165.002
152.833
142.455
133.725
126.48
120.55
115.761
111.946
108.947
106.622
104.842
103.499
102.498
101.762
101.228
100.846
100.575
100.387
100.257
100.169
100.109
100.07
100.044
100.028
100.017
100.01
100.006
100.004
100.002
100.001
100.001
100
100
100
100
100
100
100
100
100
100
100
100
100
100
100
100
100
100
100
100
100
100
100
100
100
100
100
100
100
100
100
100
100
100
385.913
357.934
330.533
304.068
278.859
255.178
233.24
213.194
195.131
179.076
165.002
152.833
142.455
133.725
126.48
120.55
115.761
111.946
108.947
106.622
104.842
103.499
102.498
101.762
101.228
100.846
100.575
100.387
100.257
100.169
100.109
100.07
100.044
100.028
100.017
100.01
100.006
100.004
100.002
100.001
100.001
100
100
100
100
100
100
100
100
100
100
100
100
100
100
100
100
100
100
100
100
100
100
100
100
100
100
100
100
100
100
100
100
100
100
385.913
357.934
330.533
304.068
278.859
255.178
233.24
213.194
195.131
179.076
165.002
152.833
142.455
133.725
126.48
120.55
115.761
111.946
108.947
106.622
104.842
103.499
102.498
101.762
101.228
100.846
100.575
100.387
100.257
100.169
100.109
100.07
100.044
100.028
100.017
100.01
100.006
100.004
100.002
100.001
100.001
100
100
100
100
100
100
100
100
100
100
100
100
100
100
100
100
100
100
100
100
100
100
100
100
100
100
100
100
100
100
100
100
100
100
385.913
357.934
330.533
304.068
278.859
255.178
233.24
213.194
195.131
179.076
165.002
152.833
142.455
133.725
126.48
120.55
115.761
111.946
108.947
106.622
104.842
103.499
102.498
101.762
101.228
100.846
100.575
100.387
100.257
100.169
100.109
100.07
100.044
100.028
100.017
100.01
100.006
100.004
100.002
100.001
100.001
100
100
100
100
100
100
100
100
100
100
100
100
100
100
100
100
100
100
100
100
100
100
100
100
100
100
100
100
100
100
100
100
100
100
385.913
357.934
330.533
304.068
278.859
255.178
233.24
213.194
195.131
179.076
165.002
152.833
142.455
133.725
126.48
120.55
115.761
111.946
108.947
106.622
104.842
103.499
102.498
101.762
101.228
100.846
100.575
100.387
100.257
100.169
100.109
100.07
100.044
100.028
100.017
100.01
100.006
100.004
100.002
100.001
100.001
100
100
100
100
100
100
100
100
100
100
100
100
100
100
100
100
100
100
100
100
100
100
100
100
100
100
100
100
100
100
100
100
100
100
385.913
357.934
330.533
304.068
278.859
255.178
233.24
213.194
195.131
179.076
165.002
152.833
142.455
133.725
126.48
120.55
115.761
111.946
108.947
106.622
104.842
103.499
102.498
101.762
101.228
100.846
100.575
100.387
100.257
100.169
100.109
100.07
100.044
100.028
100.017
100.01
100.006
100.004
100.002
100.001
100.001
100
100
100
100
100
100
100
100
100
100
100
100
100
100
100
100
100
100
100
100
100
100
100
100
100
100
100
100
100
100
100
100
100
100
385.913
357.934
330.533
304.068
278.859
255.178
233.24
213.194
195.131
179.076
165.002
152.833
142.455
133.725
126.48
120.55
115.761
111.946
108.947
106.622
104.842
103.499
102.498
101.762
101.228
100.846
100.575
100.387
100.257
100.169
100.109
100.07
100.044
100.028
100.017
100.01
100.006
100.004
100.002
100.001
100.001
100
100
100
100
100
100
100
100
100
100
100
100
100
100
100
100
100
100
100
100
100
100
100
100
100
100
100
100
100
100
100
100
100
100
385.913
357.934
330.533
304.068
278.859
255.178
233.24
213.194
195.131
179.076
165.002
152.833
142.455
133.725
126.48
120.55
115.761
111.946
108.947
106.622
104.842
103.499
102.498
101.762
101.228
100.846
100.575
100.387
100.257
100.169
100.109
100.07
100.044
100.028
100.017
100.01
100.006
100.004
100.002
100.001
100.001
100
100
100
100
100
100
100
100
100
100
100
100
100
100
100
100
100
100
100
100
100
100
100
100
100
100
100
100
100
100
100
100
100
100
385.913
357.934
330.533
304.068
278.859
255.178
233.24
213.194
195.131
179.076
165.002
152.833
142.455
133.725
126.48
120.55
115.761
111.946
108.947
106.622
104.842
103.499
102.498
101.762
101.228
100.846
100.575
100.387
100.257
100.169
100.109
100.07
100.044
100.028
100.017
100.01
100.006
100.004
100.002
100.001
100.001
100
100
100
100
100
100
100
100
100
100
100
100
100
100
100
100
100
100
100
100
100
100
100
100
100
100
100
100
100
100
100
100
100
100
385.913
357.934
330.533
304.068
278.859
255.178
233.24
213.194
195.131
179.076
165.002
152.833
142.455
133.725
126.48
120.55
115.761
111.946
108.947
106.622
104.842
103.499
102.498
101.762
101.228
100.846
100.575
100.387
100.257
100.169
100.109
100.07
100.044
100.028
100.017
100.01
100.006
100.004
100.002
100.001
100.001
100
100
100
100
100
100
100
100
100
100
100
100
100
100
100
100
100
100
100
100
100
100
100
100
100
100
100
100
100
100
100
100
100
100
385.913
357.934
330.533
304.068
278.859
255.178
233.24
213.194
195.131
179.076
165.002
152.833
142.455
133.725
126.48
120.55
115.761
111.946
108.947
106.622
104.842
103.499
102.498
101.762
101.228
100.846
100.575
100.387
100.257
100.169
100.109
100.07
100.044
100.028
100.017
100.01
100.006
100.004
100.002
100.001
100.001
100
100
100
100
100
100
100
100
100
100
100
100
100
100
100
100
100
100
100
100
100
100
100
100
100
100
100
100
100
100
100
100
100
100
385.913
357.934
330.533
304.068
278.859
255.178
233.24
213.194
195.131
179.076
165.002
152.833
142.455
133.725
126.48
120.55
115.761
111.946
108.947
106.622
104.842
103.499
102.498
101.762
101.228
100.846
100.575
100.387
100.257
100.169
100.109
100.07
100.044
100.028
100.017
100.01
100.006
100.004
100.002
100.001
100.001
100
100
100
100
100
100
100
100
100
100
100
100
100
100
100
100
100
100
100
100
100
100
100
100
100
100
100
100
100
100
100
100
100
100
385.913
357.934
330.533
304.068
278.859
255.178
233.24
213.194
195.131
179.076
165.002
152.833
142.455
133.725
126.48
120.55
115.761
111.946
108.947
106.622
104.842
103.499
102.498
101.762
101.228
100.846
100.575
100.387
100.257
100.169
100.109
100.07
100.044
100.028
100.017
100.01
100.006
100.004
100.002
100.001
100.001
100
100
100
100
100
100
100
100
100
100
100
100
100
100
100
100
100
100
100
100
100
100
100
100
100
100
100
100
100
100
100
100
100
100
385.913
357.934
330.533
304.068
278.859
255.178
233.24
213.194
195.131
179.076
165.002
152.833
142.455
133.725
126.48
120.55
115.761
111.946
108.947
106.622
104.842
103.499
102.498
101.762
101.228
100.846
100.575
100.387
100.257
100.169
100.109
100.07
100.044
100.028
100.017
100.01
100.006
100.004
100.002
100.001
100.001
100
100
100
100
100
100
100
100
100
100
100
100
100
100
100
100
100
100
100
100
100
100
100
100
100
100
100
100
100
100
100
100
100
100
385.913
357.934
330.533
304.068
278.859
255.178
233.24
213.194
195.131
179.076
165.002
152.833
142.455
133.725
126.48
120.55
115.761
111.946
108.947
106.622
104.842
103.499
102.498
101.762
101.228
100.846
100.575
100.387
100.257
100.169
100.109
100.07
100.044
100.028
100.017
100.01
100.006
100.004
100.002
100.001
100.001
100
100
100
100
100
100
100
100
100
100
100
100
100
100
100
100
100
100
100
100
100
100
100
100
100
100
100
100
100
100
100
100