/*--------------------------------*- C++ -*----------------------------------*\
  =========                 |
  \\      /  F ield         | OpenFOAM: The Open Source CFD Toolbox
   \\    /   O peration     | Website:  https://openfoam.org
    \\  /    A nd           | Version:  10
     \\/     M anipulation  |
\*---------------------------------------------------------------------------*/
FoamFile
{
    format      ascii;
    class       volScalarField;
    location    "405";
    object      gradTx;
}
// * * * * * * * * * * * * * * * * * * * * * * * * * * * * * * * * * * * * * //

dimensions      [0 -1 0 1 0 0 0];

internalField   nonuniform List<scalar> 
11250
(
14304.3
8117.22
5332.06
3857.53
2967.15
2373.69
1948.61
1627.71
1375.92
1172.57
1004.72
863.921
744.348
641.885
553.513
476.953
410.436
352.556
302.169
258.322
220.212
187.147
158.523
133.81
112.54
94.2934
78.6977
65.4185
54.157
44.6464
36.6491
29.9541
24.3745
19.746
15.9245
12.7842
10.2162
8.12626
6.4338
5.06998
3.97644
3.10399
2.41144
1.86446
1.43463
1.09858
0.837193
0.634907
0.479162
0.359863
0.26895
0.200023
0.148034
0.109021
0.0798964
0.0582649
0.0422814
0.0305318
0.0219389
0.0156868
0.0111612
0.00790204
0.00556699
0.00390254
0.00272211
0.00188915
0.00130425
0.000895438
0.000610844
0.000413257
0.00027604
0.000180115
0.000111711
6.06811e-05
1.9211e-05
4100.11
4715.98
4022.47
3274.85
2672.07
2207.5
1846.91
1561.39
1330.5
1140.25
981.039
846.144
730.751
631.327
545.215
470.367
405.169
348.319
298.744
255.546
217.955
185.309
157.026
132.591
111.547
93.4856
78.0414
64.8862
53.7262
44.2987
36.3691
29.7292
24.1945
19.6024
15.8103
12.6938
10.1447
8.07009
6.38981
5.03565
3.94976
3.08335
2.39554
1.85225
1.42531
1.0915
0.831825
0.630861
0.476126
0.357596
0.267264
0.198776
0.147115
0.108347
0.0794045
0.0579077
0.0420231
0.030346
0.0218058
0.0155919
0.0110939
0.00785457
0.00553364
0.00387923
0.00270589
0.00187792
0.00129652
0.000890143
0.00060724
0.000410824
0.000274418
0.000179059
0.000111057
6.03262e-05
1.90989e-05
1480.53
2624.74
2768.07
2548.79
2240.6
1939.52
1672.63
1443.21
1247.43
1080.08
936.368
812.299
704.679
610.97
529.145
457.57
394.906
340.044
292.044
250.103
213.526
181.699
154.082
130.19
109.591
91.8933
76.7471
63.836
52.8759
43.6119
35.8159
29.2849
23.8387
19.3185
15.5845
12.5148
10.0034
7.95895
6.30272
4.9677
3.89695
3.04248
2.36404
1.82809
1.40685
1.07745
0.821191
0.622844
0.47011
0.353102
0.263922
0.196302
0.145293
0.107011
0.0784293
0.0571993
0.041511
0.0299774
0.0215419
0.0154038
0.0109605
0.00776039
0.00546748
0.00383297
0.00267371
0.00185565
0.00128118
0.000879631
0.000600085
0.000405993
0.000271197
0.000176961
0.000109758
5.96212e-05
1.88758e-05
677.986
1535.02
1877.32
1913.07
1803.83
1639.5
1463.34
1294.12
1138.88
999.433
875.348
765.402
668.153
582.204
506.282
439.262
380.158
328.107
282.349
242.209
207.087
176.442
149.788
126.684
106.73
89.5623
74.8505
62.2959
51.6281
42.6034
35.0031
28.6317
23.3155
18.9007
15.2521
12.2513
9.79533
7.79521
6.17441
4.86755
3.8191
2.98222
2.31759
1.79244
1.37961
1.05673
0.805497
0.611012
0.46123
0.346467
0.258989
0.19265
0.142602
0.105038
0.076989
0.0561529
0.0407544
0.029433
0.021152
0.0151259
0.0107633
0.00762122
0.00536971
0.00376461
0.00262615
0.00182272
0.0012585
0.000864094
0.000589508
0.000398851
0.000266436
0.000173859
0.000107836
5.85787e-05
1.85459e-05
374.597
960.645
1294.16
1423.74
1423.95
1353.42
1249.52
1133.72
1017.47
906.515
803.432
709.147
623.728
546.83
477.916
416.383
361.618
313.029
270.051
232.161
198.866
169.714
144.281
122.179
103.049
86.5579
72.4031
60.3063
50.0145
41.2982
33.9503
27.7851
22.6369
18.3586
14.8206
11.909
9.5249
7.58236
6.00754
4.73726
3.7178
2.90379
2.25712
1.74602
1.34413
1.02974
0.785049
0.595593
0.449655
0.337818
0.252556
0.187888
0.139092
0.102464
0.0751101
0.0547878
0.0397673
0.0287226
0.0206431
0.0147632
0.010506
0.00743955
0.00524206
0.00367536
0.00256405
0.00177972
0.00122888
0.000843804
0.000575694
0.000389524
0.000260217
0.000169807
0.000105327
5.72167e-05
1.81149e-05
234.56
639.414
915.939
1065.18
1116.55
1102.77
1049.99
976.393
893.624
808.753
725.89
647.294
574.11
506.814
445.493
390.008
340.094
295.418
255.618
220.317
189.142
161.73
137.729
116.807
98.6495
82.9616
69.4689
57.9178
48.075
39.7276
32.6822
26.7645
21.8182
17.7041
14.2992
11.4953
9.19783
7.32481
5.80554
4.57948
3.59507
2.80873
2.18381
1.68973
1.3011
0.996983
0.760233
0.576875
0.435602
0.327315
0.244742
0.182102
0.134829
0.0993362
0.0728266
0.0531285
0.0385673
0.0278589
0.0200244
0.0143222
0.0101931
0.00721859
0.0050868
0.00356679
0.0024885
0.00172741
0.00119284
0.000819112
0.000558884
0.000378172
0.000252647
0.000164875
0.000102272
5.55587e-05
1.75903e-05
158.986
447.107
665.98
805.822
876.017
893.117
873.575
830.798
774.648
711.935
647.164
583.21
521.838
464.076
410.469
361.246
316.434
275.931
239.555
207.072
178.223
152.732
130.322
110.717
93.6511
78.8668
66.1219
55.1887
45.8558
37.9283
31.2278
25.5927
20.8773
16.9513
13.6991
11.0187
8.82083
7.02776
5.57245
4.39732
3.45332
2.69889
2.09907
1.62463
1.25132
0.959084
0.73151
0.555205
0.419328
0.31515
0.235691
0.175398
0.129887
0.0957105
0.070179
0.0512044
0.0371756
0.026857
0.0193067
0.0138104
0.00982996
0.00696216
0.00490659
0.00344076
0.00240079
0.00166667
0.00115099
0.000790439
0.000539361
0.000364987
0.000243854
0.000159147
9.87228e-05
5.36326e-05
1.69808e-05
113.457
324.62
496
617.417
690.213
722.06
722.623
701.052
664.919
620.028
570.607
519.621
469.087
420.332
374.191
331.153
291.467
255.218
222.375
192.831
166.427
142.974
122.261
104.07
88.1802
74.3745
62.4423
52.1829
43.4075
35.9402
29.6187
24.2948
19.834
16.1158
13.0325
10.4889
8.40138
6.69704
5.31277
4.19427
3.29523
2.57633
2.00447
1.55194
1.1957
0.916729
0.699399
0.530972
0.401123
0.301538
0.225559
0.167893
0.124353
0.0916499
0.0672133
0.0490486
0.035616
0.0257342
0.0185021
0.0132366
0.00942277
0.00667458
0.00470447
0.00329938
0.00230239
0.00159852
0.00110404
0.000758261
0.000517449
0.000350188
0.000233984
0.000152715
9.47385e-05
5.14701e-05
1.62964e-05
83.8618
242.471
376.893
478.886
546.937
584.161
595.952
588.247
566.528
535.398
498.486
458.54
417.57
377.004
337.821
300.671
265.954
233.89
204.569
177.986
154.071
132.708
113.748
97.0267
82.3668
69.5886
58.5131
48.9667
40.7831
33.8057
27.8885
22.8972
18.7093
15.2141
12.3123
9.91598
7.94746
6.33888
5.03134
3.97408
3.12369
2.44327
1.90171
1.47294
1.13524
0.870662
0.66446
0.504595
0.381302
0.286712
0.214522
0.159715
0.118322
0.0872226
0.0639791
0.0466971
0.0339145
0.0245089
0.017624
0.0126103
0.00897823
0.00636057
0.00448373
0.00314497
0.0021949
0.00152406
0.00105273
0.000723098
0.000493502
0.000334013
0.000223195
0.000145685
9.03825e-05
4.91058e-05
1.55482e-05
63.5589
185.036
291.089
375.497
435.997
473.49
490.829
491.733
480.021
459.176
432.148
401.318
368.534
335.189
302.302
270.594
240.553
212.49
186.582
162.902
141.451
122.175
104.979
89.7457
76.3383
64.6118
54.4172
45.6065
38.0357
31.5671
26.071
21.4271
17.5246
14.2631
11.552
9.31054
7.46733
5.95972
4.73319
3.74063
2.9417
2.30202
1.79257
1.38899
1.07095
0.821662
0.627281
0.476516
0.360194
0.270919
0.20276
0.150997
0.11189
0.0825007
0.0605287
0.0441879
0.0320985
0.0232008
0.0166863
0.0119414
0.00850337
0.00602508
0.00424786
0.00297994
0.00208
0.00144447
0.000997871
0.000685498
0.000467892
0.000316712
0.000211655
0.000138163
8.57222e-05
4.65761e-05
1.47477e-05
49.0659
143.528
227.758
297.158
349.503
384.681
404.094
410.003
405
391.638
372.229
348.745
322.802
295.676
268.348
241.549
215.806
191.479
168.8
147.9
128.833
111.594
96.134
82.3745
70.2151
59.5419
50.2338
42.1665
35.2172
29.2662
24.1997
19.911
16.3012
13.2798
10.7649
8.68307
6.96924
5.56602
4.42333
3.49784
2.75229
2.15492
1.67884
1.30145
1.00389
0.770517
0.588458
0.447182
0.338134
0.254406
0.190459
0.141876
0.10516
0.0775575
0.0569156
0.0415597
0.0301958
0.0218301
0.0157035
0.0112402
0.00800544
0.00567323
0.00400044
0.0028068
0.00195944
0.00136093
0.000940289
0.000646024
0.000441002
0.000298544
0.000199534
0.000130263
8.08268e-05
4.39187e-05
1.39066e-05
38.4028
112.727
180.043
236.956
281.534
313.254
332.711
341.24
340.562
332.515
318.86
301.185
280.849
258.975
236.461
214.005
192.133
171.225
151.543
133.253
116.448
101.159
87.3734
75.0462
64.1069
54.4693
46.0366
38.7067
32.3761
26.9422
22.3062
18.3745
15.0594
12.2803
9.96378
8.04375
6.46121
5.16406
4.10671
3.24953
2.55843
2.00425
1.56227
1.21168
0.935074
0.718008
0.548578
0.417036
0.315453
0.237423
0.177802
0.132488
0.0982294
0.072466
0.053193
0.038851
0.0282344
0.0204166
0.0146899
0.0105168
0.00749164
0.00531009
0.00374503
0.00262804
0.00183494
0.00127466
0.000880806
0.00060524
0.000413216
0.000279768
0.000187006
0.000122097
7.5766e-05
4.11712e-05
1.30371e-05
30.3711
89.385
143.469
190.106
227.704
255.613
273.997
283.614
285.591
281.227
271.844
258.69
242.88
225.372
206.96
188.284
169.842
152.01
135.061
119.181
104.485
91.0317
78.8354
67.8766
58.1104
49.4739
41.8918
35.2815
29.5569
24.6313
20.4199
16.841
13.8181
11.2798
9.16087
7.40218
5.95081
4.75983
3.78798
2.99935
2.36295
1.85221
1.44456
1.12097
0.865493
0.664886
0.508212
0.386507
0.292473
0.220207
0.164966
0.122964
0.0911962
0.0672972
0.0494127
0.0360995
0.0262413
0.0189799
0.0136593
0.00978108
0.00696901
0.00494062
0.00348511
0.00244609
0.00170819
0.0011868
0.000820229
0.000563699
0.000384909
0.000260638
0.00017424
0.000113774
7.06076e-05
3.83707e-05
1.21507e-05
24.2086
71.3924
115.033
153.25
184.76
208.922
225.679
235.437
238.922
237.044
230.781
221.1
208.898
194.975
180.013
164.581
149.136
134.033
119.542
105.854
93.0957
81.3443
70.6331
60.9625
52.3075
44.6246
37.8567
31.9383
26.7988
22.3657
18.5668
15.332
12.5946
10.2922
8.36715
6.76715
5.44504
4.35881
3.47147
2.75069
2.16849
1.70084
1.32728
1.03053
0.796075
0.611856
0.467892
0.355998
0.269497
0.202987
0.152121
0.113428
0.084152
0.0621184
0.0456236
0.0333407
0.0242424
0.0175386
0.0126251
0.00904261
0.00644428
0.00456958
0.00322403
0.00226328
0.00158082
0.0010985
0.000759328
0.000521929
0.000356441
0.000241395
0.000161397
0.0001054
6.54171e-05
3.55524e-05
1.12586e-05
19.4104
57.3339
92.6657
123.988
150.281
170.963
185.876
195.217
199.444
199.188
195.169
188.125
178.77
167.758
155.667
142.988
130.131
117.42
105.111
93.39
82.3903
72.1965
62.8551
54.381
46.7646
39.9779
33.9792
28.7172
24.1351
20.1729
16.7697
13.8659
11.4039
9.32951
7.59241
6.1465
4.95011
3.96596
3.16109
2.50661
1.97744
1.552
1.21187
0.941462
0.727667
0.559563
0.42811
0.325878
0.246802
0.185968
0.139421
0.103997
0.0771815
0.0569917
0.0418714
0.0306078
0.0222616
0.0161099
0.0115996
0.00831016
0.00592368
0.00420137
0.00296487
0.00208177
0.00145433
0.00101079
0.000698824
0.000480423
0.000328148
0.000222268
0.000148629
9.7074e-05
6.02555e-05
3.27496e-05
1.03714e-05
15.6307
46.2291
74.904
100.579
122.445
140.001
153.052
161.67
166.14
166.896
164.462
159.401
152.272
143.605
133.881
123.517
112.871
102.235
91.8414
81.8678
72.4443
63.6593
55.5664
48.1903
41.533
35.5785
30.2974
25.6508
21.5933
18.0757
15.0476
12.4583
10.2587
8.40222
6.84505
5.54698
4.47143
3.58557
2.86022
2.26977
1.79189
1.40732
1.0996
0.854751
0.66102
0.508584
0.389303
0.296478
0.224637
0.169339
0.127006
0.094772
0.070361
0.0519734
0.038197
0.0279306
0.0203205
0.0147094
0.010594
0.00759171
0.00541289
0.00383999
0.00271046
0.00190355
0.00133009
0.00092463
0.000639375
0.000439631
0.000300337
0.000203463
0.000136074
8.88854e-05
5.51786e-05
2.99925e-05
9.49871e-06
12.6259
37.3813
60.692
81.7344
99.8696
114.676
125.955
133.708
138.108
139.45
138.116
134.53
129.13
122.338
114.55
106.117
97.346
88.492
79.7642
71.3264
63.3016
55.7773
48.81
42.4307
36.6493
31.4589
26.8401
22.7638
19.1944
16.0922
13.4154
11.1217
9.16948
7.51879
6.13199
4.97418
4.01351
3.22124
2.57175
2.04245
1.61362
1.26819
0.991545
0.771235
0.596782
0.459413
0.351848
0.268086
0.20322
0.153262
0.114996
0.0858449
0.0637575
0.0471126
0.0346366
0.0253354
0.0184381
0.0133507
0.00961826
0.00689432
0.00491692
0.003489
0.0024633
0.00173036
0.00120934
0.000840859
0.000581562
0.000399955
0.00027328
0.000185164
0.000123855
8.09149e-05
5.02362e-05
2.73083e-05
8.64895e-06
10.2196
30.2835
49.2517
66.4903
81.4948
93.9162
103.568
110.416
114.559
116.198
115.609
113.111
109.043
103.742
97.5284
90.6948
83.4998
76.165
68.874
61.7741
54.9791
48.5722
42.61
37.1265
32.1368
27.641
23.627
20.0738
16.9538
14.2355
11.8845
9.86569
8.14412
6.68584
5.45866
4.43255
3.57994
2.87587
2.29798
1.82649
1.4441
1.13577
0.88861
0.691611
0.535491
0.412465
0.316062
0.240943
0.182733
0.137875
0.103496
0.0772918
0.0574277
0.0424512
0.0312207
0.0228445
0.0166308
0.0120458
0.0086807
0.00622404
0.00444008
0.00315145
0.00222553
0.0015637
0.00109311
0.000760209
0.000525891
0.000361739
0.000247215
0.000167532
0.000112079
7.3232e-05
4.54716e-05
2.47203e-05
7.82964e-06
8.28194
24.5596
39.9996
54.1116
66.4971
76.8699
85.0636
91.0274
94.813
96.5565
96.4563
94.7523
91.7057
87.5831
82.6429
77.1258
71.2483
65.1992
59.1378
53.1944
47.4715
42.0464
36.9736
32.2878
28.0073
24.1367
20.6697
17.5916
14.8816
12.5145
10.4626
8.69697
7.18835
5.90817
4.82906
3.92538
3.17344
2.55166
2.04069
1.62332
1.28446
1.01095
0.791496
0.616429
0.477574
0.368069
0.282199
0.215241
0.163322
0.123287
0.092587
0.0691746
0.0514176
0.0380232
0.0279744
0.0204764
0.0149118
0.0108042
0.00778833
0.00558584
0.00398592
0.00282986
0.00199893
0.00140483
0.000982282
0.000683286
0.000472779
0.000325272
0.000222336
0.0001507
0.000100835
6.58949e-05
4.09208e-05
2.22483e-05
7.047e-06
6.71498
19.9251
32.491
44.0313
54.2314
62.8581
69.7674
74.9026
78.287
80.0111
80.2178
79.0865
76.8185
73.6232
69.708
65.2692
60.4863
55.5186
50.5024
45.5512
40.7561
36.1868
31.8944
27.913
24.2621
20.9494
17.9728
15.3224
12.9827
10.9341
9.15428
7.61957
6.30574
5.18885
4.24584
3.45491
2.79584
2.25014
1.80113
1.43395
1.1355
0.894378
0.700719
0.546093
0.423348
0.326472
0.250448
0.191126
0.145098
0.109584
0.0823339
0.0615413
0.0457628
0.033855
0.0249173
0.0182453
0.0132916
0.00963349
0.00694661
0.00498366
0.00355724
0.00252621
0.00178492
0.00125474
0.000877548
0.000610574
0.000422562
0.000290784
0.000198802
0.000134774
9.01945e-05
5.89503e-05
3.66128e-05
1.99079e-05
6.306e-06
5.44393
16.1621
26.3821
35.8067
44.1871
51.3345
57.1265
61.507
64.4822
66.1114
66.4974
65.7743
64.0964
61.628
58.5343
54.9747
51.0968
47.0334
42.9003
38.7948
34.7966
30.968
27.3553
23.9908
20.8944
18.0754
15.5346
13.2659
11.2579
9.49557
7.96107
6.63516
5.49791
4.52943
3.71038
3.02236
2.44823
1.97222
1.58006
1.259
0.997757
0.786473
0.616617
0.480874
0.373027
0.28784
0.22094
0.1687
0.128139
0.0968238
0.0727814
0.0544256
0.0404889
0.0299657
0.0220634
0.0161616
0.0117778
0.00853921
0.00615954
0.00442037
0.00315611
0.00224198
0.00158453
0.00111417
0.000779425
0.000542432
0.000375489
0.000258448
0.000176731
0.000119834
8.02108e-05
5.24333e-05
3.25695e-05
1.7711e-05
5.61042e-06
4.41074
13.1007
21.404
29.0882
35.9566
41.8569
46.6865
50.3935
52.9739
54.4662
54.9438
54.5071
53.2741
51.3733
48.9358
46.09
42.9567
39.6458
36.2545
32.8655
29.5476
26.3554
23.3304
20.5024
17.8906
15.505
13.3485
11.4177
9.70447
8.19725
6.88206
5.74335
4.76484
3.93008
3.22296
2.62808
2.13095
1.71824
1.37781
1.09877
0.871466
0.687445
0.539364
0.420914
0.326726
0.252268
0.193749
0.148021
0.112492
0.0850431
0.0639568
0.0478486
0.0356116
0.026367
0.0194215
0.0142318
0.0103753
0.00752495
0.00542973
0.00389787
0.0027839
0.00197816
0.00139846
0.000983595
0.000688259
0.000479104
0.000331729
0.000228379
0.000156203
0.000105936
7.09212e-05
4.63683e-05
2.88059e-05
1.56659e-05
4.96281e-06
3.56986
10.6073
17.3437
23.5971
29.2119
34.0655
38.0729
41.1879
43.401
44.7366
45.2473
45.0078
44.1084
42.6492
40.734
38.4658
35.9425
33.2548
30.4833
27.6979
24.9572
22.3084
19.7882
17.4234
15.232
13.2242
11.404
9.76999
8.31653
7.03494
5.91425
4.94204
4.10505
3.3898
2.78294
2.27164
1.84375
1.48805
1.19429
0.953218
0.756632
0.597314
0.468987
0.366244
0.284475
0.219783
0.168899
0.129109
0.0981719
0.0742556
0.0558714
0.0418191
0.031138
0.0230646
0.0169959
0.0124592
0.00908636
0.00659249
0.00475852
0.00341714
0.00244132
0.00173525
0.00122708
0.000863298
0.000604242
0.000420725
0.000291378
0.000200645
0.000137264
9.31109e-05
6.23468e-05
4.07691e-05
2.5331e-05
1.37774e-05
4.36479e-06
2.88514
8.57571
14.0314
19.1096
23.6871
27.6658
30.9757
33.5765
35.4566
36.6308
37.1366
37.0296
36.3789
35.2622
33.7615
31.9588
29.9335
27.7595
25.5035
23.2238
20.9699
18.7824
16.693
14.7255
12.8964
11.2155
9.68751
8.31226
7.08608
6.0025
5.053
4.2277
3.51592
2.90663
2.38887
1.95197
1.58585
1.2811
1.0291
0.822068
0.653053
0.515938
0.405387
0.316796
0.246229
0.190354
0.146371
0.111952
0.0851723
0.0644563
0.0485222
0.0363355
0.0270673
0.020058
0.0147864
0.0108438
0.00791129
0.00574201
0.00414608
0.00297833
0.0021285
0.00151336
0.00107049
0.000753338
0.000527421
0.00036733
0.000254461
0.000175266
0.000119928
8.13683e-05
5.44945e-05
3.56404e-05
2.21475e-05
1.20472e-05
3.81686e-06
2.32762
6.92065
11.3302
15.4443
19.1657
22.4157
25.1374
27.2963
28.8802
29.8977
30.3752
30.3545
29.888
29.0361
27.8632
26.4347
24.8143
23.0621
21.2327
19.3746
17.5292
15.7309
14.0069
12.3781
10.8591
9.45926
8.18333
7.03214
6.00338
5.0923
4.29236
3.59575
2.9939
2.47786
2.03865
1.66751
1.35606
1.09648
0.881574
0.704809
0.56035
0.443036
0.348359
0.272419
0.211877
0.1639
0.126106
0.0965072
0.0734624
0.0556237
0.0418941
0.0313871
0.0233918
0.0173419
0.0127895
0.00938313
0.00684825
0.00497229
0.00359156
0.00258086
0.00184504
0.00131223
0.000928494
0.000653599
0.000457717
0.000318868
0.000220945
0.000152217
0.00010418
7.06991e-05
4.73583e-05
3.09786e-05
1.92533e-05
1.0474e-05
3.31859e-06
1.87397
5.57329
9.12917
12.4537
15.4701
18.1157
20.3441
22.1264
23.4508
24.3217
24.7581
24.7907
24.4598
23.812
22.8978
21.769
20.4767
19.0693
17.5916
16.0833
14.5788
13.1071
11.6913
10.3493
9.09422
7.9344
6.87455
5.91604
5.05757
4.29573
3.62551
3.04081
2.53477
2.10019
1.72975
1.41627
1.15285
0.933024
0.750809
0.600765
0.478011
0.378222
0.297612
0.232895
0.181257
0.140302
0.108014
0.0827097
0.0629943
0.0477228
0.0359615
0.0269554
0.0200983
0.0149067
0.0109983
0.00807226
0.00589381
0.0042809
0.00309326
0.00222355
0.00159013
0.00113129
0.000800706
0.000563808
0.000394946
0.000275212
0.000190745
0.000131443
8.99828e-05
6.10776e-05
4.09214e-05
2.67727e-05
1.66417e-05
9.05419e-06
2.86891e-06
1.50523
4.47771
7.33802
10.0172
12.4547
14.6006
16.4174
17.8811
18.9809
19.7187
20.1078
20.1711
19.9392
19.4482
18.7375
17.8481
16.8207
15.6943
14.505
13.2856
12.0643
10.8652
9.70785
8.60756
7.57555
6.61943
5.74359
4.94969
4.23714
3.60352
3.04506
2.55699
2.13389
1.76995
1.45927
1.19599
0.974463
0.789366
0.635756
0.509125
0.405416
0.321024
0.252787
0.197954
0.154165
0.119407
0.0919831
0.070475
0.0537057
0.0407075
0.0306907
0.0230158
0.0171688
0.0127397
0.00940346
0.00690454
0.0050432
0.00366445
0.00264879
0.00190471
0.00136257
0.0009697
0.000686548
0.000483567
0.000338833
0.000236174
0.000163731
0.000112855
7.72764e-05
5.24643e-05
3.51577e-05
2.30059e-05
1.43024e-05
7.78229e-06
2.46605e-06
1.20598
3.58825
5.88284
8.0357
9.99908
11.7334
13.2085
14.4046
15.3121
15.9313
16.2717
16.3502
16.19
15.819
15.2681
14.5693
13.7551
12.8567
11.9032
10.9212
9.93394
8.96127
8.01953
7.12162
6.27719
5.4929
4.7728
4.11864
3.53031
3.00615
2.54332
2.13813
1.78631
1.48322
1.22411
1.00423
0.818989
0.664015
0.535256
0.428993
0.341874
0.270912
0.21348
0.167288
0.130368
0.101039
0.0778807
0.0597046
0.0455233
0.0345237
0.0260418
0.019539
0.0145821
0.0108251
0.00799372
0.00587185
0.00429061
0.00311879
0.00225519
0.00162225
0.00116089
0.000826441
0.000585302
0.000412378
0.000289034
0.000201518
0.000139741
9.63442e-05
6.59862e-05
4.48092e-05
3.00339e-05
1.96566e-05
1.2222e-05
6.65102e-06
2.10767e-06
0.963562
2.86752
4.70298
6.42762
8.00388
9.40043
10.5932
11.5658
12.3102
12.8256
13.1188
13.2022
13.0935
12.8142
12.3882
11.8408
11.1977
10.4836
9.72198
8.93432
8.13956
7.35399
6.59115
5.86182
5.17418
4.53401
3.94492
3.40866
2.92541
2.49408
2.11254
1.77798
1.48701
1.23599
1.02108
0.838473
0.684431
0.555406
0.448084
0.359417
0.286649
0.227319
0.179255
0.140565
0.109614
0.0850074
0.0655631
0.0502907
0.0383666
0.0291118
0.0219707
0.0164925
0.0123142
0.00914569
0.00675648
0.00496509
0.00362947
0.00263923
0.00190912
0.00137379
0.000983428
0.000700332
0.000496144
0.000349666
0.00024515
0.000170969
0.000118589
8.17811e-05
5.60253e-05
3.80536e-05
2.55112e-05
1.66996e-05
1.0385e-05
5.65192e-06
1.79115e-06
0.767623
2.2848
3.74853
5.12572
6.38689
7.50728
8.46769
9.25493
9.86199
10.2878
10.537
10.6189
10.5467
10.3372
10.0087
9.58121
9.07478
8.50918
7.90314
7.27387
6.63673
6.00503
5.38986
4.8002
4.2429
3.7229
3.24338
2.806
2.41111
2.05801
1.74515
1.47037
1.23103
1.02425
0.846984
0.696159
0.568772
0.461949
0.372995
0.299425
0.238985
0.18966
0.149664
0.11744
0.0916405
0.0711128
0.0548795
0.0421199
0.0321509
0.0244083
0.0184304
0.0138417
0.0103399
0.00768279
0.0056782
0.00417444
0.00305273
0.0022207
0.00160697
0.00115677
0.000828356
0.000590093
0.000418178
0.000294807
0.000206748
0.000144228
0.000100067
6.90257e-05
4.72984e-05
3.21334e-05
2.15467e-05
1.41071e-05
8.7741e-06
4.77573e-06
1.51357e-06
0.60964
1.81485
2.97842
4.07451
5.08003
5.97548
6.74563
7.37983
7.87222
8.22157
8.43099
8.5074
8.46094
8.30425
8.05173
7.71883
7.32137
6.87497
6.39451
5.89377
5.38511
4.87931
4.38545
3.9109
3.46136
3.04102
2.65261
2.29765
1.9766
1.68904
1.43384
1.20935
1.01353
0.844116
0.698685
0.574792
0.470027
0.382073
0.30875
0.248046
0.198127
0.157348
0.124252
0.0975651
0.0761808
0.0591526
0.0456767
0.0350768
0.0267895
0.0203488
0.0153728
0.0115511
0.00863278
0.00641728
0.00474494
0.00348979
0.00255308
0.00185794
0.00134496
0.000968513
0.000693783
0.000494391
0.000350468
0.000247148
0.000173375
0.00012098
8.39602e-05
5.79302e-05
3.97051e-05
2.69808e-05
1.80955e-05
1.18497e-05
7.37115e-06
4.01256e-06
1.27179e-06
0.482606
1.43688
2.35877
3.22814
4.02695
4.73989
5.35491
5.86348
6.26074
6.54544
6.7197
6.78863
6.7599
6.64318
6.44959
6.19115
5.88025
5.52917
5.14971
4.75282
4.34842
3.94518
3.55046
3.17029
2.80938
2.47121
2.15814
1.87151
1.61182
1.37882
1.17173
0.989288
0.829924
0.691858
0.573188
0.471969
0.386277
0.314254
0.25415
0.204337
0.163335
0.12981
0.102577
0.0805985
0.062973
0.048927
0.0378029
0.0290467
0.0221962
0.0168686
0.0127501
0.00958504
0.00716681
0.00532993
0.00394266
0.00290094
0.00212313
0.00154566
0.00111931
0.000806311
0.00057779
0.00041187
0.000292062
0.000206023
0.000144569
0.000100908
7.00485e-05
4.83439e-05
3.31428e-05
2.25266e-05
1.51113e-05
9.89733e-06
6.15764e-06
3.35233e-06
1.06257e-06
0.380759
1.13379
1.86168
2.54879
3.18105
3.74647
4.23556
4.64153
4.96039
5.19096
5.33466
5.39526
5.37856
5.29194
5.14397
4.94397
4.70159
4.42647
4.12791
3.81459
3.49441
3.17431
2.86023
2.55705
2.26865
1.99789
1.74676
1.51645
1.30743
1.11962
0.952424
0.804924
0.675907
0.563987
0.467669
0.385418
0.315705
0.257049
0.208048
0.167398
0.133905
0.106495
0.0842106
0.0662104
0.0517639
0.0402424
0.031111
0.0239183
0.0182871
0.0139051
0.0105154
0.0079089
0.00591631
0.00440191
0.00325759
0.00239788
0.00175565
0.00127862
0.000926279
0.000667494
0.00047848
0.000341191
0.00024202
0.000170775
0.00011987
8.36915e-05
5.81129e-05
4.01169e-05
2.75094e-05
1.8702e-05
1.25483e-05
8.22018e-06
5.11499e-06
2.785e-06
8.82772e-07
0.29936
0.891508
1.46419
2.00527
2.50382
2.95048
3.33781
3.6604
3.91504
4.10065
4.21818
4.2704
4.26168
4.19765
4.08488
3.93059
3.74228
3.52747
3.29346
3.0471
2.79465
2.54164
2.29283
2.05215
1.82275
1.60699
1.40653
1.22237
1.05499
0.904346
0.770059
0.651423
0.547518
0.457269
0.379508
0.313027
0.256617
0.209105
0.169373
0.13638
0.109172
0.0868844
0.0687491
0.0540886
0.0423131
0.0329149
0.0254608
0.0195853
0.0149823
0.0113981
0.00862386
0.00648931
0.00485662
0.00361509
0.00267646
0.00197093
0.00144363
0.00105178
0.000762232
0.000549474
0.000394015
0.000281054
0.000199425
0.000140762
9.88324e-05
6.90229e-05
4.79405e-05
3.31031e-05
2.27053e-05
1.54395e-05
1.03615e-05
6.78891e-06
4.22501e-06
2.30069e-06
7.29317e-07
0.234518
0.698479
1.1474
1.57191
1.96351
2.31495
2.62039
2.87558
3.07792
3.22648
3.32187
3.36613
3.36255
3.3154
3.22973
3.11109
2.96528
2.79818
2.61547
2.42255
2.22433
2.0252
1.82897
1.63877
1.45715
1.28603
1.12677
0.980244
0.846856
0.726642
0.619329
0.524399
0.441152
0.368757
0.306308
0.252857
0.207456
0.169176
0.137134
0.110501
0.0885174
0.0704943
0.0558167
0.0439417
0.0343963
0.0267722
0.020721
0.0159481
0.0122064
0.00929101
0.00703311
0.00529482
0.00396448
0.00295232
0.00218671
0.00161094
0.00118043
0.000860348
0.000623729
0.00044979
0.000322645
0.00023022
0.000163408
0.000115375
8.1031e-05
5.66066e-05
3.93272e-05
2.71626e-05
1.86352e-05
1.26748e-05
8.50785e-06
5.57542e-06
3.47034e-06
1.88992e-06
5.99164e-07
0.183044
0.545224
0.895821
1.22759
1.534
1.80939
2.04923
2.25019
2.41019
2.52843
2.60529
2.64229
2.64188
2.60731
2.54242
2.45149
2.339
2.20949
2.0674
1.91692
1.76194
1.6059
1.45181
1.30219
1.15905
1.02398
0.898065
0.782042
0.676271
0.580815
0.495492
0.419918
0.353564
0.295793
0.245902
0.203155
0.166807
0.136131
0.110428
0.0890443
0.0713783
0.0568827
0.045068
0.0355019
0.0278065
0.0216557
0.0167704
0.0129144
0.00988969
0.00753144
0.00570393
0.00429619
0.00321823
0.00239765
0.00177663
0.00130937
0.000959829
0.000699834
0.000507547
0.000366137
0.000262728
0.000187529
0.000133148
9.40383e-05
6.6065e-05
4.61646e-05
3.20812e-05
2.21636e-05
1.52093e-05
1.0347e-05
6.94676e-06
4.55323e-06
2.83453e-06
1.54383e-06
4.89472e-07
0.142329
0.423986
0.696746
0.95504
1.19382
1.40875
1.59628
1.75382
1.87972
1.97331
2.03483
2.06539
2.06681
2.04156
1.99258
1.92313
1.83665
1.73665
1.62657
1.50968
1.38901
1.26726
1.14681
1.02963
0.917354
0.811225
0.712152
0.620728
0.537268
0.461848
0.394348
0.334489
0.281871
0.236007
0.196357
0.162349
0.133403
0.108949
0.0884413
0.0713648
0.0572447
0.045649
0.0361904
0.028526
0.0223559
0.0174207
0.0134983
0.0104002
0.00796845
0.00607137
0.00460037
0.00346661
0.00259797
0.00193639
0.00143545
0.00105835
0.000776122
0.000566104
0.00041071
0.000296385
0.000212748
0.000151904
0.000107888
7.62208e-05
5.35632e-05
3.74391e-05
2.60245e-05
1.79839e-05
1.23441e-05
8.39966e-06
5.64054e-06
3.69773e-06
2.3023e-06
1.25411e-06
3.97623e-07
0.110244
0.328435
0.539811
0.740106
0.925444
1.09248
1.23848
1.36143
1.46002
1.53371
1.58263
1.60759
1.60997
1.59161
1.55475
1.50188
1.43564
1.35872
1.27378
1.18336
1.0898
0.995217
0.901469
0.810121
0.722452
0.639461
0.561876
0.490182
0.424649
0.365354
0.312222
0.265049
0.223535
0.187312
0.155964
0.129048
0.106117
0.0867274
0.0704513
0.0568867
0.0456611
0.036435
0.0289034
0.0227959
0.0178756
0.0139372
0.010805
0.00832948
0.00638515
0.00486741
0.00368988
0.00278179
0.00208568
0.00155522
0.00115337
0.000850721
0.000624103
0.000455392
0.000330508
0.000238591
0.000171321
0.000122364
8.69347e-05
6.14363e-05
4.3186e-05
3.01941e-05
2.0994e-05
1.45113e-05
9.96289e-06
6.78087e-06
4.55444e-06
2.98626e-06
1.85961e-06
1.01309e-06
3.21227e-07
0.085057
0.253417
0.416575
0.57127
0.714538
0.84381
0.95699
1.05251
1.12935
1.18705
1.22571
1.24591
1.24867
1.23538
1.20774
1.16763
1.11708
1.05814
0.992865
0.923201
0.850969
0.777812
0.705174
0.634282
0.566144
0.501549
0.44108
0.38513
0.333923
0.287536
0.245921
0.208932
0.176346
0.147883
0.123226
0.102035
0.0839638
0.0686694
0.0558199
0.0451021
0.0362252
0.0289236
0.0229586
0.0181178
0.0142153
0.0110896
0.00860189
0.00663456
0.00508843
0.00388081
0.00294334
0.00221999
0.0016652
0.00124221
0.00092162
0.000680054
0.000499091
0.000364309
0.000264498
0.000191005
0.000137198
9.80237e-05
6.96633e-05
4.92454e-05
3.46265e-05
2.42162e-05
1.6842e-05
1.16443e-05
7.99641e-06
5.44366e-06
3.65703e-06
2.3983e-06
1.4937e-06
8.13816e-07
2.58064e-07
0.0653621
0.194752
0.320184
0.439174
0.549463
0.649088
0.736441
0.810313
0.869913
0.914875
0.945242
0.961439
0.964228
0.954655
0.933993
0.903675
0.865238
0.820256
0.770292
0.716845
0.661316
0.604976
0.548945
0.494179
0.441464
0.391422
0.344517
0.301063
0.261245
0.225134
0.192702
0.163844
0.138395
0.116143
0.0968483
0.0802502
0.0660831
0.0540823
0.0439913
0.0355675
0.0285849
0.0228372
0.0181381
0.014322
0.0112433
0.00877581
0.00681076
0.00525575
0.00403293
0.00307728
0.002335
0.00176195
0.0013222
0.000986757
0.000732391
0.000540637
0.000396924
0.00028984
0.000210506
0.000152068
0.000109265
7.80918e-05
5.55152e-05
3.92556e-05
2.76101e-05
1.93146e-05
1.34365e-05
9.29208e-06
6.38259e-06
4.346e-06
2.9202e-06
1.91543e-06
1.19313e-06
6.50123e-07
2.06151e-07
0.0500239
0.14906
0.245095
0.336244
0.42079
0.49724
0.564365
0.621238
0.667246
0.702098
0.725812
0.738696
0.741313
0.734448
0.719056
0.696222
0.667108
0.632911
0.594823
0.553989
0.511484
0.468286
0.425258
0.38314
0.342546
0.30396
0.267748
0.234161
0.20335
0.175376
0.150225
0.127823
0.108048
0.0907406
0.0757188
0.062785
0.0517359
0.0423683
0.034485
0.0278989
0.0224355
0.0179349
0.0142527
0.0112604
0.0088447
0.00690726
0.00536337
0.0041409
0.00317901
0.00242685
0.0018423
0.00139078
0.00104412
0.000779549
0.00057883
0.000427447
0.000313941
0.000229328
0.000166616
0.000120403
8.65414e-05
6.18706e-05
4.3997e-05
3.11201e-05
2.18942e-05
1.53202e-05
1.06605e-05
7.37413e-06
5.06635e-06
3.45054e-06
2.319e-06
1.52132e-06
9.47781e-07
5.16494e-07
1.63773e-07
0.0381276
0.113618
0.186842
0.256372
0.320911
0.379323
0.430678
0.474265
0.509613
0.536491
0.554904
0.565073
0.567416
0.562516
0.551091
0.533955
0.511987
0.486093
0.457177
0.426111
0.393716
0.360739
0.327844
0.295602
0.264485
0.234872
0.207048
0.181212
0.157485
0.13592
0.116512
0.099209
0.0839195
0.0705259
0.0588905
0.0488637
0.0402907
0.0330164
0.02689
0.0217676
0.0175153
0.0140098
0.0111397
0.00880578
0.00692038
0.00540727
0.00420077
0.00324488
0.00249232
0.00190351
0.00144567
0.00109184
0.000820033
0.000612495
0.00045497
0.00033611
0.00024695
0.000180457
0.000131155
9.48091e-05
6.81676e-05
4.875e-05
3.46772e-05
2.45351e-05
1.72662e-05
1.2085e-05
8.41147e-06
5.81984e-06
3.99943e-06
2.72446e-06
1.8314e-06
1.20165e-06
7.48724e-07
4.08065e-07
1.29407e-07
0.0289394
0.0862429
0.141839
0.194655
0.24371
0.288148
0.327262
0.360515
0.387545
0.40817
0.422387
0.430355
0.432382
0.428903
0.420451
0.40764
0.391129
0.3716
0.349738
0.326204
0.301621
0.276558
0.251523
0.226952
0.20321
0.180589
0.159311