/*--------------------------------*- C++ -*----------------------------------*\
  =========                 |
  \\      /  F ield         | OpenFOAM: The Open Source CFD Toolbox
   \\    /   O peration     | Website:  https://openfoam.org
    \\  /    A nd           | Version:  10
     \\/     M anipulation  |
\*---------------------------------------------------------------------------*/
FoamFile
{
    format      ascii;
    class       volScalarField;
    location    "147";
    object      gradTx;
}
// * * * * * * * * * * * * * * * * * * * * * * * * * * * * * * * * * * * * * //

dimensions      [0 -1 0 1 0 0 0];

internalField   nonuniform List<scalar> 
11250
(
14269.7
8014.52
5164.4
3630
2686.45
2047.82
1586.45
1238.61
969.26
757.392
589.429
455.971
350.116
266.55
201.033
150.102
110.892
81.026
58.534
41.7955
29.4911
20.5594
14.1588
9.63139
6.47076
4.29332
2.81306
1.82008
1.16279
0.733487
0.456794
0.28082
0.170384
0.101998
0.0602193
0.035044
0.0200868
0.0113305
0.00628333
0.00342173
0.0018277
0.000956408
0.000489731
0.000245115
0.000119798
5.7125e-05
2.65571e-05
1.20299e-05
5.30744e-06
2.27988e-06
9.53386e-07
3.88071e-07
1.53778e-07
5.93054e-08
2.22564e-08
8.12456e-09
2.89003e-09
9.84563e-10
3.13919e-10
1.00981e-10
0
1.09762e-12
0
-2.19524e-11
9.87856e-12
-1.09762e-12
-1.09762e-12
0
1.09762e-12
0
-5.48809e-12
0
-7.68332e-12
0
-9.87856e-12
4065.88
4614.33
3856.54
3049.65
2394.23
1884.95
1488.42
1176.21
927.904
729.201
569.836
442.179
340.335
259.589
196.076
146.578
108.397
79.2692
57.3051
40.9425
28.904
20.1591
13.8885
9.45068
6.35124
4.21514
2.76249
1.78774
1.14236
0.720728
0.448927
0.276033
0.167511
0.100299
0.0592302
0.0344782
0.0197693
0.0111561
0.00618975
0.00337279
0.00180282
0.000944152
0.000483894
0.000242437
0.00011862
5.66294e-05
2.63596e-05
1.19562e-05
5.28206e-06
2.27215e-06
9.51474e-07
3.8785e-07
1.53889e-07
5.9447e-08
2.2331e-08
8.15749e-09
2.88234e-09
9.83465e-10
3.18309e-10
1.06469e-10
2.41476e-11
2.19523e-12
0
2.41476e-11
5.48809e-12
0
-1.09762e-12
1.09762e-12
-1.09762e-12
0
-8.78094e-12
0
8.78094e-12
2.19523e-12
0
1446.99
2525.17
2605.52
2328.17
1968.4
1623.48
1321.34
1065.72
852.835
677.147
533.219
416.18
321.775
246.312
186.585
139.811
103.594
75.8803
54.9307
39.292
27.7667
19.3828
13.3638
9.09971
6.11897
4.06311
2.6641
1.72479
1.10256
0.69587
0.433594
0.266698
0.161904
0.096981
0.0572975
0.0333716
0.0191478
0.0108142
0.00600597
0.0032765
0.00175376
0.000919908
0.000472307
0.000237098
0.000116256
5.56289e-05
2.5957e-05
1.18036e-05
5.22848e-06
2.25521e-06
9.47022e-07
3.87109e-07
1.54043e-07
5.96698e-08
2.2499e-08
8.25299e-09
2.92954e-09
1.02078e-09
3.5453e-10
1.13055e-10
4.17095e-11
0
0
-1.4269e-11
-1.09762e-11
2.19524e-12
3.29285e-12
2.19523e-12
0
0
3.29285e-12
8.78094e-12
0
-1.09762e-12
8.78094e-12
645.47
1438.47
1719.71
1699.13
1539.85
1332.96
1122.57
927.876
755.973
608.344
483.962
380.742
296.224
227.894
173.337
130.321
96.8324
71.0938
51.5681
36.9496
26.1497
18.2772
12.6156
8.59861
5.78701
3.84563
2.52324
1.63461
1.04551
0.660211
0.411583
0.253287
0.153845
0.092207
0.0545136
0.0317757
0.0182498
0.0103193
0.00573932
0.00313638
0.00168212
0.000884364
0.000455236
0.000229184
0.000112726
5.41202e-05
2.53423e-05
1.15665e-05
5.14298e-06
2.22698e-06
9.38886e-07
3.85322e-07
1.53933e-07
5.98564e-08
2.26757e-08
8.36275e-09
3.00857e-09
1.04932e-09
3.67702e-10
1.27324e-10
4.06118e-11
-4.39047e-12
0
-1.09762e-12
-4.39047e-12
3.29285e-12
0
1.09762e-12
0
2.19524e-12
5.48809e-12
0
-1.09762e-12
-1.09762e-12
-5.48809e-12
343.39
867.985
1142.88
1218.38
1170.52
1059.09
922.261
781.914
649.561
530.64
427.154
339.21
265.904
205.823
157.339
118.788
88.5724
65.2223
47.4289
34.0576
24.1484
16.906
11.6859
7.97501
5.37332
3.57429
2.34729
1.52186
0.974109
0.615547
0.383991
0.236461
0.143722
0.0862035
0.0510076
0.0297623
0.0171145
0.00969193
0.00540026
0.00295755
0.00159028
0.000838543
0.000433084
0.000218834
0.000108065
5.21034e-05
2.45074e-05
1.12376e-05
5.0207e-06
2.18467e-06
9.25579e-07
3.81748e-07
1.53245e-07
5.98684e-08
2.27745e-08
8.44178e-09
3.05028e-09
1.05371e-09
3.53433e-10
1.18543e-10
4.06118e-11
1.31714e-11
0
1.86595e-11
0
-1.09762e-12
-1.09762e-12
-3.29285e-12
0
-1.09762e-12
-9.87856e-12
-1.20738e-11
-7.68332e-12
-1.09762e-12
-1.09762e-12
204.91
551.373
772.185
870.012
875.67
822.953
738.796
641.771
543.572
451.001
367.614
294.909
233.107
181.679
139.679
105.963
79.3313
58.6202
42.7549
30.7804
21.8735
15.3434
10.624
7.26136
4.8991
3.26276
2.14503
1.39208
0.891837
0.564026
0.352128
0.217007
0.132003
0.0792436
0.0469361
0.027419
0.0157898
0.00895756
0.00500182
0.00274642
0.00148124
0.000783786
0.000406402
0.000206246
0.00010233
4.95859e-05
2.3446e-05
1.08094e-05
4.85619e-06
2.12496e-06
9.05349e-07
3.75507e-07
1.516e-07
5.9571e-08
2.27723e-08
8.48788e-09
3.09199e-09
1.10201e-09
3.84166e-10
1.17445e-10
4.17095e-11
2.19523e-11
4.39047e-12
0
-1.09762e-12
-4.39047e-12
0
0
0
-2.19524e-12
4.39047e-12
1.09762e-12
-4.39047e-12
0
0
131.095
364.284
530.734
622.18
649.312
629.713
580.549
515.607
444.8
374.689
309.269
250.703
199.896
156.937
121.403
92.5819
69.6243
51.6459
37.7938
27.2877
19.4406
13.6672
9.48199
6.49212
4.3869
2.92571
1.92584
1.25124
0.802435
0.507968
0.317415
0.195786
0.1192
0.0716267
0.042471
0.0248429
0.014329
0.00814476
0.00455885
0.00251041
0.00135857
0.000721702
0.000375869
0.000191683
9.56052e-05
4.65862e-05
2.21558e-05
1.02756e-05
4.64435e-06
2.04461e-06
8.76386e-07
3.65667e-07
1.48493e-07
5.86918e-08
2.25791e-08
8.45495e-09
3.10845e-09
1.11518e-09
3.85264e-10
1.1964e-10
4.93928e-11
1.75619e-11
4.39047e-12
-5.48809e-12
2.19523e-12
2.19524e-12
0
0
-1.20738e-11
1.09762e-12
1.31714e-11
2.19524e-12
0
-7.68332e-12
0
87.4757
247.467
369.997
446.297
478.921
476.496
449.354
406.999
357.059
305.11
254.914
208.78
167.934
132.832
103.415
79.2988
59.9188
44.63
32.7771
23.7401
16.9601
11.9525
8.31034
5.70091
3.85891
2.57756
1.69904
1.10528
0.709636
0.449696
0.281278
0.17366
0.10583
0.063657
0.0377884
0.0221338
0.0127876
0.00728353
0.00408711
0.00225754
0.00122617
0.000654105
0.000342279
0.000175463
8.80069e-05
4.31375e-05
2.06413e-05
9.63309e-06
4.38133e-06
1.94088e-06
8.37076e-07
3.51362e-07
1.43527e-07
5.70432e-08
2.20983e-08
8.34519e-09
3.09528e-09
1.11957e-09
3.87459e-10
1.44886e-10
6.36618e-11
2.41476e-11
-5.48809e-12
0
0
0
7.68332e-12
-1.09762e-12
0
1.09762e-12
-1.09762e-12
0
6.5857e-12
0
4.39047e-12
59.8928
171.287
260.626
320.958
351.885
357.401
343.513
316.491
281.871
244.054
206.248
170.603
138.407
110.293
86.422
66.6412
50.6016
37.852
27.9041
20.2778
14.5292
10.2662
7.15449
4.91821
3.33532
2.23157
1.4732
0.959671
0.616914
0.391379
0.245057
0.151447
0.0923826
0.0556243
0.0330571
0.0193883
0.0112197
0.0064035
0.00360239
0.00199597
0.00108811
0.000582946
0.000306521
0.000157969
7.96848e-05
3.92924e-05
1.89174e-05
8.88369e-06
4.0657e-06
1.81215e-06
7.86255e-07
3.31963e-07
1.3637e-07
5.45209e-08
2.12356e-08
8.06859e-09
2.98771e-09
1.09103e-09
3.91849e-10
1.49276e-10
5.1588e-11
2.52452e-11
1.86595e-11
0
-1.09762e-12
0
1.4269e-11
2.19523e-12
1.31714e-11
-1.09762e-12
2.19523e-12
5.48809e-12
6.58571e-12
8.78094e-12
2.19524e-12
41.6542
119.978
184.812
231.109
257.618
266.04
259.79
242.894
219.225
192.088
164.058
136.978
112.044
89.9326
70.9177
54.9923
41.9629
31.527
23.3313
17.0131
12.2273
8.66329
6.05223
4.16964
2.83327
1.89904
1.25569
0.819166
0.527281
0.334909
0.209924
0.129862
0.079291
0.0477873
0.0284291
0.0166942
0.00967515
0.00553241
0.00311977
0.00173367
0.000948471
0.000510249
0.000269558
0.000139639
7.08291e-05
3.51281e-05
1.70129e-05
8.03704e-06
3.70004e-06
1.65876e-06
7.23745e-07
3.07244e-07
1.26875e-07
5.09953e-08
1.99327e-08
7.58673e-09
2.79344e-09
1.00761e-09
3.5014e-10
1.09762e-10
2.96357e-11
8.78094e-12
1.09762e-12
-1.09762e-12
-1.09762e-12
-1.09762e-12
-6.58571e-12
0
-1.09762e-12
0
1.09762e-12
0
-6.58571e-12
0
1.09762e-12
29.2316
84.6146
131.504
166.357
187.858
196.62
194.553
184.197
168.199
148.96
128.458
108.188
89.1847
72.0811
57.1919
44.5927
34.194
25.8023
19.1693
14.0269
10.1127
7.18519
5.03232
3.47489
2.36605
1.58883
1.05234
0.687543
0.443156
0.281816
0.176834
0.109497
0.0669144
0.0403619
0.0240327
0.0141266
0.00819726
0.00469481
0.00265289
0.00147805
0.000811205
0.00043805
0.000232414
0.000120971
6.16733e-05
3.07504e-05
1.4974e-05
7.1125e-06
3.29206e-06
1.48364e-06
6.50622e-07
2.77547e-07
1.15159e-07
4.64621e-08
1.8238e-08
6.96987e-09
2.56842e-09
9.3078e-10
3.16114e-10
9.7688e-11
3.7319e-11
1.75619e-11
-1.97571e-11
0
0
-9.87856e-12
-3.7319e-11
-1.09762e-12
0
0
-3.29285e-12
-5.48809e-12
0
-2.19523e-12
-3.29285e-12
20.6042
59.8563
93.6454
119.519
136.356
144.28
144.342
138.13
127.422
113.923
99.1054
84.1361
69.8613
56.8341
45.361
35.5563
27.3953
20.7611
15.4838
11.3697
8.22283
5.85904
4.11411
2.84748
1.94295
1.30721
0.867304
0.56753
0.366305
0.233224
0.146496
0.0907914
0.055525
0.0335139
0.0199677
0.0117452
0.00682119
0.00391114
0.00221346
0.00123573
0.000679959
0.000368328
0.000196135
0.000102504
5.24896e-05
2.62928e-05
1.28641e-05
6.13949e-06
2.85505e-06
1.29257e-06
5.69355e-07
2.43907e-07
1.01584e-07
4.11332e-08
1.62085e-08
6.19934e-09
2.29402e-09
8.24311e-10
2.8099e-10
1.02078e-10
3.7319e-11
7.68332e-12
1.20738e-11
0
-1.09762e-11
-5.48809e-12
-2.19524e-12
-1.09762e-12
0
1.09762e-12
0
0
4.39047e-12
0
1.09762e-12
14.5383
42.349
66.5926
85.5825
98.4418
105.095
106.111
102.476
95.3714
85.9864
75.3928
64.4729
53.8941
44.1139
35.4059
27.8944
21.5913
16.4314
12.3013
9.064
6.57588
4.69891
3.30804
2.29499
1.56932
1.05789
0.703117
0.460812
0.297834
0.189853
0.11937
0.0740372
0.045305
0.0273566
0.016304
0.00959269
0.00557292
0.00319706
0.00181083
0.00101221
0.000557931
0.000302905
0.000161738
8.4795e-05
4.3573e-05
2.19079e-05
1.07602e-05
5.15548e-06
2.40676e-06
1.09374e-06
4.83546e-07
2.07858e-07
8.68457e-08
3.5273e-08
1.3909e-08
5.31796e-09
1.9801e-09
6.93694e-10
2.40378e-10
6.91499e-11
1.86595e-11
-7.68332e-12
-1.09762e-12
-1.20738e-11
-1.09762e-12
1.09762e-11
2.305e-11
-2.19523e-12
0
0
-1.09762e-12
-4.39047e-12
-8.78094e-12
1.09762e-12
6.58571e-12
10.2432
29.9003
47.2046
61.0005
70.6327
75.9625
77.2907
75.2281
70.5525
64.083
56.5848
48.7102
40.9693
33.7263
27.2114
21.5421
16.7483
12.7974
9.61623
7.10956
5.17391
3.70757
2.61689
1.81979
1.24706
0.842297
0.560811
0.368122
0.238249
0.152043
0.0956816
0.0593827
0.0363511
0.0219526
0.013082
0.00769501
0.00446906
0.00256316
0.0014517
0.000811672
0.000447691
0.000243328
0.000130133
6.83638e-05
3.52136e-05
1.7752e-05
8.74389e-06
4.20173e-06
1.96734e-06
8.96667e-07
3.97533e-07
1.71344e-07
7.17743e-08
2.92175e-08
1.15228e-08
4.40913e-09
1.64204e-09
5.8503e-10
2.22816e-10
6.91499e-11
7.68332e-12
2.19523e-12
-8.78094e-12
0
1.20738e-11
8.78094e-12
2.19523e-12
0
-1.09762e-12
-2.19523e-12
-6.5857e-12
4.39047e-12
0
0
0
7.19269
21.0304
33.3066
43.2323
50.331
54.4602
55.7746
54.6506
51.5976
47.1735
41.9168
36.3001
30.704
25.4096
20.6021
16.3842
12.7919
9.81226
7.39954
5.48871
4.00645
2.87898
2.03726
1.42003
0.975207
0.659964
0.440181
0.289385
0.187537
0.119808
0.0754549
0.0468513
0.0286838
0.0173184
0.0103147
0.00606217
0.00351708
0.00201487
0.00113993
0.000636778
0.000351018
0.000190749
0.00010204
5.36435e-05
2.76621e-05
1.39655e-05
6.89066e-06
3.31749e-06
1.55644e-06
7.10847e-07
3.15776e-07
1.36347e-07
5.72023e-08
2.33167e-08
9.20682e-09
3.52774e-09
1.29848e-09
4.73073e-10
1.93181e-10
9.32975e-11
3.7319e-11
1.86595e-11
2.08547e-11
1.31714e-11
9.87856e-12
0
-1.09762e-12
2.19523e-12
-4.39047e-12
0
-7.68332e-12
3.29285e-12
8.78094e-12
9.87856e-12
-3.29285e-12
5.02594
14.7147
23.364
30.437
35.594
38.7117
39.8658
39.2878
37.3097
34.308
30.6567
26.6927
22.6942
18.8725
15.3719
12.2771
9.62347
7.40923
5.60658
4.172
3.05429
2.20075
1.56123
1.09075
0.750659
0.508982
0.340067
0.223905
0.145286
0.0929067
0.058551
0.0363656
0.0222611
0.0134328
0.00799218
0.00469029
0.00271617
0.00155279
0.00087655
0.000488586
0.000268795
0.000145826
7.79137e-05
4.0929e-05
2.10996e-05
1.06539e-05
5.25936e-06
2.53416e-06
1.19015e-06
5.44189e-07
2.42044e-07
1.0465e-07
4.39618e-08
1.79318e-08
7.11476e-09
2.72429e-09
1.00871e-09
3.7758e-10
1.44886e-10
6.36618e-11
4.06118e-11
2.19523e-11
1.75619e-11
-1.09762e-12
5.48809e-12
-4.39047e-12
-1.09762e-12
-1.09762e-12
0
1.09762e-12
-4.39047e-12
-7.68332e-12
-2.19524e-12
2.19523e-12
5.48809e-12
3.49054
10.2305
16.2783
21.27
24.9672
27.2716
28.2176
27.9471
26.6753
24.6545
22.1414
19.3726
16.5481
13.823
11.3068
9.06655
7.13357
5.51153
4.18427
3.12314
2.29294
1.65653
1.17804
0.824901
0.568885
0.386462
0.258643
0.170544
0.110793
0.0709123
0.0447129
0.0277732
0.0169944
0.010245
0.0060862
0.00356424
0.00205863
0.00117326
0.000660063
0.000366624
0.000201001
0.000108696
5.79116e-05
3.03507e-05
1.56182e-05
7.87613e-06
3.88504e-06
1.8713e-06
8.78832e-07
4.01944e-07
1.78869e-07
7.74314e-08
3.25916e-08
1.33306e-08
5.2982e-09
2.05803e-09
7.86992e-10
2.98552e-10
9.7688e-11
2.85381e-11
1.09762e-12
1.09762e-12
1.4269e-11
0
-9.87856e-12
-1.09762e-12
0
-3.29285e-12
4.39047e-12
-1.09762e-12
-3.29285e-12
5.48809e-12
-3.29285e-12
-9.87856e-12
-1.09762e-12
2.40709
7.06137
11.2554
14.7439
17.3615
19.0337
19.7739
19.669
18.8578
17.508
15.794
13.8799
11.9068
9.98696
8.2011
6.60068
5.21173
4.04004
3.07671
2.30318
1.69557
1.2281
0.875446
0.61437
0.424557
0.288948
0.193699
0.1279
0.0831827
0.0532816
0.0336083
0.0208732
0.0127636
0.00768439
0.0045559
0.00266082
0.00153159
0.000869363
0.000486878
0.000269118
0.000146813
7.90106e-05
4.19067e-05
2.18751e-05
1.12184e-05
5.64169e-06
2.77686e-06
1.33537e-06
6.26462e-07
2.86317e-07
1.27373e-07
5.5141e-08
2.32278e-08
9.51305e-09
3.78788e-09
1.49825e-09
5.67468e-10
2.14035e-10
7.13451e-11
2.52452e-11
7.68332e-12
2.19523e-12
-9.87856e-12
1.09762e-12
-4.39047e-12
1.09762e-12
8.78094e-12
4.39047e-12
0
0
9.87856e-12
1.20738e-11
5.48809e-12
-5.48809e-12
-4.39047e-12
1.64693
4.83501
7.71808
10.1317
11.9625
13.1561
13.7157
13.6943
13.1811
12.2866
11.1283
9.81851
8.45554
7.11886
5.86705
4.73847
3.75371
2.91892
2.22948
1.67361
1.23533
0.896952
0.640864
0.450711
0.312078
0.212778
0.142863
0.0944585
0.0614966
0.0394168
0.0248681
0.01544
0.00943235
0.00566941
0.00335307
0.00195191
0.00111891
0.000631998
0.00035196
0.000193353
0.000104806
5.60421e-05
2.95411e-05
1.53325e-05
7.82332e-06
3.91717e-06
1.92109e-06
9.21147e-07
4.31164e-07
1.96708e-07
8.74197e-08
3.77965e-08
1.59198e-08
6.52863e-09
2.63648e-09
1.04383e-09
4.14899e-10
1.80009e-10
6.69547e-11
2.19524e-11
7.68332e-12
-1.20738e-11
-2.19524e-11
0
-8.78094e-12
-9.87856e-12
0
2.19523e-12
4.39047e-12
1.09762e-12
1.31714e-11
-4.39047e-12
3.29285e-12
-1.09762e-12
-1.09762e-12
1.11725
3.2821
5.24574
6.89868
8.16408
9.00307
9.41466
9.43093
9.10891
8.521
7.74548
6.85832
5.92713
5.00736
4.14062
3.35488
2.66584
2.07907
1.59244
1.19857
0.886908
0.645494
0.462226
0.325754
0.225989
0.154349
0.103791
0.0687108
0.0447755
0.0287147
0.0181172
0.0112426
0.00685999
0.00411517
0.00242697
0.00140749
0.000803019
0.000450995
0.000249515
0.000136079
7.31904e-05
3.88263e-05
2.03065e-05
1.04615e-05
5.30174e-06
2.63868e-06
1.28743e-06
6.14673e-07
2.86682e-07
1.30443e-07
5.78642e-08
2.49752e-08
1.05053e-08
4.30047e-09
1.74741e-09
6.92597e-10
3.0404e-10
1.29519e-10
5.92713e-11
1.86595e-11
5.48809e-12
-1.20738e-11
-7.68332e-12
3.29285e-12
0
-1.09762e-12
-7.68332e-12
0
0
1.09762e-12
-4.39047e-12
-8.78094e-12
0
0
-5.48809e-12
0.751087
2.20764
3.53222
4.65246
5.5168
6.09808
6.39384
6.42343
6.22311
5.83992
5.32554
4.73082
4.10162
3.47605
2.8832
2.34303
1.86714
1.46017
1.12134
0.84611
0.627594
0.457801
0.328526
0.231994
0.161243
0.110313
0.0742874
0.0492376
0.0321128
0.0206027
0.0129978
0.0080601
0.00491108
0.00293946
0.0017281
0.000998025
0.00056643
0.000316116
0.00017361
9.39036e-05
5.00565e-05
2.63072e-05
1.36303e-05
6.95836e-06
3.49641e-06
1.72678e-06
8.36784e-07
3.97182e-07
1.84358e-07
8.35715e-08
3.69403e-08
1.59133e-08
6.64937e-09
2.70782e-09
1.07237e-09
4.01728e-10
1.60252e-10
4.82952e-11
3.62214e-11
1.09762e-11
7.68332e-12
1.86595e-11
-3.29285e-12
-1.75619e-11
8.78094e-12
1.09762e-11
0
1.09762e-12
-4.39047e-12
0
-1.20738e-11
0
0
-3.29285e-12
2.19524e-12
0.500145
1.47075
2.35537
3.10655
3.69005
4.08726
4.2955
4.32639
4.20286
3.95523
3.61731
3.22275
2.80227
2.38171
1.98108
1.61434
1.28988
1.01132
0.778563
0.588856
0.437769
0.320024
0.230128
0.162825
0.113373
0.0776898
0.0523919
0.0347644
0.0226907
0.0145623
0.00918494
0.00569071
0.00346177
0.00206686
0.00121093
0.00069621
0.000392918
0.000217796
0.000118665
6.3607e-05
3.35718e-05
1.74588e-05
8.94855e-06
4.51971e-06
2.24796e-06
1.09975e-06
5.28419e-07
2.48952e-07
1.14837e-07
5.17856e-08
2.27712e-08
9.76989e-09
4.06448e-09
1.64972e-09
6.25642e-10
2.16231e-10
6.80523e-11
1.31714e-11
-8.78094e-12
-6.58571e-12
-8.78094e-12
2.19523e-12
1.09762e-12
-3.29285e-12
-1.09762e-12
-4.39047e-12
9.87856e-12
-1.09762e-12
2.19524e-12
-2.19524e-12
3.29285e-12
0
-2.19524e-12
3.29285e-12
-8.78094e-12
0.329769
0.970128
1.55488
2.05318
2.4425
2.7103
2.85424
2.88126
2.80576
2.64712
2.42726
2.16822
1.89031
1.61084
1.34334
1.09743
0.879014
0.690825
0.533056
0.404067
0.301038
0.220524
0.158892
0.112635
0.0785643
0.0539231
0.0364145
0.024189
0.0157994
0.0101421
0.0063948
0.00395802
0.00240343
0.00143115
0.000835424
0.000478049
0.000268208
0.000147612
7.97539e-05
4.23419e-05
2.21111e-05
1.13673e-05
5.75687e-06
2.87265e-06
1.41199e-06
6.83098e-07
3.24896e-07
1.51686e-07
6.94089e-08
3.10911e-08
1.3583e-08
5.78225e-09
2.40488e-09
9.47244e-10
3.39164e-10
1.31714e-10
3.51238e-11
1.20738e-11
-3.29285e-12
1.09762e-12
1.97571e-11
-1.09762e-12
-3.29285e-12
1.31714e-11
0
1.31714e-11
0
-2.19523e-12
0
1.09762e-12
4.39047e-12
-2.19523e-12
0
2.19523e-12
-1.09762e-12
0.215229
0.633396
1.01589
1.34283
1.59957
1.77777
1.87558
1.89712
1.85138
1.75065
1.609
1.4407
1.25905
1.07546
0.898981
0.736111
0.590939
0.465446
0.359915
0.273389
0.204092
0.1498
0.10814
0.0767987
0.0536613
0.0368895
0.0249461
0.016589
0.010843
0.00696186
0.00438788
0.00271288
0.00164421
0.000976321
0.000567759
0.000323299
0.000180288
9.84995e-05
5.27611e-05
2.77343e-05
1.43223e-05
7.27389e-06
3.63641e-06
1.79056e-06
8.68523e-07
4.1484e-07
1.94962e-07
9.00321e-08
4.08061e-08
1.81217e-08
7.84797e-09
3.30712e-09
1.34787e-09
5.31247e-10
1.83302e-10
7.90285e-11
1.20738e-11
2.19524e-12
-8.78094e-12
-5.48809e-12
9.87856e-12
1.31714e-11
1.09762e-12
4.39047e-12
3.29285e-12
4.39047e-12
-9.87856e-12
0
-1.09762e-12
1.09762e-12
1.09762e-12
1.09762e-12
0
1.09762e-12
1.31714e-11
0.139017
0.409239
0.656774
0.868919
1.03625
1.1533
1.2187
1.23489
1.20741
1.14402
1.05364
0.945446
0.828018
0.708803
0.593751
0.487199
0.391919
0.309308
0.239647
0.182384
0.13641
0.100309
0.0725459
0.0516129
0.0361258
0.0248748
0.0168453
0.0112148
0.00733579
0.00471117
0.0029682
0.0018331
0.00110884
0.000656541
0.000380323
0.000215496
0.000119436
6.47719e-05
3.43935e-05
1.78978e-05
9.13774e-06
4.58262e-06
2.26003e-06
1.09709e-06
5.24492e-07
2.46978e-07
1.14478e-07
5.22126e-08
2.34012e-08
1.02858e-08
4.42779e-09
1.85388e-09
7.48575e-10
3.06235e-10
1.25128e-10
2.63428e-11
1.64643e-11
9.87856e-12
-1.20738e-11
6.58571e-12
-1.31714e-11
-7.68332e-12
6.58571e-12
6.58571e-12
-2.19523e-12
-1.31714e-11
2.19524e-12
1.09762e-12
0
-1.09762e-12
7.68332e-12
3.29285e-12
0
3.29285e-12
-4.39047e-12
0.0888454
0.261614
0.42008
0.556208
0.663996
0.739903
0.782959
0.794595
0.778224
0.738679
0.681583
0.612749
0.53767
0.461138
0.38702
0.31816
0.256407
0.202724
0.157344
0.119956
0.0898742
0.0662042
0.0479644
0.0341846
0.0239687
0.0165315
0.0112121
0.0074738
0.00489293
0.00314343
0.0019799
0.00122148
0.000737478
0.000435425
0.000251267
0.00014167
7.80414e-05
4.20133e-05
2.21162e-05
1.13938e-05
5.75096e-06
2.84753e-06
1.38488e-06
6.62353e-07
3.11805e-07
1.44568e-07
6.60118e-08
2.97026e-08
1.31297e-08
5.69883e-09
2.43232e-09
1.01969e-09
4.22583e-10
1.62447e-10
7.24428e-11
8.78094e-12
1.20738e-11
1.64643e-11
1.64643e-11
1.4269e-11
5.48809e-12
-3.29285e-12
9.87856e-12
-1.20738e-11
-3.29285e-12
-1.09762e-12
0
1.09762e-12
1.09762e-12
0
-7.68332e-12
0
-4.39047e-12
-1.4269e-11
-1.09762e-12
0.0561757
0.165454
0.265797
0.352168
0.420786
0.469388
0.49731
0.505385
0.495698
0.471239
0.435515
0.392177
0.344697
0.296125
0.248939
0.204979
0.165457
0.13102
0.101848
0.077766
0.0583556
0.0430556
0.0312454
0.0223073
0.0156684
0.0108255
0.00735409
0.00490899
0.00321715
0.00206794
0.00130236
0.00080278
0.000483847
0.00028491
0.000163804
9.19156e-05
5.03335e-05
2.69035e-05
1.40429e-05
7.16378e-06
3.57538e-06
1.74802e-06
8.38324e-07
3.94913e-07
1.82955e-07
8.34343e-08
3.75078e-08
1.66135e-08
7.23989e-09
3.0865e-09
1.27872e-09
5.35637e-10
2.12938e-10
7.24428e-11
1.75619e-11
3.29285e-12
-1.86595e-11
-1.75619e-11
3.29285e-12
-1.09762e-11
1.09762e-12
0
-1.20738e-11
-2.08547e-11
2.19523e-12
0
-2.19524e-12
-3.29285e-12
1.09762e-12
-1.09762e-12
1.09762e-12
-2.19524e-12
0
0
1.31714e-11
0.0351381
0.103513
0.166356
0.22054
0.263708
0.294433
0.312271
0.317706
0.312003
0.296997
0.274855
0.247847
0.218146
0.187667
0.15798
0.130257
0.10528
0.0834758
0.0649731
0.0496749
0.0373265
0.0275796
0.0200456
0.0143352
0.0100868
0.00698175
0.00475132
0.00317664
0.00208448
0.00134092
0.000844626
0.000520315
0.000313141
0.000183946
0.000105394
5.88738e-05
3.20584e-05
1.70187e-05
8.81165e-06
4.45291e-06
2.19839e-06
1.06163e-06
5.02169e-07
2.3301e-07
1.06225e-07
4.76399e-08
2.10479e-08
9.14974e-09
3.93606e-09
1.64094e-09
6.66254e-10
2.74404e-10
1.03176e-10
4.50023e-11
5.48809e-12
-5.48809e-12
-1.86595e-11
-2.74404e-11
-2.08547e-11
-1.97571e-11
-2.08547e-11
0
-1.4269e-11
7.68332e-12
0
-1.09762e-12
0
0
6.58571e-12
4.39047e-12
6.5857e-12
-1.97571e-11
2.19524e-12
1.09762e-11
0
0.0217428
0.0640623
0.102987
0.136595
0.163431
0.182605
0.19383
0.197386
0.194036
0.184897
0.171297
0.154635
0.136253
0.117343
0.0988847
0.0816159
0.066032
0.0524074
0.0408311
0.0312491
0.0235069
0.01739
0.0126572
0.0090659
0.00639036
0.00443152
0.00302155
0.00202377
0.00132999
0.000856483
0.000539739
0.000332407
0.000199829
0.000117143
6.69142e-05
3.72261e-05
2.01655e-05
1.06375e-05
5.46615e-06
2.73789e-06
1.33792e-06
6.38583e-07
2.98088e-07
1.36304e-07
6.11395e-08
2.69498e-08
1.16787e-08
4.97001e-09
2.09316e-09
8.72606e-10
3.57823e-10
1.28421e-10
5.37833e-11
1.4269e-11
-2.19523e-12
-4.39047e-12
-7.68332e-12
-2.74404e-11
-2.63428e-11
-2.85381e-11
-2.85381e-11
-1.09762e-12
0
1.86595e-11
1.09762e-12
0
-1.09762e-12
1.31714e-11
0
1.09762e-12
-7.68332e-12
0
0
0
-7.68332e-12
0.0133096
0.0392196
0.0630643
0.0836727
0.100155
0.111964
0.118919
0.121182
0.11921
0.11368
0.105399
0.0952192
0.0839631
0.0723629
0.0610225
0.050399
0.0408013
0.0324025
0.0252609
0.019346
0.0145644
0.0107849
0.00785908
0.00563738
0.00398046
0.0027656
0.00188947
0.00126802
0.000834786
0.00053832
0.000339514
0.000209118
0.000125624
7.35254e-05
4.18913e-05
2.3222e-05
1.25214e-05
6.56739e-06
3.35156e-06
1.66516e-06
8.06065e-07
3.80588e-07
1.75479e-07
7.9124e-08
3.49218e-08
1.51076e-08
6.41777e-09
2.67489e-09
1.08554e-09
4.41242e-10
1.80009e-10
4.06118e-11
0
-1.4269e-11
9.87856e-12
5.48809e-12
-2.19524e-12
-2.96357e-11
-2.305e-11
-2.63428e-11
-3.29285e-11
-3.18309e-11
-7.68332e-12
0
0
2.19524e-12
1.09762e-12
0
-8.78094e-12
4.39047e-12
1.09762e-12
2.41476e-11
2.19524e-12
4.39047e-12
0
0.00806013
0.0237523
0.038198
0.0506896
0.0606891
0.0678646
0.0721036
0.0735023
0.0723344
0.0690062
0.0640045
0.0578446
0.0510245
0.0439889
0.0371054
0.0306529
0.0248206
0.0197151
0.0153731
0.0117768
0.00886987
0.00657237
0.0047938
0.00344296
0.00243489
0.00169493
0.00116038
0.000780363
0.000514749
0.000332483
0.000209933
0.000129368
7.7695e-05
4.54226e-05
2.58274e-05
1.42746e-05
7.66651e-06
4.00098e-06
2.02948e-06
1.00106e-06
4.80493e-07
2.24656e-07
1.02436e-07
4.55994e-08
1.98438e-08
8.43739e-09
3.49811e-09
1.43239e-09
5.53199e-10
2.08547e-10
7.35404e-11
6.58571e-12
-1.20738e-11
7.68332e-12
1.09762e-11
7.68332e-12
2.19524e-12
-2.305e-11
-2.63428e-11
-1.97571e-11
-1.20738e-11
-1.4269e-11
0
-2.19524e-12
-1.09762e-12
-1.09762e-11
1.09762e-12
-6.5857e-12
-1.09762e-12
-1.09762e-12
-2.19523e-12
0
-9.87856e-12
0
5.48809e-12
0.00482905
0.0142306
0.022885
0.0303684
0.0363585
0.0406569
0.0431961
0.0440338
0.0433338
0.0413392
0.0383413
0.0346488
0.0305603
0.0263424
0.0222158
0.018348
0.0148528
0.0117943
0.00919444
0.00704242
0.00530413
0.00393127
0.00286914
0.0020627
0.00146081
0.00101868
0.000698833
0.000470987
0.000311327
0.000201461
0.000127384
7.85641e-05
4.71904e-05
2.75714e-05
1.56542e-05
8.63173e-06
4.62081e-06
2.40139e-06
1.21178e-06
5.94006e-07
2.83045e-07
1.31209e-07
5.92615e-08
2.60981e-08
1.12133e-08
4.71317e-09
1.93181e-09
7.71625e-10
3.09528e-10
1.02078e-10
2.85381e-11
3.51238e-11
1.86595e-11
1.4269e-11
-5.48809e-12
5.48809e-12
3.29285e-12
5.48809e-12
-2.19523e-12
6.5857e-12
8.78094e-12
1.75619e-11
6.5857e-12
-7.68332e-12
1.09762e-12
-1.09762e-12
-1.09762e-12
1.09762e-12
2.19523e-12
-8.78094e-12
-1.31714e-11
-4.39047e-12
-6.5857e-12
-7.68332e-12
-1.09762e-12
0.00286247
0.00843448
0.0135613
0.017991
0.0215325
0.0240687
0.0255611
0.026045
0.0256187
0.0244271
0.0226433
0.0204507
0.0180262
0.0155277
0.0130857
0.0107991
0.00873485
0.00693052
0.00539866
0.00413234
0.0031109
0.00230531
0.00168283
0.00121064
0.000858366
0.000599527
0.000412084
0.000278322
0.000184369
0.000119541
7.57084e-05
4.67455e-05
2.80924e-05
1.64102e-05
9.30849e-06
5.12385e-06
2.73596e-06
1.41704e-06
7.12003e-07
3.47204e-07
1.64429e-07
7.56763e-08
3.38911e-08
1.47739e-08
6.29703e-09
2.61013e-09
1.08445e-09
4.17095e-10
1.63545e-10
6.0369e-11
3.62214e-11
3.40261e-11
2.19523e-11
-4.39047e-12
1.09762e-12
-4.39047e-12
-1.09762e-11
1.20738e-11
3.29285e-11
2.96357e-11
2.85381e-11
2.19523e-11
1.75619e-11
2.19524e-12
0
1.09762e-11
-2.19524e-12
0
0
5.48809e-12
8.78094e-12
0
9.87856e-12
2.19523e-12
-6.58571e-12
0.00167874
0.00494549
0.00794825
0.0105382
0.0126032
0.0140757
0.0149345
0.0152021
0.0149377
0.0142276
0.0131739
0.0118844
0.0104628
0.00900129
0.00757575
0.00624353
0.00504315
0.00399592
0.0031086
0.00237661
0.0017874
0.00132367
0.000966029
0.000695159
0.000493284
0.000344994
0.000237547
0.000160765
0.000106721
6.93351e-05
4.3988e-05
2.7196e-05
1.63569e-05
9.55665e-06
5.41839e-06
2.97909e-06
1.58777e-06
8.20217e-07
4.10754e-07
1.9945e-07
9.39967e-08
4.30079e-08
1.91315e-08
8.27165e-09
3.51018e-09
1.45544e-09
5.91616e-10
2.32695e-10
7.13451e-11
4.39047e-11
3.84166e-11
2.41476e-11
2.41476e-11
3.29285e-12
7.68332e-12
-2.41476e-11
-1.4269e-11
8.78094e-12
1.86595e-11
6.58571e-12
1.86595e-11
4.39047e-12
3.29285e-12
-1.09762e-12
-4.39047e-12
1.09762e-12
-1.09762e-12
1.20738e-11
0
0
2.08547e-11
9.87856e-12
6.58571e-12
4.39047e-12
0
0.000974072
0.00286853
0.00460698
0.00610207
0.00728877
0.00812876
0.00861132
0.00875126
0.0085845
0.00816221
0.0075444
0.00679371
0.00597007
0.00512648
0.00430632
0.00354212
0.00285549
0.00225812
0.00175338
0.00133816
0.00100488
0.000743294
0.000542074
0.000390014
0.000276871
0.000193834
0.000133664
9.06259e-05
6.02805e-05
3.92406e-05
2.49396e-05
1.54414e-05
9.29644e-06
5.43418e-06
3.08083e-06
1.69273e-06
9.01011e-07
4.64569e-07
2.32037e-07
1.12298e-07
5.27427e-08
2.40071e-08
1.06458e-08
4.61329e-09
1.95047e-09
8.27604e-10
3.35871e-10
1.63545e-10
6.25642e-11
3.07333e-11
3.7319e-11
3.95142e-11
4.60999e-11
5.1588e-11
2.63428e-11
2.08547e-11
1.86595e-11
2.63428e-11
2.19523e-12
-2.19523e-12
-5.48809e-12
-2.19523e-12
4.39047e-12
0
-3.29285e-12
0
4.39047e-12
-4.39047e-12
-2.19523e-12
-1.31714e-11
-5.48809e-12
6.5857e-12
-1.09762e-12
-5.48809e-12
2.19523e-12
0.000559165
0.00164579
0.00264047
0.0034922
0.00416368
0.00463376
0.00489764
0.00496532
0.00485878
0.00460834
0.00424895
0.00381663
0.00334551
0.00286551
0.00240094
0.0019698
0.00158388
0.00124936
0.000967708
0.000736834
0.000552174
0.000407738
0.000296992
0.000213542
0.000151592
0.000106193
7.33141e-05
4.97862e-05
3.31756e-05
2.16363e-05
1.3775e-05
8.5415e-06
5.14819e-06
3.01147e-06
1.70766e-06
9.37991e-07
4.98863e-07
2.56873e-07
1.28045e-07
6.18387e-08
2.89255e-08
1.31297e-08
5.79103e-09
2.52123e-09
1.07347e-09
4.57706e-10
1.82205e-10
7.4638e-11
6.14666e-11
3.62214e-11
4.71976e-11
5.1588e-11
4.50023e-11
3.62214e-11
2.19524e-12
2.19523e-11
2.52452e-11
2.19524e-11
1.64643e-11
9.87856e-12
-3.29285e-12
-1.09762e-12
-1.09762e-12
8.78094e-12
3.29285e-12
-1.09762e-12
0
-1.20738e-11
1.09762e-12
0
-1.64643e-11
-9.87856e-12
1.09762e-12
-7.68332e-12
0
0.00031753
0.000933899
0.00149618
0.00197478
0.00234856
0.00260617
0.00274599
0.00277489
0.00270639
0.00255843
0.00235118
0.00210511
0.00183933
0.0015704
0.0013116
0.00107265
0.000859773
0.000676069
0.000522072
0.000396376
0.000296262
0.000218274
0.00015871
0.000113983
8.0877e-05
5.66666e-05
3.91528e-05
2.66215e-05
1.77672e-05
1.16069e-05
7.40176e-06
4.59633e-06
2.7736e-06
1.62379e-06
9.21174e-07
5.06008e-07
2.68996e-07
1.384e-07
6.8915e-08
3.32479e-08
1.55049e-08
7.02365e-09
3.05357e-09
1.31714e-09
5.71859e-10
2.39281e-10
8.23213e-11
3.7319e-11
3.18309e-11
3.84166e-11
2.08547e-11
2.96357e-11
9.87856e-12
-4.39047e-12
-1.4269e-11
-2.305e-11
3.29285e-12
1.09762e-11
2.19523e-11
1.31714e-11
-2.19524e-12
-1.86595e-11
-5.48809e-12
0
5.48809e-12
0
-1.09762e-12
0
6.58571e-12
1.53666e-11
5.48809e-12
-5.48809e-12
-8.78094e-12
1.09762e-12
-4.39047e-12
0.000178335
0.000524007
0.000837947
0.00110307
0.00130756
0.00144555
0.00151694
0.00152646
0.00148247
0.00139553
0.0012772
0.00113892
0.000991192
0.000842981
0.000701363
0.000571415
0.000456298
0.000357483
0.000275068
0.000208129
0.000155071
0.000113933
8.26527e-05
5.92614e-05
4.20081e-05
2.94253e-05
2.03387e-05
1.38417e-05
9.24973e-06
6.05147e-06
3.86482e-06
2.40331e-06
1.45195e-06
8.50797e-07
4.82957e-07
2.65365e-07
1.41063e-07
7.25361e-08
3.60962e-08
1.73808e-08
8.09493e-09
3.64848e-09
1.58386e-09
6.7284e-10
2.82088e-10
1.05371e-10
4.93928e-11
4.39047e-11
1.4269e-11
2.63428e-11
-4.39047e-12
-4.39047e-12
-2.19523e-12
-1.4269e-11
5.48809e-12
3.29285e-12
1.20738e-11
2.85381e-11
1.97571e-11
2.305e-11
9.87856e-12
4.39047e-12
2.305e-11
-1.09762e-12
0
-4.39047e-12
-1.09762e-12
-1.09762e-12
0
6.5857e-12
8.78094e-12
-2.19523e-12
-4.39047e-12
8.78094e-12
0
9.90237e-05
0.000290621
0.000463674
0.000608388
0.000718243
0.00079035
0.000825206
0.000826053
0.00079803
0.000747343
0.000680531
0.000603897
0.000523091
0.000442838
0.000366796
0.000297527