/*--------------------------------*- C++ -*----------------------------------*\
  =========                 |
  \\      /  F ield         | OpenFOAM: The Open Source CFD Toolbox
   \\    /   O peration     | Website:  https://openfoam.org
    \\  /    A nd           | Version:  10
     \\/     M anipulation  |
\*---------------------------------------------------------------------------*/
FoamFile
{
    format      ascii;
    class       volScalarField;
    location    "121";
    object      gradTx;
}
// * * * * * * * * * * * * * * * * * * * * * * * * * * * * * * * * * * * * * //

dimensions      [0 -1 0 1 0 0 0];

internalField   nonuniform List<scalar> 
11250
(
14258
7980.04
5108.85
3556.09
2597.65
1948.1
1479.97
1129.47
861.198
653.625
492.514
367.747
271.712
198.442
143.143
101.916
71.5862
49.587
33.8628
22.7926
15.1182
9.88066
6.36217
4.03579
2.52194
1.55243
0.941327
0.562179
0.330583
0.19127
0.108732
0.0605832
0.0329649
0.0174338
0.00891263
0.00437995
0.00205863
0.000921578
0.000391762
0.000157844
6.02233e-05
2.17567e-05
7.44635e-06
2.41675e-06
7.44722e-07
2.18231e-07
6.08969e-08
1.62052e-08
4.13033e-09
1.012e-09
2.43671e-10
3.84166e-11
1.75619e-11
0
1.09762e-12
0
1.09762e-12
-2.19524e-12
0
2.19524e-12
0
1.09762e-12
0
-2.19524e-11
9.87856e-12
-1.09762e-12
-1.09762e-12
0
1.09762e-12
0
-5.48809e-12
0
-7.68332e-12
0
-9.87856e-12
4054.38
4580.42
3801.92
2976.97
2306.91
1786.89
1383.72
1068.88
821.642
627.161
474.532
355.422
263.233
192.611
139.146
99.1903
69.7419
48.3499
33.0413
22.253
14.7679
9.656
6.2199
3.94686
2.46709
1.51904
0.92129
0.550334
0.323706
0.187371
0.106592
0.0594617
0.0324137
0.0171861
0.00881479
0.00434881
0.00205297
0.000923368
0.000394432
0.000159699
6.12267e-05
2.22241e-05
7.64128e-06
2.49102e-06
7.70923e-07
2.26819e-07
6.354e-08
1.6979e-08
4.33339e-09
1.05152e-09
2.17328e-10
4.50023e-11
-4.39047e-12
8.78094e-12
-1.31714e-11
-6.5857e-12
-1.4269e-11
0
-4.39047e-12
0
0
-1.09762e-12
0
2.41476e-11
5.48809e-12
0
-1.09762e-12
1.09762e-12
-1.09762e-12
0
-8.78094e-12
0
8.78094e-12
2.19523e-12
0
1435.87
2492.38
2552.7
2257.89
1883.96
1528.66
1220.1
961.946
750.081
578.474
441.059
332.282
247.213
181.539
131.526
93.9805
66.208
45.9749
31.4617
21.2141
14.0927
9.22252
5.94518
3.77503
2.36104
1.45449
0.882544
0.527431
0.310408
0.179823
0.102436
0.0572681
0.0313203
0.0166818
0.00860574
0.00427493
0.00203368
0.000922255
0.000397326
0.000162258
6.27393e-05
2.29637e-05
7.95983e-06
2.61531e-06
8.15544e-07
2.41704e-07
6.81939e-08
1.83566e-08
4.71207e-09
1.14262e-09
2.67819e-10
5.81737e-11
1.97571e-11
8.78094e-12
0
-2.19523e-12
0
4.39047e-12
0
-2.19524e-12
0
0
0
-1.4269e-11
-1.09762e-11
2.19524e-12
3.29285e-12
2.19523e-12
0
0
3.29285e-12
8.78094e-12
0
-1.09762e-12
8.78094e-12
634.902
1407.3
1669.49
1632.31
1459.57
1242.81
1026.31
829.195
658.263
514.513
396.321
300.955
225.313
166.29
120.971
86.7295
61.2708
42.6467
29.2424
19.7513
13.1403
8.61025
5.55669
3.5318
2.21082
1.36299
0.827612
0.494957
0.291542
0.169093
0.0965001
0.0541013
0.0297112
0.0159148
0.0082696
0.00414346
0.00199035
0.000912093
0.000397254
0.000164037
6.41339e-05
2.37323e-05
8.31482e-06
2.76059e-06
8.69587e-07
2.60256e-07
7.41298e-08
2.01149e-08
5.19941e-09
1.26775e-09
3.10626e-10
6.80523e-11
3.29285e-12
-7.68332e-12
1.31714e-11
5.48809e-12
1.4269e-11
-4.39047e-12
5.48809e-12
6.58571e-12
0
-2.19523e-12
0
-1.09762e-12
-4.39047e-12
3.29285e-12
0
1.09762e-12
0
2.19524e-12
5.48809e-12
0
-1.09762e-12
-1.09762e-12
-5.48809e-12
333.509
838.839
1095.92
1155.9
1095.45
974.784
832.248
689.639
558.191
442.894
345.193
264.592
199.583
148.204
108.357
78.011
55.3051
38.6088
26.5408
17.9656
11.9749
7.85953
5.07952
3.23262
2.02583
1.25022
0.759861
0.454875
0.268225
0.155792
0.0890923
0.0501013
0.027637
0.0148946
0.00780095
0.00394643
0.00191681
0.000889152
0.000392298
0.000164166
6.50557e-05
2.4399e-05
8.66228e-06
2.91336e-06
9.29303e-07
2.81517e-07
8.11128e-08
2.22597e-08
5.83603e-09
1.47081e-09
3.53433e-10
8.23213e-11
2.19523e-12
-9.87856e-12
0
5.48809e-12
1.09762e-12
-8.78094e-12
-5.48809e-12
0
0
0
0
1.86595e-11
0
-1.09762e-12
-1.09762e-12
-3.29285e-12
0
-1.09762e-12
-9.87856e-12
-1.20738e-11
-7.68332e-12
-1.09762e-12
-1.09762e-12
195.824
524.575
729.011
812.564
806.647
745.436
656.024
556.916
459.546
370.304
292.235
226.278
172.104
128.677
94.6191
68.4479
48.723
34.1319
23.5332
15.9709
10.6692
7.01636
4.54244
2.89526
1.8169
1.12268
0.683139
0.409419
0.241723
0.140611
0.0805762
0.0454482
0.0251814
0.0136573
0.00721436
0.00368939
0.00181518
0.000854305
0.000382858
0.000162841
6.56023e-05
2.50098e-05
9.02237e-06
3.08184e-06
9.97778e-07
3.0661e-07
8.95447e-08
2.48929e-08
6.58571e-09
1.67167e-09
3.99533e-10
9.87856e-11
2.63428e-11
-3.29285e-12
-1.09762e-12
0
-1.09762e-12
2.19524e-12
1.09762e-12
-6.58571e-12
1.09762e-12
2.19523e-12
1.09762e-12
0
-1.09762e-12
-4.39047e-12
0
0
0
-2.19524e-12
4.39047e-12
1.09762e-12
-4.39047e-12
0
0
122.879
340.052
491.694
570.232
586.896
559.615
505.696
438.867
368.806
301.702
241.087
188.621
144.711
108.986
80.6335
58.6361
41.9255
29.4832
20.3958
13.8819
9.2972
6.12773
3.97495
2.53799
1.59521
0.9871
0.601441
0.360914
0.213359
0.12429
0.0713559
0.0403595
0.0224606
0.0122649
0.00654247
0.00338924
0.00169389
0.00081156
0.000370726
0.000160813
6.60662e-05
2.56707e-05
9.43087e-06
3.27722e-06
1.07826e-06
3.36354e-07
9.96242e-08
2.80463e-08
7.50331e-09
1.90876e-09
4.58804e-10
1.13055e-10
2.305e-11
0
0
-9.87856e-12
-1.09762e-12
-7.68332e-12
4.39047e-12
-4.39047e-12
0
-2.19523e-12
1.09762e-12
-5.48809e-12
2.19523e-12
2.19524e-12
0
0
-1.20738e-11
1.09762e-12
1.31714e-11
2.19524e-12
0
-7.68332e-12
0
80.1701
225.918
335.279
400.1
423.413
414.153
382.78
338.743
289.462
240.184
194.258
153.547
118.832
90.1627
67.133
49.0865
35.2638
24.9005
17.2875
11.8032
7.9269
5.23732
3.40471
2.17808
1.37136
0.84992
0.518599
0.311609
0.184435
0.107571
0.061853
0.0350733
0.0196075
0.0107894
0.00582267
0.00306395
0.00156073
0.000763813
0.000356753
0.000158213
6.63959e-05
2.63192e-05
9.84909e-06
3.48075e-06
1.16288e-06
3.67787e-07
1.103e-07
3.1438e-08
8.51861e-09
2.18316e-09
5.46614e-10
1.24031e-10
3.95142e-11
3.29285e-12
1.09762e-12
4.39047e-12
2.305e-11
3.29285e-12
-3.29285e-12
0
0
0
-3.29285e-12
0
0
0
7.68332e-12
-1.09762e-12
0
1.09762e-12
-1.09762e-12
0
6.5857e-12
0
4.39047e-12
53.5032
152.44
230.26
280.551
303.332
302.868
285.276
256.779
222.733
187.247
153.173
122.269
95.434
72.9457
54.6624
40.1915
29.0145
20.5753
14.3382
9.82202
6.61564
4.3823
2.85544
1.83047
1.15463
0.716791
0.438016
0.263525
0.156137
0.0911475
0.0524677
0.0298166
0.0167457
0.00929305
0.00508196
0.0027223
0.00141646
0.000709313
0.000339036
0.000153709
6.58319e-05
2.65791e-05
1.01102e-05
3.62498e-06
1.22658e-06
3.92314e-07
1.18829e-07
3.41699e-08
9.34072e-09
2.42244e-09
5.99299e-10
1.37202e-10
2.74404e-11
3.29285e-12
0
8.78094e-12
1.4269e-11
1.4269e-11
-4.39047e-12
4.39047e-12
-1.09762e-12
2.19523e-12
8.78094e-12
0
-1.09762e-12
0
1.4269e-11
2.19523e-12
1.31714e-11
-1.09762e-12
2.19523e-12
5.48809e-12
6.58571e-12
8.78094e-12
2.19524e-12
36.1574
103.764
158.688
196.346
215.846
219.121
209.681
191.513
168.334
143.2
118.377
95.3726
75.0503
57.7779
43.5701
32.2141
23.3697
16.6442
11.6434
8.00318
5.4069
3.59129
2.34567
1.50693
0.95239
0.592259
0.362451
0.218316
0.129449
0.0755982
0.043536
0.0247768
0.0139714
0.00781755
0.0043323
0.00236255
0.00125509
0.000642293
0.00031351
0.0001449
6.3129e-05
2.58703e-05
9.96779e-06
3.61358e-06
1.23439e-06
3.98062e-07
1.21436e-07
3.51018e-08
9.65464e-09
2.5355e-09
6.22349e-10
1.48178e-10
2.305e-11
1.4269e-11
0
-5.48809e-12
-1.97571e-11
-1.09762e-12
2.19523e-12
-1.09762e-12
-1.09762e-12
0
1.09762e-12
-1.09762e-12
-1.09762e-12
-1.09762e-12
-6.58571e-12
0
-1.09762e-12
0
1.09762e-12
0
-6.58571e-12
0
1.09762e-12
24.5803
70.8945
109.398
136.938
152.507
156.911
152.141
140.706
125.119
107.571
89.781
72.9586
57.8556
44.8469
34.0261
25.2947
18.4392
13.1895
9.26231
6.38853
4.3294
2.88357
1.88811
1.21568
0.769842
0.479565
0.293894
0.177185
0.105094
0.0613532
0.0353085
0.0200934
0.0113549
0.00639203
0.00358066
0.00198189
0.00107115
0.000557904
0.000276877
0.00012988
5.7316e-05
2.37461e-05
9.2342e-06
3.37383e-06
1.16013e-06
3.76199e-07
1.15307e-07
3.34631e-08
9.22548e-09
2.44e-09
6.05885e-10
1.51471e-10
4.93928e-11
8.78094e-12
2.19523e-12
1.09762e-12
-1.4269e-11
0
4.39047e-12
-1.09762e-12
3.29285e-12
1.4269e-11
-8.78094e-12
0
0
-9.87856e-12
-3.7319e-11
-1.09762e-12
0
0
-3.29285e-12
-5.48809e-12
0
-2.19523e-12
-3.29285e-12
16.7322
48.4352
75.2429
95.0289
106.925
111.22
109.029
101.915
91.5464
79.4525
66.8898
54.7883
43.7595
34.1409
26.055
19.4712
14.2612
10.2445
7.22178
4.99831
3.39781
2.26945
1.48975
0.961377
0.610023
0.380645
0.233557
0.140887
0.0835336
0.0486956
0.0279571
0.0158689
0.00895559
0.00504926
0.00284396
0.00158844
0.00086821
0.000457589
0.000229661
0.000108819
4.84404e-05
2.02172e-05
7.9109e-06
2.90553e-06
1.00351e-06
3.26654e-07
1.00445e-07
2.92636e-08
8.09603e-09
2.15353e-09
5.63078e-10
1.60252e-10
4.50023e-11
7.68332e-12
2.19524e-12
-1.09762e-12
-3.29285e-12
0
-1.09762e-12
2.19524e-12
0
-1.09762e-12
5.48809e-12
0
-1.09762e-11
-5.48809e-12
-2.19524e-12
-1.09762e-12
0
1.09762e-12
0
0
4.39047e-12
0
1.09762e-12
11.3673
32.9955
51.5212
65.5246
74.3363
78.0148
77.1837
72.8078
65.9781
57.7415
48.9924
40.4196
32.4983
25.5093
19.5757
14.7029
10.8181
7.80338
5.52163
3.83465
2.61486
1.75143
1.15265
0.745552
0.474025
0.296258
0.18196
0.109771
0.0650046
0.0377852
0.0215928
0.012183
0.00683256
0.00383353
0.00215481
0.00120502
0.000661194
0.00035035
0.000176861
8.42713e-05
3.77041e-05
1.5807e-05
6.20932e-06
2.28826e-06
7.92628e-07
2.58666e-07
7.97265e-08
2.32871e-08
6.46497e-09
1.72655e-09
4.68683e-10
1.33909e-10
3.51238e-11
1.64643e-11
2.19524e-12
0
1.09762e-12
-8.78094e-12
-7.68332e-12
-3.29285e-12
-1.09762e-12
-1.4269e-11
1.09762e-12
-1.20738e-11
-1.09762e-12
1.09762e-11
2.305e-11
-2.19523e-12
0
0
-1.09762e-12
-4.39047e-12
-8.78094e-12
1.09762e-12
6.58571e-12
7.68818
22.3634
35.06
44.8372
51.2067
54.1378
53.9758
51.3138
46.8575
41.3111
35.2974
29.3127
23.7124
18.7184
14.4393
10.8969
8.05284
5.83199
4.14178
2.88601
1.97401
1.32592
0.874872
0.567202
0.361359
0.226194
0.139037
0.0838446
0.0495473
0.0286746
0.0162708
0.00909031
0.00503764
0.00279147
0.00155201
0.000861154
0.000470474
0.000248931
0.00012572
5.99938e-05
2.68955e-05
1.12998e-05
4.44819e-06
1.64255e-06
5.70032e-07
1.86324e-07
5.75195e-08
1.68034e-08
4.6528e-09
1.23153e-09
3.227e-10
8.01261e-11
2.08547e-11
2.305e-11
-4.39047e-12
0
4.39047e-12
0
1.09762e-12
0
-1.09762e-12
-1.09762e-12
-6.5857e-12
0
1.20738e-11
8.78094e-12
2.19523e-12
0
-1.09762e-12
-2.19523e-12
-6.5857e-12
4.39047e-12
0
0
0
5.16684
15.0545
23.6771
30.4157
34.9264
37.1524
37.2836
35.6824
32.8013
29.1075
25.0263
20.9069
17.0075
13.4959
10.4615
7.9306
5.88513
4.27846
3.04923
2.13164
1.46243
0.985053
0.651652
0.423489
0.27036
0.169496
0.104259
0.0628282
0.0370253
0.0213081
0.0119802
0.00660457
0.00359704
0.00195346
0.00106422
0.000580149
0.000312769
0.000164047
8.24294e-05
3.92357e-05
1.75733e-05
7.3835e-06
2.90829e-06
1.07493e-06
3.7345e-07
1.22224e-07
3.77888e-08
1.10409e-08
3.05467e-09
7.91382e-10
1.80009e-10
1.20738e-11
-2.08547e-11
-9.87856e-12
-1.53666e-11
-1.09762e-12
0
7.68332e-12
8.78094e-12
6.58571e-12
1.09762e-12
-4.39047e-12
0
1.31714e-11
9.87856e-12
0
-1.09762e-12
2.19523e-12
-4.39047e-12
0
-7.68332e-12
3.29285e-12
8.78094e-12
9.87856e-12
-3.29285e-12
3.44524
10.0518
15.8501
20.4358
23.5726
25.2041
25.4335
24.4817
22.6361
20.2028
17.4675
14.671
11.9958
9.56503
7.44803
5.67011
4.22427
3.08228
2.2042
1.54578
1.06364
0.718422
0.476502
0.31041
0.198587
0.124698
0.0767535
0.0462139
0.0271493
0.0155262
0.0086381
0.00468781
0.00249872
0.00132125
0.000699072
0.000370633
0.000195259
0.00010069
5.00223e-05
2.36424e-05
1.05458e-05
4.42127e-06
1.73988e-06
6.42968e-07
2.23483e-07
7.32133e-08
2.26603e-08
6.64937e-09
1.84839e-09
4.80756e-10
9.98832e-11
-4.39047e-12
-2.52452e-11
-2.63428e-11
-1.09762e-12
-4.39047e-12
-4.39047e-12
0
8.78094e-12
-1.09762e-12
0
1.09762e-12
0
-2.19524e-12
5.48809e-12
-4.39047e-12
-1.09762e-12
-1.09762e-12
0
1.09762e-12
-4.39047e-12
-7.68332e-12
-2.19524e-12
2.19523e-12
5.48809e-12
2.27666
6.64966
10.5078
13.589
15.7341
16.8962
17.131
16.5721
15.4009
13.8154
12.0048
10.1319
8.32303
6.66604
5.21251
3.98398
2.97915
2.18135
1.56504
1.10092
0.759715
0.514538
0.342146
0.223409
0.143219
0.0900632
0.0554637
0.0333603
0.0195325
0.0110969
0.00610656
0.00325926
0.00169675
0.00086995
0.000443936
0.000226773
0.000115556
5.80387e-05
2.82929e-05
1.32039e-05
5.84249e-06
2.43748e-06
9.56543e-07
3.52989e-07
1.22613e-07
4.01926e-08
1.24371e-08
3.66824e-09
1.02408e-09
2.64526e-10
5.48809e-11
3.51238e-11
3.29285e-11
1.86595e-11
1.64643e-11
2.19523e-12
1.09762e-12
3.29285e-12
0
-2.19523e-12
-2.19523e-12
5.48809e-12
1.09762e-12
0
-9.87856e-12
-1.09762e-12
0
-3.29285e-12
4.39047e-12
-1.09762e-12
-3.29285e-12
5.48809e-12
-3.29285e-12
-9.87856e-12
-1.09762e-12
1.48954
4.3546
6.89332
8.93731
10.3811
11.1891
11.3909
11.067
10.3309
9.30914
8.12537
6.88777
5.68214
4.56947
3.58702
2.75174
2.06492
1.51698
1.0918
0.770299
0.533053
0.361974
0.241281
0.157888
0.101391
0.0638265
0.0393052
0.0236029
0.0137663
0.00776743
0.004228
0.00222002
0.00112892
0.000560662
0.000274966
0.000134406
6.56228e-05
3.17793e-05
1.50651e-05
6.89306e-06
3.00991e-06
1.24509e-06
4.86021e-07
1.78784e-07
6.19759e-08
2.02917e-08
6.26959e-09
1.82644e-09
5.21368e-10
1.26226e-10
1.75619e-11
2.41476e-11
3.18309e-11
1.75619e-11
-2.19524e-12
5.48809e-12
-1.09762e-12
-2.19524e-12
-9.87856e-12
0
0
-4.39047e-12
0
2.19524e-12
-4.39047e-12
1.09762e-12
8.78094e-12
4.39047e-12
0
0
9.87856e-12
1.20738e-11
5.48809e-12
-5.48809e-12
-4.39047e-12
0.964164
2.82085
4.47206
5.81055
6.76754
7.31747
7.4757
7.29061
6.83242
6.18136
5.41694
4.61002
3.81774
3.0816
2.42771
1.86879
1.40696
1.03687
0.748496
0.529602
0.367481
0.250167
0.167127
0.109564
0.0704428
0.0443551
0.0272846
0.0163381
0.00948168
0.0053091
0.00285813
0.00147746
0.00073501
0.000354178
0.000166998
7.78991e-05
3.6203e-05
1.67482e-05
7.64533e-06
3.40014e-06
1.45526e-06
5.93938e-07
2.298e-07
8.40577e-08
2.90759e-08
9.4911e-09
2.93832e-09
8.48458e-10
2.37085e-10
3.95142e-11
1.64643e-11
-4.39047e-12
9.87856e-12
1.09762e-12
8.78094e-12
-2.19523e-12
-1.09762e-12
-1.09762e-12
-1.09762e-12
2.19524e-12
-1.09762e-12
-8.78094e-12
-1.09762e-12
0
-8.78094e-12
-9.87856e-12
0
2.19523e-12
4.39047e-12
1.09762e-12
1.31714e-11
-4.39047e-12
3.29285e-12
-1.09762e-12
-1.09762e-12
0.617066
1.80652
2.86761
3.73272
4.35762
4.72464
4.84162
4.73738
4.45507
4.04489
3.55738
3.03822
2.52483
2.04489
1.61625
1.24808
0.942513
0.696638
0.504328
0.357823
0.24894
0.169882
0.113732
0.0746748
0.0480404
0.0302262
0.018546
0.0110541
0.00637126
0.00353465
0.00188028
0.000957125
0.000466579
0.000218788
9.95055e-05
4.43667e-05
1.95859e-05
8.60137e-06
3.74712e-06
1.60455e-06
6.67572e-07
2.6705e-07
1.01935e-07
3.69623e-08
1.2706e-08
4.13143e-09
1.28751e-09
3.84166e-10
8.8907e-11
1.4269e-11
2.41476e-11
2.19523e-12
6.5857e-12
-5.48809e-12
4.39047e-12
3.29285e-12
1.86595e-11
0
2.19523e-12
0
0
-6.5857e-12
-1.09762e-12
3.29285e-12
0
-1.09762e-12
-7.68332e-12
0
0
1.09762e-12
-4.39047e-12
-8.78094e-12
0
0
-5.48809e-12
0.39028
1.14322
1.81668
2.36849
2.77057
3.01108
3.09391
3.0361
2.86394
2.60849
2.30145
1.97185
1.6438
1.3354
1.05861
0.819801
0.62081
0.460103
0.33398
0.237591
0.16573
0.113387
0.0760821
0.0500339
0.0321996
0.0202283
0.0123627
0.00732004
0.00418034
0.00229247
0.00120279
0.000602382
0.000287936
0.000131722
5.80243e-05
2.4838e-05
1.04396e-05
4.34447e-06
1.79529e-06
7.33831e-07
2.94143e-07
1.14416e-07
4.28345e-08
1.53216e-08
5.18954e-09
1.67716e-09
5.03806e-10
1.35007e-10
3.62214e-11
2.74404e-11
1.4269e-11
1.53666e-11
-1.20738e-11
-1.31714e-11
-1.09762e-11
-1.09762e-12
9.87856e-12
0
0
-2.19524e-12
3.29285e-12
8.78094e-12
0
-1.86595e-11
8.78094e-12
1.09762e-11
0
1.09762e-12
-4.39047e-12
0
-1.20738e-11
0
0
-3.29285e-12
2.19524e-12
0.243843
0.714615
1.13667
1.48396
1.73893
1.89382
1.95049
1.91896
1.81507
1.65782
1.46688
1.2604
1.05368
0.858346
0.682238
0.529681
0.402095
0.298724
0.217368
0.155033
0.108445
0.0744168
0.0500806
0.0330117
0.0212638
0.0133381
0.00811359
0.00476509
0.00269027
0.00145451
0.00075074
0.000369183
0.000172894
7.72377e-05
3.30557e-05
1.36491e-05
5.48806e-06
2.16927e-06
8.487e-07
3.29158e-07
1.26047e-07
4.72502e-08
1.72041e-08
6.02812e-09
2.02071e-09
6.47594e-10
1.89888e-10
4.17095e-11
1.97571e-11
1.86595e-11
0
8.78094e-12
-4.39047e-12
1.20738e-11
2.19524e-12
-2.19523e-12
-1.86595e-11
-7.68332e-12
-1.09762e-12
0
-1.09762e-12
1.09762e-11
1.09762e-12
-2.19524e-12
-1.09762e-12
-4.39047e-12
9.87856e-12
-1.09762e-12
2.19524e-12
-2.19524e-12
3.29285e-12
0
-2.19524e-12
3.29285e-12
-8.78094e-12
0.150452
0.441112
0.702221
0.917885
1.07725
1.17535
1.21302
1.1961
1.13405
1.03839
0.921135
0.793509
0.665049
0.543099
0.432685
0.33667
0.256102
0.190644
0.139017
0.0993967
0.0697434
0.0480424
0.0324707
0.0214903
0.013878
0.00870306
0.0052722
0.00307002
0.00171128
0.000910239
0.000460983
0.000222006
0.000101654
4.4311e-05
1.84441e-05
7.36969e-06
2.84793e-06
1.07387e-06
3.98435e-07
1.46278e-07
5.31576e-08
1.9047e-08
6.6779e-09
2.26768e-09
7.54063e-10
2.41476e-10
8.67118e-11
3.18309e-11
9.87856e-12
1.31714e-11
-6.5857e-12
-1.4269e-11
4.39047e-12
0
-2.19523e-12
5.48809e-12
-7.68332e-12
1.20738e-11
1.09762e-12
0
1.09762e-12
-2.19523e-12
-1.09762e-12
1.31714e-11
0
1.31714e-11
0
-2.19523e-12
0
1.09762e-12
4.39047e-12
-2.19523e-12
0
2.19523e-12
-1.09762e-12
0.0916606
0.268845
0.428309
0.560459
0.658671
0.719806
0.744212
0.735263
0.698568
0.641028
0.569911
0.492059
0.413329
0.338272
0.270045
0.210496
0.160369
0.119549
0.087313
0.062569
0.0440536
0.0304965
0.0207409
0.0138177
0.00897094
0.00563881
0.00340868
0.00197048
0.00108482
0.000567333
0.000281501
0.000132486
5.91778e-05
2.51233e-05
1.01636e-05
3.93397e-06
1.46538e-06
5.29227e-07
1.86841e-07
6.49779e-08
2.23387e-08
7.60868e-09
2.5344e-09
8.25408e-10
2.79892e-10
9.87856e-11
4.28071e-11
8.78094e-12
1.20738e-11
1.20738e-11
-1.53666e-11
-2.74404e-11
-2.08547e-11
-8.78094e-12
-1.75619e-11
6.5857e-12
1.09762e-12
1.09762e-11
0
-1.09762e-12
1.09762e-12
0
-1.09762e-12
4.39047e-12
3.29285e-12
4.39047e-12
-9.87856e-12
0
-1.09762e-12
1.09762e-12
1.09762e-12
1.09762e-12
0
1.09762e-12
1.31714e-11
0.0551465
0.161807
0.257965
0.337895
0.397593
0.435105
0.450546
0.44585
0.424316
0.390048
0.347401
0.300499
0.252887
0.207333
0.165775
0.129376
0.0986463
0.0735765
0.0537764
0.0386019
0.0272755
0.0189959
0.0130275
0.00876155
0.0057375
0.00362674
0.00219454
0.00126287
0.000688208
0.000354423
0.000172418
7.92886e-05
3.45172e-05
1.42542e-05
5.59877e-06
2.099e-06
7.54628e-07
2.61741e-07
8.8243e-08
2.91461e-08
9.50427e-09
3.06784e-09
9.63708e-10
3.0404e-10
1.03176e-10
4.71976e-11
5.48809e-12
8.78094e-12
1.53666e-11
8.78094e-12
4.39047e-12
-7.68332e-12
-1.86595e-11
-3.29285e-12
4.39047e-12
-4.39047e-12
0
-3.29285e-12
-2.19523e-12
2.19524e-12
-1.09762e-12
2.19523e-12
0
6.58571e-12
-2.19523e-12
-1.31714e-11
2.19524e-12
1.09762e-12
0
-1.09762e-12
7.68332e-12
3.29285e-12
0
3.29285e-12
-4.39047e-12
0.0327831
0.0962243
0.15351
0.201258
0.237072
0.259742
0.269282
0.266792
0.2542
0.233936
0.208593
0.180637
0.152192
0.124912
0.0999578
0.0780385
0.0594876
0.0443379
0.0323877
0.0232637
0.01649
0.0115608
0.00800802
0.0054502
0.00361026
0.00230202
0.00139883
0.000804044
0.000435248
0.000221491
0.000105973
4.77387e-05
2.02921e-05
8.16042e-06
3.11414e-06
1.1316e-06
3.93148e-07
1.31238e-07
4.2368e-08
1.33229e-08
4.13582e-09
1.27653e-09
4.03923e-10
1.37202e-10
4.50023e-11
2.63428e-11
9.87856e-12
3.51238e-11
1.86595e-11
3.29285e-12
6.5857e-12
8.78094e-12
7.68332e-12
0
1.31714e-11
-6.5857e-12
-1.09762e-12
-3.29285e-12
1.09762e-12
2.19523e-12
-1.09762e-12
-2.19523e-12
2.19523e-12
-1.20738e-11
-3.29285e-12
-1.09762e-12
0
1.09762e-12
1.09762e-12
0
-7.68332e-12
0
-4.39047e-12
-1.4269e-11
-1.09762e-12
0.0192774
0.0566002
0.090348
0.118539
0.139748
0.153236
0.158977
0.157595
0.150213
0.138263
0.123288
0.10676
0.0899422
0.0738116
0.0590444
0.0460549
0.0350478
0.0260607
0.0189923
0.0136289
0.00968082
0.00683059
0.00478204
0.00329781
0.00221338
0.00142645
0.000872525
0.000502442
0.00027115
0.000136918
6.47225e-05
2.86939e-05
1.1962e-05
4.7035e-06
1.75013e-06
6.18405e-07
2.08293e-07
6.71533e-08
2.08185e-08
6.23886e-09
1.81875e-09
5.33442e-10
1.72326e-10
6.14666e-11
1.97571e-11
9.87856e-12
3.51238e-11
3.95142e-11
2.08547e-11
-1.09762e-12
-1.97571e-11
3.29285e-12
-1.09762e-12
-8.78094e-12
-4.39047e-12
0
0
-7.68332e-12
4.39047e-12
-3.29285e-12
0
-1.09762e-12
-5.48809e-12
-2.08547e-11
2.19523e-12
0
-2.19524e-12
-3.29285e-12
1.09762e-12
-1.09762e-12
1.09762e-12
-2.19524e-12
0
0
1.31714e-11
0.0112302
0.0329777
0.0526543
0.0691055
0.0814937
0.0893743
0.0927184
0.0918789
0.0875085
0.0804508
0.0716235
0.061907
0.0520538
0.0426342
0.0340318
0.026475
0.0200776
0.0148653
0.0107856
0.00771627
0.00548275
0.00388873
0.00275002
0.00192143
0.00130692
0.000851787
0.000525078
0.000303505
0.000163752
8.23541e-05
3.86361e-05
1.69439e-05
6.966e-06
2.69344e-06
9.82797e-07
3.39631e-07
1.11528e-07
3.49525e-08
1.04691e-08
3.01735e-09
8.12237e-10
2.03059e-10
4.06118e-11
8.78094e-12
1.97571e-11
2.41476e-11
3.29285e-11
1.4269e-11
2.41476e-11
-2.19523e-12
-8.78094e-12
2.19524e-12
-2.19523e-12
1.09762e-12
0
-1.09762e-12
0
0
-1.09762e-12
0
0
3.29285e-12
-1.09762e-12
7.68332e-12
0
-1.09762e-12
0
0
6.58571e-12
4.39047e-12
6.5857e-12
-1.97571e-11
2.19524e-12
1.09762e-11
0
0.0064941
0.0190643
0.0304223
0.0398979
0.0470089
0.0515018
0.0533613
0.0527908
0.0501681
0.0459871
0.0407923
0.0351112
0.0293922
0.0239668
0.0190461
0.0147464
0.0111218
0.00818241
0.00589764
0.00419669
0.00297609
0.00211762
0.00151024
0.00106769
0.00073524
0.000484341
0.000300919
0.000174747
9.44272e-05
4.7425e-05
2.21599e-05
9.65511e-06
3.93426e-06
1.50425e-06
5.41514e-07
1.84177e-07
5.93646e-08
1.82172e-08
5.32564e-09
1.47849e-09
3.84166e-10
7.68332e-11
-2.19523e-12
-1.09762e-12
-2.19523e-12
4.39047e-12
2.19523e-12
-1.4269e-11
-1.09762e-12
3.29285e-12
1.20738e-11
-4.39047e-12
1.64643e-11
1.20738e-11
0
0
8.78094e-12
0
-1.09762e-12
-2.19523e-12
-1.09762e-12
1.09762e-12
4.39047e-12
1.86595e-11
1.09762e-12
0
-1.09762e-12
1.31714e-11
0
1.09762e-12
-7.68332e-12
0
0
0
-7.68332e-12
0.00373782
0.0109586
0.0174468
0.0228134
0.0267941
0.0292616
0.0302215
0.0297965
0.0282039
0.0257282
0.022688
0.0193965
0.0161198
0.0130489
0.0102962
0.00791514
0.00592446
0.00432245
0.00308848
0.00218087
0.00153966
0.00109629
0.000786637
0.000561544
0.000390816
0.000259894
0.000162644
9.49016e-05
5.14062e-05
2.58259e-05
1.20477e-05
5.2313e-06
2.12076e-06
8.0537e-07
2.87473e-07
9.67693e-08
3.08112e-08
9.3067e-09
2.67928e-09
7.26623e-10
1.75619e-10
3.7319e-11
-4.39047e-12
-1.75619e-11
-3.62214e-11
-4.39047e-11
-3.29285e-11
-2.74404e-11
-2.52452e-11
-1.09762e-11
3.29285e-12
-2.08547e-11
-8.78094e-12
-6.58571e-12
1.09762e-12
3.29285e-12
7.68332e-12
-1.20738e-11
-1.09762e-12
2.19524e-12
-1.09762e-12
-5.48809e-12
-3.29285e-12
0
0
2.19524e-12
1.09762e-12
0
-8.78094e-12
4.39047e-12
1.09762e-12
2.41476e-11
2.19524e-12
4.39047e-12
0
0.00215051
0.00628537
0.00995129
0.0129223
0.0150672
0.0163422
0.0167736
0.0164413
0.0154692
0.0140156
0.0122609
0.010386
0.00854559
0.0068477
0.00535017
0.00407382
0.00301999
0.00218112
0.00154212
0.00107831
0.000755985
0.000537198
0.00038678
0.000278111
0.000195219
0.000130853
8.24078e-05
4.83005e-05
2.62354e-05
1.31962e-05
6.15498e-06
2.66879e-06
1.07913e-06
4.08271e-07
1.44999e-07
4.8518e-08
1.53469e-08
4.58365e-09
1.30507e-09
3.5014e-10
5.81737e-11
7.68332e-12
-5.48809e-12
-1.75619e-11
-2.305e-11
-3.40261e-11
-4.82952e-11
-2.305e-11
-3.40261e-11
-2.305e-11
-1.97571e-11
-2.41476e-11
-3.40261e-11
-6.58571e-12
3.29285e-12
0
-8.78094e-12
-1.64643e-11
-8.78094e-12
-1.20738e-11
-3.29285e-12
-1.09762e-12
1.09762e-12
-2.19524e-12
-1.09762e-12
-1.09762e-11
1.09762e-12
-6.5857e-12
-1.09762e-12
-1.09762e-12
-2.19523e-12
0
-9.87856e-12
0
5.48809e-12
0.00124446
0.0036163
0.00566635
0.00726258
0.00835326
0.00894647
0.00908325
0.00882088
0.00822882
0.00739048
0.00640197
0.00536256
0.00435839
0.00344842
0.00266113
0.0020025
0.00146751
0.00104756
0.000731802
0.000505813
0.000351354
0.000248498
0.000179035
0.000129342
9.13805e-05
6.16418e-05
3.90274e-05
2.29664e-05
1.2509e-05
6.30228e-06
2.94147e-06
1.27515e-06
5.1508e-07
1.94541e-07
6.89117e-08
2.29676e-08
7.23769e-09
2.13377e-09
5.83933e-10
1.4269e-10
3.84166e-11
3.29285e-12
1.64643e-11
1.64643e-11
-3.29285e-12
-2.19523e-12
-3.29285e-12
-5.48809e-12
-2.19523e-12
-1.53666e-11
-1.75619e-11
1.75619e-11
1.09762e-12
5.48809e-12
-3.29285e-12
6.5857e-12
-7.68332e-12
7.68332e-12
-8.78094e-12
-2.19523e-12
-1.31714e-11
5.48809e-12
4.39047e-12
-7.68332e-12
1.09762e-12
-1.09762e-12
-1.09762e-12
1.09762e-12
2.19523e-12
-8.78094e-12
-1.31714e-11
-4.39047e-12
-6.5857e-12
-7.68332e-12
-1.09762e-12
0.000728692
0.00209899
0.00323642
0.00406315
0.00457119
0.00479564
0.00478413
0.00458014
0.00422224
0.0037507
0.00321215
0.00265678
0.00212937
0.00166033
0.00126288
0.000937338
0.000677968
0.000477725
0.000329359
0.000224713
0.000154358
0.000108391
7.79372e-05
5.64346e-05
4.00508e-05
2.71495e-05
1.72641e-05
1.01948e-05
5.56723e-06
2.80994e-06
1.31297e-06
5.69486e-07
2.30019e-07
8.68347e-08
3.07289e-08
1.02089e-08
3.18968e-09
9.25292e-10
2.35988e-10
5.26856e-11
1.97571e-11
5.48809e-12
1.20738e-11
-1.09762e-12
1.4269e-11
2.19524e-12
2.52452e-11
-2.19524e-12
-4.39047e-12
-1.09762e-12
1.09762e-11
1.53666e-11
8.78094e-12
-1.4269e-11
-2.19524e-12
4.39047e-12
0
4.39047e-12
1.86595e-11
1.31714e-11
4.39047e-12
2.19523e-12
0
2.19524e-12
0
1.09762e-11
-2.19524e-12
0
0
5.48809e-12
8.78094e-12
0
9.87856e-12
2.19523e-12
-6.58571e-12
0.000432079
0.00123088
0.00185877
0.00226951
0.00247523
0.00251959
0.00244858
0.00229546
0.00208149
0.00182374
0.00154165
0.00125771
0.000993052
0.000762103
0.000570494
0.000417009
0.000297298
0.000206582
0.000140441
9.44858e-05
6.40807e-05
4.45797e-05
3.19136e-05
2.31102e-05
1.64453e-05
1.1188e-05
7.13911e-06
4.22832e-06
2.31453e-06
1.17037e-06
5.47627e-07
2.37774e-07
9.61206e-08
3.62785e-08
1.2852e-08
4.27522e-09
1.35336e-09
4.10509e-10
1.33909e-10
3.07333e-11
2.74404e-11
1.97571e-11
1.75619e-11
-3.29285e-12
2.305e-11
1.75619e-11
8.78094e-12
1.09762e-12
-2.08547e-11
2.19523e-12
1.53666e-11
3.29285e-12
1.09762e-11
0
3.29285e-12
-2.305e-11
-1.09762e-12
0
7.68332e-12
1.09762e-12
1.4269e-11
-2.19523e-12
-1.09762e-12
-1.09762e-12
-4.39047e-12
1.09762e-12
-1.09762e-12
1.20738e-11
0
0
2.08547e-11
9.87856e-12
6.58571e-12
4.39047e-12
0
0.000257184
0.000724121
0.00106897
0.00126424
0.00132778
0.00129992
0.00121913
0.00110998
0.000984095
0.000847246
0.000705503
0.000567165
0.000440898
0.000332801
0.000244954
0.000176144
0.000123655
8.46674e-05
5.67242e-05
3.7605e-05
2.51502e-05
1.73021e-05
1.23051e-05
8.89333e-06
6.33541e-06
4.32057e-06
2.76447e-06
1.64146e-06
9.00452e-07
4.56165e-07
2.13769e-07
9.29441e-08
3.76197e-08
1.4212e-08
5.06331e-09
1.68814e-09
5.47711e-10
1.90985e-10
6.36618e-11
1.4269e-11
3.95142e-11
1.53666e-11
3.51238e-11
4.60999e-11
3.40261e-11
4.06118e-11
1.75619e-11
3.29285e-11
4.39047e-12
0
1.31714e-11
2.63428e-11
3.7319e-11
4.17095e-11
4.39047e-12
5.48809e-12
4.39047e-12
1.4269e-11
-1.09762e-11
0
0
-2.19523e-12
-1.09762e-12
0
-3.29285e-12
0
4.39047e-12
-4.39047e-12
-2.19523e-12
-1.31714e-11
-5.48809e-12
6.5857e-12
-1.09762e-12
-5.48809e-12
2.19523e-12
0.000151079
0.000420882
0.000608253
0.000697089
0.00070352
0.000658827
0.000591518
0.000518567
0.000446291
0.000375708
0.000307347
0.000243184
0.000186046
0.000138089
9.98913e-05
7.06183e-05
4.8782e-05
3.28948e-05
2.17102e-05
1.41759e-05
9.34112e-06
6.34526e-06
4.47477e-06
3.22194e-06
2.29445e-06
1.56695e-06
1.00465e-06
5.97781e-07
3.28563e-07
1.66743e-07
7.8259e-08
3.40711e-08
1.3808e-08
5.24003e-09
1.85168e-09
6.10275e-10
1.83302e-10
6.91499e-11
1.09762e-11
1.4269e-11
5.48809e-12
6.58571e-12
1.64643e-11
4.60999e-11
3.84166e-11
3.84166e-11
1.20738e-11
3.29285e-12
2.74404e-11
1.64643e-11
3.18309e-11
3.84166e-11
3.18309e-11
2.305e-11
-2.19524e-12
1.4269e-11
1.31714e-11
2.19524e-12
2.19523e-12
0
0
-2.19523e-12
2.19524e-12
8.78094e-12
3.29285e-12
-1.09762e-12
0
-1.20738e-11
1.09762e-12
0
-1.64643e-11
-9.87856e-12
1.09762e-12
-7.68332e-12
0
8.59044e-05
0.000237273
0.000336896
0.000375646
0.00036527
0.000327025
0.00027983
0.000234519
0.00019446
0.000159144
0.000127441
9.9079e-05
7.45581e-05
5.44127e-05
3.86816e-05
2.68765e-05
1.82614e-05
1.21232e-05
7.88034e-06
5.0668e-06
3.28758e-06
2.20245e-06
1.53764e-06
1.10123e-06
7.82936e-07
5.34974e-07
3.43492e-07
2.04716e-07
1.1272e-07
5.73154e-08
2.69476e-08
1.17445e-08
4.74939e-09
1.79241e-09
6.21252e-10
2.1184e-10
5.70761e-11
2.96357e-11
2.08547e-11
3.95142e-11
6.5857e-12
1.20738e-11
-2.08547e-11
7.68332e-12
2.63428e-11
1.97571e-11
-5.48809e-12
1.09762e-12
1.86595e-11
2.305e-11
9.87856e-12
1.75619e-11
0
-6.58571e-12
-4.39047e-12
-2.08547e-11
-4.39047e-12
-4.39047e-12
1.09762e-12
0
0
-2.19523e-12
4.39047e-12
0
5.48809e-12
0
-1.09762e-12
0
6.58571e-12
1.53666e-11
5.48809e-12
-5.48809e-12
-8.78094e-12
1.09762e-12
-4.39047e-12
4.65142e-05
0.000127654
0.000178817
0.00019507
0.00018381
0.000157945
0.000128819
0.000102785
8.15866e-05
6.45095e-05
5.03493e-05
3.83733e-05
2.83798e-05
2.03636e-05
1.4228e-05
9.71593e-06
6.49223e-06
4.24241e-06
2.71581e-06
1.71931e-06
1.09807e-06
7.24852e-07
5.00311e-07
3.5587e-07
2.52316e-07
1.7236e-07
1.10756e-07
6.60985e-08
3.64585e-08
1.85761e-08
8.75899e-09
3.84056e-09
1.54105e-09
5.66371e-10
1.97571e-10
7.79308e-11
2.85381e-11
1.09762e-11
1.53666e-11
1.09762e-11
8.78094e-12
-2.19523e-12
-1.31714e-11
-1.09762e-12
8.78094e-12
-4.39047e-12
3.29285e-12
2.63428e-11
7.68332e-12
1.97571e-11
-8.78094e-12
-7.68332e-12
-1.09762e-12
-1.31714e-11
4.39047e-12
0
-1.4269e-11
-1.09762e-12
-1.09762e-12
0
-1.09762e-12
4.39047e-12
0
-1.09762e-12
0
-4.39047e-12
-1.09762e-12
-1.09762e-12
0
6.5857e-12
8.78094e-12
-2.19523e-12
-4.39047e-12
8.78094e-12
0
2.37205e-05
6.48019e-05
8.98869e-05
9.64609e-05
8.86687e-05
7.36025e-05
5.745e-05
4.36339e-05
3.30192e-05
2.50821e-05
1.89892e-05
1.41458e-05
1.02688e-05
7.24274e-06
4.97452e-06
3.33914e-06