/*--------------------------------*- C++ -*----------------------------------*\
  =========                 |
  \\      /  F ield         | OpenFOAM: The Open Source CFD Toolbox
   \\    /   O peration     | Website:  https://openfoam.org
    \\  /    A nd           | Version:  10
     \\/     M anipulation  |
\*---------------------------------------------------------------------------*/
FoamFile
{
    format      ascii;
    class       volScalarField;
    location    "199";
    object      T;
}
// * * * * * * * * * * * * * * * * * * * * * * * * * * * * * * * * * * * * * //

dimensions      [0 0 0 1 0 0 0];

internalField   nonuniform List<scalar> 
11250
(
249.733
167.23
138.826
126.217
119.269
114.821
111.69
109.352
107.537
106.093
104.927
103.977
103.199
102.561
102.04
101.614
101.269
100.99
100.766
100.589
100.448
100.339
100.254
100.188
100.138
100.101
100.073
100.052
100.037
100.026
100.018
100.012
100.008
100.006
100.004
100.003
100.002
100.001
100.001
100
100
100
100
100
100
100
100
100
100
100
100
100
100
100
100
100
100
100
100
100
100
100
100
100
100
100
100
100
100
100
100
100
100
100
100
331.171
247.611
200.711
173.031
155.354
143.201
134.341
127.597
122.307
118.07
114.634
111.824
109.519
107.627
106.076
104.81
103.782
102.952
102.286
101.756
101.338
101.011
100.757
100.562
100.413
100.301
100.218
100.156
100.11
100.078
100.054
100.037
100.025
100.017
100.011
100.008
100.005
100.003
100.002
100.001
100.001
100.001
100
100
100
100
100
100
100
100
100
100
100
100
100
100
100
100
100
100
100
100
100
100
100
100
100
100
100
100
100
100
100
100
100
358.53
291.386
243.463
209.957
186.061
168.456
155.059
144.585
136.225
129.453
123.915
119.363
115.612
112.524
109.988
107.913
106.226
104.862
103.767
102.895
102.206
101.667
101.249
100.927
100.682
100.497
100.359
100.257
100.182
100.128
100.089
100.061
100.042
100.028
100.019
100.013
100.008
100.005
100.003
100.002
100.001
100.001
100.001
100
100
100
100
100
100
100
100
100
100
100
100
100
100
100
100
100
100
100
100
100
100
100
100
100
100
100
100
100
100
100
100
370.122
316.027
271.94
237.468
210.714
189.776
173.159
159.784
148.891
139.941
132.547
126.423
121.351
117.157
113.701
110.867
108.558
106.688
105.185
103.987
103.04
102.298
101.722
101.279
100.941
100.686
100.496
100.355
100.252
100.177
100.123
100.085
100.058
100.039
100.026
100.017
100.011
100.007
100.005
100.003
100.002
100.001
100.001
100
100
100
100
100
100
100
100
100
100
100
100
100
100
100
100
100
100
100
100
100
100
100
100
100
100
100
100
100
100
100
100
376.092
330.781
291.003
257.529
229.881
207.156
188.438
172.951
160.078
149.341
140.373
132.882
126.638
121.449
117.157
113.628
110.744
108.405
106.522
105.019
103.829
102.896
102.171
101.613
101.188
100.866
100.626
100.448
100.318
100.223
100.155
100.107
100.073
100.049
100.033
100.022
100.014
100.009
100.006
100.004
100.002
100.002
100.001
100.001
100
100
100
100
100
100
100
100
100
100
100
100
100
100
100
100
100
100
100
100
100
100
100
100
100
100
100
100
100
100
100
379.611
340.156
304.012
272.104
244.544
221.011
201.02
184.072
169.717
157.57
147.308
138.664
131.408
125.348
120.315
116.161
112.758
109.991
107.76
105.977
104.563
103.454
102.591
101.926
101.418
101.035
100.748
100.536
100.38
100.267
100.186
100.128
100.088
100.059
100.04
100.026
100.017
100.011
100.007
100.005
100.003
100.002
100.001
100.001
100
100
100
100
100
100
100
100
100
100
100
100
100
100
100
100
100
100
100
100
100
100
100
100
100
100
100
100
100
100
100
381.867
346.404
313.088
282.738
255.682
231.904
211.199
193.283
177.855
164.626
153.333
143.739
135.633
128.826
123.148
118.446
114.582
111.434
108.89
106.853
105.237
103.966
102.977
102.214
101.631
101.191
100.861
100.617
100.438
100.308
100.214
100.148
100.101
100.068
100.046
100.03
100.02
100.013
100.008
100.005
100.003
100.002
100.001
100.001
100
100
100
100
100
100
100
100
100
100
100
100
100
100
100
100
100
100
100
100
100
100
100
100
100
100
100
100
100
100
100
383.394
350.72
319.545
290.552
264.123
240.393
219.329
200.796
184.612
170.573
158.474
148.116
139.309
131.875
125.648
120.473
116.208
112.725
109.905
107.642
105.845
104.43
103.327
102.476
101.825
101.333
100.965
100.691
100.491
100.345
100.24
100.166
100.113
100.077
100.051
100.034
100.022
100.015
100.009
100.006
100.004
100.002
100.001
100.001
100.001
100
100
100
100
100
100
100
100
100
100
100
100
100
100
100
100
100
100
100
100
100
100
100
100
100
100
100
100
100
100
384.462
353.779
324.213
296.333
270.519
246.973
225.761
206.85
190.144
175.51
162.794
151.832
142.457
134.506
127.819
122.243
117.636
113.863
110.802
108.343
106.386
104.844
103.64
102.71
101.999
101.461
101.058
100.758
100.539
100.379
100.264
100.182
100.124
100.084
100.056
100.037
100.025
100.016
100.01
100.007
100.004
100.003
100.002
100.001
100.001
100
100
100
100
100
100
100
100
100
100
100
100
100
100
100
100
100
100
100
100
100
100
100
100
100
100
100
100
100
100
385.227
355.986
327.628
300.636
275.366
252.051
230.812
211.68
194.621
179.556
166.374
154.941
145.114
136.743
129.677
123.767
118.87
114.852
111.585
108.956
106.861
105.208
103.917
102.918
102.154
101.575
101.14
100.818
100.581
100.409
100.285
100.197
100.134
100.091
100.061
100.041
100.027
100.017
100.011
100.007
100.005
100.003
100.002
100.001
100.001
100
100
100
100
100
100
100
100
100
100
100
100
100
100
100
100
100
100
100
100
100
100
100
100
100
100
100
100
100
100
385.782
357.599
330.148
303.851
279.041
255.958
234.754
215.5
198.207
182.834
169.303
157.508
147.325
138.618
131.244
125.06
119.923
115.698
112.259
109.486
107.273
105.524
104.157
103.099
102.289
101.674
101.213
100.87
100.618
100.435
100.303
100.21
100.143
100.097
100.065
100.043
100.028
100.019
100.012
100.008
100.005
100.003
100.002
100.001
100.001
100
100
100
100
100
100
100
100
100
100
100
100
100
100
100
100
100
100
100
100
100
100
100
100
100
100
100
100
100
100
386.19
358.787
332.019
306.261
281.826
258.954
237.812
218.499
201.052
185.461
171.673
159.603
149.143
140.171
132.55
126.142
120.809
116.414
112.83
109.936
107.624
105.795
104.364
103.255
102.405
101.76
101.276
100.916
100.651
100.458
100.32
100.221
100.151
100.102
100.069
100.046
100.03
100.02
100.013
100.008
100.005
100.003
100.002
100.001
100.001
100
100
100
100
100
100
100
100
100
100
100
100
100
100
100
100
100
100
100
100
100
100
100
100
100
100
100
100
100
100
386.491
359.666
333.411
308.068
283.934
261.243
240.173
220.836
203.291
187.546
173.569
161.292
150.62
141.44
133.623
127.037
121.545
117.011
113.308
110.315
107.92
106.024
104.539
103.387
102.504
101.833
101.329
100.955
100.679
100.478
100.334
100.23
100.158
100.107
100.072
100.048
100.031
100.02
100.013
100.008
100.005
100.003
100.002
100.001
100.001
100
100
100
100
100
100
100
100
100
100
100
100
100
100
100
100
100
100
100
100
100
100
100
100
100
100
100
100
100
100
386.714
360.319
334.449
309.424
285.525
262.986
241.985
222.645
205.038
189.187
175.073
162.641
151.807
142.465
134.496
127.768
122.148
117.503
113.704
110.629
108.167
106.216
104.686
103.499
102.587
101.895
101.375
100.987
100.702
100.495
100.345
100.239
100.163
100.111
100.074
100.049
100.032
100.021
100.014
100.009
100.006
100.003
100.002
100.001
100.001
100
100
100
100
100
100
100
100
100
100
100
100
100
100
100
100
100
100
100
100
100
100
100
100
100
100
100
100
100
100
386.879
360.804
335.222
310.439
286.724
264.307
243.368
224.036
206.391
190.466
176.253
163.706
152.749
143.285
135.196
128.358
122.637
117.903
114.027
110.887
108.369
106.373
104.807
103.591
102.656
101.946
101.412
101.015
100.722
100.509
100.355
100.245
100.168
100.114
100.076
100.051
100.033
100.022
100.014
100.009
100.006
100.004
100.002
100.001
100.001
100
100
100
100
100
100
100
100
100
100
100
100
100
100
100
100
100
100
100
100
100
100
100
100
100
100
100
100
100
100
387.001
361.164
335.798
311.197
287.624
265.305
244.418
225.098
207.431
191.455
177.171
164.539
153.491
143.933
135.753
128.828
123.029
118.225
114.288
111.095
108.534
106.502
104.906
103.666
102.713
101.989
101.443
101.038
100.739
100.521
100.363
100.251
100.172
100.117
100.078
100.052
100.034
100.022
100.014
100.009
100.006
100.004
100.002
100.001
100.001
100.001
100
100
100
100
100
100
100
100
100
100
100
100
100
100
100
100
100
100
100
100
100
100
100
100
100
100
100
100
100
387.092
361.43
336.225
311.761
288.297
266.053
245.21
225.904
208.224
192.214
177.879
165.185
154.068
144.439
136.19
129.2
123.34
118.481
114.496
111.262
108.666
106.605
104.986
103.727
102.759
102.023
101.469
101.056
100.752
100.53
100.37
100.256
100.175
100.119
100.08
100.053
100.035
100.023
100.015
100.009
100.006
100.004
100.002
100.001
100.001
100.001
100
100
100
100
100
100
100
100
100
100
100
100
100
100
100
100
100
100
100
100
100
100
100
100
100
100
100
100
100
387.159
361.627
336.54
312.179
288.797
266.612
245.805
226.511
208.824
192.791
178.419
165.68
154.513
144.832
136.53
129.49
123.583
118.682
114.66
111.394
108.771
106.687
105.049
103.776
102.796
102.051
101.489
101.071
100.763
100.538
100.376
100.26
100.178
100.121
100.081
100.054
100.035
100.023
100.015
100.01
100.006
100.004
100.002
100.001
100.001
100.001
100
100
100
100
100
100
100
100
100
100
100
100
100
100
100
100
100
100
100
100
100
100
100
100
100
100
100
100
100
387.208
361.771
336.773
312.488
289.167
267.027
246.247
226.965
209.274
193.226
178.829
166.057
154.853
145.133
136.792
129.713
123.772
118.839
114.788
111.498
108.854
106.752
105.1
103.814
102.825
102.072
101.505
101.083
100.771
100.544
100.38
100.263
100.18
100.122
100.082
100.054
100.036
100.023
100.015
100.01
100.006
100.004
100.002
100.001
100.001
100.001
100
100
100
100
100
100
100
100
100
100
100
100
100
100
100
100
100
100
100
100
100
100
100
100
100
100
100
100
100
387.244
361.877
336.943
312.714
289.439
267.333
246.575
227.302
209.61
193.551
179.136
166.342
155.111
145.361
136.991
129.885
123.917
118.959
114.887
111.577
108.917
106.802
105.139
103.844
102.848
102.09
101.518
101.092
100.778
100.549
100.383
100.265
100.182
100.123
100.083
100.055
100.036
100.024
100.015
100.01
100.006
100.004
100.002
100.001
100.001
100.001
100
100
100
100
100
100
100
100
100
100
100
100
100
100
100
100
100
100
100
100
100
100
100
100
100
100
100
100
100
387.27
361.953
337.067
312.879
289.638
267.557
246.815
227.551
209.859
193.792
179.365
166.554
155.303
145.533
137.142
130.014
124.026
119.051
114.962
111.639
108.966
106.841
105.169
103.868
102.866
102.103
101.528
101.099
100.783
100.553
100.386
100.267
100.183
100.124
100.083
100.055
100.036
100.024
100.015
100.01
100.006
100.004
100.002
100.001
100.001
100.001
100
100
100
100
100
100
100
100
100
100
100
100
100
100
100
100
100
100
100
100
100
100
100
100
100
100
100
100
100
387.288
362.009
337.156
312.999
289.782
267.72
246.991
227.733
210.041
193.97
179.534
166.711
155.447
145.661
137.254
130.111
124.109
119.12
115.019
111.685
109.003
106.87
105.192
103.885
102.879
102.113
101.535
101.105
100.787
100.555
100.388
100.268
100.184
100.125
100.084
100.056
100.037
100.024
100.015
100.01
100.006
100.004
100.002
100.001
100.001
100.001
100
100
100
100
100
100
100
100
100
100
100
100
100
100
100
100
100
100
100
100
100
100
100
100
100
100
100
100
100
387.302
362.049
337.221
313.085
289.886
267.838
247.118
227.864
210.173
194.1
179.658
166.826
155.552
145.755
137.337
130.183
124.17
119.171
115.062
111.72
109.031
106.892
105.209
103.899
102.89
102.121
101.541
101.109
100.79
100.558
100.39
100.27
100.185
100.125
100.084
100.056
100.037
100.024
100.016
100.01
100.006
100.004
100.002
100.002
100.001
100.001
100
100
100
100
100
100
100
100
100
100
100
100
100
100
100
100
100
100
100
100
100
100
100
100
100
100
100
100
100
387.312
362.077
337.267
313.147
289.961
267.922
247.209
227.959
210.269
194.193
179.747
166.91
155.629
145.824
137.398
130.236
124.215
119.209
115.093
111.745
109.052
106.909
105.222
103.909
102.897
102.126
101.546
101.112
100.793
100.559
100.391
100.27
100.185
100.126
100.084
100.056
100.037
100.024
100.016
100.01
100.006
100.004
100.002
100.002
100.001
100.001
100
100
100
100
100
100
100
100
100
100
100
100
100
100
100
100
100
100
100
100
100
100
100
100
100
100
100
100
100
387.318
362.098
337.3
313.191
290.014
267.983
247.274
228.027
210.338
194.261
179.812
166.97
155.684
145.874
137.442
130.274
124.248
119.237
115.116
111.764
109.067
106.921
105.232
103.916
102.903
102.131
101.549
101.115
100.794
100.561
100.392
100.271
100.186
100.126
100.085
100.056
100.037
100.024
100.016
100.01
100.006
100.004
100.002
100.002
100.001
100.001
100
100
100
100
100
100
100
100
100
100
100
100
100
100
100
100
100
100
100
100
100
100
100
100
100
100
100
100
100
387.323
362.112
337.323
313.221
290.051
268.025
247.32
228.075
210.386
194.308
179.858
167.013
155.724
145.91
137.474
130.302
124.272
119.257
115.133
111.778
109.078
106.93
105.239
103.922
102.907
102.134
101.551
101.116
100.796
100.562
100.392
100.272
100.186
100.126
100.085
100.056
100.037
100.024
100.016
100.01
100.006
100.004
100.002
100.002
100.001
100.001
100
100
100
100
100
100
100
100
100
100
100
100
100
100
100
100
100
100
100
100
100
100
100
100
100
100
100
100
100
387.326
362.122
337.339
313.243
290.077
268.055
247.353
228.109
210.42
194.342
179.89
167.044
155.752
145.936
137.497
130.322
124.289
119.272
115.145
111.788
109.086
106.936
105.244
103.925
102.91
102.136
101.553
101.118
100.797
100.562
100.393
100.272
100.186
100.126
100.085
100.056
100.037
100.024
100.016
100.01
100.006
100.004
100.002
100.002
100.001
100.001
100
100
100
100
100
100
100
100
100
100
100
100
100
100
100
100
100
100
100
100
100
100
100
100
100
100
100
100
100
387.329
362.129
337.35
313.258
290.096
268.076
247.375
228.133
210.444
194.366
179.913
167.065
155.771
145.953
137.513
130.336
124.301
119.282
115.153
111.795
109.092
106.941
105.247
103.928
102.912
102.138
101.554
101.119
100.797
100.563
100.393
100.272
100.186
100.127
100.085
100.057
100.037
100.024
100.016
100.01
100.006
100.004
100.002
100.002
100.001
100.001
100
100
100
100
100
100
100
100
100
100
100
100
100
100
100
100
100
100
100
100
100
100
100
100
100
100
100
100
100
387.33
362.133
337.357
313.268
290.108
268.09
247.391
228.149
210.461
194.382
179.928
167.08
155.785
145.966
137.524
130.346
124.309
119.289
115.159
111.8
109.096
106.944
105.25
103.93
102.914
102.139
101.555
101.119
100.798
100.563
100.393
100.272
100.187
100.127
100.085
100.057
100.037
100.024
100.016
100.01
100.006
100.004
100.002
100.002
100.001
100.001
100
100
100
100
100
100
100
100
100
100
100
100
100
100
100
100
100
100
100
100
100
100
100
100
100
100
100
100
100
387.332
362.137
337.363
313.275
290.117
268.1
247.401
228.16
210.472
194.393
179.939
167.09
155.795
145.975
137.531
130.352
124.315
119.294
115.163
111.803
109.099
106.946
105.252
103.932
102.915
102.14
101.556
101.12
100.798
100.563
100.394
100.272
100.187
100.127
100.085
100.057
100.037
100.024
100.016
100.01
100.006
100.004
100.002
100.002
100.001
100.001
100
100
100
100
100
100
100
100
100
100
100
100
100
100
100
100
100
100
100
100
100
100
100
100
100
100
100
100
100
387.332
362.139
337.366
313.28
290.122
268.106
247.409
228.168
210.48
194.401
179.947
167.097
155.801
145.98
137.537
130.357
124.319
119.297
115.166
111.805
109.101
106.948
105.253
103.933
102.916
102.14
101.556
101.12
100.798
100.563
100.394
100.272
100.187
100.127
100.085
100.057
100.037
100.024
100.016
100.01
100.006
100.004
100.002
100.002
100.001
100.001
100
100
100
100
100
100
100
100
100
100
100
100
100
100
100
100
100
100
100
100
100
100
100
100
100
100
100
100
100
387.333
362.14
337.369
313.283
290.126
268.111
247.413
228.173
210.485
194.406
179.952
167.102
155.806
145.984
137.54
130.36
124.322
119.3
115.168
111.807
109.102
106.949
105.254
103.933
102.916
102.141
101.556
101.12
100.798
100.564
100.394
100.273
100.187
100.127
100.085
100.057
100.037
100.024
100.016
100.01
100.006
100.004
100.002
100.002
100.001
100.001
100
100
100
100
100
100
100
100
100
100
100
100
100
100
100
100
100
100
100
100
100
100
100
100
100
100
100
100
100
387.333
362.141
337.37
313.285
290.129
268.114
247.417
228.176
210.488
194.409
179.955
167.105
155.809
145.987
137.543
130.362
124.324
119.301
115.17
111.808
109.103
106.95
105.254
103.934
102.916
102.141
101.556
101.12
100.799
100.564
100.394
100.273
100.187
100.127
100.085
100.057
100.037
100.024
100.016
100.01
100.006
100.004
100.002
100.002
100.001
100.001
100
100
100
100
100
100
100
100
100
100
100
100
100
100
100
100
100
100
100
100
100
100
100
100
100
100
100
100
100
387.333
362.142
337.371
313.287
290.131
268.116
247.419
228.178
210.491
194.412
179.957
167.107
155.81
145.989
137.544
130.364
124.325
119.302
115.171
111.809
109.104
106.95
105.255
103.934
102.917
102.141
101.557
101.121
100.799
100.564
100.394
100.273
100.187
100.127
100.085
100.057
100.037
100.024
100.016
100.01
100.006
100.004
100.002
100.002
100.001
100.001
100
100
100
100
100
100
100
100
100
100
100
100
100
100
100
100
100
100
100
100
100
100
100
100
100
100
100
100
100
387.333
362.142
337.372
313.288
290.132
268.117
247.42
228.18
210.492
194.413
179.959
167.109
155.812
145.99
137.545
130.365
124.326
119.303
115.171
111.809
109.104
106.95
105.255
103.934
102.917
102.141
101.557
101.121
100.799
100.564
100.394
100.273
100.187
100.127
100.085
100.057
100.037
100.024
100.016
100.01
100.006
100.004
100.002
100.002
100.001
100.001
100
100
100
100
100
100
100
100
100
100
100
100
100
100
100
100
100
100
100
100
100
100
100
100
100
100
100
100
100
387.334
362.142
337.372
313.288
290.132
268.118
247.421
228.181
210.493
194.414
179.96
167.11
155.813
145.991
137.546
130.365
124.326
119.303
115.171
111.81
109.104
106.951
105.255
103.934
102.917
102.141
101.557
101.121
100.799
100.564
100.394
100.273
100.187
100.127
100.085
100.057
100.037
100.024
100.016
100.01
100.006
100.004
100.002
100.002
100.001
100.001
100
100
100
100
100
100
100
100
100
100
100
100
100
100
100
100
100
100
100
100
100
100
100
100
100
100
100
100
100
387.334
362.143
337.373
313.289
290.133
268.118
247.422
228.181
210.494
194.415
179.96
167.11
155.813
145.991
137.546
130.366
124.327
119.304
115.172
111.81
109.104
106.951
105.255
103.934
102.917
102.141
101.557
101.121
100.799
100.564
100.394
100.273
100.187
100.127
100.085
100.057
100.037
100.024
100.016
100.01
100.006
100.004
100.002
100.002
100.001
100.001
100
100
100
100
100
100
100
100
100
100
100
100
100
100
100
100
100
100
100
100
100
100
100
100
100
100
100
100
100
387.334
362.143
337.373
313.289
290.133
268.118
247.422
228.182
210.494
194.415
179.961
167.11
155.813
145.992
137.547
130.366
124.327
119.304
115.172
111.81
109.104
106.951
105.255
103.935
102.917
102.142
101.557
101.121
100.799
100.564
100.394
100.273
100.187
100.127
100.085
100.057
100.037
100.024
100.016
100.01
100.006
100.004
100.002
100.002
100.001
100.001
100
100
100
100
100
100
100
100
100
100
100
100
100
100
100
100
100
100
100
100
100
100
100
100
100
100
100
100
100
387.334
362.143
337.373
313.289
290.133
268.119
247.422
228.182
210.495
194.415
179.961
167.111
155.814
145.992
137.547
130.366
124.327
119.304
115.172
111.81
109.105
106.951
105.255
103.935
102.917
102.142
101.557
101.121
100.799
100.564
100.394
100.273
100.187
100.127
100.085
100.057
100.037
100.024
100.016
100.01
100.006
100.004
100.002
100.002
100.001
100.001
100
100
100
100
100
100
100
100
100
100
100
100
100
100
100
100
100
100
100
100
100
100
100
100
100
100
100
100
100
387.334
362.143
337.373
313.289
290.133
268.119
247.422
228.182
210.495
194.416
179.961
167.111
155.814
145.992
137.547
130.366
124.327
119.304
115.172
111.81
109.105
106.951
105.255
103.935
102.917
102.142
101.557
101.121
100.799
100.564
100.394
100.273
100.187
100.127
100.085
100.057
100.037
100.024
100.016
100.01
100.006
100.004
100.002
100.002
100.001
100.001
100
100
100
100
100
100
100
100
100
100
100
100
100
100
100
100
100
100
100
100
100
100
100
100
100
100
100
100
100
387.334
362.143
337.373
313.289
290.134
268.119
247.423
228.182
210.495
194.416
179.961
167.111
155.814
145.992
137.547
130.366
124.327
119.304
115.172
111.81
109.105
106.951
105.255
103.935
102.917
102.142
101.557
101.121
100.799
100.564
100.394
100.273
100.187
100.127
100.085
100.057
100.037
100.024
100.016
100.01
100.006
100.004
100.002
100.002
100.001
100.001
100
100
100
100
100
100
100
100
100
100
100
100
100
100
100
100
100
100
100
100
100
100
100
100
100
100
100
100
100
387.334
362.143
337.373
313.289
290.134
268.119
247.423
228.182
210.495
194.416
179.961
167.111
155.814
145.992
137.547
130.366
124.327
119.304
115.172
111.81
109.105
106.951
105.255
103.935
102.917
102.142
101.557
101.121
100.799
100.564
100.394
100.273
100.187
100.127
100.085
100.057
100.037
100.024
100.016
100.01
100.006
100.004
100.002
100.002
100.001
100.001
100
100
100
100
100
100
100
100
100
100
100
100
100
100
100
100
100
100
100
100
100
100
100
100
100
100
100
100
100
387.334
362.143
337.373
313.289
290.134
268.119
247.423
228.182
210.495
194.416
179.961
167.111
155.814
145.992
137.547
130.366
124.327
119.304
115.172
111.81
109.105
106.951
105.255
103.935
102.917
102.142
101.557
101.121
100.799
100.564
100.394
100.273
100.187
100.127
100.085
100.057
100.037
100.024
100.016
100.01
100.006
100.004
100.002
100.002
100.001
100.001
100
100
100
100
100
100
100
100
100
100
100
100
100
100
100
100
100
100
100
100
100
100
100
100
100
100
100
100
100
387.334
362.143
337.373
313.289
290.134
268.119
247.423
228.182
210.495
194.416
179.961
167.111
155.814
145.992
137.547
130.366
124.327
119.304
115.172
111.81
109.105
106.951
105.255
103.935
102.917
102.142
101.557
101.121
100.799
100.564
100.394
100.273
100.187
100.127
100.085
100.057
100.037
100.024
100.016
100.01
100.006
100.004
100.002
100.002
100.001
100.001
100
100
100
100
100
100
100
100
100
100
100
100
100
100
100
100
100
100
100
100
100
100
100
100
100
100
100
100
100
387.334
362.143
337.373
313.289
290.134
268.119
247.423
228.182
210.495
194.416
179.961
167.111
155.814
145.992
137.547
130.366
124.327
119.304
115.172
111.81
109.105
106.951
105.255
103.935
102.917
102.142
101.557
101.121
100.799
100.564
100.394
100.273
100.187
100.127
100.085
100.057
100.037
100.024
100.016
100.01
100.006
100.004
100.002
100.002
100.001
100.001
100
100
100
100
100
100
100
100
100
100
100
100
100
100
100
100
100
100
100
100
100
100
100
100
100
100
100
100
100
387.334
362.143
337.373
313.289
290.134
268.119
247.423
228.182
210.495
194.416
179.961
167.111
155.814
145.992
137.547
130.366
124.327
119.304
115.172
111.81
109.105
106.951
105.255
103.935
102.917
102.142
101.557
101.121
100.799
100.564
100.394
100.273
100.187
100.127
100.085
100.057
100.037
100.024
100.016
100.01
100.006
100.004
100.002
100.002
100.001
100.001
100
100
100
100
100
100
100
100
100
100
100
100
100
100
100
100
100
100
100
100
100
100
100
100
100
100
100
100
100
387.334
362.143
337.373
313.289
290.134
268.119
247.423
228.182
210.495
194.416
179.961
167.111
155.814
145.992
137.547
130.366
124.327
119.304
115.172
111.81
109.105
106.951
105.255
103.935
102.917
102.142
101.557
101.121
100.799
100.564
100.394
100.273
100.187
100.127
100.085
100.057
100.037
100.024
100.016
100.01
100.006
100.004
100.002
100.002
100.001
100.001
100
100
100
100
100
100
100
100
100
100
100
100
100
100
100
100
100
100
100
100
100
100
100
100
100
100
100
100
100
387.334
362.143
337.373
313.289
290.134
268.119
247.423
228.182
210.495
194.416
179.961
167.111
155.814
145.992
137.547
130.366
124.327
119.304
115.172
111.81
109.105
106.951
105.255
103.935
102.917
102.142
101.557
101.121
100.799
100.564
100.394
100.273
100.187
100.127
100.085
100.057
100.037
100.024
100.016
100.01
100.006
100.004
100.002
100.002
100.001
100.001
100
100
100
100
100
100
100
100
100
100
100
100
100
100
100
100
100
100
100
100
100
100
100
100
100
100
100
100
100
387.334
362.143
337.373
313.289
290.134
268.119
247.423
228.182
210.495
194.416
179.961
167.111
155.814
145.992
137.547
130.366
124.327
119.304
115.172
111.81
109.105
106.951
105.255
103.935
102.917
102.142
101.557
101.121
100.799
100.564
100.394
100.273
100.187
100.127
100.085
100.057
100.037
100.024
100.016
100.01
100.006
100.004
100.002
100.002
100.001
100.001
100
100
100
100
100
100
100
100
100
100
100
100
100
100
100
100
100
100
100
100
100
100
100
100
100
100
100
100
100
387.334
362.143
337.373
313.289
290.134
268.119
247.423
228.182
210.495
194.416
179.961
167.111
155.814
145.992
137.547
130.366
124.327
119.304
115.172
111.81
109.105
106.951
105.255
103.935
102.917
102.142
101.557
101.121
100.799
100.564
100.394
100.273
100.187
100.127
100.085
100.057
100.037
100.024
100.016
100.01
100.006
100.004
100.002
100.002
100.001
100.001
100
100
100
100
100
100
100
100
100
100
100
100
100
100
100
100
100
100
100
100
100
100
100
100
100
100
100
100
100
387.334
362.143
337.373
313.289
290.134
268.119
247.423
228.182
210.495
194.416
179.961
167.111
155.814
145.992
137.547
130.366
124.327
119.304
115.172
111.81
109.105
106.951
105.255
103.935
102.917
102.142
101.557
101.121
100.799
100.564
100.394
100.273
100.187
100.127
100.085
100.057
100.037
100.024
100.016
100.01
100.006
100.004
100.002
100.002
100.001
100.001
100
100
100
100
100
100
100
100
100
100
100
100
100
100
100
100
100
100
100
100
100
100
100
100
100
100
100
100
100
387.334
362.143
337.373
313.289
290.134
268.119
247.423
228.182
210.495
194.416
179.961
167.111
155.814
145.992
137.547
130.366
124.327
119.304
115.172
111.81
109.105
106.951
105.255
103.935
102.917
102.142
101.557
101.121
100.799
100.564
100.394
100.273
100.187
100.127
100.085
100.057
100.037
100.024
100.016
100.01
100.006
100.004
100.002
100.002
100.001
100.001
100
100
100
100
100
100
100
100
100
100
100
100
100
100
100
100
100
100
100
100
100
100
100
100
100
100
100
100
100
387.334
362.143
337.373
313.289
290.134
268.119
247.423
228.182
210.495
194.416
179.961
167.111
155.814
145.992
137.547
130.366
124.327
119.304
115.172
111.81
109.105
106.951
105.255
103.935
102.917
102.142
101.557
101.121
100.799
100.564
100.394
100.273
100.187
100.127
100.085
100.057
100.037
100.024
100.016
100.01
100.006
100.004
100.002
100.002
100.001
100.001
100
100
100
100
100
100
100
100
100
100
100
100
100
100
100
100
100
100
100
100
100
100
100
100
100
100
100
100
100
387.334
362.143
337.373
313.289
290.134
268.119
247.423
228.182
210.495
194.416
179.961
167.111
155.814
145.992
137.547
130.366
124.327
119.304
115.172
111.81
109.105
106.951
105.255
103.935
102.917
102.142
101.557
101.121
100.799
100.564
100.394
100.273
100.187
100.127
100.085
100.057
100.037
100.024
100.016
100.01
100.006
100.004
100.002
100.002
100.001
100.001
100
100
100
100
100
100
100
100
100
100
100
100
100
100
100
100
100
100
100
100
100
100
100
100
100
100
100
100
100
387.334
362.143
337.373
313.289
290.134
268.119
247.423
228.182
210.495
194.416
179.961
167.111
155.814
145.992
137.547
130.366
124.327
119.304
115.172
111.81
109.105
106.951
105.255
103.935
102.917
102.142
101.557
101.121
100.799
100.564
100.394
100.273
100.187
100.127
100.085
100.057
100.037
100.024
100.016
100.01
100.006
100.004
100.002
100.002
100.001
100.001
100
100
100
100
100
100
100
100
100
100
100
100
100
100
100
100
100
100
100
100
100
100
100
100
100
100
100
100
100
387.334
362.143
337.373
313.289
290.134
268.119
247.423
228.182
210.495
194.416
179.961
167.111
155.814
145.992
137.547
130.366
124.327
119.304
115.172
111.81
109.105
106.951
105.255
103.935
102.917
102.142
101.557
101.121
100.799
100.564
100.394
100.273
100.187
100.127
100.085
100.057
100.037
100.024
100.016
100.01
100.006
100.004
100.002
100.002
100.001
100.001
100
100
100
100
100
100
100
100
100
100
100
100
100
100
100
100
100
100
100
100
100
100
100
100
100
100
100
100
100
387.334
362.143
337.373
313.289
290.134
268.119
247.423
228.182
210.495
194.416
179.961
167.111
155.814
145.992
137.547
130.366
124.327
119.304
115.172
111.81
109.105
106.951
105.255
103.935
102.917
102.142
101.557
101.121
100.799
100.564
100.394
100.273
100.187
100.127
100.085
100.057
100.037
100.024
100.016
100.01
100.006
100.004
100.002
100.002
100.001
100.001
100
100
100
100
100
100
100
100
100
100
100
100
100
100
100
100
100
100
100
100
100
100
100
100
100
100
100
100
100
387.334
362.143
337.373
313.289
290.134
268.119
247.423
228.182
210.495
194.416
179.961
167.111
155.814
145.992
137.547
130.366
124.327
119.304
115.172
111.81
109.105
106.951
105.255
103.935
102.917
102.142
101.557
101.121
100.799
100.564
100.394
100.273
100.187
100.127
100.085
100.057
100.037
100.024
100.016
100.01
100.006
100.004
100.002
100.002
100.001
100.001
100
100
100
100
100
100
100
100
100
100
100
100
100
100
100
100
100
100
100
100
100
100
100
100
100
100
100
100
100
387.334
362.143
337.373
313.289
290.134
268.119
247.423
228.182
210.495
194.416
179.961
167.111
155.814
145.992
137.547
130.366
124.327
119.304
115.172
111.81
109.105
106.951
105.255
103.935
102.917
102.142
101.557
101.121
100.799
100.564
100.394
100.273
100.187
100.127
100.085
100.057
100.037
100.024
100.016
100.01
100.006
100.004
100.002
100.002
100.001
100.001
100
100
100
100
100
100
100
100
100
100
100
100
100
100
100
100
100
100
100
100
100
100
100
100
100
100
100
100
100
387.334
362.143
337.373
313.289
290.134
268.119
247.423
228.182
210.495
194.416
179.961
167.111
155.814
145.992
137.547
130.366
124.327
119.304
115.172
111.81
109.105
106.951
105.255
103.935
102.917
102.142
101.557
101.121
100.799
100.564
100.394
100.273
100.187
100.127
100.085
100.057
100.037
100.024
100.016
100.01
100.006
100.004
100.002
100.002
100.001
100.001
100
100
100
100
100
100
100
100
100
100
100
100
100
100
100
100
100
100
100
100
100
100
100
100
100
100
100
100
100
387.334
362.143
337.373
313.289
290.134
268.119
247.423
228.182
210.495
194.416
179.961
167.111
155.814
145.992
137.547
130.366
124.327
119.304
115.172
111.81
109.105
106.951
105.255
103.935
102.917
102.142
101.557
101.121
100.799
100.564
100.394
100.273
100.187
100.127
100.085
100.057
100.037
100.024
100.016
100.01
100.006
100.004
100.002
100.002
100.001
100.001
100
100
100
100
100
100
100
100
100
100
100
100
100
100
100
100
100
100
100
100
100
100
100
100
100
100
100
100
100
387.334
362.143
337.373
313.289
290.134
268.119
247.423
228.182
210.495
194.416
179.961
167.111
155.814
145.992
137.547
130.366