/*--------------------------------*- C++ -*----------------------------------*\
  =========                 |
  \\      /  F ield         | OpenFOAM: The Open Source CFD Toolbox
   \\    /   O peration     | Website:  https://openfoam.org
    \\  /    A nd           | Version:  10
     \\/     M anipulation  |
\*---------------------------------------------------------------------------*/
FoamFile
{
    format      ascii;
    class       volScalarField;
    location    "77";
    object      gradTz;
}
// * * * * * * * * * * * * * * * * * * * * * * * * * * * * * * * * * * * * * //

dimensions      [0 -1 0 1 0 0 0];

internalField   nonuniform List<scalar> 
11250
(
-14427
-4218.32
-1590.18
-775.797
-458.321
-303.086
-212.302
-152.487
-110.229
-79.3089
-56.4067
-39.4832
-27.1219
-18.2487
-12.0115
-7.72797
-4.85748
-2.98198
-1.78765
-1.04648
-0.598235
-0.334009
-0.182162
-0.0970648
-0.0505434
-0.0257261
-0.0128027
-0.0062312
-0.00296688
-0.00138234
-0.00063043
-0.00028151
-0.000123116
-5.27493e-05
-2.21478e-05
-9.1154e-06
-3.67852e-06
-1.45594e-06
-5.65329e-07
-2.15407e-07
-8.0552e-08
-2.95896e-08
-1.06842e-08
-3.78349e-09
-1.31385e-09
-4.47828e-10
-1.60252e-10
-4.39047e-11
-4.39047e-12
-1.09762e-12
0
1.31714e-11
0
-1.4269e-11
0
0
0
0
0
0
0
0
-2.08547e-11
-1.09762e-12
2.19523e-11
1.09762e-12
-1.09762e-12
0
1.09762e-12
-1.09762e-12
0
-5.48809e-12
-1.09762e-12
6.5857e-12
0
-8483.68
-5069.04
-2952.29
-1827.27
-1210.89
-844.348
-606.678
-441.575
-321.636
-232.504
-165.874
-116.355
-80.0492
-53.9211
-35.5221
-22.8696
-14.3825
-8.83312
-5.29717
-3.10184
-1.77365
-0.990481
-0.540289
-0.287937
-0.149954
-0.0763347
-0.0379926
-0.0184931
-0.00880597
-0.00410323
-0.00187146
-0.000835734
-0.000365523
-0.000156619
-6.5763e-05
-2.70676e-05
-1.09237e-05
-4.32375e-06
-1.67895e-06
-6.39766e-07
-2.39265e-07
-8.78687e-08
-3.17211e-08
-1.12495e-08
-3.89105e-09
-1.32373e-09
-4.75268e-10
-1.4269e-10
-2.19523e-11
0
0
0
0
0
0
0
-2.19523e-12
0
5.48809e-12
-1.09762e-12
-3.29285e-12
1.09762e-12
1.09762e-12
8.78094e-12
-1.09762e-12
-1.20738e-11
1.09762e-12
2.19523e-12
-1.09762e-12
-4.39047e-12
1.09762e-12
4.39047e-12
0
-8.78094e-12
8.78094e-12
-5937.38
-4605.76
-3309.37
-2360.52
-1708.22
-1255.37
-930.685
-690.465
-509.032
-370.902
-266.051
-187.344
-129.249
-87.2445
-57.5674
-37.1092
-23.3611
-14.3591
-8.6168
-5.0485
-2.88812
-1.61349
-0.880427
-0.469346
-0.244494
-0.124489
-0.061972
-0.0301707
-0.0143689
-0.00669632
-0.00305457
-0.00136424
-0.000596741
-0.000255718
-0.000107385
-4.42028e-05
-1.78405e-05
-7.06208e-06
-2.74247e-06
-1.04509e-06
-3.90896e-07
-1.43564e-07
-5.18075e-08
-1.83511e-08
-6.37496e-09
-2.18426e-09
-7.36501e-10
-2.37085e-10
-7.13451e-11
-2.63428e-11
1.09762e-12
1.53666e-11
8.78094e-12
-1.31714e-11
-1.53666e-11
-2.19523e-12
6.58571e-12
9.87856e-12
0
5.48809e-12
0
0
1.09762e-12
5.48809e-12
-1.09762e-12
-5.48809e-12
0
0
0
-1.09762e-11
0
1.20738e-11
1.09762e-12
-1.09762e-12
-1.09762e-12
-4693.89
-4080.93
-3297.17
-2581.6
-1997.22
-1536.02
-1173.82
-888.684
-664.235
-488.622
-352.869
-249.703
-172.902
-117.037
-77.3926
-49.9742
-31.5031
-19.3852
-11.6437
-6.82721
-3.90821
-2.18459
-1.19263
-0.636043
-0.331451
-0.168819
-0.0840639
-0.0409364
-0.0195006
-0.00908971
-0.00414711
-0.00185251
-0.000810448
-0.000347347
-0.000145883
-6.00574e-05
-2.42424e-05
-9.59731e-06
-3.72741e-06
-1.42056e-06
-5.31397e-07
-1.95161e-07
-7.04045e-08
-2.49543e-08
-8.67667e-09
-2.96686e-09
-1.00212e-09
-3.34773e-10
-1.06469e-10
-1.86595e-11
0
3.29285e-12
1.09762e-11
-4.39047e-12
-1.09762e-11
0
3.29285e-12
1.09762e-12
-2.19523e-12
0
-1.09762e-12
0
-1.20738e-11
-1.09762e-12
1.4269e-11
1.09762e-12
0
0
-2.19524e-12
0
8.78094e-12
1.09762e-12
-9.87856e-12
0
0
-4024.13
-3691.07
-3187.2
-2650.21
-2150.97
-1714.63
-1344.79
-1037.26
-785.723
-583.626
-424.501
-302.003
-209.97
-142.577
-94.5166
-61.1531
-38.6123
-23.7913
-14.3059
-8.39593
-4.81
-2.69047
-1.46966
-0.78418
-0.408829
-0.208311
-0.103765
-0.0505462
-0.0240851
-0.0112295
-0.00512455
-0.00228962
-0.00100187
-0.000429466
-0.000180402
-7.42798e-05
-2.99877e-05
-1.18734e-05
-4.61198e-06
-1.75792e-06
-6.5771e-07
-2.4159e-07
-8.71322e-08
-3.08705e-08
-1.0761e-08
-3.67482e-09
-1.23372e-09
-4.21485e-10
-1.29519e-10
-2.63428e-11
1.09762e-12
0
0
0
0
0
-5.48809e-12
0
1.20738e-11
0
-8.78094e-12
0
2.19523e-12
1.09762e-12
5.48809e-12
-2.19523e-12
-4.39047e-12
1.09762e-12
2.19523e-12
-5.48809e-12
-2.19523e-12
4.39047e-12
0
-5.48809e-12
5.48809e-12
-3638.85
-3427.59
-3073.69
-2654.7
-2226.86
-1822.97
-1459.54
-1143.52
-876.511
-656.908
-481.069
-344.048
-240.184
-163.622
-108.748
-70.5085
-44.5959
-27.5173
-16.5661
-9.73221
-5.58034
-3.12367
-1.70739
-0.911541
-0.475462
-0.242369
-0.120778
-0.0588537
-0.0280524
-0.013083
-0.00597193
-0.00266886
-0.00116807
-0.000500811
-0.00021041
-8.66511e-05
-3.49879e-05
-1.38554e-05
-5.38261e-06
-2.05193e-06
-7.67804e-07
-2.82049e-07
-1.01743e-07
-3.60699e-08
-1.25622e-08
-4.30486e-09
-1.43678e-09
-4.55511e-10
-1.41593e-10
-3.95142e-11
-9.87856e-12
-9.87856e-12
0
0
2.19524e-12
0
-5.48809e-12
-6.58571e-12
6.5857e-12
4.39047e-12
-1.09762e-12
0
4.39047e-12
0
-5.48809e-12
1.09762e-12
0
0
0
-1.09762e-11
-2.19523e-12
4.39047e-12
1.09762e-12
4.39047e-12
3.29285e-12
-3407.98
-3254.83
-2982.41
-2637.19
-2261.33
-1886.48
-1533.95
-1216.78
-941.803
-711.272
-524.034
-376.57
-263.892
-180.325
-120.149
-78.0606
-49.4565
-30.5599
-18.42
-10.8324
-6.21666
-3.48251
-1.90479
-1.01752
-0.531016
-0.270811
-0.135006
-0.0658112
-0.0313791
-0.0146389
-0.00668398
-0.00298783
-0.00130798
-0.000560916
-0.00023571
-9.70879e-05
-3.92089e-05
-1.55295e-05
-6.03392e-06
-2.30058e-06
-8.60954e-07
-3.16321e-07
-1.14135e-07
-4.0445e-08
-1.40704e-08
-4.80756e-09
-1.62228e-09
-5.46614e-10
-1.66838e-10
-3.84166e-11
0
7.68332e-12
-3.29285e-12
-1.09762e-12
4.39047e-12
0
-2.19524e-12
0
2.19523e-12
2.19524e-12
0
1.09762e-12
-1.09762e-12
-1.09762e-12
1.09762e-12
-1.09762e-12
0
0
0
0
0
-4.39047e-12
-1.09762e-12
0
5.48809e-12
-3266.44
-3142.98
-2915.8
-2615.68
-2275.13
-1922.73
-1580.97
-1265.81
-987.268
-750.254
-555.546
-400.853
-281.849
-193.125
-128.97
-83.9498
-53.2722
-32.9619
-19.8905
-11.7087
-6.72526
-3.77021
-2.06349
-1.10293
-0.575876
-0.293822
-0.146537
-0.0714582
-0.0340829
-0.015905
-0.00726409
-0.00324797
-0.00142219
-0.000610028
-0.000256399
-0.00010563
-4.2666e-05
-1.69015e-05
-6.56807e-06
-2.50458e-06
-9.37415e-07
-3.44458e-07
-1.24334e-07
-4.40935e-08
-1.53227e-08
-5.22246e-09
-1.76497e-09
-5.81737e-10
-1.75619e-10
-3.84166e-11
1.09762e-12
-1.09762e-12
-1.09762e-12
1.09762e-12
-7.68332e-12
0
-5.48809e-12
0
8.78094e-12
0
2.19523e-12
0
3.29285e-12
0
0
-1.09762e-12
0
-1.20738e-11
0
1.31714e-11
1.09762e-12
-8.78094e-12
-8.78094e-12
4.39047e-12
1.09762e-11
-3178.73
-3071.19
-2869.63
-2596.82
-2279.33
-1942.99
-1610.07
-1297.83
-1018.05
-777.374
-577.939
-418.404
-295.009
-202.614
-135.571
-88.3928
-56.1704
-34.7969
-21.0196
-12.3844
-7.1189
-3.99361
-2.18708
-1.16961
-0.610983
-0.311867
-0.155596
-0.075902
-0.0362138
-0.0169043
-0.0077225
-0.00345377
-0.00151264
-0.000648961
-0.000272816
-0.000112413
-4.54139e-05
-1.7993e-05
-6.99328e-06
-2.66711e-06
-9.98383e-07
-3.66914e-07
-1.32432e-07
-4.69692e-08
-1.63479e-08
-5.56492e-09
-1.8429e-09
-6.11373e-10
-2.15133e-10
-4.39047e-11
5.48809e-12
2.19524e-12
0
0
5.48809e-12
2.305e-11
-5.48809e-12
-2.41476e-11
0
1.09762e-12
1.09762e-12
-1.09762e-12
0
0
1.09762e-12
6.58571e-12
-1.09762e-12
-6.5857e-12
1.09762e-12
-1.09762e-12
0
1.09762e-12
0
-1.09762e-12
0
-3124.25
-3025.54
-2838.68
-2582.31
-2279.5
-1954.08
-1627.78
-1318.29
-1038.38
-795.732
-593.396
-430.713
-304.361
-209.43
-140.358
-91.64
-58.303
-36.155
-21.8594
-12.8892
-7.41416
-4.16176
-2.28037
-1.22008
-0.637621
-0.325588
-0.162498
-0.0792938
-0.0378428
-0.0176693
-0.00807395
-0.00361175
-0.00158216
-0.000678916
-0.00028546
-0.000117643
-4.7534e-05
-1.88358e-05
-7.32193e-06
-2.79283e-06
-1.04558e-06
-3.84296e-07
-1.38699e-07
-4.91886e-08
-1.71162e-08
-5.83274e-09
-1.95266e-09
-6.43204e-10
-2.31597e-10
-5.59785e-11
1.20738e-11
1.09762e-12
-4.39047e-12
1.09762e-12
3.29285e-12
1.4269e-11
0
-1.75619e-11
0
3.29285e-12
0
9.87856e-12
0
-9.87856e-12
0
1.64643e-11
1.09762e-12
-1.64643e-11
-1.09762e-12
2.19524e-12
5.48809e-12
-2.19524e-12
-5.48809e-12
0
0
-3090.54
-2996.81
-2818.46
-2571.94
-2278.3
-1960.05
-1638.38
-1331.12
-1051.51
-807.849
-603.781
-439.104
-310.814
-214.184
-143.726
-93.942
-59.8248
-37.1298
-22.4653
-13.255
-7.62894
-4.28449
-2.34869
-1.25714
-0.657229
-0.335712
-0.1676
-0.081806
-0.0390515
-0.0182379
-0.00833549
-0.00372948
-0.00163403
-0.000701291
-0.000294915
-0.000121558
-4.91227e-05
-1.94679e-05
-7.56859e-06
-2.88726e-06
-1.08106e-06
-3.97353e-07
-1.43418e-07
-5.08658e-08
-1.77177e-08
-6.05556e-09
-2.04047e-09
-6.83816e-10
-2.20621e-10
-5.1588e-11
0
3.29285e-12
2.19523e-12
1.09762e-12
0
2.19523e-12
-1.09762e-12
-2.19523e-12
-2.19523e-12
1.09762e-12
1.09762e-12
0
-1.09762e-12
-1.09762e-12
1.09762e-12
1.09762e-12
1.09762e-12
-1.09762e-12
0
0
1.09762e-12
-6.5857e-12
0
5.48809e-12
0
-3069.84
-2978.96
-2805.54
-2564.88
-2276.87
-1963.19
-1644.63
-1339.01
-1059.8
-815.658
-610.58
-444.672
-315.145
-217.405
-146.027
-95.5265
-60.8791
-37.8089
-22.8895
-13.5123
-7.78057
-4.37145
-2.39724
-1.28355
-0.67124
-0.342962
-0.171263
-0.0836125
-0.0399222
-0.0186481
-0.0085245
-0.00381467
-0.00167161
-0.000717525
-0.000301782
-0.000124404
-5.0279e-05
-1.99284e-05
-7.74845e-06
-2.95618e-06
-1.10699e-06
-4.06938e-07
-1.46884e-07
-5.2094e-08
-1.81634e-08
-6.23008e-09
-2.10304e-09
-6.92597e-10
-2.06352e-10
-4.39047e-11
-2.19524e-12
0
0
1.09762e-12
1.09762e-12
-2.19523e-12
0
-1.09762e-12
-1.09762e-12
3.29285e-12
1.4269e-11
-2.19523e-12
-1.31714e-11
0
-9.87856e-12
-2.08547e-11
8.78094e-12
2.19523e-11
0
0
0
0
-2.19524e-12
-3.29285e-12
5.48809e-12
-3057.28
-2968.02
-2797.45
-2560.25
-2275.65
-1964.81
-1648.27
-1343.78
-1064.94
-820.576
-614.924
-448.272
-317.974
-219.528
-147.556
-96.5867
-61.5888
-38.2686
-23.178
-13.688
-7.88454
-4.43127
-2.43075
-1.30184
-0.680963
-0.348005
-0.173815
-0.0848743
-0.0405315
-0.0189356
-0.00865718
-0.00387457
-0.00169807
-0.000728968
-0.000306629
-0.000126415
-5.10968e-05
-2.02545e-05
-7.87598e-06
-3.00511e-06
-1.12539e-06
-4.13739e-07
-1.4936e-07
-5.29919e-08
-1.84685e-08
-6.31459e-09
-2.11621e-09
-6.98085e-10
-2.31597e-10
-5.92713e-11
0
1.09762e-12
-2.19523e-12
-1.09762e-12
0
0
0
0
0
2.19524e-12
-2.19524e-12
6.5857e-12
0
-1.86595e-11
-4.39047e-12
9.87856e-12
3.29285e-12
3.29285e-12
1.09762e-12
0
-1.09762e-12
0
0
1.09762e-12
-1.09762e-12
-3049.75
-2961.42
-2792.5
-2557.31
-2274.73
-1965.63
-1650.35
-1346.61
-1068.05
-823.606
-617.635
-450.543
-319.776
-220.891
-148.545
-97.2767
-62.0534
-38.571
-23.3687
-13.8046
-7.95382
-4.47128
-2.45323
-1.31414
-0.687519
-0.351414
-0.175545
-0.0857308
-0.0409458
-0.0191315
-0.00874772
-0.0039155
-0.00171618
-0.000736808
-0.000309954
-0.000127796
-5.16591e-05
-2.04789e-05
-7.96383e-06
-3.03886e-06
-1.13811e-06
-4.18464e-07
-1.51102e-07
-5.35934e-08
-1.86716e-08
-6.38265e-09
-2.1206e-09
-6.88206e-10
-2.23914e-10
-6.0369e-11
-7.68332e-12
0
-2.19523e-12
1.09762e-12
0
-1.09762e-12
-8.78094e-12
-8.78094e-12
4.39047e-12
8.78094e-12
4.39047e-12
0
-1.20738e-11
-1.09762e-12
1.31714e-11
2.19523e-12
-2.19523e-12
-1.09762e-12
1.09762e-12
-1.09762e-12
-4.39047e-12
-7.68332e-12
3.29285e-12
1.31714e-11
-3.29285e-12
-3045.31
-2957.5
-2789.52
-2555.5
-2274.1
-1966.04
-1651.53
-1348.27
-1069.9
-825.433
-619.288
-451.941
-320.894
-221.744
-149.167
-97.714
-62.3494
-38.7647
-23.4913
-13.8799
-7.99872
-4.49729
-2.46789
-1.32218
-0.691819
-0.353654
-0.176684
-0.0862961
-0.0412198
-0.0192612
-0.00880778
-0.00394269
-0.00172822
-0.000742032
-0.000312172
-0.000128719
-5.20352e-05
-2.06292e-05
-8.0227e-06
-3.06147e-06
-1.14665e-06
-4.21627e-07
-1.52243e-07
-5.40269e-08
-1.88406e-08
-6.42106e-09
-2.12389e-09
-7.07963e-10
-2.29402e-10
-4.50023e-11
0
0
2.19523e-12
0
-2.19524e-12
5.48809e-12
0
-5.48809e-12
1.09762e-12
0
-2.19524e-12
0
1.09762e-12
0
4.39047e-12
0
-4.39047e-12
-1.09762e-12
0
-4.39047e-12
4.39047e-12
5.48809e-12
-4.39047e-12
1.09762e-12
-1.09762e-12
-3042.73
-2955.22
-2787.76
-2554.4
-2273.69
-1966.23
-1652.19
-1349.21
-1070.98
-826.51
-620.273
-452.781
-321.572
-222.264
-149.55
-97.9839
-62.533
-38.8854
-23.5681
-13.9273
-8.02703
-4.51375
-2.47719
-1.32729
-0.694561
-0.355087
-0.177414
-0.086659
-0.041396
-0.0193448
-0.00884654
-0.00396027
-0.00173602
-0.000745419
-0.000313612
-0.000129319
-5.22799e-05
-2.07271e-05
-8.06109e-06
-3.07622e-06
-1.15219e-06
-4.23692e-07
-1.53007e-07
-5.42838e-08
-1.89317e-08
-6.4496e-09
-2.15572e-09
-7.25525e-10
-2.19524e-10
-4.93928e-11
-8.78094e-12
-9.87856e-12
3.29285e-12
-5.48809e-12
-2.19524e-12
1.53666e-11
-1.09762e-12
0
5.48809e-12
1.09762e-12
-8.78094e-12
-1.09762e-12
5.48809e-12
8.78094e-12
0
-8.78094e-12
0
-4.39047e-12
0
-6.58571e-12
-1.09762e-12
9.87856e-12
9.87856e-12
1.09762e-12
-8.78094e-12
-3041.26
-2953.91
-2786.75
-2553.76
-2273.44
-1966.32
-1652.55
-1349.75
-1071.59
-827.133
-620.847
-453.275
-321.973
-222.574
-149.778
-98.1463
-62.6441
-38.9587
-23.6149
-13.9562
-8.04442
-4.52388
-2.48293
-1.33046
-0.696263
-0.355978
-0.177869
-0.0868857
-0.0415063
-0.0193972
-0.00887089
-0.00397133
-0.00174094
-0.000747555
-0.000314521
-0.000129698
-5.24349e-05
-2.07891e-05
-8.08542e-06
-3.0856e-06
-1.15575e-06
-4.24994e-07
-1.53474e-07
-5.44583e-08
-1.89833e-08
-6.49241e-09
-2.1667e-09
-7.28818e-10
-2.46964e-10
-5.1588e-11
0
0
-1.09762e-12
1.09762e-12
-4.39047e-12
-1.09762e-12
6.5857e-12
8.78094e-12
-1.09762e-12
-8.78094e-12
0
0
-2.19523e-12
4.39047e-12
2.19523e-12
-5.48809e-12
-2.19523e-12
0
2.19523e-12
-6.5857e-12
-4.39047e-12
6.5857e-12
4.39047e-12
8.78094e-12
-7.68332e-12
-3040.44
-2953.18
-2786.18
-2553.39
-2273.28
-1966.36
-1652.74
-1350.04
-1071.94
-827.485
-621.174
-453.558
-322.204
-222.754
-149.912
-98.2416
-62.7095
-39.0021
-23.6427
-13.9735
-8.05482
-4.52996
-2.48639
-1.33238
-0.697293
-0.356518
-0.178145
-0.0870237
-0.0415735
-0.0194292
-0.00888578
-0.0039781
-0.00174395
-0.000748867
-0.000315081
-0.000129932
-5.25304e-05
-2.08274e-05
-8.10049e-06
-3.09141e-06
-1.15794e-06
-4.25811e-07
-1.53755e-07
-5.45735e-08
-1.90173e-08
-6.48911e-09
-2.18645e-09
-7.28818e-10
-2.49159e-10
-6.14666e-11
1.09762e-12
0
-1.09762e-12
0
2.19524e-12
0
-1.09762e-12
0
-1.09762e-12
0
0
1.09762e-12
-1.09762e-12
0
0
0
-1.09762e-12
0
1.09762e-12
-1.4269e-11
4.39047e-12
9.87856e-12
-3.29285e-12
4.39047e-12
-1.09762e-12
-3039.99
-2952.77
-2785.86
-2553.19
-2273.19
-1966.38
-1652.84
-1350.2
-1072.13
-827.68
-621.356
-453.718
-322.335
-222.856
-149.988
-98.2962
-62.7472
-39.0271
-23.6588
-13.9835
-8.06088
-4.53352
-2.48841
-1.3335
-0.697899
-0.356837
-0.178309
-0.0871054
-0.0416135
-0.0194483
-0.00889465
-0.00398214
-0.00174575
-0.000749652
-0.000315416
-0.000130072
-5.25878e-05
-2.08504e-05
-8.10954e-06
-3.09489e-06
-1.15926e-06
-4.263e-07
-1.5397e-07
-5.46482e-08
-1.90448e-08
-6.50997e-09
-2.19084e-09
-7.13451e-10
-2.35988e-10
-6.80523e-11
0
0
-1.09762e-12
-1.09762e-12
0
1.09762e-12
-1.09762e-12
0
1.09762e-12
0
-3.29285e-12
0
3.29285e-12
0
1.09762e-12
8.78094e-12
0
-9.87856e-12
0
0
9.87856e-12
3.29285e-12
-1.4269e-11
-2.19523e-12
3.29285e-12
-3039.74
-2952.55
-2785.68
-2553.07
-2273.14
-1966.38
-1652.9
-1350.29
-1072.23
-827.785
-621.456
-453.805
-322.407
-222.912
-150.031
-98.3267
-62.7683
-39.0412
-23.6679
-13.9892
-8.06432
-4.53554
-2.48957
-1.33414
-0.698247
-0.357021
-0.178403
-0.0871527
-0.0416366
-0.0194593
-0.0088998
-0.00398449
-0.0017468
-0.00075011
-0.000315612
-0.000130154
-5.26214e-05
-2.08639e-05
-8.11485e-06
-3.09694e-06
-1.16003e-06
-4.26609e-07
-1.54091e-07
-5.46581e-08
-1.90459e-08
-6.51985e-09
-2.19853e-09
-7.21135e-10
-2.48062e-10
-7.57356e-11
0
0
0
1.09762e-12
1.09762e-12
-2.19523e-12
1.09762e-12
-1.09762e-12
2.19523e-12
-2.19523e-12
-1.09762e-11
3.29285e-12
7.68332e-12
-8.78094e-12
-1.09762e-11
9.87856e-12
9.87856e-12
5.48809e-12
-1.09762e-12
-4.39047e-12
0
-1.09762e-12
0
0
1.09762e-12
-3039.61
-2952.44
-2785.59
-2553.01
-2273.11
-1966.38
-1652.92
-1350.33
-1072.28
-827.842
-621.509
-453.852
-322.446
-222.943
-150.054
-98.3433
-62.7798
-39.049
-23.6729
-13.9924
-8.06623
-4.53667
-2.49022
-1.3345
-0.698442
-0.357124
-0.178456
-0.0871793
-0.0416496
-0.0194655
-0.00890272
-0.00398582
-0.00174739
-0.000750371
-0.000315723
-0.0001302
-5.26405e-05
-2.08716e-05
-8.11787e-06
-3.09813e-06
-1.16048e-06
-4.26764e-07
-1.54153e-07
-5.47107e-08
-1.90766e-08
-6.51985e-09
-2.17767e-09
-7.32111e-10
-2.60135e-10
-5.92713e-11
6.58571e-12
0
0
1.09762e-12
2.19524e-12
1.86595e-11
-4.39047e-12
-1.75619e-11
1.09762e-12
0
-1.09762e-11
-1.09762e-12
1.31714e-11
0
-2.19523e-12
0
1.09762e-12
-1.09762e-12
0
-2.19524e-12
-2.19523e-12
6.58571e-12
-3.29285e-12
-7.68332e-12
8.78094e-12
-3039.55
-2952.38
-2785.55
-2552.98
-2273.1
-1966.39
-1652.94
-1350.36
-1072.31
-827.871
-621.537
-453.876
-322.467
-222.959
-150.066
-98.3522
-62.786
-39.0531
-23.6756
-13.9941
-8.06727
-4.53728
-2.49057
-1.3347
-0.698548
-0.35718
-0.178485
-0.0871939
-0.0416568
-0.019469
-0.00890432
-0.00398656
-0.00174772
-0.000750515
-0.000315785
-0.000130226
-5.26512e-05
-2.08759e-05
-8.11957e-06
-3.09876e-06
-1.16072e-06
-4.26869e-07
-1.54185e-07
-5.47415e-08
-1.90865e-08
-6.52643e-09
-2.2117e-09
-7.18939e-10
-2.25012e-10
-6.25642e-11
2.19524e-12
0
1.09762e-12
0
-3.29285e-12
9.87856e-12
0
-9.87856e-12
0
0
0
0
-1.64643e-11
0
1.64643e-11
0
1.09762e-12
0
0
-1.31714e-11
0
1.20738e-11
-3.29285e-12
1.09762e-12
2.19524e-12
-3039.51
-2952.35
-2785.52
-2552.96
-2273.09
-1966.39
-1652.94
-1350.37
-1072.33
-827.886
-621.551
-453.889
-322.477
-222.968
-150.072
-98.3569
-62.7893
-39.0553
-23.6771
-13.995
-8.06782
-4.53761
-2.49076
-1.3348
-0.698605
-0.35721
-0.1785
-0.0872017
-0.0416606
-0.0194708
-0.00890519
-0.00398696
-0.0017479
-0.000750593
-0.000315818
-0.00013024
-5.2657e-05
-2.08783e-05
-8.12052e-06
-3.09914e-06
-1.16088e-06
-4.26917e-07
-1.54197e-07
-5.4747e-08
-1.9092e-08
-6.52424e-09
-2.19633e-09
-7.24428e-10
-2.28304e-10
-5.48809e-11
0
0
-1.09762e-12
1.09762e-12
0
-1.09762e-12
-7.68332e-12
-1.09762e-12
7.68332e-12
1.09762e-12
0
0
0
-1.09762e-12
-4.39047e-12
1.20738e-11
4.39047e-12
-1.09762e-11
-2.19523e-12
-1.09762e-12
2.19523e-12
0
0
-1.09762e-11
1.20738e-11
-3039.5
-2952.33
-2785.51
-2552.95
-2273.09
-1966.39
-1652.95
-1350.37
-1072.33
-827.893
-621.558
-453.895
-322.482
-222.972
-150.076
-98.3592
-62.7909
-39.0564
-23.6778
-13.9954
-8.0681
-4.53777
-2.49085
-1.33486
-0.698635
-0.357226
-0.178509
-0.0872058
-0.0416626
-0.0194718
-0.00890565
-0.00398717
-0.001748
-0.000750634
-0.000315836
-0.000130248
-5.26601e-05
-2.08795e-05
-8.12102e-06
-3.09934e-06
-1.16096e-06
-4.26945e-07
-1.54212e-07
-5.47426e-08
-1.90733e-08
-6.51436e-09
-2.2106e-09
-7.32111e-10
-2.12938e-10
-5.92713e-11
-1.31714e-11
5.48809e-12
0
-7.68332e-12
3.29285e-12
2.19523e-12
7.68332e-12
1.09762e-12
-1.20738e-11
0
-1.09762e-12
-1.09762e-12
-2.19524e-12
0
1.75619e-11
0
-1.4269e-11
0
1.09762e-12
-5.48809e-12
-2.19523e-12
6.58571e-12
-1.09762e-12
-1.09762e-12
2.19524e-12
-3039.49
-2952.32
-2785.5
-2552.95
-2273.08
-1966.39
-1652.95
-1350.38
-1072.34
-827.897
-621.562
-453.898
-322.485
-222.974
-150.077
-98.3604
-62.7918
-39.057
-23.6782
-13.9957
-8.06824
-4.53786
-2.4909
-1.33488
-0.69865
-0.357234
-0.178513
-0.0872079
-0.0416637
-0.0194723
-0.00890588
-0.00398727
-0.00174804
-0.000750656
-0.000315845
-0.000130252
-5.26617e-05
-2.08802e-05
-8.12128e-06
-3.09946e-06
-1.16101e-06
-4.26967e-07
-1.54227e-07
-5.47272e-08
-1.90623e-08
-6.52204e-09
-2.2128e-09
-7.41989e-10
-2.23914e-10
-5.81737e-11
-8.78094e-12
5.48809e-12
8.78094e-12
-1.31714e-11
6.58571e-12
1.53666e-11
-2.19524e-12
-3.29285e-12
-5.48809e-12
2.19524e-12
1.09762e-12
-3.29285e-12
4.39047e-12
4.39047e-12
-4.39047e-12
-2.19524e-12
0
0
0
0
0
0
1.09762e-12
1.09762e-12
-2.19524e-12
-3039.48
-2952.32
-2785.5
-2552.95
-2273.08
-1966.39
-1652.95
-1350.38
-1072.34
-827.898
-621.563
-453.9
-322.486
-222.975
-150.078
-98.361
-62.7922
-39.0573
-23.6783
-13.9958
-8.06831
-4.5379
-2.49093
-1.3349
-0.698657
-0.357238
-0.178515
-0.087209
-0.0416642
-0.0194726
-0.008906
-0.00398733
-0.00174807
-0.000750666
-0.00031585
-0.000130254
-5.26625e-05
-2.08805e-05
-8.12139e-06
-3.09949e-06
-1.16104e-06
-4.27009e-07
-1.54244e-07
-5.47338e-08
-1.90579e-08
-6.52534e-09
-2.22377e-09
-7.22232e-10
-2.26109e-10
-6.5857e-11
-4.39047e-12
-1.09762e-12
3.29285e-12
0
0
0
8.78094e-12
-2.19523e-12
-5.48809e-12
1.09762e-12
-2.19523e-12
0
2.19523e-12
-2.19523e-12
-2.19523e-12
4.39047e-12
1.09762e-12
-3.29285e-12
0
0
2.19523e-12
0
-2.19523e-12
-5.48809e-12
5.48809e-12
-3039.48
-2952.32
-2785.5
-2552.95
-2273.08
-1966.39
-1652.95
-1350.38
-1072.34
-827.899
-621.564
-453.901
-322.487
-222.975
-150.078
-98.3612
-62.7924
-39.0574
-23.6784
-13.9958
-8.06834
-4.53792
-2.49094
-1.3349
-0.698661
-0.35724
-0.178516
-0.0872095
-0.0416644
-0.0194727
-0.00890606
-0.00398735
-0.00174808
-0.000750672
-0.000315852
-0.000130255
-5.26629e-05
-2.08807e-05
-8.12145e-06
-3.09951e-06
-1.16102e-06
-4.26984e-07
-1.54241e-07
-5.47415e-08
-1.90689e-08
-6.52534e-09
-2.19523e-09
-7.36501e-10
-2.5355e-10
-6.69547e-11
-5.48809e-12
0
0
0
0
2.19523e-12
0
-1.09762e-12
0
0
-2.19524e-12
0
-4.39047e-12
-1.09762e-12
5.48809e-12
1.09762e-12
0
2.19523e-12
-1.09762e-12
-6.58571e-12
0
2.19524e-12
-1.4269e-11
4.39047e-12
1.31714e-11
-3039.48
-2952.32
-2785.5
-2552.95
-2273.08
-1966.39
-1652.95
-1350.38
-1072.34
-827.9
-621.565
-453.901
-322.487
-222.976
-150.079
-98.3614
-62.7924
-39.0574
-23.6785
-13.9959
-8.06836
-4.53793
-2.49094
-1.33491
-0.698663
-0.357241
-0.178516
-0.0872097
-0.0416646
-0.0194727
-0.00890609
-0.00398737
-0.00174809
-0.000750674
-0.000315853
-0.000130255
-5.26631e-05
-2.08808e-05
-8.12148e-06
-3.09951e-06
-1.16102e-06
-4.26975e-07
-1.54232e-07
-5.47437e-08
-1.90667e-08
-6.49899e-09
-2.18865e-09
-7.33208e-10
-2.49159e-10
-9.21999e-11
-1.75619e-11
-5.48809e-12
-1.09762e-12
5.48809e-12
0
2.19523e-12
0
1.09762e-12
0
-2.19524e-12
0
-5.48809e-12
-1.75619e-11
4.39047e-12
1.86595e-11
0
-1.09762e-12
1.09762e-12
0
0
0
0
0
8.78094e-12
-8.78094e-12
-3039.48
-2952.32
-2785.5
-2552.95
-2273.08
-1966.39
-1652.95
-1350.38
-1072.34
-827.9
-621.565
-453.901
-322.487
-222.976
-150.079
-98.3614
-62.7925
-39.0575
-23.6785
-13.9959
-8.06837
-4.53793
-2.49095
-1.33491
-0.698663
-0.357241
-0.178517
-0.0872098
-0.0416646
-0.0194728
-0.0089061
-0.00398737
-0.00174809
-0.000750675
-0.000315854
-0.000130255
-5.26632e-05
-2.08808e-05
-8.1215e-06
-3.09953e-06
-1.16103e-06
-4.26973e-07
-1.54217e-07
-5.47064e-08
-1.90382e-08
-6.50558e-09
-2.20182e-09
-7.36501e-10
-2.63428e-10
-9.65903e-11
-1.31714e-11
1.09762e-12
2.19523e-12
-1.09762e-12
-2.19523e-12
0
0
0
-1.09762e-12
0
1.09762e-12
-1.09762e-12
0
1.09762e-12
-3.29285e-12
0
3.29285e-12
9.87856e-12
3.29285e-12
-8.78094e-12
-2.41476e-11
-1.09762e-12
1.64643e-11
2.19523e-12
2.19523e-12
-3039.48
-2952.32
-2785.5
-2552.95
-2273.08
-1966.39
-1652.95
-1350.38
-1072.34
-827.9
-621.565
-453.901
-322.487
-222.976
-150.079
-98.3615
-62.7925
-39.0575
-23.6785
-13.9959
-8.06837
-4.53794
-2.49095
-1.33491
-0.698664
-0.357241
-0.178517
-0.0872099
-0.0416646
-0.0194728
-0.0089061
-0.00398738
-0.00174809
-0.000750676
-0.000315854
-0.000130255
-5.26632e-05
-2.08808e-05
-8.1215e-06
-3.09952e-06
-1.16103e-06
-4.26978e-07
-1.54212e-07
-5.47217e-08
-1.90546e-08
-6.48911e-09
-2.20731e-09
-7.37599e-10
-2.44769e-10
-8.78094e-11
-9.87856e-12
1.31714e-11
0
-1.53666e-11
0
1.20738e-11
-1.09762e-12
-9.87856e-12
0
-1.09762e-12
1.09762e-12
0
0
0
0
0
9.87856e-12
2.19523e-12
-9.87856e-12
-6.58571e-12
-1.09762e-12
5.48809e-12
0
0
0
-3039.48
-2952.32
-2785.5
-2552.95
-2273.08
-1966.39
-1652.95
-1350.38
-1072.34
-827.9
-621.565
-453.901
-322.487
-222.976
-150.079
-98.3615
-62.7925
-39.0575
-23.6785
-13.9959
-8.06837
-4.53794
-2.49095
-1.33491
-0.698664
-0.357241
-0.178517
-0.0872099
-0.0416647
-0.0194728
-0.00890611
-0.00398738
-0.00174809
-0.000750676
-0.000315854
-0.000130255
-5.26632e-05
-2.08808e-05
-8.12151e-06
-3.09954e-06
-1.16103e-06
-4.26966e-07
-1.54224e-07
-5.47206e-08
-1.90546e-08
-6.4968e-09
-2.18316e-09
-7.31013e-10
-2.49159e-10
-7.68332e-11
-1.20738e-11
1.09762e-12
1.09762e-11
1.09762e-12
2.19524e-12
8.78094e-12
-1.31714e-11
-9.87856e-12
1.20738e-11
-1.09762e-12
-4.39047e-12
-3.29285e-12
4.39047e-12
3.29285e-12
0
0
1.09762e-12
-1.09762e-12
7.68332e-12
1.09762e-12
-4.39047e-12
0
-2.19524e-12
0
-2.19524e-12
-3039.48
-2952.32
-2785.5
-2552.95
-2273.08
-1966.39
-1652.95
-1350.38
-1072.34
-827.9
-621.565
-453.901
-322.487
-222.976
-150.079
-98.3615
-62.7925
-39.0575
-23.6785
-13.9959
-8.06837
-4.53794
-2.49095
-1.33491
-0.698664
-0.357241
-0.178517
-0.0872099
-0.0416647
-0.0194728
-0.00890611
-0.00398738
-0.00174809
-0.000750676
-0.000315854
-0.000130255
-5.26633e-05
-2.08808e-05
-8.12149e-06
-3.09955e-06
-1.16103e-06
-4.26959e-07
-1.54217e-07
-5.47283e-08
-1.90645e-08
-6.50777e-09
-2.19084e-09
-7.16744e-10
-2.37085e-10
-7.02475e-11
-5.48809e-12
3.29285e-12
7.68332e-12
0
-2.19523e-12
0
-1.75619e-11
-9.87856e-12
5.48809e-12
5.48809e-12
1.20738e-11
4.39047e-12
-2.19523e-12
0
-7.68332e-12
0
1.4269e-11
0
-4.39047e-12
-7.68332e-12
-1.09762e-12
-1.09762e-12
0
1.64643e-11
-6.5857e-12
-3039.48
-2952.32
-2785.5
-2552.95
-2273.08
-1966.39
-1652.95
-1350.38
-1072.34
-827.9
-621.565
-453.901
-322.487
-222.976
-150.079
-98.3615
-62.7925
-39.0575
-23.6785
-13.9959
-8.06837
-4.53794
-2.49095
-1.33491
-0.698664
-0.357241
-0.178517
-0.0872099
-0.0416647
-0.0194728
-0.00890611
-0.00398738
-0.00174809
-0.000750676
-0.000315854
-0.000130255
-5.26633e-05
-2.08808e-05
-8.12149e-06
-3.09951e-06
-1.16101e-06
-4.26948e-07
-1.54205e-07
-5.47349e-08
-1.90711e-08
-6.50119e-09
-2.18426e-09
-7.15647e-10
-2.51354e-10
-8.12237e-11
2.19524e-12
1.09762e-12
-1.09762e-12
-1.09762e-12
8.78094e-12
3.29285e-12
-1.09762e-11
-9.87856e-12
1.09762e-12
-5.48809e-12
1.09762e-12
1.31714e-11
-5.48809e-12
-1.09762e-12
6.5857e-12
0
1.09762e-12
0
-1.09762e-12
-1.31714e-11
0
6.58571e-12
-4.39047e-12
6.5857e-12
4.39047e-12
-3039.48
-2952.32
-2785.5
-2552.95
-2273.08
-1966.39
-1652.95
-1350.38
-1072.34
-827.9
-621.565
-453.901
-322.487
-222.976
-150.079
-98.3615
-62.7925
-39.0575
-23.6785
-13.9959
-8.06837
-4.53794
-2.49095
-1.33491
-0.698664
-0.357241
-0.178517
-0.0872099
-0.0416647
-0.0194728
-0.00890611
-0.00398738
-0.00174809
-0.000750676
-0.000315854
-0.000130255
-5.26633e-05
-2.08808e-05
-8.12149e-06
-3.09951e-06
-1.16101e-06
-4.26951e-07
-1.5422e-07
-5.47206e-08
-1.9059e-08
-6.49899e-09
-2.19194e-09
-7.40892e-10
-2.33793e-10
-6.80523e-11
-9.87856e-12
3.29285e-12
-7.68332e-12
1.09762e-12
1.53666e-11
1.09762e-12
-1.75619e-11
8.78094e-12
1.31714e-11
-8.78094e-12
2.19524e-12
0
-2.19524e-12
-1.09762e-12
1.09762e-12
-3.29285e-12
4.39047e-12
4.39047e-12
1.09762e-12
-2.19524e-12
-5.48809e-12
1.09762e-12
1.09762e-12
-1.09762e-12
0
-3039.48
-2952.32
-2785.5
-2552.95
-2273.08
-1966.39
-1652.95
-1350.38
-1072.34
-827.9
-621.565
-453.901
-322.487
-222.976
-150.079
-98.3615
-62.7925
-39.0575
-23.6785
-13.9959
-8.06837
-4.53794
-2.49095
-1.33491
-0.698664
-0.357241
-0.178517
-0.0872099
-0.0416647
-0.0194728
-0.00890611
-0.00398738
-0.00174809
-0.000750676
-0.000315854
-0.000130255
-5.26632e-05
-2.08808e-05
-8.12151e-06
-3.09951e-06
-1.161e-06
-4.26951e-07
-1.54215e-07
-5.47261e-08
-1.90524e-08
-6.51546e-09
-2.20182e-09
-7.47478e-10
-2.61233e-10
-5.92713e-11
1.31714e-11
0
-7.68332e-12
1.09762e-12
-1.09762e-11
-1.09762e-12
9.87856e-12
0
3.29285e-12
-1.09762e-12
-2.19523e-12
-1.09762e-12
-5.48809e-12
-2.19523e-12
7.68332e-12
4.39047e-12
1.31714e-11
0
-1.31714e-11
8.78094e-12
1.31714e-11
-1.09762e-11
-1.09762e-11
-1.09762e-12
1.09762e-12
-3039.48
-2952.32
-2785.5
-2552.95
-2273.08
-1966.39
-1652.95
-1350.38
-1072.34
-827.9
-621.565
-453.901
-322.487
-222.976
-150.079
-98.3615
-62.7925
-39.0575
-23.6785
-13.9959
-8.06837
-4.53794
-2.49095
-1.33491
-0.698664
-0.357241
-0.178517
-0.0872099
-0.0416647
-0.0194728
-0.00890611
-0.00398738
-0.00174809
-0.000750676
-0.000315854
-0.000130255
-5.26632e-05
-2.08808e-05
-8.12152e-06
-3.0995e-06
-1.161e-06
-4.26949e-07
-1.54175e-07
-5.47184e-08
-1.90722e-08
-6.52095e-09
-2.20292e-09
-7.52966e-10
-2.74404e-10
-7.13451e-11
7.68332e-12
1.4269e-11
7.68332e-12
-1.4269e-11
0
4.39047e-12
-8.78094e-12
-5.48809e-12
0
0
0
0
0
-3.29285e-12
0
4.39047e-12
0
-1.09762e-12
-8.78094e-12
-6.58571e-12
1.53666e-11
5.48809e-12
-8.78094e-12
0
3.29285e-12
-3039.48
-2952.32
-2785.5
-2552.95
-2273.08
-1966.39
-1652.95
-1350.38
-1072.34
-827.9
-621.565
-453.901
-322.487
-222.976
-150.079
-98.3615
-62.7925
-39.0575
-23.6785
-13.9959
-8.06837
-4.53794
-2.49095
-1.33491
-0.698664
-0.357241
-0.178517
-0.0872099
-0.0416647
-0.0194728
-0.00890611
-0.00398738
-0.00174809
-0.000750676
-0.000315854
-0.000130255
-5.26632e-05
-2.08808e-05
-8.12151e-06
-3.09951e-06
-1.161e-06
-4.26937e-07
-1.54177e-07
-5.47075e-08
-1.90612e-08
-6.5418e-09
-2.23585e-09
-7.39794e-10
-2.5355e-10
-8.23213e-11
7.68332e-12
1.4269e-11
-8.78094e-12
-1.53666e-11
0
1.53666e-11
0
-1.31714e-11
0
-1.09762e-12
-3.29285e-12
-1.09762e-12
4.39047e-12
0
0
0
0
1.09762e-12
-1.09762e-12
-7.68332e-12
1.09762e-12
7.68332e-12
-8.78094e-12
0
7.68332e-12
-3039.48
-2952.32
-2785.5
-2552.95
-2273.08
-1966.39
-1652.95
-1350.38
-1072.34
-827.9
-621.565
-453.901
-322.487
-222.976
-150.079
-98.3615
-62.7925
-39.0575
-23.6785
-13.9959
-8.06837
-4.53794
-2.49095
-1.33491
-0.698664
-0.357241
-0.178517
-0.0872099
-0.0416647
-0.0194728
-0.00890611
-0.00398738
-0.00174809
-0.000750676
-0.000315854
-0.000130255
-5.26632e-05
-2.08808e-05
-8.12149e-06
-3.0995e-06
-1.16102e-06
-4.26974e-07
-1.54178e-07
-5.46745e-08
-1.90612e-08
-6.55607e-09
-2.22597e-09
-7.43087e-10
-2.49159e-10
-7.4638e-11
-1.31714e-11
0
0
-1.09762e-12
-9.87856e-12
0
4.39047e-12
0
5.48809e-12
0
-2.19523e-12
5.48809e-12
2.19523e-12
-4.39047e-12
0
-1.09762e-12
0
7.68332e-12
7.68332e-12
-6.5857e-12
-9.87856e-12
-7.68332e-12
-2.19523e-12
3.29285e-12
7.68332e-12
-3039.48
-2952.32
-2785.5
-2552.95
-2273.08
-1966.39
-1652.95
-1350.38
-1072.34
-827.9
-621.565
-453.901
-322.487
-222.976
-150.079
-98.3615
-62.7925
-39.0575
-23.6785
-13.9959
-8.06837
-4.53794
-2.49095
-1.33491
-0.698664
-0.357241