/*--------------------------------*- C++ -*----------------------------------*\
  =========                 |
  \\      /  F ield         | OpenFOAM: The Open Source CFD Toolbox
   \\    /   O peration     | Website:  https://openfoam.org
    \\  /    A nd           | Version:  10
     \\/     M anipulation  |
\*---------------------------------------------------------------------------*/
FoamFile
{
    format      ascii;
    class       volScalarField;
    location    "287";
    object      gradTz;
}
// * * * * * * * * * * * * * * * * * * * * * * * * * * * * * * * * * * * * * //

dimensions      [0 -1 0 1 0 0 0];

internalField   nonuniform List<scalar> 
11250
(
-14351.7
-4147.11
-1526.78
-723.149
-418.345
-276.602
-199.068
-151.367
-119.433
-96.6709
-79.6436
-66.4156
-55.8298
-47.1617
-39.9394
-33.845
-28.657
-24.2162
-20.4039
-17.1288
-14.3181
-11.9115
-9.85819
-8.1139
-6.63962
-5.40054
-4.36544
-3.50627
-2.7979
-2.21788
-1.74631
-1.36568
-1.06069
-0.818131
-0.626652
-0.476633
-0.359984
-0.269967
-0.20103
-0.148636
-0.109118
-0.0795374
-0.0575638
-0.0413646
-0.0295126
-0.0209067
-0.0147049
-0.0102693
-0.00712069
-0.00490237
-0.00335116
-0.00227452
-0.00153283
-0.00102566
-0.000681438
-0.000449529
-0.000294441
-0.000191491
-0.000123653
-7.92803e-05
-5.04694e-05
-3.18998e-05
-2.00189e-05
-1.24732e-05
-7.71605e-06
-4.73902e-06
-2.88975e-06
-1.74956e-06
-1.05187e-06
-6.28407e-07
-3.7376e-07
-2.22643e-07
-1.35109e-07
-8.74834e-08
-6.66221e-08
-8259.06
-4856.69
-2763.24
-1670.25
-1091.64
-765.302
-567.126
-438.138
-348.986
-284.187
-235.091
-196.611
-165.622
-140.127
-118.81
-100.775
-85.3899
-72.1999
-60.8627
-51.1135
-42.7399
-35.5658
-29.4417
-24.237
-19.8365
-16.137
-13.0457
-10.4793
-8.36296
-6.62983
-5.22057
-4.08295
-3.17134
-2.44624
-1.8738
-1.42528
-1.07651
-0.807347
-0.601207
-0.444529
-0.32635
-0.237888
-0.172171
-0.123723
-0.0882747
-0.0625349
-0.0439853
-0.0307181
-0.0213001
-0.0146646
-0.0100246
-0.00680405
-0.00458538
-0.00306826
-0.00203854
-0.00134479
-0.000880846
-0.000572867
-0.000369925
-0.000237181
-0.000150989
-9.54354e-05
-5.98915e-05
-3.7317e-05
-2.3085e-05
-1.41784e-05
-8.64569e-06
-5.23442e-06
-3.14712e-06
-1.88018e-06
-1.11827e-06
-6.66073e-07
-4.04233e-07
-2.61816e-07
-1.99346e-07
-5567.56
-4256.12
-2998.03
-2101.86
-1511.67
-1124.96
-865.264
-684.489
-553.759
-455.729
-379.802
-319.337
-270.067
-229.177
-194.759
-165.49
-140.425
-118.869
-100.297
-84.2949
-70.53
-58.7224
-48.6327
-40.0508
-32.7898
-26.682
-21.576
-17.3352
-13.8369
-10.9712
-8.64039
-6.75844
-5.25008
-4.05012
-3.10266
-2.3602
-1.78278
-1.33713
-0.995785
-0.736322
-0.540599
-0.394081
-0.285229
-0.204975
-0.146253
-0.103612
-0.0728801
-0.0508989
-0.0352947
-0.0243003
-0.0166119
-0.0112753
-0.00759886
-0.00508481
-0.0033784
-0.00222872
-0.00145985
-0.000949446
-0.00061311
-0.000393107
-0.000250256
-0.000158182
-9.92701e-05
-6.1854e-05
-3.82646e-05
-2.35018e-05
-1.43312e-05
-8.67674e-06
-5.21684e-06
-3.11673e-06
-1.85379e-06
-1.10417e-06
-6.70133e-07
-4.34039e-07
-3.30516e-07
-4185.38
-3600.11
-2868.91
-2225.65
-1726.54
-1356.17
-1083.26
-879.832
-725.123
-604.72
-508.849
-430.901
-366.381
-312.189
-266.153
-226.725
-192.773
-163.447
-138.093
-116.189
-97.3044
-81.0767
-67.1897
-55.3638
-45.3483
-36.9165
-29.8626
-24.0006
-19.1625
-15.1975
-11.9714
-9.36578
-7.27677
-5.61446
-4.30165
-3.27269
-2.47232
-1.8545
-1.38121
-1.02141
-0.749968
-0.546745
-0.395752
-0.284419
-0.20295
-0.143785
-0.101143
-0.0706411
-0.0489866
-0.0337285
-0.023058
-0.0156512
-0.0105483
-0.00705867
-0.00468999
-0.00309406
-0.00202673
-0.00131816
-0.000851233
-0.000545798
-0.000347469
-0.000219633
-0.000137839
-8.58875e-05
-5.31336e-05
-3.2635e-05
-1.99009e-05
-1.20492e-05
-7.24469e-06
-4.32833e-06
-2.57449e-06
-1.53352e-06
-9.30754e-07
-6.02846e-07
-4.59052e-07
-3385.52
-3087.13
-2649.12
-2202.73
-1810.36
-1487.91
-1230.08
-1025.11
-861.199
-728.555
-619.693
-529.085
-452.71
-387.648
-331.767
-283.492
-241.638
-205.293
-173.737
-146.38
-122.731
-102.362
-84.8995
-70.0062
-57.3768
-46.7331
-37.8209
-30.409
-24.2877
-19.2683
-15.1824
-11.8808
-9.23289
-7.12516
-5.46011
-4.15473
-3.13912
-2.35498
-1.75418
-1.29737
-0.952695
-0.694605
-0.502823
-0.361398
-0.257899
-0.182729
-0.128546
-0.0897852
-0.0622658
-0.042874
-0.0293116
-0.019897
-0.0134104
-0.00897429
-0.00596302
-0.00393406
-0.00257705
-0.00167614
-0.00108244
-0.00069407
-0.000441877
-0.000279316
-0.0001753
-0.000109233
-6.75783e-05
-4.15083e-05
-2.53127e-05
-1.53263e-05
-9.21531e-06
-5.50586e-06
-3.275e-06
-1.95085e-06
-1.18408e-06
-7.66969e-07
-5.84057e-07
-2880.29
-2710.1
-2434.19
-2122.52
-1821.34
-1552.47
-1321.89
-1127.63
-964.755
-827.812
-711.928
-613.097
-528.163
-454.695
-390.825
-335.117
-286.449
-243.93
-206.831
-174.543
-146.54
-122.36
-101.585
-83.8348
-68.7604
-56.0402
-45.3781
-36.5028
-29.1672
-23.1481
-18.2456
-14.2822
-11.1021
-8.56972
-6.56853
-4.99915
-3.77781
-2.8346
-2.11176
-1.56205
-1.1472
-0.836515
-0.605617
-0.435324
-0.310682
-0.220146
-0.154881
-0.108187
-0.0750329
-0.0516684
-0.0353262
-0.0239812
-0.0161639
-0.0108176
-0.00718815
-0.00474254
-0.00310679
-0.00202078
-0.00130506
-0.000836848
-0.000532797
-0.000336801
-0.000211385
-0.000131724
-8.14951e-05
-5.00581e-05
-3.05277e-05
-1.84845e-05
-1.11147e-05
-6.64094e-06
-3.95034e-06
-2.35325e-06
-1.42837e-06
-9.2524e-07
-7.04625e-07
-2540.72
-2434.34
-2250.81
-2027.91
-1796.45
-1575.63
-1374.77
-1196.72
-1040.87
-905.05
-786.683
-683.281
-592.679
-513.072
-442.991
-381.248
-326.869
-279.049
-237.106
-200.444
-168.538
-140.907
-117.11
-96.7379
-79.4081
-64.7641
-52.4748
-42.2346
-33.7636
-26.8075
-21.1381
-16.552
-12.8705
-9.93754
-7.61886
-5.79986
-4.38381
-3.28992
-2.4514
-1.81357
-1.33212
-0.971485
-0.703421
-0.505684
-0.360936
-0.255781
-0.179968
-0.125722
-0.0872013
-0.0600522
-0.0410612
-0.0278763
-0.0187905
-0.0125761
-0.00835717
-0.00551413
-0.00361244
-0.00234979
-0.00151762
-0.000973189
-0.000619629
-0.000391707
-0.000245857
-0.000153211
-9.47928e-05
-5.82287e-05
-3.5512e-05
-2.15034e-05
-1.29305e-05
-7.7262e-06
-4.59614e-06
-2.73813e-06
-1.66207e-06
-1.07667e-06
-8.19988e-07
-2302.23
-2230.58
-2101.87
-1937.28
-1756.8
-1575.24
-1401.81
-1241.21
-1095.18
-963.722
-845.975
-740.751
-646.812
-563.002
-488.298
-421.812
-362.775
-310.51
-264.417
-223.949
-188.599
-157.893
-131.381
-108.637
-89.2539
-72.8504
-59.0668
-47.5687
-38.048
-30.2235
-23.8417
-18.6762
-14.5271
-11.2201
-8.60461
-6.55192
-4.9534
-3.71818
-2.77104
-2.05041
-1.50633
-1.0987
-0.795644
-0.572057
-0.408359
-0.28942
-0.203658
-0.142285
-0.0986985
-0.0679757
-0.0464827
-0.0315593
-0.0212747
-0.0142397
-0.00946324
-0.0062443
-0.00409103
-0.00266125
-0.00171886
-0.0011023
-0.000701867
-0.000443717
-0.000278514
-0.00017357
-0.000107394
-6.59725e-05
-4.02366e-05
-2.43655e-05
-1.46522e-05
-8.75538e-06
-5.20866e-06
-3.10323e-06
-1.88382e-06
-1.2204e-06
-9.29472e-07
-2129.41
-2078.03
-1983.21
-1857.37
-1713.54
-1562.64
-1412.59
-1268.42
-1132.94
-1007.41
-892.178
-787.031
-691.511
-605.051
-527.062
-456.97
-394.226
-338.313
-288.733
-245.008
-206.67
-173.265
-144.347
-119.484
-98.2572
-80.2642
-65.1246
-52.4806
-42.0005
-33.3801
-26.3437
-20.6445
-16.064
-12.4113
-9.52096
-7.25166
-5.48379
-4.11725
-3.0691
-2.27139
-1.66897
-1.21753
-0.881831
-0.634114
-0.452717
-0.320898
-0.225833
-0.157795
-0.109468
-0.0753998
-0.051564
-0.0350121
-0.0236041
-0.0158
-0.0105009
-0.00692945
-0.0045402
-0.00295362
-0.00190781
-0.00122354
-0.000779107
-0.000492574
-0.000309197
-0.000192701
-0.000119238
-7.32516e-05
-4.46784e-05
-2.70566e-05
-1.62714e-05
-9.72346e-06
-5.78489e-06
-3.44671e-06
-2.0925e-06
-1.35572e-06
-1.03258e-06
-2001.29
-1962.44
-1889.35
-1789.7
-1672.14
-1544.65
-1413.68
-1283.92
-1158.52
-1039.41
-927.666
-823.79
-727.924
-639.992
-559.792
-487.046
-421.426
-362.578
-310.119
-263.651
-222.758
-187.016
-155.996
-129.265
-106.401
-86.9895
-70.6335
-56.9574
-45.6101
-36.2679
-28.6362
-22.4506
-17.4761
-13.507
-10.3648
-7.89664
-5.97311
-4.48571
-3.34451
-2.47572
-1.81945
-1.32754
-0.961663
-0.691624
-0.493845
-0.350095
-0.246411
-0.172193
-0.119469
-0.0822964
-0.0562856
-0.0382215
-0.0257699
-0.017251
-0.0114662
-0.00756696
-0.00495823
-0.00322577
-0.00208373
-0.00133644
-0.000851049
-0.000538088
-0.000337786
-0.000210531
-0.000130277
-8.00377e-05
-4.882e-05
-2.95664e-05
-1.77818e-05
-1.06266e-05
-6.32256e-06
-3.76734e-06
-2.2873e-06
-1.48202e-06
-1.12889e-06
-1904.73
-1873.95
-1815.26
-1733.63
-1634.97
-1525.17
-1409.38
-1291.75
-1175.38
-1062.5
-954.599
-852.655
-757.249
-668.692
-587.107
-512.475
-444.676
-383.51
-328.713
-279.969
-236.921
-199.183
-166.347
-137.991
-113.691
-93.0271
-75.5923
-60.9966
-48.8737
-38.8838
-30.7165
-24.092
-18.7612
-14.5054
-11.1346
-8.48565
-6.4204
-4.82283
-3.59669
-2.66296
-1.95744
-1.42848
-1.03496
-0.744454
-0.531644
-0.376943
-0.265341
-0.185443
-0.128676
-0.0886482
-0.0606358
-0.0411793
-0.0277665
-0.0185892
-0.0123565
-0.00815516
-0.00534402
-0.003477
-0.00224616
-0.00144071
-0.000917503
-0.000580139
-0.000364205
-0.000227009
-0.000140482
-8.63121e-05
-5.26502e-05
-3.18878e-05
-1.9179e-05
-1.14623e-05
-6.82024e-06
-4.06415e-06
-2.46765e-06
-1.59901e-06
-1.2181e-06
-1831.09
-1805.69
-1756.8
-1687.77
-1602.8
-1506.31
-1402.43
-1294.74
-1186.14
-1078.94
-974.838
-875.108
-780.636
-692.029
-609.667
-533.75
-464.339
-401.376
-344.707
-294.1
-249.258
-209.836
-175.45
-145.695
-120.149
-98.393
-80.0115
-64.6052
-51.7958
-41.2306
-32.5861
-25.5696
-19.9198
-15.4068
-11.8303
-9.01863
-6.82555
-5.12847
-3.82553
-2.833
-2.08285
-1.52028
-1.10166
-0.79256
-0.566083
-0.401416
-0.282605
-0.197533
-0.137081
-0.0944484
-0.0646096
-0.0438822
-0.0295917
-0.0198128
-0.0131709
-0.00869331
-0.00569709
-0.00370697
-0.00239489
-0.0015362
-0.000978376
-0.000618667
-0.000388415
-0.000242114
-0.000149838
-9.20658e-05
-5.61631e-05
-3.40174e-05
-2.0461e-05
-1.22292e-05
-7.27707e-06
-4.33665e-06
-2.63333e-06
-1.7065e-06
-1.30003e-06
-1774.43
-1752.73
-1710.64
-1650.56
-1575.59
-1489.12
-1394.5
-1294.81
-1192.72
-1090.49
-989.918
-892.433
-799.136
-710.842
-628.13
-551.381
-480.806
-416.473
-358.327
-306.215
-259.897
-219.069
-183.377
-152.429
-125.815
-103.115
-83.9116
-67.798
-54.3871
-43.3161
-34.2506
-26.8873
-20.9546
-16.2129
-12.4535
-9.49653
-7.18923
-5.40311
-4.03133
-2.98606
-2.19582
-1.60304
-1.16183
-0.835984
-0.597189
-0.423533
-0.298215
-0.20847
-0.144687
-0.0996999
-0.068209
-0.0463313
-0.0312461
-0.0209222
-0.0139096
-0.00918157
-0.0060175
-0.00391574
-0.00252993
-0.00162293
-0.00103368
-0.000653676
-0.00041042
-0.000255845
-0.000158345
-9.72985e-05
-5.93587e-05
-3.5955e-05
-2.16278e-05
-1.29274e-05
-7.69301e-06
-4.58483e-06
-2.78423e-06
-1.80441e-06
-1.37472e-06
-1730.57
-1711.46
-1674.19
-1620.56
-1552.93
-1474
-1386.54
-1293.23
-1196.5
-1098.51
-1001.07
-905.713
-813.665
-725.89
-643.117
-565.867
-494.474
-429.113
-369.818
-316.503
-268.984
-226.996
-190.212
-158.26
-130.738
-107.232
-87.3211
-70.5964
-56.6636
-45.1521
-35.7189
-28.0517
-21.8705
-16.9275
-13.0065
-9.9212
-7.51277
-5.64768
-4.21479
-3.12263
-2.2967
-1.677
-1.21564
-0.874844
-0.625042
-0.443349
-0.312209
-0.218279
-0.151512
-0.104414
-0.0714417
-0.0485317
-0.032733
-0.0219198
-0.014574
-0.00962086
-0.00630588
-0.00410368
-0.00265154
-0.00170105
-0.0010835
-0.000685226
-0.000430254
-0.000268225
-0.000166017
-0.000102019
-6.22418e-05
-3.77036e-05
-2.26809e-05
-1.35577e-05
-8.0686e-06
-4.80898e-06
-2.92054e-06
-1.8929e-06
-1.44228e-06
-1696.49
-1679.22
-1645.42
-1596.47
-1534.27
-1461.03
-1379.1
-1290.83
-1198.44
-1103.98
-1009.26
-915.832
-825.004
-737.845
-655.193
-577.675
-505.726
-439.607
-379.427
-325.161
-276.675
-233.738
-196.052
-163.261
-134.977
-110.787
-90.2742
-73.0266
-58.6453
-46.7538
-37.0022
-29.0713
-22.6737
-17.5552
-13.493
-10.2952
-7.79805
-5.86357
-4.3769
-3.24341
-2.386
-1.74252
-1.26335
-0.90932
-0.649769
-0.460952
-0.324647
-0.227002
-0.157585
-0.108611
-0.0743206
-0.0504922
-0.0340584
-0.0228092
-0.0151666
-0.0100128
-0.00656325
-0.00427147
-0.00276013
-0.00177083
-0.00112802
-0.000713424
-0.000447986
-0.000279295
-0.000172878
-0.000106241
-6.48216e-05
-3.92685e-05
-2.36237e-05
-1.41221e-05
-8.40494e-06
-5.00976e-06
-3.04274e-06
-1.97227e-06
-1.50282e-06
-1669.94
-1654
-1622.71
-1577.2
-1519.05
-1450.11
-1372.43
-1288.12
-1199.22
-1107.67
-1015.24
-923.503
-833.806
-747.285
-664.857
-587.23
-514.916
-448.247
-387.395
-332.386
-283.127
-239.423
-200.997
-167.513
-138.592
-113.829
-92.809
-75.118
-60.3548
-48.1385
-38.1139
-29.9561
-23.372
-18.1016
-13.9171
-10.6217
-8.04741
-6.05249
-4.5189
-3.34931
-2.46437
-1.80006
-1.30529
-0.939647
-0.671535
-0.476457
-0.335608
-0.234694
-0.162943
-0.112316
-0.076863
-0.0522243
-0.0352298
-0.0235957
-0.0156907
-0.0103596
-0.00679107
-0.00442003
-0.00285632
-0.00183265
-0.00116747
-0.000738418
-0.000463707
-0.000289113
-0.000178965
-0.000109987
-6.71111e-05
-4.06577e-05
-2.44608e-05
-1.46233e-05
-8.70377e-06
-5.18821e-06
-3.1513e-06
-2.04279e-06
-1.55669e-06
-1649.23
-1634.26
-1604.81
-1561.85
-1506.72
-1441.04
-1366.63
-1285.41
-1199.28
-1110.1
-1019.58
-929.291
-840.604
-754.698
-672.544
-594.91
-522.368
-455.308
-393.95
-338.365
-288.496
-244.175
-205.149
-171.097
-141.65
-116.411
-94.9656
-76.902
-61.8165
-49.3251
-39.0685
-30.7172
-23.9737
-18.5732
-14.2837
-10.9043
-8.26347
-6.21637
-4.64221
-3.44136
-2.53255
-1.85017
-1.34183
-0.966097
-0.690532
-0.489998
-0.345188
-0.24142
-0.167631
-0.115558
-0.0790895
-0.0537418
-0.0362565
-0.0242853
-0.0161505
-0.010664
-0.00699105
-0.00455048
-0.0029408
-0.00188697
-0.00120215
-0.00076039
-0.000477531
-0.000297747
-0.00018432
-0.000113284
-6.91262e-05
-4.18807e-05
-2.51978e-05
-1.50647e-05
-8.96701e-06
-5.34545e-06
-3.24703e-06
-2.10499e-06
-1.60416e-06
-1633.08
-1618.82
-1590.73
-1549.66
-1496.79
-1433.58
-1361.69
-1282.88
-1198.95
-1111.67
-1022.71
-933.64
-845.831
-760.488
-678.621
-601.043
-528.37
-461.036
-399.302
-343.275
-292.926
-248.115
-208.606
-174.092
-144.214
-118.582
-96.7847
-78.4106
-63.0556
-50.3331
-39.881
-31.3663
-24.4877
-18.9767
-14.5978
-11.1468
-8.44909
-6.35732
-4.74838
-3.5207
-2.59137
-1.89344
-1.37341
-0.988971
-0.706973
-0.501724
-0.353489
-0.247253
-0.171698
-0.118373
-0.0810232
-0.0550604
-0.037149
-0.024885
-0.0165505
-0.0109288
-0.00716514
-0.00466409
-0.0030144
-0.00193431
-0.00123237
-0.000779548
-0.000489587
-0.00030528
-0.000188992
-0.000116161
-7.08853e-05
-4.29485e-05
-2.58416e-05
-1.54504e-05
-9.19701e-06
-5.48286e-06
-3.33073e-06
-2.15939e-06
-1.64566e-06
-1620.48
-1606.75
-1579.68
-1540.02
-1488.85
-1427.52
-1357.55
-1280.6
-1198.4
-1112.64
-1024.96
-936.895
-849.831
-764.988
-683.4
-605.911
-533.173
-465.651
-403.64
-347.276
-296.555
-251.356
-211.46
-176.573
-146.346
-120.393
-98.3061
-79.6757
-64.097
-51.1822
-40.5668
-31.9152
-24.923
-19.319
-14.8646
-11.353
-8.60719
-6.47751
-4.83902
-3.5885
-2.64169
-1.93049
-1.40048
-1.00859
-0.721083
-0.511796
-0.360623
-0.252268
-0.175197
-0.120796
-0.0826886
-0.0561966
-0.0379185
-0.0254022
-0.0168956
-0.0111574
-0.00731547
-0.00476222
-0.00307799
-0.00197522
-0.0012585
-0.000796114
-0.000500015
-0.000311797
-0.000193035
-0.000118652
-7.24084e-05
-4.38733e-05
-2.63992e-05
-1.57845e-05
-9.39634e-06
-5.60198e-06
-3.40329e-06
-2.20657e-06
-1.68166e-06
-1610.69
-1597.35
-1571.03
-1532.42
-1482.54
-1422.62
-1354.13
-1278.63
-1197.78
-1113.22
-1026.56
-939.321
-852.881
-768.469
-687.138
-609.753
-536.991
-469.344
-407.132
-350.513
-299.504
-254.001
-213.799
-178.614
-148.105
-121.891
-99.5682
-80.7277
-64.965
-51.8914
-41.1407
-32.3753
-25.2887
-19.607
-15.0894
-11.527
-8.74072
-6.57916
-4.91575
-3.64596
-2.68437
-1.96194
-1.42347
-1.02527
-0.733091
-0.520373
-0.366703
-0.256544
-0.178182
-0.122865
-0.0841112
-0.0571677
-0.0385764
-0.0258446
-0.017191
-0.0113531
-0.0074442
-0.00484628
-0.00313248
-0.00201028
-0.0012809
-0.000810323
-0.000508962
-0.000317389
-0.000196506
-0.00012079
-7.37162e-05
-4.46675e-05
-2.68782e-05
-1.60715e-05
-9.56767e-06
-5.7044e-06
-3.46565e-06
-2.24713e-06
-1.71264e-06
-1603.08
-1590.03
-1564.27
-1526.46
-1477.54
-1418.7
-1351.33
-1276.95
-1197.15
-1113.54
-1027.7
-941.122
-855.196
-771.15
-690.047
-612.767
-540.008
-472.28
-409.923
-353.113
-301.883
-256.143
-215.7
-180.279
-149.544
-123.12
-100.607
-81.5954
-65.6826
-52.4788
-41.6171
-32.758
-25.5932
-19.8471
-15.2772
-11.6725
-8.85257
-6.66439
-4.98017
-3.69425
-2.72028
-1.98843
-1.44285
-1.03934
-0.743227
-0.527618
-0.371842
-0.260162
-0.180709
-0.124616
-0.0853165
-0.0579907
-0.0391343
-0.02622
-0.0174416
-0.0115193
-0.00755354
-0.00491771
-0.0031788
-0.0020401
-0.00129995
-0.00082241
-0.000516574
-0.000322149
-0.00019946
-0.000122611
-7.483e-05
-4.53441e-05
-2.72863e-05
-1.63162e-05
-9.71369e-06
-5.79166e-06
-3.51885e-06
-2.28174e-06
-1.73908e-06
-1597.18
-1584.35
-1559.01
-1521.8
-1473.6
-1415.59
-1349.08
-1275.55
-1196.56
-1113.69
-1028.49
-942.455
-856.948
-773.206
-692.299
-615.12
-542.378
-474.6
-412.14
-355.187
-303.789
-257.866
-217.235
-181.626
-150.713
-124.121
-101.454
-82.3053
-66.2709
-52.9615
-42.0092
-33.0735
-25.8447
-20.0459
-15.4328
-11.7933
-8.94549
-6.73528
-5.03381
-3.7345
-2.75023
-2.01054
-1.45905
-1.05111
-0.751712
-0.533687
-0.37615
-0.263196
-0.18283
-0.126087
-0.0863292
-0.0586827
-0.0396035
-0.0265358
-0.0176527
-0.0116592
-0.00764566
-0.0049779
-0.00321784
-0.00206524
-0.00131602
-0.000832608
-0.000522999
-0.000326167
-0.000201955
-0.000124148
-7.57708e-05
-4.59157e-05
-2.76312e-05
-1.6523e-05
-9.83712e-06
-5.86548e-06
-3.56384e-06
-2.31098e-06
-1.76144e-06
-1592.63
-1579.96
-1554.94
-1518.17
-1470.52
-1413.12
-1347.27
-1274.4
-1196.04
-1113.74
-1029.05
-943.437
-858.267
-774.774
-694.034
-616.945
-544.229
-476.422
-413.888
-356.831
-305.306
-259.242
-218.464
-182.709
-151.654
-124.93
-102.141
-82.8815
-66.7496
-53.355
-42.3294
-33.3316
-26.0508
-20.2089
-15.5606
-11.8927
-9.02204
-6.79376
-5.0781
-3.76777
-2.77502
-2.02886
-1.47248
-1.06087
-0.758757
-0.53873
-0.379732
-0.26572
-0.184596
-0.127313
-0.0871733
-0.0592597
-0.039995
-0.0267994
-0.0178289
-0.0117761
-0.00772263
-0.00502821
-0.00325049
-0.00208627
-0.00132947
-0.000841143
-0.000528377
-0.000329531
-0.000204044
-0.000125436
-7.65591e-05
-4.63947e-05
-2.79202e-05
-1.66963e-05
-9.94059e-06
-5.92739e-06
-3.60157e-06
-2.33554e-06
-1.78018e-06
-1589.13
-1576.58
-1551.8
-1515.36
-1468.12
-1411.19
-1345.83
-1273.46
-1195.58
-1113.74
-1029.44
-944.158
-859.256
-775.966
-695.363
-618.355
-545.666
-477.843
-415.259
-358.125
-306.503
-260.332
-219.441
-183.573
-152.407
-125.578
-102.692
-83.3457
-67.1358
-53.6731
-42.5889
-33.5411
-26.2183
-20.3417
-15.6648
-11.9738
-9.0846
-6.84161
-5.11438
-3.79505
-2.79537
-2.04391
-1.48352
-1.06891
-0.764559
-0.542887
-0.382686
-0.267804
-0.186054
-0.128325
-0.0878711
-0.0597369
-0.0403189
-0.0270177
-0.0179748
-0.011873
-0.00778644
-0.00506993
-0.00327757
-0.00210372
-0.00134063
-0.000848228
-0.000532842
-0.000332325
-0.000205779
-0.000126506
-7.7214e-05
-4.67927e-05
-2.81604e-05
-1.68403e-05
-1.00266e-05
-5.97884e-06
-3.63294e-06
-2.35596e-06
-1.79579e-06
-1586.45
-1573.99
-1549.38
-1513.19
-1466.27
-1409.68
-1344.7
-1272.71
-1195.2
-1113.7
-1029.7
-944.685
-859.996
-776.867
-696.378
-619.437
-546.775
-478.945
-416.327
-359.136
-307.443
-261.191
-220.212
-184.256
-153.005
-126.094
-103.132
-83.7166
-67.4452
-53.9284
-42.7974
-33.7097
-26.3534
-20.4488
-15.7491
-12.0394
-9.13533
-6.88044
-5.14387
-3.81725
-2.81193
-2.05617
-1.49253
-1.07547
-0.769299
-0.546285
-0.385103
-0.269509
-0.187248
-0.129155
-0.0884433
-0.0601285
-0.0405848
-0.0271969
-0.0180947
-0.0119526
-0.00783889
-0.00510425
-0.00329985
-0.00211807
-0.00134981
-0.000854061
-0.000536519
-0.000334626
-0.000207209
-0.000127388
-7.77538e-05
-4.71208e-05
-2.83585e-05
-1.69591e-05
-1.00976e-05
-6.02126e-06
-3.65879e-06
-2.3728e-06
-1.8087e-06
-1584.4
-1572.01
-1547.53
-1511.52
-1464.83
-1408.52
-1343.81
-1272.11
-1194.88
-1113.64
-1029.89
-945.069
-860.546
-777.546
-697.147
-620.263
-547.626
-479.795
-417.153
-359.922
-308.176
-261.862
-220.817
-184.794
-153.476
-126.501
-103.48
-84.0109
-67.6911
-54.1317
-42.9637
-33.8444
-26.4615
-20.5347
-15.8167
-12.0922
-9.17612
-6.91171
-5.16763
-3.83515
-2.82531
-2.06609
-1.49981
-1.08078
-0.77314
-0.54904
-0.387064
-0.270894
-0.188218
-0.12983
-0.0889088
-0.0604472
-0.0408014
-0.0273429
-0.0181924
-0.0120175
-0.00788168
-0.00513224
-0.00331803
-0.00212979
-0.00135731
-0.000858825
-0.000539523
-0.000336506
-0.000208377
-0.000128108
-7.8195e-05
-4.7389e-05
-2.85204e-05
-1.70562e-05
-1.01555e-05
-6.05596e-06
-3.67999e-06
-2.3866e-06
-1.81923e-06
-1582.84
-1570.5
-1546.12
-1510.25
-1463.74
-1407.62
-1343.13
-1271.64
-1194.63
-1113.58
-1030.01
-945.348
-860.954
-778.054
-697.729
-620.89
-548.276
-480.447
-417.789
-360.528
-308.743
-262.383
-221.288
-185.213
-153.844
-126.821
-103.754
-84.2425
-67.885
-54.2923
-43.0953
-33.9512
-26.5473
-20.603
-15.8706
-12.1342
-9.20867
-6.93669
-5.18663
-3.84949
-2.83603
-2.07404
-1.50566
-1.08505
-0.776228
-0.551257
-0.388643
-0.27201
-0.189001
-0.130374
-0.0892844
-0.0607045
-0.0409763
-0.0274609
-0.0182714
-0.01207
-0.00791629
-0.0051549
-0.00333275
-0.00213929
-0.00136339
-0.000862685
-0.000541957
-0.00033803
-0.000209324
-0.000128692
-7.85527e-05
-4.76065e-05
-2.86517e-05
-1.7135e-05
-1.02026e-05
-6.0841e-06
-3.69715e-06
-2.39776e-06
-1.82777e-06
-1581.66
-1569.36
-1545.05
-1509.29
-1462.9
-1406.93
-1342.6
-1271.28
-1194.42
-1113.53
-1030.09
-945.549
-861.255
-778.433
-698.165
-621.364
-548.769
-480.943
-418.275
-360.993
-309.179
-262.784
-221.652
-185.538
-154.13
-127.069
-103.968
-84.4235
-68.0367
-54.4182
-43.1987
-34.0352
-26.6149
-20.6569
-15.9131
-12.1675
-9.23444
-6.95649
-5.20171
-3.86087
-2.84455
-2.08037
-1.51032
-1.08845
-0.778691
-0.553027
-0.389904
-0.272902
-0.189626
-0.13081
-0.0895851
-0.0609106
-0.0411164
-0.0275555
-0.0183347
-0.0121121
-0.00794407
-0.00517309
-0.00334457
-0.00214691
-0.00136827
-0.000865787
-0.000543914
-0.000339255
-0.000210085
-0.000129162
-7.88404e-05
-4.77814e-05
-2.87573e-05
-1.71984e-05
-1.02404e-05
-6.10674e-06
-3.71092e-06
-2.40673e-06
-1.83467e-06
-1580.78
-1568.5
-1544.24
-1508.56
-1462.27
-1406.4
-1342.19
-1270.99
-1194.26
-1113.48
-1030.14
-945.694
-861.476
-778.715
-698.492
-621.72
-549.141
-481.318
-418.644
-361.347
-309.512
-263.092
-221.932
-185.788
-154.351
-127.262
-104.133
-84.5639
-68.1547
-54.5162
-43.2792
-34.1008
-26.6677
-20.699
-15.9464
-12.1936
-9.25469
-6.97206
-5.21358
-3.86984
-2.85127
-2.08536
-1.514
-1.09114
-0.78064
-0.554428
-0.390903
-0.273609
-0.190122
-0.131155
-0.089824
-0.0610744
-0.0412278
-0.0276307
-0.0183851
-0.0121456
-0.00796619
-0.00518757
-0.00335398
-0.00215299
-0.00137216
-0.000868259
-0.000545474
-0.000340232
-0.000210692
-0.000129537
-7.90698e-05
-4.79209e-05
-2.88415e-05
-1.72489e-05
-1.02707e-05
-6.1248e-06
-3.72193e-06
-2.4139e-06
-1.84012e-06
-1580.11
-1567.86
-1543.64
-1508.01
-1461.79
-1406.01
-1341.88
-1270.77
-1194.13
-1113.43
-1030.18
-945.798
-861.637
-778.923
-698.734
-621.986
-549.42
-481.601
-418.922
-361.615
-309.765
-263.326
-222.145
-185.98
-154.52
-127.409
-104.26
-84.672
-68.2456
-54.5919
-43.3415
-34.1516
-26.7087
-20.7317
-15.9723
-12.2139
-9.27047
-6.98421
-5.22285
-3.87685
-2.85653
-2.08927
-1.51688
-1.09325
-0.78217
-0.555529
-0.391689
-0.274165
-0.190513
-0.131427
-0.0900122
-0.0612035
-0.0413157
-0.0276901
-0.0184249
-0.0121721
-0.00798366
-0.00519902
-0.00336142
-0.00215779
-0.00137523
-0.000870215
-0.000546708
-0.000341004
-0.000211173
-0.000129833
-7.92513e-05
-4.80313e-05
-2.89082e-05
-1.72889e-05
-1.02945e-05
-6.13907e-06
-3.73065e-06
-2.41957e-06
-1.84444e-06
-1579.62
-1567.38
-1543.19
-1507.6
-1461.43
-1405.71
-1341.65
-1270.61
-1194.03
-1113.4
-1030.2
-945.872
-861.755
-779.076
-698.914
-622.184
-549.628
-481.813
-419.131
-361.817
-309.956
-263.503
-222.307
-186.125
-154.649
-127.521
-104.357
-84.7546
-68.3153
-54.6499
-43.3894
-34.1906
-26.7402
-20.757
-15.9923
-12.2296
-9.28268
-6.99362
-5.23004
-3.88229
-2.86062
-2.09231
-1.51913
-1.09489
-0.783362
-0.556387
-0.392302
-0.274599
-0.190818
-0.13164
-0.0901593
-0.0613044
-0.0413845
-0.0277365
-0.0184561
-0.0121928
-0.00799735
-0.00520799
-0.00336726
-0.00216155
-0.00137765
-0.000871749
-0.000547676
-0.000341611
-0.000211549
-0.000130066
-7.93938e-05
-4.81179e-05
-2.89604e-05
-1.73202e-05
-1.03133e-05
-6.1503e-06
-3.7375e-06
-2.42402e-06
-1.84783e-06
-1579.25
-1567.03
-1542.85
-1507.3
-1461.16
-1405.49
-1341.47
-1270.48
-1193.95
-1113.37
-1030.22
-945.925
-861.841
-779.188
-699.046
-622.33
-549.783
-481.97
-419.287
-361.968
-310.099
-263.636
-222.428
-186.234
-154.746
-127.606
-104.43
-84.8173
-68.3682
-54.6941
-43.4259
-34.2204
-26.7643
-20.7763
-16.0076
-12.2416
-9.29205
-7.00085
-5.23556
-3.88648
-2.86377
-2.09465
-1.52086
-1.09616
-0.784284
-0.557051
-0.392776
-0.274935
-0.191055
-0.131805
-0.0902734
-0.0613828
-0.0414379
-0.0277726
-0.0184803
-0.0122089
-0.008008
-0.00521497
-0.0033718
-0.00216448
-0.00137953
-0.000872943
-0.000548429
-0.000342083
-0.000211843
-0.000130247
-7.95047e-05
-4.81853e-05
-2.90012e-05
-1.73447e-05
-1.03278e-05
-6.15904e-06
-3.74281e-06
-2.42743e-06
-1.85047e-06
-1578.98
-1566.76
-1542.61
-1507.07
-1460.97
-1405.32
-1341.34
-1270.39
-1193.89
-1113.35
-1030.22
-945.962
-861.902
-779.27
-699.143
-622.438
-549.897
-482.086
-419.403
-362.08
-310.205
-263.735
-222.519
-186.316
-154.818
-127.67
-104.485
-84.8646
-68.4082
-54.7275
-43.4535
-34.243
-26.7826
-20.791
-16.0193
-12.2508
-9.29919
-7.00636
-5.23978
-3.88968
-2.86617
-2.09645
-1.52218
-1.09713
-0.78499
-0.55756
-0.39314
-0.275194
-0.191236
-0.131932
-0.0903613
-0.0614432
-0.041479
-0.0278004
-0.018499
-0.0122213
-0.00801621
-0.00522035
-0.0033753
-0.00216675
-0.00138097
-0.000873865
-0.000549011
-0.000342447
-0.00021207
-0.000130387
-7.95904e-05
-4.82374e-05
-2.90326e-05
-1.73635e-05
-1.03391e-05
-6.16576e-06
-3.74691e-06
-2.43012e-06
-1.85248e-06
-1578.78
-1566.57
-1542.43
-1506.91
-1460.82
-1405.2
-1341.25
-1270.32
-1193.85
-1113.33
-1030.23
-945.988
-861.946
-779.328
-699.213
-622.516
-549.98
-482.172
-419.488
-362.163
-310.284
-263.809
-222.586
-186.377
-154.873
-127.718
-104.527
-84.8999
-68.4381
-54.7525
-43.4742
-34.26
-26.7964
-20.802
-16.0281
-12.2577
-9.30458
-7.01053
-5.24298
-3.89211
-2.868
-2.09781
-1.52319
-1.09787
-0.785528
-0.557948
-0.393418
-0.275391
-0.191375
-0.132029
-0.0904284
-0.0614893
-0.0415105
-0.0278217
-0.0185132
-0.0122309
-0.00802249
-0.00522447
-0.00337799
-0.00216848
-0.00138209
-0.000874571
-0.000549457
-0.000342726
-0.000212243
-0.000130494
-7.9656e-05
-4.82773e-05
-2.90567e-05
-1.7378e-05
-1.03477e-05
-6.17092e-06
-3.75004e-06
-2.43217e-06
-1.85404e-06
-1578.64
-1566.43
-1542.29
-1506.79
-1460.72
-1405.11
-1341.18
-1270.27
-1193.82
-1113.31
-1030.23
-946.006
-861.978
-779.371
-699.264
-622.573
-550.041
-482.234
-419.55
-362.223
-310.341
-263.863
-222.636
-186.422
-154.913
-127.753
-104.557
-84.9262
-68.4603
-54.7712
-43.4897
-34.2727
-26.8067
-20.8103
-16.0346
-12.2629
-9.30864
-7.01367
-5.24538
-3.89394
-2.86937
-2.09884
-1.52395
-1.09843
-0.785934
-0.558241
-0.393628
-0.27554
-0.19148
-0.132102
-0.0904792
-0.0615242
-0.0415343
-0.0278379
-0.0185241
-0.0122381
-0.00802727
-0.00522761
-0.00338002
-0.0021698
-0.00138293
-0.000875107
-0.000549796
-0.000342939
-0.000212375
-0.000130575
-7.97058e-05
-4.83076e-05
-2.9075e-05
-1.73889e-05
-1.03542e-05
-6.17485e-06
-3.75246e-06
-2.43372e-06
-1.85522e-06
-1578.54
-1566.33
-1542.2
-1506.7
-1460.64
-1405.04
-1341.12
-1270.23
-1193.79
-1113.3
-1030.23
-946.019
-862
-779.401
-699.301
-622.614
-550.085
-482.28
-419.596
-362.268
-310.384
-263.902
-222.672
-186.455
-154.942
-127.779
-104.58
-84.9456
-68.4768
-54.785
-43.5011
-34.2821
-26.8143
-20.8164
-16.0395
-12.2668
-9.31165
-7.016
-5.24717
-3.8953
-2.8704
-2.09961
-1.52452
-1.09885
-0.786239
-0.558461
-0.393785
-0.275652
-0.191559
-0.132157
-0.0905174
-0.0615505
-0.0415523
-0.02785
-0.0185322
-0.0122435
-0.00803086
-0.00522996
-0.00338156
-0.00217079
-0.00138356
-0.000875512
-0.000550051
-0.000343099
-0.000212475
-0.000130636
-7.97434e-05
-4.83304e-05
-2.90887e-05
-1.73972e-05
-1.03592e-05
-6.17777e-06
-3.75425e-06
-2.43489e-06
-1.85611e-06
-1578.46
-1566.25
-1542.13
-1506.64
-1460.58
-1405
-1341.09
-1270.2
-1193.77
-1113.29
-1030.23
-946.028
-862.016
-779.423
-699.327
-622.644
-550.116
-482.312
-419.628
-362.3
-310.414
-263.931
-222.699
-186.479
-154.964
-127.798
-104.596
-84.9597
-68.4888
-54.7951
-43.5095
-34.289
-26.8199
-20.821
-16.0431
-12.2696
-9.31388
-7.01773
-5.2485
-3.89631
-2.87116
-2.10018
-1.52494
-1.09916
-0.786465
-0.558625
-0.393903
-0.275735
-0.191618
-0.132198
-0.0905459
-0.0615702
-0.0415657
-0.0278591
-0.0185383
-0.0122476
-0.00803355
-0.00523173
-0.00338271
-0.00217153
-0.00138404
-0.000875815
-0.000550242
-0.000343218
-0.000212549
-0.000130682
-7.97715e-05
-4.83475e-05
-2.9099e-05
-1.74034e-05
-1.03629e-05
-6.17998e-06
-3.7556e-06
-2.43575e-06
-1.85677e-06
-1578.41
-1566.2
-1542.08
-1506.59
-1460.54
-1404.96
-1341.06
-1270.18
-1193.76
-1113.29
-1030.23
-946.034
-862.027
-779.438
-699.346
-622.665
-550.139
-482.336
-419.652
-362.323
-310.436
-263.952
-222.718
-186.496
-154.979
-127.812
-104.608
-84.9701
-68.4976
-54.8025
-43.5157
-34.294
-26.8241
-20.8243
-16.0458
-12.2717
-9.31552
-7.019
-5.24948
-3.89705
-2.87173
-2.1006
-1.52526
-1.09939
-0.786632
-0.558746
-0.393989
-0.275797
-0.191661
-0.132229
-0.0905671
-0.0615847
-0.0415756
-0.0278658
-0.0185429
-0.0122506
-0.00803555
-0.00523304
-0.00338356
-0.00217208
-0.00138439
-0.00087604
-0.000550384
-0.000343307
-0.000212604
-0.000130716
-7.97923e-05
-4.83601e-05
-2.91067e-05
-1.74079e-05
-1.03656e-05
-6.18161e-06
-3.75656e-06
-2.4364e-06
-1.85727e-06
-1578.37
-1566.16
-1542.04
-1506.56
-1460.51
-1404.94
-1341.04
-1270.16
-1193.75
-1113.28
-1030.23
-946.038
-862.035
-779.449
-699.359
-622.68
-550.155
-482.352
-419.669
-362.339
-310.452
-263.966
-222.732
-186.509
-154.99
-127.822
-104.617
-84.9775
-68.5039
-54.8078
-43.5201
-34.2977
-26.827
-20.8267
-16.0477
-12.2732
-9.31671
-7.01993
-5.25019
-3.8976
-2.87214
-2.1009
-1.52548
-1.09955
-0.786755
-0.558834
-0.394053
-0.275842
-0.191693
-0.132251
-0.0905826
-0.0615954