/*--------------------------------*- C++ -*----------------------------------*\
  =========                 |
  \\      /  F ield         | OpenFOAM: The Open Source CFD Toolbox
   \\    /   O peration     | Website:  https://openfoam.org
    \\  /    A nd           | Version:  10
     \\/     M anipulation  |
\*---------------------------------------------------------------------------*/
FoamFile
{
    format      ascii;
    class       volScalarField;
    location    "390";
    object      T;
}
// * * * * * * * * * * * * * * * * * * * * * * * * * * * * * * * * * * * * * //

dimensions      [0 0 0 1 0 0 0];

internalField   nonuniform List<scalar> 
11250
(
249.864
167.621
139.465
127.09
120.353
116.092
113.118
110.905
109.182
107.798
106.661
105.71
104.904
104.215
103.623
103.111
102.667
102.283
101.949
101.659
101.408
101.191
101.004
100.844
100.706
100.588
100.488
100.404
100.332
100.272
100.222
100.18
100.146
100.117
100.094
100.075
100.059
100.047
100.037
100.029
100.022
100.017
100.013
100.01
100.008
100.006
100.004
100.003
100.003
100.002
100.001
100.001
100.001
100.001
100
100
100
100
100
100
100
100
100
100
100
100
100
100
100
100
100
100
100
100
100
331.564
248.778
202.624
175.641
158.599
147.003
138.612
132.242
127.229
123.172
119.82
117.008
114.62
112.575
110.813
109.289
107.967
106.82
105.823
104.959
104.209
103.562
103.003
102.523
102.111
101.76
101.461
101.207
100.994
100.814
100.664
100.539
100.436
100.351
100.281
100.224
100.178
100.14
100.11
100.086
100.067
100.052
100.04
100.031
100.023
100.018
100.013
100.01
100.008
100.006
100.004
100.003
100.002
100.002
100.001
100.001
100.001
100
100
100
100
100
100
100
100
100
100
100
100
100
100
100
100
100
100
359.18
293.32
246.633
214.283
191.438
174.755
162.137
152.284
144.383
137.909
132.512
127.955
124.067
120.726
117.839
115.337
113.163
111.273
109.631
108.204
106.967
105.897
104.973
104.179
103.498
102.916
102.421
102.001
101.647
101.35
101.101
100.894
100.723
100.582
100.466
100.371
100.295
100.233
100.183
100.143
100.111
100.086
100.066
100.051
100.039
100.029
100.022
100.017
100.012
100.009
100.007
100.005
100.004
100.003
100.002
100.001
100.001
100.001
100.001
100
100
100
100
100
100
100
100
100
100
100
100
100
100
100
100
371.024
318.712
276.341
243.474
218.179
198.522
182.986
170.474
160.218
151.681
144.484
138.354
133.091
128.546
124.604
121.177
118.193
115.593
113.33
111.361
109.653
108.174
106.896
105.796
104.853
104.047
103.36
102.779
102.288
101.875
101.53
101.243
101.005
100.809
100.648
100.516
100.409
100.323
100.254
100.199
100.154
100.12
100.092
100.071
100.054
100.041
100.031
100.023
100.017
100.013
100.01
100.007
100.005
100.004
100.003
100.002
100.001
100.001
100.001
100.001
100
100
100
100
100
100
100
100
100
100
100
100
100
100
100
377.24
334.196
296.599
265.166
239.374
218.278
200.934
186.544
174.482
164.272
155.554
148.056
141.569
135.935
131.026
126.742
123.001
119.733
116.883
114.401
112.243
110.372
108.755
107.362
106.166
105.143
104.272
103.533
102.91
102.385
101.947
101.582
101.279
101.029
100.825
100.657
100.522
100.412
100.324
100.253
100.197
100.152
100.117
100.09
100.069
100.052
100.039
100.03
100.022
100.016
100.012
100.009
100.007
100.005
100.003
100.002
100.002
100.001
100.001
100.001
100
100
100
100
100
100
100
100
100
100
100
100
100
100
100
380.995
344.273
310.758
281.312
255.989
234.421
216.086
200.461
187.085
175.573
165.615
156.961
149.416
142.819
137.042
131.979
127.542
123.657
120.261
117.296
114.715
112.475
110.536
108.864
107.427
106.197
105.15
104.261
103.509
102.878
102.349
101.909
101.544
101.243
100.996
100.794
100.63
100.497
100.391
100.306
100.238
100.184
100.142
100.109
100.083
100.063
100.048
100.036
100.027
100.02
100.015
100.011
100.008
100.006
100.004
100.003
100.002
100.002
100.001
100.001
100.001
100
100
100
100
100
100
100
100
100
100
100
100
100
100
383.477
351.191
320.932
293.446
268.991
247.498
228.719
212.343
198.055
185.565
174.625
165.022
156.579
149.149
142.607
136.849
131.784
127.336
123.437
120.027
117.052
114.467
112.226
110.291
108.627
107.202
105.987
104.955
104.083
103.349
102.735
102.223
101.798
101.448
101.16
100.925
100.734
100.58
100.456
100.356
100.277
100.215
100.165
100.127
100.097
100.073
100.055
100.042
100.031
100.023
100.017
100.013
100.009
100.007
100.005
100.004
100.003
100.002
100.001
100.001
100.001
100
100
100
100
100
100
100
100
100
100
100
100
100
100
385.216
356.142
328.43
302.679
279.197
258.056
239.174
222.386
207.494
194.294
182.596
172.229
163.042
154.903
147.699
141.328
135.704
130.749
126.394
122.577
119.241
116.336
113.816
111.637
109.761
108.153
106.78
105.614
104.627
103.797
103.101
102.521
102.04
101.643
101.317
101.05
100.834
100.658
100.518
100.405
100.315
100.244
100.188
100.144
100.11
100.083
100.063
100.047
100.035
100.026
100.019
100.014
100.011
100.008
100.006
100.004
100.003
100.002
100.001
100.001
100.001
100.001
100
100
100
100
100
100
100
100
100
100
100
100
100
386.485
359.796
334.074
309.793
287.25
266.578
247.79
230.817
215.546
201.845
189.575
178.605
168.81
160.079
152.308
145.407
139.291
133.886
129.122
124.937
121.273
118.076
115.298
112.894
110.822
109.044
107.524
106.233
105.139
104.219
103.447
102.803
102.269
101.827
101.465
101.169
100.928
100.733
100.576
100.451
100.351
100.272
100.209
100.161
100.123
100.093
100.07
100.053
100.039
100.029
100.022
100.016
100.012
100.009
100.006
100.004
100.003
100.002
100.002
100.001
100.001
100.001
100
100
100
100
100
100
100
100
100
100
100
100
100
387.436
362.559
338.399
315.337
293.641
273.466
254.875
237.861
222.372
208.327
195.634
184.195
173.911
164.689
156.442
149.085
142.543
136.742
131.616
127.102
123.142
119.681
116.669
114.059
111.807
109.872
108.218
106.81
105.618
104.613
103.77
103.067
102.483
102.001
101.604
101.28
101.017
100.803
100.632
100.494
100.385
100.298
100.23
100.176
100.134
100.102
100.077
100.058
100.043
100.032
100.024
100.018
100.013
100.009
100.007
100.005
100.004
100.003
100.002
100.001
100.001
100.001
100
100
100
100
100
100
100
100
100
100
100
100
100
388.164
364.684
341.759
319.7
298.743
279.046
260.697
243.729
228.129
213.858
200.857
189.057
178.385
168.763
160.117
152.375
145.465
139.32
133.875
129.07
124.847
121.149
117.927
115.13
112.714
110.637
108.859
107.345
106.062
104.979
104.071
103.313
102.683
102.162
101.734
101.384
101.099
100.869
100.683
100.535
100.416
100.323
100.249
100.191
100.146
100.111
100.083
100.063
100.047
100.035
100.026
100.019
100.014
100.01
100.007
100.005
100.004
100.003
100.002
100.001
100.001
100.001
100
100
100
100
100
100
100
100
100
100
100
100
100
388.73
366.342
344.4
323.161
302.835
283.575
265.48
248.604
232.966
218.552
205.332
193.259
182.28
172.334
163.359
155.292
148.069
141.628
135.907
130.847
126.39
122.482
119.071
116.107
113.544
111.338
109.448
107.837
106.47
105.317
104.349
103.54
102.868
102.312
101.855
101.481
101.176
100.93
100.731
100.572
100.446
100.345
100.266
100.204
100.156
100.118
100.089
100.067
100.05
100.037
100.028
100.02
100.015
100.011
100.008
100.006
100.004
100.003
100.002
100.001
100.001
100.001
100.001
100
100
100
100
100
100
100
100
100
100
100
100
389.174
367.648
346.492
325.925
306.132
287.258
269.408
252.65
237.017
222.519
209.145
196.867
185.649
175.443
166.199
157.861
150.374
143.679
137.719
132.437
127.776
123.683
120.105
116.992
114.297
111.975
109.984
108.285
106.843
105.626
104.603
103.748
103.037
102.449
101.966
101.57
101.247
100.986
100.776
100.607
100.473
100.367
100.283
100.217
100.166
100.126
100.095
100.071
100.053
100.04
100.029
100.022
100.016
100.012
100.008
100.006
100.004
100.003
100.002
100.002
100.001
100.001
100.001
100
100
100
100
100
100
100
100
100
100
100
100
389.526
368.686
348.161
328.143
308.796
290.259
272.636
256
240.4
225.859
212.38
199.95
188.546
178.132
168.668
160.107
152.398
145.488
139.324
133.85
129.012
124.756
121.032
117.787
114.975
112.549
110.468
108.691
107.182
105.907
104.835
103.938
103.192
102.575
102.067
101.651
101.312
101.038
100.817
100.639
100.498
100.386
100.298
100.228
100.174
100.132
100.1
100.075
100.056
100.042
100.031
100.023
100.017
100.012
100.009
100.006
100.005
100.003
100.002
100.002
100.001
100.001
100.001
100
100
100
100
100
100
100
100
100
100
100
100
389.808
369.516
349.5
329.929
310.956
292.707
275.286
258.772
243.22
228.661
215.112
202.571
191.024
180.446
170.804
162.058
154.164
147.073
140.735
135.096
130.105
125.709
121.856
118.496
115.581
113.065
110.903
109.057
107.487
106.16
105.044
104.11
103.332
102.689
102.159
101.725
101.371
101.085
100.854
100.668
100.521
100.404
100.311
100.239
100.183
100.139
100.105
100.079
100.059
100.044
100.032
100.024
100.018
100.013
100.009
100.007
100.005
100.003
100.002
100.002
100.001
100.001
100.001
100
100
100
100
100
100
100
100
100
100
100
100
390.033
370.182
350.577
331.373
312.708
294.705
277.463
261.062
245.563
231.005
217.411
204.789
193.132
182.424
172.639
163.743
155.696
148.453
141.968
136.189
131.067
126.55
122.586
119.125
116.12
113.523
111.291
109.383
107.76
106.387
105.231
104.264
103.458
102.791
102.242
101.791
101.424
101.127
100.887
100.695
100.542
100.42
100.324
100.249
100.19
100.144
100.109
100.082
100.061
100.046
100.034
100.025
100.018
100.013
100.01
100.007
100.005
100.004
100.003
100.002
100.001
100.001
100.001
100
100
100
100
100
100
100
100
100
100
100
100
390.214
370.718
351.447
332.542
314.133
296.336
279.249
262.951
247.507
232.96
219.339
206.658
194.918
184.108
174.208
165.189
157.015
149.647
143.038
137.141
131.907
127.286
123.226
119.678
116.595
113.928
111.635
109.672
108.002
106.589
105.398
104.401
103.571
102.883
102.316
101.851
101.472
101.165
100.917
100.719
100.56
100.434
100.335
100.257
100.196
100.149
100.113
100.085
100.064
100.047
100.035
100.026
100.019
100.014
100.01
100.007
100.005
100.004
100.003
100.002
100.001
100.001
100.001
100
100
100
100
100
100
100
100
100
100
100
100
390.36
371.151
352.149
333.489
315.291
297.667
280.713
264.507
249.115
234.585
220.949
208.227
196.424
185.534
175.542
166.424
158.146
150.673
143.961
137.965
132.636
127.926
123.785
120.162
117.011
114.284
111.937
109.928
108.217
106.767
105.546
104.523
103.671
102.964
102.382
101.904
101.515
101.199
100.944
100.74
100.577
100.447
100.345
100.265
100.202
100.154
100.116
100.087
100.065
100.049
100.036
100.027
100.02
100.014
100.01
100.007
100.005
100.004
100.003
100.002
100.001
100.001
100.001
100
100
100
100
100
100
100
100
100
100
100
100
390.478
371.5
352.718
334.257
316.233
298.754
281.911
265.786
250.443
235.932
222.289
209.538
197.687
186.736
176.671
167.472
159.11
151.55
144.753
138.673
133.265
128.48
124.269
120.583
117.374
114.595
112.201
110.151
108.404
106.924
105.677
104.631
103.759
103.036
102.44
101.951
101.553
101.229
100.968
100.759
100.592
100.459
100.354
100.272
100.208
100.158
100.119
100.09
100.067
100.05
100.037
100.027
100.02
100.015
100.011
100.008
100.005
100.004
100.003
100.002
100.001
100.001
100.001
100
100
100
100
100
100
100
100
100
100
100
100
390.573
371.782
353.178
334.879
316.999
299.639
282.891
266.835
251.536
237.045
223.402
210.63
198.744
187.744
177.621
168.358
159.927
152.297
145.428
139.279
133.804
128.956
124.686
120.946
117.687
114.864
112.431
110.346
108.568
107.061
105.79
104.725
103.836
103.099
102.491
101.993
101.586
101.256
100.989
100.775
100.605
100.469
100.362
100.278
100.212
100.161
100.122
100.092
100.069
100.051
100.038
100.028
100.02
100.015
100.011
100.008
100.006
100.004
100.003
100.002
100.001
100.001
100.001
100
100
100
100
100
100
100
100
100
100
100
100
390.65
372.01
353.55
335.384
317.62
300.359
283.691
267.694
252.433
237.963
224.321
211.536
199.623
188.586
178.418
169.102
160.616
152.928
146.001
139.794
134.264
129.363
125.043
121.257
117.957
115.096
112.629
110.514
108.71
107.18
105.889
104.807
103.904
103.154
102.536
102.029
101.615
101.279
101.008
100.79
100.616
100.478
100.369
100.283
100.217
100.165
100.125
100.094
100.07
100.052
100.039
100.029
100.021
100.015
100.011
100.008
100.006
100.004
100.003
100.002
100.001
100.001
100.001
100
100
100
100
100
100
100
100
100
100
100
100
390.712
372.195
353.851
335.792
318.124
300.945
284.343
268.395
253.169
238.716
225.079
212.285
200.353
189.286
179.082
169.725
161.194
153.458
146.484
140.23
134.653
129.708
125.348
121.523
118.188
115.294
112.799
110.658
108.832
107.282
105.975
104.877
103.962
103.202
102.575
102.06
101.64
101.299
101.024
100.803
100.626
100.486
100.375
100.288
100.22
100.167
100.127
100.095
100.071
100.053
100.039
100.029
100.021
100.016
100.011
100.008
100.006
100.004
100.003
100.002
100.001
100.001
100.001
100
100
100
100
100
100
100
100
100
100
100
100
390.762
372.343
354.094
336.122
318.532
301.419
284.872
268.967
253.769
239.333
225.701
212.902
200.955
189.866
179.633
170.244
161.676
153.903
146.889
140.596
134.982
130
125.605
121.749
118.384
115.464
112.944
110.781
108.936
107.37
106.048
104.938
104.012
103.243
102.608
102.087
101.662
101.317
101.038
100.814
100.635
100.493
100.38
100.292
100.223
100.17
100.128
100.097
100.072
100.054
100.04
100.029
100.022
100.016
100.011
100.008
100.006
100.004
100.003
100.002
100.001
100.001
100.001
100.001
100
100
100
100
100
100
100
100
100
100
100
390.802
372.463
354.289
336.388
318.861
301.804
285.301
269.431
254.258
239.837
226.21
213.408
201.45
190.344
180.089
170.673
162.077
154.272
147.227
140.903
135.257
130.246
125.822
121.939
118.549
115.607
113.067
110.886
109.025
107.444
106.11
104.99
104.055
103.278
102.637
102.111
101.681
101.332
101.05
100.823
100.642
100.498
100.385
100.296
100.226
100.172
100.13
100.098
100.073
100.055
100.04
100.03
100.022
100.016
100.012
100.008
100.006
100.004
100.003
100.002
100.002
100.001
100.001
100.001
100
100
100
100
100
100
100
100
100
100
100
390.835
372.559
354.446
336.602
319.127
302.114
285.648
269.807
254.655
240.246
226.625
213.821
201.855
190.737
180.464
171.028
162.408
154.579
147.508
141.158
135.487
130.451
126.003
122.098
118.688
115.727
113.17
110.975
109.1
107.508
106.163
105.034
104.091
103.308
102.662
102.13
101.697
101.344
101.06
100.831
100.649
100.503
100.389
100.299
100.228
100.174
100.131
100.099
100.074
100.055
100.041
100.03
100.022
100.016
100.012
100.008
100.006
100.004
100.003
100.002
100.002
100.001
100.001
100.001
100
100
100
100
100
100
100
100
100
100
100
390.861
372.636
354.573
336.774
319.34
302.363
285.928
270.11
254.976
240.578
226.962
214.157
202.186
191.057
180.772
171.319
162.681
154.831
147.74
141.369
135.677
130.621
126.154
122.231
118.804
115.828
113.257
111.049
109.163
107.561
106.208
105.071
104.122
103.333
102.682
102.147
101.71
101.355
101.068
100.838
100.654
100.508
100.392
100.301
100.23
100.175
100.133
100.1
100.075
100.056
100.041
100.03
100.022
100.016
100.012
100.009
100.006
100.004
100.003
100.002
100.002
100.001
100.001
100.001
100
100
100
100
100
100
100
100
100
100
100
390.882
372.698
354.674
336.912
319.511
302.564
286.153
270.355
255.235
240.847
227.234
214.43
202.454
191.319
181.022
171.556
162.904
155.039
147.931
141.542
135.834
130.761
126.279
122.341
118.901
115.912
113.329
111.111
109.215
107.605
106.245
105.102
104.148
103.355
102.7
102.161
101.722
101.364
101.076
100.844
100.659
100.511
100.395
100.303
100.232
100.176
100.134
100.101
100.075
100.056
100.042
100.031
100.022
100.016
100.012
100.009
100.006
100.004
100.003
100.002
100.002
100.001
100.001
100.001
100
100
100
100
100
100
100
100
100
100
100
390.898
372.747
354.754
337.022
319.648
302.724
286.333
270.551
255.442
241.062
227.454
214.65
202.672
191.53
181.226
171.75
163.085
155.208
148.086
141.685
135.963
130.877
126.382
122.432
118.98
115.981
113.389
111.162
109.259
107.642
106.276
105.128
104.169
103.372
102.714
102.173
101.731
101.372
101.082
100.849
100.662
100.514
100.397
100.305
100.233
100.178
100.134
100.101
100.076
100.056
100.042
100.031
100.023
100.017
100.012
100.009
100.006
100.004
100.003
100.002
100.002
100.001
100.001
100.001
100
100
100
100
100
100
100
100
100
100
100
390.911
372.786
354.819
337.11
319.757
302.852
286.477
270.708
255.609
241.235
227.63
214.827
202.847
191.701
181.39
171.906
163.233
155.345
148.213
141.801
136.068
130.972
126.467
122.507
119.046
116.038
113.438
111.204
109.295
107.673
106.302
105.15
104.187
103.387
102.726
102.183
101.739
101.379
101.087
100.853
100.666
100.517
100.399
100.307
100.235
100.178
100.135
100.102
100.076
100.057
100.042
100.031
100.023
100.017
100.012
100.009
100.006
100.004
100.003
100.002
100.002
100.001
100.001
100.001
100
100
100
100
100
100
100
100
100
100
100
390.922
372.817
354.87
337.18
319.844
302.953
286.591
270.833
255.742
241.374
227.772
214.969
202.987
191.838
181.522
172.033
163.352
155.457
148.316
141.895
136.153
131.049
126.535
122.568
119.099
116.085
113.479
111.239
109.325
107.698
106.323
105.167
104.202
103.399
102.736
102.191
101.746
101.384
101.091
100.856
100.668
100.519
100.401
100.308
100.236
100.179
100.136
100.102
100.076
100.057
100.042
100.031
100.023
100.017
100.012
100.009
100.006
100.004
100.003
100.002
100.002
100.001
100.001
100.001
100
100
100
100
100
100
100
100
100
100
100
390.93
372.842
354.91
337.235
319.912
303.034
286.682
270.932
255.847
241.483
227.884
215.082
203.099
191.948
181.628
172.134
163.448
155.546
148.399
141.971
136.223
131.111
126.591
122.617
119.143
116.123
113.512
111.267
109.349
107.718
106.34
105.182
104.214
103.409
102.744
102.198
101.751
101.388
101.095
100.859
100.671
100.521
100.402
100.309
100.236
100.18
100.136
100.102
100.077
100.057
100.042
100.031
100.023
100.017
100.012
100.009
100.006
100.005
100.003
100.002
100.002
100.001
100.001
100.001
100
100
100
100
100
100
100
100
100
100
100
390.936
372.861
354.942
337.278
319.967
303.098
286.754
271.01
255.931
241.571
227.973
215.172
203.189
192.035
181.713
172.215
163.524
155.618
148.465
142.032
136.278
131.161
126.636
122.657
119.178
116.153
113.538
111.29
109.369
107.735
106.354
105.194
104.224
103.417
102.751
102.203
101.756
101.392
101.098
100.861
100.672
100.522
100.403
100.31
100.237
100.18
100.137
100.103
100.077
100.057
100.043
100.031
100.023
100.017
100.012
100.009
100.006
100.005
100.003
100.002
100.002
100.001
100.001
100.001
100
100
100
100
100
100
100
100
100
100
100
390.942
372.877
354.967
337.312
320.009
303.148
286.81
271.072
255.997
241.639
228.044
215.243
203.259
192.104
181.78
172.279
163.585
155.675
148.518
142.081
136.323
131.201
126.672
122.689
119.206
116.178
113.56
111.309
109.385
107.749
106.366
105.203
104.232
103.424
102.757
102.208
101.759
101.395
101.1
100.863
100.674
100.523
100.404
100.311
100.238
100.181
100.137
100.103
100.077
100.058
100.043
100.031
100.023
100.017
100.012
100.009
100.006
100.005
100.003
100.002
100.002
100.001
100.001
100.001
100
100
100
100
100
100
100
100
100
100
100
390.946
372.888
354.986
337.339
320.042
303.187
286.855
271.12
256.048
241.693
228.099
215.299
203.315
192.159
181.833
172.33
163.633
155.72
148.56
142.12
136.358
131.233
126.701
122.715
119.229
116.198
113.577
111.324
109.397
107.76
106.375
105.211
104.238
103.429
102.761
102.211
101.762
101.397
101.102
100.865
100.675
100.524
100.405
100.311
100.238
100.181
100.137
100.103
100.077
100.058
100.043
100.032
100.023
100.017
100.012
100.009
100.006
100.005
100.003
100.002
100.002
100.001
100.001
100.001
100
100
100
100
100
100
100
100
100
100
100
390.949
372.898
355.001
337.36
320.068
303.217
286.889
271.158
256.089
241.736
228.143
215.343
203.359
192.202
181.875
172.37
163.671
155.756
148.594
142.15
136.386
131.259
126.724
122.735
119.247
116.214
113.591
111.336
109.408
107.768
106.382
105.217
104.243
103.434
102.764
102.214
101.765
101.399
101.103
100.866
100.676
100.525
100.406
100.312
100.238
100.181
100.137
100.103
100.077
100.058
100.043
100.032
100.023
100.017
100.012
100.009
100.006
100.005
100.003
100.002
100.002
100.001
100.001
100.001
100
100
100
100
100
100
100
100
100
100
100
390.951
372.905
355.013
337.376
320.089
303.241
286.916
271.188
256.12
241.769
228.177
215.377
203.393
192.236
181.908
172.401
163.701
155.784
148.62
142.174
136.408
131.279
126.742
122.751
119.261
116.226
113.602
111.345
109.416
107.775
106.388
105.222
104.247
103.437
102.767
102.217
101.766
101.401
101.105
100.867
100.677
100.526
100.406
100.312
100.239
100.182
100.137
100.104
100.078
100.058
100.043
100.032
100.023
100.017
100.012
100.009
100.006
100.005
100.003
100.002
100.002
100.001
100.001
100.001
100
100
100
100
100
100
100
100
100
100
100
390.953
372.91
355.022
337.388
320.104
303.26
286.937
271.211
256.145
241.794
228.203
215.404
203.42
192.262
181.933
172.426
163.724
155.806
148.64
142.193
136.425
131.294
126.756
122.764
119.272
116.236
113.61
111.353
109.422
107.781
106.393
105.226
104.251
103.44
102.77
102.218
101.768
101.402
101.106
100.868
100.677
100.526
100.407
100.313
100.239
100.182
100.138
100.104
100.078
100.058
100.043
100.032
100.023
100.017
100.012
100.009
100.006
100.005
100.003
100.002
100.002
100.001
100.001
100.001
100
100
100
100
100
100
100
100
100
100
100
390.954
372.915
355.029
337.398
320.116
303.274
286.953
271.228
256.164
241.814
228.223
215.424
203.44
192.282
181.953
172.445
163.742
155.823
148.656
142.208
136.439
131.307
126.767
122.774
119.281
116.244
113.617
111.358
109.427
107.785
106.397
105.229
104.253
103.442
102.771
102.22
101.769
101.403
101.106
100.868
100.678
100.527
100.407
100.313
100.239
100.182
100.138
100.104
100.078
100.058
100.043
100.032
100.023
100.017
100.012
100.009
100.006
100.005
100.003
100.002
100.002
100.001
100.001
100.001
100
100
100
100
100
100
100
100
100
100
100
390.955
372.918
355.035
337.405
320.125
303.285
286.965
271.242
256.178
241.829
228.239
215.44
203.456
192.298
181.968
172.459
163.756
155.836
148.669
142.219
136.449
131.316
126.775
122.781
119.288
116.25
113.622
111.363
109.431
107.788
106.399
105.232
104.255
103.444
102.773
102.221
101.77
101.403
101.107
100.869
100.678
100.527
100.407
100.313
100.239
100.182
100.138
100.104
100.078
100.058
100.043
100.032
100.023
100.017
100.012
100.009
100.006
100.005
100.003
100.002
100.002
100.001
100.001
100.001
100
100
100
100
100
100
100
100
100
100
100
390.956
372.921
355.039
337.411
320.132
303.293
286.975
271.252
256.189
241.841
228.251
215.453
203.468
192.31
181.98
172.471
163.767
155.846
148.678
142.228
136.457
131.324
126.782
122.787
119.293
116.254
113.626
111.367
109.434
107.791
106.402
105.234
104.257
103.445
102.774
102.222
101.771
101.404
101.108
100.869
100.679
100.527
100.407
100.313
100.239
100.182
100.138
100.104
100.078
100.058
100.043
100.032
100.023
100.017
100.012
100.009
100.006
100.005
100.003
100.002
100.002
100.001
100.001
100.001
100
100
100
100
100
100
100
100
100
100
100
390.957
372.922
355.042
337.415
320.138
303.299
286.982
271.26
256.198
241.85
228.26
215.462
203.477
192.319
181.989
172.479
163.775
155.854
148.685
142.235
136.464
131.329
126.787
122.792
119.297
116.258
113.63
111.369
109.436
107.793
106.403
105.235
104.258
103.446
102.775
102.223
101.771
101.405
101.108
100.87
100.679
100.527
100.407
100.313
100.24
100.182
100.138
100.104
100.078
100.058
100.043
100.032
100.023
100.017
100.012
100.009
100.006
100.005
100.003
100.002
100.002
100.001
100.001
100.001
100
100
100
100
100
100
100
100
100
100
100
390.957
372.924
355.044
337.419
320.142
303.304
286.987
271.266
256.204
241.857
228.267
215.469
203.485
192.326
181.996
172.486
163.782
155.86
148.691
142.24
136.468
131.334
126.791
122.795
119.3
116.261
113.632
111.371
109.438
107.795
106.405
105.236
104.259
103.447
102.775
102.223
101.772
101.405
101.108
100.87
100.679
100.527
100.408
100.313
100.24
100.182
100.138
100.104
100.078
100.058
100.043
100.032
100.023
100.017
100.012
100.009
100.006
100.005
100.003
100.002
100.002
100.001
100.001
100.001
100
100
100
100
100
100
100
100
100
100
100
390.958
372.925
355.046
337.421
320.145
303.308
286.992
271.271
256.209
241.862
228.272
215.474
203.49
192.331
182.001
172.491
163.787
155.864
148.695
142.244
136.472
131.337
126.794
122.798
119.303
116.263
113.634
111.373
109.44
107.796
106.406
105.237
104.26
103.447
102.776
102.224
101.772
101.405
101.108
100.87
100.679
100.528
100.408
100.313
100.24
100.182
100.138
100.104
100.078
100.058
100.043
100.032
100.023
100.017
100.012
100.009
100.006
100.005
100.003
100.002
100.002
100.001
100.001
100.001
100
100
100
100
100
100
100
100
100
100
100
390.958
372.926
355.047
337.423
320.147
303.31
286.995
271.274
256.213
241.866
228.276
215.478
203.494
192.335
182.005
172.495
163.79
155.868
148.698
142.247
136.475
131.339
126.796
122.8
119.305
116.265
113.635
111.374
109.441
107.797
106.406
105.238
104.26
103.448
102.776
102.224
101.772
101.405
101.109
100.87
100.679
100.528
100.408
100.313
100.24
100.182
100.138
100.104
100.078
100.058
100.043
100.032
100.023
100.017
100.012
100.009
100.006
100.005
100.003
100.002
100.002
100.001
100.001
100.001
100
100
100
100
100
100
100
100
100
100
100
390.958
372.926
355.048
337.424
320.149
303.313
286.997
271.276
256.215
241.868
228.279
215.481
203.497
192.338
182.008
172.498
163.793
155.87
148.701
142.249
136.477
131.341
126.798
122.802
119.306
116.266
113.636
111.375
109.442
107.797
106.407
105.238
104.261
103.448
102.776
102.224
101.773
101.406
101.109
100.87
100.679
100.528
100.408
100.313
100.24
100.182
100.138
100.104
100.078
100.058
100.043
100.032
100.023
100.017
100.012
100.009
100.006
100.005
100.003
100.002
100.002
100.001
100.001
100.001
100
100
100
100
100
100
100
100
100
100
100
390.958
372.927
355.049
337.425
320.15
303.314
286.999
271.278
256.217
241.871
228.282
215.484
203.499
192.341
182.01
172.5
163.795
155.872
148.703
142.251
136.478
131.343
126.799
122.803
119.307
116.267
113.637
111.376
109.442
107.798
106.408
105.239
104.261
103.449
102.777
102.224
101.773
101.406
101.109
100.87
100.679
100.528
100.408
100.314
100.24
100.182
100.138
100.104
100.078
100.058
100.043
100.032
100.023
100.017
100.012
100.009
100.006
100.005
100.003
100.002
100.002
100.001
100.001
100.001
100
100
100
100
100
100
100
100
100
100
100
390.959
372.927
355.05
337.426
320.151
303.315
287
271.28
256.219
241.872
228.283
215.485
203.501
192.342
182.011
172.501
163.796
155.874
148.704
142.252
136.48
131.344
126.8
122.804
119.308
116.267
113.638
111.376
109.443
107.798
106.408
105.239
104.261
103.449
102.777
102.225
101.773
101.406
101.109
100.87
100.68
100.528
100.408
100.314
100.24
100.182
100.138
100.104
100.078
100.058
100.043
100.032
100.023
100.017
100.012
100.009
100.006
100.005
100.003
100.002
100.002
100.001
100.001
100.001
100
100
100
100
100
100
100
100
100
100
100
390.959
372.927
355.05
337.427
320.152
303.316
287.001
271.281
256.22
241.873
228.284
215.487
203.502
192.344
182.013
172.503
163.798
155.875
148.705
142.253
136.481
131.345
126.801
122.804
119.308
116.268
113.638
111.377
109.443
107.799
106.408
105.239
104.262
103.449
102.777
102.225
101.773
101.406
101.109
100.87
100.68
100.528
100.408
100.314
100.24
100.182
100.138
100.104
100.078
100.058
100.043
100.032
100.023
100.017
100.012
100.009
100.006
100.005
100.003
100.002
100.002
100.001
100.001
100.001
100
100
100
100
100
100
100
100
100
100
100
390.959
372.928
355.05
337.427
320.152
303.317
287.002
271.282
256.221
241.874
228.285
215.487
203.503
192.344
182.014
172.503
163.798
155.876
148.706
142.254
136.481
131.345
126.802
122.805
119.309
116.268
113.639
111.377
109.443
107.799
106.408
105.239
104.262
103.449
102.777
102.225
101.773
101.406
101.109
100.87
100.68
100.528
100.408
100.314
100.24
100.182
100.138
100.104
100.078
100.058
100.043
100.032
100.023
100.017
100.012
100.009
100.006
100.005
100.003
100.002
100.002
100.001
100.001
100.001
100
100
100
100
100
100
100
100
100
100
100
390.959
372.928
355.051
337.427
320.153
303.317
287.002
271.282
256.222
241.875
228.286
215.488
203.504
192.345
182.014
172.504
163.799
155.876
148.706
142.254
136.482
131.346
126.802
122.805
119.309
116.269
113.639
111.377
109.443
107.799
106.408
105.239
104.262
103.449
102.777
102.225
101.773
101.406
101.109
100.87
100.68
100.528
100.408
100.314
100.24
100.182
100.138
100.104
100.078
100.058
100.043
100.032
100.023
100.017
100.012
100.009
100.006
100.005
100.003
100.002
100.002
100.001
100.001
100.001
100
100
100
100
100
100
100
100
100
100
100
390.959
372.928
355.051
337.427
320.153
303.317
287.003
271.283
256.222
241.875
228.286
215.489
203.504
192.346
182.015
172.504
163.799
155.877
148.707
142.255
136.482
131.346
126.802
122.805
119.309
116.269
113.639
111.377
109.444
107.799
106.409
105.239
104.262
103.449
102.777
102.225
101.773
101.406
101.109
100.87
100.68
100.528
100.408
100.314
100.24
100.182
100.138
100.104
100.078
100.058
100.043
100.032
100.023
100.017
100.012
100.009
100.006
100.005
100.003
100.002
100.002
100.001
100.001
100.001
100
100
100
100
100
100
100
100
100
100
100
390.959
372.928
355.051
337.428
320.153
303.318
287.003
271.283
256.222
241.876
228.287
215.489
203.505
192.346
182.015
172.505
163.8
155.877
148.707
142.255
136.482
131.346
126.802
122.806
119.31
116.269
113.639
111.378
109.444
107.799
106.409
105.239
104.262
103.449
102.777
102.225
101.773
101.406
101.109
100.87
100.68
100.528
100.408
100.314
100.24
100.182
100.138
100.104
100.078
100.058
100.043
100.032
100.023
100.017
100.012
100.009
100.006
100.005
100.003
100.002
100.002
100.001
100.001
100.001
100
100
100
100
100
100
100
100
100
100
100
390.959
372.928
355.051
337.428
320.153
303.318
287.003
271.283
256.222
241.876
228.287
215.489
203.505
192.346
182.015
172.505
163.8
155.877
148.707
142.255
136.482
131.346
126.803
122.806
119.31
116.269
113.639
111.378
109.444
107.799
106.409
105.24
104.262
103.449
102.777
102.225
101.773
101.406
101.109
100.87
100.68
100.528
100.408
100.314
100.24
100.182
100.138
100.104
100.078
100.058
100.043
100.032
100.023
100.017
100.012
100.009
100.006
100.005
100.003
100.002
100.002
100.001
100.001
100.001
100
100
100
100
100
100
100
100
100
100
100
390.959
372.928
355.051
337.428
320.154
303.318
287.003
271.283
256.223
241.876
228.287
215.489
203.505
192.346
182.015
172.505
163.8
155.877
148.707
142.255
136.483
131.346
126.803
122.806
119.31
116.269
113.639
111.378
109.444
107.799
106.409
105.24
104.262
103.449
102.777
102.225
101.773
101.406
101.109
100.87
100.68
100.528
100.408
100.314
100.24