/*--------------------------------*- C++ -*----------------------------------*\
  =========                 |
  \\      /  F ield         | OpenFOAM: The Open Source CFD Toolbox
   \\    /   O peration     | Website:  https://openfoam.org
    \\  /    A nd           | Version:  10
     \\/     M anipulation  |
\*---------------------------------------------------------------------------*/
FoamFile
{
    format      ascii;
    class       volScalarField;
    location    "126";
    object      gradTz;
}
// * * * * * * * * * * * * * * * * * * * * * * * * * * * * * * * * * * * * * //

dimensions      [0 -1 0 1 0 0 0];

internalField   nonuniform List<scalar> 
11250
(
-14387
-4181.1
-1558.18
-750.874
-441.545
-294.705
-211.797
-158.733
-121.708
-94.3414
-73.3562
-56.9156
-43.9026
-33.5796
-25.4197
-19.0184
-14.0491
-10.2391
-7.35829
-5.21209
-3.63779
-2.50126
-1.69399
-1.12993
-0.742262
-0.480199
-0.305953
-0.191994
-0.118678
-0.0722685
-0.0433546
-0.0256159
-0.0148943
-0.00850843
-0.00476272
-0.00260304
-0.00138319
-0.000711421
-0.000352683
-0.000167914
-7.6562e-05
-3.33657e-05
-1.38812e-05
-5.51013e-06
-2.08691e-06
-7.54439e-07
-2.6052e-07
-8.6006e-08
-2.71704e-08
-8.22006e-09
-2.39281e-09
-6.68449e-10
-1.89888e-10
-6.14666e-11
-8.78094e-12
-4.39047e-12
0
0
0
0
0
0
-2.08547e-11
-1.09762e-12
2.19523e-11
1.09762e-12
-1.09762e-12
0
1.09762e-12
-1.09762e-12
0
-5.48809e-12
-1.09762e-12
6.5857e-12
0
-8364.62
-4958.25
-2857.04
-1753.07
-1160.95
-819.39
-605.162
-460.155
-355.795
-277.242
-216.322
-168.244
-130.001
-99.5604
-75.4398
-56.4845
-41.7501
-30.4423
-21.8856
-15.5071
-10.826
-7.44539
-5.04338
-3.36459
-2.21054
-1.43026
-0.911362
-0.571954
-0.353568
-0.215317
-0.129178
-0.0763302
-0.0443876
-0.0253623
-0.0142019
-0.00776591
-0.00412941
-0.00212566
-0.00105481
-0.000502741
-0.000229493
-0.000100133
-4.171e-05
-1.65772e-05
-6.2862e-06
-2.27533e-06
-7.86676e-07
-2.60016e-07
-8.22478e-08
-2.49324e-08
-7.24428e-09
-2.0273e-09
-5.48809e-10
-1.54764e-10
-3.95142e-11
-1.09762e-12
-2.19523e-12
0
5.48809e-12
-1.09762e-12
-3.29285e-12
1.09762e-12
1.09762e-12
8.78094e-12
-1.09762e-12
-1.20738e-11
1.09762e-12
2.19523e-12
-1.09762e-12
-4.39047e-12
1.09762e-12
4.39047e-12
0
-8.78094e-12
8.78094e-12
-5742.01
-4423.95
-3153.06
-2238.75
-1626.24
-1214.38
-928.162
-720.919
-565.058
-444.298
-348.827
-272.494
-211.23
-162.157
-123.096
-92.2973
-68.2977
-49.8447
-35.8608
-25.4247
-17.7589
-12.2186
-8.27965
-5.52533
-3.63112
-2.34994
-1.49768
-0.940071
-0.581207
-0.353985
-0.212395
-0.125521
-0.0730112
-0.0417346
-0.0233851
-0.0127997
-0.00681463
-0.0035134
-0.00174662
-0.00083416
-0.000381611
-0.000166885
-6.96769e-05
-2.77576e-05
-1.05507e-05
-3.8278e-06
-1.32645e-06
-4.39426e-07
-1.39328e-07
-4.23494e-08
-1.23482e-08
-3.43554e-09
-9.18706e-10
-2.64526e-10
-6.58571e-11
-5.48809e-12
6.58571e-12
9.87856e-12
0
5.48809e-12
0
0
1.09762e-12
5.48809e-12
-1.09762e-12
-5.48809e-12
0
0
0
-1.09762e-11
0
1.20738e-11
1.09762e-12
-1.09762e-12
-1.09762e-12
-4426.56
-3832.14
-3083.27
-2414.94
-1884.98
-1479.86
-1170.29
-930.285
-740.838
-589.01
-466.114
-366.218
-285.1
-219.576
-167.102
-125.54
-93.0429
-67.9904
-48.9666
-34.7465
-24.2876
-16.7206
-11.3363
-7.56852
-4.97577
-3.22122
-2.05355
-1.28929
-0.797276
-0.485665
-0.291453
-0.17228
-0.100243
-0.0573336
-0.0321543
-0.0176221
-0.00939826
-0.00485579
-0.00242002
-0.00115902
-0.000531834
-0.000233322
-9.77358e-05
-3.90655e-05
-1.48985e-05
-5.42325e-06
-1.88553e-06
-6.26693e-07
-1.99356e-07
-6.07564e-08
-1.7754e-08
-4.96123e-09
-1.32153e-09
-3.7319e-10
-9.98832e-11
-5.48809e-12
3.29285e-12
1.09762e-12
-2.19523e-12
0
-1.09762e-12
0
-1.20738e-11
-1.09762e-12
1.4269e-11
1.09762e-12
0
0
-2.19524e-12
0
8.78094e-12
1.09762e-12
-9.87856e-12
0
0
-3690.52
-3380.58
-2920.22
-2442.16
-2010.81
-1644.43
-1340.28
-1089.06
-881.228
-708.842
-565.794
-447.411
-350.021
-270.6
-206.544
-155.538
-115.494
-84.527
-60.9539
-43.2985
-30.2924
-20.8704
-14.1589
-9.4583
-6.22117
-4.02915
-2.56954
-1.61374
-0.998165
-0.608174
-0.365052
-0.215843
-0.125643
-0.0719082
-0.0403699
-0.0221579
-0.0118413
-0.00613363
-0.00306611
-0.00147347
-0.000678654
-0.000298913
-0.000125726
-5.04644e-05
-1.93274e-05
-7.06528e-06
-2.46678e-06
-8.23314e-07
-2.62962e-07
-8.04641e-08
-2.36076e-08
-6.634e-09
-1.79241e-09
-4.74171e-10
-1.14152e-10
-1.86595e-11
-5.48809e-12
0
1.20738e-11
0
-8.78094e-12
0
2.19523e-12
1.09762e-12
5.48809e-12
-2.19523e-12
-4.39047e-12
1.09762e-12
2.19523e-12
-5.48809e-12
-2.19523e-12
4.39047e-12
0
-5.48809e-12
5.48809e-12
-3245.57
-3061.55
-2758.92
-2409.35
-2061.52
-1740.08
-1454.05
-1204.43
-988.967
-804.427
-647.586
-515.464
-405.326
-314.618
-240.911
-181.886
-135.342
-99.2235
-71.6543
-50.9606
-35.6891
-24.6098
-16.7082
-11.1684
-7.35008
-4.76259
-3.03856
-1.90898
-1.18115
-0.719859
-0.432202
-0.255625
-0.148865
-0.0852585
-0.0479174
-0.026343
-0.0141089
-0.00732893
-0.00367613
-0.00177355
-0.0008204
-0.000363022
-0.000153432
-6.18923e-05
-2.38241e-05
-8.75329e-06
-3.07158e-06
-1.03026e-06
-3.30667e-07
-1.01666e-07
-2.99726e-08
-8.49117e-09
-2.32036e-09
-6.15763e-10
-1.35007e-10
-1.64643e-11
-5.48809e-12
-6.58571e-12
6.5857e-12
4.39047e-12
-1.09762e-12
0
4.39047e-12
0
-5.48809e-12
1.09762e-12
0
0
0
-1.09762e-11
-2.19523e-12
4.39047e-12
1.09762e-12
4.39047e-12
3.29285e-12
-2962.23
-2839.92
-2625.57
-2358.99
-2073.75
-1792.33
-1527.52
-1285.63
-1069.1
-878.364
-712.716
-570.864
-451.128
-351.57
-270.076
-204.443
-152.457
-111.972
-80.9829
-57.6685
-40.4306
-27.9053
-18.9608
-12.6829
-8.35187
-5.41457
-3.45612
-2.17219
-1.34447
-0.819642
-0.492251
-0.291233
-0.169675
-0.0972432
-0.0547124
-0.030128
-0.0161735
-0.00842681
-0.00424257
-0.00205573
-0.000955548
-0.000425043
-0.000180638
-7.3282e-05
-2.83714e-05
-1.04845e-05
-3.7003e-06
-1.24824e-06
-4.02855e-07
-1.24525e-07
-3.69019e-08
-1.0479e-08
-2.87027e-09
-7.85894e-10
-1.8879e-10
-1.64643e-11
-2.19524e-12
0
2.19523e-12
2.19524e-12
0
1.09762e-12
-1.09762e-12
-1.09762e-12
1.09762e-12
-1.09762e-12
0
0
0
0
0
-4.39047e-12
-1.09762e-12
0
5.48809e-12
-2775.56
-2686.04
-2522.77
-2309.19
-2068.38
-1818.83
-1573.65
-1341.4
-1127.27
-934.129
-763.266
-614.821
-488.108
-381.822
-294.225
-223.294
-166.869
-122.778
-88.932
-63.4107
-44.5055
-30.747
-20.9089
-13.9961
-9.22239
-5.98224
-3.82031
-2.4021
-1.48732
-0.907023
-0.544888
-0.322471
-0.187949
-0.107783
-0.0607047
-0.0334817
-0.0180161
-0.00941663
-0.00475975
-0.00231717
-0.00108279
-0.000484414
-0.000207119
-8.45505e-05
-3.29413e-05
-1.22502e-05
-4.35047e-06
-1.47654e-06
-4.79379e-07
-1.49032e-07
-4.44008e-08
-1.27038e-08
-3.51018e-09
-9.28584e-10
-2.305e-10
-3.95142e-11
-5.48809e-12
0
8.78094e-12
0
2.19523e-12
0
3.29285e-12
0
0
-1.09762e-12
0
-1.20738e-11
0
1.31714e-11
1.09762e-12
-8.78094e-12
-8.78094e-12
4.39047e-12
1.09762e-11
-2649.9
-2578.9
-2446.13
-2266.49
-2056.39
-1830.8
-1601.93
-1379.01
-1168.66
-975.315
-801.644
-648.917
-517.285
-406.025
-313.765
-238.692
-178.736
-131.733
-95.5578
-68.2203
-47.9329
-33.1458
-22.5586
-15.1112
-9.9634
-6.4665
-4.13158
-2.59894
-1.60981
-0.982037
-0.590115
-0.34933
-0.20367
-0.116861
-0.0658785
-0.0363912
-0.0196274
-0.0102919
-0.0052236
-0.00255551
-0.00120082
-0.000540476
-0.000232561
-9.55565e-05
-3.74737e-05
-1.40264e-05
-5.01298e-06
-1.71195e-06
-5.59161e-07
-1.74823e-07
-5.23794e-08
-1.50593e-08
-4.16985e-09
-1.10969e-09
-2.5794e-10
-3.51238e-11
-1.31714e-11
-2.41476e-11
0
1.09762e-12
1.09762e-12
-1.09762e-12
0
0
1.09762e-12
6.58571e-12
-1.09762e-12
-6.5857e-12
1.09762e-12
-1.09762e-12
0
1.09762e-12
0
-1.09762e-12
0
-2564.21
-2504.17
-2390.1
-2232.33
-2043.19
-1835.01
-1618.87
-1404
-1197.66
-1005.2
-830.227
-674.834
-539.831
-424.98
-329.241
-251.002
-188.298
-138.999
-100.965
-72.1647
-50.7559
-35.1292
-23.9271
-16.0389
-10.5815
-6.87135
-4.39236
-2.76416
-1.71277
-1.04517
-0.628214
-0.371964
-0.21692
-0.124515
-0.0702495
-0.0388605
-0.0210058
-0.0110494
-0.00563101
-0.00276837
-0.0013081
-0.000592314
-0.000256476
-0.00010606
-4.18589e-05
-1.57662e-05
-5.66918e-06
-1.94739e-06
-6.39621e-07
-2.01068e-07
-6.05435e-08
-1.74993e-08
-4.85586e-09
-1.28202e-09
-3.24895e-10
-6.5857e-11
-1.53666e-11
-1.75619e-11
0
3.29285e-12
0
9.87856e-12
0
-9.87856e-12
0
1.64643e-11
1.09762e-12
-1.64643e-11
-1.09762e-12
2.19524e-12
5.48809e-12
-2.19524e-12
-5.48809e-12
0
0
-2505.38
-2452.03
-2349.67
-2206.11
-2031.18
-1835.38
-1628.79
-1420.4
-1217.71
-1026.56
-851.157
-694.178
-556.921
-439.534
-341.252
-260.644
-195.847
-144.773
-105.287
-75.3339
-53.0342
-36.7361
-25.0396
-16.7954
-11.0869
-7.2032
-4.60657
-2.90013
-1.79766
-1.09729
-0.659684
-0.390659
-0.22786
-0.130833
-0.0738605
-0.0409075
-0.0221565
-0.0116887
-0.00597952
-0.00295327
-0.00140276
-0.000638758
-0.000278206
-0.000115725
-4.59403e-05
-1.74017e-05
-6.2914e-06
-2.17236e-06
-7.17001e-07
-2.26445e-07
-6.84979e-08
-1.98592e-08
-5.51663e-09
-1.47849e-09
-3.87459e-10
-9.21999e-11
-2.41476e-11
-2.19523e-12
-2.19523e-12
1.09762e-12
1.09762e-12
0
-1.09762e-12
-1.09762e-12
1.09762e-12
1.09762e-12
1.09762e-12
-1.09762e-12
0
0
1.09762e-12
-6.5857e-12
0
5.48809e-12
0
-2464.9
-2415.72
-2320.82
-2186.53
-2021.19
-1834.05
-1634.45
-1431.06
-1231.41
-1041.61
-866.248
-708.375
-569.647
-450.504
-350.4
-268.052
-201.691
-149.273
-108.675
-77.8304
-54.8369
-38.0125
-25.9265
-17.4003
-11.4921
-7.46996
-4.77917
-3.00992
-1.86632
-1.13949
-0.685178
-0.405797
-0.236707
-0.135935
-0.0767744
-0.0425617
-0.0230908
-0.0122118
-0.0062678
-0.00310809
-0.00148302
-0.000678616
-0.00029706
-0.000124194
-4.95472e-05
-1.88578e-05
-6.84897e-06
-2.37508e-06
-7.87073e-07
-2.49517e-07
-7.57466e-08
-2.20237e-08
-6.15873e-09
-1.65411e-09
-4.15997e-10
-1.21836e-10
-3.40261e-11
-1.09762e-12
-1.09762e-12
3.29285e-12
1.4269e-11
-2.19523e-12
-1.31714e-11
0
-9.87856e-12
-2.08547e-11
8.78094e-12
2.19523e-11
0
0
0
0
-2.19524e-12
-3.29285e-12
5.48809e-12
-2437.07
-2390.54
-2300.42
-2172.22
-2013.32
-1832.18
-1637.59
-1437.92
-1240.68
-1052.09
-876.976
-718.633
-578.967
-458.63
-357.241
-273.639
-206.13
-152.713
-111.279
-79.7595
-56.2359
-39.0071
-26.6198
-17.8747
-11.8109
-7.68034
-4.91562
-3.0969
-1.92081
-1.17303
-0.705439
-0.417817
-0.243716
-0.139964
-0.0790688
-0.043862
-0.0238256
-0.0126248
-0.00649679
-0.00323203
-0.00154781
-0.000711054
-0.000312522
-0.000131187
-5.25433e-05
-2.00738e-05
-7.31669e-06
-2.54582e-06
-8.46322e-07
-2.69072e-07
-8.18998e-08
-2.39006e-08
-6.70205e-09
-1.80229e-09
-4.80756e-10
-1.35007e-10
-2.85381e-11
-1.09762e-12
0
2.19524e-12
-2.19524e-12
6.5857e-12
0
-1.86595e-11
-4.39047e-12
9.87856e-12
3.29285e-12
3.29285e-12
1.09762e-12
0
-1.09762e-12
0
0
1.09762e-12
-1.09762e-12
-2418
-2373.16
-2286.14
-2161.94
-2007.35
-1830.33
-1639.25
-1442.29
-1246.88
-1059.31
-884.501
-725.937
-585.686
-464.548
-362.269
-277.779
-209.442
-155.296
-113.245
-81.2223
-57.3015
-39.7674
-27.1518
-18.2399
-12.057
-7.84319
-5.0215
-3.16455
-1.96326
-1.19918
-0.721241
-0.427177
-0.249156
-0.143077
-0.0808308
-0.0448546
-0.0243841
-0.012938
-0.0066705
-0.00332627
-0.00159726
-0.000735914
-0.000324422
-0.000136591
-5.48676e-05
-2.10203e-05
-7.68188e-06
-2.67948e-06
-8.92801e-07
-2.84453e-07
-8.67634e-08
-2.53791e-08
-7.13671e-09
-1.9329e-09
-5.12587e-10
-1.36105e-10
-3.62214e-11
-8.78094e-12
4.39047e-12
8.78094e-12
4.39047e-12
0
-1.20738e-11
-1.09762e-12
1.31714e-11
2.19523e-12
-2.19523e-12
-1.09762e-12
1.09762e-12
-1.09762e-12
-4.39047e-12
-7.68332e-12
3.29285e-12
1.31714e-11
-3.29285e-12
-2405
-2361.26
-2276.25
-2154.66
-2002.95
-1828.72
-1640.08
-1445.06
-1251
-1064.22
-889.712
-731.065
-590.455
-468.791
-365.905
-280.793
-211.87
-157.2
-114.702
-82.3117
-58.0983
-40.3382
-27.5525
-18.5158
-12.2434
-7.96694
-5.10218
-3.21621
-1.99574
-1.21921
-0.73334
-0.43433
-0.253296
-0.145429
-0.0821505
-0.0455904
-0.0247938
-0.0131657
-0.00679602
-0.00339412
-0.00163281
-0.000753788
-0.000332988
-0.000140487
-5.65461e-05
-2.1705e-05
-7.94655e-06
-2.77655e-06
-9.26614e-07
-2.95654e-07
-9.03021e-08
-2.64515e-08
-7.43307e-09
-2.02291e-09
-5.54297e-10
-1.25128e-10
-1.86595e-11
-5.48809e-12
1.09762e-12
0
-2.19524e-12
0
1.09762e-12
0
4.39047e-12
0
-4.39047e-12
-1.09762e-12
0
-4.39047e-12
4.39047e-12
5.48809e-12
-4.39047e-12
1.09762e-12
-1.09762e-12
-2396.21
-2353.17
-2269.46
-2149.59
-1999.78
-1827.43
-1640.47
-1446.79
-1253.71
-1067.52
-893.276
-734.615
-593.792
-471.786
-368.49
-282.952
-213.62
-158.58
-115.763
-83.1085
-58.6835
-40.7589
-27.8489
-18.7205
-12.3822
-8.05931
-5.16255
-3.25496
-2.02015
-1.23428
-0.742437
-0.439694
-0.256384
-0.14717
-0.0831156
-0.0461207
-0.0250843
-0.0133247
-0.00688245
-0.00344037
-0.00165687
-0.000765835
-0.000338747
-0.000143104
-5.76735e-05
-2.21652e-05
-8.12457e-06
-2.84189e-06
-9.49393e-07
-3.0323e-07
-9.273e-08
-2.71869e-08
-7.63722e-09
-2.0712e-09
-5.46614e-10
-1.1525e-10
-1.09762e-11
0
5.48809e-12
1.09762e-12
-8.78094e-12
-1.09762e-12
5.48809e-12
8.78094e-12
0
-8.78094e-12
0
-4.39047e-12
0
-6.58571e-12
-1.09762e-12
9.87856e-12
9.87856e-12
1.09762e-12
-8.78094e-12
-2390.31
-2347.72
-2264.85
-2146.1
-1997.55
-1826.44
-1640.61
-1447.87
-1255.47
-1069.72
-895.683
-737.04
-596.093
-473.868
-370.301
-284.474
-214.86
-159.563
-116.522
-83.6813
-59.1058
-41.0636
-28.0643
-18.8698
-12.4837
-8.12702
-5.20693
-3.28352
-2.03817
-1.24541
-0.749154
-0.443643
-0.258645
-0.148432
-0.0838059
-0.0464932
-0.0252841
-0.0134315
-0.00693935
-0.00347029
-0.00167224
-0.000773462
-0.000342372
-0.000144745
-5.8379e-05
-2.24528e-05
-8.23578e-06
-2.8827e-06
-9.63657e-07
-3.0797e-07
-9.42239e-08
-2.76336e-08
-7.76784e-09
-2.09425e-09
-5.58687e-10
-1.30616e-10
-6.5857e-12
8.78094e-12
-1.09762e-12
-8.78094e-12
0
0
-2.19523e-12
4.39047e-12
2.19523e-12
-5.48809e-12
-2.19523e-12
0
2.19523e-12
-6.5857e-12
-4.39047e-12
6.5857e-12
4.39047e-12
8.78094e-12
-7.68332e-12
-2386.38
-2344.09
-2261.76
-2143.73
-1996
-1825.72
-1640.65
-1448.53
-1256.61
-1071.17
-897.29
-738.675
-597.658
-475.294
-371.55
-285.529
-215.725
-160.252
-117.057
-84.0861
-59.4054
-41.2805
-28.2181
-18.9767
-12.5566
-8.17581
-5.23899
-3.30419
-2.05124
-1.25348
-0.754021
-0.446496
-0.260268
-0.149329
-0.0842893
-0.0467487
-0.0254177
-0.0135011
-0.00697538
-0.00348879
-0.00168156
-0.000778017
-0.000344515
-0.000145709
-5.87913e-05
-2.26204e-05
-8.30052e-06
-2.90644e-06
-9.71941e-07
-3.10732e-07
-9.5069e-08
-2.78641e-08
-7.83918e-09
-2.14584e-09
-5.67468e-10
-1.25128e-10
-2.74404e-11
0
-1.09762e-12
0
0
1.09762e-12
-1.09762e-12
0
0
0
-1.09762e-12
0
1.09762e-12
-1.4269e-11
4.39047e-12
9.87856e-12
-3.29285e-12
4.39047e-12
-1.09762e-12
-2383.8
-2341.69
-2259.71
-2142.15
-1994.94
-1825.2
-1640.63
-1448.94
-1257.33
-1072.11
-898.349
-739.763
-598.707
-476.257
-372.398
-286.25
-216.318
-160.726
-117.427
-84.3674
-59.6143
-41.4323
-28.326
-19.0519
-12.608
-8.21035
-5.26175
-3.3189
-2.06054
-1.25923
-0.75748
-0.448515
-0.261409
-0.149953
-0.0846206
-0.0469203
-0.0255051
-0.0135451
-0.00699747
-0.00349978
-0.00168695
-0.0007806
-0.000345712
-0.000146241
-5.90174e-05
-2.27119e-05
-8.33573e-06
-2.91932e-06
-9.76423e-07
-3.12226e-07
-9.55344e-08
-2.79958e-08
-7.88638e-09
-2.16011e-09
-5.59785e-10
-1.30616e-10
-3.51238e-11
-1.09762e-12
1.09762e-12
0
-3.29285e-12
0
3.29285e-12
0
1.09762e-12
8.78094e-12
0
-9.87856e-12
0
0
9.87856e-12
3.29285e-12
-1.4269e-11
-2.19523e-12
3.29285e-12
-2382.11
-2340.12
-2258.37
-2141.1
-1994.23
-1824.84
-1640.59
-1449.18
-1257.79
-1072.72
-899.038
-740.478
-599.401
-476.898
-372.965
-286.734
-216.719
-161.048
-117.679
-84.5596
-59.7575
-41.5367
-28.4006
-19.104
-12.6438
-8.23441
-5.27763
-3.32917
-2.06705
-1.26325
-0.759888
-0.449914
-0.262194
-0.150378
-0.0848428
-0.0470331
-0.025561
-0.0135724
-0.00701066
-0.00350611
-0.00168995
-0.000782001
-0.000346348
-0.000146519
-5.91344e-05
-2.27589e-05
-8.35371e-06
-2.92589e-06
-9.78728e-07
-3.12983e-07
-9.57551e-08
-2.80595e-08
-7.88748e-09
-2.14804e-09
-5.67468e-10
-1.59155e-10
-4.50023e-11
-3.29285e-12
2.19523e-12
-2.19523e-12
-1.09762e-11
3.29285e-12
7.68332e-12
-8.78094e-12
-1.09762e-11
9.87856e-12
9.87856e-12
5.48809e-12
-1.09762e-12
-4.39047e-12
0
-1.09762e-12
0
0
1.09762e-12
-2381.03
-2339.11
-2257.49
-2140.41
-1993.76
-1824.6
-1640.56
-1449.33
-1258.08
-1073.11
-899.482
-740.941
-599.854
-477.318
-373.339
-287.055
-216.986
-161.264
-117.848
-84.6888
-59.8542
-41.6073
-28.4511
-19.1395
-12.6682
-8.25088
-5.28853
-3.33623
-2.07151
-1.266
-0.761531
-0.450862
-0.262722
-0.150661
-0.0849884
-0.0471055
-0.025596
-0.0135889
-0.00701837
-0.00350967
-0.00169158
-0.000782734
-0.000346671
-0.000146658
-5.91918e-05
-2.27817e-05
-8.36234e-06
-2.92904e-06
-9.79817e-07
-3.13313e-07
-9.58681e-08
-2.81122e-08
-7.92041e-09
-2.15133e-09
-5.55394e-10
-1.39397e-10
-4.50023e-11
-1.86595e-11
1.09762e-12
0
-1.09762e-11
-1.09762e-12
1.31714e-11
0
-2.19523e-12
0
1.09762e-12
-1.09762e-12
0
-2.19524e-12
-2.19523e-12
6.58571e-12
-3.29285e-12
-7.68332e-12
8.78094e-12
-2380.34
-2338.47
-2256.94
-2139.97
-1993.46
-1824.43
-1640.53
-1449.41
-1258.26
-1073.35
-899.763
-741.237
-600.145
-477.59
-373.582
-287.265
-217.16
-161.405
-117.959
-84.7743
-59.9183
-41.6543
-28.4849
-19.1633
-12.6846
-8.26198
-5.29589
-3.341
-2.07452
-1.26785
-0.762629
-0.451491
-0.263069
-0.150844
-0.0850814
-0.047151
-0.0256174
-0.0135988
-0.00702281
-0.00351163
-0.00169244
-0.000783108
-0.000346831
-0.000146725
-5.92188e-05
-2.27922e-05
-8.36634e-06
-2.93045e-06
-9.80272e-07
-3.1348e-07
-9.59263e-08
-2.81418e-08
-7.9259e-09
-2.14365e-09
-5.68566e-10
-1.39397e-10
-3.18309e-11
-1.64643e-11
0
0
0
0
-1.64643e-11
0
1.64643e-11
0
1.09762e-12
0
0
-1.31714e-11
0
1.20738e-11
-3.29285e-12
1.09762e-12
2.19524e-12
-2379.9
-2338.06
-2256.58
-2139.69
-1993.27
-1824.33
-1640.51
-1449.46
-1258.37
-1073.5
-899.94
-741.425
-600.33
-477.763
-373.738
-287.399
-217.273
-161.496
-118.031
-84.8299
-59.9601
-41.6851
-28.507
-19.1789
-12.6954
-8.26934
-5.30078
-3.34418
-2.07653
-1.26907
-0.763352
-0.451902
-0.263292
-0.15096
-0.0851397
-0.0471789
-0.0256303
-0.0136046
-0.00702531
-0.0035127
-0.00169289
-0.000783295
-0.000346908
-0.000146756
-5.9231e-05
-2.27969e-05
-8.36805e-06
-2.93107e-06
-9.80483e-07
-3.13548e-07
-9.59537e-08
-2.81429e-08
-7.93029e-09
-2.15682e-09
-5.75152e-10
-1.41593e-10
-3.18309e-11
-1.09762e-12
7.68332e-12
1.09762e-12
0
0
0
-1.09762e-12
-4.39047e-12
1.20738e-11
4.39047e-12
-1.09762e-11
-2.19523e-12
-1.09762e-12
2.19523e-12
0
0
-1.09762e-11
1.20738e-11
-2379.63
-2337.81
-2256.36
-2139.52
-1993.14
-1824.26
-1640.49
-1449.49
-1258.44
-1073.59
-900.05
-741.541
-600.446
-477.872
-373.836
-287.485
-217.344
-161.555
-118.077
-84.8655
-59.9868
-41.7048
-28.5213
-19.189
-12.7025
-8.27416
-5.304
-3.34627
-2.07785
-1.26988
-0.763822
-0.452165
-0.263434
-0.151033
-0.0851754
-0.0471957
-0.0256379
-0.0136079
-0.00702671
-0.00351328
-0.00169313
-0.000783388
-0.000346944
-0.00014677
-5.92363e-05
-2.27989e-05
-8.36878e-06
-2.93133e-06
-9.80564e-07
-3.13594e-07
-9.59834e-08
-2.81429e-08
-7.93468e-09
-2.17438e-09
-5.49906e-10
-1.20738e-10
-2.08547e-11
1.09762e-12
-1.20738e-11
0
-1.09762e-12
-1.09762e-12
-2.19524e-12
0
1.75619e-11
0
-1.4269e-11
0
1.09762e-12
-5.48809e-12
-2.19523e-12
6.58571e-12
-1.09762e-12
-1.09762e-12
2.19524e-12
-2379.47
-2337.65
-2256.23
-2139.41
-1993.07
-1824.22
-1640.48
-1449.51
-1258.48
-1073.65
-900.117
-741.613
-600.518
-477.94
-373.897
-287.538
-217.389
-161.591
-118.106
-84.8879
-60.0037
-41.7173
-28.5303
-19.1955
-12.707
-8.27725
-5.30608
-3.34763
-2.07871
-1.2704
-0.764125
-0.452333
-0.263523
-0.151078
-0.0851972
-0.0472058
-0.0256424
-0.0136097
-0.00702748
-0.00351358
-0.00169324
-0.000783433
-0.000346961
-0.000146776
-5.92387e-05
-2.27997e-05
-8.36908e-06
-2.93143e-06
-9.80601e-07
-3.13613e-07
-9.60009e-08
-2.81506e-08
-7.9248e-09
-2.15572e-09
-5.42223e-10
-1.20738e-10
-3.40261e-11
-3.29285e-12
-5.48809e-12
2.19524e-12
1.09762e-12
-3.29285e-12
4.39047e-12
4.39047e-12
-4.39047e-12
-2.19524e-12
0
0
0
0
0
0
1.09762e-12
1.09762e-12
-2.19524e-12
-2379.37
-2337.56
-2256.14
-2139.34
-1993.02
-1824.19
-1640.47
-1449.52
-1258.5
-1073.69
-900.158
-741.657
-600.561
-477.981
-373.935
-287.571
-217.417
-161.614
-118.124
-84.9017
-60.0141
-41.725
-28.5359
-19.1995
-12.7098
-8.27921
-5.30741
-3.3485
-2.07926
-1.27073
-0.764318
-0.45244
-0.263578
-0.151106
-0.0852103
-0.0472117
-0.0256449
-0.0136108
-0.0070279
-0.00351375
-0.00169331
-0.000783455
-0.000346969
-0.000146779
-5.92397e-05
-2.28001e-05
-8.36921e-06
-2.93146e-06
-9.80613e-07
-3.13616e-07
-9.60053e-08
-2.81605e-08
-7.9237e-09
-2.14694e-09
-5.75152e-10
-1.32812e-10
-2.19523e-12
-5.48809e-12
-5.48809e-12
1.09762e-12
-2.19523e-12
0
2.19523e-12
-2.19523e-12
-2.19523e-12
4.39047e-12
1.09762e-12
-3.29285e-12
0
0
2.19523e-12
0
-2.19523e-12
-5.48809e-12
5.48809e-12
-2379.31
-2337.5
-2256.1
-2139.3
-1992.99
-1824.17
-1640.47
-1449.52
-1258.51
-1073.71
-900.182
-741.683
-600.588
-478.007
-373.957
-287.591
-217.434
-161.627
-118.135
-84.9101
-60.0204
-41.7296
-28.5393
-19.2019
-12.7115
-8.28042
-5.30824
-3.34905
-2.07961
-1.27094
-0.764441
-0.452507
-0.263613
-0.151123
-0.0852182
-0.0472152
-0.0256464
-0.0136114
-0.00702813
-0.00351383
-0.00169334
-0.000783466
-0.000346973
-0.00014678
-5.92401e-05
-2.28002e-05
-8.36923e-06
-2.93148e-06
-9.80649e-07
-3.13627e-07
-9.60009e-08
-2.81462e-08
-7.92809e-09
-2.15682e-09
-5.60883e-10
-1.26226e-10
-2.41476e-11
-8.78094e-12
0
0
-2.19524e-12
0
-4.39047e-12
-1.09762e-12
5.48809e-12
1.09762e-12
0
2.19523e-12
-1.09762e-12
-6.58571e-12
0
2.19524e-12
-1.4269e-11
4.39047e-12
1.31714e-11
-2379.27
-2337.47
-2256.07
-2139.28
-1992.97
-1824.16
-1640.46
-1449.53
-1258.52
-1073.72
-900.197
-741.699
-600.603
-478.021
-373.971
-287.602
-217.444
-161.636
-118.142
-84.915
-60.0242
-41.7324
-28.5413
-19.2033
-12.7126
-8.28116
-5.30875
-3.34939
-2.07983
-1.27108
-0.764517
-0.452548
-0.263634
-0.151133
-0.085223
-0.0472173
-0.0256473
-0.0136117
-0.00702826
-0.00351388
-0.00169335
-0.000783472
-0.000346975
-0.000146781
-5.92403e-05
-2.28003e-05
-8.36924e-06
-2.93149e-06
-9.80656e-07
-3.13655e-07
-9.6002e-08
-2.81462e-08
-7.93577e-09
-2.15682e-09
-5.56492e-10
-1.26226e-10
-2.19524e-11
1.09762e-12
0
-2.19524e-12
0
-5.48809e-12
-1.75619e-11
4.39047e-12
1.86595e-11
0
-1.09762e-12
1.09762e-12
0
0
0
0
0
8.78094e-12
-8.78094e-12
-2379.25
-2337.45
-2256.05
-2139.27
-1992.96
-1824.16
-1640.46
-1449.53
-1258.53
-1073.72
-900.205
-741.708
-600.612
-478.03
-373.979
-287.609
-217.449
-161.64
-118.145
-84.9179
-60.0263
-41.7339
-28.5424
-19.2041
-12.7132
-8.28158
-5.30905
-3.3496
-2.07996
-1.27116
-0.764563
-0.452573
-0.263647
-0.151139
-0.0852258
-0.0472185
-0.0256478
-0.0136119
-0.00702833
-0.00351391
-0.00169336
-0.000783475
-0.000346976
-0.000146781
-5.92404e-05
-2.28003e-05
-8.36926e-06
-2.9315e-06
-9.80671e-07
-3.13664e-07
-9.59998e-08
-2.81473e-08
-7.91821e-09
-2.15243e-09
-5.68566e-10
-1.24031e-10
-2.41476e-11
-5.48809e-12
-1.09762e-12
0
1.09762e-12
-1.09762e-12
0
1.09762e-12
-3.29285e-12
0
3.29285e-12
9.87856e-12
3.29285e-12
-8.78094e-12
-2.41476e-11
-1.09762e-12
1.64643e-11
2.19523e-12
2.19523e-12
-2379.24
-2337.44
-2256.04
-2139.26
-1992.96
-1824.15
-1640.46
-1449.53
-1258.53
-1073.73
-900.21
-741.713
-600.618
-478.035
-373.984
-287.613
-217.453
-161.643
-118.147
-84.9196
-60.0275
-41.7348
-28.543
-19.2046
-12.7135
-8.28182
-5.30922
-3.34971
-2.08003
-1.2712
-0.76459
-0.452588
-0.263654
-0.151143
-0.0852274
-0.0472192
-0.025648
-0.013612
-0.00702837
-0.00351392
-0.00169337
-0.000783476
-0.000346976
-0.000146781
-5.92404e-05
-2.28003e-05
-8.36927e-06
-2.93149e-06
-9.80641e-07
-3.1365e-07
-9.60163e-08
-2.81495e-08
-7.9248e-09
-2.1656e-09
-5.54297e-10
-1.14152e-10
-2.19524e-11
-9.87856e-12
0
-1.09762e-12
1.09762e-12
0
0
0
0
0
9.87856e-12
2.19523e-12
-9.87856e-12
-6.58571e-12
-1.09762e-12
5.48809e-12
0
0
0
-2379.23
-2337.43
-2256.03
-2139.25
-1992.96
-1824.15
-1640.46
-1449.53
-1258.53
-1073.73
-900.213
-741.716
-600.621
-478.038
-373.986
-287.616
-217.455
-161.645
-118.149
-84.9204
-60.0282
-41.7353
-28.5434
-19.2048
-12.7137
-8.28195
-5.30931
-3.34978
-2.08008
-1.27123
-0.764605
-0.452596
-0.263659
-0.151145
-0.0852283
-0.0472195
-0.0256482
-0.0136121
-0.00702839
-0.00351393
-0.00169337
-0.000783477
-0.000346976
-0.000146781
-5.92404e-05
-2.28003e-05
-8.36925e-06
-2.93149e-06
-9.80652e-07
-3.13639e-07
-9.6013e-08
-2.81682e-08
-7.90833e-09
-2.12279e-09
-5.46614e-10
-1.31714e-10
-3.95142e-11
-9.87856e-12
1.20738e-11
-1.09762e-12
-4.39047e-12
-3.29285e-12
4.39047e-12
3.29285e-12
0
0
1.09762e-12
-1.09762e-12
7.68332e-12
1.09762e-12
-4.39047e-12
0
-2.19524e-12
0
-2.19524e-12
-2379.23
-2337.42
-2256.03
-2139.25
-1992.95
-1824.15
-1640.46
-1449.53
-1258.53
-1073.73
-900.215
-741.718
-600.623
-478.04
-373.988
-287.617
-217.456
-161.645
-118.149
-84.9209
-60.0285
-41.7355
-28.5435
-19.205
-12.7138
-8.28202
-5.30936
-3.34981
-2.0801
-1.27124
-0.764613
-0.4526
-0.263661
-0.151146
-0.0852287
-0.0472197
-0.0256483
-0.0136121
-0.0070284
-0.00351393
-0.00169337
-0.000783477
-0.000346977
-0.000146781
-5.92405e-05
-2.28003e-05
-8.36927e-06
-2.93148e-06
-9.80643e-07
-3.13641e-07
-9.60141e-08
-2.81561e-08
-7.89955e-09
-2.12938e-09
-5.6198e-10
-1.24031e-10
-3.51238e-11
-1.31714e-11
5.48809e-12
5.48809e-12
1.20738e-11
4.39047e-12
-2.19523e-12
0
-7.68332e-12
0
1.4269e-11
0
-4.39047e-12
-7.68332e-12
-1.09762e-12
-1.09762e-12
0
1.64643e-11
-6.5857e-12
-2379.22
-2337.42
-2256.03
-2139.25
-1992.95
-1824.15
-1640.46
-1449.53
-1258.53
-1073.73
-900.216
-741.719
-600.624
-478.041
-373.988
-287.618
-217.456
-161.646
-118.15
-84.9211
-60.0287
-41.7356
-28.5436
-19.205
-12.7138
-8.28205
-5.30938
-3.34983
-2.08011
-1.27125
-0.764618
-0.452603
-0.263662
-0.151147
-0.085229
-0.0472199
-0.0256483
-0.0136121
-0.00702841
-0.00351393
-0.00169337
-0.000783478
-0.000346977
-0.000146781
-5.92405e-05
-2.28003e-05
-8.36926e-06
-2.93149e-06
-9.80661e-07
-3.13652e-07
-9.59823e-08
-2.81363e-08
-7.91272e-09
-2.14255e-09
-5.48809e-10
-1.29519e-10
-3.84166e-11
-9.87856e-12
1.09762e-12
-5.48809e-12
1.09762e-12
1.31714e-11
-5.48809e-12
-1.09762e-12
6.5857e-12
0
1.09762e-12
0
-1.09762e-12
-1.31714e-11
0
6.58571e-12
-4.39047e-12
6.5857e-12
4.39047e-12
-2379.22
-2337.42
-2256.03
-2139.25
-1992.95
-1824.15
-1640.46
-1449.53
-1258.53
-1073.73
-900.216
-741.72
-600.624
-478.041
-373.989
-287.618
-217.457
-161.646
-118.15
-84.9213
-60.0288
-41.7357
-28.5437
-19.2051
-12.7138
-8.28207
-5.30939
-3.34984
-2.08012
-1.27125
-0.764619
-0.452604
-0.263663
-0.151147
-0.0852291
-0.0472199
-0.0256483
-0.0136122
-0.00702841
-0.00351393
-0.00169337
-0.000783478
-0.000346977
-0.000146781
-5.92405e-05
-2.28003e-05
-8.36927e-06
-2.93151e-06
-9.80642e-07
-3.13624e-07
-9.59932e-08
-2.81484e-08
-7.9259e-09
-2.14145e-09
-5.47711e-10
-1.30616e-10
-3.7319e-11
8.78094e-12
1.31714e-11
-8.78094e-12
2.19524e-12
0
-2.19524e-12
-1.09762e-12
1.09762e-12
-3.29285e-12
4.39047e-12
4.39047e-12
1.09762e-12
-2.19524e-12
-5.48809e-12
1.09762e-12
1.09762e-12
-1.09762e-12
0
-2379.22
-2337.42
-2256.03
-2139.25
-1992.95
-1824.15
-1640.46
-1449.53
-1258.53
-1073.73
-900.216
-741.72
-600.624
-478.041
-373.989
-287.618
-217.457
-161.646
-118.15
-84.9213
-60.0288
-41.7357
-28.5437
-19.2051
-12.7138
-8.28208
-5.3094
-3.34984
-2.08012
-1.27126
-0.76462
-0.452604
-0.263663
-0.151147
-0.0852291
-0.0472199
-0.0256483
-0.0136122
-0.00702841
-0.00351393
-0.00169337
-0.000783478
-0.000346977
-0.000146781
-5.92405e-05
-2.28003e-05
-8.36928e-06
-2.93152e-06
-9.80664e-07
-3.13616e-07
-9.59779e-08
-2.81396e-08
-7.9237e-09
-2.14914e-09
-5.78444e-10
-1.37202e-10
-9.87856e-12
0
3.29285e-12
-1.09762e-12
-2.19523e-12
-1.09762e-12
-5.48809e-12
-2.19523e-12
7.68332e-12
4.39047e-12
1.31714e-11
0
-1.31714e-11
8.78094e-12
1.31714e-11
-1.09762e-11
-1.09762e-11
-1.09762e-12
1.09762e-12
-2379.22
-2337.42
-2256.03
-2139.25
-1992.95
-1824.15
-1640.46
-1449.53
-1258.53
-1073.73
-900.217
-741.72
-600.625
-478.041
-373.989
-287.618
-217.457
-161.646
-118.15
-84.9213
-60.0288
-41.7357
-28.5437
-19.2051
-12.7138
-8.28208
-5.3094
-3.34984
-2.08012
-1.27126
-0.764621
-0.452604
-0.263663
-0.151147
-0.0852292
-0.0472199
-0.0256483
-0.0136122
-0.00702841
-0.00351393
-0.00169337
-0.000783478
-0.000346977
-0.000146781
-5.92405e-05
-2.28003e-05
-8.36928e-06
-2.93153e-06
-9.80673e-07
-3.13615e-07
-9.59658e-08
-2.81308e-08
-7.91053e-09
-2.16121e-09
-5.78444e-10
-1.44886e-10
-3.7319e-11
-5.48809e-12
0
0
0
0
0
-3.29285e-12
0
4.39047e-12
0
-1.09762e-12
-8.78094e-12
-6.58571e-12
1.53666e-11
5.48809e-12
-8.78094e-12
0
3.29285e-12
-2379.22
-2337.42
-2256.03
-2139.25
-1992.95
-1824.15
-1640.46
-1449.53
-1258.53
-1073.73
-900.217
-741.72
-600.625
-478.042
-373.989
-287.618
-217.457
-161.646
-118.15
-84.9214
-60.0288
-41.7357
-28.5437
-19.2051
-12.7138
-8.28208
-5.3094
-3.34984
-2.08012
-1.27126
-0.764621
-0.452605
-0.263663
-0.151147
-0.0852292
-0.0472199
-0.0256483
-0.0136122
-0.00702841
-0.00351393
-0.00169337
-0.000783478
-0.000346977
-0.000146781
-5.92405e-05
-2.28004e-05
-8.36931e-06
-2.9315e-06
-9.80651e-07
-3.13621e-07
-9.59504e-08
-2.81319e-08
-7.94126e-09
-2.19304e-09
-5.89421e-10
-1.1964e-10
-2.08547e-11
-1.31714e-11
0
-1.09762e-12
-3.29285e-12
-1.09762e-12
4.39047e-12
0
0
0
0
1.09762e-12
-1.09762e-12
-7.68332e-12
1.09762e-12
7.68332e-12
-8.78094e-12
0
7.68332e-12
-2379.22
-2337.42
-2256.03
-2139.25
-1992.95
-1824.15
-1640.46
-1449.53
-1258.53
-1073.73
-900.217
-741.72
-600.625
-478.042
-373.989
-287.618
-217.457
-161.646
-118.15
-84.9214
-60.0288
-41.7357
-28.5437
-19.2051
-12.7138
-8.28208
-5.3094
-3.34984
-2.08012
-1.27126
-0.764621
-0.452605
-0.263663
-0.151147
-0.0852292
-0.0472199
-0.0256483
-0.0136122
-0.00702841
-0.00351393
-0.00169337
-0.000783478
-0.000346977
-0.000146781
-5.92405e-05
-2.28004e-05
-8.3693e-06
-2.9315e-06
-9.80645e-07
-3.13616e-07
-9.59724e-08
-2.81429e-08
-7.94346e-09
-2.18206e-09
-5.96006e-10
-1.33909e-10
-1.53666e-11
-1.09762e-12
5.48809e-12
0
-2.19523e-12
5.48809e-12
2.19523e-12
-4.39047e-12
0
-1.09762e-12
0
7.68332e-12
7.68332e-12
-6.5857e-12
-9.87856e-12
-7.68332e-12
-2.19523e-12
3.29285e-12
7.68332e-12
-2379.22
-2337.42
-2256.03
-2139.25
-1992.95
-1824.15
-1640.46
-1449.53
-1258.53
-1073.73
-900.217
-741.72
-600.625
-478.042
-373.989
-287.618
-217.457
-161.646
-118.15
-84.9214
-60.0288
-41.7357
-28.5437
-19.2051
-12.7138
-8.28208
-5.3094
-3.34984
-2.08012