/*--------------------------------*- C++ -*----------------------------------*\
  =========                 |
  \\      /  F ield         | OpenFOAM: The Open Source CFD Toolbox
   \\    /   O peration     | Website:  https://openfoam.org
    \\  /    A nd           | Version:  10
     \\/     M anipulation  |
\*---------------------------------------------------------------------------*/
FoamFile
{
    format      ascii;
    class       volScalarField;
    location    "186";
    object      gradTz;
}
// * * * * * * * * * * * * * * * * * * * * * * * * * * * * * * * * * * * * * //

dimensions      [0 -1 0 1 0 0 0];

internalField   nonuniform List<scalar> 
11250
(
-14366.7
-4161.69
-1540.5
-735.626
-429.263
-285.714
-206.214
-156.469
-122.498
-97.7806
-78.9476
-64.1158
-52.166
-42.3961
-34.3417
-27.6791
-22.1697
-17.6286
-13.9057
-10.875
-8.42777
-6.46975
-4.9184
-3.70186
-2.75801
-2.0337
-1.48404
-1.0716
-0.765631
-0.541234
-0.378543
-0.261938
-0.17932
-0.121452
-0.0813807
-0.0539484
-0.0353813
-0.0229562
-0.014735
-0.0093564
-0.00587694
-0.00365128
-0.00224361
-0.00136333
-0.000819094
-0.00048648
-0.00028556
-0.000165623
-9.48883e-05
-5.3684e-05
-2.99834e-05
-1.65264e-05
-8.98665e-06
-4.81948e-06
-2.54827e-06
-1.32802e-06
-6.81965e-07
-3.44989e-07
-1.71884e-07
-8.43256e-08
-4.07216e-08
-1.93521e-08
-9.0762e-09
-4.17314e-09
-1.86595e-09
-8.27604e-10
-3.81971e-10
-1.82205e-10
-8.01261e-11
-3.40261e-11
0
-5.48809e-12
-1.09762e-12
6.5857e-12
0
-8303.99
-4900.3
-2804.26
-1707.56
-1124.29
-792.552
-588.495
-453.395
-358.15
-287.507
-233.011
-189.736
-154.668
-125.878
-102.073
-82.3382
-65.9922
-52.5022
-41.4322
-32.4132
-25.1265
-19.2935
-14.6702
-11.0435
-8.22902
-6.06871
-4.42898
-3.19841
-2.28538
-1.61569
-1.1301
-0.782039
-0.535407
-0.362644
-0.243006
-0.161099
-0.105659
-0.0685563
-0.0440061
-0.0279437
-0.0175526
-0.0109056
-0.00670138
-0.00407223
-0.00244671
-0.00145322
-0.000853064
-0.000494795
-0.000283492
-0.000160398
-8.95909e-05
-4.93848e-05
-2.68564e-05
-1.44041e-05
-7.61682e-06
-3.96989e-06
-2.03884e-06
-1.03152e-06
-5.13975e-07
-2.52189e-07
-1.21826e-07
-5.79059e-08
-2.70771e-08
-1.24613e-08
-5.67139e-09
-2.53659e-09
-1.1053e-09
-5.00514e-10
-2.44769e-10
-1.02078e-10
-1.31714e-11
4.39047e-12
0
-8.78094e-12
8.78094e-12
-5641.95
-4328.32
-3065.95
-2163.63
-1565.72
-1170.09
-900.649
-709.756
-568.937
-461.23
-376.362
-307.957
-251.934
-205.588
-167.049
-134.965
-108.308
-86.2545
-68.1235
-53.3302
-41.3644
-31.7768
-24.1717
-18.2023
-13.5673
-10.0081
-7.30559
-5.27679
-3.77111
-2.66645
-1.86532
-1.29097
-0.88393
-0.598766
-0.401266
-0.266038
-0.174497
-0.11323
-0.0726866
-0.0461587
-0.0289959
-0.0180165
-0.0110717
-0.00672836
-0.00404287
-0.00240144
-0.0014098
-0.000817792
-0.000468601
-0.000265162
-0.000148126
-8.16623e-05
-4.44163e-05
-2.38262e-05
-1.26014e-05
-6.56917e-06
-3.37446e-06
-1.70761e-06
-8.51054e-07
-4.17663e-07
-2.01808e-07
-9.59768e-08
-4.49167e-08
-2.06747e-08
-9.38902e-09
-4.19619e-09
-1.83851e-09
-8.10042e-10
-3.69897e-10
-1.844e-10
-5.26856e-11
1.09762e-11
1.09762e-12
-1.09762e-12
-1.09762e-12
-4288.52
-3700.2
-2963.08
-2311.3
-1801.48
-1418.73
-1132.32
-914.868
-746.175
-612.356
-504.09
-415.134
-341.25
-279.493
-227.743
-184.411
-148.249
-118.232
-93.4877
-73.257
-56.8657
-43.7147
-33.2716
-25.0672
-18.6921
-13.7935
-10.072
-7.27701
-5.20188
-3.67893
-2.5741
-1.78182
-1.22021
-0.826678
-0.554075
-0.367393
-0.241003
-0.156401
-0.100409
-0.0637695
-0.0400621
-0.0248947
-0.0152999
-0.00929878
-0.00558792
-0.00331955
-0.00194903
-0.00113074
-0.000648018
-0.000366748
-0.000204912
-0.000112992
-6.14701e-05
-3.29823e-05
-1.74486e-05
-9.09859e-06
-4.67517e-06
-2.36657e-06
-1.17988e-06
-5.79256e-07
-2.79993e-07
-1.33215e-07
-6.23831e-08
-2.87565e-08
-1.30298e-08
-5.8064e-09
-2.55745e-09
-1.12396e-09
-5.00514e-10
-2.26109e-10
-7.13451e-11
-5.48809e-12
-9.87856e-12
0
0
-3516.42
-3214.17
-2768.64
-2311.43
-1905.49
-1567.32
-1292.36
-1069.59
-887.933
-738.261
-613.669
-509.088
-420.827
-346.161
-283.025
-229.792
-185.131
-147.905
-117.121
-91.8858
-71.3981
-54.9329
-41.8401
-31.5424
-23.5331
-17.3739
-12.6916
-9.17297
-6.55926
-4.64022
-3.24752
-2.24848
-1.54009
-1.04359
-0.699572
-0.463939
-0.304378
-0.197554
-0.126845
-0.0805683
-0.0506215
-0.0314599
-0.019337
-0.0117538
-0.00706412
-0.00419709
-0.00246465
-0.00143012
-0.000819747
-0.000464036
-0.00025933
-0.000143036
-7.78371e-05
-4.17771e-05
-2.21087e-05
-1.15328e-05
-5.92823e-06
-3.00209e-06
-1.49736e-06
-7.35444e-07
-3.55658e-07
-1.69293e-07
-7.93138e-08
-3.65737e-08
-1.65971e-08
-7.42758e-09
-3.2709e-09
-1.41593e-09
-6.14666e-10
-2.90869e-10
-1.00981e-10
2.19523e-12
0
-5.48809e-12
5.48809e-12
-3037.75
-2862.92
-2577.97
-2253.29
-1935.77
-1648
-1396.82
-1181.16
-996.934
-839.51
-704.705
-589.064
-489.831
-404.808
-332.207
-270.532
-218.482
-174.899
-138.724
-108.985
-84.7828
-65.2952
-49.7746
-37.5513
-28.0338
-20.7081
-15.1345
-10.9432
-7.82803
-5.53963
-3.87814
-2.68582
-1.8401
-1.24714
-0.836193
-0.554643
-0.363947
-0.236254
-0.151716
-0.0963785
-0.0605633
-0.0376435
-0.023141
-0.014068
-0.00845626
-0.00502505
-0.00295139
-0.00171289
-0.000982054
-0.000556053
-0.000310841
-0.0001715
-9.3358e-05
-5.01259e-05
-2.65375e-05
-1.38488e-05
-7.12201e-06
-3.60837e-06
-1.80066e-06
-8.84878e-07
-4.28148e-07
-2.0392e-07
-9.56102e-08
-4.41341e-08
-2.00425e-08
-8.94339e-09
-3.93167e-09
-1.71448e-09
-7.55161e-10
-3.42457e-10
-1.13055e-10
-8.78094e-12
1.09762e-12
4.39047e-12
3.29285e-12
-2723.33
-2611.57
-2417.56
-2179.58
-1929.18
-1686.45
-1461.7
-1258.82
-1078.22
-918.648
-778.337
-655.44
-548.25
-455.238
-375.027
-306.357
-248.05
-198.991
-158.114
-124.403
-96.8999
-74.7078
-57.0028
-43.0389
-32.153
-23.7654
-17.3783
-12.5715
-8.99662
-6.369
-4.46025
-3.0899
-2.11751
-1.43552
-0.962713
-0.638694
-0.419179
-0.272155
-0.174799
-0.11106
-0.0697996
-0.0433909
-0.0266782
-0.016221
-0.00975209
-0.00579615
-0.00340497
-0.00197658
-0.00113352
-0.000641996
-0.000358996
-0.000198136
-0.000107898
-5.79568e-05
-3.06969e-05
-1.60271e-05
-8.2464e-06
-4.18029e-06
-2.08727e-06
-1.02634e-06
-4.96886e-07
-2.36814e-07
-1.1111e-07
-5.13015e-08
-2.32947e-08
-1.04383e-08
-4.61109e-09
-1.98339e-09
-8.48458e-10
-3.69897e-10
-1.52569e-10
-4.82952e-11
-1.09762e-12
0
5.48809e-12
-2508.44
-2430.71
-2290.16
-2108.56
-1906.69
-1700.4
-1500
-1311.37
-1137.39
-979.116
-836.59
-709.35
-596.677
-497.725
-411.575
-337.261
-273.781
-220.109
-175.213
-138.07
-107.688
-83.1192
-63.4829
-47.9725
-35.8653
-26.5266
-19.4085
-14.0474
-10.0574
-7.12283
-4.98999
-3.45801
-2.37048
-1.60745
-1.07828
-0.715523
-0.469699
-0.305014
-0.195938
-0.124512
-0.078267
-0.0486626
-0.0299244
-0.0181979
-0.0109426
-0.00650502
-0.00382223
-0.00221934
-0.00127308
-0.000721253
-0.00040345
-0.000222753
-0.000121353
-6.52127e-05
-3.45565e-05
-1.80515e-05
-9.2931e-06
-4.71363e-06
-2.355e-06
-1.1587e-06
-5.6134e-07
-2.67733e-07
-1.25685e-07
-5.80574e-08
-2.63933e-08
-1.18257e-08
-5.22246e-09
-2.26109e-09
-9.60415e-10
-4.05021e-10
-1.86595e-10
-8.01261e-11
-1.31714e-11
4.39047e-12
1.09762e-11
-2357.52
-2299.44
-2191.52
-2046.86
-1879.38
-1701.12
-1521.25
-1346.08
-1179.68
-1024.49
-881.844
-752.339
-636.09
-532.873
-442.214
-363.452
-295.785
-238.306
-190.042
-149.988
-117.138
-90.5177
-69.2026
-52.3403
-39.1608
-28.9835
-21.2188
-15.3658
-11.0065
-7.79832
-5.46529
-3.78869
-2.59797
-1.76221
-1.1824
-0.784799
-0.515286
-0.334685
-0.215039
-0.136675
-0.0859271
-0.0534344
-0.0328644
-0.0199894
-0.0120221
-0.00714822
-0.00420111
-0.00243994
-0.00140001
-0.000793412
-0.000443967
-0.000245217
-0.000133647
-7.18522e-05
-3.80937e-05
-1.99099e-05
-1.02556e-05
-5.20498e-06
-2.60213e-06
-1.28114e-06
-6.21096e-07
-2.96456e-07
-1.39278e-07
-6.43895e-08
-2.92877e-08
-1.31056e-08
-5.79323e-09
-2.52452e-09
-1.07567e-09
-4.73073e-10
-1.92083e-10
-5.70761e-11
-9.87856e-12
-1.09762e-12
0
-2249.56
-2203.4
-2116.07
-1995.94
-1852.65
-1695.4
-1531.97
-1368.48
-1209.44
-1058.05
-916.473
-786.085
-667.654
-561.477
-467.479
-385.287
-314.298
-253.735
-202.699
-160.217
-125.29
-96.9259
-74.175
-56.1497
-42.0431
-31.1377
-22.8097
-16.5267
-11.8437
-8.39512
-5.88583
-4.08166
-2.79976
-1.89963
-1.27494
-0.846426
-0.555874
-0.361121
-0.23207
-0.147526
-0.0927656
-0.057697
-0.0354923
-0.0215916
-0.0129882
-0.00772424
-0.00454067
-0.00263781
-0.00151397
-0.00085826
-0.00048042
-0.000265453
-0.000144737
-7.78504e-05
-4.12944e-05
-2.15943e-05
-1.11297e-05
-5.65198e-06
-2.82739e-06
-1.39297e-06
-6.75765e-07
-3.22756e-07
-1.51769e-07
-7.02453e-08
-3.19703e-08
-1.42954e-08
-6.31459e-09
-2.76929e-09
-1.1964e-09
-5.00514e-10
-1.83302e-10
-7.4638e-11
-3.29285e-11
0
0
-2171.36
-2132.74
-2058.77
-1955.14
-1828.86
-1687.1
-1536.47
-1382.62
-1230.13
-1082.58
-942.642
-812.222
-692.576
-584.417
-488.002
-403.216
-329.638
-266.619
-213.338
-168.865
-132.215
-102.394
-78.4344
-59.4239
-44.5277
-32.9997
-24.1879
-17.5345
-12.5719
-8.91512
-6.25282
-4.33767
-2.97631
-2.02
-1.35609
-0.900519
-0.59153
-0.384364
-0.247054
-0.15708
-0.0987905
-0.0614548
-0.0378104
-0.0230059
-0.0138415
-0.00823337
-0.00484102
-0.00281298
-0.00161494
-0.000915779
-0.000512789
-0.000283444
-0.000154611
-8.31983e-05
-4.41527e-05
-2.31012e-05
-1.19129e-05
-6.05333e-06
-3.03006e-06
-1.49379e-06
-7.25154e-07
-3.46588e-07
-1.63081e-07
-7.55194e-08
-3.44059e-08
-1.54281e-08
-6.8162e-09
-2.96906e-09
-1.27433e-09
-5.32344e-10
-2.22816e-10
-9.65903e-11
-1.86595e-11
5.48809e-12
0
-2114.28
-2080.57
-2015.44
-1923.06
-1808.77
-1678.35
-1537.47
-1391.31
-1244.36
-1100.34
-962.207
-832.228
-712.005
-602.569
-504.444
-417.73
-342.168
-277.223
-222.152
-176.07
-138.015
-106.994
-82.0311
-62.1981
-46.6395
-34.5866
-25.3654
-18.3975
-13.1967
-9.36202
-6.56872
-4.55837
-3.12872
-2.12404
-1.4263
-0.947368
-0.62244
-0.40453
-0.260065
-0.165382
-0.104029
-0.0647244
-0.0398286
-0.024238
-0.0145854
-0.00867748
-0.0051032
-0.002966
-0.00170323
-0.000966119
-0.000541149
-0.000299226
-0.000163283
-8.79026e-05
-4.66708e-05
-2.44309e-05
-1.26054e-05
-6.40882e-06
-3.2099e-06
-1.58342e-06
-7.69146e-07
-3.67858e-07
-1.73206e-07
-8.02534e-08
-3.66154e-08
-1.64577e-08
-7.26184e-09
-3.14687e-09
-1.35117e-09
-5.75152e-10
-2.41476e-10
-9.43951e-11
-2.74404e-11
-3.29285e-12
5.48809e-12
-2072.43
-2041.97
-1982.81
-1898.18
-1792.35
-1670.18
-1536.64
-1396.49
-1254.05
-1113.08
-976.7
-847.382
-726.981
-616.759
-517.45
-429.325
-352.263
-285.831
-229.353
-181.991
-142.805
-110.809
-85.026
-64.5163
-48.4095
-35.9204
-26.3575
-19.1262
-13.7254
-9.74091
-6.83701
-4.74609
-3.25853
-2.21277
-1.48625
-0.987411
-0.648884
-0.421799
-0.271216
-0.172502
-0.108525
-0.0675321
-0.0415627
-0.0252972
-0.0152253
-0.00905977
-0.00532904
-0.00309791
-0.00177939
-0.00100959
-0.000565662
-0.000312882
-0.000170796
-9.19837e-05
-4.88586e-05
-2.5588e-05
-1.32089e-05
-6.71919e-06
-3.36721e-06
-1.66197e-06
-8.07796e-07
-3.86566e-07
-1.82118e-07
-8.44748e-08
-3.85593e-08
-1.73204e-08
-7.66027e-09
-3.32359e-09
-1.41373e-09
-6.24544e-10
-2.74404e-10
-8.78094e-11
-1.75619e-11
1.09762e-12
-1.09762e-12
-2041.68
-2013.43
-1958.34
-1879.08
-1779.26
-1663.07
-1535
-1399.45
-1260.6
-1122.17
-987.347
-858.755
-738.403
-627.726
-527.614
-438.474
-360.295
-292.727
-235.159
-186.791
-146.707
-113.931
-87.4861
-66.4271
-49.8732
-37.0264
-27.1823
-19.7335
-14.1668
-10.0579
-7.06184
-4.90365
-3.36764
-2.28744
-1.53676
-1.02119
-0.671215
-0.436393
-0.280647
-0.178528
-0.112333
-0.0699118
-0.0430334
-0.0261961
-0.0157686
-0.00938451
-0.00552099
-0.0032101
-0.00184422
-0.00104661
-0.000586559
-0.000324535
-0.000177214
-9.54741e-05
-5.07322e-05
-2.65803e-05
-1.37273e-05
-6.9862e-06
-3.50277e-06
-1.72978e-06
-8.41188e-07
-4.02773e-07
-1.89863e-07
-8.81014e-08
-4.02277e-08
-1.80865e-08
-8.03456e-09
-3.49372e-09
-1.48617e-09
-6.65156e-10
-2.93064e-10
-9.21999e-11
-1.09762e-12
1.31714e-11
-3.29285e-12
-2019.09
-1992.35
-1940.07
-1864.56
-1768.99
-1657.13
-1533.1
-1401.04
-1264.98
-1128.6
-995.112
-867.215
-747.032
-636.114
-535.47
-445.608
-366.606
-298.184
-239.781
-190.633
-149.844
-116.452
-89.4805
-67.9815
-51.0675
-37.9314
-27.859
-20.2328
-14.5306
-10.3196
-7.24779
-5.03417
-3.45816
-2.34948
-1.57878
-1.04932
-0.689827
-0.448569
-0.288522
-0.183564
-0.115518
-0.0719027
-0.0442644
-0.0269488
-0.0162237
-0.00965671
-0.00568196
-0.00330422
-0.00189863
-0.00107771
-0.000604124
-0.000334338
-0.000182619
-9.84161e-05
-5.23132e-05
-2.74187e-05
-1.41659e-05
-7.21237e-06
-3.61775e-06
-1.78742e-06
-8.69651e-07
-4.16584e-07
-1.96448e-07
-9.12109e-08
-4.16996e-08
-1.87791e-08
-8.3386e-09
-3.63421e-09
-1.56301e-09
-6.86011e-10
-2.67819e-10
-6.91499e-11
-1.53666e-11
1.09762e-12
-1.09762e-12
-2002.52
-1976.82
-1926.49
-1853.61
-1761.06
-1652.33
-1531.25
-1401.81
-1267.89
-1133.13
-1000.73
-873.458
-753.49
-642.466
-541.475
-451.108
-371.508
-302.45
-243.415
-193.669
-152.335
-118.462
-91.0764
-69.2296
-52.0294
-38.6624
-28.4069
-20.6381
-14.8265
-10.5329
-7.3996
-5.14091
-3.53229
-2.40035
-1.61328
-1.07244
-0.705142
-0.458597
-0.295012
-0.187717
-0.118145
-0.0735467
-0.0452813
-0.0275709
-0.0166001
-0.00988183
-0.00581513
-0.00338212
-0.00194369
-0.00110347
-0.000618681
-0.000342467
-0.000187103
-0.000100859
-5.36273e-05
-2.81162e-05
-1.45311e-05
-7.40096e-06
-3.71374e-06
-1.83557e-06
-8.93462e-07
-4.28193e-07
-2.02024e-07
-9.38167e-08
-4.28971e-08
-1.93389e-08
-8.59654e-09
-3.75166e-09
-1.6102e-09
-6.98085e-10
-2.89771e-10
-9.11023e-11
-3.29285e-12
0
-8.78094e-12
-1990.4
-1965.42
-1916.46
-1845.42
-1755.02
-1648.52
-1529.61
-1402.11
-1269.81
-1136.29
-1004.78
-878.029
-758.282
-647.228
-546.02
-455.302
-375.272
-305.746
-246.238
-196.039
-154.289
-120.044
-92.3375
-70.2192
-52.7944
-39.2453
-28.845
-20.9628
-15.0641
-10.7044
-7.52195
-5.22707
-3.59223
-2.44154
-1.64124
-1.0912
-0.717583
-0.46675
-0.300294
-0.1911
-0.120287
-0.0748868
-0.0461107
-0.0280783
-0.0169071
-0.0100656
-0.00592383
-0.00344572
-0.00198047
-0.0011245
-0.000630573
-0.00034911
-0.000190769
-0.000102858
-5.47027e-05
-2.86874e-05
-1.48305e-05
-7.55569e-06
-3.7926e-06
-1.87518e-06
-9.13043e-07
-4.3773e-07
-2.06613e-07
-9.60009e-08
-4.39036e-08
-1.97933e-08
-8.80838e-09
-3.84166e-09
-1.64094e-09
-7.17842e-10
-2.94161e-10
-1.00981e-10
-1.97571e-11
8.78094e-12
-7.68332e-12
-1981.58
-1957.1
-1909.08
-1839.35
-1750.46
-1645.57
-1528.22
-1402.14
-1271.06
-1138.49
-1007.67
-881.35
-761.806
-650.767
-549.425
-458.468
-378.131
-308.263
-248.406
-197.867
-155.802
-121.275
-93.3218
-70.994
-53.3951
-39.7043
-29.1908
-21.2198
-15.2525
-10.8408
-7.61933
-5.29576
-3.64008
-2.47447
-1.66363
-1.10624
-0.727563
-0.473296
-0.304538
-0.193819
-0.122009
-0.0759652
-0.0467782
-0.0284869
-0.0171544
-0.0102135
-0.00601136
-0.00349692
-0.00201009
-0.00114144
-0.000640146
-0.000354458
-0.000193721
-0.000104467
-5.55691e-05
-2.91478e-05
-1.50719e-05
-7.68056e-06
-3.85627e-06
-1.90717e-06
-9.28882e-07
-4.45442e-07
-2.1032e-07
-9.77571e-08
-4.47312e-08
-2.01654e-08
-8.95985e-09
-3.91849e-09
-1.69692e-09
-7.47478e-10
-2.78795e-10
-9.11023e-11
-3.40261e-11
4.39047e-12
-1.09762e-12
-1975.18
-1951.05
-1903.69
-1834.87
-1747.06
-1643.31
-1527.09
-1402.05
-1271.86
-1140.02
-1009.72
-883.745
-764.378
-653.372
-551.951
-460.832
-380.279
-310.165
-250.051
-199.262
-156.961
-122.221
-94.0807
-71.5933
-53.8611
-40.0613
-29.4604
-21.4205
-15.4
-10.9477
-7.69585
-5.34983
-3.6778
-2.50046
-1.68132
-1.11813
-0.735468
-0.478485
-0.307904
-0.195977
-0.123377
-0.0768219
-0.0473087
-0.0288116
-0.0173508
-0.010331
-0.00608089
-0.00353758
-0.00203361
-0.00115488
-0.000647742
-0.0003587
-0.000196062
-0.000105743
-5.6256e-05
-2.95129e-05
-1.52633e-05
-7.77958e-06
-3.90679e-06
-1.93256e-06
-9.41477e-07
-4.51606e-07
-2.13258e-07
-9.91434e-08
-4.53788e-08
-2.04486e-08
-9.08169e-09
-3.98764e-09
-1.73094e-09
-7.36501e-10
-2.97454e-10
-1.13055e-10
-3.84166e-11
-2.19523e-12
3.29285e-12
-1970.56
-1946.68
-1899.79
-1831.6
-1744.54
-1641.61
-1526.2
-1401.91
-1272.38
-1141.07
-1011.17
-885.46
-766.238
-655.272
-553.807
-462.581
-381.877
-311.587
-251.287
-200.313
-157.838
-122.939
-94.659
-72.0513
-54.2182
-40.3356
-29.668
-21.5755
-15.514
-11.0306
-7.75526
-5.39186
-3.70718
-2.52073
-1.69513
-1.12743
-0.741651
-0.482548
-0.310542
-0.197669
-0.124449
-0.0774939
-0.0477247
-0.0290662
-0.0175049
-0.0104232
-0.00613537
-0.00356943
-0.00205201
-0.0011654
-0.00065368
-0.000362015
-0.00019789
-0.000106739
-5.6792e-05
-2.97976e-05
-1.54126e-05
-7.85681e-06
-3.9462e-06
-1.95239e-06
-9.51307e-07
-4.56395e-07
-2.1555e-07
-1.00234e-07
-4.58903e-08
-2.0678e-08
-9.19035e-09
-4.00301e-09
-1.72655e-09
-7.49673e-10
-3.3148e-10
-1.29519e-10
-1.4269e-11
0
1.09762e-12
-1967.26
-1943.54
-1896.97
-1829.23
-1742.7
-1640.35
-1525.51
-1401.76
-1272.7
-1141.78
-1012.18
-886.679
-767.573
-656.647
-555.158
-463.861
-383.052
-312.638
-252.204
-201.097
-158.494
-123.478
-95.0946
-72.3972
-54.4887
-40.5438
-29.826
-21.6937
-15.6012
-11.094
-7.80081
-5.42415
-3.72977
-2.53634
-1.70578
-1.13461
-0.746429
-0.48569
-0.312583
-0.198979
-0.12528
-0.0780143
-0.048047
-0.0292634
-0.0176241
-0.0104945
-0.00617749
-0.00359404
-0.00206622
-0.00117351
-0.000658255
-0.000364566
-0.000199296
-0.000107504
-5.72034e-05
-3.0016e-05
-1.5527e-05
-7.91598e-06
-3.97636e-06
-1.96756e-06
-9.58825e-07
-4.60083e-07
-2.17313e-07
-1.01061e-07
-4.6281e-08
-2.08558e-08
-9.25072e-09
-4.04253e-09
-1.7518e-09
-7.65039e-10
-3.41359e-10
-1.09762e-10
-1.97571e-11
-7.68332e-12
8.78094e-12
-1964.9
-1941.3
-1894.96
-1827.53
-1741.37
-1639.42
-1524.99
-1401.62
-1272.9
-1142.27
-1012.89
-887.538
-768.523
-657.632
-556.133
-464.789
-383.909
-313.407
-252.878
-201.674
-158.979
-123.879
-95.4188
-72.6555
-54.6911
-40.7001
-29.9448
-21.7827
-15.667
-11.142
-7.83532
-5.44865
-3.74693
-2.54821
-1.7139
-1.14008
-0.750075
-0.488089
-0.314142
-0.19998
-0.125915
-0.0784123
-0.0482933
-0.0294141
-0.0177153
-0.0105489
-0.00620962
-0.00361279
-0.00207703
-0.00117967
-0.000661729
-0.0003665
-0.00020036
-0.000108083
-5.75142e-05
-3.01808e-05
-1.56133e-05
-7.96052e-06
-3.99906e-06
-1.97897e-06
-9.64457e-07
-4.62825e-07
-2.1867e-07
-1.01699e-07
-4.655e-08
-2.09612e-08
-9.28255e-09
-4.06118e-09
-1.77814e-09
-7.86992e-10
-3.32578e-10
-1.1964e-10
-3.62214e-11
1.09762e-12
2.19524e-12
-1963.24
-1939.72
-1893.53
-1826.31
-1740.41
-1638.74
-1524.6
-1401.51
-1273.03
-1142.6
-1013.38
-888.139
-769.193
-658.332
-556.829
-465.456
-384.527
-313.964
-253.368
-202.096
-159.335
-124.173
-95.6575
-72.8461
-54.8408
-40.8159
-30.033
-21.849
-15.7161
-11.1778
-7.86115
-5.46701
-3.75982
-2.55714
-1.72
-1.14421
-0.752824
-0.4899
-0.315319
-0.200736
-0.126395
-0.0787128
-0.0484794
-0.0295279
-0.017784
-0.0105899
-0.00623381
-0.00362688
-0.00208515
-0.00118429
-0.000664328
-0.000367945
-0.000201154
-0.000108514
-5.77452e-05
-3.03031e-05
-1.56772e-05
-7.99349e-06
-4.01582e-06
-1.98737e-06
-9.68631e-07
-4.64865e-07
-2.19631e-07
-1.02157e-07
-4.67618e-08
-2.10369e-08
-9.33524e-09
-4.09411e-09
-1.77704e-09
-7.65039e-10
-3.227e-10
-1.40495e-10
-4.28071e-11
-1.20738e-11
1.20738e-11
-1962.07
-1938.61
-1892.52
-1825.45
-1739.73
-1638.26
-1524.31
-1401.41
-1273.1
-1142.82
-1013.71
-888.557
-769.663
-658.826
-557.322
-465.93
-384.968
-314.363
-253.721
-202.4
-159.592
-124.386
-95.8312
-72.9851
-54.9503
-40.9008
-30.0979
-21.8978
-15.7523
-11.2043
-7.88025
-5.48062
-3.76938
-2.56377
-1.72454
-1.14727
-0.754872
-0.491249
-0.316197
-0.2013
-0.126752
-0.078937
-0.0486181
-0.0296126
-0.0178351
-0.0106204
-0.00625177
-0.00363733
-0.00209116
-0.00118771
-0.000666245
-0.000369009
-0.000201737
-0.00010883
-5.79141e-05
-3.03923e-05
-1.57237e-05
-8.01746e-06
-4.02801e-06
-1.99346e-06
-9.71643e-07
-4.66354e-07
-2.20357e-07
-1.02478e-07
-4.68891e-08
-2.11423e-08
-9.40109e-09
-4.09082e-09
-1.7496e-09
-7.70527e-10
-3.4575e-10
-1.28421e-10
-3.18309e-11
-1.09762e-12
2.19524e-12
-1961.26
-1937.83
-1891.82
-1824.85
-1739.25
-1637.91
-1524.1
-1401.33
-1273.15
-1142.96
-1013.94
-888.845
-769.989
-659.17
-557.668
-466.263
-385.28
-314.647
-253.972
-202.617
-159.776
-124.539
-95.9562
-73.0855
-55.0295
-40.9623
-30.1449
-21.9333
-15.7787
-11.2236
-7.89422
-5.49058
-3.77639
-2.56864
-1.72788
-1.14953
-0.756379
-0.492243
-0.316844
-0.201716
-0.127016
-0.0791022
-0.0487202
-0.029675
-0.0178727
-0.0106428
-0.00626494
-0.00364498
-0.00209555
-0.0011902
-0.00066764
-0.00036978
-0.000202159
-0.000109058
-5.80358e-05
-3.04565e-05
-1.57571e-05
-8.03461e-06
-4.0367e-06
-1.99781e-06
-9.73777e-07
-4.67383e-07
-2.20834e-07
-1.02688e-07
-4.70241e-08
-2.12115e-08
-9.41317e-09
-4.10948e-09
-1.77375e-09
-7.70527e-10
-3.35871e-10
-1.25128e-10
-2.08547e-11
1.09762e-12
-2.19524e-12
-1960.7
-1937.3
-1891.33
-1824.43
-1738.92
-1637.67
-1523.96
-1401.28
-1273.17
-1143.06
-1014.09
-889.041
-770.213
-659.408
-557.908
-466.496
-385.498
-314.846
-254.148
-202.771
-159.906
-124.648
-96.0452
-73.157
-55.0861
-41.0064
-30.1787
-21.9588
-15.7977
-11.2376
-7.90431
-5.49778
-3.78147
-2.57217
-1.7303
-1.15117
-0.757476
-0.492966
-0.317315
-0.202019
-0.127208
-0.0792224
-0.0487945
-0.0297203
-0.0179
-0.010659
-0.00627447
-0.00365051
-0.00209871
-0.00119199
-0.000668639
-0.000370332
-0.00020246
-0.00010922
-5.81221e-05
-3.05018e-05
-1.57806e-05
-8.04667e-06
-4.0428e-06
-2.00086e-06
-9.75289e-07
-4.68101e-07
-2.21181e-07
-1.02881e-07
-4.70977e-08
-2.12191e-08
-9.41646e-09
-4.11168e-09
-1.78363e-09
-7.68332e-10
-3.15016e-10
-1.30616e-10
-4.71976e-11
-8.78094e-12
5.48809e-12
-1960.31
-1936.93
-1891
-1824.15
-1738.69
-1637.5
-1523.85
-1401.24
-1273.19
-1143.12
-1014.2
-889.175
-770.366
-659.571
-558.074
-466.657
-385.65
-314.984
-254.272
-202.878
-159.998
-124.724
-96.1078
-73.2075
-55.1262
-41.0376
-30.2027
-21.9769
-15.8112
-11.2475
-7.91152
-5.50294
-3.7851
-2.5747
-1.73204
-1.15235
-0.758263
-0.493486
-0.317654
-0.202236
-0.127346
-0.0793089
-0.0488479
-0.0297529
-0.0179196
-0.0106706
-0.00628128
-0.00365445
-0.00210096
-0.00119326
-0.000669347
-0.000370722
-0.000202672
-0.000109333
-5.81824e-05
-3.05334e-05
-1.5797e-05
-8.055e-06
-4.04701e-06
-2.00295e-06
-9.76312e-07
-4.68601e-07
-2.21436e-07
-1.02995e-07
-4.71328e-08
-2.12499e-08
-9.42085e-09
-4.08972e-09
-1.78582e-09
-8.01261e-10
-3.227e-10
-1.22933e-10
-5.37833e-11
3.29285e-12
1.31714e-11
-1960.05
-1936.68
-1890.77
-1823.95
-1738.53
-1637.38
-1523.78
-1401.2
-1273.2
-1143.17
-1014.27
-889.265
-770.469
-659.682
-558.187
-466.768
-385.754
-315.079
-254.357
-202.952
-160.061
-124.777
-96.1515
-73.2428
-55.1541
-41.0595
-30.2195
-21.9897
-15.8207
-11.2545
-7.91661
-5.50658
-3.78767
-2.57649
-1.73327
-1.15318
-0.758823
-0.493856
-0.317895
-0.202391
-0.127444
-0.0793703
-0.0488858
-0.029776
-0.0179335
-0.0106789
-0.00628609
-0.00365722
-0.00210254
-0.00119414
-0.000669841
-0.000370992
-0.000202818
-0.000109412
-5.82238e-05
-3.0555e-05
-1.58081e-05
-8.06067e-06
-4.04985e-06
-2.00437e-06
-9.76997e-07
-4.68944e-07
-2.21596e-07
-1.03051e-07
-4.71591e-08
-2.12674e-08
-9.43402e-09
-4.09521e-09
-1.78473e-09
-7.95773e-10
-3.34773e-10
-1.17445e-10
-2.305e-11
8.78094e-12
-8.78094e-12
-1959.88
-1936.51
-1890.62
-1823.82
-1738.42
-1637.31
-1523.73
-1401.18
-1273.2
-1143.19
-1014.31
-889.325
-770.539
-659.757
-558.263
-466.842
-385.824
-315.144
-254.415
-203.003
-160.105
-124.814
-96.1815
-73.2671
-55.1735
-41.0746
-30.2312
-21.9986
-15.8273
-11.2594
-7.92016
-5.50912
-3.78947
-2.57775
-1.73413
-1.15377
-0.759216
-0.494115
-0.318064
-0.2025
-0.127513
-0.0794134
-0.0489124
-0.0297921
-0.0179432
-0.0106846
-0.00628944
-0.00365915
-0.00210364
-0.00119476
-0.000670181
-0.000371179
-0.000202919
-0.000109465
-5.8252e-05
-3.05697e-05
-1.58157e-05
-8.06449e-06
-4.05176e-06
-2.00531e-06
-9.77442e-07
-4.69139e-07
-2.21673e-07
-1.03096e-07
-4.72173e-08
-2.12828e-08
-9.41975e-09
-4.08533e-09
-1.77704e-09
-8.06749e-10
-3.66604e-10
-1.18543e-10
-6.5857e-12
2.19523e-12
2.19523e-12
-1959.76
-1936.4
-1890.52
-1823.73
-1738.35
-1637.25
-1523.69
-1401.17
-1273.2
-1143.21
-1014.34
-889.364
-770.585
-659.807
-558.314
-466.892
-385.872
-315.188
-254.454
-203.038
-160.134
-124.838
-96.202
-73.2837
-55.1867
-41.085
-30.2392
-22.0046
-15.8319
-11.2628
-7.9226
-5.51088
-3.79072
-2.57861
-1.73473
-1.15418
-0.759488
-0.494295
-0.318181
-0.202576
-0.127561
-0.0794433
-0.0489309
-0.0298033
-0.0179499
-0.0106886
-0.00629175
-0.00366048
-0.00210439
-0.00119518
-0.000670413
-0.000371305
-0.000202987
-0.000109501
-5.82708e-05
-3.05794e-05
-1.58207e-05
-8.06701e-06
-4.05302e-06
-2.00593e-06
-9.77731e-07
-4.69266e-07
-2.21733e-07
-1.03131e-07
-4.72305e-08
-2.12971e-08
-9.41207e-09
-4.08094e-09
-1.78473e-09
-8.08944e-10
-3.56726e-10
-1.05371e-10
-9.87856e-12
-1.09762e-12
0
-1959.68
-1936.32
-1890.45
-1823.67
-1738.3
-1637.22
-1523.67
-1401.16
-1273.2
-1143.22
-1014.36
-889.39
-770.615
-659.84
-558.348
-466.926
-385.903
-315.217
-254.48
-203.061
-160.154
-124.855
-96.2158
-73.2949
-55.1957
-41.092
-30.2446
-22.0088
-15.835
-11.265
-7.92427
-5.51208
-3.79157
-2.57921
-1.73514
-1.15446
-0.759675
-0.494419
-0.318262
-0.202627
-0.127594
-0.0794638
-0.0489435
-0.029811
-0.0179545
-0.0106913
-0.00629332
-0.00366138
-0.0021049
-0.00119546
-0.000670569
-0.000371389
-0.000203032
-0.000109525
-5.82833e-05
-3.05859e-05
-1.58239e-05
-8.06866e-06
-4.05382e-06
-2.00634e-06
-9.77935e-07
-4.69347e-07
-2.21754e-07
-1.03149e-07
-4.72469e-08
-2.1296e-08
-9.42853e-09
-4.1018e-09
-1.75399e-09
-7.63942e-10
-3.32578e-10
-1.14152e-10
-4.17095e-11
-1.31714e-11
-2.19524e-12
-1959.63
-1936.28
-1890.4
-1823.63
-1738.27
-1637.19
-1523.66
-1401.15
-1273.2
-1143.23
-1014.37
-889.407
-770.635
-659.861
-558.37
-466.948
-385.924
-315.237
-254.498
-203.076
-160.167
-124.866
-96.225
-73.3024
-55.2016
-41.0967
-30.2483
-22.0115
-15.8371
-11.2666
-7.9254
-5.51289
-3.79214
-2.57961
-1.73542
-1.15465
-0.759802
-0.494503
-0.318317
-0.202662
-0.127616
-0.0794777
-0.0489521
-0.0298162
-0.0179576
-0.0106931
-0.00629438
-0.00366198
-0.00210524
-0.00119565
-0.000670672
-0.000371445
-0.000203062
-0.000109541
-5.82914e-05
-3.059e-05
-1.58261e-05
-8.06973e-06
-4.05435e-06
-2.00657e-06
-9.78046e-07
-4.69419e-07
-2.21807e-07
-1.03151e-07
-4.72469e-08
-2.13026e-08
-9.41646e-09
-4.09082e-09
-1.76168e-09
-7.67235e-10
-3.43554e-10
-1.383e-10
-2.19523e-11
1.53666e-11
-6.5857e-12
-1959.6
-1936.24
-1890.37
-1823.61
-1738.25
-1637.18
-1523.65
-1401.14
-1273.2
-1143.23
-1014.38
-889.418
-770.648
-659.875
-558.385
-466.962
-385.938
-315.249
-254.509
-203.086
-160.176
-124.874
-96.2311
-73.3073
-55.2056
-41.0998
-30.2507
-22.0134
-15.8385
-11.2676
-7.92615
-5.51343
-3.79253
-2.57988
-1.7356
-1.15477
-0.759887
-0.494559
-0.318353
-0.202686
-0.127631
-0.079487
-0.0489578
-0.0298197
-0.0179596
-0.0106943
-0.00629508
-0.00366238
-0.00210547
-0.00119578
-0.00067074
-0.000371482
-0.000203081
-0.000109551
-5.82967e-05
-3.05927e-05
-1.58274e-05
-8.07039e-06
-4.05467e-06
-2.00674e-06
-9.78141e-07
-4.69465e-07
-2.21843e-07
-1.03182e-07
-4.72371e-08
-2.12872e-08
-9.40987e-09
-4.07655e-09
-1.76716e-09
-7.86992e-10
-3.41359e-10
-1.20738e-10
-2.305e-11
6.5857e-12
4.39047e-12
-1959.58
-1936.22
-1890.35
-1823.59
-1738.24
-1637.17
-1523.64
-1401.14
-1273.2
-1143.24
-1014.39
-889.425
-770.656
-659.885
-558.394
-466.971
-385.947
-315.257
-254.517
-203.093
-160.182
-124.878
-96.2351
-73.3106
-55.2082
-41.1019
-30.2523
-22.0146
-15.8394
-11.2683
-7.92664
-5.51379
-3.79278
-2.58006
-1.73573
-1.15486
-0.759943
-0.494596
-0.318377
-0.202702
-0.127641
-0.0794932
-0.0489616
-0.0298219
-0.017961
-0.0106951
-0.00629554
-0.00366265
-0.00210561
-0.00119586
-0.000670784
-0.000371505
-0.000203093
-0.000109558
-5.83e-05
-3.05944e-05
-1.58282e-05
-8.07078e-06
-4.05486e-06
-2.00684e-06
-9.78184e-07
-4.69498e-07
-2.21868e-07
-1.03183e-07
-4.72294e-08
-2.12949e-08
-9.41866e-09
-4.08643e-09
-1.76387e-09
-7.79308e-10
-3.42457e-10
-1.20738e-10
-2.52452e-11
-2.19523e-12
0
-1959.56
-1936.21
-1890.34
-1823.58
-1738.23
-1637.16
-1523.64
-1401.14
-1273.2
-1143.24
-1014.39
-889.429
-770.662
-659.89
-558.4
-466.977
-385.953
-315.263
-254.521
-203.097
-160.185
-124.882
-96.2376
-73.3126
-55.2099
-41.1032
-30.2533
-22.0154
-15.84
-11.2687
-7.92696
-5.51402
-3.79294
-2.58017
-1.73581
-1.15491
-0.759979
-0.49462
-0.318393
-0.202712
-0.127648
-0.0794972
-0.048964
-0.0298234
-0.0179619
-0.0106956
-0.00629584
-0.00366282
-0.00210571
-0.00119591
-0.000670812
-0.00037152
-0.000203101
-0.000109562
-5.83022e-05
-3.05955e-05
-1.58287e-05
-8.07104e-06
-4.05501e-06
-2.0069e-06
-9.78216e-07
-4.69512e-07
-2.21863e-07
-1.03186e-07
-4.72272e-08
-2.12883e-08
-9.41756e-09
-4.09411e-09
-1.76607e-09
-7.58454e-10
-3.16114e-10
-1.40495e-10
-5.26856e-11
-1.09762e-12
1.09762e-12
-1959.55
-1936.2
-1890.34
-1823.57
-1738.22
-1637.16
-1523.63
-1401.14
-1273.2
-1143.24
-1014.39
-889.432
-770.665
-659.894
-558.404
-466.981
-385.956
-315.266
-254.524
-203.099
-160.188
-124.883
-96.2392
-73.314
-55.2109
-41.104
-30.254
-22.0159
-15.8403
-11.269
-7.92717
-5.51417
-3.79305
-2.58025
-1.73586
-1.15495
-0.760003
-0.494636
-0.318404
-0.202718
-0.127652
-0.0794998
-0.0489656
-0.0298244
-0.0179625
-0.010696
-0.00629603
-0.00366293
-0.00210577
-0.00119594
-0.00067083
-0.00037153
-0.000203106
-0.000109564
-5.83035e-05
-3.05961e-05
-1.58291e-05
-8.07122e-06
-4.05509e-06
-2.00693e-06
-9.78216e-07
-4.69503e-07
-2.21869e-07
-1.0322e-07
-4.72469e-08
-2.12619e-08
-9.42305e-09
-4.11277e-09
-1.77046e-09
-7.7382e-10
-3.16114e-10
-1.24031e-10
-5.26856e-11
0
3.29285e-12
-1959.55
-1936.2
-1890.33
-1823.57
-1738.22
-1637.15
-1523.63
-1401.14
-1273.2
-1143.24
-1014.39
-889.434
-770.667
-659.896
-558.406
-466.983
-385.958
-315.268
-254.526
-203.101
-160.189
-124.885
-96.2403
-73.3148
-55.2116
-41.1046
-30.2544
-22.0162
-15.8406
-11.2692
-7.9273
-5.51426
-3.79312
-2.58029
-1.73589
-1.15497
-0.760018
-0.494646
-0.31841
-0.202723
-0.127654
-0.0795015
-0.0489667
-0.029825
-0.0179628
-0.0106962
-0.00629616
-0.00366299
-0.00210581
-0.00119596
-0.000670842
-0.000371536
-0.00020311
-0.000109566
-5.83043e-05
-3.05965e-05
-1.58293e-05
-8.07131e-06
-4.05514e-06
-2.00697e-06
-9.78243e-07
-4.69509e-07
-2.21865e-07
-1.0321e-07
-4.72513e-08
-2.12773e-08
-9.4e-09
-4.08972e-09
-1.77704e-09
-7.9248e-10
-3.25992e-10
-1.21836e-10
-5.70761e-11
0
7.68332e-12
-1959.55
-1936.19
-1890.33
-1823.57
-1738.22
-1637.15
-1523.63
-1401.14
-1273.2
-1143.24