/*--------------------------------*- C++ -*----------------------------------*\
  =========                 |
  \\      /  F ield         | OpenFOAM: The Open Source CFD Toolbox
   \\    /   O peration     | Website:  https://openfoam.org
    \\  /    A nd           | Version:  10
     \\/     M anipulation  |
\*---------------------------------------------------------------------------*/
FoamFile
{
    format      ascii;
    class       volScalarField;
    location    "186";
    object      T;
}
// * * * * * * * * * * * * * * * * * * * * * * * * * * * * * * * * * * * * * //

dimensions      [0 0 0 1 0 0 0];

internalField   nonuniform List<scalar> 
11250
(
249.714
167.175
138.735
126.095
119.119
114.648
111.5
109.149
107.327
105.882
104.72
103.777
103.01
102.386
101.879
101.47
101.141
100.879
100.671
100.508
100.381
100.283
100.209
100.152
100.11
100.079
100.056
100.039
100.027
100.019
100.013
100.009
100.006
100.004
100.002
100.002
100.001
100.001
100
100
100
100
100
100
100
100
100
100
100
100
100
100
100
100
100
100
100
100
100
100
100
100
100
100
100
100
100
100
100
100
100
100
100
100
100
331.115
247.445
200.44
172.665
154.906
142.684
133.771
126.991
121.68
117.44
114.014
111.226
108.954
107.102
105.597
104.38
103.401
102.62
102.001
101.515
101.137
100.845
100.623
100.454
100.328
100.235
100.166
100.117
100.081
100.056
100.038
100.025
100.017
100.011
100.007
100.005
100.003
100.002
100.001
100.001
100
100
100
100
100
100
100
100
100
100
100
100
100
100
100
100
100
100
100
100
100
100
100
100
100
100
100
100
100
100
100
100
100
100
100
358.437
291.111
243.015
209.352
185.318
167.6
154.116
143.582
135.189
128.411
122.89
118.374
114.678
111.656
109.195
107.201
105.596
104.313
103.296
102.497
101.874
101.394
101.027
100.749
100.541
100.387
100.274
100.192
100.134
100.092
100.062
100.042
100.028
100.019
100.012
100.008
100.005
100.003
100.002
100.001
100.001
100
100
100
100
100
100
100
100
100
100
100
100
100
100
100
100
100
100
100
100
100
100
100
100
100
100
100
100
100
100
100
100
100
100
369.993
315.646
271.321
236.631
209.687
188.591
171.854
158.396
147.457
138.498
131.128
125.056
120.058
115.956
112.604
109.882
107.687
105.929
104.534
103.436
102.58
101.92
101.415
101.033
100.746
100.534
100.378
100.265
100.184
100.127
100.086
100.058
100.039
100.026
100.017
100.011
100.007
100.004
100.003
100.002
100.001
100.001
100
100
100
100
100
100
100
100
100
100
100
100
100
100
100
100
100
100
100
100
100
100
100
100
100
100
100
100
100
100
100
100
100
375.93
330.299
290.218
256.469
228.58
205.656
186.785
171.193
158.262
147.514
138.575
131.15
125
119.928
115.769
112.381
109.641
107.444
105.697
104.321
103.247
102.417
101.782
101.301
100.941
100.673
100.477
100.335
100.233
100.16
100.109
100.073
100.049
100.032
100.021
100.014
100.009
100.006
100.003
100.002
100.001
100.001
100
100
100
100
100
100
100
100
100
100
100
100
100
100
100
100
100
100
100
100
100
100
100
100
100
100
100
100
100
100
100
100
100
379.416
339.578
303.071
270.832
242.983
219.211
199.037
181.963
167.539
155.378
145.152
136.586
129.444
123.524
118.649
114.665
111.435
108.839
106.771
105.139
103.864
102.878
102.123
101.551
101.122
100.803
100.57
100.4
100.278
100.191
100.13
100.088
100.058
100.039
100.025
100.016
100.01
100.007
100.004
100.003
100.002
100.001
100.001
100
100
100
100
100
100
100
100
100
100
100
100
100
100
100
100
100
100
100
100
100
100
100
100
100
100
100
100
100
100
100
100
381.642
345.736
312
281.268
253.878
229.823
208.906
190.845
175.337
162.092
150.84
141.336
133.362
126.716
121.222
116.716
113.052
110.101
107.746
105.885
104.428
103.301
102.436
101.781
101.289
100.923
100.655
100.46
100.32
100.22
100.15
100.101
100.067
100.044
100.029
100.019
100.012
100.008
100.005
100.003
100.002
100.001
100.001
100
100
100
100
100
100
100
100
100
100
100
100
100
100
100
100
100
100
100
100
100
100
100
100
100
100
100
100
100
100
100
100
383.14
349.968
318.321
288.897
262.093
238.052
216.749
198.052
181.779
167.722
155.669
145.413
136.753
129.501
123.48
118.526
114.487
111.225
108.617
106.553
104.935
103.681
102.719
101.988
101.44
101.032
100.732
100.514
100.358
100.246
100.168
100.113
100.075
100.05
100.033
100.021
100.013
100.009
100.005
100.003
100.002
100.001
100.001
100
100
100
100
100
100
100
100
100
100
100
100
100
100
100
100
100
100
100
100
100
100
100
100
100
100
100
100
100
100
100
100
384.182
352.95
322.864
294.51
268.281
244.393
222.918
203.827
187.023
172.368
159.703
148.853
139.64
131.89
125.43
120.098
115.738
112.21
109.384
107.142
105.384
104.019
102.97
102.173
101.574
101.129
100.801
100.563
100.392
100.27
100.184
100.124
100.083
100.055
100.036
100.023
100.015
100.009
100.006
100.004
100.002
100.001
100.001
100
100
100
100
100
100
100
100
100
100
100
100
100
100
100
100
100
100
100
100
100
100
100
100
100
100
100
100
100
100
100
100
384.924
355.088
326.166
298.659
272.941
249.255
227.731
208.403
191.238
176.151
163.023
151.712
142.061
133.908
127.088
121.441
116.814
113.06
110.047
107.655
105.775
104.314
103.19
102.336
101.693
101.215
100.863
100.606
100.422
100.291
100.198
100.134
100.089
100.059
100.039
100.025
100.016
100.01
100.006
100.004
100.002
100.001
100.001
100.001
100
100
100
100
100
100
100
100
100
100
100
100
100
100
100
100
100
100
100
100
100
100
100
100
100
100
100
100
100
100
100
385.458
356.639
328.585
301.738
276.448
252.968
231.459
211.996
194.589
179.192
165.72
154.055
144.061
135.587
128.476
122.573
117.724
113.783
110.614
108.094
106.111
104.568
103.381
102.477
101.796
101.289
100.916
100.644
100.448
100.309
100.211
100.142
100.095
100.063
100.041
100.027
100.017
100.011
100.007
100.004
100.003
100.002
100.001
100.001
100
100
100
100
100
100
100
100
100
100
100
100
100
100
100
100
100
100
100
100
100
100
100
100
100
100
100
100
100
100
100
385.848
357.772
330.366
304.026
279.084
255.793
234.328
214.793
197.227
181.611
167.884
155.952
145.692
136.965
129.623
123.513
118.484
114.389
111.091
108.465
106.396
104.784
103.543
102.597
101.884
101.353
100.962
100.677
100.471
100.325
100.221
100.149
100.1
100.066
100.043
100.028
100.018
100.011
100.007
100.004
100.003
100.002
100.001
100.001
100
100
100
100
100
100
100
100
100
100
100
100
100
100
100
100
100
100
100
100
100
100
100
100
100
100
100
100
100
100
100
386.132
358.603
331.68
305.728
281.062
257.932
236.523
216.955
199.283
183.513
169.601
157.468
147.004
138.082
130.558
124.283
119.109
114.889
111.487
108.773
106.634
104.965
103.679
102.698
101.958
101.407
101
100.704
100.49
100.338
100.231
100.156
100.104
100.069
100.045
100.029
100.019
100.012
100.007
100.005
100.003
100.002
100.001
100.001
100
100
100
100
100
100
100
100
100
100
100
100
100
100
100
100
100
100
100
100
100
100
100
100
100
100
100
100
100
100
100
386.341
359.214
332.65
306.992
282.541
259.545
238.192
218.612
200.873
184.996
170.949
158.666
148.049
138.975
131.309
124.906
119.617
115.298
111.811
109.027
106.83
105.115
103.792
102.782
102.02
101.452
101.033
100.727
100.507
100.349
100.238
100.161
100.108
100.071
100.047
100.03
100.019
100.012
100.008
100.005
100.003
100.002
100.001
100.001
100
100
100
100
100
100
100
100
100
100
100
100
100
100
100
100
100
100
100
100
100
100
100
100
100
100
100
100
100
100
100
386.494
359.663
333.365
307.928
283.643
260.755
239.453
219.872
202.092
186.139
171.996
159.603
148.87
139.682
131.907
125.403
120.024
115.627
112.073
109.233
106.989
105.237
103.884
102.851
102.071
101.489
101.059
100.746
100.52
100.359
100.245
100.165
100.111
100.073
100.048
100.031
100.02
100.013
100.008
100.005
100.003
100.002
100.001
100.001
100
100
100
100
100
100
100
100
100
100
100
100
100
100
100
100
100
100
100
100
100
100
100
100
100
100
100
100
100
100
100
386.607
359.993
333.891
308.62
284.462
261.658
240.4
220.825
203.018
187.014
172.801
160.328
149.509
140.235
132.377
125.795
120.347
115.889
112.282
109.398
107.117
105.335
103.958
102.907
102.112
101.519
101.081
100.762
100.531
100.366
100.25
100.169
100.113
100.075
100.049
100.032
100.02
100.013
100.008
100.005
100.003
100.002
100.001
100.001
100
100
100
100
100
100
100
100
100
100
100
100
100
100
100
100
100
100
100
100
100
100
100
100
100
100
100
100
100
100
100
386.689
360.234
334.277
309.128
285.066
262.328
241.105
221.538
203.716
187.677
173.415
160.883
150.001
140.662
132.741
126.101
120.6
116.094
112.447
109.528
107.219
105.414
104.018
102.951
102.145
101.543
101.099
100.774
100.54
100.372
100.254
100.172
100.115
100.076
100.05
100.032
100.021
100.013
100.008
100.005
100.003
100.002
100.001
100.001
100
100
100
100
100
100
100
100
100
100
100
100
100
100
100
100
100
100
100
100
100
100
100
100
100
100
100
100
100
100
100
386.748
360.41
334.559
309.501
285.51
262.822
241.628
222.069
204.238
188.175
173.878
161.303
150.375
140.989
133.021
126.337
120.795
116.254
112.575
109.63
107.299
105.475
104.065
102.986
102.171
101.562
101.113
100.784
100.547
100.377
100.258
100.174
100.116
100.077
100.05
100.033
100.021
100.013
100.008
100.005
100.003
100.002
100.001
100.001
100
100
100
100
100
100
100
100
100
100
100
100
100
100
100
100
100
100
100
100
100
100
100
100
100
100
100
100
100
100
100
386.792
360.537
334.764
309.772
285.834
263.184
242.012
222.461
204.624
188.545
174.224
161.619
150.657
141.236
133.234
126.517
120.945
116.376
112.674
109.708
107.36
105.523
104.101
103.014
102.192
101.577
101.124
100.792
100.552
100.381
100.26
100.176
100.118
100.078
100.051
100.033
100.021
100.013
100.008
100.005
100.003
100.002
100.001
100.001
100
100
100
100
100
100
100
100
100
100
100
100
100
100
100
100
100
100
100
100
100
100
100
100
100
100
100
100
100
100
100
386.823
360.629
334.911
309.968
286.069
263.447
242.292
222.748
204.908
188.818
174.48
161.854
150.867
141.421
133.393
126.653
121.058
116.469
112.749
109.768
107.407
105.559
104.129
103.035
102.208
101.589
101.132
100.798
100.557
100.384
100.262
100.177
100.119
100.079
100.051
100.033
100.021
100.014
100.009
100.005
100.003
100.002
100.001
100.001
100
100
100
100
100
100
100
100
100
100
100
100
100
100
100
100
100
100
100
100
100
100
100
100
100
100
100
100
100
100
100
386.845
360.695
335.017
310.109
286.238
263.637
242.495
222.957
205.115
189.018
174.667
162.026
151.023
141.558
133.512
126.754
121.143
116.539
112.806
109.813
107.443
105.587
104.15
103.051
102.22
101.598
101.138
100.803
100.56
100.387
100.264
100.179
100.119
100.079
100.052
100.034
100.022
100.014
100.009
100.005
100.003
100.002
100.001
100.001
100
100
100
100
100
100
100
100
100
100
100
100
100
100
100
100
100
100
100
100
100
100
100
100
100
100
100
100
100
100
100
386.861
360.742
335.093
310.209
286.359
263.773
242.641
223.107
205.264
189.162
174.804
162.152
151.136
141.658
133.599
126.828
121.205
116.59
112.848
109.847
107.47
105.608
104.166
103.063
102.229
101.605
101.143
100.806
100.562
100.388
100.265
100.179
100.12
100.079
100.052
100.034
100.022
100.014
100.009
100.005
100.003
100.002
100.001
100.001
100
100
100
100
100
100
100
100
100
100
100
100
100
100
100
100
100
100
100
100
100
100
100
100
100
100
100
100
100
100
100
386.872
360.775
335.146
310.281
286.445
263.87
242.745
223.214
205.371
189.266
174.902
162.243
151.218
141.731
133.663
126.882
121.251
116.628
112.878
109.872
107.489
105.623
104.178
103.072
102.235
101.61
101.147
100.809
100.564
100.39
100.266
100.18
100.12
100.08
100.052
100.034
100.022
100.014
100.009
100.005
100.003
100.002
100.001
100.001
100
100
100
100
100
100
100
100
100
100
100
100
100
100
100
100
100
100
100
100
100
100
100
100
100
100
100
100
100
100
100
386.88
360.798
335.184
310.331
286.505
263.938
242.818
223.29
205.447
189.34
174.972
162.308
151.277
141.784
133.709
126.922
121.284
116.656
112.901
109.89
107.504
105.634
104.187
103.079
102.24
101.613
101.15
100.811
100.566
100.391
100.267
100.18
100.121
100.08
100.052
100.034
100.022
100.014
100.009
100.005
100.003
100.002
100.001
100.001
100
100
100
100
100
100
100
100
100
100
100
100
100
100
100
100
100
100
100
100
100
100
100
100
100
100
100
100
100
100
100
386.886
360.814
335.21
310.366
286.547
263.986
242.87
223.343
205.501
189.392
175.022
162.354
151.319
141.821
133.741
126.95
121.308
116.676
112.917
109.903
107.514
105.642
104.193
103.083
102.244
101.616
101.152
100.812
100.567
100.391
100.267
100.181
100.121
100.08
100.052
100.034
100.022
100.014
100.009
100.005
100.003
100.002
100.001
100.001
100
100
100
100
100
100
100
100
100
100
100
100
100
100
100
100
100
100
100
100
100
100
100
100
100
100
100
100
100
100
100
386.889
360.825
335.228
310.39
286.576
264.019
242.905
223.38
205.538
189.429
175.056
162.386
151.349
141.847
133.764
126.969
121.324
116.69
112.929
109.912
107.521
105.648
104.197
103.087
102.247
101.618
101.153
100.813
100.567
100.392
100.268
100.181
100.121
100.08
100.053
100.034
100.022
100.014
100.009
100.005
100.003
100.002
100.001
100.001
100
100
100
100
100
100
100
100
100
100
100
100
100
100
100
100
100
100
100
100
100
100
100
100
100
100
100
100
100
100
100
386.892
360.833
335.24
310.406
286.597
264.041
242.93
223.405
205.564
189.454
175.08
162.408
151.369
141.865
133.78
126.983
121.336
116.699
112.937
109.919
107.527
105.652
104.201
103.089
102.248
101.619
101.154
100.814
100.568
100.392
100.268
100.181
100.121
100.08
100.053
100.034
100.022
100.014
100.009
100.005
100.003
100.002
100.001
100.001
100
100
100
100
100
100
100
100
100
100
100
100
100
100
100
100
100
100
100
100
100
100
100
100
100
100
100
100
100
100
100
386.894
360.838
335.249
310.418
286.61
264.057
242.947
223.423
205.581
189.471
175.097
162.424
151.383
141.878
133.791
126.993
121.344
116.706
112.942
109.923
107.53
105.655
104.203
103.091
102.25
101.62
101.155
100.814
100.568
100.392
100.268
100.181
100.121
100.08
100.053
100.034
100.022
100.014
100.009
100.005
100.003
100.002
100.001
100.001
100
100
100
100
100
100
100
100
100
100
100
100
100
100
100
100
100
100
100
100
100
100
100
100
100
100
100
100
100
100
100
386.895
360.842
335.255
310.425
286.619
264.067
242.958
223.435
205.593
189.483
175.108
162.434
151.393
141.887
133.799
127
121.35
116.711
112.946
109.926
107.533
105.657
104.204
103.092
102.251
101.621
101.155
100.815
100.569
100.393
100.268
100.181
100.121
100.08
100.053
100.034
100.022
100.014
100.009
100.005
100.003
100.002
100.001
100.001
100
100
100
100
100
100
100
100
100
100
100
100
100
100
100
100
100
100
100
100
100
100
100
100
100
100
100
100
100
100
100
386.896
360.844
335.258
310.43
286.626
264.074
242.966
223.442
205.601
189.49
175.115
162.441
151.399
141.892
133.804
127.004
121.354
116.714
112.949
109.929
107.534
105.658
104.205
103.093
102.251
101.621
101.156
100.815
100.569
100.393
100.268
100.182
100.121
100.08
100.053
100.034
100.022
100.014
100.009
100.005
100.003
100.002
100.001
100.001
100
100
100
100
100
100
100
100
100
100
100
100
100
100
100
100
100
100
100
100
100
100
100
100
100
100
100
100
100
100
100
386.896
360.846
335.261
310.434
286.63
264.079
242.971
223.448
205.606
189.496
175.12
162.446
151.403
141.896
133.808
127.007
121.356
116.716
112.951
109.93
107.536
105.659
104.206
103.094
102.252
101.622
101.156
100.815
100.569
100.393
100.268
100.182
100.121
100.08
100.053
100.034
100.022
100.014
100.009
100.005
100.003
100.002
100.001
100.001
100
100
100
100
100
100
100
100
100
100
100
100
100
100
100
100
100
100
100
100
100
100
100
100
100
100
100
100
100
100
100
386.897
360.847
335.262
310.436
286.632
264.082
242.974
223.451
205.61
189.499
175.124
162.449
151.406
141.899
133.81
127.009
121.358
116.718
112.952
109.931
107.536
105.66
104.207
103.094
102.252
101.622
101.156
100.815
100.569
100.393
100.269
100.182
100.122
100.08
100.053
100.034
100.022
100.014
100.009
100.005
100.003
100.002
100.001
100.001
100
100
100
100
100
100
100
100
100
100
100
100
100
100
100
100
100
100
100
100
100
100
100
100
100
100
100
100
100
100
100
386.897
360.847
335.264
310.437
286.634
264.084
242.976
223.453
205.612
189.501
175.126
162.451
151.408
141.901
133.811
127.01
121.359
116.719
112.952
109.932
107.537
105.66
104.207
103.094
102.252
101.622
101.156
100.815
100.569
100.393
100.269
100.182
100.122
100.08
100.053
100.034
100.022
100.014
100.009
100.005
100.003
100.002
100.001
100.001
100
100
100
100
100
100
100
100
100
100
100
100
100
100
100
100
100
100
100
100
100
100
100
100
100
100
100
100
100
100
100
386.897
360.848
335.264
310.438
286.635
264.085
242.977
223.455
205.614
189.503
175.127
162.452
151.409
141.902
133.812
127.011
121.36
116.719
112.953
109.932
107.537
105.661
104.207
103.094
102.252
101.622
101.156
100.815
100.569
100.393
100.269
100.182
100.122
100.08
100.053
100.034
100.022
100.014
100.009
100.005
100.003
100.002
100.001
100.001
100
100
100
100
100
100
100
100
100
100
100
100
100
100
100
100
100
100
100
100
100
100
100
100
100
100
100
100
100
100
100
386.897
360.848
335.265
310.439
286.636
264.086
242.978
223.456
205.615
189.504
175.128
162.453
151.41
141.902
133.813
127.012
121.36
116.72
112.953
109.932
107.537
105.661
104.207
103.094
102.252
101.622
101.156
100.815
100.569
100.393
100.269
100.182
100.122
100.08
100.053
100.034
100.022
100.014
100.009
100.005
100.003
100.002
100.001
100.001
100
100
100
100
100
100
100
100
100
100
100
100
100
100
100
100
100
100
100
100
100
100
100
100
100
100
100
100
100
100
100
386.897
360.848
335.265
310.439
286.636
264.087
242.979
223.456
205.615
189.504
175.129
162.454
151.411
141.903
133.813
127.012
121.361
116.72
112.954
109.933
107.538
105.661
104.207
103.094
102.252
101.622
101.156
100.815
100.569
100.393
100.269
100.182
100.122
100.08
100.053
100.034
100.022
100.014
100.009
100.005
100.003
100.002
100.001
100.001
100
100
100
100
100
100
100
100
100
100
100
100
100
100
100
100
100
100
100
100
100
100
100
100
100
100
100
100
100
100
100
386.897
360.848
335.265
310.439
286.637
264.087
242.979
223.457
205.616
189.505
175.129
162.454
151.411
141.903
133.814
127.012
121.361
116.72
112.954
109.933
107.538
105.661
104.207
103.095
102.252
101.622
101.156
100.815
100.569
100.393
100.269
100.182
100.122
100.08
100.053
100.034
100.022
100.014
100.009
100.005
100.003
100.002
100.001
100.001
100
100
100
100
100
100
100
100
100
100
100
100
100
100
100
100
100
100
100
100
100
100
100
100
100
100
100
100
100
100
100
386.897
360.848
335.265
310.44
286.637
264.087
242.979
223.457
205.616
189.505
175.129
162.454
151.411
141.903
133.814
127.012
121.361
116.72
112.954
109.933
107.538
105.661
104.207
103.095
102.252
101.622
101.156
100.815
100.569
100.393
100.269
100.182
100.122
100.08
100.053
100.034
100.022
100.014
100.009
100.005
100.003
100.002
100.001
100.001
100
100
100
100
100
100
100
100
100
100
100
100
100
100
100
100
100
100
100
100
100
100
100
100
100
100
100
100
100
100
100
386.897
360.848
335.265
310.44
286.637
264.087
242.98
223.457
205.616
189.505
175.13
162.455
151.411
141.903
133.814
127.012
121.361
116.72
112.954
109.933
107.538
105.661
104.207
103.095
102.252
101.622
101.156
100.815
100.569
100.393
100.269
100.182
100.122
100.08
100.053
100.034
100.022
100.014
100.009
100.005
100.003
100.002
100.001
100.001
100
100
100
100
100
100
100
100
100
100
100
100
100
100
100
100
100
100
100
100
100
100
100
100
100
100
100
100
100
100
100
386.897
360.848
335.265
310.44
286.637
264.087
242.98
223.457
205.616
189.505
175.13
162.455
151.411
141.903
133.814
127.013
121.361
116.72
112.954
109.933
107.538
105.661
104.207
103.095
102.252
101.622
101.156
100.815
100.569
100.393
100.269
100.182
100.122
100.08
100.053
100.034
100.022
100.014
100.009
100.005
100.003
100.002
100.001
100.001
100
100
100
100
100
100
100
100
100
100
100
100
100
100
100
100
100
100
100
100
100
100
100
100
100
100
100
100
100
100
100
386.897
360.848
335.265
310.44
286.637
264.087
242.98
223.457
205.616
189.505
175.13
162.455
151.411
141.903
133.814
127.013
121.361
116.72
112.954
109.933
107.538
105.661
104.207
103.095
102.252
101.622
101.156
100.815
100.569
100.393
100.269
100.182
100.122
100.08
100.053
100.034
100.022
100.014
100.009
100.005
100.003
100.002
100.001
100.001
100
100
100
100
100
100
100
100
100
100
100
100
100
100
100
100
100
100
100
100
100
100
100
100
100
100
100
100
100
100
100
386.897
360.848
335.265
310.44
286.637
264.087
242.98
223.457
205.616
189.505
175.13
162.455
151.411
141.903
133.814
127.013
121.361
116.72
112.954
109.933
107.538
105.661
104.207
103.095
102.252
101.622
101.156
100.815
100.569
100.393
100.269
100.182
100.122
100.08
100.053
100.034
100.022
100.014
100.009
100.005
100.003
100.002
100.001
100.001
100
100
100
100
100
100
100
100
100
100
100
100
100
100
100
100
100
100
100
100
100
100
100
100
100
100
100
100
100
100
100
386.897
360.848
335.265
310.44
286.637
264.087
242.98
223.457
205.616
189.505
175.13
162.455
151.411
141.904
133.814
127.013
121.361
116.72
112.954
109.933
107.538
105.661
104.207
103.095
102.252
101.622
101.156
100.815
100.569
100.393
100.269
100.182
100.122
100.08
100.053
100.034
100.022
100.014
100.009
100.005
100.003
100.002
100.001
100.001
100
100
100
100
100
100
100
100
100
100
100
100
100
100
100
100
100
100
100
100
100
100
100
100
100
100
100
100
100
100
100
386.897
360.848
335.265
310.44
286.637
264.087
242.98
223.457
205.616
189.505
175.13
162.455
151.411
141.904
133.814
127.013
121.361
116.72
112.954
109.933
107.538
105.661
104.207
103.095
102.252
101.622
101.156
100.815
100.569
100.393
100.269
100.182
100.122
100.08
100.053
100.034
100.022
100.014
100.009
100.005
100.003
100.002
100.001
100.001
100
100
100
100
100
100
100
100
100
100
100
100
100
100
100
100
100
100
100
100
100
100
100
100
100
100
100
100
100
100
100
386.897
360.848
335.265
310.44
286.637
264.087
242.98
223.457
205.616
189.505
175.13
162.455
151.411
141.904
133.814
127.013
121.361
116.72
112.954
109.933
107.538
105.661
104.207
103.095
102.252
101.622
101.156
100.815
100.569
100.393
100.269
100.182
100.122
100.08
100.053
100.034
100.022
100.014
100.009
100.005
100.003
100.002
100.001
100.001
100
100
100
100
100
100
100
100
100
100
100
100
100
100
100
100
100
100
100
100
100
100
100
100
100
100
100
100
100
100
100
386.897
360.848
335.265
310.44
286.637
264.087
242.98
223.457
205.616
189.505
175.13
162.455
151.411
141.904
133.814
127.013
121.361
116.72
112.954
109.933
107.538
105.661
104.207
103.095
102.252
101.622
101.156
100.815
100.569
100.393
100.269
100.182
100.122
100.08
100.053
100.034
100.022
100.014
100.009
100.005
100.003
100.002
100.001
100.001
100
100
100
100
100
100
100
100
100
100
100
100
100
100
100
100
100
100
100
100
100
100
100
100
100
100
100
100
100
100
100
386.897
360.848
335.265
310.44
286.637
264.087
242.98
223.457
205.616
189.505
175.13
162.455
151.411
141.904
133.814
127.013
121.361
116.72
112.954
109.933
107.538
105.661
104.207
103.095
102.252
101.622
101.156
100.815
100.569
100.393
100.269
100.182
100.122
100.08
100.053
100.034
100.022
100.014
100.009
100.005
100.003
100.002
100.001
100.001
100
100
100
100
100
100
100
100
100
100
100
100
100
100
100
100
100
100
100
100
100
100
100
100
100
100
100
100
100
100
100
386.897
360.848
335.265
310.44
286.637
264.087
242.98
223.457
205.616
189.505
175.13
162.455
151.411
141.904
133.814
127.013
121.361
116.72
112.954
109.933
107.538
105.661
104.207
103.095
102.252
101.622
101.156
100.815
100.569
100.393
100.269
100.182
100.122
100.08
100.053
100.034
100.022
100.014
100.009
100.005
100.003
100.002
100.001
100.001
100
100
100
100
100
100
100
100
100
100
100
100
100
100
100
100
100
100
100
100
100
100
100
100
100
100
100
100
100
100
100
386.897
360.848
335.265
310.44
286.637
264.087
242.98
223.457
205.616
189.505
175.13
162.455
151.411
141.904
133.814
127.013
121.361
116.72
112.954
109.933
107.538
105.661
104.207
103.095
102.252
101.622
101.156
100.815
100.569
100.393
100.269
100.182
100.122
100.08
100.053
100.034
100.022
100.014
100.009
100.005
100.003
100.002
100.001
100.001
100
100
100
100
100
100
100
100
100
100
100
100
100
100
100
100
100
100
100
100
100
100
100
100
100
100
100
100
100
100
100
386.897
360.848
335.265
310.44
286.637
264.087
242.98
223.457
205.616
189.505
175.13
162.455
151.411
141.904
133.814
127.013
121.361
116.72
112.954
109.933
107.538
105.661
104.207
103.095
102.252
101.622
101.156
100.815
100.569
100.393
100.269
100.182
100.122
100.08
100.053
100.034
100.022
100.014
100.009
100.005
100.003
100.002
100.001
100.001
100
100
100
100
100
100
100
100
100
100
100
100
100
100
100
100
100
100
100
100
100
100
100
100
100
100
100
100
100
100
100
386.897
360.848
335.265
310.44
286.637
264.087
242.98
223.457
205.616
189.505
175.13
162.455
151.411
141.904
133.814
127.013
121.361
116.72
112.954
109.933
107.538
105.661
104.207
103.095
102.252
101.622
101.156
100.815
100.569
100.393
100.269
100.182
100.122
100.08
100.053
100.034
100.022
100.014
100.009
100.005
100.003
100.002
100.001
100.001
100
100
100
100
100
100
100
100
100
100
100
100
100
100
100
100
100
100
100
100
100
100
100
100
100
100
100
100
100
100
100
386.897
360.848
335.265
310.44
286.637
264.087
242.98
223.457
205.616
189.505
175.13
162.455
151.411
141.904
133.814
127.013
121.361
116.72
112.954
109.933
107.538
105.661
104.207
103.095
102.252
101.622
101.156
100.815
100.569
100.393
100.269
100.182
100.122
100.08
100.053
100.034
100.022
100.014
100.009
100.005
100.003
100.002
100.001
100.001
100
100
100
100
100
100
100
100
100
100
100
100
100
100
100
100
100
100
100
100
100
100
100
100
100
100
100
100
100
100
100
386.897
360.848
335.265
310.44
286.637
264.087
242.98
223.457
205.616
189.505
175.13
162.455
151.411
141.904
133.814
127.013
121.361
116.72
112.954
109.933
107.538
105.661
104.207
103.095
102.252
101.622
101.156
100.815
100.569
100.393
100.269
100.182
100.122
100.08
100.053
100.034
100.022
100.014
100.009
100.005
100.003
100.002
100.001
100.001
100
100
100
100
100
100
100
100
100
100
100
100
100
100
100
100
100
100
100
100
100
100
100
100
100
100
100
100
100
100
100
386.897
360.848
335.265
310.44
286.637
264.087
242.98
223.457
205.616
189.505
175.13
162.455
151.411
141.904
133.814
127.013
121.361
116.72
112.954
109.933
107.538
105.661
104.207
103.095
102.252
101.622
101.156
100.815
100.569
100.393
100.269
100.182
100.122
100.08
100.053
100.034
100.022
100.014
100.009
100.005
100.003
100.002
100.001
100.001
100
100
100
100
100
100
100
100
100
100
100
100
100
100
100
100
100
100
100
100
100
100
100
100
100
100
100
100
100
100
100
386.897
360.848
335.265
310.44
286.637
264.087
242.98
223.457
205.616
189.505
175.13
162.455
151.411
141.904
133.814
127.013
121.361
116.72
112.954
109.933
107.538
105.661
104.207
103.095
102.252
101.622
101.156
100.815
100.569
100.393
100.269
100.182
100.122
100.08
100.053
100.034
100.022
100.014
100.009
100.005
100.003
100.002
100.001
100.001
100
100
100
100
100
100
100
100
100
100
100
100
100
100
100
100
100
100
100
100
100
100
100
100
100
100
100
100
100
100
100
386.897
360.848
335.265
310.44
286.637
264.087
242.98
223.457
205.616
189.505
175.13
162.455
151.411
141.904
133.814
127.013
121.361
116.72
112.954
109.933
107.538
105.661
104.207
103.095
102.252
101.622
101.156
100.815
100.569
100.393
100.269
100.182
100.122
100.08
100.053
100.034
100.022
100.014
100.009
100.005
100.003
100.002
100.001
100.001
100
100
100
100
100
100
100
100
100
100
100
100
100
100
100
100
100
100
100
100
100
100
100
100
100
100
100
100
100
100
100
386.897
360.848
335.265
310.44
286.637
264.087
242.98
223.457
205.616
189.505
175.13
162.455
151.411
141.904
133.814
127.013
121.361
116.72
112.954
109.933
107.538
105.661
104.207
103.095
102.252
101.622
101.156
100.815
100.569
100.393
100.269
100.182
100.122
100.08
100.053
100.034
100.022
100.014
100.009
100.005
100.003
100.002
100.001
100.001
100
100
100
100
100
100
100
100
100
100
100
100
100
100
100
100
100
100
100
100
100
100
100
100
100
100
100
100
100
100
100
386.897
360.848
335.265
310.44
286.637
264.087
242.98
223.457
205.616
189.505
175.13
162.455
151.411
141.904
133.814
127.013
121.361
116.72
112.954
109.933
107.538
105.661
104.207
103.095
102.252
101.622
101.156
100.815
100.569
100.393
100.269
100.182
100.122
100.08
100.053
100.034
100.022
100.014
100.009
100.005
100.003
100.002
100.001
100.001
100
100
100
100
100
100
100
100
100
100
100
100
100
100
100
100
100
100
100
100
100
100
100
100
100
100
100
100
100
100
100
386.897
360.848
335.265
310.44
286.637
264.087
242.98
223.457
205.616
189.505
175.13
162.455
151.411
141.904
133.814
127.013
121.361
116.72
112.954
109.933
107.538
105.661
104.207
103.095
102.252
101.622
101.156
100.815
100.569
100.393
100.269
100.182
100.122
100.08
100.053
100.034
100.022
100.014
100.009
100.005
100.003
100.002
100.001
100.001
100
100
100
100
100
100
100
100
100
100
100
100
100
100
100
100
100
100
100
100
100
100
100
100
100
100
100
100
100
100
100
386.897
360.848
335.265
310.44
286.637
264.087
242.98
223.457
205.616
189.505
175.13
162.455
151.411
141.904
133.814
127.013
121.361
116.72
112.954
109.933
107.538
105.661
104.207
103.095
102.252
101.622
101.156
100.815
100.569
100.393
100.269
100.182
100.122
100.08
100.053
100.034
100.022
100.014
100.009
100.005
100.003
100.002
100.001
100.001
100
100
100
100
100
100
100
100
100
100
100
100
100
100
100
100
100
100
100
100
100
100
100
100
100
100
100
100
100
100
100
386.897
360.848
335.265
310.44
286.637
264.087
242.98
223.457
205.616
189.505
175.13
162.455
151.411
141.904
133.814
127.013
121.361
116.72
112.954
109.933
107.538
105.661
104.207
103.095
102.252
101.622
101.156
100.815
100.569
100.393
100.269
100.182
100.122
100.08
100.053
100.034
100.022
100.014
100.009
100.005
100.003
100.002
100.001
100.001
100
100
100
100
100
100
100
100
100
100
100
100
100
100
100
100
100
100
100
100
100
100
100
100
100
100
100
100
100
100
100
386.897
360.848
335.265
310.44
286.637
264.087
242.98
223.457
205.616
189.505
175.13
162.455
151.411
141.904
133.814
127.013
121.361
116.72
112.954
109.933
107.538
105.661
104.207
103.095
102.252
101.622
101.156
100.815
100.569
100.393
100.269
100.182
100.122
100.08
100.053
100.034
100.022
100.014
100.009
100.005
100.003
100.002
100.001
100.001
100
100
100
100
100
100
100
100
100
100
100
100
100
100
100
100
100
100
100
100
100
100
100
100
100
100
100
100
100
100
100
386.897
360.848
335.265
310.44
286.637
264.087
242.98
223.457
205.616
189.505
175.13
162.455
151.411
141.904
133.814
127.013
121.361
116.72
112.954
109.933
107.538
105.661
104.207