/*--------------------------------*- C++ -*----------------------------------*\
  =========                 |
  \\      /  F ield         | OpenFOAM: The Open Source CFD Toolbox
   \\    /   O peration     | Website:  https://openfoam.org
    \\  /    A nd           | Version:  10
     \\/     M anipulation  |
\*---------------------------------------------------------------------------*/
FoamFile
{
    format      ascii;
    class       volScalarField;
    location    "468";
    object      gradTx;
}
// * * * * * * * * * * * * * * * * * * * * * * * * * * * * * * * * * * * * * //

dimensions      [0 -1 0 1 0 0 0];

internalField   nonuniform List<scalar> 
11250
(
14306.9
8125.13
5345.1
3875.51
2989.8
2400.67
1979.52
1662.13
1413.35
1212.51
1046.66
907.333
788.716
686.711
598.323
521.307
453.933
394.839
342.93
297.303
257.204
221.989
191.104
164.063
140.438
119.849
101.953
86.4441
73.0463
61.5107
51.6128
43.1508
35.9433
29.8276
24.6585
20.307
16.6584
13.6118
11.0783
8.98045
7.25058
5.83025
4.66907
3.72385
2.95777
2.33958
1.84292
1.44565
1.12928
0.878443
0.680452
0.524865
0.403143
0.308338
0.234828
0.178084
0.134477
0.101115
0.0757048
0.0564381
0.0418946
0.0309653
0.0227885
0.016698
0.0121812
0.00884564
0.00639232
0.00459426
0.00327986
0.00231975
0.00161637
0.00109593
0.000701997
0.000390413
0.000125156
4102.75
4723.84
4035.45
3292.74
2694.6
2234.34
1877.67
1595.63
1367.74
1179.99
1022.76
889.334
774.893
675.924
589.796
514.494
448.444
390.387
339.298
294.327
254.758
219.974
189.441
162.689
139.303
118.911
101.178
85.8047
72.5194
61.0771
51.2566
42.8588
35.7044
29.6327
24.4999
20.1783
16.5543
13.5278
11.0108
8.92628
7.2073
5.79578
4.64172
3.70223
2.94073
2.32621
1.83246
1.4375
1.12295
0.873556
0.676688
0.521977
0.400936
0.306659
0.233556
0.177123
0.133754
0.100574
0.0753013
0.0561385
0.041673
0.0308021
0.0226687
0.0166105
0.0121175
0.00879957
0.00635912
0.00457046
0.00326291
0.00230779
0.00160805
0.0010903
0.000698398
0.000388414
0.000124516
1483.13
2632.52
2780.91
2566.49
2262.9
1966.09
1703.07
1477.1
1284.29
1119.42
977.668
855.049
748.371
655.113
573.272
501.248
437.74
381.683
332.184
288.49
249.954
216.011
186.167
159.983
137.065
117.06
99.6486
84.5419
71.4781
60.2199
50.5522
42.2812
35.2318
29.247
24.186
19.9234
16.348
13.3613
10.8769
8.81894
7.12152
5.72747
4.58751
3.65936
2.90696
2.2997
1.81173
1.42135
1.11041
0.863859
0.66922
0.516248
0.396559
0.303328
0.23103
0.175216
0.13232
0.0994998
0.0745004
0.0555436
0.0412329
0.0304779
0.0224309
0.0164368
0.0119912
0.00870807
0.00629317
0.00452318
0.00322924
0.00228403
0.00159153
0.00107912
0.000691245
0.000384441
0.000123243
680.555
1542.68
1889.97
1930.5
1825.8
1665.66
1493.32
1327.49
1175.18
1038.17
916.018
807.499
711.179
625.674
549.736
482.274
422.339
369.112
321.878
280.011
242.96
210.231
181.385
156.024
133.786
114.346
97.4037
82.687
69.9476
58.959
49.5156
41.4307
34.5356
28.6785
23.7231
19.5475
16.0437
13.1157
10.6793
8.66045
6.99485
5.62657
4.50742
3.59602
2.85704
2.26051
1.78107
1.39746
1.09187
0.84952
0.658175
0.507774
0.390083
0.298398
0.227293
0.172395
0.130198
0.0979106
0.0733151
0.0546631
0.0405816
0.029998
0.0220789
0.0161796
0.0118041
0.00857259
0.00619552
0.00445317
0.00317938
0.00224884
0.00156706
0.00106255
0.000680651
0.000378554
0.000121357
377.114
968.156
1306.55
1440.83
1445.47
1379.05
1278.89
1166.41
1053.03
944.464
843.277
750.391
665.882
589.418
520.489
458.523
402.945
353.203
308.78
269.197
234.013
202.819
175.238
150.925
129.557
110.84
94.5001
80.2851
67.9637
57.3233
48.1696
40.3256
33.6305
27.9391
23.1206
19.0581
15.6472
12.7956
10.4216
8.45376
6.8296
5.49491
4.40289
3.51332
2.79186
2.20932
1.74103
1.36625
1.06764
0.830779
0.643738
0.496695
0.381615
0.291952
0.222406
0.168704
0.127423
0.0958315
0.0717642
0.0535109
0.0397292
0.02937
0.0216181
0.015843
0.0115592
0.00839524
0.00606769
0.00436151
0.00311409
0.00220276
0.00153501
0.00104086
0.000666776
0.000370846
0.000118887
237.013
646.736
928.016
1081.83
1137.53
1127.75
1078.62
1008.26
928.285
845.743
764.727
687.495
615.197
548.326
486.99
431.083
380.376
334.577
293.368
256.418
223.401
193.999
167.905
144.827
124.49
106.632
91.0088
77.3929
65.5718
55.349
46.5434
38.9892
32.5351
27.0435
22.3905
18.4646
15.1663
12.407
10.1087
8.20264
6.62875
5.33483
4.27575
3.41271
2.71254
2.14701
1.69227
1.32824
1.03812
0.807946
0.626144
0.483193
0.371293
0.284093
0.216446
0.164203
0.124037
0.0932954
0.0698722
0.0521052
0.0386891
0.0286036
0.0210558
0.0154321
0.0112603
0.00817873
0.00591161
0.00424961
0.00303438
0.00214649
0.00149588
0.00101438
0.000649831
0.000361431
0.000115871
161.365
454.206
677.692
821.968
896.354
917.343
901.336
861.7
808.26
747.805
684.826
622.195
561.683
504.332
450.711
401.079
355.498
313.906
276.164
242.082
211.447
184.026
159.586
137.891
118.711
101.822
87.0118
74.0763
62.8249
53.0786
44.6711
37.449
31.2713
26.0094
21.5468
17.7782
14.6097
11.9571
9.74623
7.91158
6.39584
5.14912
4.1282
3.29591
2.62041
2.07462
1.63561
1.28405
1.0038
0.781392
0.605679
0.467483
0.359282
0.274947
0.209509
0.158963
0.120095
0.0903418
0.0676684
0.0504676
0.0374773
0.0277106
0.0204005
0.0149532
0.0109119
0.00792635
0.00572966
0.00411913
0.00294143
0.00208088
0.00145025
0.000983484
0.000630068
0.000350449
0.000112352
115.752
331.47
507.299
632.994
709.834
745.432
749.407
730.865
697.347
654.635
606.943
557.233
507.529
459.171
413.017
369.584
329.157
291.857
257.697
226.61
198.483
173.168
150.497
130.289
112.36
96.5238
82.5986
70.4075
59.7811
50.559
42.5905
35.7353
29.8636
24.8564
20.6052
17.0117
13.9875
11.4539
9.34052
7.58562
6.13487
4.94092
3.96271
3.16485
2.51701
1.99334
1.57196
1.23441
0.965227
0.751538
0.582665
0.449812
0.345768
0.264654
0.201701
0.153063
0.115656
0.0870156
0.0651861
0.0486229
0.036112
0.0267044
0.0196619
0.0144135
0.0105191
0.00764181
0.00552451
0.003972
0.00283661
0.00200689
0.00139878
0.000948637
0.000607774
0.000338061
0.000108382
86.0646
249.045
387.739
493.838
565.77
606.595
621.66
616.863
597.655
568.616
533.364
494.643
454.47
414.285
375.09
337.561
302.132
269.06
238.474
210.412
184.843
161.692
140.853
122.196
105.578
90.8512
77.8628
66.4621
56.5017
47.8398
40.3416
33.8805
28.3382
23.6055
19.5826
16.1784
13.3107
10.9059
8.89847
7.23023
5.85017
4.71367
3.78198
3.02165
2.40397
1.90446
1.50233
1.18008
0.922998
0.718844
0.557455
0.43045
0.330957
0.253369
0.193138
0.146593
0.110787
0.083366
0.062462
0.046598
0.0346131
0.0255995
0.0188509
0.0138207
0.0100877
0.00732923
0.00529911
0.00381033
0.00272142
0.00192556
0.0013422
0.000910332
0.000583266
0.000324442
0.000104018
65.6625
191.314
301.446
389.775
453.982
494.914
515.38
519.061
509.746
490.898
465.455
435.795
403.772
370.792
337.893
305.824
275.103
246.078
218.962
193.869
170.839
149.856
130.866
113.784
98.5069
84.9194
72.898
62.3165
53.0488
44.9715
37.9656
31.9178
26.7218
22.2785
18.4965
15.2924
12.5904
10.3224
8.42728
6.85114
5.54628
4.47094
3.58883
2.86853
2.28304
1.80932
1.42778
1.12188
0.877746
0.683799
0.530421
0.409681
0.315065
0.241258
0.183947
0.139645
0.105557
0.0794453
0.059535
0.0444219
0.033002
0.0244117
0.0179789
0.0131832
0.00962366
0.00699297
0.0050566
0.00363637
0.00259745
0.00183803
0.0012813
0.000869098
0.000556881
0.00030978
9.93198e-05
51.0645
149.493
237.598
310.723
366.589
405.035
427.419
435.967
433.241
421.777
403.874
381.503
356.282
329.502
302.164
275.022
248.634
223.392
199.566
177.324
156.757
137.896
120.731
105.216
91.28
78.8388
67.795
58.0452
49.4836
42.0041
35.503
29.8804
25.0415
20.8971
17.3646
14.3681
11.8382
9.71227
7.93427
6.45418
5.22782
4.21642
3.38616
2.70777
2.15602
1.70933
1.34938
1.06066
0.830124
0.646903
0.50195
0.3878
0.298317
0.228491
0.174254
0.132317
0.100039
0.0753079
0.0564455
0.0421245
0.0313007
0.0231572
0.0170577
0.0125096
0.0091333
0.00663758
0.00480026
0.00345246
0.00246637
0.00174547
0.0012169
0.000825484
0.000528972
0.000294269
9.43493e-05
40.292
118.366
189.344
249.778
297.685
332.494
354.759
365.782
367.258
361.004
348.774
332.15
312.498
290.951
268.427
245.647
223.165
201.393
180.627
161.068
142.845
126.024
110.627
96.6395
84.0215
72.7125
62.6392
53.7189
45.8641
38.9853
32.9932
27.8004
23.3233
19.4826
16.2041
13.4192
11.0651
9.08471
7.42667
6.04512
4.8994
3.95374
3.17687
2.54164
2.02467
1.60589
1.26824
0.997256
0.780785
0.608661
0.47243
0.365104
0.280939
0.21524
0.16419
0.124706
0.0943067
0.0710085
0.0532343
0.039736
0.0295316
0.0218523
0.0160994
0.0118088
0.00862299
0.00626767
0.00453339
0.00326097
0.00232988
0.00164907
0.00114982
0.000780051
0.000499897
0.000278109
8.91705e-05
32.1477
94.6874
152.216
202.165
242.893
273.707
294.732
306.694
310.696
308.02
299.976
287.811
272.644
255.445
237.024
218.043
199.028
180.384
162.416
145.342
129.313
114.419
100.707
88.1867
76.8418
66.6335
57.5084
49.4023
42.2443
35.9598
30.4728
25.708
21.5921
18.0552
15.0314
12.4592
10.2821
8.44838
6.91148
5.62957
4.56549
3.68646
2.96375
2.37237
1.89075
1.50037
1.18541
0.932509
0.730374
0.569571
0.442241
0.341885
0.263153
0.201673
0.153884
0.116909
0.0884326
0.0666015
0.0499418
0.0372864
0.0277169
0.0205135
0.0151158
0.0110894
0.00809906
0.00588781
0.00425931
0.00306427
0.00218964
0.00155001
0.00108087
0.000733354
0.00047001
0.000261497
8.38468e-05
25.8708
76.3536
123.217
164.533
198.971
225.851
245.079
257.032
262.412
262.113
257.103
248.347
236.748
223.113
208.143
192.427
176.445
160.583
145.138
130.334
116.328
103.229
91.0998
79.9686
69.8365
60.6829
52.4713
45.1533
38.6726
32.9679
27.9754
23.6308
19.8706
16.6337
13.8619
11.5006
9.49921
7.81147
6.39528
5.21281
4.23032
3.41795
2.74948
2.20207
1.75593
1.39406
1.10193
0.86721
0.679508
0.530108
0.411751
0.318424
0.245176
0.187954
0.143459
0.10902
0.0824868
0.0621394
0.0466071
0.0348049
0.0258779
0.0191565
0.0141188
0.0103599
0.00756766
0.00550246
0.00398121
0.00286465
0.00204731
0.00144945
0.00101088
0.000685938
0.000439659
0.000244626
7.84398e-05
20.9577
61.9521
100.284
134.491
163.51
186.722
203.936
215.32
221.311
222.525
219.672
213.49
204.696
193.953
181.854
168.911
155.555
142.137
128.94
116.181
104.02
92.5718
81.9103
72.0766
63.0852
54.9296
47.5868
41.0219
35.1912
30.0451
25.5307
21.5936
18.1793
15.2349
12.7094
10.5546
8.72572
7.18147
5.88414
4.79972
3.89779
3.15133
2.53656
2.03271
1.62176
1.2882
1.01874
0.802108
0.628768
0.490724
0.381308
0.294989
0.22721
0.174239
0.133032
0.101126
0.0765361
0.0576721
0.0432676
0.032319
0.0240352
0.0177964
0.0131191
0.00962836
0.00703468
0.00511588
0.00370216
0.00266431
0.00190443
0.0013485
0.000940595
0.00063832
0.000409176
0.000227681
7.30087e-05
17.0638
50.5062
81.9597
110.306
134.697
154.596
169.778
180.289
186.392
188.51
187.157
182.894
176.284
167.867
158.136
147.528
136.42
125.129
113.914
102.978
92.4795
82.5328
73.2174
64.5822
56.6515
49.4291
42.9033
37.0498
31.8358
27.2217
23.1642
19.6178
16.5362
13.8737
11.5861
9.63134
7.96987
6.56509
5.3835
4.39471
3.57145
2.88944
2.32724
1.86608
1.48966
1.1839
0.936733
0.737889
0.578687
0.451831
0.351229
0.271823
0.209444
0.16067
0.122713
0.0933108
0.0706422
0.0532461
0.0399579
0.0298544
0.0222079
0.0164473
0.0121273
0.00890236
0.00650559
0.00473204
0.00342503
0.00246531
0.00176248
0.00124818
0.000870743
0.000590989
0.000378873
0.000210834
6.7609e-05
13.9463
41.3224
67.1934
90.6972
111.159
128.125
141.367
150.864
156.769
159.366
159.029
156.179
151.257
144.696
136.902
128.244
119.047
109.59
100.105
90.7812
81.7659
73.1712
65.0776
57.5381
50.5833
44.2246
38.4588
33.2704
28.6352
24.5224
20.8971
17.7213
14.9561
12.5626
10.5026
8.73949
7.23875
5.96816
4.89811
4.00162
3.25441
2.63477
2.12352
1.70379
1.3609
1.08217
0.856684
0.675166
0.529745
0.413802
0.321802
0.249149
0.192046
0.147377
0.112599
0.0856482
0.0648614
0.0489033
0.0367093
0.0274348
0.0204132
0.0151219
0.0111527
0.00818876
0.0059854
0.00435457
0.00315244
0.00226952
0.0016228
0.00114944
0.000801983
0.00054439
0.000349036
0.000194244
6.22916e-05
11.4302
33.8965
55.212
74.7071
91.8447
106.246
117.697
126.144
131.668
134.457
134.782
132.959
129.33
124.24
118.021
110.981
103.397
95.5093
87.5245
79.6124
71.9094
64.5213
57.5266
50.9795
44.9142
39.3473
34.2816
29.7088
25.6117
21.9668
18.746
15.9184
13.4514
11.3119
9.46741
7.88622
6.53833
5.39559
4.43199
3.62373
2.94932
2.38948
1.92712
1.54719
1.23657
0.983858
0.77928
0.614477
0.482361
0.376961
0.29328
0.227161
0.175167
0.134474
0.102777
0.0782042
0.0592433
0.0446814
0.03355
0.0250807
0.0186667
0.0138317
0.0102036
0.0074937
0.00547861
0.00398672
0.00288673
0.00207864
0.00148658
0.00105314
0.000734906
0.000498925
0.000319921
0.000178055
5.71022e-05
9.38609
27.8551
45.436
61.6063
75.9375
88.116
97.9517
105.374
110.419
113.212
113.945
112.857
110.211
106.281
101.336
95.6313
89.3987
82.8458
76.1518
69.4676
62.9167
56.5968
50.5822
44.9264
39.6647
34.8172
30.3909
26.3828
22.7813
19.569
16.7236
14.2201
12.0314
10.1297
8.48738
7.07724
5.87337
4.85133
3.98839
3.26371
2.65835
2.15532
1.73947
1.39745
1.11758
0.889704
0.705095
0.556273
0.436889
0.341587
0.265879
0.206025
0.158933
0.122059
0.0933233
0.0710356
0.0538309
0.0406124
0.0305041
0.0228104
0.0169818
0.0125865
0.00928748
0.00682254
0.0049891
0.00363132
0.00262996
0.00189414
0.00135489
0.000960017
0.00067003
0.000454945
0.000291753
0.000162391
5.20809e-05
7.71699
22.9158
37.4245
50.8328
62.7986
73.064
81.4635
87.9223
92.4497
95.1263
96.0895
95.5171
93.613
90.593
86.6739
82.0646
76.9598
71.535
65.9449
60.3217
54.7752
49.394
44.2471
39.3854
34.8441
30.6448
26.7976
23.3031
20.1543
17.3386
14.8386
12.6341
10.7029
9.02186
7.56755
6.31685
5.24751
4.33841
3.56985
2.92364
2.38323
1.93369
1.5617
1.25547
1.00466
0.800293
0.634596
0.500923
0.39362
0.307906
0.239774
0.185879
0.143452
0.110214
0.0842986
0.0641896
0.0486599
0.0367233
0.0275918
0.0206389
0.0153696
0.0113948
0.00841034
0.00617977
0.00452016
0.00329078
0.00238385
0.00171725
0.00122861
0.000870699
0.000607794
0.000412747
0.000264723
0.000147359
4.72619e-05
6.34864
18.8624
30.8366
41.9478
51.9225
60.5496
67.6871
73.2629
77.2702
79.7596
80.8288
80.6104
79.2613
76.9513
73.8544
70.1411
65.9726
61.4968
56.8457
52.1335
47.4571
42.8954
38.5112
34.352
30.4517
26.8321
23.5052
20.4743
17.7358
15.2806
13.0957
11.1649
9.47013
7.99213
6.71127
5.60797
4.66325
3.85899
3.17817
2.60505
2.12521
1.72564
1.39467
1.12195
0.89839
0.716073
0.568141
0.448713
0.352778
0.276096
0.215104
0.166829
0.128806
0.0990017
0.0757527
0.0577038
0.0437589
0.0330358
0.0248293
0.0185783
0.0138393
0.0102632
0.0075772
0.00556906
0.00407448
0.00296703
0.00214982
0.001549
0.00110846
0.000785704
0.000548558
0.000372577
0.000238989
0.000133045
4.2673e-05
5.22349
15.5265
25.4056
34.6051
42.9057
50.1353
56.1738
60.9545
64.4623
66.7274
67.819
67.8359
66.8985
65.1401
62.6999
59.7163
56.3221
52.6409
48.7843
44.8505
40.9234
37.0728
33.3548
29.8129
26.4788
23.3741
20.5114
17.8958
15.5262
13.3965
11.4969
9.81464
8.33513
7.04252
5.92039
4.9523
4.12213
3.4144
2.81452
2.30892
1.88513
1.53186
1.23894
0.997355
0.799144
0.637361
0.505987
0.399848
0.314527
0.246284
0.19197
0.148956
0.115057
0.0884712
0.0677222
0.0516065
0.0391494
0.0295662
0.0222291
0.0166381
0.0123977
0.00919685
0.00679186
0.0049932
0.00365412
0.00266158
0.00192896
0.00139018
0.00099502
0.000705434
0.000492604
0.000334626
0.000214672
0.000119518
3.83363e-05
4.2963
12.7755
20.9205
28.5282
35.4231
41.4649
46.5529
50.6276
53.6698
55.6963
56.7559
56.922
56.2869
54.9553
53.0378
50.6465
47.8903
44.8718
41.6846
38.4123
35.1272
31.89
28.7505
25.7476
22.9107
20.2601
17.8086
15.5624
13.5222
11.6842
10.041
8.58288
7.29797
6.17335
5.19543
4.35041
3.62472
3.0052
2.47942
2.03574
1.66343
1.35273
1.09486
0.881976
0.707158
0.564349
0.448291
0.354455
0.278971
0.218555
0.17044
0.132312
0.102246
0.0786543
0.0602323
0.0459169
0.0348462
0.0263258
0.0197996
0.0148245
0.0110499
0.00819946
0.00605704
0.00445422
0.00326055
0.00237552
0.00172206
0.00124136
0.000888694
0.000630181
0.000440136
0.000299032
0.000191862
0.000106829
3.42678e-05
3.53115
10.5038
17.2122
23.4947
29.2108
34.2461
38.517
41.9715
44.589
46.3778
47.3718
47.6257
47.2102
46.2071
44.7045
42.7926
40.5603
38.0922
35.4667
32.7541
30.0162
27.3055
24.6653
22.1305
19.7273
17.4747
15.3853
13.4656
11.7176
10.139
8.7248
7.46726
6.35702
5.38357
4.53568
3.8019
3.17082
2.63134
2.17289
1.78557
1.46018
1.18836
0.962522
0.775906
0.622523
0.497118
0.395123
0.312595
0.246159
0.19295
0.150547
0.116924
0.0903964
0.0695689
0.053297
0.0406461
0.0308579
0.0233213
0.017546
0.0131416
0.00979862
0.00727322
0.00537441
0.00395335
0.0028947
0.00210953
0.00152962
0.00110289
0.000789745
0.000560132
0.000391286
0.000265887
0.000170619
9.50095e-05
3.04779e-05
2.89923
8.6267
14.1446
19.3244
24.0531
28.2383
31.8103
34.7246
36.961
38.5224
39.4321
39.7308
39.4726
38.7213
37.547
36.022
34.2185
32.2062
30.0501
27.8091
25.5355
23.2743
21.063
18.9322
16.9053
14.9996
13.2269
11.5939
10.1033
8.75421
7.54298
6.4638
5.50928
4.67091
3.93949
3.30554
2.75953
2.29215
1.89448
1.55809
1.27518
1.03859
0.841826
0.679083
0.545201
0.435648
0.346473
0.274264
0.216094
0.169472
0.132295
0.102799
0.0795121
0.0612194
0.0469202
0.0357973
0.0271874
0.0205548
0.0154702
0.0115908
0.00864514
0.00641905
0.00474467
0.00349114
0.00255697
0.0018639
0.00135186
0.000974962
0.000698297
0.000495378
0.000346118
0.000235234
0.000150969
8.4076e-05
2.69719e-05
2.37719
7.07525
11.6069
15.8697
19.773
23.2418
26.2189
28.6663
30.5652
31.915
32.7319
33.046
32.8986
32.3395
31.4241
30.2105
28.7572
27.1211
25.3557
23.5104
21.6291
19.7499
17.9052
16.1213
14.419
12.8138
11.3166
9.9339
8.66877
7.52123
6.48885
5.56725
4.75063
4.03217
3.40437
2.85942
2.3894
1.98653
1.64332
1.35266
1.10793
0.903059
0.732506
0.591307
0.475045
0.37983
0.302264
0.239407
0.188735
0.148094
0.115665
0.0899201
0.0695832
0.0535986
0.041097
0.0313674
0.0238323
0.018025
0.0135711
0.0101715
0.00758903
0.00563669
0.00416766
0.00306748
0.00224731
0.00163862
0.00118878
0.00085756
0.000614354
0.000435923
0.000304637
0.000207078
0.000132918
7.403e-05
2.37503e-05
1.94603
5.79334
9.5084
13.0094
16.2238
19.0908
21.5635
23.6099
25.213
26.3704
27.0929
27.4028
27.3318
26.9187
26.2071
25.2435
24.0752
22.7485
21.3075
19.7929
18.2415
16.6856
15.1526
13.6652
12.2415
10.8953
9.63628
8.47077
7.40195
6.43042
5.55464
4.77138
4.07613
3.46343
2.92723
2.46109
2.0585
1.71298
1.41826
1.16837
0.957749
0.781238
0.634151
0.512266
0.411817
0.329484
0.262358
0.207921
0.164004
0.128757
0.100614
0.0782571
0.0605864
0.0466895
0.0358148
0.0273471
0.020786
0.015727
0.0118452
0.00888106
0.00662849
0.00492485
0.00364248
0.00268174
0.00196528
0.00143337
0.00104015
0.000750532
0.000537807
0.000381693
0.000266793
0.000181385
0.000116442
6.48606e-05
2.08097e-05
1.59015
4.7349
7.77445
10.6436
13.2841
15.6469
17.6937
19.3977
20.7439
21.729
22.3601
22.6536
22.6337
22.3307
21.7791
21.0158
20.0789
19.006
17.8332
16.5941
15.3192
14.0356
12.7665
11.5312
10.3454
9.22111
8.16703
7.18895
6.29006
5.47132
4.73185
4.06932
3.48022
2.96024
2.50449
2.10773
1.76459
1.46972
1.21789
1.00413
0.823763
0.67245
0.546239
0.441554
0.355206
0.284371
0.226573
0.179665
0.141795
0.111381
0.0870803
0.067764
0.0524874
0.0404664
0.0310547
0.0237223
0.0180381
0.0136531
0.010287
0.00771554
0.00576055
0.0042814
0.00316758
0.00233281
0.00171007
0.00124758
0.000905572
0.000653593
0.000468457
0.000332548
0.00023249
0.000158091
0.000101504
5.65451e-05
1.81427e-05
1.29671
3.86187
6.34336
8.68915
10.8526
12.7943
14.4828
15.8959
17.0208
17.8536
18.3989
18.6689
18.682
18.4617
18.0353
17.4321
16.6826
15.8173
14.8656
13.855
12.8109
11.7558
10.709
9.68718
8.70351
7.76846
6.88973
6.07253
5.31993
4.63308
4.01159
3.45378
2.95699
2.5178
2.13229
1.79621
1.50517
1.25475
1.04064
0.858684
0.704988
0.575921
0.468161
0.378699
0.304843
0.244205
0.194689
0.154471
0.121979
0.0958666
0.0749893
0.0583838
0.0452432
0.0348972
0.0267924
0.020475
0.0155752
0.0117935
0.0088892
0.00666952
0.0049813
0.00370347
0.00274087
0.00201917
0.0014806
0.00108048
0.000784491
0.00056635
0.000406026
0.000288295
0.000201594
0.000137107
8.80432e-05
4.90518e-05
1.57393e-05
1.05508
3.14278
5.16394
7.0771
8.84498
10.4357
11.824
12.9913
13.9268
14.6265
15.0933
15.3362
15.3693
15.2108
14.882
14.4064
13.8084
13.1124
12.3423
11.5208
10.6686
9.80431
8.94424
8.10217
7.28945
6.51501
5.78555
5.10572
4.47837
3.90475
3.38479
2.91732
2.50032
2.13111
1.80657
1.52325
1.27759
1.06596
0.884794
0.730674
0.600351
0.490802
0.399251
0.323177
0.260318
0.208667
0.166457
0.132148
0.10441
0.0821018
0.0642551
0.0500512
0.0388044
0.0299444
0.023
0.0175842
0.0133816
0.0101365
0.0076431
0.00573665
0.00428605
0.00318764
0.00235988
0.00173904
0.00127556
0.00093112
0.000676233
0.000488323
0.000350174
0.000248696
0.00017394
0.000118321
7.59908e-05
4.23414e-05
1.35869e-05
0.856437
2.55146
4.19361
5.74986
7.19043
8.48973
9.62721
10.5878
11.3622
11.9467
12.3431
12.5579
12.6018
12.489
12.2363
11.8622
11.3861
10.8279
10.2067
9.54093
8.84767
8.14224
7.43814
6.7469
6.07808
5.43927
4.83626
4.27313
3.75247
3.27553
2.84247
2.4525
2.10409
1.79516
1.52322
1.28552
1.07915
0.901151
0.748609
0.618697
0.508731
0.416203
0.338804
0.274432
0.221197
0.177419
0.141614
0.11249
0.0889271
0.0699645
0.0547841
0.0426948
0.0331167
0.025567
0.0196464
0.0150266
0.0114399
0.00866905
0.00653909
0.0049098
0.00366957
0.00273006
0.00202178
0.00149036
0.00109348
0.000798442
0.000580036
0.000418968
0.000300515
0.000213477
0.000149339
0.000101605
6.52652e-05
3.6369e-05
1.16711e-05
0.693436
2.06614
3.39686
4.65934
5.82981
6.88776
7.81661
8.60404
9.24226
9.72791
10.0619
10.2491
10.2977
10.2185
10.0249
9.7313
9.35333
8.90675
8.40712
7.86934
7.30727
6.73352
6.15923
5.59397
5.04573
4.52093
4.02451
3.56002
3.12977
2.73497
2.37589
2.05203
1.76226
1.50496
1.27817
1.07967
0.907129
0.758136
0.630308
0.521328
0.428987
0.351214
0.286098
0.231894
0.187031
0.150107
0.119885
0.0952841
0.0753666
0.059327
0.0464783
0.0362396
0.028123
0.0217216
0.0166988
0.0127775
0.00973158
0.00737742
0.00556692
0.00418138
0.00312625
0.00232663
0.00172358
0.00127094
0.000932778
0.000681296
0.000495072
0.000357693
0.000256629
0.000182345
0.000127588
8.68221e-05
5.57779e-05
3.10856e-05
9.97612e-06
0.559966
1.66867
2.74408
3.76534
4.71352
5.57223
6.3281
6.97114
7.49485
7.89628
8.17583
8.33701
8.38605
8.33145
8.18348
7.95368
7.65435
7.29812
6.89747
6.46443
6.01027
5.54526
5.07856
4.61807
4.17043
3.74103
3.33404
2.95252
2.5985
2.27311
1.97669
1.70894
1.46903
1.25572
1.06745
0.902461
0.758876
0.634749
0.52814
0.437156
0.359987
0.294932
0.240414
0.194993
0.157368
0.126377
0.100992
0.0803138
0.0635602
0.0500595
0.0392379
0.0306091
0.0237647
0.0183637
0.0141235
0.0108115
0.00823763
0.00624732
0.00471594
0.0035435
0.00265026
0.00197307
0.00146213
0.00107849
0.000791778
0.00057848
0.000420478
0.000303879
0.000218076
0.000154988
0.000108469
7.38262e-05
4.7436e-05
2.64394e-05
8.4855e-06
0.450931
1.3439
2.21051
3.03422
3.79998
4.49472
5.1077
5.63084
6.05877
6.38893
6.62141
6.75875
6.80569
6.76879
6.65608
6.47664
6.24022
5.95685
5.63654
5.28897
4.92323
4.54769
4.16981
3.79608
3.43201
3.08206
2.74976
2.4377
2.14764
1.88062
1.63699
1.41662
1.21888
1.04283
0.887257
0.750759
0.63183
0.528904
0.44041
0.364811
0.300628
0.246471
0.201045
0.163168
0.131766
0.105881
0.084662
0.0673648
0.0533413
0.0420331
0.0329631
0.0257268
0.0199835
0.0154488
0.0118869
0.00910321
0.00693882
0.00526438
0.00397545
0.0029882
0.00223573
0.00166502
0.00123426
0.000910701
0.000668798
0.000488773
0.000355374
0.000256898
0.000184407
0.000131091
9.17645e-05
6.24684e-05
4.01443e-05
2.23777e-05
7.18235e-06
0.362078
1.07921
1.7755
2.43787
3.05437
3.61459
4.10997
4.53395
4.88217
5.15242
5.34458
5.46052
5.50383
5.47957
5.39399
5.25424
5.06799
4.84323
4.58793
4.30985
4.01632
3.7141
3.40926
3.1071
2.81214
2.52808
2.25786
2.00367
1.76703
1.54883
1.34948
1.16889
1.00664
0.862002
0.734028
0.621617
0.523564
0.438615
0.365503
0.302982
0.249853
0.204982
0.167313
0.135877
0.109795
0.0882783
0.0706277
0.056229
0.0445475
0.0351218
0.0275569
0.0215177
0.0167218
0.0129331
0.00995553
0.00762736
0.00581623
0.00441442
0.00333485
0.0025076
0.00187681
0.0013982
0.00103681
0.000765255
0.000562159
0.00041096
0.000298882
0.000216119
0.000155175
0.000110336
7.72533e-05
5.25999e-05
3.38077e-05
1.88475e-05
6.04967e-06
0.289866
0.864058
1.42181
1.95278
2.44752
2.89777
3.29669
3.63902
3.92121
4.14138
4.29932
4.39638
4.43527
4.41991
4.35515
4.24658
4.10026
3.9225
3.71965
3.4979
3.26312
3.02076
2.77574
2.53236
2.29432
2.06466
1.84582
1.63962
1.44736
1.26983
1.1074
0.960068
0.827526
0.709226
0.604433
0.512279
0.43181
0.362022
0.301899
0.250436
0.206663
0.169662
0.138573
0.112608
0.0910472
0.0732473
0.0586353
0.046707
0.0370233
0.0292045
0.0229255
0.0179099
0.0139245
0.0107744
0.00829742
0.00635967
0.00485151
0.00368365
0.00278385
0.00209404
0.00156784
0.00116842
0.000866706
0.000639905
0.00047022
0.000343851
0.000250146
0.000180928
0.00012994
9.24159e-05
6.47201e-05
4.40747e-05
2.83327e-05
1.57969e-05
5.07079e-06
0.231343
0.689666
1.13505
1.55933
1.95506
2.3157
2.6358
2.91117
3.13891
3.31746
3.44657
3.52721
3.56142
3.55221
3.50337
3.41925
3.30462
3.16445
3.00377
2.82751
2.64037
2.44671
2.25049
2.0552
1.86383
1.67889
1.50237
1.33579
1.18024
1.03641
0.904641
0.784963
0.677166
0.580839
0.495413
0.420208
0.354471
0.297401
0.248188
0.206024
0.170128
0.13976
0.114223
0.0928769
0.0751389
0.060484
0.0484451
0.0386107
0.0306216
0.024167
0.0189803
0.0148348
0.0115391
0.00893259
0.00688196
0.00527695
0.00402717
0.00305893
0.0023126
0.00174019
0.00130337
0.000971651
0.000720987
0.000532487
0.000391406
0.000286302
0.00020834
0.00015073
0.000108281
7.70298e-05
5.39568e-05
3.67519e-05
2.36289e-05
1.31758e-05
4.22964e-06
0.184052
0.54873
0.903241
1.24117
1.55666
1.84452
2.10046
2.32112
2.50417
2.64833
2.75332
2.81983
2.84943
2.8444
2.80769
2.74269
2.65313
2.54293
2.41606
2.27643
2.12777
1.97358
1.81702
1.6609
1.50766
1.35931
1.2175
1.08348
0.958161
0.842127
0.735683
0.638889
0.551601
0.473513
0.404185
0.343089
0.28963
0.243174
0.203076
0.16869
0.139391
0.114583
0.0937043
0.0762388
0.0617145
0.049706
0.0398343
0.0317648
0.0252052
0.0199022
0.0156384
0.0122286
0.00951615
0.00736985
0.00568039
0.00435741
0.00332674
0.00252788
0.00191183
0.00143914
0.00107826
0.000804109
0.000596863
0.000440954
0.000324224
0.00023723
0.000172679
0.000124965
8.97946e-05
6.38942e-05
4.47656e-05
3.04972e-05
1.96106e-05
1.09364e-05
3.51095e-06
0.145955
0.435181
0.71644
0.984703
1.23536
1.46433
1.66823
1.84438
1.99092
2.10679
2.19174
2.24624
2.27148
2.26922
2.24172
2.19163
2.12187
2.03549
1.93564
1.82539
1.70772
1.58538
1.46093
1.3366
1.21436
1.09583
0.982367
0.874984
0.774436
0.68122
0.595602
0.517654
0.447282
0.384257
0.328245
0.278833
0.235554
0.19791
0.165388
0.137475
0.113671
0.0934986
0.0765085
0.0622849
0.0504479
0.0406543
0.0325979
0.026008
0.0206477
0.0163116
0.0128232
0.0100318
0.00781016
0.00605127
0.00466605
0.00358077
0.00273488
0.00207894
0.00157288
0.00118442
0.000887728
0.000662242
0.00049172
0.000363391
0.000267275
0.000195619
0.000142431
0.000103103
7.41044e-05
5.27423e-05
3.69604e-05
2.51846e-05
1.6197e-05
9.03365e-06
2.90028e-06
0.115362
0.343987
0.566385
0.778622
0.977082
1.15857
1.32042
1.4605
1.57734
1.67008
1.73847
1.78285
1.80412
1.80362
1.7831
1.7446
1.69041
1.62292
1.54459
1.45784
1.36501
1.2683
1.16973
1.0711
0.973961
0.879642
0.789217
0.703527
0.623189
0.548617
0.480044
0.417543
0.361055
0.310411
0.265356
0.225572
0.190693
0.160327
0.134069
0.111514
0.0922632
0.0759363
0.0621745
0.0506451
0.0410432
0.0330935
0.0265495
0.0211932
0.0168337
0.013305
0.0104645
0.00819036
0.00637934
0.0049448
0.00381446
0.00292844
0.00223753
0.00170152
0.00128781
0.000970103
0.000727345
0.000542779
0.000403149
0.000298029
0.000219268
0.00016053
0.000116915
8.4655e-05
6.08609e-05
4.33269e-05
3.03689e-05
2.06972e-05
1.3313e-05
7.42597e-06
2.38425e-06
0.0908741
0.270987
0.446245
0.61358
0.770166
0.913507
1.0415
1.15248
1.24527
1.31916
1.37395
1.40988
1.42761
1.42818
1.41292
1.38343
1.34146
1.28889
1.22763
1.1596
1.08663
1.01046
0.932688
0.854732
0.777844
0.703082
0.63131
0.563209
0.499284
0.439878
0.385188
0.335287
0.29014
0.249623
0.213542
0.181651
0.153667
0.129282
0.108179
0.0900358
0.0745385
0.0613848
0.0502895
0.0409872
0.0332347
0.0268118
0.0215212
0.017188
0.0136591
0.0108011
0.0084991
0.00665506
0.00518579
0.00402136
0.00310339
0.00238349
0.00182186
0.00138595
0.00104935
0.000790752
0.000593079
0.000442731
0.000328945
0.000243249
0.000179019
0.000131101
9.55089e-05
6.91739e-05
4.97438e-05
3.54211e-05
2.4833e-05
1.69275e-05
1.08899e-05
6.07504e-06
1.9506e-06
0.0713393
0.212747
0.350381
0.481853
0.604963
0.717764
0.818609
0.906194
0.979582
1.03822
1.08191
1.11083
1.12547
1.12663
1.11533
1.09279
1.06039
1.01957
0.97183
0.918662
0.861508
0.801732
0.74059
0.679213
0.61859
0.559563
0.502825
0.448923
0.398268
0.35114
0.307708
0.268037
0.23211
0.199835
0.171067
0.145617
0.123265
0.103771
0.0868863
0.0723586
0.0599397
0.0493911
0.0404866
0.0330159
0.0267856
0.0216204
0.017363
0.013874
0.0110309
0.00872687
0.0068701
0.00538189
0.00419552
0.00325481
0.00251285
0.00193071
0.00147633
0.00112352
0.000850961
0.000641478
0.000481285
0.000359396
0.000267113
0.000197587
0.000145458
0.000106554
7.76478e-05
5.62528e-05
4.04624e-05
2.88189e-05
2.02087e-05
1.37779e-05
8.86507e-06
4.946e-06
1.58819e-06
0.0558091
0.166442
0.27415
0.37708
0.473525
0.561969
0.641128
0.709984
0.767797
0.814122
0.8488
0.871949
0.883941
0.885373
0.877035
0.859867
0.834924
0.803332
0.766253
0.724846
0.68024
0.6335
0.585616
0.537476
0.489863
0.443443
0.39877
0.356281
0.316306
0.279075
0.244728
0.213325
0.184857
0.159259
0.136423
0.116202
0.0984274
0.0829133
0.0694647
0.0578843
0.0479776
0.0395567
0.0324432
0.026471
0.0214871
0.0173526
0.0139426
0.0111464
0.00886638
0.00701773
0.00552709
0.00433171
0.00337827
0.0026219
0.00202502
0.0015565
0.00119065
0.000906439
0.000686791
0.000517903
0.0003887
0.000290355
0.000215868
0.00015973
0.000117623
8.61891e-05
6.2825e-05
4.55264e-05
3.27552e-05
2.3335e-05
1.63667e-05
1.11607e-05
7.18215e-06
4.00748e-06
1.2869e-06
0.0435057
0.129756
0.213745
0.294041
0.369322
0.438413
0.500317
0.554239
0.599601
0.636047
0.663445
0.681877
0.691619
0.693125
0.686998
0.673958
0.654818
0.630447
0.601744
0.569609
0.53492
0.498509
0.461149
0.423536
0.386286
0.349926
0.314893
0.281536
0.25012
0.22083