/*--------------------------------*- C++ -*----------------------------------*\
  =========                 |
  \\      /  F ield         | OpenFOAM: The Open Source CFD Toolbox
   \\    /   O peration     | Website:  https://openfoam.org
    \\  /    A nd           | Version:  10
     \\/     M anipulation  |
\*---------------------------------------------------------------------------*/
FoamFile
{
    format      ascii;
    class       volScalarField;
    location    "468";
    object      T;
}
// * * * * * * * * * * * * * * * * * * * * * * * * * * * * * * * * * * * * * //

dimensions      [0 0 0 1 0 0 0];

internalField   nonuniform List<scalar> 
11250
(
249.886
167.688
139.577
127.244
120.548
116.323
113.383
111.199
109.502
108.14
107.019
106.08
105.282
104.596
104.003
103.487
103.035
102.64
102.292
101.987
101.719
101.483
101.277
101.096
100.938
100.801
100.681
100.577
100.488
100.411
100.345
100.288
100.24
100.199
100.165
100.136
100.111
100.091
100.074
100.06
100.048
100.039
100.031
100.025
100.02
100.016
100.012
100.01
100.008
100.006
100.005
100.004
100.003
100.002
100.002
100.001
100.001
100.001
100.001
100
100
100
100
100
100
100
100
100
100
100
100
100
100
100
100
331.632
248.982
202.959
176.103
159.18
147.695
139.404
133.124
128.187
124.194
120.892
118.116
115.751
113.716
111.952
110.415
109.069
107.889
106.852
105.941
105.14
104.436
103.819
103.279
102.807
102.395
102.038
101.728
101.46
101.229
101.032
100.863
100.718
100.596
100.493
100.406
100.333
100.272
100.221
100.18
100.145
100.117
100.093
100.074
100.059
100.047
100.037
100.029
100.023
100.018
100.014
100.01
100.008
100.006
100.005
100.004
100.003
100.002
100.002
100.001
100.001
100.001
100
100
100
100
100
100
100
100
100
100
100
100
100
359.293
293.658
247.189
215.05
192.404
175.905
163.454
153.749
145.975
139.606
134.293
129.795
125.945
122.621
119.731
117.207
114.994
113.05
111.34
109.836
108.512
107.349
106.329
105.434
104.653
103.972
103.379
102.865
102.422
102.04
101.712
101.431
101.192
100.989
100.818
100.674
100.553
100.452
100.368
100.298
100.241
100.193
100.155
100.124
100.098
100.078
100.061
100.048
100.037
100.029
100.023
100.017
100.013
100.01
100.008
100.006
100.004
100.003
100.003
100.002
100.001
100.001
100.001
100.001
100
100
100
100
100
100
100
100
100
100
100
371.182
319.182
277.116
244.543
219.524
200.124
184.82
172.514
162.435
154.045
146.963
140.917
135.707
131.186
127.239
123.781
120.742
118.067
115.711
113.634
111.805
110.197
108.784
107.545
106.462
105.517
104.695
103.982
103.366
102.835
102.38
101.99
101.658
101.376
101.138
100.937
100.769
100.628
100.512
100.415
100.335
100.269
100.216
100.172
100.137
100.108
100.085
100.067
100.052
100.041
100.031
100.024
100.019
100.014
100.011
100.008
100.006
100.005
100.004
100.003
100.002
100.001
100.001
100.001
100.001
100
100
100
100
100
100
100
100
100
100
377.441
334.796
297.588
266.531
241.092
220.323
203.276
189.149
177.313
167.291
158.72
151.329
144.91
139.306
134.391
130.067
126.256
122.893
119.924
117.303
114.991
112.955
111.166
109.595
108.221
107.021
105.977
105.07
104.287
103.612
103.032
102.536
102.113
101.754
101.451
101.195
100.981
100.801
100.652
100.529
100.427
100.344
100.275
100.219
100.174
100.138
100.109
100.085
100.067
100.052
100.04
100.031
100.024
100.018
100.014
100.011
100.008
100.006
100.004
100.003
100.002
100.002
100.001
100.001
100.001
100.001
100
100
100
100
100
100
100
100
100
381.238
345
311.958
282.965
258.07
236.899
218.924
203.618
190.516
179.231
169.451
160.928
153.464
146.903
141.119
136.008
131.488
127.486
123.945
120.813
118.046
115.605
113.457
111.57
109.917
108.473
107.215
106.123
105.178
104.364
103.664
103.065
102.555
102.121
101.754
101.445
101.186
100.97
100.789
100.64
100.517
100.416
100.333
100.266
100.211
100.167
100.132
100.103
100.081
100.063
100.049
100.038
100.029
100.022
100.017
100.013
100.01
100.007
100.005
100.004
100.003
100.002
100.002
100.001
100.001
100.001
100
100
100
100
100
100
100
100
100
383.762
352.042
322.336
295.379
271.426
250.396
232.039
216.036
202.068
189.844
179.112
169.662
161.315
153.928
147.377
141.563
136.4
131.815
127.747
124.141
120.949
118.129
115.643
113.457
111.54
109.864
108.403
107.134
106.036
105.088
104.273
103.576
102.981
102.475
102.048
101.687
101.385
101.132
100.922
100.748
100.604
100.486
100.389
100.31
100.247
100.195
100.154
100.121
100.094
100.073
100.057
100.044
100.034
100.026
100.02
100.015
100.011
100.008
100.006
100.005
100.004
100.003
100.002
100.001
100.001
100.001
100.001
100
100
100
100
100
100
100
100
385.541
357.112
330.03
304.884
281.973
261.361
242.959
226.597
212.069
199.172
187.713
177.519
168.442
160.352
153.138
146.704
140.968
135.857
131.309
127.268
123.684
120.513
117.712
115.247
113.082
111.188
109.535
108.099
106.854
105.779
104.855
104.064
103.389
102.815
102.329
101.92
101.576
101.288
101.049
100.851
100.688
100.553
100.443
100.354
100.281
100.222
100.175
100.137
100.107
100.084
100.065
100.05
100.038
100.029
100.022
100.017
100.013
100.01
100.007
100.005
100.004
100.003
100.002
100.002
100.001
100.001
100.001
100
100
100
100
100
100
100
100
386.848
360.881
335.863
312.259
290.354
270.274
252.023
235.525
220.663
207.301
195.298
184.521
174.85
166.172
158.391
151.418
145.177
139.598
134.619
130.183
126.242
122.747
119.656
116.931
114.537
112.438
110.606
109.012
107.63
106.436
105.409
104.529
103.777
103.138
102.597
102.141
101.758
101.438
101.171
100.95
100.767
100.618
100.495
100.395
100.314
100.248
100.196
100.154
100.12
100.093
100.072
100.056
100.043
100.033
100.025
100.019
100.014
100.011
100.008
100.006
100.004
100.003
100.002
100.002
100.001
100.001
100.001
100
100
100
100
100
100
100
100
387.836
363.753
340.369
318.053
297.06
277.537
259.537
243.046
228.007
214.335
201.936
190.71
180.562
171.4
163.14
155.706
149.024
143.032
137.669
132.879
128.613
124.824
121.468
118.505
115.898
113.611
111.612
109.871
108.361
107.055
105.931
104.967
104.144
103.444
102.851
102.351
101.931
101.579
101.287
101.044
100.844
100.679
100.544
100.434
100.345
100.273
100.215
100.169
100.132
100.103
100.08
100.061
100.047
100.036
100.028
100.021
100.016
100.012
100.009
100.007
100.005
100.004
100.003
100.002
100.001
100.001
100.001
100.001
100
100
100
100
100
100
100
388.599
365.983
343.902
322.653
302.461
283.472
265.766
249.367
234.257
220.391
207.71
196.143
185.617
176.06
167.401
159.574
152.513
146.16
140.458
135.353
130.797
126.743
123.146
119.966
117.163
114.703
112.55
110.674
109.044
107.635
106.421
105.38
104.49
103.732
103.09
102.549
102.094
101.713
101.396
101.133
100.915
100.737
100.591
100.471
100.375
100.297
100.234
100.184
100.143
100.112
100.087
100.067
100.051
100.039
100.03
100.023
100.017
100.013
100.01
100.007
100.005
100.004
100.003
100.002
100.002
100.001
100.001
100.001
100
100
100
100
100
100
100
389.198
367.74
346.705
326.339
306.836
288.338
270.935
254.672
239.56
225.583
212.706
200.883
190.062
180.187
171.198
163.039
155.655
148.989
142.99
137.608
132.794
128.502
124.688
121.311
118.332
115.713
113.42
111.419
109.68
108.175
106.878
105.764
104.812
104.002
103.314
102.734
102.246
101.838
101.498
101.216
100.983
100.791
100.634
100.506
100.403
100.319
100.251
100.197
100.154
100.12
100.093
100.072
100.055
100.042
100.032
100.024
100.018
100.014
100.01
100.008
100.006
100.004
100.003
100.002
100.002
100.001
100.001
100.001
100
100
100
100
100
100
100
389.674
369.139
348.951
329.314
310.399
292.339
275.227
259.121
244.05
230.018
217.01
205
193.95
183.819
174.56
166.124
158.464
151.531
145.274
139.648
134.606
130.103
126.096
122.543
119.404
116.642
114.22
112.106
110.267
108.675
107.301
106.121
105.112
104.252
103.523
102.907
102.389
101.955
101.594
101.294
101.046
100.842
100.675
100.539
100.429
100.339
100.268
100.21
100.164
100.128
100.099
100.077
100.059
100.045
100.034
100.026
100.02
100.015
100.011
100.008
100.006
100.005
100.003
100.002
100.002
100.001
100.001
100.001
100
100
100
100
100
100
100
390.055
370.265
350.764
331.73
313.313
295.637
278.794
262.851
247.845
233.797
220.705
208.558
197.333
186.998
177.519
168.854
160.962
153.799
147.321
141.484
136.242
131.553
127.373
123.663
120.381
117.49
114.953
112.736
110.807
109.134
107.691
106.45
105.388
104.483
103.715
103.066
102.521
102.064
101.682
101.366
101.105
100.89
100.713
100.57
100.453
100.359
100.283
100.222
100.174
100.135
100.105
100.081
100.062
100.048
100.036
100.028
100.021
100.016
100.012
100.009
100.006
100.005
100.004
100.003
100.002
100.001
100.001
100.001
100.001
100
100
100
100
100
100
390.364
371.176
352.237
333.701
315.705
298.361
281.762
265.975
251.048
237.008
223.866
211.622
200.263
189.768
180.11
171.256
163.17
155.813
149.145
143.124
137.709
132.856
128.525
124.675
121.266
118.26
115.62
113.31
111.299
109.554
108.047
106.751
105.641
104.695
103.892
103.213
102.642
102.163
101.764
101.433
101.159
100.933
100.749
100.598
100.476
100.377
100.297
100.233
100.182
100.142
100.11
100.085
100.065
100.05
100.038
100.029
100.022
100.016
100.012
100.009
100.007
100.005
100.004
100.003
100.002
100.001
100.001
100.001
100.001
100
100
100
100
100
100
390.614
371.917
353.439
335.316
317.673
300.616
284.233
268.592
253.747
239.731
226.563
214.251
202.792
192.171
182.368
173.358
165.11
157.59
150.76
144.582
139.016
134.021
129.558
125.585
122.063
118.955
116.222
113.83
111.745
109.935
108.371
107.026
105.873
104.889
104.054
103.348
102.753
102.255
101.839
101.494
101.209
100.974
100.781
100.624
100.496
100.393
100.31
100.243
100.19
100.148
100.115
100.089
100.068
100.052
100.04
100.03
100.023
100.017
100.013
100.01
100.007
100.005
100.004
100.003
100.002
100.002
100.001
100.001
100.001
100
100
100
100
100
100
390.819
372.522
354.423
336.643
319.297
302.484
286.29
270.783
256.018
242.035
228.857
216.5
204.964
194.245
184.327
175.19
166.807
159.15
152.182
145.87
140.175
135.057
130.478
126.397
122.777
119.578
116.764
114.298
112.148
110.28
108.665
107.274
106.082
105.065
104.201
103.47
102.855
102.339
101.908
101.55
101.254
101.01
100.811
100.648
100.515
100.408
100.322
100.253
100.198
100.154
100.119
100.092
100.071
100.054
100.041
100.031
100.024
100.018
100.013
100.01
100.007
100.005
100.004
100.003
100.002
100.002
100.001
100.001
100.001
100
100
100
100
100
100
390.986
373.019
355.23
337.735
320.638
304.033
288.002
272.615
257.927
243.98
230.804
218.416
206.825
196.029
186.019
176.778
168.285
160.512
153.429
147.003
141.196
135.973
131.293
127.119
123.412
120.134
117.248
114.717
112.509
110.589
108.929
107.498
106.272
105.224
104.334
103.581
102.946
102.414
101.97
101.601
101.295
101.044
100.838
100.669
100.533
100.422
100.333
100.261
100.205
100.159
100.124
100.095
100.073
100.056
100.043
100.033
100.025
100.018
100.014
100.01
100.008
100.006
100.004
100.003
100.002
100.002
100.001
100.001
100.001
100
100
100
100
100
100
391.123
373.426
355.895
338.635
321.746
305.317
289.428
274.147
259.53
245.62
232.451
220.045
208.413
197.558
187.474
178.149
169.565
161.696
154.516
147.993
142.092
136.778
132.012
127.757
123.975
120.627
117.678
115.09
112.831
110.866
109.165
107.699
106.441
105.367
104.454
103.68
103.029
102.482
102.026
101.647
101.333
101.074
100.862
100.689
100.548
100.434
100.343
100.269
100.211
100.164
100.127
100.098
100.076
100.058
100.044
100.034
100.025
100.019
100.014
100.011
100.008
100.006
100.004
100.003
100.002
100.002
100.001
100.001
100.001
100
100
100
100
100
100
391.236
373.761
356.442
339.378
322.663
306.382
290.614
275.425
260.872
246.999
233.842
221.426
209.764
198.863
188.721
179.328
170.669
162.721
155.46
148.855
142.874
137.482
132.642
128.317
124.47
121.063
118.058
115.421
113.116
111.111
109.375
107.877
106.592
105.494
104.56
103.77
103.103
102.544
102.076
101.688
101.366
101.101
100.884
100.707
100.562
100.446
100.352
100.276
100.216
100.168
100.131
100.101
100.078
100.059
100.045
100.034
100.026
100.02
100.015
100.011
100.008
100.006
100.004
100.003
100.002
100.002
100.001
100.001
100.001
100
100
100
100
100
100
391.329
374.037
356.893
339.991
323.421
307.265
291.6
276.491
261.995
248.157
235.014
222.592
210.909
199.974
189.785
180.338
171.617
163.604
156.275
149.602
143.553
138.095
133.192
128.807
124.904
121.445
118.392
115.712
113.368
111.328
109.56
108.036
106.727
105.608
104.655
103.849
103.169
102.598
102.121
101.725
101.396
101.126
100.904
100.722
100.575
100.456
100.36
100.283
100.221
100.172
100.134
100.103
100.079
100.061
100.046
100.035
100.027
100.02
100.015
100.011
100.008
100.006
100.005
100.003
100.002
100.002
100.001
100.001
100.001
100
100
100
100
100
100
391.406
374.264
357.264
340.496
324.047
307.997
292.419
277.379
262.932
249.126
235.998
223.575
211.878
200.915
190.691
181.199
172.428
164.361
156.976
150.245
144.14
138.626
133.669
129.233
125.282
121.778
118.685
115.967
113.589
111.519
109.724
108.175
106.845
105.707
104.739
103.919
103.227
102.647
102.161
101.757
101.423
101.147
100.921
100.736
100.586
100.465
100.367
100.288
100.226
100.176
100.136
100.105
100.081
100.062
100.047
100.036
100.027
100.02
100.015
100.011
100.008
100.006
100.005
100.003
100.002
100.002
100.001
100.001
100.001
100
100
100
100
100
100
391.469
374.451
357.57
340.914
324.565
308.602
293.098
278.117
263.714
249.936
236.822
224.401
212.693
201.711
191.457
181.93
173.119
165.008
157.576
150.798
144.644
139.083
134.081
129.602
125.61
122.068
118.939
116.189
113.782
111.685
109.867
108.297
106.949
105.795
104.813
103.981
103.279
102.689
102.196
101.786
101.447
101.167
100.937
100.749
100.596
100.473
100.373
100.293
100.23
100.179
100.139
100.107
100.082
100.063
100.048
100.037
100.028
100.021
100.016
100.012
100.009
100.006
100.005
100.003
100.003
100.002
100.001
100.001
100.001
100
100
100
100
100
100
391.52
374.605
357.822
341.257
324.992
309.103
293.661
278.729
264.364
250.611
237.511
225.093
213.379
202.381
192.105
182.549
173.705
165.558
158.087
151.27
145.076
139.476
134.436
129.92
125.893
122.318
119.16
116.382
113.95
111.83
109.992
108.404
107.04
105.872
104.878
104.035
103.324
102.727
102.227
101.812
101.467
101.183
100.95
100.76
100.605
100.48
100.379
100.298
100.233
100.182
100.141
100.109
100.084
100.064
100.049
100.037
100.028
100.021
100.016
100.012
100.009
100.007
100.005
100.004
100.003
100.002
100.001
100.001
100.001
100
100
100
100
100
100
391.563
374.732
358.029
341.54
325.344
309.516
294.126
279.236
264.903
251.173
238.086
225.671
213.952
202.943
192.65
183.071
174.201
166.024
158.522
151.671
145.445
139.812
134.739
130.192
126.136
122.534
119.35
116.548
114.095
111.956
110.1
108.497
107.118
105.939
104.934
104.082
103.363
102.759
102.254
101.834
101.486
101.198
100.962
100.77
100.613
100.486
100.384
100.302
100.236
100.184
100.143
100.11
100.085
100.065
100.05
100.038
100.028
100.021
100.016
100.012
100.009
100.007
100.005
100.004
100.003
100.002
100.001
100.001
100.001
100
100
100
100
100
100
391.598
374.835
358.199
341.773
325.633
309.856
294.509
279.655
265.349
251.639
238.563
226.153
214.431
203.413
193.106
183.51
174.618
166.417
158.889
152.011
145.757
140.097
134.997
130.425
126.344
122.718
119.513
116.691
114.219
112.064
110.193
108.576
107.186
105.997
104.983
104.123
103.398
102.788
102.278
101.853
101.501
101.211
100.973
100.778
100.62
100.491
100.388
100.305
100.239
100.186
100.144
100.112
100.086
100.066
100.05
100.038
100.029
100.022
100.016
100.012
100.009
100.007
100.005
100.004
100.003
100.002
100.001
100.001
100.001
100.001
100
100
100
100
100
391.626
374.92
358.339
341.963
325.871
310.135
294.825
280.001
265.718
252.024
238.958
226.552
214.83
203.805
193.488
183.877
174.967
166.747
159.198
152.298
146.021
140.338
135.216
130.622
126.521
122.876
119.651
116.813
114.326
112.156
110.273
108.645
107.245
106.046
105.025
104.159
103.427
102.812
102.298
101.87
101.515
101.222
100.982
100.785
100.626
100.496
100.392
100.308
100.241
100.188
100.146
100.113
100.087
100.066
100.051
100.039
100.029
100.022
100.016
100.012
100.009
100.007
100.005
100.004
100.003
100.002
100.001
100.001
100.001
100.001
100
100
100
100
100
391.649
374.99
358.453
342.119
326.066
310.365
295.084
280.285
266.022
252.342
239.285
226.883
215.16
204.131
193.805
184.183
175.26
167.023
159.457
152.539
146.244
140.542
135.401
130.789
126.67
123.009
119.769
116.917
114.417
112.235
110.341
108.704
107.295
106.089
105.061
104.189
103.452
102.833
102.316
101.884
101.527
101.232
100.99
100.792
100.631
100.5
100.395
100.311
100.243
100.19
100.147
100.114
100.088
100.067
100.051
100.039
100.029
100.022
100.017
100.012
100.009
100.007
100.005
100.004
100.003
100.002
100.001
100.001
100.001
100.001
100
100
100
100
100
391.669
375.046
358.546
342.247
326.225
310.553
295.297
280.518
266.271
252.604
239.555
227.157
215.433
204.401
194.068
184.437
175.503
167.254
159.673
152.741
146.43
140.712
135.557
130.93
126.796
123.121
119.869
117.005
114.493
112.302
110.399
108.754
107.338
106.125
105.092
104.215
103.474
102.852
102.331
101.897
101.537
101.24
100.996
100.797
100.635
100.504
100.398
100.313
100.245
100.191
100.148
100.115
100.088
100.068
100.052
100.039
100.03
100.022
100.017
100.012
100.009
100.007
100.005
100.004
100.003
100.002
100.001
100.001
100.001
100.001
100
100
100
100
100
391.684
375.093
358.622
342.351
326.355
310.706
295.47
280.709
266.476
252.818
239.776
227.381
215.658
204.623
194.286
184.648
175.704
167.445
159.853
152.909
146.585
140.855
135.687
131.048
126.902
123.216
119.953
117.079
114.558
112.359
110.448
108.796
107.374
106.156
105.118
104.237
103.493
102.867
102.343
101.907
101.546
101.247
101.002
100.802
100.639
100.507
100.4
100.315
100.246
100.192
100.149
100.115
100.089
100.068
100.052
100.039
100.03
100.022
100.017
100.013
100.009
100.007
100.005
100.004
100.003
100.002
100.001
100.001
100.001
100.001
100
100
100
100
100
391.697
375.13
358.684
342.436
326.461
310.831
295.612
280.864
266.643
252.994
239.957
227.566
215.843
204.806
194.465
184.822
175.871
167.603
160.003
153.048
146.714
140.974
135.795
131.146
126.991
123.295
120.024
117.141
114.613
112.406
110.489
108.831
107.405
106.182
105.14
104.255
103.508
102.88
102.354
101.916
101.553
101.253
101.007
100.806
100.642
100.509
100.402
100.316
100.248
100.193
100.15
100.116
100.089
100.068
100.052
100.04
100.03
100.023
100.017
100.013
100.009
100.007
100.005
100.004
100.003
100.002
100.001
100.001
100.001
100.001
100
100
100
100
100
391.707
375.161
358.734
342.504
326.547
310.932
295.727
280.991
266.779
253.137
240.105
227.716
215.994
204.956
194.612
184.964
176.008
167.734
160.126
153.163
146.821
141.072
135.885
131.227
127.064
123.361
120.082
117.193
114.658
112.446
110.524
108.861
107.43
106.204
105.159
104.271
103.521
102.891
102.363
101.924
101.559
101.258
101.011
100.809
100.645
100.511
100.404
100.318
100.249
100.194
100.151
100.116
100.09
100.069
100.052
100.04
100.03
100.023
100.017
100.013
100.009
100.007
100.005
100.004
100.003
100.002
100.001
100.001
100.001
100.001
100
100
100
100
100
391.715
375.185
358.774
342.56
326.617
311.015
295.82
281.094
266.889
253.253
240.225
227.839
216.118
205.079
194.733
185.081
176.12
167.841
160.227
153.258
146.909
141.153
135.96
131.295
127.125
123.416
120.131
117.236
114.696
112.479
110.552
108.886
107.452
106.222
105.174
104.284
103.532
102.9
102.371
101.93
101.564
101.263
101.015
100.812
100.647
100.513
100.405
100.319
100.25
100.195
100.151
100.117
100.09
100.069
100.053
100.04
100.03
100.023
100.017
100.013
100.009
100.007
100.005
100.004
100.003
100.002
100.001
100.001
100.001
100.001
100
100
100
100
100
391.722
375.205
358.807
342.605
326.673
311.081
295.896
281.177
266.978
253.347
240.323
227.938
216.218
205.179
194.831
185.176
176.212
167.928
160.31
153.335
146.982
141.22
136.021
131.351
127.176
123.461
120.171
117.271
114.728
112.507
110.576
108.907
107.469
106.238
105.187
104.295
103.542
102.908
102.377
101.935
101.569
101.266
101.018
100.814
100.649
100.515
100.407
100.32
100.25
100.195
100.152
100.117
100.09
100.069
100.053
100.04
100.03
100.023
100.017
100.013
100.01
100.007
100.005
100.004
100.003
100.002
100.001
100.001
100.001
100.001
100
100
100
100
100
391.727
375.221
358.833
342.641
326.718
311.134
295.957
281.244
267.051
253.423
240.402
228.019
216.299
205.259
194.91
185.254
176.287
168
160.377
153.399
147.041
141.275
136.071
131.396
127.217
123.498
120.204
117.301
114.754
112.529
110.596
108.924
107.484
106.25
105.198
104.304
103.549
102.914
102.383
101.94
101.572
101.269
101.02
100.816
100.65
100.516
100.408
100.321
100.251
100.196
100.152
100.118
100.09
100.069
100.053
100.04
100.03
100.023
100.017
100.013
100.01
100.007
100.005
100.004
100.003
100.002
100.001
100.001
100.001
100.001
100
100
100
100
100
391.731
375.234
358.855
342.67
326.754
311.177
296.005
281.298
267.109
253.485
240.466
228.084
216.365
205.325
194.974
185.316
176.347
168.058
160.432
153.45
147.089
141.319
136.112
131.433
127.251
123.528
120.231
117.325
114.775
112.548
110.612
108.938
107.496
106.261
105.207
104.312
103.556
102.92
102.387
101.943
101.576
101.272
101.022
100.818
100.652
100.517
100.409
100.321
100.252
100.196
100.152
100.118
100.091
100.069
100.053
100.04
100.03
100.023
100.017
100.013
100.01
100.007
100.005
100.004
100.003
100.002
100.001
100.001
100.001
100.001
100
100
100
100
100
391.735
375.244
358.871
342.693
326.783
311.212
296.044
281.341
267.155
253.534
240.517
228.136
216.417
205.377
195.026
185.367
176.396
168.104
160.476
153.492
147.128
141.355
136.145
131.464
127.278
123.553
120.253
117.345
114.792
112.563
110.626
108.949
107.506
106.269
105.214
104.318
103.561
102.924
102.391
101.946
101.578
101.274
101.024
100.819
100.653
100.518
100.409
100.322
100.252
100.197
100.153
100.118
100.091
100.07
100.053
100.04
100.031
100.023
100.017
100.013
100.01
100.007
100.005
100.004
100.003
100.002
100.001
100.001
100.001
100.001
100
100
100
100
100
391.738
375.252
358.885
342.711
326.806
311.239
296.076
281.375
267.192
253.573
240.558
228.178
216.46
205.42
195.068
185.408
176.435
168.142
160.512
153.526
147.159
141.384
136.172
131.488
127.3
123.573
120.271
117.361
114.806
112.576
110.636
108.959
107.514
106.276
105.22
104.323
103.565
102.927
102.394
101.949
101.58
101.275
101.025
100.82
100.654
100.519
100.41
100.322
100.253
100.197
100.153
100.118
100.091
100.07
100.053
100.04
100.031
100.023
100.017
100.013
100.01
100.007
100.005
100.004
100.003
100.002
100.001
100.001
100.001
100.001
100
100
100
100
100
391.74
375.259
358.895
342.726
326.825
311.261
296.1
281.403
267.222
253.604
240.59
228.212
216.493
205.453
195.101
185.44
176.467
168.172
160.541
153.553
147.184
141.408
136.193
131.508
127.318
123.589
120.286
117.373
114.818
112.586
110.645
108.966
107.521
106.282
105.225
104.327
103.568
102.93
102.396
101.951
101.582
101.277
101.026
100.821
100.655
100.519
100.41
100.323
100.253
100.197
100.153
100.118
100.091
100.07
100.053
100.04
100.031
100.023
100.017
100.013
100.01
100.007
100.005
100.004
100.003
100.002
100.001
100.001
100.001
100.001
100
100
100
100
100
391.742
375.264
358.904
342.738
326.839
311.278
296.12
281.425
267.245
253.629
240.616
228.238
216.52
205.48
195.128
185.466
176.492
168.196
160.564
153.574
147.205
141.427
136.211
131.524
127.333
123.602
120.298
117.384
114.827
112.594
110.652
108.973
107.526
106.286
105.229
104.33
103.571
102.933
102.398
101.953
101.583
101.278
101.027
100.822
100.655
100.52
100.411
100.323
100.253
100.197
100.153
100.118
100.091
100.07
100.053
100.041
100.031
100.023
100.017
100.013
100.01
100.007
100.005
100.004
100.003
100.002
100.001
100.001
100.001
100.001
100
100
100
100
100
391.743
375.268
358.911
342.747
326.851
311.292
296.136
281.442
267.264
253.649
240.637
228.259
216.542
205.501
195.149
185.487
176.512
168.215
160.582
153.592
147.221
141.442
136.225
131.537
127.344
123.613
120.307
117.392
114.834
112.6
110.658
108.978
107.53
106.29
105.232
104.333
103.574
102.935
102.4
101.954
101.584
101.279
101.028
100.823
100.656
100.52
100.411
100.323
100.253
100.198
100.153
100.119
100.091
100.07
100.053
100.041
100.031
100.023
100.017
100.013
100.01
100.007
100.005
100.004
100.003
100.002
100.001
100.001
100.001
100.001
100
100
100
100
100
391.744
375.271
358.916
342.754
326.86
311.303
296.148
281.455
267.279
253.664
240.653
228.276
216.558
205.518
195.165
185.503
176.528
168.231
160.596
153.605
147.234
141.454
136.236
131.547
127.353
123.621
120.314
117.399
114.84
112.605
110.663
108.982
107.534
106.293
105.234
104.335
103.575
102.936
102.401
101.955
101.585
101.28
101.029
100.823
100.656
100.521
100.411
100.324
100.253
100.198
100.153
100.119
100.091
100.07
100.053
100.041
100.031
100.023
100.017
100.013
100.01
100.007
100.005
100.004
100.003
100.002
100.001
100.001
100.001
100.001
100
100
100
100
100
391.745
375.274
358.92
342.76
326.867
311.311
296.157
281.466
267.29
253.677
240.665
228.289
216.572
205.531
195.178
185.516
176.54
168.243
160.608
153.616
147.244
141.463
136.244
131.555
127.361
123.628
120.32
117.404
114.845
112.61
110.666
108.985
107.537
106.295
105.236
104.337
103.577
102.937
102.402
101.956
101.586
101.28
101.029
100.824
100.656
100.521
100.411
100.324
100.254
100.198
100.154
100.119
100.091
100.07
100.053
100.041
100.031
100.023
100.017
100.013
100.01
100.007
100.005
100.004
100.003
100.002
100.001
100.001
100.001
100.001
100
100
100
100
100
391.745
375.276
358.923
342.764
326.872
311.318
296.165
281.474
267.299
253.686
240.675
228.299
216.582
205.542
195.189
185.526
176.55
168.252
160.617
153.625
147.252
141.471
136.251
131.561
127.366
123.633
120.325
117.408
114.849
112.613
110.669
108.987
107.539
106.297
105.238
104.338
103.578
102.938
102.403
101.957
101.586
101.281
101.029
100.824
100.657
100.521
100.412
100.324
100.254
100.198
100.154
100.119
100.091
100.07
100.053
100.041
100.031
100.023
100.017
100.013
100.01
100.007
100.005
100.004
100.003
100.002
100.001
100.001
100.001
100.001
100
100
100
100
100
391.746
375.277
358.926
342.768
326.877
311.323
296.171
281.481
267.306
253.694
240.683
228.307
216.59
205.55
195.197
185.534
176.558
168.259
160.624
153.631
147.258
141.476
136.257
131.566
127.371
123.637
120.329
117.412
114.852
112.616
110.671
108.989
107.541
106.299
105.239
104.339
103.579
102.939
102.404
101.957
101.587
101.281
101.03
100.824
100.657
100.521
100.412
100.324
100.254
100.198
100.154
100.119
100.091
100.07
100.053
100.041
100.031
100.023
100.017
100.013
100.01
100.007
100.005
100.004
100.003
100.002
100.001
100.001
100.001
100.001
100
100
100
100
100
391.746
375.278
358.928
342.77
326.88
311.327
296.175
281.486
267.311
253.699
240.689
228.313
216.596
205.556
195.203
185.54
176.564
168.265
160.629
153.636
147.263
141.481
136.261
131.57
127.375
123.64
120.332
117.414
114.854
112.618
110.673
108.991
107.542
106.3
105.24
104.34
103.58
102.94
102.404
101.958
101.587
101.281
101.03
100.824
100.657
100.521
100.412
100.324
100.254
100.198
100.154
100.119
100.091
100.07
100.054
100.041
100.031
100.023
100.017
100.013
100.01
100.007
100.005
100.004
100.003
100.002
100.001
100.001
100.001
100.001
100
100
100
100
100
391.747
375.279
358.929
342.772
326.883
311.33
296.179
281.49
267.316
253.704
240.694
228.318
216.601
205.561
195.208
185.545
176.568
168.27
160.634
153.641
147.267
141.485
136.264
131.573
127.377
123.643
120.334
117.416
114.856
112.619
110.675
108.992
107.543
106.301
105.241
104.341
103.58
102.94
102.404
101.958
101.587
101.282
101.03
100.825
100.657
100.521
100.412
100.324
100.254
100.198
100.154
100.119
100.091
100.07
100.054
100.041
100.031
100.023
100.017
100.013
100.01
100.007
100.005
100.004
100.003
100.002
100.001
100.001
100.001
100.001
100
100
100
100
100
391.747
375.28
358.93
342.774
326.885
311.332
296.182
281.493
267.319
253.707
240.697
228.322
216.605
205.565
195.212
185.548
176.572
168.273
160.637
153.644
147.27
141.487
136.267
131.575
127.379
123.645
120.336
117.418
114.857
112.62
110.676
108.993
107.544
106.301
105.242
104.341
103.581
102.941
102.405
101.958
101.588
101.282
101.03
100.825
100.657
100.522
100.412
100.324
100.254
100.198
100.154
100.119
100.092
100.07
100.054
100.041
100.031
100.023
100.017
100.013
100.01
100.007
100.005
100.004
100.003
100.002
100.001
100.001
100.001
100.001
100
100
100
100
100
391.747
375.28
358.931
342.775
326.886
311.334
296.184
281.495
267.321
253.71
240.7
228.324
216.608
205.568
195.214
185.551
176.575
168.276
160.639
153.646
147.272
141.489
136.269
131.577
127.381
123.646
120.337
117.419
114.858
112.621
110.677
108.994
107.544
106.302
105.242
104.342
103.581
102.941
102.405
101.958
101.588
101.282
101.03
100.825
100.657
100.522
100.412
100.324
100.254
100.198
100.154
100.119
100.092
100.07
100.054
100.041
100.031
100.023
100.017
100.013
100.01
100.007
100.005
100.004
100.003
100.002
100.001
100.001
100.001
100.001
100
100
100
100
100
391.747
375.281
358.932
342.776
326.887
311.335
296.185
281.497
267.323
253.712
240.702
228.327
216.61
205.57
195.217
185.553
176.577
168.278
160.641
153.648
147.274
141.491
136.27
131.579
127.382
123.647
120.338
117.42
114.859
112.622
110.677
108.994
107.545
106.302
105.242
104.342
103.581
102.941
102.405
101.959
101.588
101.282
101.031
100.825
100.657
100.522
100.412
100.324
100.254
100.198
100.154
100.119
100.092
100.07
100.054
100.041
100.031
100.023
100.017
100.013
100.01
100.007
100.005
100.004
100.003
100.002
100.001
100.001
100.001
100.001
100
100
100
100
100
391.747
375.281
358.932
342.777
326.888
311.336
296.186
281.498
267.325
253.713
240.704
228.328
216.612
205.572
195.218
185.555
176.578
168.279
160.643
153.649
147.275
141.492
136.271
131.58
127.383
123.648
120.339
117.421
114.86
112.623
110.678
108.995
107.545
106.303
105.243
104.342
103.582
102.941
102.405
101.959
101.588
101.282
101.031
100.825
100.657
100.522
100.412
100.324
100.254
100.198
100.154
100.119
100.092
100.07
100.054
100.041
100.031
100.023
100.017
100.013
100.01
100.007
100.005
100.004
100.003
100.002
100.001
100.001
100.001
100.001
100
100
100
100
100
391.747
375.281
358.933
342.777
326.889
311.337
296.187
281.499
267.326
253.715
240.705
228.33
216.613
205.573
195.22
185.556
176.58
168.281
160.644
153.65
147.276
141.493
136.272
131.58
127.384
123.649
120.34
117.421
114.86
112.623
110.678
108.995
107.546
106.303
105.243
104.343
103.582
102.942
102.405
101.959
101.588
101.282
101.031
100.825
100.657