/*--------------------------------*- C++ -*----------------------------------*\
  =========                 |
  \\      /  F ield         | OpenFOAM: The Open Source CFD Toolbox
   \\    /   O peration     | Website:  https://openfoam.org
    \\  /    A nd           | Version:  10
     \\/     M anipulation  |
\*---------------------------------------------------------------------------*/
FoamFile
{
    format      ascii;
    class       volScalarField;
    location    "176";
    object      gradTz;
}
// * * * * * * * * * * * * * * * * * * * * * * * * * * * * * * * * * * * * * //

dimensions      [0 -1 0 1 0 0 0];

internalField   nonuniform List<scalar> 
11250
(
-14369.1
-4164.03
-1542.66
-737.542
-430.874
-286.98
-207.112
-156.995
-122.668
-97.6236
-78.5056
-63.4388
-51.3086
-41.4133
-33.286
-26.5978
-21.1034
-16.6099
-12.9589
-10.0161
-7.66606
-5.80802
-4.35459
-3.23025
-2.37038
-1.72044
-1.23496
-0.876651
-0.615373
-0.42714
-0.293165
-0.198957
-0.133507
-0.0885829
-0.0581155
-0.0376987
-0.0241793
-0.0153331
-0.00961296
-0.00595782
-0.00364977
-0.00220963
-0.00132177
-0.000781028
-0.000455739
-0.000262516
-0.000149217
-8.36611e-05
-4.62473e-05
-2.5195e-05
-1.35213e-05
-7.14513e-06
-3.71634e-06
-1.90182e-06
-9.57221e-07
-4.73717e-07
-2.30445e-07
-1.1017e-07
-5.17516e-08
-2.38798e-08
-1.08203e-08
-4.80647e-09
-2.1206e-09
-9.17608e-10
-3.69897e-10
-1.52569e-10
-7.24428e-11
-3.18309e-11
0
-1.09762e-12
0
-5.48809e-12
-1.09762e-12
6.5857e-12
0
-8311.24
-4907.28
-2810.72
-1713.28
-1129.1
-796.334
-591.178
-454.968
-358.658
-287.038
-231.691
-187.713
-152.106
-122.942
-98.9191
-79.1078
-62.8067
-49.4588
-38.6032
-29.8473
-22.8507
-17.3165
-12.9857
-9.63451
-7.07093
-5.13277
-3.6848
-2.61596
-1.83646
-1.27481
-0.87502
-0.593869
-0.39853
-0.264441
-0.173496
-0.112549
-0.0721902
-0.0457805
-0.0287028
-0.0177897
-0.0108984
-0.00659836
-0.00394724
-0.00233252
-0.00136113
-0.000784088
-0.000445716
-0.000249919
-0.000138166
-7.52788e-05
-4.04039e-05
-2.13535e-05
-1.11078e-05
-5.68517e-06
-2.86191e-06
-1.41653e-06
-6.8921e-07
-3.29552e-07
-1.54815e-07
-7.14615e-08
-3.24028e-08
-1.4404e-08
-6.28386e-09
-2.68916e-09
-1.15908e-09
-5.08197e-10
-2.08547e-10
-8.23213e-11
-2.19523e-11
-4.39047e-12
1.09762e-12
4.39047e-12
0
-8.78094e-12
8.78094e-12
-5653.93
-4339.85
-3076.63
-2173.1
-1573.68
-1176.34
-905.083
-712.357
-569.776
-460.455
-374.18
-304.614
-247.699
-200.734
-161.835
-129.626
-103.042
-81.2234
-63.447
-49.0887
-37.6024
-28.5086
-21.3872
-15.8731
-11.6529
-8.46094
-6.07541
-4.31396
-3.02899
-2.10295
-1.44364
-0.979904
-0.657659
-0.436426
-0.286359
-0.18578
-0.11917
-0.0755791
-0.0473889
-0.0293733
-0.0179962
-0.0108965
-0.00651898
-0.00385258
-0.00224839
-0.00129536
-0.000736449
-0.000413001
-0.000228364
-0.000124447
-6.68079e-05
-3.53162e-05
-1.83757e-05
-9.40754e-06
-4.73713e-06
-2.34543e-06
-1.14151e-06
-5.45993e-07
-2.5658e-07
-1.18458e-07
-5.37306e-08
-2.39292e-08
-1.04592e-08
-4.47608e-09
-1.90546e-09
-8.14432e-10
-3.29285e-10
-1.43788e-10
-5.70761e-11
-1.64643e-11
0
1.20738e-11
1.09762e-12
-1.09762e-12
-1.09762e-12
-4305.08
-3716.15
-2977.85
-2324.39
-1812.49
-1427.38
-1138.46
-918.465
-747.335
-611.283
-501.071
-410.51
-335.393
-272.779
-220.532
-177.026
-140.966
-111.273
-87.02
-67.3907
-51.6627
-39.1947
-29.4205
-21.8458
-16.0443
-11.6537
-8.37061
-5.94536
-4.17549
-2.89956
-1.99089
-1.3516
-0.907261
-0.602148
-0.395148
-0.25639
-0.164482
-0.104327
-0.065421
-0.0405545
-0.0248492
-0.0150476
-0.00900355
-0.00532164
-0.00310622
-0.00178989
-0.0010178
-0.000570912
-0.000315759
-0.000172121
-9.24296e-05
-4.88769e-05
-2.5441e-05
-1.30297e-05
-6.56381e-06
-3.2513e-06
-1.58313e-06
-7.5758e-07
-3.56208e-07
-1.64557e-07
-7.46808e-08
-3.32787e-08
-1.45687e-08
-6.27288e-09
-2.64087e-09
-1.08774e-09
-4.53316e-10
-2.0745e-10
-7.79308e-11
-5.48809e-12
8.78094e-12
1.09762e-12
-9.87856e-12
0
0
-3537.37
-3234.36
-2787.33
-2328
-1919.42
-1578.26
-1300.12
-1074.15
-889.401
-736.905
-609.849
-503.238
-413.417
-337.667
-273.901
-220.448
-175.916
-139.102
-108.937
-84.4637
-64.8151
-49.2139
-36.9675
-27.4665
-20.183
-14.6665
-10.5389
-7.48809
-5.26061
-3.65411
-2.5096
-1.70412
-1.14413
-0.759493
-0.498486
-0.323489
-0.207558
-0.131667
-0.0825761
-0.0511957
-0.0313736
-0.0190012
-0.011371
-0.00672209
-0.00392442
-0.00226186
-0.00128651
-0.000721841
-0.000399362
-0.00021777
-0.00011699
-6.1891e-05
-3.223e-05
-1.6515e-05
-8.32397e-06
-4.12549e-06
-2.01e-06
-9.62452e-07
-4.52816e-07
-2.09322e-07
-9.50668e-08
-4.23878e-08
-1.85651e-08
-7.99175e-09
-3.37517e-09
-1.41154e-09
-5.91616e-10
-2.49159e-10
-8.34189e-11
-1.4269e-11
-2.19523e-12
4.39047e-12
0
-5.48809e-12
5.48809e-12
-3062.86
-2887.1
-2600.36
-2273.14
-1952.46
-1661.11
-1406.12
-1186.61
-998.694
-837.885
-700.128
-582.054
-480.952
-394.63
-321.274
-259.335
-207.441
-164.35
-128.918
-100.091
-76.8945
-58.4422
-43.9357
-32.6671
-24.0194
-17.4638
-12.5549
-8.92417
-6.27182
-4.35795
-2.99387
-2.0335
-1.36559
-0.9067
-0.595221
-0.386335
-0.247923
-0.157299
-0.0986666
-0.061181
-0.0374988
-0.0227148
-0.0135958
-0.00803894
-0.00469429
-0.00270628
-0.00153974
-0.000864215
-0.00047831
-0.00026093
-0.000140241
-7.42293e-05
-3.86766e-05
-1.983e-05
-1.00011e-05
-4.95999e-06
-2.41827e-06
-1.15879e-06
-5.456e-07
-2.524e-07
-1.1471e-07
-5.11951e-08
-2.24584e-08
-9.69635e-09
-4.1007e-09
-1.68704e-09
-7.06866e-10
-3.01845e-10
-9.87856e-11
-2.41476e-11
-2.19523e-12
4.39047e-12
1.09762e-12
4.39047e-12
3.29285e-12
-2752.32
-2639.5
-2443.41
-2202.5
-1948.45
-1701.59
-1472.43
-1265.12
-1080.25
-916.772
-773.053
-647.346
-537.998
-443.486
-362.404
-293.429
-235.302
-186.811
-146.792
-114.134
-87.7919
-66.7953
-50.2611
-37.3996
-27.5179
-20.0194
-14.3997
-10.2403
-7.19975
-5.00457
-3.43922
-2.33669
-1.56962
-1.04242
-0.684469
-0.444354
-0.28521
-0.180989
-0.113546
-0.0704198
-0.0431691
-0.0261544
-0.0156577
-0.00926025
-0.00540885
-0.00311913
-0.00177522
-0.000996751
-0.000551895
-0.000301213
-0.000161976
-8.57822e-05
-4.47236e-05
-2.29456e-05
-1.15806e-05
-5.74757e-06
-2.80442e-06
-1.34492e-06
-6.33803e-07
-2.93459e-07
-1.33477e-07
-5.96347e-08
-2.61837e-08
-1.1289e-08
-4.75817e-09
-1.99986e-09
-8.48458e-10
-3.34773e-10
-1.13055e-10
-3.18309e-11
-7.68332e-12
-4.39047e-12
-1.09762e-12
0
5.48809e-12
-2541.01
-2462.09
-2319.21
-2134.31
-1928.35
-1717.41
-1512.06
-1318.45
-1139.68
-977.008
-830.653
-700.257
-585.159
-484.522
-397.393
-322.736
-259.457
-206.424
-162.492
-126.533
-97.4542
-74.2288
-55.908
-41.6361
-30.6573
-22.3176
-16.0618
-11.428
-8.03839
-5.58973
-3.84272
-2.61167
-1.75484
-1.16574
-0.765628
-0.497152
-0.319164
-0.202575
-0.127113
-0.0788483
-0.0483452
-0.0292963
-0.0175425
-0.0103774
-0.00606303
-0.00349745
-0.00199123
-0.00111848
-0.000619575
-0.000338321
-0.000182031
-9.64619e-05
-5.03247e-05
-2.58376e-05
-1.30499e-05
-6.48199e-06
-3.16541e-06
-1.51937e-06
-7.1665e-07
-3.32119e-07
-1.51206e-07
-6.7633e-08
-2.97092e-08
-1.28037e-08
-5.41564e-09
-2.27207e-09
-9.59318e-10
-4.0063e-10
-1.41593e-10
-3.18309e-11
-6.5857e-12
-8.78094e-12
-8.78094e-12
4.39047e-12
1.09762e-11
-2393.36
-2333.96
-2223.48
-2075.19
-1903.2
-1719.84
-1534.52
-1353.86
-1182.19
-1022.17
-875.312
-742.334
-623.418
-518.346
-426.61
-347.471
-280.026
-223.249
-176.046
-137.293
-105.879
-80.7359
-60.8682
-45.3686
-33.4305
-24.3524
-17.5365
-12.4837
-8.78498
-6.11143
-4.20293
-2.85745
-1.92057
-1.27618
-0.838377
-0.544517
-0.349648
-0.221968
-0.139309
-0.0864304
-0.0530046
-0.0321265
-0.0192415
-0.0113853
-0.00665372
-0.00383941
-0.0021867
-0.00122878
-0.000680987
-0.000372046
-0.000200291
-0.000106205
-5.54453e-05
-2.84874e-05
-1.43995e-05
-7.15819e-06
-3.49864e-06
-1.68083e-06
-7.93546e-07
-3.68101e-07
-1.67768e-07
-7.51275e-08
-3.30405e-08
-1.42581e-08
-6.0336e-09
-2.50806e-09
-1.0581e-09
-4.4234e-10
-1.56959e-10
-4.82952e-11
-8.78094e-12
1.09762e-12
0
-1.09762e-12
0
-2288.34
-2240.76
-2150.66
-2026.6
-1878.43
-1715.65
-1546.33
-1376.91
-1212.16
-1055.54
-909.406
-775.26
-653.942
-545.759
-450.595
-367.995
-297.246
-237.443
-187.554
-146.481
-113.106
-86.3415
-65.1566
-48.6058
-35.8425
-26.1265
-18.825
-13.4079
-9.43982
-6.56973
-4.51983
-3.07395
-2.06672
-1.37369
-0.902662
-0.586408
-0.37663
-0.239147
-0.15012
-0.0931562
-0.0571406
-0.0346404
-0.0207518
-0.012282
-0.00717972
-0.00414422
-0.00236115
-0.00132734
-0.000735947
-0.000402279
-0.00021669
-0.000114972
-6.00632e-05
-3.08825e-05
-1.56223e-05
-7.77249e-06
-3.80215e-06
-1.82828e-06
-8.63947e-07
-4.01137e-07
-1.8299e-07
-8.20052e-08
-3.61248e-08
-1.56334e-08
-6.62193e-09
-2.73417e-09
-1.13384e-09
-4.93928e-10
-1.96474e-10
-4.60999e-11
4.39047e-12
-2.19524e-12
-5.48809e-12
0
0
-2212.76
-2172.62
-2095.69
-1987.86
-1856.38
-1708.72
-1551.8
-1391.61
-1233.03
-1079.9
-935.099
-800.667
-677.94
-567.639
-469.98
-384.758
-311.436
-249.228
-197.172
-154.202
-119.21
-91.096
-68.8077
-51.3711
-37.9088
-27.6504
-19.9344
-14.2053
-10.0058
-6.96652
-4.7946
-3.26192
-2.19378
-1.45855
-0.95867
-0.62294
-0.40018
-0.254153
-0.159571
-0.0990395
-0.060761
-0.0368426
-0.0220757
-0.0130686
-0.00764159
-0.00441214
-0.00251465
-0.00141419
-0.000784443
-0.000429
-0.00023121
-0.000122751
-6.4169e-05
-3.3017e-05
-1.67147e-05
-8.32263e-06
-4.07466e-06
-1.961e-06
-9.27504e-07
-4.31042e-07
-1.96809e-07
-8.82891e-08
-3.8916e-08
-1.6844e-08
-7.15427e-09
-2.98223e-09
-1.22604e-09
-5.16978e-10
-2.04157e-10
-5.37833e-11
-4.39047e-12
-6.5857e-12
0
5.48809e-12
0
-2157.98
-2122.65
-2054.41
-1957.6
-1837.81
-1701.16
-1553.65
-1400.8
-1247.42
-1097.51
-954.245
-820.032
-696.557
-584.86
-485.422
-398.247
-322.955
-258.866
-205.088
-160.594
-124.288
-95.0683
-71.8698
-53.6981
-39.653
-28.9401
-20.8756
-14.8833
-10.488
-7.30514
-5.02946
-3.42283
-2.30268
-1.53137
-1.00678
-0.654354
-0.420449
-0.267078
-0.167717
-0.104115
-0.0638862
-0.0387448
-0.0232202
-0.0137491
-0.00804147
-0.00464432
-0.00264782
-0.00148962
-0.000826623
-0.000452277
-0.000243881
-0.000129551
-6.77659e-05
-3.4891e-05
-1.7676e-05
-8.80793e-06
-4.31566e-06
-2.07868e-06
-9.83991e-07
-4.57671e-07
-2.09138e-07
-9.38979e-08
-4.14274e-08
-1.79449e-08
-7.6471e-09
-3.21712e-09
-1.31714e-09
-5.40028e-10
-2.19524e-10
-5.81737e-11
-2.19523e-12
0
-2.19524e-12
-3.29285e-12
5.48809e-12
-2118.11
-2085.98
-2023.56
-1934.29
-1822.72
-1694.04
-1553.56
-1406.42
-1257.26
-1110.13
-968.375
-834.631
-710.828
-598.242
-497.559
-408.954
-332.174
-266.637
-211.511
-165.808
-128.451
-98.339
-74.4007
-55.6281
-41.1039
-30.016
-21.6626
-15.4515
-10.8929
-7.59003
-5.2274
-3.55864
-2.39472
-1.59299
-1.04755
-0.680993
-0.437654
-0.278058
-0.174643
-0.108432
-0.0665466
-0.0403652
-0.0241956
-0.0143295
-0.00838279
-0.00484265
-0.00276168
-0.00155418
-0.000862772
-0.000472253
-0.000254772
-0.000135407
-7.08689e-05
-3.65109e-05
-1.85087e-05
-9.22924e-06
-4.52537e-06
-2.18132e-06
-1.03337e-06
-4.81016e-07
-2.19993e-07
-9.88405e-08
-4.36292e-08
-1.89471e-08
-8.07956e-09
-3.37408e-09
-1.39288e-09
-5.69663e-10
-2.17328e-10
-7.4638e-11
-1.86595e-11
0
0
1.09762e-12
-1.09762e-12
-2089.07
-2059.08
-2000.62
-1916.55
-1810.76
-1687.82
-1552.55
-1409.75
-1263.93
-1119.1
-978.712
-845.527
-721.647
-608.517
-506.98
-417.341
-339.454
-272.815
-216.65
-170.003
-131.815
-100.994
-76.463
-57.2061
-42.294
-30.9008
-22.3116
-15.9211
-11.2282
-7.8264
-5.39189
-3.67168
-2.47144
-1.64442
-1.0816
-0.703275
-0.452056
-0.287258
-0.18045
-0.112055
-0.0687801
-0.0417262
-0.0250154
-0.0148176
-0.00866996
-0.00500964
-0.00285762
-0.00160863
-0.000893289
-0.000489137
-0.000263989
-0.00014037
-7.35033e-05
-3.78887e-05
-1.92183e-05
-9.58894e-06
-4.70478e-06
-2.26933e-06
-1.07581e-06
-5.01119e-07
-2.2933e-07
-1.03113e-07
-4.55511e-08
-1.9778e-08
-8.4297e-09
-3.52994e-09
-1.48617e-09
-6.12471e-10
-2.25012e-10
-8.23213e-11
-2.19523e-11
-8.78094e-12
3.29285e-12
1.31714e-11
-3.29285e-12
-2067.93
-2039.39
-1983.64
-1903.17
-1801.46
-1682.64
-1551.19
-1411.65
-1268.41
-1125.44
-986.213
-853.583
-729.763
-616.319
-514.205
-423.829
-345.129
-277.664
-220.706
-173.331
-134.498
-103.12
-78.1203
-58.4786
-43.2565
-31.6185
-22.8393
-16.3038
-11.5021
-8.0198
-5.52672
-3.76448
-2.53451
-1.68676
-1.10967
-0.721657
-0.46395
-0.294861
-0.185252
-0.115052
-0.0706293
-0.0428536
-0.0256948
-0.0152222
-0.00890812
-0.00514818
-0.00293727
-0.00165386
-0.000918657
-0.000503185
-0.000271667
-0.000144508
-7.5703e-05
-3.90408e-05
-1.98127e-05
-9.89073e-06
-4.85555e-06
-2.34339e-06
-1.11158e-06
-5.18141e-07
-2.3728e-07
-1.06728e-07
-4.71558e-08
-2.04881e-08
-8.76448e-09
-3.69678e-09
-1.55093e-09
-6.45399e-10
-2.45866e-10
-7.24428e-11
-1.09762e-12
5.48809e-12
-4.39047e-12
1.09762e-12
-1.09762e-12
-2052.57
-2025.03
-1971.14
-1893.18
-1794.34
-1678.46
-1549.79
-1412.69
-1271.41
-1129.89
-991.615
-859.488
-735.794
-622.179
-519.683
-428.789
-349.498
-281.42
-223.866
-175.938
-136.608
-104.798
-79.4343
-59.4907
-44.0245
-32.1927
-23.2625
-16.6114
-11.7227
-8.1759
-5.63573
-3.83963
-2.58567
-1.72114
-1.13249
-0.736618
-0.473638
-0.301059
-0.18917
-0.117499
-0.0721392
-0.0437745
-0.0262498
-0.0155528
-0.00910279
-0.00526145
-0.00300239
-0.00169086
-0.000939418
-0.000514688
-0.000277958
-0.000147903
-7.75087e-05
-3.99876e-05
-2.03016e-05
-1.01394e-05
-4.97996e-06
-2.40459e-06
-1.14117e-06
-5.32207e-07
-2.43868e-07
-1.09771e-07
-4.85377e-08
-2.10786e-08
-9.01034e-09
-3.80983e-09
-1.59923e-09
-6.71742e-10
-2.63428e-10
-8.56142e-11
-9.87856e-12
8.78094e-12
9.87856e-12
1.09762e-12
-8.78094e-12
-2041.46
-2014.6
-1962
-1885.78
-1788.96
-1675.18
-1548.52
-1413.2
-1273.39
-1132.99
-995.477
-863.78
-740.231
-626.536
-523.792
-432.537
-352.821
-284.295
-226.298
-177.953
-138.247
-106.107
-80.4622
-60.2852
-44.629
-32.646
-23.5974
-16.8554
-11.898
-8.30021
-5.7227
-3.89968
-2.6266
-1.74868
-1.1508
-0.748631
-0.481425
-0.306044
-0.192323
-0.119469
-0.0733552
-0.0445162
-0.0266969
-0.0158192
-0.0092596
-0.00535269
-0.00305485
-0.00172066
-0.000956141
-0.000523955
-0.000283027
-0.000150639
-7.89653e-05
-4.07519e-05
-2.06967e-05
-1.03405e-05
-5.08064e-06
-2.4542e-06
-1.16522e-06
-5.4366e-07
-2.49216e-07
-1.12224e-07
-4.96573e-08
-2.1589e-08
-9.22767e-09
-3.89764e-09
-1.64094e-09
-6.83816e-10
-2.63428e-10
-9.21999e-11
-1.20738e-11
5.48809e-12
4.39047e-12
8.78094e-12
-7.68332e-12
-2033.45
-2007.06
-1955.35
-1880.35
-1784.94
-1672.66
-1547.43
-1413.41
-1274.7
-1135.14
-998.219
-866.874
-743.467
-629.744
-526.841
-435.338
-355.321
-286.469
-228.146
-179.491
-139.503
-107.115
-81.2561
-60.9007
-45.0988
-32.9991
-23.859
-17.0464
-12.0356
-8.3979
-5.79116
-3.94703
-2.65892
-1.77046
-1.16529
-0.758149
-0.487599
-0.31
-0.194826
-0.121033
-0.0743212
-0.0451055
-0.0270521
-0.0160307
-0.00938409
-0.00542509
-0.00309646
-0.00174429
-0.000969397
-0.000531299
-0.000287044
-0.000152807
-8.01195e-05
-4.13576e-05
-2.10099e-05
-1.04999e-05
-5.1606e-06
-2.49365e-06
-1.18434e-06
-5.52762e-07
-2.53479e-07
-1.14166e-07
-5.05387e-08
-2.19886e-08
-9.41097e-09
-3.9635e-09
-1.6574e-09
-6.98085e-10
-2.87576e-10
-1.06469e-10
3.29285e-12
9.87856e-12
-3.29285e-12
4.39047e-12
-1.09762e-12
-2027.71
-2001.65
-1950.55
-1876.39
-1781.98
-1670.74
-1546.55
-1413.47
-1275.55
-1136.62
-1000.15
-869.085
-745.806
-632.082
-529.08
-437.408
-357.179
-288.094
-229.534
-180.652
-140.454
-107.88
-81.8613
-61.3714
-45.459
-33.2706
-24.0606
-17.194
-12.142
-8.47366
-5.84434
-3.98387
-2.6841
-1.78746
-1.1766
-0.765591
-0.492431
-0.313097
-0.196787
-0.122259
-0.0750781
-0.0455671
-0.0273302
-0.0161963
-0.00948149
-0.0054817
-0.00312897
-0.00176273
-0.000979736
-0.000537023
-0.000290172
-0.000154494
-8.10176e-05
-4.18288e-05
-2.12535e-05
-1.0624e-05
-5.2228e-06
-2.52431e-06
-1.19922e-06
-5.59854e-07
-2.56807e-07
-1.15722e-07
-5.12192e-08
-2.22805e-08
-9.54159e-09
-4.0096e-09
-1.66728e-09
-7.16744e-10
-3.06235e-10
-9.87856e-11
-1.09762e-12
2.19524e-12
-1.4269e-11
-2.19523e-12
3.29285e-12
-2023.62
-1997.78
-1947.11
-1873.54
-1779.82
-1669.32
-1545.85
-1413.44
-1276.1
-1137.64
-1001.5
-870.653
-747.48
-633.769
-530.707
-438.922
-358.545
-289.294
-230.564
-181.516
-141.166
-108.455
-82.3171
-61.7269
-45.7319
-33.4767
-24.214
-17.3065
-12.2234
-8.53166
-5.88513
-4.01217
-2.70347
-1.80054
-1.18533
-0.771334
-0.496162
-0.315491
-0.198302
-0.123207
-0.0756631
-0.0459239
-0.0275451
-0.0163241
-0.00955658
-0.0055253
-0.00315398
-0.00177691
-0.00098767
-0.00054141
-0.000292567
-0.000155785
-8.17037e-05
-4.21886e-05
-2.14394e-05
-1.07186e-05
-5.2702e-06
-2.54771e-06
-1.21059e-06
-5.65281e-07
-2.59362e-07
-1.16891e-07
-5.17395e-08
-2.2522e-08
-9.64147e-09
-4.05021e-09
-1.69362e-09
-6.95889e-10
-2.83185e-10
-9.54927e-11
-1.86595e-11
-1.4269e-11
0
0
1.09762e-12
-2020.73
-1995.04
-1944.66
-1871.5
-1778.25
-1668.27
-1545.32
-1413.38
-1276.45
-1138.33
-1002.44
-871.756
-748.669
-634.976
-531.879
-440.018
-359.539
-290.171
-231.32
-182.153
-141.691
-108.881
-82.6561
-61.992
-45.9359
-33.6313
-24.3293
-17.3912
-12.2848
-8.57549
-5.91601
-4.03362
-2.71818
-1.81049
-1.19197
-0.775709
-0.499006
-0.317316
-0.199458
-0.12393
-0.0761093
-0.0461958
-0.0277087
-0.0164213
-0.00961365
-0.00555839
-0.00317293
-0.00178763
-0.000993662
-0.000544717
-0.00029437
-0.000156755
-8.22186e-05
-4.24581e-05
-2.15785e-05
-1.07893e-05
-5.30562e-06
-2.56516e-06
-1.21905e-06
-5.69324e-07
-2.61258e-07
-1.17784e-07
-5.21324e-08
-2.26823e-08
-9.7194e-09
-4.08204e-09
-1.68484e-09
-7.05768e-10
-2.93064e-10
-1.10859e-10
-3.18309e-11
6.58571e-12
-3.29285e-12
-7.68332e-12
8.78094e-12
-2018.7
-1993.12
-1942.94
-1870.05
-1777.13
-1667.51
-1544.91
-1413.31
-1276.68
-1138.79
-1003.09
-872.526
-749.505
-635.831
-532.713
-440.802
-360.254
-290.805
-231.868
-182.617
-142.075
-109.193
-82.9051
-62.1874
-46.0866
-33.7457
-24.4148
-17.4542
-12.3305
-8.60821
-5.93909
-4.04968
-2.72921
-1.81796
-1.19696
-0.778998
-0.501146
-0.318689
-0.200329
-0.124474
-0.076445
-0.0464002
-0.0278316
-0.0164943
-0.00965641
-0.00558313
-0.00318707
-0.00179561
-0.000998115
-0.000547169
-0.000295704
-0.000157471
-8.25978e-05
-4.26563e-05
-2.16806e-05
-1.08412e-05
-5.33152e-06
-2.57791e-06
-1.22522e-06
-5.7227e-07
-2.62619e-07
-1.1841e-07
-5.24551e-08
-2.28239e-08
-9.75014e-09
-4.07984e-09
-1.67167e-09
-7.0028e-10
-3.13919e-10
-1.40495e-10
-3.07333e-11
1.09762e-11
-3.29285e-12
1.09762e-12
2.19524e-12
-2017.28
-1991.77
-1941.73
-1869.03
-1776.34
-1666.96
-1544.62
-1413.25
-1276.82
-1139.11
-1003.53
-873.058
-750.088
-636.431
-533.301
-441.358
-360.762
-291.258
-232.261
-182.95
-142.353
-109.419
-83.086
-62.3295
-46.1965
-33.8293
-24.4775
-17.5005
-12.3641
-8.63231
-5.95612
-4.06156
-2.73737
-1.82349
-1.20066
-0.78144
-0.502736
-0.31971
-0.200975
-0.124878
-0.0766943
-0.0465519
-0.0279227
-0.0165482
-0.00968799
-0.00560137
-0.00319747
-0.00180147
-0.00100137
-0.000548959
-0.000296674
-0.00015799
-8.28723e-05
-4.27993e-05
-2.17542e-05
-1.08784e-05
-5.3501e-06
-2.58705e-06
-1.22963e-06
-5.74359e-07
-2.63609e-07
-1.1887e-07
-5.2645e-08
-2.29084e-08
-9.78965e-09
-4.07326e-09
-1.68375e-09
-7.22232e-10
-3.12821e-10
-1.21836e-10
-2.74404e-11
0
0
-1.09762e-11
1.20738e-11
-2016.3
-1990.84
-1940.89
-1868.32
-1775.79
-1666.58
-1544.4
-1413.19
-1276.91
-1139.31
-1003.83
-873.423
-750.491
-636.847
-533.712
-441.748
-361.121
-291.578
-232.54
-183.188
-142.551
-109.58
-83.2157
-62.4318
-46.2758
-33.8898
-24.5228
-17.534
-12.3885
-8.64986
-5.96854
-4.07022
-2.74333
-1.82754
-1.20337
-0.78323
-0.503901
-0.320459
-0.20145
-0.125174
-0.0768769
-0.0466629
-0.0279893
-0.0165876
-0.00971099
-0.00561462
-0.00320501
-0.0018057
-0.00100372
-0.000550243
-0.000297368
-0.000158361
-8.30674e-05
-4.29007e-05
-2.18061e-05
-1.09046e-05
-5.36316e-06
-2.59344e-06
-1.23273e-06
-5.75816e-07
-2.64294e-07
-1.19199e-07
-5.28042e-08
-2.29633e-08
-9.79404e-09
-4.12155e-09
-1.72326e-09
-7.0467e-10
-2.82088e-10
-1.20738e-10
-3.18309e-11
6.58571e-12
-1.09762e-12
-1.09762e-12
2.19524e-12
-2015.63
-1990.2
-1940.32
-1867.83
-1775.4
-1666.31
-1544.24
-1413.15
-1276.96
-1139.45
-1004.04
-873.672
-750.767
-637.134
-533.996
-442.019
-361.37
-291.802
-232.735
-183.355
-142.69
-109.695
-83.3077
-62.5045
-46.3322
-33.9329
-24.5553
-17.558
-12.4061
-8.66247
-5.97748
-4.07647
-2.74764
-1.83047
-1.20533
-0.784525
-0.504745
-0.321001
-0.201793
-0.125389
-0.077009
-0.0467432
-0.0280373
-0.016616
-0.00972751
-0.00562412
-0.0032104
-0.00180872
-0.00100538
-0.000551151
-0.000297857
-0.000158621
-8.32037e-05
-4.29713e-05
-2.18421e-05
-1.09228e-05
-5.37218e-06
-2.59785e-06
-1.23485e-06
-5.7682e-07
-2.64745e-07
-1.19402e-07
-5.28887e-08
-2.29841e-08
-9.83246e-09
-4.1479e-09
-1.71667e-09
-7.10159e-10
-2.90869e-10
-1.09762e-10
-2.305e-11
0
1.09762e-12
1.09762e-12
-2.19524e-12
-2015.17
-1989.77
-1939.92
-1867.5
-1775.14
-1666.12
-1544.14
-1413.12
-1277
-1139.54
-1004.17
-873.839
-750.954
-637.33
-534.191
-442.205
-361.542
-291.956
-232.871
-183.471
-142.787
-109.775
-83.3721
-62.5555
-46.372
-33.9633
-24.5782
-17.5751
-12.4185
-8.67143
-5.98384
-4.08092
-2.75071
-1.83255
-1.20673
-0.785451
-0.505349
-0.321389
-0.202039
-0.125542
-0.0771034
-0.0468004
-0.0280715
-0.0166362
-0.00973922
-0.00563083
-0.00321419
-0.00181083
-0.00100655
-0.000551784
-0.000298196
-0.0001588
-8.32974e-05
-4.30196e-05
-2.18667e-05
-1.09351e-05
-5.37824e-06
-2.60082e-06
-1.23627e-06
-5.77495e-07
-2.65079e-07
-1.19538e-07
-5.29458e-08
-2.30368e-08
-9.84782e-09
-4.12814e-09
-1.70899e-09
-7.06866e-10
-2.96357e-10
-1.14152e-10
-2.52452e-11
-2.19523e-12
-2.19523e-12
-5.48809e-12
5.48809e-12
-2014.87
-1989.48
-1939.66
-1867.27
-1774.96
-1665.99
-1544.06
-1413.09
-1277.02
-1139.6
-1004.26
-873.951
-751.08
-637.462
-534.323
-442.332
-361.66
-292.062
-232.964
-183.551
-142.855
-109.83
-83.4168
-62.5909
-46.3996
-33.9845
-24.5942
-17.5869
-12.4272
-8.67771
-5.98831
-4.08405
-2.75287
-1.83403
-1.20772
-0.786105
-0.505775
-0.321663
-0.202212
-0.12565
-0.0771699
-0.0468407
-0.0280955
-0.0166503
-0.00974742
-0.00563551
-0.00321683
-0.0018123
-0.00100735
-0.000552218
-0.000298428
-0.000158922
-8.33608e-05
-4.30521e-05
-2.18832e-05
-1.09433e-05
-5.38229e-06
-2.60277e-06
-1.23721e-06
-5.77942e-07
-2.65277e-07
-1.1963e-07
-5.30083e-08
-2.30598e-08
-9.83465e-09
-4.13912e-09
-1.7035e-09
-6.87109e-10
-2.93064e-10
-1.32812e-10
-3.29285e-11
2.19524e-12
-1.4269e-11
4.39047e-12
1.31714e-11
-2014.66
-1989.28
-1939.48
-1867.12
-1774.84
-1665.9
-1544.01
-1413.07
-1277.03
-1139.64
-1004.32
-874.026
-751.164
-637.55
-534.412
-442.417
-361.739
-292.134
-233.027
-183.605
-142.9
-109.868
-83.4473
-62.6152
-46.4186
-33.9991
-24.6053
-17.5952
-12.4333
-8.68206
-5.99141
-4.08623
-2.75437
-1.83505
-1.20841
-0.786561
-0.506073
-0.321854
-0.202333
-0.125726
-0.0772162
-0.0468687
-0.0281122
-0.0166601
-0.00975307
-0.00563873
-0.00321863
-0.0018133
-0.0010079
-0.000552511
-0.000298583
-0.000159004
-8.3403e-05
-4.30736e-05
-2.1894e-05
-1.09487e-05
-5.38493e-06
-2.60403e-06
-1.23781e-06
-5.78222e-07
-2.65403e-07
-1.19697e-07
-5.30314e-08
-2.30555e-08
-9.83685e-09
-4.1468e-09
-1.71009e-09
-6.89304e-10
-3.07333e-10
-1.17445e-10
-1.09762e-11
0
0
8.78094e-12
-8.78094e-12
-2014.53
-1989.15
-1939.36
-1867.02
-1774.76
-1665.84
-1543.97
-1413.06
-1277.04
-1139.66
-1004.36
-874.074
-751.219
-637.609
-534.47
-442.474
-361.792
-292.182
-233.069
-183.642
-142.931
-109.893
-83.468
-62.6317
-46.4315
-34.009
-24.6128
-17.6008
-12.4374
-8.68504
-5.99353
-4.08772
-2.75541
-1.83576
-1.20888
-0.786875
-0.506278
-0.321986
-0.202416
-0.125778
-0.0772481
-0.0468879
-0.0281237
-0.0166668
-0.00975693
-0.00564092
-0.00321986
-0.00181397
-0.00100826
-0.000552707
-0.000298687
-0.000159058
-8.34307e-05
-4.30877e-05
-2.19011e-05
-1.09522e-05
-5.38664e-06
-2.60485e-06
-1.23819e-06
-5.78402e-07
-2.65473e-07
-1.19713e-07
-5.30215e-08
-2.30598e-08
-9.87526e-09
-4.15558e-09
-1.69801e-09
-6.78328e-10
-2.88673e-10
-1.24031e-10
-5.04904e-11
-1.09762e-12
1.64643e-11
2.19523e-12
2.19523e-12
-2014.44
-1989.07
-1939.29
-1866.95
-1774.7
-1665.81
-1543.95
-1413.05
-1277.04
-1139.68
-1004.38
-874.106
-751.255
-637.647
-534.509
-442.511
-361.827
-292.214
-233.098
-183.666
-142.952
-109.91
-83.4819
-62.6428
-46.4401
-34.0157
-24.6178
-17.6046
-12.4402
-8.68706
-5.99497
-4.08873
-2.75611
-1.83623
-1.2092
-0.787088
-0.506417
-0.322075
-0.202473
-0.125813
-0.0772697
-0.046901
-0.0281314
-0.0166713
-0.00975953
-0.00564239
-0.00322068
-0.00181442
-0.00100851
-0.000552836
-0.000298755
-0.000159093
-8.34487e-05
-4.30967e-05
-2.19055e-05
-1.09544e-05
-5.38772e-06
-2.60537e-06
-1.23843e-06
-5.78522e-07
-2.65509e-07
-1.19716e-07
-5.30237e-08
-2.30697e-08
-9.87856e-09
-4.15778e-09
-1.68375e-09
-6.70644e-10
-2.94161e-10
-1.29519e-10
-3.07333e-11
5.48809e-12
0
0
0
-2014.38
-1989.01
-1939.24
-1866.91
-1774.67
-1665.78
-1543.93
-1413.04
-1277.04
-1139.69
-1004.4
-874.127
-751.279
-637.672
-534.534
-442.536
-361.85
-292.235
-233.116
-183.682
-142.965
-109.921
-83.491
-62.6501
-46.4459
-34.0202
-24.6212
-17.6071
-12.442
-8.68841
-5.99593
-4.08941
-2.75658
-1.83656
-1.20942
-0.787232
-0.506511
-0.322135
-0.202511
-0.125837
-0.0772842
-0.0469097
-0.0281366
-0.0166743
-0.00976126
-0.00564337
-0.00322122
-0.00181472
-0.00100866
-0.000552921
-0.000298799
-0.000159115
-8.34601e-05
-4.31025e-05
-2.19084e-05
-1.09558e-05
-5.38841e-06
-2.60571e-06
-1.23857e-06
-5.78589e-07
-2.65555e-07
-1.19718e-07
-5.30105e-08
-2.30664e-08
-9.88405e-09
-4.15448e-09
-1.70131e-09
-6.93694e-10
-2.55745e-10
-9.98832e-11
-4.17095e-11
-1.09762e-12
-2.19524e-12
0
-2.19524e-12
-2014.34
-1988.98
-1939.2
-1866.88
-1774.65
-1665.76
-1543.92
-1413.04
-1277.05
-1139.7
-1004.41
-874.14
-751.294
-637.688
-534.551
-442.551
-361.865
-292.248
-233.128
-183.692
-142.974
-109.929
-83.497
-62.6549
-46.4496
-34.0231
-24.6234
-17.6087
-12.4432
-8.68929
-5.99657
-4.08986
-2.75689
-1.83677
-1.20956
-0.787327
-0.506573
-0.322175
-0.202536
-0.125853
-0.0772939
-0.0469155
-0.02814
-0.0166763
-0.0097624
-0.005644
-0.00322157
-0.00181491
-0.00100877
-0.000552975
-0.000298827
-0.00015913
-8.34674e-05
-4.31061e-05
-2.19101e-05
-1.09566e-05
-5.38882e-06
-2.60591e-06
-1.23867e-06
-5.78616e-07
-2.65563e-07
-1.19746e-07
-5.30325e-08
-2.30533e-08
-9.87636e-09
-4.15338e-09
-1.69143e-09
-6.93694e-10
-2.87576e-10
-1.06469e-10
-1.31714e-11
-2.19523e-12
0
1.64643e-11
-6.5857e-12
-2014.32
-1988.95
-1939.18
-1866.86
-1774.63
-1665.75
-1543.92
-1413.04
-1277.05
-1139.7
-1004.42
-874.148
-751.303
-637.699
-534.561
-442.561
-361.875
-292.257
-233.136
-183.699
-142.98
-109.934
-83.5009
-62.658
-46.4521
-34.025
-24.6249
-17.6098
-12.444
-8.68987
-5.99698
-4.09015
-2.75709
-1.83691
-1.20966
-0.787389
-0.506614
-0.322202
-0.202553
-0.125863
-0.0773002
-0.0469193
-0.0281422
-0.0166776
-0.00976313
-0.00564442
-0.0032218
-0.00181503
-0.00100883
-0.000553009
-0.000298845
-0.000159139
-8.34719e-05
-4.31083e-05
-2.19112e-05
-1.09572e-05
-5.38906e-06
-2.60602e-06
-1.23872e-06
-5.78647e-07
-2.65593e-07
-1.19758e-07
-5.30566e-08
-2.30741e-08
-9.86758e-09
-4.14351e-09
-1.67606e-09
-6.71742e-10
-2.9965e-10
-1.18543e-10
-6.5857e-12
5.48809e-12
-4.39047e-12
6.5857e-12
4.39047e-12
-2014.3
-1988.94
-1939.17
-1866.85
-1774.62
-1665.75
-1543.91
-1413.04
-1277.05
-1139.7
-1004.42
-874.153
-751.309
-637.705
-534.568
-442.568
-361.881
-292.262
-233.141
-183.703
-142.983
-109.937
-83.5033
-62.6599
-46.4536
-34.0262
-24.6258
-17.6105
-12.4445
-8.69024
-5.99725
-4.09034
-2.75722
-1.837
-1.20972
-0.78743
-0.50664
-0.322219
-0.202564
-0.125869
-0.0773042
-0.0469217
-0.0281437
-0.0166784
-0.00976361
-0.00564468
-0.00322194
-0.00181511
-0.00100887
-0.000553031
-0.000298856
-0.000159144
-8.34747e-05
-4.31097e-05
-2.19119e-05
-1.09575e-05
-5.3892e-06
-2.60605e-06
-1.23873e-06
-5.78654e-07
-2.65592e-07
-1.19773e-07
-5.3072e-08
-2.30763e-08
-9.8588e-09
-4.15009e-09
-1.68594e-09
-6.80523e-10
-2.83185e-10
-1.09762e-10
-2.85381e-11
1.09762e-12
1.09762e-12
-1.09762e-12
0
-2014.29
-1988.93
-1939.16
-1866.84
-1774.62
-1665.74
-1543.91
-1413.03
-1277.05
-1139.7
-1004.42
-874.156
-751.313
-637.709
-534.572
-442.572
-361.884
-292.266
-233.144
-183.706
-142.986
-109.938
-83.5049
-62.6612
-46.4546
-34.0269
-24.6264
-17.6109
-12.4449
-8.69048
-5.99742
-4.09046
-2.75731
-1.83705
-1.20976
-0.787455
-0.506657
-0.322229
-0.202571
-0.125874
-0.0773068
-0.0469233
-0.0281446
-0.016679
-0.00976391
-0.00564485
-0.00322204
-0.00181516
-0.0010089
-0.000553044
-0.000298863
-0.000159148
-8.34764e-05
-4.31105e-05
-2.19123e-05
-1.09577e-05
-5.38926e-06
-2.60609e-06
-1.23877e-06
-5.78671e-07
-2.65601e-07
-1.19774e-07
-5.30643e-08
-2.30752e-08
-9.85331e-09
-4.1457e-09
-1.69143e-09
-6.91499e-10
-2.83185e-10
-9.21999e-11
-1.4269e-11
-1.09762e-11
-1.09762e-11
-1.09762e-12
1.09762e-12
-2014.29
-1988.92
-1939.16
-1866.84
-1774.61
-1665.74
-1543.91
-1413.03
-1277.05
-1139.7
-1004.42
-874.158
-751.315
-637.712
-534.574
-442.574
-361.887
-292.268
-233.146
-183.708
-142.987
-109.94
-83.5059
-62.662
-46.4552
-34.0274
-24.6267
-17.6112
-12.4451
-8.69063
-5.99752
-4.09053
-2.75736
-1.83709
-1.20978
-0.787471
-0.506667
-0.322236
-0.202575
-0.125876
-0.0773085
-0.0469243
-0.0281452
-0.0166793
-0.00976409
-0.00564495
-0.00322209
-0.00181519
-0.00100892
-0.000553052
-0.000298867
-0.00015915
-8.34774e-05
-4.3111e-05
-2.19126e-05
-1.09578e-05
-5.38933e-06
-2.60613e-06
-1.23879e-06
-5.78673e-07
-2.65586e-07
-1.19757e-07
-5.30621e-08
-2.31081e-08
-9.87307e-09
-4.11716e-09
-1.70021e-09
-7.14549e-10
-2.88673e-10
-1.05371e-10
-1.31714e-11
5.48809e-12
-8.78094e-12
0
3.29285e-12
-2014.28
-1988.92
-1939.15
-1866.84
-1774.61
-1665.74
-1543.91
-1413.03
-1277.05
-1139.7
-1004.42
-874.16
-751.317
-637.713
-534.576
-442.576
-361.888
-292.269
-233.147
-183.709
-142.988
-109.94
-83.5065
-62.6624
-46.4556
-34.0277
-24.627
-17.6114
-12.4452
-8.69072
-5.99759
-4.09058
-2.75739
-1.83711
-1.2098
-0.787482
-0.506674
-0.322241
-0.202578
-0.125878
-0.0773095
-0.0469249
-0.0281455
-0.0166795
-0.00976421
-0.00564502
-0.00322213
-0.00181521
-0.00100893
-0.000553057
-0.000298869
-0.000159151
-8.34781e-05
-4.31114e-05
-2.19127e-05
-1.09578e-05
-5.38935e-06
-2.60614e-06
-1.23879e-06
-5.78694e-07
-2.65599e-07
-1.19754e-07
-5.30599e-08
-2.30983e-08
-9.87746e-09
-4.13692e-09
-1.67716e-09
-6.83816e-10
-2.77697e-10
-1.29519e-10
-4.06118e-11
6.58571e-12
-8.78094e-12
0
7.68332e-12
-2014.28
-1988.92
-1939.15
-1866.84
-1774.61
-1665.74
-1543.91
-1413.03
-1277.05
-1139.71
-1004.42