/*--------------------------------*- C++ -*----------------------------------*\
  =========                 |
  \\      /  F ield         | OpenFOAM: The Open Source CFD Toolbox
   \\    /   O peration     | Website:  https://openfoam.org
    \\  /    A nd           | Version:  10
     \\/     M anipulation  |
\*---------------------------------------------------------------------------*/
FoamFile
{
    format      ascii;
    class       volScalarField;
    location    "102";
    object      gradTz;
}
// * * * * * * * * * * * * * * * * * * * * * * * * * * * * * * * * * * * * * //

dimensions      [0 -1 0 1 0 0 0];

internalField   nonuniform List<scalar> 
11250
(
-14401.8
-4195.03
-1570.45
-760.859
-448.835
-299.125
-213.396
-157.77
-118.602
-89.5914
-67.5019
-50.4801
-37.3381
-27.2489
-19.5883
-13.8614
-9.64653
-6.59641
-4.42867
-2.91732
-1.88552
-1.19561
-0.747152
-0.459218
-0.278714
-0.163877
-0.0910748
-0.0504446
-0.0327066
-0.0229503
-0.0110118
-0.00373283
-0.000886148
-0.000155143
-2.12092e-05
-2.37e-06
-2.24076e-07
-1.84005e-08
-1.33909e-09
-8.78094e-11
1.09762e-12
0
-3.29285e-12
0
-1.09762e-12
0
0
2.19524e-12
0
-1.09762e-12
0
1.31714e-11
0
-1.4269e-11
0
0
0
0
0
0
0
0
-2.08547e-11
-1.09762e-12
2.19523e-11
1.09762e-12
-1.09762e-12
0
1.09762e-12
-1.09762e-12
0
-5.48809e-12
-1.09762e-12
6.5857e-12
0
-8408.73
-4999.76
-2893.6
-1782.83
-1182.68
-832.559
-609.934
-457.296
-346.536
-263.085
-198.879
-149.06
-110.431
-80.6946
-58.0707
-41.1196
-28.6265
-19.5784
-13.1498
-8.66941
-5.60599
-3.56231
-2.22929
-1.36858
-0.824136
-0.483787
-0.273201
-0.152224
-0.0924398
-0.0606255
-0.0334965
-0.0139407
-0.00379512
-0.000724627
-0.000105004
-1.22335e-05
-1.19362e-06
-1.00461e-07
-7.45721e-09
-5.07099e-10
-2.19523e-11
8.78094e-12
-8.78094e-12
-5.48809e-12
6.5857e-12
5.48809e-12
-6.5857e-12
2.19523e-12
3.29285e-12
0
0
0
0
0
0
0
-2.19523e-12
0
5.48809e-12
-1.09762e-12
-3.29285e-12
1.09762e-12
1.09762e-12
8.78094e-12
-1.09762e-12
-1.20738e-11
1.09762e-12
2.19523e-12
-1.09762e-12
-4.39047e-12
1.09762e-12
4.39047e-12
0
-8.78094e-12
8.78094e-12
-5814.57
-4492.23
-3213.2
-2287.7
-1661.97
-1236.04
-936.013
-716.222
-549.825
-421.013
-320.139
-240.938
-179.039
-131.131
-94.5379
-67.0267
-46.7014
-31.962
-21.4878
-14.1837
-9.17659
-5.82983
-3.64677
-2.24067
-1.34225
-0.784493
-0.455977
-0.261722
-0.151131
-0.0866956
-0.0498501
-0.027415
-0.00907747
-0.00197177
-0.000312835
-3.89825e-05
-4.00565e-06
-3.51192e-07
-2.69279e-08
-1.8407e-09
-1.14152e-10
-3.29285e-12
-1.09762e-12
1.09762e-12
0
0
0
0
0
-1.64643e-11
1.09762e-12
1.53666e-11
8.78094e-12
-1.31714e-11
-1.53666e-11
-2.19523e-12
6.58571e-12
9.87856e-12
0
5.48809e-12
0
0
1.09762e-12
5.48809e-12
-1.09762e-12
-5.48809e-12
0
0
0
-1.09762e-11
0
1.20738e-11
1.09762e-12
-1.09762e-12
-1.09762e-12
-4526.17
-3925.89
-3165.86
-2482.16
-1934.06
-1509.6
-1181.07
-923.833
-719.929
-557.052
-426.73
-322.886
-240.899
-176.98
-127.893
-90.8405
-63.383
-43.4311
-29.2313
-19.3084
-12.5036
-7.95558
-4.97518
-3.05014
-1.83116
-1.07468
-0.62773
-0.362936
-0.198779
-0.107696
-0.0634932
-0.036457
-0.0150871
-0.00393066
-0.000709717
-9.69771e-05
-1.06566e-05
-9.82129e-07
-7.82393e-08
-5.50126e-09
-3.41359e-10
-1.4269e-11
1.09762e-12
-2.19523e-12
9.87856e-12
0
-8.78094e-12
0
-1.09762e-12
0
0
3.29285e-12
1.09762e-11
-4.39047e-12
-1.09762e-11
0
3.29285e-12
1.09762e-12
-2.19523e-12
0
-1.09762e-12
0
-1.20738e-11
-1.09762e-12
1.4269e-11
1.09762e-12
0
0
-2.19524e-12
0
8.78094e-12
1.09762e-12
-9.87856e-12
0
0
-3815.37
-3498.07
-3023.74
-2526.43
-2072.33
-1681.71
-1353.79
-1080.98
-855.027
-668.792
-516.43
-393.101
-294.618
-217.204
-157.4
-112.047
-78.3159
-53.7391
-36.2072
-23.9367
-15.5207
-9.88593
-6.17899
-3.78327
-2.27876
-1.34581
-0.781816
-0.450255
-0.248807
-0.133767
-0.0710603
-0.0426511
-0.0251551
-0.00780322
-0.00153683
-0.000220162
-2.48624e-05
-2.32881e-06
-1.87281e-07
-1.32625e-08
-8.51751e-10
-4.71976e-11
0
0
-1.09762e-12
1.09762e-12
0
1.09762e-12
-2.19523e-12
0
1.09762e-12
0
0
0
0
0
-5.48809e-12
0
1.20738e-11
0
-8.78094e-12
0
2.19523e-12
1.09762e-12
5.48809e-12
-2.19523e-12
-4.39047e-12
1.09762e-12
2.19523e-12
-5.48809e-12
-2.19523e-12
4.39047e-12
0
-5.48809e-12
5.48809e-12
-3393.5
-3200.77
-2881.58
-2509.2
-2134.41
-1784.25
-1470.07
-1194.87
-957.934
-756.981
-589.101
-451.118
-339.684
-251.345
-182.67
-130.345
-91.2872
-62.7455
-42.3272
-28.0113
-18.1807
-11.5859
-7.24675
-4.43969
-2.67543
-1.58713
-0.919804
-0.520379
-0.287971
-0.159649
-0.0866517
-0.0520102
-0.0311937
-0.00976285
-0.00193386
-0.000278278
-3.15464e-05
-2.96529e-06
-2.3926e-07
-1.69812e-08
-1.08774e-09
-6.14666e-11
1.09762e-12
-9.87856e-12
-1.09762e-12
-4.39047e-12
1.09762e-12
4.39047e-12
4.39047e-12
8.78094e-12
-3.29285e-12
-9.87856e-12
0
0
2.19524e-12
0
-5.48809e-12
-6.58571e-12
6.5857e-12
4.39047e-12
-1.09762e-12
0
4.39047e-12
0
-5.48809e-12
1.09762e-12
0
0
0
-1.09762e-11
-2.19523e-12
4.39047e-12
1.09762e-12
4.39047e-12
3.29285e-12
-3130.85
-2998.62
-2765.4
-2472.81
-2156.85
-1842.7
-1545.8
-1274.74
-1033.75
-824.29
-646.06
-497.525
-376.305
-279.441
-203.674
-145.676
-102.237
-70.3937
-47.5424
-31.4922
-20.4611
-13.052
-8.17377
-5.01438
-3.02252
-1.79245
-1.03247
-0.583191
-0.329658
-0.179839
-0.098951
-0.0640609
-0.0361779
-0.0109775
-0.00214223
-0.000305928
-3.45501e-05
-3.2426e-06
-2.61606e-07
-1.86057e-08
-1.1975e-09
-7.79308e-11
-1.09762e-12
9.87856e-12
0
0
1.09762e-12
-2.19524e-12
-3.29285e-12
-5.48809e-12
1.09762e-12
7.68332e-12
-3.29285e-12
-1.09762e-12
4.39047e-12
0
-2.19524e-12
0
2.19523e-12
2.19524e-12
0
1.09762e-12
-1.09762e-12
-1.09762e-12
1.09762e-12
-1.09762e-12
0
0
0
0
0
-4.39047e-12
-1.09762e-12
0
5.48809e-12
-2962.36
-2861.85
-2677.67
-2435.29
-2160.45
-1874.65
-1593.92
-1329.36
-1088.11
-874.231
-689.423
-533.575
-405.214
-301.911
-220.652
-158.175
-111.22
-76.7011
-51.8721
-34.3972
-22.3732
-14.2843
-8.95039
-5.49996
-3.321
-1.96608
-1.1302
-0.643222
-0.3651
-0.196621
-0.108684
-0.0702149
-0.0382994
-0.0115405
-0.00226158
-0.000325901
-3.72301e-05
-3.53918e-06
-2.89441e-07
-2.08602e-08
-1.34458e-09
-7.24428e-11
-1.64643e-11
-6.5857e-12
9.87856e-12
6.5857e-12
-1.09762e-12
0
-1.09762e-12
0
1.09762e-12
-1.09762e-12
-1.09762e-12
1.09762e-12
-7.68332e-12
0
-5.48809e-12
0
8.78094e-12
0
2.19523e-12
0
3.29285e-12
0
0
-1.09762e-12
0
-1.20738e-11
0
1.31714e-11
1.09762e-12
-8.78094e-12
-8.78094e-12
4.39047e-12
1.09762e-11
-2852.39
-2769.47
-2614.03
-2403.17
-2156.2
-1891.32
-1623.91
-1365.98
-1126.23
-910.404
-721.617
-560.859
-427.438
-319.404
-234.006
-168.096
-118.406
-81.7746
-55.3678
-36.7585
-23.9394
-15.3002
-9.59193
-5.89278
-3.55776
-2.10611
-1.21317
-0.69081
-0.389124
-0.215046
-0.12287
-0.0750125
-0.0395975
-0.0124876
-0.00261101
-0.000402225
-4.89684e-05
-4.93813e-06
-4.26319e-07
-3.22787e-08
-2.18206e-09
-1.31714e-10
-4.39047e-12
-4.39047e-12
-9.87856e-12
5.48809e-12
8.78094e-12
0
-6.58571e-12
-1.09762e-12
5.48809e-12
2.19524e-12
0
0
5.48809e-12
2.305e-11
-5.48809e-12
-2.41476e-11
0
1.09762e-12
1.09762e-12
-1.09762e-12
0
0
1.09762e-12
6.58571e-12
-1.09762e-12
-6.5857e-12
1.09762e-12
-1.09762e-12
0
1.09762e-12
0
-1.09762e-12
0
-2779.96
-2707.21
-2568.99
-2377.97
-2149.55
-1899.52
-1642.31
-1390.14
-1152.47
-936.052
-744.974
-581.023
-444.106
-332.688
-244.254
-175.776
-124.003
-85.7486
-58.1307
-38.636
-25.1827
-16.1077
-10.1033
-6.20805
-3.75051
-2.22338
-1.28506
-0.731215
-0.407423
-0.224957
-0.127791
-0.0737742
-0.0400556
-0.0159429
-0.00407848
-0.000729529
-9.91423e-05
-1.08567e-05
-9.98216e-07
-7.93797e-08
-5.5726e-09
-3.47945e-10
-1.31714e-11
-3.29285e-12
0
3.29285e-12
0
1.09762e-12
-1.20738e-11
-2.19523e-12
1.31714e-11
1.09762e-12
-4.39047e-12
1.09762e-12
3.29285e-12
1.4269e-11
0
-1.75619e-11
0
3.29285e-12
0
9.87856e-12
0
-9.87856e-12
0
1.64643e-11
1.09762e-12
-1.64643e-11
-1.09762e-12
2.19524e-12
5.48809e-12
-2.19524e-12
-5.48809e-12
0
0
-2732.11
-2665.41
-2537.68
-2359.18
-2142.97
-1903.18
-1653.45
-1405.85
-1170.23
-953.905
-761.581
-595.6
-456.319
-342.534
-251.932
-181.575
-128.258
-88.7987
-60.2614
-40.085
-26.1442
-16.7295
-10.5037
-6.46097
-3.89831
-2.3111
-1.34055
-0.76551
-0.428411
-0.234864
-0.127987
-0.0661785
-0.040217
-0.0244766
-0.00767665
-0.00151917
-0.000218189
-2.46778e-05
-2.31389e-06
-1.86224e-07
-1.31857e-08
-8.25408e-10
-3.95142e-11
-1.09762e-12
0
0
-4.39047e-12
0
2.19523e-12
-3.29285e-12
0
3.29285e-12
2.19523e-12
1.09762e-12
0
2.19523e-12
-1.09762e-12
-2.19523e-12
-2.19523e-12
1.09762e-12
1.09762e-12
0
-1.09762e-12
-1.09762e-12
1.09762e-12
1.09762e-12
1.09762e-12
-1.09762e-12
0
0
1.09762e-12
-6.5857e-12
0
5.48809e-12
0
-2700.56
-2637.51
-2516.24
-2345.64
-2137.4
-1904.55
-1660.1
-1415.95
-1182.09
-966.12
-773.154
-605.915
-465.08
-349.674
-257.547
-185.855
-131.421
-91.0746
-61.8601
-41.1849
-26.8855
-17.209
-10.8043
-6.6483
-4.00813
-2.37499
-1.38451
-0.790453
-0.445546
-0.24817
-0.131239
-0.0637811
-0.0403663
-0.0278779
-0.0091357
-0.00184552
-0.000268334
-3.06093e-05
-2.88893e-06
-2.33748e-07
-1.66421e-08
-1.06798e-09
-5.26856e-11
-3.29285e-12
-1.09762e-12
-1.09762e-12
-5.48809e-12
0
4.39047e-12
1.09762e-12
0
0
0
1.09762e-12
1.09762e-12
-2.19523e-12
0
-1.09762e-12
-1.09762e-12
3.29285e-12
1.4269e-11
-2.19523e-12
-1.31714e-11
0
-9.87856e-12
-2.08547e-11
8.78094e-12
2.19523e-11
0
0
0
0
-2.19524e-12
-3.29285e-12
5.48809e-12
-2679.85
-2619.03
-2501.76
-2336.15
-2133.06
-1904.83
-1664.03
-1422.37
-1189.89
-974.345
-781.078
-613.073
-471.229
-354.738
-261.57
-188.945
-133.721
-92.7376
-63.0343
-41.9966
-27.4304
-17.5616
-11.0244
-6.79322
-4.10158
-2.42562
-1.41196
-0.811383
-0.462472
-0.256942
-0.133478
-0.0635415
-0.0404359
-0.0286144
-0.00945698
-0.00191888
-0.000279843
-3.1999e-05
-3.02645e-06
-2.45366e-07
-1.74894e-08
-1.10969e-09
-5.26856e-11
-1.09762e-11
-7.68332e-12
1.09762e-12
5.48809e-12
-1.09762e-12
-6.58571e-12
0
2.19524e-12
1.09762e-12
-2.19523e-12
-1.09762e-12
0
0
0
0
0
2.19524e-12
-2.19524e-12
6.5857e-12
0
-1.86595e-11
-4.39047e-12
9.87856e-12
3.29285e-12
3.29285e-12
1.09762e-12
0
-1.09762e-12
0
0
1.09762e-12
-1.09762e-12
-2666.35
-2606.91
-2492.12
-2329.65
-2129.86
-1904.65
-1666.32
-1426.41
-1194.94
-979.788
-786.412
-617.959
-475.47
-358.257
-264.389
-191.132
-135.361
-93.9256
-63.8725
-42.5774
-27.8231
-17.8262
-11.1973
-6.90076
-4.17064
-2.46566
-1.43071
-0.821444
-0.469072
-0.259765
-0.134174
-0.0635683
-0.0404546
-0.0287252
-0.00950604
-0.00193031
-0.000281674
-3.22248e-05
-3.04926e-06
-2.47343e-07
-1.76398e-08
-1.12177e-09
-6.47594e-11
0
2.19523e-12
-2.19523e-12
1.09762e-12
3.29285e-12
-1.09762e-12
0
1.09762e-12
0
-2.19523e-12
1.09762e-12
0
-1.09762e-12
-8.78094e-12
-8.78094e-12
4.39047e-12
8.78094e-12
4.39047e-12
0
-1.20738e-11
-1.09762e-12
1.31714e-11
2.19523e-12
-2.19523e-12
-1.09762e-12
1.09762e-12
-1.09762e-12
-4.39047e-12
-7.68332e-12
3.29285e-12
1.31714e-11
-3.29285e-12
-2657.64
-2599.04
-2485.78
-2325.27
-2127.58
-1904.34
-1667.63
-1428.92
-1198.18
-983.335
-789.938
-621.228
-478.339
-360.665
-266.332
-192.642
-136.501
-94.7587
-64.4638
-42.9868
-28.1011
-18.0103
-11.3177
-6.97588
-4.2155
-2.49781
-1.45076
-0.829364
-0.471773
-0.260538
-0.134338
-0.0635839
-0.0404583
-0.0287381
-0.00951183
-0.00193169
-0.000281899
-3.22531e-05
-3.05217e-06
-2.47592e-07
-1.76727e-08
-1.13055e-09
-5.04904e-11
-4.39047e-12
-5.48809e-12
5.48809e-12
4.39047e-12
0
0
0
0
0
2.19523e-12
0
-2.19524e-12
5.48809e-12
0
-5.48809e-12
1.09762e-12
0
-2.19524e-12
0
1.09762e-12
0
4.39047e-12
0
-4.39047e-12
-1.09762e-12
0
-4.39047e-12
4.39047e-12
5.48809e-12
-4.39047e-12
1.09762e-12
-1.09762e-12
-2652.08
-2594
-2481.68
-2322.39
-2126.02
-1904.02
-1668.38
-1430.47
-1200.23
-985.614
-792.23
-623.377
-480.244
-362.275
-267.636
-193.664
-137.279
-95.3397
-64.8796
-43.2682
-28.29
-18.1342
-11.3953
-7.02688
-4.25149
-2.52191
-1.46614
-0.837523
-0.474306
-0.261069
-0.134421
-0.0635935
-0.0404594
-0.0287394
-0.00951239
-0.00193182
-0.000281922
-3.22561e-05
-3.05248e-06
-2.47608e-07
-1.76541e-08
-1.14262e-09
-6.36618e-11
1.31714e-11
-5.48809e-12
2.19524e-12
5.48809e-12
-7.68332e-12
0
6.5857e-12
-3.29285e-12
-9.87856e-12
3.29285e-12
-5.48809e-12
-2.19524e-12
1.53666e-11
-1.09762e-12
0
5.48809e-12
1.09762e-12
-8.78094e-12
-1.09762e-12
5.48809e-12
8.78094e-12
0
-8.78094e-12
0
-4.39047e-12
0
-6.58571e-12
-1.09762e-12
9.87856e-12
9.87856e-12
1.09762e-12
-8.78094e-12
-2648.57
-2590.79
-2479.06
-2320.52
-2124.97
-1903.76
-1668.8
-1431.4
-1201.51
-987.056
-793.697
-624.767
-481.486
-363.33
-268.498
-194.345
-137.797
-95.7229
-65.1535
-43.4618
-28.4236
-18.2222
-11.4545
-7.06015
-4.26393
-2.52861
-1.48016
-0.850923
-0.478923
-0.262014
-0.134559
-0.0636092
-0.0404609
-0.0287396
-0.00951245
-0.00193184
-0.000281924
-3.22563e-05
-3.05249e-06
-2.47615e-07
-1.7664e-08
-1.13164e-09
-6.47594e-11
-2.19523e-12
0
0
3.29285e-12
0
-4.39047e-12
0
1.09762e-12
0
-1.09762e-12
1.09762e-12
-4.39047e-12
-1.09762e-12
6.5857e-12
8.78094e-12
-1.09762e-12
-8.78094e-12
0
0
-2.19523e-12
4.39047e-12
2.19523e-12
-5.48809e-12
-2.19523e-12
0
2.19523e-12
-6.5857e-12
-4.39047e-12
6.5857e-12
4.39047e-12
8.78094e-12
-7.68332e-12
-2646.38
-2588.8
-2477.41
-2319.33
-2124.28
-1903.57
-1669.03
-1431.97
-1202.29
-987.948
-794.618
-625.65
-482.283
-364.013
-269.061
-194.792
-138.141
-95.9753
-65.3321
-43.5862
-28.5033
-18.2765
-11.4941
-7.08365
-4.28004
-2.54108
-1.4889
-0.856871
-0.480873
-0.26241
-0.134617
-0.0636159
-0.0404616
-0.0287397
-0.00951245
-0.00193184
-0.000281924
-3.22563e-05
-3.05251e-06
-2.47615e-07
-1.76673e-08
-1.12945e-09
-4.50023e-11
-1.64643e-11
-4.39047e-12
1.4269e-11
0
1.09762e-12
0
-1.09762e-12
1.09762e-12
0
-1.09762e-12
0
2.19524e-12
0
-1.09762e-12
0
-1.09762e-12
0
0
1.09762e-12
-1.09762e-12
0
0
0
-1.09762e-12
0
1.09762e-12
-1.4269e-11
4.39047e-12
9.87856e-12
-3.29285e-12
4.39047e-12
-1.09762e-12
-2645.03
-2587.57
-2476.39
-2318.59
-2123.84
-1903.43
-1669.16
-1432.3
-1202.76
-988.5
-795.189
-626.201
-482.779
-364.441
-269.417
-195.071
-138.357
-96.1376
-65.451
-43.6692
-28.5594
-18.3166
-11.5232
-7.10358
-4.29097
-2.54727
-1.49179
-0.858356
-0.48133
-0.262503
-0.134631
-0.0636175
-0.0404617
-0.0287397
-0.00951246
-0.00193184
-0.000281924
-3.22563e-05
-3.0525e-06
-2.47607e-07
-1.76552e-08
-1.12286e-09
-6.69547e-11
-2.305e-11
0
1.53666e-11
0
0
1.09762e-12
-1.09762e-12
1.09762e-12
0
-1.09762e-12
-1.09762e-12
0
1.09762e-12
-1.09762e-12
0
1.09762e-12
0
-3.29285e-12
0
3.29285e-12
0
1.09762e-12
8.78094e-12
0
-9.87856e-12
0
0
9.87856e-12
3.29285e-12
-1.4269e-11
-2.19523e-12
3.29285e-12
-2644.21
-2586.82
-2475.77
-2318.13
-2123.56
-1903.34
-1669.23
-1432.49
-1203.05
-988.835
-795.54
-626.537
-483.084
-364.709
-269.637
-195.248
-138.491
-96.2388
-65.5279
-43.7257
-28.606
-18.3461
-11.5358
-7.11178
-4.29769
-2.55023
-1.49271
-0.85866
-0.481411
-0.262518
-0.134633
-0.0636178
-0.0404617
-0.0287397
-0.00951246
-0.00193184
-0.000281924
-3.22563e-05
-3.0525e-06
-2.47617e-07
-1.76574e-08
-1.12945e-09
-7.24428e-11
0
1.09762e-12
1.09762e-11
-1.09762e-12
-2.19523e-12
0
-8.78094e-12
0
0
0
1.09762e-12
1.09762e-12
-2.19523e-12
1.09762e-12
-1.09762e-12
2.19523e-12
-2.19523e-12
-1.09762e-11
3.29285e-12
7.68332e-12
-8.78094e-12
-1.09762e-11
9.87856e-12
9.87856e-12
5.48809e-12
-1.09762e-12
-4.39047e-12
0
-1.09762e-12
0
0
1.09762e-12
-2643.72
-2586.37
-2475.4
-2317.85
-2123.39
-1903.28
-1669.26
-1432.6
-1203.22
-989.039
-795.752
-626.743
-483.276
-364.876
-269.771
-195.351
-138.573
-96.3051
-65.5771
-43.761
-28.6322
-18.3603
-11.5372
-7.11554
-4.30726
-2.55415
-1.4936
-0.858813
-0.481434
-0.262521
-0.134633
-0.0636178
-0.0404617
-0.0287397
-0.00951246
-0.00193184
-0.000281924
-3.22563e-05
-3.05248e-06
-2.4762e-07
-1.76607e-08
-1.12835e-09
-7.35404e-11
-1.09762e-12
-9.87856e-12
2.19524e-12
8.78094e-12
-1.09762e-12
-8.78094e-12
1.09762e-12
7.68332e-12
0
0
1.09762e-12
2.19524e-12
1.86595e-11
-4.39047e-12
-1.75619e-11
1.09762e-12
0
-1.09762e-11
-1.09762e-12
1.31714e-11
0
-2.19523e-12
0
1.09762e-12
-1.09762e-12
0
-2.19524e-12
-2.19523e-12
6.58571e-12
-3.29285e-12
-7.68332e-12
8.78094e-12
-2643.44
-2586.11
-2475.17
-2317.68
-2123.29
-1903.24
-1669.27
-1432.67
-1203.32
-989.154
-795.877
-626.867
-483.393
-364.981
-269.854
-195.412
-138.621
-96.3436
-65.6058
-43.7775
-28.6388
-18.3726
-11.5473
-7.12043
-4.31171
-2.55578
-1.49395
-0.858869
-0.481441
-0.262522
-0.134634
-0.0636178
-0.0404617
-0.0287397
-0.00951246
-0.00193184
-0.000281924
-3.22563e-05
-3.05249e-06
-2.47601e-07
-1.76497e-08
-1.13933e-09
-7.24428e-11
-6.5857e-12
0
4.39047e-12
-3.29285e-12
2.19524e-12
3.29285e-12
-2.19523e-12
2.19524e-12
0
1.09762e-12
0
-3.29285e-12
9.87856e-12
0
-9.87856e-12
0
0
0
0
-1.64643e-11
0
1.64643e-11
0
1.09762e-12
0
0
-1.31714e-11
0
1.20738e-11
-3.29285e-12
1.09762e-12
2.19524e-12
-2643.27
-2585.95
-2475.04
-2317.59
-2123.24
-1903.22
-1669.28
-1432.7
-1203.37
-989.221
-795.953
-626.942
-483.457
-365.039
-269.908
-195.453
-138.651
-96.3615
-65.6192
-43.7913
-28.6461
-18.3783
-11.5522
-7.12307
-4.31316
-2.55624
-1.49404
-0.858883
-0.481443
-0.262522
-0.134634
-0.0636178
-0.0404617
-0.0287397
-0.00951246
-0.00193184
-0.000281924
-3.22563e-05
-3.0525e-06
-2.47613e-07
-1.76607e-08
-1.13164e-09
-6.47594e-11
-5.48809e-12
2.19523e-12
1.09762e-12
0
0
0
0
1.09762e-12
0
-1.09762e-12
1.09762e-12
0
-1.09762e-12
-7.68332e-12
-1.09762e-12
7.68332e-12
1.09762e-12
0
0
0
-1.09762e-12
-4.39047e-12
1.20738e-11
4.39047e-12
-1.09762e-11
-2.19523e-12
-1.09762e-12
2.19523e-12
0
0
-1.09762e-11
1.20738e-11
-2643.19
-2585.86
-2474.95
-2317.53
-2123.21
-1903.21
-1669.29
-1432.72
-1203.39
-989.256
-795.997
-626.983
-483.495
-365.072
-269.933
-195.477
-138.669
-96.372
-65.6253
-43.7993
-28.6554
-18.3799
-11.554
-7.12698
-4.31483
-2.55663
-1.49411
-0.858891
-0.481444
-0.262522
-0.134634
-0.0636178
-0.0404617
-0.0287397
-0.00951246
-0.00193184
-0.000281924
-3.22563e-05
-3.0525e-06
-2.47615e-07
-1.76596e-08
-1.12396e-09
-6.36618e-11
-5.48809e-12
0
1.09762e-12
-3.29285e-12
-1.09762e-12
4.39047e-12
0
0
5.48809e-12
0
-7.68332e-12
3.29285e-12
2.19523e-12
7.68332e-12
1.09762e-12
-1.20738e-11
0
-1.09762e-12
-1.09762e-12
-2.19524e-12
0
1.75619e-11
0
-1.4269e-11
0
1.09762e-12
-5.48809e-12
-2.19523e-12
6.58571e-12
-1.09762e-12
-1.09762e-12
2.19524e-12
-2643.13
-2585.81
-2474.91
-2317.5
-2123.19
-1903.19
-1669.29
-1432.73
-1203.42
-989.283
-796.011
-626.999
-483.516
-365.089
-269.947
-195.491
-138.685
-96.3863
-65.6308
-43.8019
-28.656
-18.3731
-11.5545
-7.1356
-4.31846
-2.55743
-1.49423
-0.858905
-0.481445
-0.262522
-0.134634
-0.0636178
-0.0404617
-0.0287397
-0.00951246
-0.00193184
-0.000281924
-3.22563e-05
-3.0525e-06
-2.47619e-07
-1.76673e-08
-1.12945e-09
-6.25642e-11
1.09762e-12
-2.19524e-12
-1.09762e-12
-3.29285e-12
-1.09762e-12
6.58571e-12
-5.48809e-12
-8.78094e-12
5.48809e-12
8.78094e-12
-1.31714e-11
6.58571e-12
1.53666e-11
-2.19524e-12
-3.29285e-12
-5.48809e-12
2.19524e-12
1.09762e-12
-3.29285e-12
4.39047e-12
4.39047e-12
-4.39047e-12
-2.19524e-12
0
0
0
0
0
0
1.09762e-12
1.09762e-12
-2.19524e-12
-2643.1
-2585.79
-2474.89
-2317.49
-2123.18
-1903.19
-1669.29
-1432.74
-1203.43
-989.294
-796.019
-627.008
-483.527
-365.102
-269.962
-195.502
-138.694
-96.3922
-65.6328
-43.8024
-28.6554
-18.3701
-11.5546
-7.13901
-4.31992
-2.55775
-1.49428
-0.858911
-0.481445
-0.262522
-0.134634
-0.0636178
-0.0404617
-0.0287397
-0.00951246
-0.00193184
-0.000281924
-3.22563e-05
-3.05249e-06
-2.47609e-07
-1.76705e-08
-1.1514e-09
-7.24428e-11
0
1.75619e-11
1.09762e-12
-2.08547e-11
0
3.29285e-12
0
-2.19523e-12
-1.09762e-12
3.29285e-12
0
0
0
8.78094e-12
-2.19523e-12
-5.48809e-12
1.09762e-12
-2.19523e-12
0
2.19523e-12
-2.19523e-12
-2.19523e-12
4.39047e-12
1.09762e-12
-3.29285e-12
0
0
2.19523e-12
0
-2.19523e-12
-5.48809e-12
5.48809e-12
-2643.09
-2585.77
-2474.88
-2317.47
-2123.16
-1903.19
-1669.3
-1432.75
-1203.43
-989.294
-796.031
-627.021
-483.531
-365.101
-269.968
-195.513
-138.699
-96.3942
-65.6333
-43.8025
-28.6553
-18.3694
-11.5546
-7.13974
-4.32024
-2.55783
-1.49429
-0.858912
-0.481446
-0.262522
-0.134634
-0.0636178
-0.0404617
-0.0287397
-0.00951246
-0.00193184
-0.000281924
-3.22563e-05
-3.05249e-06
-2.4761e-07
-1.76574e-08
-1.13823e-09
-6.91499e-11
-5.48809e-12
1.09762e-12
0
3.29285e-12
0
-4.39047e-12
0
0
0
0
0
0
2.19523e-12
0
-1.09762e-12
0
0
-2.19524e-12
0
-4.39047e-12
-1.09762e-12
5.48809e-12
1.09762e-12
0
2.19523e-12
-1.09762e-12
-6.58571e-12
0
2.19524e-12
-1.4269e-11
4.39047e-12
1.31714e-11
-2643.08
-2585.76
-2474.87
-2317.46
-2123.15
-1903.19
-1669.3
-1432.75
-1203.44
-989.305
-796.042
-627.028
-483.532
-365.099
-269.969
-195.517
-138.701
-96.3947
-65.6335
-43.8025
-28.6552
-18.3693
-11.5546
-7.13985
-4.32029
-2.55784
-1.49429
-0.858912
-0.481446
-0.262522
-0.134634
-0.0636178
-0.0404617
-0.0287397
-0.00951246
-0.00193184
-0.000281924
-3.22563e-05
-3.05248e-06
-2.47605e-07
-1.76585e-08
-1.13384e-09
-7.24428e-11
-6.5857e-12
0
5.48809e-12
0
8.78094e-12
2.19524e-12
-1.20738e-11
0
-5.48809e-12
-1.09762e-12
5.48809e-12
0
2.19523e-12
0
1.09762e-12
0
-2.19524e-12
0
-5.48809e-12
-1.75619e-11
4.39047e-12
1.86595e-11
0
-1.09762e-12
1.09762e-12
0
0
0
0
0
8.78094e-12
-8.78094e-12
-2643.08
-2585.75
-2474.86
-2317.46
-2123.16
-1903.19
-1669.3
-1432.75
-1203.44
-989.31
-796.053
-627.033
-483.533
-365.099
-269.969
-195.517
-138.701
-96.3948
-65.6335
-43.8025
-28.6552
-18.3693
-11.5546
-7.13986
-4.32029
-2.55784
-1.49429
-0.858912
-0.481446
-0.262522
-0.134634
-0.0636178
-0.0404617
-0.0287397
-0.00951246
-0.00193184
-0.000281924
-3.22563e-05
-3.0525e-06
-2.47614e-07
-1.76683e-08
-1.12725e-09
-6.36618e-11
1.09762e-12
1.09762e-12
6.5857e-12
0
1.09762e-12
-2.19523e-12
-8.78094e-12
2.19523e-12
1.09762e-12
2.19523e-12
-1.09762e-12
-2.19523e-12
0
0
0
-1.09762e-12
0
1.09762e-12
-1.09762e-12
0
1.09762e-12
-3.29285e-12
0
3.29285e-12
9.87856e-12
3.29285e-12
-8.78094e-12
-2.41476e-11
-1.09762e-12
1.64643e-11
2.19523e-12
2.19523e-12
-2643.08
-2585.75
-2474.86
-2317.46
-2123.16
-1903.18
-1669.3
-1432.75
-1203.43
-989.311
-796.057
-627.034
-483.533
-365.098
-269.969
-195.517
-138.701
-96.3948
-65.6335
-43.8025
-28.6552
-18.3693
-11.5546
-7.13986
-4.32029
-2.55784
-1.49429
-0.858912
-0.481446
-0.262522
-0.134634
-0.0636178
-0.0404617
-0.0287397
-0.00951246
-0.00193184
-0.000281924
-3.22563e-05
-3.05249e-06
-2.47606e-07
-1.76629e-08
-1.13713e-09
-6.69547e-11
-3.29285e-12
-2.19524e-12
2.305e-11
-1.09762e-12
-1.64643e-11
0
-1.09762e-12
0
1.4269e-11
0
-1.53666e-11
0
1.20738e-11
-1.09762e-12
-9.87856e-12
0
-1.09762e-12
1.09762e-12
0
0
0
0
0
9.87856e-12
2.19523e-12
-9.87856e-12
-6.58571e-12
-1.09762e-12
5.48809e-12
0
0
0
-2643.08
-2585.75
-2474.86
-2317.46
-2123.16
-1903.18
-1669.3
-1432.76
-1203.43
-989.311
-796.058
-627.035
-483.533
-365.098
-269.969
-195.518
-138.701
-96.3948
-65.6335
-43.8025
-28.6552
-18.3693
-11.5546
-7.13986
-4.32029
-2.55784
-1.49429
-0.858912
-0.481446
-0.262522
-0.134634
-0.0636178
-0.0404617
-0.0287397
-0.00951246
-0.00193184
-0.000281924
-3.22563e-05
-3.05249e-06
-2.47618e-07
-1.76651e-08
-1.12506e-09
-6.69547e-11
0
0
9.87856e-12
0
-9.87856e-12
0
-2.19523e-12
-9.87856e-12
1.09762e-12
1.09762e-11
1.09762e-12
2.19524e-12
8.78094e-12
-1.31714e-11
-9.87856e-12
1.20738e-11
-1.09762e-12
-4.39047e-12
-3.29285e-12
4.39047e-12
3.29285e-12
0
0
1.09762e-12
-1.09762e-12
7.68332e-12
1.09762e-12
-4.39047e-12
0
-2.19524e-12
0
-2.19524e-12
-2643.07
-2585.75
-2474.86
-2317.46
-2123.16
-1903.18
-1669.3
-1432.76
-1203.43
-989.311
-796.058
-627.035
-483.533
-365.099
-269.969
-195.518
-138.701
-96.3948
-65.6335
-43.8025
-28.6552
-18.3693
-11.5546
-7.13986
-4.32029
-2.55784
-1.49429
-0.858912
-0.481446
-0.262522
-0.134634
-0.0636178
-0.0404617
-0.0287397
-0.00951246
-0.00193184
-0.000281924
-3.22563e-05
-3.05248e-06
-2.4763e-07
-1.76683e-08
-1.11957e-09
-6.80523e-11
-7.68332e-12
0
5.48809e-12
-1.09762e-12
1.09762e-12
0
-5.48809e-12
-3.29285e-12
3.29285e-12
7.68332e-12
0
-2.19523e-12
0
-1.75619e-11
-9.87856e-12
5.48809e-12
5.48809e-12
1.20738e-11
4.39047e-12
-2.19523e-12
0
-7.68332e-12
0
1.4269e-11
0
-4.39047e-12
-7.68332e-12
-1.09762e-12
-1.09762e-12
0
1.64643e-11
-6.5857e-12
-2643.06
-2585.75
-2474.87
-2317.46
-2123.16
-1903.18
-1669.3
-1432.76
-1203.43
-989.311
-796.058
-627.035
-483.533
-365.099
-269.969
-195.518
-138.701
-96.3948
-65.6335
-43.8025
-28.6552
-18.3693
-11.5546
-7.13986
-4.32029
-2.55784
-1.49429
-0.858912
-0.481446
-0.262522
-0.134634
-0.0636178
-0.0404617
-0.0287397
-0.00951246
-0.00193184
-0.000281924
-3.22563e-05
-3.05248e-06
-2.47608e-07
-1.76596e-08
-1.11737e-09
-6.25642e-11
-1.4269e-11
-1.09762e-12
1.09762e-12
0
0
-2.19524e-12
-2.19523e-12
4.39047e-12
1.09762e-12
-1.09762e-12
-1.09762e-12
8.78094e-12
3.29285e-12
-1.09762e-11
-9.87856e-12
1.09762e-12
-5.48809e-12
1.09762e-12
1.31714e-11
-5.48809e-12
-1.09762e-12
6.5857e-12
0
1.09762e-12
0
-1.09762e-12
-1.31714e-11
0
6.58571e-12
-4.39047e-12
6.5857e-12
4.39047e-12
-2643.05
-2585.75
-2474.87
-2317.46
-2123.16
-1903.18
-1669.3
-1432.76
-1203.43
-989.311
-796.058
-627.035
-483.533
-365.099
-269.969
-195.518
-138.701
-96.3948
-65.6335
-43.8025
-28.6552
-18.3693
-11.5546
-7.13986
-4.32029
-2.55784
-1.49429
-0.858912
-0.481446
-0.262522
-0.134634
-0.0636178
-0.0404617
-0.0287397
-0.00951246
-0.00193184
-0.000281924
-3.22563e-05
-3.05248e-06
-2.47617e-07
-1.76618e-08
-1.12177e-09
-6.69547e-11
0
-4.39047e-12
0
-5.48809e-12
-1.09762e-12
1.31714e-11
-2.19523e-12
-4.39047e-12
3.29285e-12
-7.68332e-12
1.09762e-12
1.53666e-11
1.09762e-12
-1.75619e-11
8.78094e-12
1.31714e-11
-8.78094e-12
2.19524e-12
0
-2.19524e-12
-1.09762e-12
1.09762e-12
-3.29285e-12
4.39047e-12
4.39047e-12
1.09762e-12
-2.19524e-12
-5.48809e-12
1.09762e-12
1.09762e-12
-1.09762e-12
0
-2643.05
-2585.75
-2474.87
-2317.46
-2123.16
-1903.18
-1669.3
-1432.76
-1203.43
-989.311
-796.058
-627.035
-483.533
-365.099
-269.969
-195.518
-138.701
-96.3948
-65.6335
-43.8025
-28.6552
-18.3693
-11.5546
-7.13986
-4.32029
-2.55784
-1.49429
-0.858912
-0.481446
-0.262522
-0.134634
-0.0636178
-0.0404617
-0.0287397
-0.00951246
-0.00193184
-0.000281924
-3.22563e-05
-3.0525e-06
-2.47613e-07
-1.76497e-08
-1.12835e-09
-8.45165e-11
-9.87856e-12
1.53666e-11
1.09762e-12
-2.19523e-12
1.09762e-12
-9.87856e-12
0
1.4269e-11
0
-7.68332e-12
1.09762e-12
-1.09762e-11
-1.09762e-12
9.87856e-12
0
3.29285e-12
-1.09762e-12
-2.19523e-12
-1.09762e-12
-5.48809e-12
-2.19523e-12
7.68332e-12
4.39047e-12
1.31714e-11
0
-1.31714e-11
8.78094e-12
1.31714e-11
-1.09762e-11
-1.09762e-11
-1.09762e-12
1.09762e-12
-2643.05
-2585.75
-2474.87
-2317.46
-2123.16
-1903.18
-1669.3
-1432.76
-1203.43
-989.311
-796.058
-627.035
-483.533
-365.099
-269.969
-195.518
-138.701
-96.3948
-65.6335
-43.8025
-28.6552
-18.3693
-11.5546
-7.13986
-4.32029
-2.55784
-1.49429
-0.858912
-0.481446
-0.262522
-0.134634
-0.0636178
-0.0404617
-0.0287397
-0.00951246
-0.00193184
-0.000281924
-3.22563e-05
-3.05251e-06
-2.47596e-07
-1.76574e-08
-1.13603e-09
-5.1588e-11
-1.09762e-11
-4.39047e-12
9.87856e-12
9.87856e-12
-1.09762e-11
-1.4269e-11
0
7.68332e-12
1.4269e-11
7.68332e-12
-1.4269e-11
0
4.39047e-12
-8.78094e-12
-5.48809e-12
0
0
0
0
0
-3.29285e-12
0
4.39047e-12
0
-1.09762e-12
-8.78094e-12
-6.58571e-12
1.53666e-11
5.48809e-12
-8.78094e-12
0
3.29285e-12
-2643.05
-2585.75
-2474.87
-2317.46
-2123.16
-1903.18
-1669.3
-1432.76
-1203.43
-989.311
-796.058
-627.035
-483.533
-365.099
-269.969
-195.518
-138.701
-96.3948
-65.6335
-43.8025
-28.6552
-18.3693
-11.5546
-7.13986
-4.32029
-2.55784
-1.49429
-0.858912
-0.481446
-0.262522
-0.134634
-0.0636178
-0.0404617
-0.0287397
-0.00951246
-0.00193184
-0.000281924
-3.22563e-05
-3.0525e-06
-2.47605e-07
-1.76574e-08
-1.12286e-09
-5.92713e-11
-1.09762e-11
-3.29285e-12
1.09762e-12
-1.09762e-12
0
0
-1.09762e-12
8.78094e-12
1.4269e-11
-8.78094e-12
-1.53666e-11
0
1.53666e-11
0
-1.31714e-11
0
-1.09762e-12
-3.29285e-12
-1.09762e-12
4.39047e-12
0
0
0
0
1.09762e-12
-1.09762e-12
-7.68332e-12
1.09762e-12
7.68332e-12
-8.78094e-12
0
7.68332e-12
-2643.05
-2585.75
-2474.87
-2317.46
-2123.16
-1903.18
-1669.3
-1432.76
-1203.43
-989.311
-796.058
-627.035
-483.533
-365.099
-269.969
-195.518
-138.701
-96.3948
-65.6335
-43.8025
-28.6552
-18.3693
-11.5546
-7.13986
-4.32029
-2.55784
-1.49429
-0.858912
-0.481446
-0.262522
-0.134634
-0.0636178
-0.0404617
-0.0287397
-0.00951246
-0.00193184
-0.000281924
-3.22563e-05
-3.05249e-06
-2.47607e-07
-1.76673e-08
-1.14701e-09
-7.13451e-11
9.87856e-12
0
-1.09762e-12
1.09762e-12
-1.09762e-12
0
0
1.09762e-12
0
0
-1.09762e-12
-9.87856e-12
0
4.39047e-12
0
5.48809e-12
0
-2.19523e-12
5.48809e-12
2.19523e-12
-4.39047e-12
0
-1.09762e-12
0
7.68332e-12
7.68332e-12
-6.5857e-12
-9.87856e-12
-7.68332e-12
-2.19523e-12
3.29285e-12
7.68332e-12
-2643.05
-2585.75
-2474.87
-2317.46
-2123.16
-1903.18
-1669.3
-1432.76
-1203.43
-989.311
-796.058
-627.035
-483.533
-365.099
-269.969
-195.518
-138.701
-96.3948
-65.6335
-43.8025
-28.6552
-18.3693
-11.5546
-7.13986
-4.32029
-2.55784
-1.49429
-0.858912
-0.481446
-0.262522
-0.134634
-0.0636178
-0.0404617
-0.0287397
-0.00951246
-0.00193184
-0.000281924
-3.22563e-05
-3.05249e-06
-2.47616e-07
-1.76607e-08
-1.13274e-09
-6.69547e-11
-1.09762e-12
1.09762e-12
-1.09762e-12
3.29285e-12
0
-2.19524e-12
0
3.29285e-12
2.19524e-12
-7.68332e-12
-2.19524e-12
3.29285e-12
-1.09762e-12
-1.09762e-12
1.09762e-12
1.09762e-12
0
-1.09762e-12
1.09762e-12
-1.09762e-12
0
-4.39047e-12
0
4.39047e-12
1.09762e-12
4.39047e-12
0
-5.48809e-12
-4.39047e-12
1.09762e-12
4.39047e-12
0
-2643.05
-2585.75
-2474.87
-2317.46
-2123.16
-1903.18
-1669.3
-1432.76
-1203.43
-989.311
-796.058
-627.035
-483.533
-365.099
-269.969
-195.518
-138.701
-96.3948
-65.6335
-43.8025
-28.6552
-18.3693
-11.5546
-7.13986
-4.32029
-2.55784
-1.49429
-0.858912
-0.481446
-0.262522
-0.134634
-0.0636178
-0.0404617
-0.0287397
-0.00951246
-0.00193184
-0.000281924
-3.22563e-05
-3.05249e-06
-2.47618e-07
-1.76673e-08
-1.13164e-09
-6.25642e-11
-5.48809e-12
3.29285e-12
0
-5.48809e-12
5.48809e-12
2.19524e-12
-6.5857e-12
-1.09762e-12
5.48809e-12
0
-5.48809e-12
0
3.29285e-12
0
-2.19524e-12
-1.31714e-11
-1.09762e-12
1.20738e-11
2.19523e-12
1.09762e-12
-9.87856e-12
-1.09762e-12
7.68332e-12
0
1.09762e-12
-4.39047e-12
-1.75619e-11
5.48809e-12
1.64643e-11
-2.19524e-12
1.09762e-12
1.09762e-12
-2643.05
-2585.75
-2474.87
-2317.46
-2123.16
-1903.18
-1669.3
-1432.76
-1203.43
-989.311
-796.058
-627.035
-483.533
-365.099
-269.969