/*--------------------------------*- C++ -*----------------------------------*\
  =========                 |
  \\      /  F ield         | OpenFOAM: The Open Source CFD Toolbox
   \\    /   O peration     | Website:  https://openfoam.org
    \\  /    A nd           | Version:  10
     \\/     M anipulation  |
\*---------------------------------------------------------------------------*/
FoamFile
{
    format      ascii;
    class       volScalarField;
    location    "190";
    object      gradTx;
}
// * * * * * * * * * * * * * * * * * * * * * * * * * * * * * * * * * * * * * //

dimensions      [0 -1 0 1 0 0 0];

internalField   nonuniform List<scalar> 
11250
(
14282
8050.93
5223.46
3709.38
2783.13
2158.26
1706.79
1364.94
1097.79
884.629
712.35
572.096
457.567
364.051
287.88
226.098
176.269
136.347
104.604
79.569
59.9958
44.8317
33.1938
24.3485
17.6918
12.7325
9.07512
6.4056
4.4772
3.09864
2.1234
1.44071
0.967799
0.643647
0.423789
0.276234
0.178244
0.113852
0.0719831
0.045046
0.0278984
0.0170983
0.0103687
0.00622058
0.00369143
0.00216637
0.00125705
0.000721019
0.000408705
0.000228889
0.000126612
6.91567e-05
3.72893e-05
1.98429e-05
1.04179e-05
5.3951e-06
2.75525e-06
1.38728e-06
6.88534e-07
3.36801e-07
1.62324e-07
7.70879e-08
3.60864e-08
1.66377e-08
7.57576e-09
3.40371e-09
1.53557e-09
6.71742e-10
2.74404e-10
6.69547e-11
-4.39047e-12
0
-7.68332e-12
0
-9.87856e-12
4078.01
4650.25
3914.8
3127.97
2489.62
1993.91
1607.16
1300.85
1054.72
854.742
691.12
556.76
446.358
355.795
281.77
221.568
172.909
133.859
102.767
78.2181
59.0073
44.1124
32.6738
23.9751
17.4256
12.5442
8.943
6.31365
4.41377
3.05525
2.09399
1.42095
0.954647
0.634974
0.418124
0.272569
0.175896
0.112362
0.0710475
0.0444643
0.0275405
0.0168805
0.0102376
0.00614252
0.00364549
0.00213966
0.0012417
0.000712317
0.000403834
0.000226199
0.000125147
6.837e-05
3.68731e-05
1.9626e-05
1.03066e-05
5.33889e-06
2.7273e-06
1.37362e-06
6.8196e-07
3.33705e-07
1.60901e-07
7.64447e-08
3.57725e-08
1.65257e-08
7.52746e-09
3.362e-09
1.4741e-09
6.61863e-10
2.88673e-10
1.18543e-10
1.75619e-11
0
8.78094e-12
2.19523e-12
0
1458.8
2560.13
2662.24
2404.41
2061.26
1729.55
1436.93
1187.07
976.288
799.366
651.295
527.733
424.999
339.981
270.021
212.828
166.41
129.038
99.2009
75.5919
57.0832
42.711
31.6597
23.2463
16.9058
12.1762
8.68468
6.13381
4.28962
2.97031
2.03639
1.38224
0.928873
0.617974
0.407017
0.265381
0.171289
0.109439
0.0692112
0.0433225
0.0268379
0.0164527
0.00997995
0.00598908
0.00355516
0.00208711
0.00121151
0.000695182
0.000394237
0.000220896
0.000122257
6.68172e-05
3.60509e-05
1.91971e-05
1.00863e-05
5.22752e-06
2.67188e-06
1.34651e-06
6.68928e-07
3.27527e-07
1.5804e-07
7.51374e-08
3.51863e-08
1.62107e-08
7.34745e-09
3.29944e-09
1.44556e-09
6.30032e-10
2.68916e-10
1.21836e-10
4.82952e-11
1.64643e-11
0
-1.09762e-12
8.78094e-12
656.817
1472.05
1774.18
1772.36
1629.04
1434.84
1233.6
1044.43
874.556
725.745
597.387
487.904
395.389
317.883
253.5
200.475
157.189
122.173
94.1096
71.834
54.3247
40.6986
30.2013
22.197
16.1566
11.6455
8.31174
5.87397
4.11015
2.84743
1.95302
1.32619
0.891539
0.593338
0.390914
0.254957
0.164606
0.105197
0.0665456
0.0416644
0.0258172
0.015831
0.00960542
0.00576594
0.00342375
0.00201062
0.00116753
0.000670213
0.000380243
0.000213157
0.000118035
6.45469e-05
3.48475e-05
1.85687e-05
9.76314e-06
5.06387e-06
2.59034e-06
1.30651e-06
6.49638e-07
3.18376e-07
1.53759e-07
7.31606e-08
3.43038e-08
1.58331e-08
7.1872e-09
3.21821e-09
1.40495e-09
5.88323e-10
2.42573e-10
1.03176e-10
2.85381e-11
5.48809e-12
-1.09762e-12
-1.09762e-12
-5.48809e-12
354.143
899.808
1194.5
1287.77
1255.04
1155.64
1027.48
892.376
761.95
641.914
534.664
440.789
359.907
291.132
233.337
185.301
145.801
113.657
87.7711
67.1411
50.8709
38.1733
28.3679
20.8757
15.2117
10.9753
7.84034
5.54521
3.88288
2.69172
1.84729
1.25507
0.844137
0.562042
0.370449
0.241703
0.156106
0.099799
0.0631517
0.0395524
0.0245165
0.0150385
0.00912768
0.00548117
0.00325593
0.00191288
0.00111129
0.000638256
0.000362316
0.000203233
0.000112616
6.16288e-05
3.32987e-05
1.77586e-05
9.34579e-06
4.85216e-06
2.48461e-06
1.25453e-06
6.24487e-07
3.06412e-07
1.48163e-07
7.0602e-08
3.31437e-08
1.5326e-08
6.96658e-09
3.10845e-09
1.36434e-09
5.67468e-10
2.42573e-10
8.67118e-11
1.86595e-11
-1.97571e-11
-7.68332e-12
-1.09762e-12
-1.09762e-12
214.963
581.129
820.453
934.899
954.702
913.236
837.189
745.07
648.678
555.067
468.166
389.919
321.036
261.482
210.777
168.192
132.878
103.943
80.5087
61.7441
46.8863
35.252
26.2419
19.3406
14.112
10.1941
7.29007
5.161
3.61698
2.50936
1.72338
1.17164
0.788493
0.525281
0.346394
0.226115
0.146103
0.0934435
0.059154
0.0370633
0.0229827
0.0141033
0.00856366
0.00514474
0.00305752
0.00179724
0.00104469
0.000600371
0.00034104
0.00019144
0.000106167
5.8151e-05
3.14497e-05
1.67898e-05
8.84563e-06
4.59785e-06
2.3573e-06
1.19182e-06
5.94078e-07
2.91883e-07
1.41354e-07
6.74563e-08
3.17157e-08
1.46751e-08
6.68998e-09
3.00967e-09
1.31824e-09
5.65273e-10
2.49159e-10
1.10859e-10
6.80523e-11
1.75619e-11
-3.29285e-12
0
0
140.37
391.736
575.266
682.045
722.231
713.015
671.337
610.926
541.791
470.727
402.07
338.394
281.058
230.604
187.04
150.037
119.068
93.4999
72.6618
55.8879
42.547
32.0607
23.9131
17.6549
12.9021
9.33293
6.68254
4.73619
3.32262
2.30725
1.58589
1.07899
0.726649
0.484392
0.319619
0.208752
0.134954
0.0863551
0.0546926
0.0342837
0.0212688
0.0130576
0.0079325
0.00476796
0.00283513
0.00166748
0.00096988
0.000557769
0.000317083
0.000178142
9.88833e-05
5.42158e-05
2.93532e-05
1.56889e-05
8.27599e-06
4.30744e-06
2.21151e-06
1.11974e-06
5.58995e-07
2.75077e-07
1.33436e-07
6.37683e-08
3.0022e-08
1.39332e-08
6.39252e-09
2.88564e-09
1.27653e-09
5.5759e-10
2.49159e-10
1.36105e-10
9.87856e-11
4.06118e-11
0
-7.68332e-12
0
95.9196
272.458
410.538
500.799
545.308
552.339
532.017
493.792
445.379
392.568
339.43
288.649
241.863
199.94
163.214
131.649
104.975
82.7743
64.5587
49.8121
38.0267
28.7247
21.4715
15.8829
11.6271
8.4237
6.03992
4.28612
3.0103
2.09254
1.43966
0.980339
0.660734
0.440772
0.291032
0.1902
0.123032
0.07877
0.0499149
0.031305
0.0194308
0.0119353
0.00725453
0.00436287
0.00259578
0.00152768
0.000889186
0.000511753
0.000291167
0.000163733
9.09764e-05
4.99353e-05
2.70678e-05
1.44858e-05
7.65177e-06
3.98834e-06
2.0508e-06
1.04002e-06
5.2005e-07
2.56375e-07
1.24574e-07
5.96456e-08
2.81177e-08
1.30715e-08
5.98092e-09
2.69794e-09
1.22055e-09
5.35637e-10
2.35988e-10
1.07567e-10
5.48809e-11
4.17095e-11
1.4269e-11
0
4.39047e-12
67.4782
193.738
297.046
369.921
411.527
425.541
417.785
394.477
361.235
322.649
282.205
242.391
204.862
170.623
140.188
113.716
91.1219
72.1612
56.4944
43.7354
33.4864
25.3614
19.0017
14.0853
10.3305
7.49693
5.38359
3.82563
2.69024
1.87218
1.28939
0.878847
0.592845
0.3958
0.261532
0.171038
0.110708
0.0709227
0.0449683
0.0282184
0.0175246
0.0107704
0.00655017
0.00394159
0.0023466
0.00138197
0.000804964
0.000463654
0.000264034
0.000148619
8.26661e-05
4.54263e-05
2.46545e-05
1.32121e-05
6.98898e-06
3.64842e-06
1.879e-06
9.54498e-07
4.78128e-07
2.36135e-07
1.1494e-07
5.51498e-08
2.60739e-08
1.2121e-08
5.53968e-09
2.49818e-09
1.13384e-09
5.02709e-10
2.09645e-10
8.12237e-11
3.62214e-11
4.28071e-11
1.75619e-11
8.78094e-12
2.19524e-12
48.3785
139.88
217.098
274.516
310.495
326.454
325.644
312.046
289.604
261.792
231.429
200.657
171
143.461
118.627
96.7702
77.9291
61.9849
48.7163
37.8443
29.065
22.0732
16.5788
12.3165
9.05118
6.58033
4.73306
3.36833
2.37184
1.65263
1.13946
0.77745
0.52494
0.350769
0.231962
0.151812
0.098332
0.0630353
0.039992
0.0251106
0.0156036
0.00959531
0.00583896
0.00351576
0.00209444
0.00123432
0.000719499
0.000414767
0.000236408
0.0001332
7.41703e-05
4.08059e-05
2.21752e-05
1.18998e-05
6.30404e-06
3.29596e-06
1.70023e-06
8.65151e-07
4.34131e-07
2.1477e-07
1.04739e-07
5.03455e-08
2.38589e-08
1.11222e-08
5.116e-09
2.305e-09
1.02188e-09
4.60999e-10
1.8879e-10
8.45165e-11
5.59785e-11
1.09762e-11
-8.78094e-12
0
1.09762e-12
35.1145
102.027
159.751
204.334
234.123
249.483
252.178
244.713
229.794
209.969
187.431
163.937
140.804
118.955
98.9763
81.1876
65.7032
52.4904
41.4163
32.2865
24.8746
18.9443
14.265
10.6219
7.82209
5.69749
4.10508
2.92598
2.06329
1.43951
0.993698
0.678738
0.458749
0.306823
0.203074
0.13301
0.0862167
0.0553067
0.0351114
0.0220597
0.013716
0.00843953
0.00513869
0.00309601
0.00184557
0.00108839
0.000634912
0.000366302
0.00020897
0.000117856
6.56965e-05
3.61862e-05
1.96896e-05
1.05804e-05
5.61326e-06
2.93935e-06
1.51873e-06
7.74104e-07
3.89109e-07
1.92847e-07
9.42294e-08
4.53843e-08
2.15429e-08
1.00893e-08
4.66926e-09
2.10852e-09
9.06632e-10
4.08314e-10
1.74521e-10
8.67118e-11
3.7319e-11
-3.29285e-12
-1.09762e-12
-1.09762e-12
-3.29285e-12
25.6836
74.8903
118.036
152.312
176.307
189.93
194.109
190.398
180.626
166.627
150.056
132.306
114.47
97.3474
81.4814
67.1959
54.6427
43.8437
34.7291
27.1688
20.9983
16.0381
12.108
9.03701
6.66923
4.86724
3.51311
2.50811
1.77125
1.23744
0.855279
0.584862
0.395716
0.264922
0.175498
0.115043
0.0746274
0.0479063
0.0304334
0.0191327
0.0119032
0.00732843
0.00446477
0.00269158
0.00160548
0.000947429
0.000553072
0.000319333
0.000182329
0.000102927
5.74335e-05
3.16703e-05
1.72534e-05
9.28347e-06
4.93212e-06
2.58651e-06
1.33853e-06
6.83367e-07
3.44089e-07
1.70849e-07
8.36341e-08
4.03561e-08
1.92072e-08
9.01583e-09
4.15229e-09
1.88571e-09
8.3858e-10
3.69897e-10
1.62447e-10
7.68332e-11
7.68332e-12
-2.19524e-12
-2.19524e-12
0
1.09762e-12
18.8669
55.1609
87.3782
113.53
132.491
144.005
148.532
147.033
140.732
130.925
118.842
105.556
91.9453
78.6775
66.2269
54.8968
44.8497
36.1387
28.7359
22.5587
17.4905
13.3974
10.1409
7.58693
5.6113
4.10332
2.96713
2.12186
1.50077
1.04996
0.726634
0.497483
0.336963
0.225815
0.14973
0.0982353
0.0637742
0.0409688
0.0260437
0.0163833
0.0101988
0.00628262
0.00382976
0.00231006
0.0013787
0.000814095
0.000475545
0.000274765
0.000157004
8.87062e-05
4.95447e-05
2.73485e-05
1.49157e-05
8.03543e-06
4.27462e-06
2.24482e-06
1.16342e-06
5.9487e-07
3.00017e-07
1.49197e-07
7.3154e-08
3.53521e-08
1.68462e-08
7.91931e-09
3.65726e-09
1.68704e-09
7.76016e-10
3.23797e-10
1.45983e-10
5.37833e-11
-1.09762e-12
-1.97571e-11
-1.53666e-11
0
6.58571e-12
13.8842
40.6772
64.6891
84.5107
99.2775
108.698
112.984
112.722
108.726
101.906
93.1588
83.2981
73.0094
62.8346
53.1725
44.2911
36.3471
29.4075
23.4711
18.4888
14.3798
11.0461
8.38307
6.28684
4.65997
3.41452
2.47364
1.77196
1.25526
0.879459
0.609448
0.417762
0.283283
0.190037
0.126126
0.082821
0.05381
0.0345929
0.0220052
0.0138513
0.00862749
0.00531755
0.00324314
0.00195721
0.0011687
0.000690462
0.000403553
0.00023331
0.000133406
7.54292e-05
4.21638e-05
2.32953e-05
1.27178e-05
6.8588e-06
3.65295e-06
1.92076e-06
9.96795e-07
5.10395e-07
2.57808e-07
1.28403e-07
6.30428e-08
3.05247e-08
1.45731e-08
6.88096e-09
3.20834e-09
1.4763e-09
6.60766e-10
2.79892e-10
1.08664e-10
2.08547e-11
-3.29285e-12
1.09762e-11
9.87856e-12
0
0
10.2159
29.9787
47.8249
62.7549
74.1186
81.6469
85.4201
85.7945
83.3097
78.5985
72.3087
65.046
57.3369
49.6099
42.1901
35.3051
29.0963
23.6335
18.931
14.9621
11.6725
8.99175
6.84166
5.14311
3.82058
2.80514
2.03596
1.46095
1.03658
0.727311
0.504692
0.346384
0.235151
0.157914
0.104906
0.0689473
0.0448316
0.0288417
0.0183588
0.0115628
0.00720592
0.00444354
0.00271132
0.00163696
0.000977893
0.000577979
0.000337963
0.000195485
0.000111837
6.32715e-05
3.53913e-05
1.95681e-05
1.06918e-05
5.77143e-06
3.0769e-06
1.61962e-06
8.41469e-07
4.31406e-07
2.18204e-07
1.08853e-07
5.3533e-08
2.59576e-08
1.24108e-08
5.85579e-09
2.74624e-09
1.25677e-09
5.6198e-10
2.49159e-10
9.32975e-11
3.95142e-11
1.4269e-11
9.87856e-12
1.09762e-11
9.87856e-12
-3.29285e-12
7.50397
22.0496
35.265
46.4408
55.0952
61.0012
64.1735
64.8268
63.3178
60.0841
55.5892
50.2787
44.5505
38.7363
33.0952
27.8142
23.0151
18.7641
15.0828
11.959
9.35747
7.22826
5.51387
4.15473
3.09309
2.27558
1.65469
1.18941
0.845261
0.593947
0.41271
0.283609
0.192757
0.129581
0.086167
0.0566807
0.0368845
0.0237458
0.0151245
0.00953101
0.0059426
0.00366607
0.00223778
0.00135153
0.000807632
0.000477494
0.000279293
0.000161603
9.2487e-05
5.23463e-05
2.92943e-05
1.62059e-05
8.86028e-06
4.78614e-06
2.55366e-06
1.34535e-06
6.99643e-07
3.59063e-07
1.81804e-07
9.07905e-08
4.47136e-08
2.17087e-08
1.03889e-08
4.88989e-09
2.28414e-09
1.05042e-09
4.80756e-10
2.05254e-10
1.00981e-10
5.92713e-11
3.07333e-11
8.78094e-12
8.78094e-12
9.87856e-12
5.48809e-12
5.49587
16.1663
25.9095
34.2223
40.751
45.3137
47.8951
48.6237
47.7345
45.5288
42.3357
38.4798
34.2573
29.9212
25.6734
21.6639
17.9941
14.7227
11.8735
9.4435
7.41048
5.73962
4.3892
3.31494
2.47319
1.82315
1.32816
0.956333
0.680708
0.479025
0.333309
0.229334
0.156048
0.105014
0.0698977
0.0460184
0.0299691
0.0193068
0.0123044
0.00775782
0.00483907
0.00298634
0.00182339
0.00110151
0.000658358
0.000389304
0.000227744
0.000131797
7.5442e-05
4.27082e-05
2.39068e-05
1.32298e-05
7.23603e-06
3.9106e-06
2.08765e-06
1.10056e-06
5.72754e-07
2.9417e-07
1.49047e-07
7.44865e-08
3.66988e-08
1.7833e-08
8.55373e-09
4.03265e-09
1.87254e-09
8.48458e-10
3.94045e-10
1.77814e-10
8.34189e-11
1.86595e-11
5.48809e-12
2.96357e-11
1.4269e-11
-7.68332e-12
-1.09762e-12
4.00937
11.8042
18.9512
25.0939
29.975
33.4531
35.502
36.1976
35.6946
34.1995
31.9445
29.1637
26.0753
22.8692
19.7004
16.6864
13.9091
11.4186
9.23789
7.36905
5.79865
4.50285
3.45175
2.61281
1.95346
1.44285
1.05303
0.75952
0.541474
0.381603
0.265882
0.18317
0.124779
0.0840589
0.0560029
0.0369016
0.0240498
0.0155034
0.00988587
0.00623574
0.00389103
0.00240191
0.00146683
0.00088621
0.000529703
0.000313229
0.000183236
0.000106035
6.06936e-05
3.43585e-05
1.92332e-05
1.06442e-05
5.8226e-06
3.14736e-06
1.68065e-06
8.86339e-07
4.61465e-07
2.37133e-07
1.20211e-07
6.01176e-08
2.96434e-08
1.44051e-08
6.89853e-09
3.26651e-09
1.51581e-09
7.03573e-10
3.35871e-10
1.74521e-10
6.80523e-11
2.41476e-11
2.52452e-11
1.75619e-11
1.31714e-11
-1.4269e-11
-4.39047e-12
2.91106
8.577
13.7901
18.2983
21.9159
24.5355
26.1293
26.7414
26.4732
25.4662
23.883
21.8911
19.6495
17.2989
14.9564
12.7126
10.6321
8.75594
7.10494
5.68359
4.48425
3.49086
2.68226
2.0348
1.52443
1.12813
0.82482
0.595915
0.425501
0.300306
0.20952
0.14452
0.0985613
0.0664656
0.0443226
0.0292291
0.019063
0.0122962
0.00784461
0.00495007
0.00308964
0.00190754
0.001165
0.000703844
0.000420658
0.000248705
0.000145458
8.41527e-05
4.81553e-05
2.72532e-05
1.52521e-05
8.43915e-06
4.61565e-06
2.49472e-06
1.33216e-06
7.02575e-07
3.65858e-07
1.88055e-07
9.53654e-08
4.77047e-08
2.35307e-08
1.14185e-08
5.45735e-09
2.58708e-09
1.18433e-09
5.51004e-10
2.49159e-10
1.14152e-10
6.25642e-11
4.06118e-11
4.17095e-11
-7.68332e-12
-6.58571e-12
-2.19523e-12
-1.09762e-12
2.10215
6.1976
9.97681
13.2621
15.9204
17.8715
19.0901
19.6014
19.472
18.7981
17.6931
16.2759
14.6612
12.9523
11.2361
9.58146
8.03835
6.63958
5.40287
4.33361
3.42781
2.67484
2.05989
1.56598
1.17554
0.871572
0.638361
0.461961
0.33036
0.233491
0.16312
0.112652
0.0769133
0.0519194
0.0346536
0.0228709
0.0149263
0.00963322
0.00614839
0.00388095
0.00242279
0.00149594
0.000913575
0.000551853
0.000329733
0.00019488
0.000113929
6.58803e-05
3.76796e-05
2.13132e-05
1.19215e-05
6.59291e-06
3.60419e-06
1.94723e-06
1.03945e-06
5.48056e-07
2.85364e-07
1.46649e-07
7.43779e-08
3.72015e-08
1.83467e-08
8.90717e-09
4.25437e-09
2.00864e-09
9.19803e-10
4.17095e-10
1.75619e-10
8.56142e-11
4.60999e-11
3.07333e-11
-1.09762e-12
-2.08547e-11
-9.87856e-12
0
-5.48809e-12
1.50892
4.45103
7.17279
9.54944
11.4861
12.924
13.8418
14.2535
14.2028
13.7547
12.9881
11.9866
10.8324
9.60022
8.35408
7.14528
6.01194
4.97963
4.06291
3.26711
2.59047
2.02606
1.56365
1.19116
0.895906
0.665452
0.488228
0.353882
0.25345
0.179384
0.125483
0.0867627
0.0593022
0.0400705
0.0267684
0.0176801
0.0115459
0.00745534
0.00476014
0.00300538
0.00187638
0.00115852
0.000707386
0.000427172
0.000255126
0.000150703
8.80468e-05
5.08772e-05
2.90761e-05
1.64333e-05
9.1843e-06
5.07503e-06
2.77217e-06
1.49659e-06
7.98325e-07
4.20641e-07
2.18892e-07
1.12433e-07
5.70168e-08
2.84996e-08
1.40528e-08
6.84255e-09
3.25992e-09
1.5202e-09
7.06866e-10
3.24895e-10
1.56959e-10
1.03176e-10
4.71976e-11
2.85381e-11
-5.48809e-12
9.87856e-12
2.19524e-12
-3.29285e-12
2.19524e-12
1.07609
3.17573
5.12233
6.82866
8.2276
9.27645
9.95829
10.2806
10.2718
9.976
9.44737
8.74459
7.9258
7.0447
6.14781
5.27292
4.44855
3.69431
3.02177
2.43573
1.9357
1.51727
1.17341
0.895644
0.674896
0.502176
0.369049
0.267916
0.192163
0.136193
0.0953902
0.0660329
0.0451813
0.0305581
0.0204309
0.0135039
0.00882384
0.00570025
0.00364067
0.00229896
0.00143534
0.000886079
0.000540874
0.000326471
0.000194866
0.000115023
6.71435e-05
3.87612e-05
2.21288e-05
1.24931e-05
6.97425e-06
3.8494e-06
2.10031e-06
1.13264e-06
6.03533e-07
3.17687e-07
1.65156e-07
8.47679e-08
4.293e-08
2.14485e-08
1.05624e-08
5.12807e-09
2.44659e-09
1.13384e-09
5.18075e-10
2.44769e-10
1.33909e-10
6.0369e-11
3.95142e-11
2.08547e-11
3.40261e-11
2.63428e-11
-8.78094e-12
3.29285e-12
-8.78094e-12
0.762135
2.25009
3.63219
4.84775
5.84961
6.60713
7.10728
7.35387
7.36532
7.17136
6.80914
6.31941
5.74304
5.11821
4.47835
3.85096
3.25708
2.71145
2.22306
1.79599
1.43039
1.12352
0.870621
0.665787
0.502593
0.374606
0.275741
0.200482
0.144
0.102194
0.0716658
0.0496662
0.0340178
0.023029
0.0154093
0.0101917
0.00666317
0.00430616
0.00275095
0.00173727
0.00108457
0.000669365
0.000408414
0.00024637
0.000146942
8.66548e-05
5.05297e-05
2.91353e-05
1.66117e-05
9.36535e-06
5.22065e-06
2.87726e-06
1.5676e-06
8.44126e-07
4.49156e-07
2.36137e-07
1.22602e-07
6.28638e-08
3.17969e-08
1.58792e-08
7.83589e-09
3.78678e-09
1.7968e-09
8.3858e-10
3.90752e-10
1.89888e-10
6.5857e-11
3.29285e-12
-1.09762e-12
1.75619e-11
1.09762e-11
4.39047e-12
2.19523e-12
2.19523e-12
-1.09762e-12
0.535873
1.58264
2.55653
3.41557
4.12687
4.66866
5.03116
5.21615
5.23556
5.10929
4.86269
4.52386
4.12129
3.68188
3.2294
2.78361
2.35984
1.969
1.61791
1.30988
1.04539
0.822733
0.638747
0.48935
0.37004
0.27626
0.203666
0.148296
0.106664
0.0757955
0.0532169
0.0369213
0.0253137
0.0171517
0.0114855
0.00760131
0.00497205
0.00321434
0.00205382
0.00129704
0.000809593
0.000499478
0.000304589
0.000183603
0.000109404
6.44464e-05
3.75316e-05
2.16097e-05
1.23017e-05
6.92387e-06
3.85292e-06
2.11964e-06
1.15272e-06
6.19605e-07
3.29115e-07
1.72743e-07
8.95381e-08
4.58365e-08
2.31499e-08
1.15404e-08
5.68346e-09
2.76051e-09
1.30946e-09
6.15763e-10
3.06235e-10
1.30616e-10
3.62214e-11
6.5857e-12
-5.48809e-12
-1.09762e-11
-1.53666e-11
-1.20738e-11
8.78094e-12
9.87856e-12
1.31714e-11
0.373945
1.10475
1.78565
2.38779
2.8884
3.27217
3.53191
3.66832
3.68909
3.6075
3.44072
3.20799
2.92904
2.6226
2.30544
1.99158
1.69206
1.41482
1.16495
0.945056
0.755692
0.595853
0.463437
0.355656
0.269386
0.201432
0.148724
0.108444
0.0781046
0.0555705
0.0390621
0.0271297
0.0186184
0.0126259
0.00846094
0.00560295
0.00366655
0.00237105
0.00151517
0.000956807
0.000597073
0.000368195
0.000224382
0.000135137
8.04374e-05
4.73222e-05
2.75183e-05
1.58181e-05
8.98846e-06
5.04924e-06
2.80402e-06
1.53934e-06
8.35333e-07
4.48051e-07
2.37498e-07
1.24367e-07
6.43445e-08
3.28736e-08
1.65685e-08
8.25847e-09
4.03594e-09
1.95705e-09
9.41756e-10
4.53316e-10
1.99766e-10
7.90285e-11
4.28071e-11
2.96357e-11
8.78094e-12
-1.20738e-11
8.78094e-12
2.305e-11
1.20738e-11
4.39047e-12
-4.39047e-12
0.258916
0.765125
1.23737
1.65594
2.00516
2.27441
2.45847
2.5575
2.57645
2.52413
2.41209
2.25342
2.06166
1.84976
1.62941
1.41046
1.20075
1.006
0.829937
0.67455
0.540376
0.426834
0.332546
0.255626
0.193925
0.145226
0.107379
0.0784043
0.0565418
0.0402775
0.028344
0.019706
0.0135362
0.00918697
0.00616069
0.00408195
0.0026723
0.00172851
0.00110464
0.000697471
0.000435096
0.000268163
0.000163296
9.82495e-05
5.84096e-05
3.43134e-05
1.99205e-05
1.14295e-05
6.4814e-06
3.6329e-06
2.01279e-06
1.10231e-06
5.96704e-07
3.19241e-07
1.68803e-07
8.81683e-08
4.55094e-08
2.32036e-08
1.16852e-08
5.81298e-09
2.84393e-09
1.36653e-09
6.5857e-10
2.82088e-10
1.1964e-10
5.26856e-11
1.86595e-11
2.41476e-11
3.07333e-11
8.78094e-12
1.09762e-12
1.64643e-11
3.29285e-12
-2.08547e-11
-1.09762e-12
0.177835
0.525649
0.85049
1.13899
1.38046
1.56756
1.69659
1.76746
1.78334
1.75005
1.6753
1.56794
1.43718
1.29189
1.14015
0.988807
0.843365
0.707881
0.585049
0.476353
0.382259
0.302445
0.236016
0.181707
0.138056
0.103536
0.0766593
0.0560475
0.0404693
0.0288619
0.0203327
0.0141503
0.00972865
0.00660796
0.00443414
0.0029395
0.00192508
0.00124544
0.000795932
0.000502459
0.000313319
0.000192988
0.000117418
7.05685e-05
4.18968e-05
2.45738e-05
1.42403e-05
8.15371e-06
4.61338e-06
2.57956e-06
1.42547e-06
7.78554e-07
4.20261e-07
2.242e-07
1.18194e-07
6.15687e-08
3.16641e-08
1.60845e-08
8.08066e-09
3.98435e-09
1.95047e-09
9.34072e-10
4.29168e-10
1.77814e-10
8.8907e-11
3.51238e-11
4.39047e-12
0
7.68332e-12
-2.19524e-12
-1.20738e-11
-2.63428e-11
-6.58571e-12
2.19523e-12
1.31714e-11
0.121143
0.358155
0.579735
0.776875
0.942344
1.07113
1.16063
1.21068
1.22328
1.20225
1.15273
1.08064
0.992202
0.89344
0.789868
0.686216
0.586296
0.492952
0.408103
0.332831
0.267518
0.211994
0.165685
0.127748
0.0971983
0.0729947
0.0541177
0.0396167
0.0286396
0.0204482
0.0144205
0.0100454
0.0069124
0.00469862
0.0031549
0.00209248
0.00137082
0.000886998
0.000566846
0.000357757
0.000222985
0.000137253
8.34295e-05
5.0082e-05
2.9691e-05
1.7385e-05
1.00547e-05
5.74442e-06
3.2423e-06
1.80812e-06
9.96341e-07
5.42548e-07
2.91963e-07
1.55277e-07
8.15903e-08
4.2356e-08
2.17076e-08
1.09784e-08
5.47931e-09
2.69136e-09
1.29409e-09
6.28935e-10
2.84283e-10
1.56959e-10
6.36618e-11
1.31714e-11
3.29285e-12
-1.09762e-12
2.19524e-12
8.78094e-12
-8.78094e-12
-3.18309e-11
-8.78094e-12
1.31714e-11
0
0.0818337
0.241985
0.391842
0.525383
0.637752
0.725552
0.786991
0.82188
0.831491
0.818316
0.785742
0.737715
0.678389
0.611829
0.541767
0.471428
0.403428
0.339737
0.281701
0.230097
0.185224
0.146997
0.115051
0.0888322
0.0676801
0.0508934
0.0377796
0.0276897
0.0200404
0.014324
0.0101118
0.00705048
0.00485559
0.00330292
0.00221908
0.00147248
0.000964946
0.000624456
0.000399041
0.000251781
0.000156854
9.64764e-05
5.85855e-05
3.51243e-05
2.07916e-05
1.21522e-05
7.01371e-06
3.99767e-06
2.25053e-06
1.25151e-06
6.87549e-07
3.73178e-07
2.00156e-07
1.06066e-07
5.55394e-08
2.87334e-08
1.46806e-08
7.38587e-09
3.66604e-09
1.78034e-09
8.40775e-10
4.02826e-10
1.93181e-10
1.07567e-10
4.06118e-11
0
-5.48809e-12
1.64643e-11
3.29285e-12
1.20738e-11
-1.64643e-11
-6.5857e-12
4.39047e-12
-3.29285e-12
-7.68332e-12
0.0548093
0.1621
0.262575
0.352238
0.427855
0.487147
0.528889
0.552913
0.560022
0.551829
0.530557
0.498809
0.459343
0.414873
0.367903
0.320609
0.274768
0.231728
0.192422
0.157398
0.12688
0.100833
0.0790263
0.0610973
0.0466088
0.0350918
0.0260808
0.0191374
0.0138659
0.00992109
0.00701046
0.00489243
0.00337208
0.0022954
0.00154307
0.00102437
0.000671478
0.000434589
0.00027769
0.000175161
0.000109065
6.70308e-05
4.06627e-05
2.43472e-05
1.43893e-05
8.3945e-06
4.83447e-06
2.74882e-06
1.54327e-06
8.55649e-07
4.68565e-07
2.53438e-07
1.35428e-07
7.14966e-08
3.7308e-08
1.92314e-08
9.78746e-09
4.89208e-09
2.41586e-09
1.16128e-09
5.36735e-10
2.37085e-10
1.13055e-10
4.93928e-11
1.4269e-11
-2.19524e-12
-7.68332e-12
-1.53666e-11
-2.96357e-11
1.09762e-12
4.39047e-12
3.29285e-11
1.64643e-11
1.09762e-12
0
0.0363923
0.107648
0.174425
0.234091
0.284511
0.32417
0.352241
0.368587
0.373712
0.368655
0.354864
0.334042
0.308008
0.278554
0.247348
0.215842
0.18523
0.156426
0.130066
0.106533
0.0859894
0.0684244
0.0536937
0.041563
0.0317449
0.0239288
0.0178044
0.0130787
0.00948606
0.00679409
0.00480535
0.00335645
0.00231522
0.00157706
0.00106077
0.000704493
0.000461926
0.000298995
0.000191031
0.000120462
7.4966e-05
4.60378e-05
2.78986e-05
1.66824e-05
9.84348e-06
5.73157e-06
3.29355e-06
1.86799e-06
1.04579e-06
5.78035e-07
3.15471e-07
1.70028e-07
9.05062e-08
4.76125e-08
2.47414e-08
1.27005e-08
6.43972e-09
3.19956e-09
1.5652e-09
7.58454e-10
3.56726e-10
1.55862e-10
5.81737e-11
1.31714e-11
2.19523e-12
-1.64643e-11
-6.58571e-12
-2.63428e-11
-1.86595e-11
-4.39047e-12
1.75619e-11
4.39047e-12
-3.07333e-11
-1.09762e-12
5.48809e-12
0.0239525
0.0708609
0.114848
0.154197
0.187507
0.213781
0.232465
0.243458
0.247072
0.243974
0.235097
0.22155
0.20452
0.185183
0.164636
0.143841
0.123593
0.104502
0.0869982
0.0713436
0.057655
0.0459321
0.0360855
0.0279649
0.0213829
0.0161357
0.0120187
0.00883784
0.00641655
0.00460004
0.00325648
0.0022765
0.00157148
0.00107116
0.000720885
0.000478966
0.000314136
0.000203354
0.000129914
8.18974e-05
5.09393e-05
3.12582e-05
1.89225e-05
1.13e-05
6.6568e-06
3.86863e-06
2.2181e-06
1.25482e-06
7.00524e-07
3.85974e-07
2.09927e-07
1.12758e-07
5.97971e-08
3.1326e-08
1.61932e-08
8.28811e-09
4.18522e-09
2.09096e-09
1.02408e-09
5.10392e-10
2.49159e-10
1.16347e-10
3.95142e-11
-2.08547e-11
-1.86595e-11
-2.305e-11
-2.08547e-11
-3.29285e-12
1.4269e-11
-1.75619e-11
-6.5857e-12
-2.19523e-11
-2.85381e-11
-6.5857e-12
-1.09762e-12
0.0156255
0.046232
0.0749489
0.100663
0.122465
0.139704
0.152016
0.159323
0.161822
0.159936
0.154264
0.14552
0.134473
0.121889
0.108483
0.0948854
0.0816191
0.0690884
0.0575801
0.0472709
0.0382428
0.0304998
0.023987
0.0186086
0.0142435
0.0107592
0.00802205
0.00590469
0.00429105
0.00307908
0.00218164
0.00152635
0.00105443
0.000719189
0.000484276
0.000321895
0.000211177
0.000136719
8.73368e-05
5.50413e-05
3.42175e-05
2.09812e-05
1.26881e-05
7.56714e-06
4.45068e-06
2.58161e-06
1.47692e-06
8.33392e-07
4.63921e-07
2.54811e-07
1.38127e-07
7.39147e-08
3.90401e-08
2.03443e-08
1.04855e-08
5.33332e-09
2.6716e-09
1.34568e-09
6.84913e-10
3.52335e-10
1.844e-10
9.21999e-11
4.50023e-11
5.48809e-12
-1.09762e-12
8.78094e-12
-3.29285e-12
8.78094e-12
8.78094e-12
4.39047e-12
-5.48809e-12
0
1.4269e-11
1.09762e-12
-6.58571e-12
0.0101023
0.0298934
0.0484719
0.0651222
0.0792591
0.0904614
0.0984906
0.103294
0.10499
0.103848
0.10025
0.0946512
0.0875467
0.0794291
0.0707614
0.0619526
0.0533434
0.0451985
0.0377069
0.0309864
0.025093
0.0200319
0.0157696
0.0122454
0.0093818
0.00709345
0.00529377
0.00390008
0.0028368
0.00203733
0.00144472
0.00101156
0.000699309
0.00047728
0.000321558
0.000213828
0.000140321
9.0857e-05
5.80366e-05
3.65663e-05
2.27213e-05
1.39219e-05
8.41088e-06
5.00987e-06
2.94204e-06
1.70336e-06
9.72351e-07
5.47316e-07
3.03799e-07
1.66355e-07
8.98751e-08
4.79033e-08
2.52145e-08
1.30825e-08
6.71632e-09
3.37078e-09
1.68484e-09
8.53946e-10
4.35754e-10
2.09645e-10
1.17445e-10
5.48809e-11
2.52452e-11
1.4269e-11
1.64643e-11
2.52452e-11
1.4269e-11
9.87856e-12
-6.58571e-12
1.09762e-11
2.63428e-11
2.63428e-11
9.87856e-12
4.39047e-12
0
0.00647253
0.0191544
0.0310643
0.0417464
0.0508267
0.0580355
0.0632186
0.0663395
0.0674718
0.0667838
0.0645167
0.0609608
0.0564302
0.0512401
0.0456871
0.0400339
0.0345004
0.029258
0.0244297
0.020093
0.0162855
0.013012
0.0102522
0.00796782
0.00610977
0.00462345
0.00345337
0.00254635
0.00185368
0.00133236
0.00094556
0.000662561
0.000458358
0.000313028
0.00021101
0.000140377
9.21476e-05
5.96741e-05
3.8117e-05
2.40106e-05
1.4913e-05
9.13146e-06
5.51165e-06
3.27907e-06
1.92277e-06
1.11126e-06
6.33019e-07
3.55475e-07
1.9678e-07
1.07414e-07
5.78411e-08
3.07377e-08
1.61306e-08
8.36604e-09
4.27193e-09
2.16011e-09
1.08774e-09
5.52102e-10
2.64526e-10
1.22933e-10
5.70761e-11
3.95142e-11
3.51238e-11
2.08547e-11
-9.87856e-12
2.19523e-12
2.305e-11
0
-4.39047e-12
0
9.87856e-12
1.75619e-11
-5.48809e-12
-5.48809e-12
2.19523e-12
0.00410922
0.0121615
0.0197264
0.0265157
0.0322928
0.0368864
0.0401978
0.0422027
0.0429461
0.0425329
0.0411145
0.0388738
0.0360092
0.0327203
0.0291952
0.0256013
0.0220789
0.0187378
0.0156572
0.0128873
0.010453
0.00835813
0.00659029
0.00512571
0.0039334
0.00297879
0.00222664
0.00164308
0.00119705
0.000861055
0.000611537
0.000428817
0.000296856
0.000202858
0.000136819
9.10609e-05
5.97942e-05
3.87292e-05
2.47387e-05
1.55807e-05
9.67348e-06
5.91963e-06
3.56997e-06
2.12155e-06
1.24229e-06
7.16768e-07
4.07484e-07
2.28281e-07
1.26062e-07
6.86088e-08
3.68415e-08
1.95211e-08
1.02056e-08
5.26966e-09
2.66611e-09
1.35885e-09
6.92597e-10
3.46847e-10
1.78912e-10
8.56142e-11
4.06118e-11
3.07333e-11
3.18309e-11
2.52452e-11
0
-7.68332e-12
1.4269e-11
1.31714e-11
2.08547e-11
7.68332e-12
-1.4269e-11
-7.68332e-12
1.09762e-12
-7.68332e-12
0
0.00258489
0.00765064
0.0124111
0.0166858
0.0203261
0.0232244
0.0253181
0.0265913
0.0270715
0.0268237
0.0259423
0.0245415
0.0227457
0.02068
0.0184629
0.0161998
0.0139793
0.0118711
0.00992546
0.00817458
0.00663455
0.00530821
0.0041881
0.00325944
0.00250288
0.00189671
0.00141875
0.00104765
0.000763785
0.00054979
0.000390745
0.000274183
0.000189932
0.00012987
8.76391e-05
5.83551e-05
3.83314e-05
2.48328e-05
1.58631e-05
9.98956e-06
6.20017e-06
3.79215e-06
2.28515e-06
1.35662e-06
7.93367e-07
4.57024e-07
2.5932e-07
1.44965e-07
7.98495e-08
4.33471e-08
2.3185e-08
1.22428e-08
6.36289e-09
3.25663e-09
1.63765e-09
8.03456e-10
4.11607e-10
2.12938e-10
1.1964e-10
6.25642e-11
2.305e-11
-7.68332e-12
0
-4.39047e-12
6.5857e-12
-1.20738e-11
-1.20738e-11
1.20738e-11
3.40261e-11
3.07333e-11
8.78094e-12
-7.68332e-12
1.20738e-11
1.09762e-12
-4.39047e-12
0.00161096
0.00476827
0.00773599
0.0104019
0.0126736
0.0144839
0.0157938
0.016593
0.0168983
0.0167496
0.0162055
0.0153367
0.0142205
0.0129347
0.0115531
0.0101416
0.00875557
0.00743861
0.00622238
0.00512717
0.00416326
0.0033326
0.00263069
0.00204843
0.00157381
0.00119332
0.000893126
0.000659911
0.000481409
0.000346752
0.000246603
0.000173151
0.00012002
8.2115e-05
5.54428e-05
3.69339e-05
2.42694e-05
1.57266e-05
1.00471e-05
6.32661e-06
3.92574e-06
2.39996e-06
1.44525e-06
8.57196e-07
5.00702e-07
2.88005e-07
1.63145e-07
9.10309e-08
5.00118e-08
2.70804e-08
1.44227e-08
7.57466e-09
3.92179e-09
1.99437e-09
1.0142e-09
5.09295e-10
2.56842e-10
1.48178e-10
7.79308e-11
4.71976e-11
1.4269e-11
-2.19523e-12
-4.39047e-12
-2.08547e-11
-2.08547e-11
-3.40261e-11
-2.08547e-11
-3.29285e-12
4.39047e-12
1.64643e-11
2.19523e-11
-1.09762e-11
1.09762e-11
8.78094e-12
0
0.000994599
0.00294401
0.00477662
0.00642328
0.00782703
0.0089464
0.00975722
0.010253
0.0104439
0.0103546
0.0100208
0.00948621
0.0087983
0.00800515
0.00715229
0.0062804
0.00542377
0.00460943
0.00385703
0.0031792
0.00258239
0.00206788