/*--------------------------------*- C++ -*----------------------------------*\
  =========                 |
  \\      /  F ield         | OpenFOAM: The Open Source CFD Toolbox
   \\    /   O peration     | Website:  https://openfoam.org
    \\  /    A nd           | Version:  10
     \\/     M anipulation  |
\*---------------------------------------------------------------------------*/
FoamFile
{
    format      ascii;
    class       volScalarField;
    location    "190";
    object      T;
}
// * * * * * * * * * * * * * * * * * * * * * * * * * * * * * * * * * * * * * //

dimensions      [0 0 0 1 0 0 0];

internalField   nonuniform List<scalar> 
11250
(
249.72
167.193
138.765
126.134
119.167
114.703
111.561
109.214
107.394
105.949
104.786
103.84
103.07
102.441
101.93
101.515
101.181
100.913
100.7
100.533
100.402
100.3
100.222
100.163
100.118
100.085
100.061
100.043
100.03
100.021
100.014
100.01
100.006
100.004
100.003
100.002
100.001
100.001
100
100
100
100
100
100
100
100
100
100
100
100
100
100
100
100
100
100
100
100
100
100
100
100
100
100
100
100
100
100
100
100
100
100
100
100
100
331.133
247.499
200.528
172.783
155.05
142.85
133.954
127.185
121.88
117.641
114.21
111.416
109.132
107.267
105.747
104.514
103.52
102.723
102.089
101.589
101.198
100.895
100.663
100.486
100.353
100.254
100.181
100.128
100.089
100.062
100.042
100.029
100.019
100.013
100.008
100.006
100.004
100.002
100.001
100.001
100.001
100
100
100
100
100
100
100
100
100
100
100
100
100
100
100
100
100
100
100
100
100
100
100
100
100
100
100
100
100
100
100
100
100
100
358.467
291.199
243.159
209.547
185.557
167.874
154.418
143.903
135.52
128.743
123.215
118.687
114.972
111.929
109.443
107.423
105.792
104.483
103.441
102.619
101.975
101.476
101.093
100.802
100.583
100.42
100.299
100.211
100.148
100.102
100.07
100.048
100.032
100.021
100.014
100.009
100.006
100.004
100.002
100.001
100.001
100.001
100
100
100
100
100
100
100
100
100
100
100
100
100
100
100
100
100
100
100
100
100
100
100
100
100
100
100
100
100
100
100
100
100
370.035
315.769
271.521
236.9
210.017
188.971
172.272
158.84
147.915
138.957
131.578
125.488
120.465
116.333
112.948
110.19
107.957
106.164
104.734
103.605
102.72
102.034
101.507
101.106
100.804
100.579
100.413
100.292
100.204
100.141
100.097
100.066
100.044
100.029
100.019
100.013
100.008
100.005
100.003
100.002
100.001
100.001
100
100
100
100
100
100
100
100
100
100
100
100
100
100
100
100
100
100
100
100
100
100
100
100
100
100
100
100
100
100
100
100
100
375.982
330.454
290.471
256.81
228.998
206.137
187.314
171.755
158.841
148.096
139.146
131.698
125.516
120.406
116.203
112.769
109.983
107.741
105.951
104.534
103.424
102.562
101.899
101.394
101.014
100.73
100.521
100.368
100.257
100.178
100.122
100.083
100.056
100.037
100.024
100.016
100.01
100.007
100.004
100.003
100.002
100.001
100.001
100
100
100
100
100
100
100
100
100
100
100
100
100
100
100
100
100
100
100
100
100
100
100
100
100
100
100
100
100
100
100
100
379.478
339.764
303.374
271.241
243.484
219.788
199.671
182.637
168.233
156.075
145.836
137.243
130.063
124.097
119.17
115.131
111.845
109.195
107.075
105.395
104.077
103.052
102.264
101.663
101.21
100.872
100.622
100.439
100.307
100.213
100.146
100.099
100.067
100.044
100.029
100.019
100.012
100.008
100.005
100.003
100.002
100.001
100.001
100
100
100
100
100
100
100
100
100
100
100
100
100
100
100
100
100
100
100
100
100
100
100
100
100
100
100
100
100
100
100
100
381.714
345.951
312.35
281.74
254.457
230.49
209.639
191.623
176.139
162.898
151.63
142.096
134.077
127.379
121.824
117.255
113.527
110.513
108.097
106.181
104.674
103.502
102.599
101.91
101.39
101.002
100.715
100.505
100.354
100.245
100.168
100.114
100.077
100.051
100.034
100.022
100.014
100.009
100.006
100.004
100.002
100.001
100.001
100
100
100
100
100
100
100
100
100
100
100
100
100
100
100
100
100
100
100
100
100
100
100
100
100
100
100
100
100
100
100
100
383.222
350.21
318.714
289.429
262.744
238.802
217.574
198.928
182.681
168.628
156.558
146.267
137.558
130.246
124.158
119.132
115.02
111.688
109.013
106.886
105.212
103.907
102.901
102.134
101.554
101.121
100.8
100.566
100.396
100.274
100.188
100.128
100.086
100.057
100.038
100.025
100.016
100.01
100.006
100.004
100.002
100.002
100.001
100.001
100
100
100
100
100
100
100
100
100
100
100
100
100
100
100
100
100
100
100
100
100
100
100
100
100
100
100
100
100
100
100
384.272
353.216
323.297
295.095
268.998
245.219
223.826
204.791
188.016
173.366
160.682
149.793
140.527
132.71
126.177
120.765
116.326
112.72
109.819
107.509
105.688
104.268
103.171
102.333
101.7
101.227
100.876
100.62
100.434
100.301
100.206
100.14
100.094
100.063
100.041
100.027
100.017
100.011
100.007
100.004
100.003
100.002
100.001
100.001
100
100
100
100
100
100
100
100
100
100
100
100
100
100
100
100
100
100
100
100
100
100
100
100
100
100
100
100
100
100
100
385.021
355.376
326.635
299.293
273.718
250.15
228.715
209.447
192.314
177.232
164.083
152.73
143.021
134.796
127.896
122.164
117.45
113.612
110.519
108.052
106.105
104.584
103.408
102.509
101.829
101.321
100.944
100.668
100.468
100.324
100.223
100.151
100.102
100.068
100.045
100.029
100.019
100.012
100.008
100.005
100.003
100.002
100.001
100.001
100
100
100
100
100
100
100
100
100
100
100
100
100
100
100
100
100
100
100
100
100
100
100
100
100
100
100
100
100
100
100
385.562
356.947
329.087
302.415
277.278
253.924
232.51
213.112
195.739
180.347
166.853
155.144
145.087
136.536
129.34
123.346
118.404
114.373
111.118
108.518
106.463
104.856
103.613
102.662
101.942
101.402
101.003
100.71
100.497
100.345
100.237
100.161
100.108
100.072
100.048
100.031
100.02
100.013
100.008
100.005
100.003
100.002
100.001
100.001
100
100
100
100
100
100
100
100
100
100
100
100
100
100
100
100
100
100
100
100
100
100
100
100
100
100
100
100
100
100
100
385.957
358.097
330.895
304.742
279.961
256.803
235.439
215.973
198.442
182.831
169.081
157.102
146.776
137.968
130.536
124.329
119.202
115.012
111.623
108.913
106.768
105.089
103.789
102.793
102.038
101.472
101.053
100.746
100.523
100.363
100.249
100.169
100.114
100.076
100.05
100.033
100.021
100.014
100.009
100.005
100.003
100.002
100.001
100.001
100
100
100
100
100
100
100
100
100
100
100
100
100
100
100
100
100
100
100
100
100
100
100
100
100
100
100
100
100
100
100
386.247
358.944
332.234
306.477
281.98
258.989
237.687
218.189
200.556
184.79
170.855
158.672
148.139
139.132
131.513
125.138
119.861
115.542
112.044
109.243
107.023
105.284
103.936
102.903
102.12
101.532
101.096
100.776
100.544
100.378
100.26
100.177
100.119
100.079
100.052
100.034
100.022
100.014
100.009
100.006
100.003
100.002
100.001
100.001
100
100
100
100
100
100
100
100
100
100
100
100
100
100
100
100
100
100
100
100
100
100
100
100
100
100
100
100
100
100
100
386.46
359.568
333.226
307.77
283.494
260.643
239.4
219.894
202.195
186.322
172.251
159.917
149.228
140.066
132.302
125.793
120.398
115.976
112.39
109.514
107.234
105.446
104.059
102.995
102.188
101.582
101.132
100.802
100.563
100.391
100.269
100.183
100.123
100.082
100.054
100.035
100.023
100.015
100.009
100.006
100.004
100.002
100.001
100.001
100
100
100
100
100
100
100
100
100
100
100
100
100
100
100
100
100
100
100
100
100
100
100
100
100
100
100
100
100
100
100
386.617
360.028
333.959
308.731
284.627
261.888
240.699
221.195
203.455
187.508
173.339
160.893
150.086
140.808
132.931
126.319
120.831
116.326
112.67
109.736
107.407
105.579
104.16
103.071
102.244
101.623
101.162
100.824
100.578
100.401
100.276
100.188
100.126
100.084
100.056
100.036
100.023
100.015
100.01
100.006
100.004
100.002
100.001
100.001
100
100
100
100
100
100
100
100
100
100
100
100
100
100
100
100
100
100
100
100
100
100
100
100
100
100
100
100
100
100
100
386.733
360.367
334.501
309.443
285.471
262.82
241.678
222.182
204.416
188.418
174.179
161.652
150.757
141.389
133.427
126.735
121.174
116.606
112.895
109.913
107.546
105.686
104.241
103.132
102.289
101.657
101.187
100.841
100.59
100.41
100.282
100.192
100.129
100.086
100.057
100.037
100.024
100.015
100.01
100.006
100.004
100.002
100.001
100.001
100.001
100
100
100
100
100
100
100
100
100
100
100
100
100
100
100
100
100
100
100
100
100
100
100
100
100
100
100
100
100
100
386.818
360.616
334.9
309.969
286.096
263.514
242.411
222.924
205.143
189.11
174.821
162.234
151.274
141.841
133.813
127.061
121.444
116.827
113.072
110.055
107.656
105.771
104.307
103.181
102.326
101.684
101.206
100.855
100.6
100.417
100.287
100.195
100.132
100.088
100.058
100.038
100.024
100.016
100.01
100.006
100.004
100.002
100.001
100.001
100.001
100
100
100
100
100
100
100
100
100
100
100
100
100
100
100
100
100
100
100
100
100
100
100
100
100
100
100
100
100
100
386.879
360.799
335.192
310.356
286.558
264.028
242.955
223.478
205.689
189.632
175.308
162.678
151.67
142.187
134.111
127.313
121.654
116.998
113.211
110.165
107.743
105.839
104.358
103.22
102.355
101.705
101.222
100.867
100.609
100.423
100.291
100.198
100.133
100.089
100.059
100.038
100.025
100.016
100.01
100.006
100.004
100.002
100.001
100.001
100.001
100
100
100
100
100
100
100
100
100
100
100
100
100
100
100
100
100
100
100
100
100
100
100
100
100
100
100
100
100
100
386.924
360.931
335.405
310.638
286.896
264.406
243.357
223.889
206.095
190.022
175.673
163.012
151.97
142.45
134.339
127.505
121.815
117.131
113.319
110.251
107.811
105.891
104.399
103.251
102.378
101.722
101.234
100.876
100.615
100.427
100.294
100.2
100.135
100.09
100.059
100.039
100.025
100.016
100.01
100.006
100.004
100.002
100.001
100.001
100.001
100
100
100
100
100
100
100
100
100
100
100
100
100
100
100
100
100
100
100
100
100
100
100
100
100
100
100
100
100
100
386.957
361.027
335.56
310.844
287.142
264.683
243.652
224.191
206.395
190.311
175.945
163.261
152.194
142.648
134.51
127.652
121.938
117.232
113.401
110.317
107.863
105.932
104.43
103.275
102.396
101.735
101.244
100.883
100.62
100.431
100.296
100.202
100.136
100.091
100.06
100.039
100.025
100.016
100.01
100.006
100.004
100.002
100.001
100.001
100.001
100
100
100
100
100
100
100
100
100
100
100
100
100
100
100
100
100
100
100
100
100
100
100
100
100
100
100
100
100
100
386.981
361.096
335.671
310.992
287.32
264.883
243.867
224.412
206.615
190.523
176.145
163.446
152.361
142.796
134.638
127.761
122.03
117.308
113.463
110.367
107.902
105.963
104.454
103.293
102.41
101.745
101.251
100.888
100.624
100.434
100.298
100.203
100.137
100.091
100.06
100.039
100.026
100.016
100.01
100.006
100.004
100.002
100.002
100.001
100.001
100
100
100
100
100
100
100
100
100
100
100
100
100
100
100
100
100
100
100
100
100
100
100
100
100
100
100
100
100
100
386.997
361.146
335.751
311.098
287.448
265.027
244.021
224.572
206.774
190.678
176.291
163.581
152.483
142.904
134.733
127.842
122.098
117.365
113.509
110.404
107.932
105.986
104.472
103.306
102.42
101.753
101.257
100.892
100.627
100.436
100.3
100.204
100.138
100.092
100.061
100.04
100.026
100.016
100.01
100.007
100.004
100.002
100.002
100.001
100.001
100
100
100
100
100
100
100
100
100
100
100
100
100
100
100
100
100
100
100
100
100
100
100
100
100
100
100
100
100
100
387.009
361.181
335.808
311.174
287.54
265.13
244.132
224.686
206.888
190.789
176.397
163.679
152.572
142.984
134.802
127.902
122.148
117.407
113.543
110.432
107.954
106.003
104.485
103.317
102.428
101.759
101.261
100.895
100.629
100.437
100.301
100.205
100.138
100.092
100.061
100.04
100.026
100.016
100.01
100.007
100.004
100.002
100.002
100.001
100.001
100
100
100
100
100
100
100
100
100
100
100
100
100
100
100
100
100
100
100
100
100
100
100
100
100
100
100
100
100
100
387.018
361.206
335.848
311.227
287.604
265.204
244.211
224.768
206.97
190.869
176.473
163.75
152.636
143.041
134.852
127.945
122.185
117.437
113.568
110.452
107.97
106.016
104.495
103.324
102.433
101.763
101.264
100.897
100.63
100.438
100.302
100.206
100.139
100.092
100.061
100.04
100.026
100.017
100.01
100.007
100.004
100.003
100.002
100.001
100.001
100
100
100
100
100
100
100
100
100
100
100
100
100
100
100
100
100
100
100
100
100
100
100
100
100
100
100
100
100
100
387.024
361.223
335.876
311.265
287.65
265.255
244.266
224.825
207.028
190.926
176.526
163.8
152.682
143.082
134.888
127.976
122.211
117.459
113.586
110.467
107.982
106.025
104.502
103.33
102.438
101.766
101.267
100.899
100.632
100.439
100.302
100.206
100.139
100.093
100.061
100.04
100.026
100.017
100.011
100.007
100.004
100.003
100.002
100.001
100.001
100
100
100
100
100
100
100
100
100
100
100
100
100
100
100
100
100
100
100
100
100
100
100
100
100
100
100
100
100
100
387.028
361.235
335.895
311.291
287.681
265.291
244.305
224.865
207.069
190.965
176.564
163.835
152.714
143.111
134.914
127.998
122.23
117.475
113.599
110.477
107.99
106.032
104.507
103.334
102.441
101.768
101.268
100.9
100.633
100.44
100.303
100.206
100.139
100.093
100.061
100.04
100.026
100.017
100.011
100.007
100.004
100.003
100.002
100.001
100.001
100
100
100
100
100
100
100
100
100
100
100
100
100
100
100
100
100
100
100
100
100
100
100
100
100
100
100
100
100
100
387.03
361.244
335.909
311.309
287.703
265.316
244.332
224.893
207.097
190.993
176.591
163.86
152.737
143.131
134.932
128.013
122.243
117.486
113.609
110.485
107.996
106.037
104.511
103.337
102.443
101.77
101.27
100.901
100.633
100.44
100.303
100.206
100.139
100.093
100.061
100.04
100.026
100.017
100.011
100.007
100.004
100.003
100.002
100.001
100.001
100
100
100
100
100
100
100
100
100
100
100
100
100
100
100
100
100
100
100
100
100
100
100
100
100
100
100
100
100
100
387.032
361.249
335.918
311.322
287.718
265.333
244.35
224.913
207.116
191.012
176.609
163.877
152.752
143.145
134.944
128.024
122.252
117.494
113.615
110.49
108
106.04
104.514
103.339
102.444
101.771
101.27
100.902
100.634
100.441
100.303
100.207
100.139
100.093
100.061
100.04
100.026
100.017
100.011
100.007
100.004
100.003
100.002
100.001
100.001
100
100
100
100
100
100
100
100
100
100
100
100
100
100
100
100
100
100
100
100
100
100
100
100
100
100
100
100
100
100
387.034
361.253
335.924
311.33
287.728
265.344
244.363
224.926
207.129
191.025
176.622
163.889
152.763
143.155
134.953
128.032
122.259
117.499
113.619
110.493
108.003
106.042
104.515
103.34
102.445
101.772
101.271
100.902
100.634
100.441
100.303
100.207
100.139
100.093
100.061
100.04
100.026
100.017
100.011
100.007
100.004
100.003
100.002
100.001
100.001
100
100
100
100
100
100
100
100
100
100
100
100
100
100
100
100
100
100
100
100
100
100
100
100
100
100
100
100
100
100
387.035
361.256
335.928
311.336
287.735
265.352
244.371
224.935
207.138
191.034
176.63
163.897
152.771
143.162
134.959
128.037
122.263
117.503
113.623
110.496
108.005
106.044
104.517
103.341
102.446
101.773
101.271
100.903
100.634
100.441
100.304
100.207
100.139
100.093
100.061
100.04
100.026
100.017
100.011
100.007
100.004
100.003
100.002
100.001
100.001
100
100
100
100
100
100
100
100
100
100
100
100
100
100
100
100
100
100
100
100
100
100
100
100
100
100
100
100
100
100
387.035
361.258
335.931
311.339
287.74
265.357
244.377
224.94
207.144
191.04
176.636
163.902
152.775
143.166
134.963
128.04
122.266
117.505
113.625
110.498
108.007
106.045
104.517
103.342
102.447
101.773
101.272
100.903
100.634
100.441
100.304
100.207
100.139
100.093
100.061
100.04
100.026
100.017
100.011
100.007
100.004
100.003
100.002
100.001
100.001
100
100
100
100
100
100
100
100
100
100
100
100
100
100
100
100
100
100
100
100
100
100
100
100
100
100
100
100
100
100
387.036
361.259
335.933
311.342
287.743
265.361
244.381
224.944
207.148
191.044
176.639
163.905
152.779
143.169
134.965
128.043
122.268
117.507
113.626
110.499
108.008
106.046
104.518
103.342
102.447
101.773
101.272
100.903
100.634
100.441
100.304
100.207
100.14
100.093
100.062
100.04
100.026
100.017
100.011
100.007
100.004
100.003
100.002
100.001
100.001
100
100
100
100
100
100
100
100
100
100
100
100
100
100
100
100
100
100
100
100
100
100
100
100
100
100
100
100
100
100
387.036
361.259
335.934
311.343
287.745
265.363
244.383
224.947
207.151
191.046
176.642
163.908
152.781
143.171
134.967
128.044
122.27
117.508
113.627
110.5
108.008
106.046
104.518
103.342
102.447
101.773
101.272
100.903
100.635
100.441
100.304
100.207
100.14
100.093
100.062
100.04
100.026
100.017
100.011
100.007
100.004
100.003
100.002
100.001
100.001
100
100
100
100
100
100
100
100
100
100
100
100
100
100
100
100
100
100
100
100
100
100
100
100
100
100
100
100
100
100
387.036
361.26
335.935
311.344
287.746
265.364
244.385
224.949
207.153
191.048
176.644
163.909
152.782
143.172
134.968
128.045
122.27
117.509
113.628
110.5
108.009
106.046
104.519
103.343
102.447
101.774
101.272
100.903
100.635
100.441
100.304
100.207
100.14
100.093
100.062
100.04
100.026
100.017
100.011
100.007
100.004
100.003
100.002
100.001
100.001
100
100
100
100
100
100
100
100
100
100
100
100
100
100
100
100
100
100
100
100
100
100
100
100
100
100
100
100
100
100
387.036
361.26
335.936
311.345
287.747
265.365
244.386
224.95
207.154
191.049
176.645
163.91
152.783
143.173
134.969
128.046
122.271
117.509
113.628
110.5
108.009
106.047
104.519
103.343
102.447
101.774
101.272
100.903
100.635
100.441
100.304
100.207
100.14
100.093
100.062
100.04
100.026
100.017
100.011
100.007
100.004
100.003
100.002
100.001
100.001
100
100
100
100
100
100
100
100
100
100
100
100
100
100
100
100
100
100
100
100
100
100
100
100
100
100
100
100
100
100
387.036
361.26
335.936
311.346
287.747
265.366
244.386
224.95
207.154
191.05
176.645
163.911
152.784
143.174
134.969
128.046
122.271
117.51
113.628
110.501
108.009
106.047
104.519
103.343
102.447
101.774
101.272
100.903
100.635
100.441
100.304
100.207
100.14
100.093
100.062
100.04
100.026
100.017
100.011
100.007
100.004
100.003
100.002
100.001
100.001
100
100
100
100
100
100
100
100
100
100
100
100
100
100
100
100
100
100
100
100
100
100
100
100
100
100
100
100
100
100
387.036
361.261
335.936
311.346
287.748
265.366
244.387
224.951
207.155
191.05
176.646
163.911
152.784
143.174
134.97
128.046
122.272
117.51
113.628
110.501
108.009
106.047
104.519
103.343
102.447
101.774
101.272
100.903
100.635
100.441
100.304
100.207
100.14
100.093
100.062
100.04
100.026
100.017
100.011
100.007
100.004
100.003
100.002
100.001
100.001
100
100
100
100
100
100
100
100
100
100
100
100
100
100
100
100
100
100
100
100
100
100
100
100
100
100
100
100
100
100
387.036
361.261
335.936
311.346
287.748
265.366
244.387
224.951
207.155
191.051
176.646
163.912
152.784
143.174
134.97
128.047
122.272
117.51
113.628
110.501
108.009
106.047
104.519
103.343
102.448
101.774
101.272
100.903
100.635
100.441
100.304
100.207
100.14
100.093
100.062
100.04
100.026
100.017
100.011
100.007
100.004
100.003
100.002
100.001
100.001
100
100
100
100
100
100
100
100
100
100
100
100
100
100
100
100
100
100
100
100
100
100
100
100
100
100
100
100
100
100
387.036
361.261
335.936
311.346
287.748
265.367
244.387
224.951
207.155
191.051
176.646
163.912
152.785
143.174
134.97
128.047
122.272
117.51
113.628
110.501
108.009
106.047
104.519
103.343
102.448
101.774
101.272
100.903
100.635
100.441
100.304
100.207
100.14
100.093
100.062
100.04
100.026
100.017
100.011
100.007
100.004
100.003
100.002
100.001
100.001
100
100
100
100
100
100
100
100
100
100
100
100
100
100
100
100
100
100
100
100
100
100
100
100
100
100
100
100
100
100
387.036
361.261
335.936
311.346
287.748
265.367
244.387
224.951
207.155
191.051
176.646
163.912
152.785
143.174
134.97
128.047
122.272
117.51
113.629
110.501
108.009
106.047
104.519
103.343
102.448
101.774
101.272
100.903
100.635
100.441
100.304
100.207
100.14
100.093
100.062
100.04
100.026
100.017
100.011
100.007
100.004
100.003
100.002
100.001
100.001
100
100
100
100
100
100
100
100
100
100
100
100
100
100
100
100
100
100
100
100
100
100
100
100
100
100
100
100
100
100
387.036
361.261
335.936
311.346
287.748
265.367
244.387
224.951
207.155
191.051
176.646
163.912
152.785
143.174
134.97
128.047
122.272
117.51
113.629
110.501
108.009
106.047
104.519
103.343
102.448
101.774
101.272
100.903
100.635
100.441
100.304
100.207
100.14
100.093
100.062
100.04
100.026
100.017
100.011
100.007
100.004
100.003
100.002
100.001
100.001
100
100
100
100
100
100
100
100
100
100
100
100
100
100
100
100
100
100
100
100
100
100
100
100
100
100
100
100
100
100
387.036
361.261
335.936
311.346
287.748
265.367
244.387
224.951
207.156
191.051
176.646
163.912
152.785
143.174
134.97
128.047
122.272
117.51
113.629
110.501
108.009
106.047
104.519
103.343
102.448
101.774
101.272
100.903
100.635
100.441
100.304
100.207
100.14
100.093
100.062
100.04
100.026
100.017
100.011
100.007
100.004
100.003
100.002
100.001
100.001
100
100
100
100
100
100
100
100
100
100
100
100
100
100
100
100
100
100
100
100
100
100
100
100
100
100
100
100
100
100
387.036
361.261
335.936
311.346
287.748
265.367
244.387
224.952
207.156
191.051
176.646
163.912
152.785
143.174
134.97
128.047
122.272
117.51
113.629
110.501
108.009
106.047
104.519
103.343
102.448
101.774
101.272
100.903
100.635
100.441
100.304
100.207
100.14
100.093
100.062
100.04
100.026
100.017
100.011
100.007
100.004
100.003
100.002
100.001
100.001
100
100
100
100
100
100
100
100
100
100
100
100
100
100
100
100
100
100
100
100
100
100
100
100
100
100
100
100
100
100
387.036
361.261
335.936
311.346
287.748
265.367
244.387
224.952
207.156
191.051
176.646
163.912
152.785
143.174
134.97
128.047
122.272
117.51
113.629
110.501
108.009
106.047
104.519
103.343
102.448
101.774
101.272
100.903
100.635
100.441
100.304
100.207
100.14
100.093
100.062
100.04
100.026
100.017
100.011
100.007
100.004
100.003
100.002
100.001
100.001
100
100
100
100
100
100
100
100
100
100
100
100
100
100
100
100
100
100
100
100
100
100
100
100
100
100
100
100
100
100
387.036
361.261
335.936
311.346
287.748
265.367
244.387
224.952
207.156
191.051
176.646
163.912
152.785
143.174
134.97
128.047
122.272
117.51
113.629
110.501
108.009
106.047
104.519
103.343
102.448
101.774
101.272
100.903
100.635
100.441
100.304
100.207
100.14
100.093
100.062
100.04
100.026
100.017
100.011
100.007
100.004
100.003
100.002
100.001
100.001
100
100
100
100
100
100
100
100
100
100
100
100
100
100
100
100
100
100
100
100
100
100
100
100
100
100
100
100
100
100
387.036
361.261
335.936
311.346
287.748
265.367
244.387
224.952
207.156
191.051
176.646
163.912
152.785
143.174
134.97
128.047
122.272
117.51
113.629
110.501
108.009
106.047
104.519
103.343
102.448
101.774
101.272
100.903
100.635
100.441
100.304
100.207
100.14
100.093
100.062
100.04
100.026
100.017
100.011
100.007
100.004
100.003
100.002
100.001
100.001
100
100
100
100
100
100
100
100
100
100
100
100
100
100
100
100
100
100
100
100
100
100
100
100
100
100
100
100
100
100
387.036
361.261
335.936
311.346
287.748
265.367
244.387
224.952
207.156
191.051
176.646
163.912
152.785
143.174
134.97
128.047
122.272
117.51
113.629
110.501
108.009
106.047
104.519
103.343
102.448
101.774
101.272
100.903
100.635
100.441
100.304
100.207
100.14
100.093
100.062
100.04
100.026
100.017
100.011
100.007
100.004
100.003
100.002
100.001
100.001
100
100
100
100
100
100
100
100
100
100
100
100
100
100
100
100
100
100
100
100
100
100
100
100
100
100
100
100
100
100
387.036
361.261
335.936
311.346
287.748
265.367
244.387
224.952
207.156
191.051
176.646
163.912
152.785
143.174
134.97
128.047
122.272
117.51
113.629
110.501
108.009
106.047
104.519
103.343
102.448
101.774
101.272
100.903
100.635
100.441
100.304
100.207
100.14
100.093
100.062
100.04
100.026
100.017
100.011
100.007
100.004
100.003
100.002
100.001
100.001
100
100
100
100
100
100
100
100
100
100
100
100
100
100
100
100
100
100
100
100
100
100
100
100
100
100
100
100
100
100
387.036
361.261
335.936
311.346
287.748
265.367
244.387
224.952
207.156
191.051
176.646
163.912
152.785
143.174
134.97
128.047
122.272
117.51
113.629
110.501
108.009
106.047
104.519
103.343
102.448
101.774
101.272
100.903
100.635
100.441
100.304
100.207
100.14
100.093
100.062
100.04
100.026
100.017
100.011
100.007
100.004
100.003
100.002
100.001
100.001
100
100
100
100
100
100
100
100
100
100
100
100
100
100
100
100
100
100
100
100
100
100
100
100
100
100
100
100
100
100
387.036
361.261
335.936
311.346
287.748
265.367
244.387
224.952
207.156
191.051
176.646
163.912
152.785
143.174
134.97
128.047
122.272
117.51
113.629
110.501
108.009
106.047
104.519
103.343
102.448
101.774
101.272
100.903
100.635
100.441
100.304
100.207
100.14
100.093
100.062
100.04
100.026
100.017
100.011
100.007
100.004
100.003
100.002
100.001
100.001
100
100
100
100
100
100
100
100
100
100
100
100
100
100
100
100
100
100
100
100
100
100
100
100
100
100
100
100
100
100
387.036
361.261
335.936
311.346
287.748
265.367
244.387
224.952
207.156
191.051
176.646
163.912
152.785
143.174
134.97
128.047
122.272
117.51
113.629
110.501
108.009
106.047
104.519
103.343
102.448
101.774
101.272
100.903
100.635
100.441
100.304
100.207
100.14
100.093
100.062
100.04
100.026
100.017
100.011
100.007
100.004
100.003
100.002
100.001
100.001
100
100
100
100
100
100
100
100
100
100
100
100
100
100
100
100
100
100
100
100
100
100
100
100
100
100
100
100
100
100
387.036
361.261
335.936
311.346
287.748
265.367
244.387
224.952
207.156
191.051
176.646
163.912
152.785
143.174
134.97
128.047
122.272
117.51
113.629
110.501
108.009
106.047
104.519
103.343
102.448
101.774
101.272
100.903
100.635
100.441
100.304
100.207
100.14
100.093
100.062
100.04
100.026
100.017
100.011
100.007
100.004
100.003
100.002
100.001
100.001
100
100
100
100
100
100
100
100
100
100
100
100
100
100
100
100
100
100
100
100
100
100
100
100
100
100
100
100
100
100
387.036
361.261
335.936
311.346
287.748
265.367
244.387
224.952
207.156
191.051
176.646
163.912
152.785
143.174
134.97
128.047
122.272
117.51
113.629
110.501
108.009
106.047
104.519
103.343
102.448
101.774
101.272
100.903
100.635
100.441
100.304
100.207
100.14
100.093
100.062
100.04
100.026
100.017
100.011
100.007
100.004
100.003
100.002
100.001
100.001
100
100
100
100
100
100
100
100
100
100
100
100
100
100
100
100
100
100
100
100
100
100
100
100
100
100
100
100
100
100
387.036
361.261
335.936
311.346
287.748
265.367
244.387
224.952
207.156
191.051
176.646
163.912
152.785
143.174
134.97
128.047
122.272
117.51
113.629
110.501
108.009
106.047
104.519
103.343
102.448
101.774
101.272
100.903
100.635
100.441
100.304
100.207
100.14
100.093
100.062
100.04
100.026
100.017
100.011
100.007
100.004
100.003
100.002
100.001
100.001
100
100
100
100
100
100
100
100
100
100
100
100
100
100
100
100
100
100
100
100
100
100
100
100
100
100
100
100
100
100
387.036
361.261
335.936
311.346
287.748
265.367
244.387
224.952
207.156
191.051
176.646
163.912
152.785
143.174
134.97
128.047
122.272
117.51
113.629
110.501
108.009
106.047
104.519
103.343
102.448
101.774
101.272
100.903
100.635
100.441
100.304
100.207
100.14
100.093
100.062
100.04
100.026
100.017
100.011
100.007
100.004
100.003
100.002
100.001
100.001
100
100
100
100
100
100
100
100
100
100
100
100
100
100
100
100
100
100
100
100
100
100
100
100
100
100
100
100
100
100
387.036
361.261
335.936
311.346
287.748
265.367
244.387
224.952
207.156
191.051
176.646
163.912
152.785
143.174
134.97
128.047
122.272
117.51
113.629
110.501
108.009
106.047
104.519
103.343
102.448
101.774
101.272
100.903
100.635
100.441
100.304
100.207
100.14
100.093
100.062
100.04
100.026
100.017
100.011
100.007
100.004
100.003
100.002
100.001
100.001
100
100
100
100
100
100
100
100
100
100
100
100
100
100
100
100
100
100
100
100
100
100
100
100
100
100
100
100
100
100
387.036
361.261
335.936
311.346
287.748
265.367
244.387
224.952
207.156
191.051
176.646
163.912
152.785
143.174
134.97
128.047
122.272
117.51
113.629
110.501
108.009
106.047
104.519
103.343
102.448
101.774
101.272
100.903
100.635
100.441
100.304
100.207
100.14
100.093
100.062
100.04
100.026
100.017
100.011
100.007
100.004
100.003
100.002
100.001
100.001
100
100
100
100
100
100
100
100
100
100
100
100
100
100
100
100
100
100
100
100
100
100
100
100
100
100
100
100
100
100
387.036
361.261
335.936
311.346
287.748
265.367
244.387
224.952
207.156
191.051
176.646
163.912
152.785
143.174
134.97
128.047
122.272
117.51
113.629
110.501
108.009
106.047
104.519
103.343
102.448
101.774
101.272
100.903
100.635
100.441
100.304
100.207
100.14
100.093
100.062
100.04
100.026
100.017
100.011
100.007
100.004
100.003
100.002
100.001
100.001
100
100
100
100
100
100
100
100
100
100
100
100
100
100
100
100
100
100
100
100
100
100
100
100
100
100
100
100
100
100
387.036
361.261
335.936
311.346
287.748
265.367
244.387
224.952
207.156
191.051
176.646
163.912
152.785
143.174
134.97
128.047
122.272
117.51
113.629
110.501
108.009
106.047
104.519
103.343
102.448
101.774
101.272
100.903
100.635
100.441
100.304
100.207
100.14
100.093
100.062
100.04
100.026
100.017
100.011
100.007
100.004
100.003
100.002
100.001
100.001
100
100
100
100
100
100
100
100
100
100
100
100
100
100
100
100
100
100
100
100
100
100
100
100
100
100
100
100
100
100
387.036
361.261
335.936
311.346
287.748
265.367
244.387
224.952
207.156
191.051
176.646
163.912
152.785
143.174
134.97
128.047
122.272
117.51
113.629
110.501
108.009
106.047
104.519
103.343
102.448
101.774
101.272
100.903
100.635
100.441
100.304
100.207
100.14
100.093
100.062
100.04
100.026
100.017
100.011
100.007
100.004
100.003
100.002
100.001
100.001
100
100
100
100
100
100
100
100
100
100
100
100
100
100
100
100
100
100
100
100
100
100
100
100
100
100
100
100
100
100
387.036
361.261
335.936
311.346
287.748
265.367
244.387
224.952
207.156
191.051
176.646
163.912
152.785
143.174
134.97
128.047
122.272
117.51
113.629
110.501
108.009
106.047
104.519
103.343
102.448
101.774
101.272
100.903
100.635
100.441
100.304
100.207
100.14
100.093
100.062
100.04
100.026
100.017
100.011
100.007
100.004
100.003
100.002
100.001
100.001
100
100
100
100
100
100
100
100
100
100
100
100
100
100
100
100
100
100
100
100
100
100
100
100
100
100
100
100
100
100
387.036
361.261
335.936
311.346
287.748
265.367
244.387
224.952
207.156
191.051
176.646
163.912
152.785
143.174
134.97
128.047
122.272
117.51
113.629
110.501
108.009
106.047
104.519
103.343
102.448
101.774
101.272
100.903
100.635
100.441
100.304
100.207
100.14
100.093
100.062
100.04
100.026
100.017
100.011
100.007
100.004
100.003
100.002
100.001
100.001
100
100
100
100
100
100
100
100
100
100
100
100
100
100
100
100
100
100
100
100
100
100
100