/*--------------------------------*- C++ -*----------------------------------*\
  =========                 |
  \\      /  F ield         | OpenFOAM: The Open Source CFD Toolbox
   \\    /   O peration     | Website:  https://openfoam.org
    \\  /    A nd           | Version:  10
     \\/     M anipulation  |
\*---------------------------------------------------------------------------*/
FoamFile
{
    format      ascii;
    class       volScalarField;
    location    "102";
    object      gradTx;
}
// * * * * * * * * * * * * * * * * * * * * * * * * * * * * * * * * * * * * * //

dimensions      [0 -1 0 1 0 0 0];

internalField   nonuniform List<scalar> 
11250
(
14245.7
7943.81
5050.88
3479.75
2507.19
1848.24
1375.51
1024.91
760.441
559.77
407.765
293.389
208.224
145.62
100.281
67.961
45.2997
29.688
19.1249
12.1095
7.5382
4.61803
2.78028
1.64159
0.952476
0.538739
0.304812
0.174463
0.102144
0.0493172
0.018568
0.00480891
0.000894493
0.00012764
1.4723e-05
1.42652e-06
1.19448e-07
8.82265e-09
5.88323e-10
2.74404e-11
-8.78094e-12
6.58571e-12
1.09762e-12
-5.48809e-12
-5.48809e-12
1.09762e-12
0
-4.39047e-12
2.19524e-12
0
1.09762e-12
0
1.4269e-11
0
1.09762e-12
0
1.09762e-12
-2.19524e-12
0
2.19524e-12
0
1.09762e-12
0
-2.19524e-11
9.87856e-12
-1.09762e-12
-1.09762e-12
0
1.09762e-12
0
-5.48809e-12
0
-7.68332e-12
0
-9.87856e-12
4042.3
4544.92
3745.11
2902.16
2218.27
1689.03
1281.35
966.41
722.896
535.186
391.474
282.55
201.016
140.848
97.1342
65.8988
43.9688
28.844
18.6033
11.7849
7.33685
4.49381
2.70263
1.59419
0.921175
0.530652
0.300559
0.16575
0.0892811
0.0473251
0.0255358
0.00848676
0.00185358
0.000295433
3.6947e-05
3.80728e-06
3.34545e-07
2.57029e-08
1.75619e-09
1.11957e-10
1.09762e-12
-3.29285e-12
-1.09762e-12
-1.09762e-12
0
0
-1.09762e-12
0
-2.19523e-12
0
-1.75619e-11
0
-1.4269e-11
8.78094e-12
-1.31714e-11
-6.5857e-12
-1.4269e-11
0
-4.39047e-12
0
0
-1.09762e-12
0
2.41476e-11
5.48809e-12
0
-1.09762e-12
1.09762e-12
-1.09762e-12
0
-8.78094e-12
0
8.78094e-12
2.19523e-12
0
1424.27
2458.29
2498.15
2186.04
1798.82
1434.66
1121.78
863.526
655.241
490.132
361.273
262.281
187.447
131.813
91.1619
61.9913
41.441
27.2348
17.5883
11.1533
6.94931
4.25568
2.55604
1.50979
0.874487
0.502772
0.28359
0.148243
0.0728781
0.041903
0.025808
0.0119063
0.00329166
0.000614247
8.56302e-05
9.53403e-06
8.86687e-07
7.10971e-08
5.01721e-09
3.15016e-10
2.41476e-11
-1.09762e-12
0
7.68332e-12
5.48809e-12
7.68332e-12
1.09762e-12
5.48809e-12
0
0
1.09762e-12
-1.09762e-12
4.39047e-12
8.78094e-12
0
-2.19523e-12
0
4.39047e-12
0
-2.19524e-12
0
0
0
-1.4269e-11
-1.09762e-11
2.19524e-12
3.29285e-12
2.19523e-12
0
0
3.29285e-12
8.78094e-12
0
-1.09762e-12
8.78094e-12
623.984
1375.21
1618.14
1564.67
1379.41
1154.32
933.74
736.543
568.982
431.341
321.203
235.05
169.04
119.471
82.9673
56.6088
37.947
24.9943
16.1698
10.2749
6.41687
3.93078
2.36078
1.39856
0.818178
0.462047
0.256856
0.136208
0.0683226
0.0385329
0.0212507
0.0173226
0.00601462
0.00124502
0.000183169
2.10178e-05
1.98908e-06
1.61089e-07
1.14668e-08
7.36501e-10
4.60999e-11
-2.19524e-12
1.09762e-12
0
0
0
0
1.09762e-12
0
0
1.53666e-11
0
1.09762e-12
-8.78094e-12
1.31714e-11
5.48809e-12
1.4269e-11
-4.39047e-12
5.48809e-12
6.58571e-12
0
-2.19523e-12
0
-1.09762e-12
-4.39047e-12
3.29285e-12
0
1.09762e-12
0
2.19524e-12
5.48809e-12
0
-1.09762e-12
-1.09762e-12
-5.48809e-12
323.436
809.235
1048.55
1093.51
1021.51
893.154
746.85
604.154
475.811
366.149
275.882
203.777
147.65
104.993
73.2853
50.2149
33.7805
22.3107
14.4661
9.21477
5.76324
3.53763
2.13296
1.26605
0.743413
0.421776
0.230965
0.129702
0.0735218
0.0405103
0.0215687
0.0173517
0.00601549
0.00124519
0.000183295
2.10516e-05
1.99469e-06
1.61767e-07
1.1536e-08
7.47478e-10
5.37833e-11
0
8.78094e-12
0
-2.19523e-12
-1.09762e-11
-4.39047e-12
-2.19523e-12
1.09762e-12
3.29285e-12
8.78094e-12
1.09762e-12
-5.48809e-12
-9.87856e-12
0
5.48809e-12
1.09762e-12
-8.78094e-12
-5.48809e-12
0
0
0
0
1.86595e-11
0
-1.09762e-12
-1.09762e-12
-3.29285e-12
0
-1.09762e-12
-9.87856e-12
-1.20738e-11
-7.68332e-12
-1.09762e-12
-1.09762e-12
186.718
497.806
686.174
756.152
739.793
671.63
578.81
479.618
385.046
300.898
229.548
171.268
125.124
89.5815
62.8867
43.3068
29.2576
19.3852
12.6031
8.04998
5.04752
3.10958
1.88142
1.1148
0.650315
0.371039
0.203677
0.12038
0.0707421
0.0395286
0.0246707
0.0116379
0.00326093
0.000615159
8.66854e-05
9.7624e-06
9.19154e-07
7.4672e-08
5.36296e-09
3.46847e-10
2.08547e-11
1.09762e-12
-9.87856e-12
-1.09762e-12
1.09762e-12
1.09762e-12
0
1.09762e-12
-2.19524e-12
-2.19523e-12
-6.58571e-12
-1.09762e-12
0
-3.29285e-12
-1.09762e-12
0
-1.09762e-12
2.19524e-12
1.09762e-12
-6.58571e-12
1.09762e-12
2.19523e-12
1.09762e-12
0
-1.09762e-12
-4.39047e-12
0
0
0
-2.19524e-12
4.39047e-12
1.09762e-12
-4.39047e-12
0
0
114.81
316.324
453.727
520.236
527.643
494.193
437.252
370.348
302.762
240.171
185.513
139.849
103.056
74.3185
52.4891
36.3366
24.6591
16.4036
10.7035
6.85866
4.31751
2.6662
1.61907
0.962563
0.558798
0.316997
0.179846
0.1066
0.0570031
0.0294715
0.0200305
0.00743918
0.00182585
0.000333459
4.82011e-05
5.73412e-06
5.77774e-07
5.04454e-08
3.88118e-09
2.64526e-10
3.29285e-12
7.68332e-12
-8.78094e-12
-9.87856e-12
-4.39047e-12
2.19524e-12
5.48809e-12
1.09762e-12
-1.09762e-12
-4.39047e-12
-9.87856e-12
0
0
-1.09762e-12
0
-9.87856e-12
-1.09762e-12
-7.68332e-12
4.39047e-12
-4.39047e-12
0
-2.19523e-12
1.09762e-12
-5.48809e-12
2.19523e-12
2.19524e-12
0
0
-1.20738e-11
1.09762e-12
1.31714e-11
2.19524e-12
0
-7.68332e-12
0
73.1544
205.299
302.297
356.665
371.936
357.315
323.308
279.201
232.073
186.715
145.96
111.158
82.626
60.0248
42.6632
29.6934
20.2428
13.525
8.86192
5.69961
3.59563
2.22138
1.34745
0.803223
0.469045
0.267983
0.155386
0.0872876
0.047767
0.0278221
0.0125598
0.00390299
0.00160816
0.000483365
9.80064e-05
1.4584e-05
1.70927e-06
1.65701e-07
1.37378e-08
9.87856e-10
6.36618e-11
3.29285e-12
9.87856e-12
0
-5.48809e-12
-9.87856e-12
0
-1.09762e-12
1.09762e-12
-3.29285e-12
5.48809e-12
0
0
4.39047e-12
1.09762e-12
4.39047e-12
2.305e-11
3.29285e-12
-3.29285e-12
0
0
0
-3.29285e-12
0
0
0
7.68332e-12
-1.09762e-12
0
1.09762e-12
-1.09762e-12
0
6.5857e-12
0
4.39047e-12
47.5268
134.88
202.173
243.559
259.492
254.459
234.621
206.06
173.847
141.698
112.025
86.1468
64.5771
47.2548
33.801
23.6529
16.1998
10.8704
7.15226
4.61178
2.91353
1.8023
1.09009
0.649429
0.382
0.219921
0.124701
0.065066
0.0367083
0.022743
0.00837274
0.00363569
0.00481337
0.00187952
0.000411004
6.26253e-05
7.37632e-06
7.13011e-07
5.87906e-08
4.23461e-09
2.72209e-10
6.58571e-12
-3.29285e-12
9.87856e-12
0
0
-3.29285e-12
0
0
-1.20738e-11
-2.19524e-12
0
-1.09762e-12
-3.29285e-12
0
8.78094e-12
1.4269e-11
1.4269e-11
-4.39047e-12
4.39047e-12
-1.09762e-12
2.19523e-12
8.78094e-12
0
-1.09762e-12
0
1.4269e-11
2.19523e-12
1.31714e-11
-1.09762e-12
2.19523e-12
5.48809e-12
6.58571e-12
8.78094e-12
2.19524e-12
31.1716
89.1097
135.239
165.457
179.235
178.691
167.375
149.154
127.503
105.153
84.0021
65.1885
49.2608
36.3072
26.1306
18.3809
12.6518
8.52841
5.62769
3.6348
2.30125
1.42993
0.871989
0.518188
0.303802
0.17764
0.09881
0.0502604
0.0241098
0.0109729
0.00429179
0.00585628
0.0131259
0.00523676
0.00113684
0.000171119
1.98943e-05
1.89861e-06
1.54639e-07
1.10398e-08
6.93694e-10
3.51238e-11
1.09762e-12
0
5.48809e-12
8.78094e-12
-1.09762e-12
-4.39047e-12
1.09762e-12
4.39047e-12
-2.19524e-12
-1.09762e-12
0
0
0
-5.48809e-12
-1.97571e-11
-1.09762e-12
2.19523e-12
-1.09762e-12
-1.09762e-12
0
1.09762e-12
-1.09762e-12
-1.09762e-12
-1.09762e-12
-6.58571e-12
0
-1.09762e-12
0
1.09762e-12
0
-6.58571e-12
0
1.09762e-12
20.4983
58.8973
90.1997
111.65
122.529
123.802
117.496
106.016
91.6783
76.4023
61.6107
48.2225
36.7188
27.2485
19.7321
13.9557
9.65353
6.53739
4.32755
2.80804
1.77864
1.1052
0.677387
0.404195
0.237136
0.146569
0.0855289
0.0471101
0.026291
0.008987
0.00307782
0.0055391
0.013071
0.00522831
0.0011359
0.000171093
1.99077e-05
1.90182e-06
1.55096e-07
1.1109e-08
7.2772e-10
4.06118e-11
6.5857e-12
2.19523e-12
6.5857e-12
0
3.29285e-12
-5.48809e-12
-1.09762e-12
1.20738e-11
2.19523e-12
0
2.19523e-12
4.39047e-12
2.19523e-12
1.09762e-12
-1.4269e-11
0
4.39047e-12
-1.09762e-12
3.29285e-12
1.4269e-11
-8.78094e-12
0
0
-9.87856e-12
-3.7319e-11
-1.09762e-12
0
0
-3.29285e-12
-5.48809e-12
0
-2.19523e-12
-3.29285e-12
13.4562
38.8058
59.8326
74.7271
82.854
84.6355
81.2093
74.0555
64.6864
54.4045
44.2461
34.9071
26.7725
19.9967
14.5691
10.359
7.19927
4.89608
3.26039
2.1232
1.34877
0.837036
0.516628
0.316298
0.184373
0.113028
0.0698593
0.0416135
0.0239862
0.00755281
0.00190785
0.00206158
0.00454485
0.0018427
0.00040709
6.23706e-05
7.38063e-06
7.16889e-07
5.94393e-08
4.32352e-09
2.95259e-10
2.08547e-11
8.78094e-12
7.68332e-12
0
1.09762e-12
0
1.20738e-11
1.09762e-12
2.19523e-12
4.39047e-12
4.39047e-12
0
1.09762e-12
-1.09762e-12
-1.09762e-12
-3.29285e-12
0
-1.09762e-12
2.19524e-12
0
-1.09762e-12
5.48809e-12
0
-1.09762e-11
-5.48809e-12
-2.19524e-12
-1.09762e-12
0
1.09762e-12
0
0
4.39047e-12
0
1.09762e-12
8.7895
25.4169
39.3858
49.5367
55.3766
57.0801
55.2765
50.8663
44.8183
38.0085
31.1508
24.7508
19.1067
14.3608
10.5237
7.51864
5.24705
3.5787
2.39608
1.56624
1.00359
0.628638
0.386425
0.23563
0.133973
0.0731258
0.0433067
0.0269333
0.0123157
0.00340703
0.000720926
0.00047207
0.000933688
0.000383841
8.6418e-05
1.35019e-05
1.62919e-06
1.61332e-07
1.36467e-08
1.00322e-09
5.1588e-11
7.68332e-12
-3.29285e-12
-4.39047e-12
-1.09762e-12
0
-1.09762e-12
4.39047e-12
0
1.09762e-12
0
1.09762e-12
0
0
-1.09762e-12
0
1.09762e-12
-8.78094e-12
-7.68332e-12
-3.29285e-12
-1.09762e-12
-1.4269e-11
1.09762e-12
-1.20738e-11
-1.09762e-12
1.09762e-11
2.305e-11
-2.19523e-12
0
0
-1.09762e-12
-4.39047e-12
-8.78094e-12
1.09762e-12
6.58571e-12
5.69577
16.5095
25.6839
32.489
36.5643
37.9679
37.0532
34.3641
30.5062
26.0673
21.5164
17.2074
13.3615
10.0977
7.43349
5.33611
3.73665
2.55637
1.7155
1.12692
0.725249
0.456243
0.276607
0.162957
0.0939487
0.0490377
0.021756
0.0102401
0.00377537
0.000938894
0.000179234
7.9313e-05
0.000136788
5.69256e-05
1.30632e-05
2.0823e-06
2.56355e-07
2.58939e-08
2.23585e-09
1.74521e-10
8.78094e-12
-1.09762e-11
-1.09762e-11
-7.68332e-12
-5.48809e-12
-6.5857e-12
-1.09762e-12
-6.5857e-12
0
-1.09762e-12
0
-2.19523e-12
-1.09762e-12
1.09762e-12
0
0
4.39047e-12
0
1.09762e-12
0
-1.09762e-12
-1.09762e-12
-6.5857e-12
0
1.20738e-11
8.78094e-12
2.19523e-12
0
-1.09762e-12
-2.19523e-12
-6.5857e-12
4.39047e-12
0
0
0
3.65572
10.6165
16.5715
21.0596
23.8352
24.8992
24.4595
22.8384
20.4062
17.5502
14.5799
11.7321
9.16241
6.9588
5.14512
3.71202
2.6128
1.79385
1.19872
0.786718
0.507882
0.319817
0.199802
0.121775
0.0736759
0.0409232
0.0174243
0.00549208
0.0013456
0.000258392
4.09503e-05
1.14586e-05
1.57671e-05
6.60375e-06
1.54317e-06
2.509e-07
3.14917e-08
3.24456e-09
2.70014e-10
1.64643e-11
7.68332e-12
2.19524e-12
-1.20738e-11
2.19523e-12
0
-5.48809e-12
4.39047e-12
0
-5.48809e-12
-1.09762e-12
0
-3.29285e-12
-8.78094e-12
0
-1.4269e-11
-1.09762e-12
0
7.68332e-12
8.78094e-12
6.58571e-12
1.09762e-12
-4.39047e-12
0
1.31714e-11
9.87856e-12
0
-1.09762e-12
2.19523e-12
-4.39047e-12
0
-7.68332e-12
3.29285e-12
8.78094e-12
9.87856e-12
-3.29285e-12
2.32326
6.75295
10.5714
13.4798
15.3235
16.0926
15.8999
14.9281
13.4164
11.6022
9.69518
7.84337
6.15711
4.69636
3.4925
2.53004
1.78924
1.23433
0.825093
0.544572
0.350078
0.222005
0.138131
0.0852001
0.0538642
0.0367727
0.0230615
0.00737432
0.00150244
0.000224838
2.6953e-05
3.30128e-06
1.66269e-06
6.44083e-07
1.51234e-07
2.49993e-08
3.19516e-09
3.24895e-10
2.85381e-11
4.39047e-12
3.29285e-12
1.31714e-11
2.19524e-12
0
5.48809e-12
5.48809e-12
1.09762e-12
2.19524e-12
-1.09762e-12
0
1.09762e-12
-1.09762e-12
0
-2.19524e-12
0
-4.39047e-12
-4.39047e-12
0
8.78094e-12
-1.09762e-12
0
1.09762e-12
0
-2.19524e-12
5.48809e-12
-4.39047e-12
-1.09762e-12
-1.09762e-12
0
1.09762e-12
-4.39047e-12
-7.68332e-12
-2.19524e-12
2.19523e-12
5.48809e-12
1.46092
4.24642
6.65898
8.51136
9.71032
10.2484
10.1686
9.59046
8.66614
7.53569
6.33185
5.14791
4.05875
3.109
2.32044
1.68392
1.19252
0.822653
0.556929
0.370167
0.238965
0.156873
0.0966557
0.0580759
0.0398857
0.0295223
0.0207119
0.0067653
0.00136354
0.000198242
2.26773e-05
2.19994e-06
2.90149e-07
6.38144e-08
1.33317e-08
2.16999e-09
2.78795e-10
1.97571e-11
5.48809e-12
-1.09762e-12
1.09762e-12
-1.4269e-11
1.31714e-11
5.48809e-12
-1.53666e-11
6.5857e-12
-5.48809e-12
0
7.68332e-12
0
-1.09762e-12
4.39047e-12
8.78094e-12
0
1.4269e-11
2.19523e-12
1.09762e-12
3.29285e-12
0
-2.19523e-12
-2.19523e-12
5.48809e-12
1.09762e-12
0
-9.87856e-12
-1.09762e-12
0
-3.29285e-12
4.39047e-12
-1.09762e-12
-3.29285e-12
5.48809e-12
-3.29285e-12
-9.87856e-12
-1.09762e-12
0.90711
2.63409
4.13284
5.29588
6.06665
6.42567
6.39588
6.06277
5.50116
4.80676
4.05766
3.31465
2.62341
2.02181
1.51267
1.10305
0.786477
0.543147
0.371701
0.245683
0.164368
0.109882
0.070014
0.0411602
0.0265842
0.0141132
0.00793031
0.00248021
0.00049696
7.25485e-05
8.35237e-06
8.01149e-07
7.35217e-08
8.41214e-09
1.22384e-09
1.71228e-10
1.97571e-11
2.19524e-12
-1.31714e-11
-4.39047e-12
-5.48809e-12
4.39047e-12
5.48809e-12
0
-1.53666e-11
-2.19524e-12
0
-3.29285e-12
1.09762e-12
0
0
0
0
-1.09762e-12
-2.19524e-12
5.48809e-12
-1.09762e-12
-2.19524e-12
-9.87856e-12
0
0
-4.39047e-12
0
2.19524e-12
-4.39047e-12
1.09762e-12
8.78094e-12
4.39047e-12
0
0
9.87856e-12
1.20738e-11
5.48809e-12
-5.48809e-12
-4.39047e-12
0.554648
1.61154
2.53209
3.24938
3.73871
3.96822
3.96187
3.77435
3.43879
3.01276
2.55227
2.09074
1.66484
1.28911
0.968311
0.712518
0.511776
0.362238
0.248193
0.166439
0.1087
0.0636975
0.0391769
0.0220156
0.0110493
0.00436965
0.00189828
0.000554181
0.000109579
1.60633e-05
1.86887e-06
1.81072e-07
1.55521e-08
1.34787e-09
1.22933e-10
1.64643e-11
8.78094e-12
6.58571e-12
1.09762e-12
1.31714e-11
-2.19523e-12
2.19524e-11
-1.09762e-12
-5.48809e-12
1.4269e-11
1.09762e-12
1.31714e-11
0
6.58571e-12
1.09762e-12
0
0
0
0
1.09762e-12
-2.19523e-12
-1.09762e-12
-1.09762e-12
-1.09762e-12
2.19524e-12
-1.09762e-12
-8.78094e-12
-1.09762e-12
0
-8.78094e-12
-9.87856e-12
0
2.19523e-12
4.39047e-12
1.09762e-12
1.31714e-11
-4.39047e-12
3.29285e-12
-1.09762e-12
-1.09762e-12
0.333032
0.971561
1.5306
1.96722
2.26886
2.4133
2.4202
2.31328
2.11949
1.86123
1.58016
1.29859
1.03789
0.801787
0.602355
0.447636
0.32239
0.231083
0.154912
0.104997
0.063047
0.0321829
0.0193227
0.0181979
0.00735589
0.00191034
0.000476305
0.000106351
1.89746e-05
2.68186e-06
3.09167e-07
3.0033e-08
2.55745e-09
2.05254e-10
1.4269e-11
1.09762e-12
0
-9.87856e-12
1.53666e-11
9.87856e-12
1.09762e-12
5.48809e-12
-6.5857e-12
0
1.53666e-11
-8.78094e-12
1.09762e-12
1.09762e-12
-2.19523e-12
-8.78094e-12
0
-1.09762e-12
0
1.09762e-12
3.29285e-12
3.29285e-12
1.86595e-11
0
2.19523e-12
0
0
-6.5857e-12
-1.09762e-12
3.29285e-12
0
-1.09762e-12
-7.68332e-12
0
0
1.09762e-12
-4.39047e-12
-8.78094e-12
0
0
-5.48809e-12
0.197795
0.57542
0.910303
1.17654
1.35497
1.44539
1.46062
1.39895
1.28277
1.12996
0.963017
0.79306
0.632683
0.484713
0.361068
0.267776
0.197544
0.137479
0.0927758
0.0596519
0.0409641
0.0268532
0.0144164
0.0152968
0.00576522
0.00127156
0.00021283
3.07955e-05
4.01261e-06
4.68364e-07
4.84324e-08
4.42779e-09
3.63311e-10
3.40261e-11
1.20738e-11
-3.29285e-12
-1.4269e-11
-1.4269e-11
-4.39047e-12
-8.78094e-12
1.31714e-11
0
1.09762e-12
0
-5.48809e-12
-1.09762e-12
-1.09762e-11
-4.39047e-12
-4.39047e-12
0
0
2.19524e-12
-1.09762e-12
2.19524e-12
-1.09762e-12
-1.09762e-12
9.87856e-12
0
0
-2.19524e-12
3.29285e-12
8.78094e-12
0
-1.86595e-11
8.78094e-12
1.09762e-11
0
1.09762e-12
-4.39047e-12
0
-1.20738e-11
0
0
-3.29285e-12
2.19524e-12
0.114383
0.334087
0.535659
0.694213
0.79483
0.847974
0.860157
0.826382
0.759122
0.674752
0.577416
0.473352
0.378942
0.292187
0.215917
0.155136
0.114341
0.077226
0.0580135
0.0351405
0.0277449
0.0213097
0.00968566
0.00635397
0.0021621
0.000455445
7.02481e-05
8.80098e-06
9.54967e-07
9.30571e-08
8.27274e-09
6.73937e-10
5.48809e-11
1.53666e-11
1.4269e-11
4.39047e-12
6.58571e-12
6.58571e-12
-2.19524e-12
-9.87856e-12
6.5857e-12
-1.09762e-11
3.29285e-12
-2.19523e-12
0
9.87856e-12
-1.09762e-12
0
0
7.68332e-12
0
1.09762e-12
0
1.09762e-12
-1.09762e-12
-2.19523e-12
-1.86595e-11
-7.68332e-12
-1.09762e-12
0
-1.09762e-12
1.09762e-11
1.09762e-12
-2.19524e-12
-1.09762e-12
-4.39047e-12
9.87856e-12
-1.09762e-12
2.19524e-12
-2.19524e-12
3.29285e-12
0
-2.19524e-12
3.29285e-12
-8.78094e-12
0.0617953
0.187093
0.311674
0.405995
0.461401
0.491516
0.491835
0.472757
0.438563
0.39573
0.336834
0.275164
0.221023
0.17252
0.130084
0.0934597
0.0649211
0.0460754
0.0365339
0.026502
0.0146839
0.00992403
0.00741384
0.0032737
0.000866466
0.000158188
2.20179e-05
2.50065e-06
2.43152e-07
2.09579e-08
1.64643e-09
1.17445e-10
1.64643e-11
-5.48809e-12
4.39047e-12
5.48809e-12
1.53666e-11
9.87856e-12
2.19523e-12
2.19523e-12
-1.31714e-11
-7.68332e-12
4.39047e-12
0
4.39047e-12
0
2.19523e-12
0
-1.09762e-12
2.19523e-12
1.09762e-12
-2.19523e-12
7.68332e-12
-3.29285e-12
-2.19523e-12
5.48809e-12
-7.68332e-12
1.20738e-11
1.09762e-12
0
1.09762e-12
-2.19523e-12
-1.09762e-12
1.31714e-11
0
1.31714e-11
0
-2.19523e-12
0
1.09762e-12
4.39047e-12
-2.19523e-12
0
2.19523e-12
-1.09762e-12
0.0361088
0.104623
0.17427
0.231239
0.261403
0.281261
0.283859
0.270623
0.251042
0.220702
0.188652
0.162515
0.131417
0.102974
0.0817411
0.0638614
0.0439376
0.0293304
0.0190571
0.0177246
0.00849573
0.00781014
0.0137465
0.00548216
0.00120994
0.00018613
2.21851e-05
2.17716e-06
1.8305e-07
1.35633e-08
9.08827e-10
5.26856e-11
-1.4269e-11
-1.20738e-11
-5.48809e-12
-2.19524e-12
-1.09762e-12
1.20738e-11
0
7.68332e-12
-6.5857e-12
0
-4.39047e-12
2.19523e-12
2.19524e-12
-1.09762e-12
-1.09762e-12
-5.48809e-12
-2.19524e-12
2.19523e-12
-7.68332e-12
-7.68332e-12
-1.09762e-12
0
-1.31714e-11
6.5857e-12
1.09762e-12
1.09762e-11
0
-1.09762e-12
1.09762e-12
0
-1.09762e-12
4.39047e-12
3.29285e-12
4.39047e-12
-9.87856e-12
0
-1.09762e-12
1.09762e-12
1.09762e-12
1.09762e-12
0
1.09762e-12
1.31714e-11
0.0236995
0.0638049
0.0949396
0.123458
0.141148
0.152931
0.161275
0.157372
0.143656
0.120178
0.106091
0.0985275
0.0817494
0.06691
0.0512844
0.0385035
0.0266415
0.0133468
0.00642419
0.00587382
0.00336844
0.00585353
0.0131731
0.00526226
0.00114519
0.000172954
2.01909e-05
1.93639e-06
1.58625e-07
1.13988e-08
7.28818e-10
4.50023e-11
-9.87856e-12
-9.87856e-12
8.78094e-12
1.31714e-11
9.87856e-12
7.68332e-12
1.4269e-11
1.86595e-11
2.08547e-11
8.78094e-12
-5.48809e-12
0
0
1.53666e-11
-1.09762e-12
1.09762e-12
0
-1.09762e-12
-1.09762e-12
-3.29285e-12
-7.68332e-12
1.09762e-12
1.09762e-12
-4.39047e-12
0
-3.29285e-12
-2.19523e-12
2.19524e-12
-1.09762e-12
2.19523e-12
0
6.58571e-12
-2.19523e-12
-1.31714e-11
2.19524e-12
1.09762e-12
0
-1.09762e-12
7.68332e-12
3.29285e-12
0
3.29285e-12
-4.39047e-12
0.0111012
0.0337167
0.0495299
0.0625468
0.0813543
0.0891509
0.0898666
0.0854935
0.0757582
0.071331
0.0646267
0.0521206
0.042826
0.0378656
0.0313381
0.0171937
0.00935473
0.00380094
0.00146979
0.00122543
0.000850012
0.00195513
0.00454216
0.00184515
0.000407962
6.25549e-05
7.40928e-06
7.20434e-07
5.97817e-08
4.35096e-09
2.91966e-10
2.52452e-11
1.20738e-11
8.78094e-12
2.08547e-11
1.09762e-12
3.29285e-12
-1.75619e-11
3.29285e-12
-1.09762e-12
1.09762e-11
7.68332e-12
4.39047e-12
1.09762e-12
-1.09762e-12
2.19523e-12
1.09762e-12
9.87856e-12
1.09762e-12
-2.19523e-12
7.68332e-12
6.5857e-12
2.19523e-12
-2.19523e-12
1.4269e-11
-6.5857e-12
-1.09762e-12
-3.29285e-12
1.09762e-12
2.19523e-12
-1.09762e-12
-2.19523e-12
2.19523e-12
-1.20738e-11
-3.29285e-12
-1.09762e-12
0
1.09762e-12
1.09762e-12
0
-7.68332e-12
0
-4.39047e-12
-1.4269e-11
-1.09762e-12
0.00396022
0.0150284
0.0294573
0.0363683
0.0556099
0.0607267
0.0541679
0.0491164
0.0449199
0.0430318
0.0341405
0.0198515
0.0141114
0.0146943
0.0176181
0.00776724
0.00277925
0.000846183
0.000259698
0.00018698
0.000150876
0.000398901
0.000926672
0.000383454
8.64474e-05
1.35147e-05
1.63147e-06
1.61611e-07
1.36741e-08
1.02078e-09
7.13451e-11
6.5857e-12
9.87856e-12
2.08547e-11
2.19523e-12
-6.58571e-12
-7.68332e-12
-1.75619e-11
-1.75619e-11
-1.20738e-11
-1.31714e-11
-1.09762e-12
2.19524e-12
0
-4.39047e-12
-1.64643e-11
1.09762e-12
1.09762e-12
1.09762e-11
0
-1.09762e-12
3.29285e-12
-6.5857e-12
0
-2.19524e-12
0
0
-7.68332e-12
4.39047e-12
-3.29285e-12
0
-1.09762e-12
-5.48809e-12
-2.08547e-11
2.19523e-12
0
-2.19524e-12
-3.29285e-12
1.09762e-12
-1.09762e-12
1.09762e-12
-2.19524e-12
0
0
1.31714e-11
0.00168037
0.0083248
0.0223021
0.0296241
0.0353287
0.0370804
0.0360844
0.0323427
0.030577
0.0285488
0.0153088
0.00602148
0.00326541
0.00368274
0.00533138
0.00223608
0.000646959
0.000156699
3.84437e-05
2.27811e-05
2.04746e-05
5.84304e-05
0.000134605
5.67462e-05
1.30536e-05
2.08244e-06
2.56457e-07
2.58939e-08
2.22377e-09
1.83302e-10
1.97571e-11
1.09762e-12
2.19524e-12
-3.29285e-12
-1.31714e-11
7.68332e-12
-9.87856e-12
8.78094e-12
-9.87856e-12
1.09762e-12
-1.4269e-11
-7.68332e-12
-5.48809e-12
0
0
1.09762e-12
6.5857e-12
-2.19524e-12
8.78094e-12
-2.19523e-12
-1.09762e-12
1.09762e-12
0
3.29285e-12
0
-1.09762e-12
0
0
-1.09762e-12
0
0
3.29285e-12
-1.09762e-12
7.68332e-12
0
-1.09762e-12
0
0
6.58571e-12
4.39047e-12
6.5857e-12
-1.97571e-11
2.19524e-12
1.09762e-11
0
0.000621733
0.00342579
0.0107032
0.0181393
0.0149525
0.0153408
0.0197142
0.0142945
0.013783
0.0171318
0.00735637
0.00202205
0.000673394
0.000663324
0.0010351
0.000431618
0.00011407
2.40689e-05
4.93666e-06
2.34319e-06
2.24998e-06
6.70677e-06
1.5281e-05
6.56188e-06
1.54021e-06
2.50744e-07
3.15027e-08
3.23468e-09
2.766e-10
2.74404e-11
4.39047e-12
2.19523e-12
-2.19523e-12
-1.4269e-11
-1.31714e-11
-3.29285e-12
-1.97571e-11
9.87856e-12
2.19523e-12
0
2.19523e-12
-4.39047e-12
-2.19523e-12
1.09762e-12
0
0
1.75619e-11
0
-1.09762e-11
0
2.19523e-12
0
2.08547e-11
0
0
0
8.78094e-12
0
-1.09762e-12
-2.19523e-12
-1.09762e-12
1.09762e-12
4.39047e-12
1.86595e-11
1.09762e-12
0
-1.09762e-12
1.31714e-11
0
1.09762e-12
-7.68332e-12
0
0
0
-7.68332e-12
0.000434211
0.00174253
0.00330367
0.0056313
0.00391272
0.00396654
0.00583785
0.00380363
0.00370241
0.00528522
0.00217614
0.000531438
0.000126656
9.37054e-05
0.000146991
6.16869e-05
1.57088e-05
3.07376e-06
5.56008e-07
2.1114e-07
2.08411e-07
6.36411e-07
1.43308e-06
6.26625e-07
1.50049e-07
2.49225e-08
3.18529e-09
3.227e-10
2.63428e-11
-1.86595e-11
-1.4269e-11
-4.39047e-12
-4.39047e-12
-3.29285e-12
-5.48809e-12
-3.29285e-12
-1.31714e-11
-6.58571e-12
4.39047e-12
-1.09762e-12
-2.19523e-12
2.19524e-12
2.19524e-12
-2.19523e-12
0
-1.09762e-12
2.19523e-12
0
-7.68332e-12
2.19523e-12
-2.19524e-12
-1.31714e-11
-1.09762e-12
-2.19524e-12
1.09762e-12
3.29285e-12
7.68332e-12
-1.20738e-11
-1.09762e-12
2.19524e-12
-1.09762e-12
-5.48809e-12
-3.29285e-12
0
0
2.19524e-12
1.09762e-12
0
-8.78094e-12
4.39047e-12
1.09762e-12
2.41476e-11
2.19524e-12
4.39047e-12
0
0.00145714
0.00460472
0.00237331
0.00148178
0.000764664
0.000718599
0.00111889
0.000692091
0.000677016
0.00103291
0.000424992
0.000100607
2.02979e-05
1.09945e-05
1.65199e-05
7.00053e-06
1.76009e-06
3.31227e-07
5.52222e-08
1.708e-08
1.67496e-08
5.17505e-08
1.15153e-07
5.12368e-08
1.25139e-08
2.12169e-09
2.78795e-10
3.40261e-11
-1.09762e-12
-7.68332e-12
2.19524e-12
-9.87856e-12
5.48809e-12
2.19524e-12
-1.64643e-11
4.39047e-12
1.31714e-11
-4.39047e-12
6.58571e-12
5.48809e-12
-1.4269e-11
0
2.19524e-12
-2.19523e-12
0
0
-1.86595e-11
0
-1.09762e-12
-1.09762e-12
-4.39047e-12
-5.48809e-12
-1.4269e-11
2.19524e-12
2.19524e-12
0
-8.78094e-12
-1.64643e-11
-8.78094e-12
-1.20738e-11
-3.29285e-12
-1.09762e-12
1.09762e-12
-2.19524e-12
-1.09762e-12
-1.09762e-11
1.09762e-12
-6.5857e-12
-1.09762e-12
-1.09762e-12
-2.19523e-12
0
-9.87856e-12
0
5.48809e-12
0.00409167
0.0128799
0.00527981
0.00128586
0.000266648
0.000116613
0.000159078
9.50378e-05
9.30902e-05
0.000146864
6.10796e-05
1.44265e-05
2.69572e-06
1.11146e-06
1.54531e-06
6.61328e-07
1.66135e-07
3.07157e-08
4.85586e-09
1.26555e-09
1.20189e-09
3.70665e-09
8.14322e-09
3.69129e-09
9.17608e-10
1.53666e-10
3.84166e-11
1.31714e-11
1.86595e-11
8.78094e-12
-3.29285e-12
-1.86595e-11
-1.53666e-11
8.78094e-12
-3.29285e-12
-2.19523e-12
8.78094e-12
-9.87856e-12
-9.87856e-12
-3.29285e-12
0
1.09762e-12
1.09762e-11
4.39047e-12
-2.19523e-12
0
-9.87856e-12
-1.09762e-12
1.09762e-12
-4.39047e-12
1.09762e-12
1.31714e-11
1.09762e-12
0
-3.29285e-12
6.5857e-12
-7.68332e-12
7.68332e-12
-8.78094e-12
-2.19523e-12
-1.31714e-11
5.48809e-12
4.39047e-12
-7.68332e-12
1.09762e-12
-1.09762e-12
-1.09762e-12
1.09762e-12
2.19523e-12
-8.78094e-12
-1.31714e-11
-4.39047e-12
-6.5857e-12
-7.68332e-12
-1.09762e-12
0.00408983
0.012862
0.00521237
0.0011506
0.000181419
3.04906e-05
1.94016e-05
1.06037e-05
1.02752e-05
1.64702e-05
6.94996e-06
1.65585e-06
2.99281e-07
9.91434e-08
1.24519e-07
5.37383e-08
1.35698e-08
2.48391e-09
3.68799e-10
9.21999e-11
7.57356e-11
2.28304e-10
5.20271e-10
2.48062e-10
6.69547e-11
1.53666e-11
-2.19524e-12
-9.87856e-12
4.39047e-12
-6.58571e-12
0
-7.68332e-12
-1.64643e-11
5.48809e-12
-1.09762e-12
-1.64643e-11
-1.09762e-11
-1.4269e-11
-1.4269e-11
-9.87856e-12
0
-3.29285e-12
-2.19524e-12
-4.39047e-12
5.48809e-12
-8.78094e-12
0
-1.31714e-11
-1.09762e-12
1.09762e-12
0
1.09762e-12
-1.09762e-12
-1.31714e-11
-1.09762e-12
4.39047e-12
0
4.39047e-12
1.86595e-11
1.31714e-11
4.39047e-12
2.19523e-12
0
2.19524e-12
0
1.09762e-11
-2.19524e-12
0
0
5.48809e-12
8.78094e-12
0
9.87856e-12
2.19523e-12
-6.58571e-12
0.00143453
0.00445716
0.00183361
0.000407743
6.32646e-05
8.3499e-06
2.33754e-06
1.02425e-06
9.52578e-07
1.53311e-06
6.57251e-07
1.58753e-07
2.83932e-08
7.97639e-09
8.8918e-09
3.86691e-09
9.91149e-10
1.76716e-10
3.62214e-11
-6.5857e-12
1.09762e-12
2.41476e-11
2.52452e-11
6.58571e-12
-2.19524e-12
1.4269e-11
-1.09762e-12
-2.19524e-12
-3.29285e-12
-5.48809e-12
7.68332e-12
1.4269e-11
1.53666e-11
-7.68332e-12
1.09762e-11
-1.09762e-12
1.4269e-11
8.78094e-12
1.53666e-11
-5.48809e-12
8.78094e-12
3.29285e-12
-2.19524e-12
-1.64643e-11
1.09762e-12
2.19524e-12
0
0
-2.19524e-12
-4.39047e-12
1.09762e-12
3.29285e-12
0
-2.19524e-12
2.19524e-12
-2.305e-11
-1.09762e-12
0
7.68332e-12
1.09762e-12
1.4269e-11
-2.19523e-12
-1.09762e-12
-1.09762e-12
-4.39047e-12
1.09762e-12
-1.09762e-12
1.20738e-11
0
0
2.08547e-11
9.87856e-12
6.58571e-12
4.39047e-12
0
0.000296685
0.0009102
0.000381331
8.63057e-05
1.35599e-05
1.70534e-06
2.90383e-07
9.06215e-08
7.66752e-08
1.22602e-07
5.33969e-08
1.31099e-08
2.32914e-09
5.55394e-10
5.54297e-10
2.5355e-10
6.91499e-11
3.62214e-11
1.4269e-11
0
8.78094e-12
9.87856e-12
-4.39047e-12
-3.29285e-12
3.29285e-12
4.39047e-12
8.78094e-12
2.52452e-11
1.09762e-11
1.53666e-11
6.5857e-12
1.86595e-11
9.87856e-12
-6.5857e-12
2.305e-11
4.39047e-12
9.87856e-12
1.75619e-11
4.39047e-12
-1.20738e-11
2.63428e-11
-5.48809e-12
7.68332e-12
9.87856e-12
0
8.78094e-12
9.87856e-12
2.305e-11
2.19523e-12
-6.5857e-12
4.39047e-12
6.5857e-12
1.53666e-11
2.08547e-11
1.09762e-12
5.48809e-12
4.39047e-12
1.4269e-11
-1.09762e-11
0
0
-2.19523e-12
-1.09762e-12
0
-3.29285e-12
0
4.39047e-12
-4.39047e-12
-2.19523e-12
-1.31714e-11
-5.48809e-12
6.5857e-12
-1.09762e-12
-5.48809e-12
2.19523e-12
4.36068e-05
0.0001322
5.64393e-05
1.30271e-05
2.08404e-06
2.61466e-07
3.48845e-08
7.61966e-09
5.44199e-09
8.58776e-09
3.78019e-09
9.25292e-10
1.49276e-10
1.31714e-11
1.86595e-11
2.19524e-12
0
1.4269e-11
-1.09762e-11
8.78094e-12
4.39047e-12
-1.31714e-11
-1.09762e-12
8.78094e-12
1.20738e-11
0
7.68332e-12
7.68332e-12
5.48809e-12
6.58571e-12
-3.29285e-12
1.09762e-12
5.48809e-12
1.20738e-11
-7.68332e-12
-1.09762e-11
-1.53666e-11
4.39047e-12
-1.31714e-11
1.09762e-12
-4.39047e-12
-7.68332e-12
1.09762e-12
1.86595e-11
1.09762e-12
-1.09762e-12
2.19523e-12
-1.09762e-12
1.09762e-12
8.78094e-12
1.09762e-12
4.39047e-12
1.4269e-11
1.09762e-12
-2.19524e-12
1.4269e-11
1.31714e-11
2.19524e-12
2.19523e-12
0
0
-2.19523e-12
2.19524e-12
8.78094e-12
3.29285e-12
-1.09762e-12
0
-1.20738e-11
1.09762e-12
0
-1.64643e-11
-9.87856e-12
1.09762e-12
-7.68332e-12
0
5.00192e-06
1.50007e-05
6.52594e-06
1.5368e-06
2.50768e-07
3.18924e-08
3.90752e-09
7.0028e-10
4.36852e-10
6.01494e-10
3.02942e-10
9.98832e-11
4.82952e-11
4.06118e-11
3.40261e-11
2.19524e-11
2.19523e-11
3.29285e-12
3.29285e-12
-1.09762e-11
3.29285e-12
1.09762e-12
-2.19523e-12
6.58571e-12
-6.58571e-12
3.29285e-12
3.29285e-12
-1.20738e-11
-7.68332e-12
8.78094e-12
2.19524e-12
-5.48809e-12
-7.68332e-12
2.19524e-12
-1.09762e-11
2.19524e-12
-1.09762e-11
0
5.48809e-12
2.305e-11
-6.5857e-12
1.31714e-11
-1.64643e-11
-4.39047e-12
1.09762e-12
0
-1.09762e-11
-7.68332e-12
0
5.48809e-12
0
-2.19524e-12
-1.4269e-11
-8.78094e-12
0
-2.08547e-11
-4.39047e-12
-4.39047e-12
1.09762e-12
0
0
-2.19523e-12
4.39047e-12
0
5.48809e-12
0
-1.09762e-12
0
6.58571e-12
1.53666e-11
5.48809e-12
-5.48809e-12
-8.78094e-12
1.09762e-12
-4.39047e-12
4.73389e-07
1.40589e-06
6.23109e-07
1.49706e-07
2.49357e-08
3.23358e-09
3.68799e-10
5.48809e-11
2.85381e-11
6.5857e-12
2.19523e-12
-1.31714e-11
-1.4269e-11
-3.29285e-12
-4.39047e-12
5.48809e-12
-1.09762e-12
-1.64643e-11
7.68332e-12
-1.4269e-11
-1.75619e-11
1.09762e-12
6.5857e-12
-1.20738e-11
-5.48809e-12
6.5857e-12
-2.19523e-12
-7.68332e-12
2.19523e-12
8.78094e-12
1.20738e-11
1.4269e-11
-8.78094e-12
-1.20738e-11
2.19523e-12
1.20738e-11
9.87856e-12
0
1.20738e-11
6.5857e-12
1.09762e-12
3.29285e-12
-9.87856e-12
-5.48809e-12
0
0
-2.19523e-12
4.39047e-12
-1.09762e-12
2.19523e-12
-1.09762e-12
-4.39047e-12
-1.09762e-11
-3.29285e-12
2.19523e-12
0
-1.4269e-11
-1.09762e-12
-1.09762e-12
0
-1.09762e-12
4.39047e-12
0
-1.09762e-12
0
-4.39047e-12
-1.09762e-12
-1.09762e-12
0
6.5857e-12
8.78094e-12
-2.19523e-12
-4.39047e-12
8.78094e-12
0
3.83859e-08
1.12857e-07
5.08943e-08
1.24514e-08
2.04157e-09
2.10743e-10
-3.51238e-11
-5.48809e-11
-5.48809e-11
-5.92713e-11
-3.51238e-11
-2.96357e-11
-3.51238e-11
-3.18309e-11
-1.97571e-11
-1.09762e-11
-1.53666e-11
-2.19524e-12
-3.29285e-12
0
-1.86595e-11
-6.58571e-12
4.39047e-12
-1.75619e-11
-3.29285e-12
-1.09762e-12
-2.19524e-12
2.19524e-12
-3.29285e-12
-7.68332e-12
-1.31714e-11
1.20738e-11
2.19524e-11
-9.87856e-12
-3.29285e-12
-3.29285e-12
2.19524e-12
-3.29285e-12
9.87856e-12
-4.39047e-12
-2.19523e-12
-5.48809e-12
1.4269e-11
2.19523e-12
-1.09762e-12
3.29285e-12
1.09762e-12
-1.09762e-12
3.29285e-12
3.29285e-12
-1.09762e-12
-1.09762e-12
4.39047e-12
-1.09762e-12
0
9.87856e-12
3.29285e-12
5.48809e-12
0