/*--------------------------------*- C++ -*----------------------------------*\
  =========                 |
  \\      /  F ield         | OpenFOAM: The Open Source CFD Toolbox
   \\    /   O peration     | Website:  https://openfoam.org
    \\  /    A nd           | Version:  10
     \\/     M anipulation  |
\*---------------------------------------------------------------------------*/
FoamFile
{
    format      ascii;
    class       volScalarField;
    location    "600";
    object      T;
}
// * * * * * * * * * * * * * * * * * * * * * * * * * * * * * * * * * * * * * //

dimensions      [0 0 0 1 0 0 0];

internalField   nonuniform List<scalar> 
11250
(
249.911
167.763
139.701
127.415
120.763
116.581
113.68
111.532
109.867
108.532
107.435
106.514
105.731
105.055
104.468
103.953
103.499
103.098
102.741
102.424
102.141
101.888
101.663
101.462
101.283
101.124
100.982
100.856
100.745
100.647
100.56
100.483
100.416
100.357
100.306
100.261
100.222
100.189
100.16
100.135
100.113
100.095
100.08
100.066
100.055
100.046
100.038
100.031
100.025
100.021
100.017
100.014
100.011
100.009
100.007
100.006
100.005
100.004
100.003
100.002
100.002
100.001
100.001
100.001
100.001
100.001
100
100
100
100
100
100
100
100
100
331.707
249.205
203.328
176.614
159.826
148.468
140.295
134.122
129.28
125.37
122.138
119.418
117.096
115.091
113.344
111.811
110.459
109.261
108.197
107.249
106.403
105.649
104.976
104.376
103.841
103.364
102.94
102.564
102.231
101.936
101.676
101.447
101.246
101.07
100.916
100.782
100.666
100.565
100.479
100.404
100.34
100.285
100.238
100.199
100.165
100.137
100.113
100.093
100.076
100.062
100.051
100.041
100.033
100.027
100.022
100.017
100.014
100.011
100.009
100.007
100.006
100.004
100.003
100.003
100.002
100.002
100.001
100.001
100.001
100.001
100
100
100
100
100
359.418
294.029
247.804
215.9
193.477
177.19
164.934
155.407
147.791
141.56
136.363
131.959
128.181
124.907
122.045
119.528
117.304
115.33
113.574
112.009
110.612
109.365
108.251
107.257
106.371
105.581
104.879
104.255
103.702
103.213
102.782
102.402
102.069
101.776
101.521
101.299
101.106
100.939
100.795
100.671
100.565
100.474
100.396
100.33
100.274
100.227
100.188
100.155
100.127
100.104
100.085
100.069
100.056
100.045
100.036
100.029
100.023
100.018
100.015
100.012
100.009
100.007
100.006
100.004
100.003
100.003
100.002
100.002
100.001
100.001
100.001
100
100
100
100
371.355
319.701
277.973
245.727
221.021
201.915
186.883
174.825
164.967
156.769
149.85
143.934
138.825
134.372
130.465
127.018
123.962
121.246
118.825
116.664
114.733
113.007
111.464
110.087
108.857
107.761
106.786
105.92
105.152
104.472
103.872
103.344
102.88
102.473
102.118
101.809
101.541
101.308
101.107
100.935
100.787
100.66
100.552
100.46
100.382
100.317
100.262
100.215
100.177
100.145
100.118
100.096
100.078
100.063
100.05
100.04
100.032
100.026
100.02
100.016
100.013
100.01
100.008
100.006
100.005
100.004
100.003
100.002
100.002
100.001
100.001
100.001
100
100
100
377.663
335.459
298.684
268.044
243.005
222.613
205.914
192.104
180.551
170.774
162.41
155.186
148.896
143.38
138.515
134.205
130.373
126.957
123.905
121.176
118.734
116.549
114.593
112.845
111.283
109.89
108.65
107.548
106.57
105.704
104.94
104.267
103.675
103.157
102.704
102.31
101.967
101.671
101.414
101.194
101.005
100.843
100.705
100.588
100.489
100.405
100.334
100.275
100.226
100.185
100.151
100.122
100.099
100.08
100.064
100.052
100.041
100.033
100.026
100.021
100.016
100.013
100.01
100.008
100.006
100.005
100.004
100.003
100.002
100.002
100.001
100.001
100.001
100
100
381.507
345.804
313.287
284.802
260.393
239.678
222.126
207.205
194.445
183.458
173.93
165.61
158.302
151.848
146.125
141.031
136.485
132.419
128.778
125.515
122.589
119.967
117.617
115.514
113.634
111.956
110.46
109.13
107.95
106.904
105.98
105.167
104.451
103.824
103.276
102.799
102.384
102.025
101.714
101.447
101.218
101.022
100.855
100.713
100.592
100.491
100.405
100.334
100.274
100.224
100.183
100.149
100.12
100.097
100.078
100.063
100.05
100.04
100.032
100.025
100.02
100.016
100.012
100.01
100.007
100.006
100.004
100.003
100.003
100.002
100.001
100.001
100.001
100
100
384.077
352.985
323.893
297.533
274.148
253.654
235.792
220.239
206.673
194.799
184.362
175.15
166.985
159.723
153.244
147.45
142.257
137.597
133.412
129.652
126.274
123.241
120.519
118.08
115.897
113.947
112.207
110.659
109.284
108.065
106.988
106.038
105.204
104.472
103.832
103.274
102.789
102.369
102.006
101.694
101.426
101.196
101.001
100.835
100.694
100.575
100.475
100.391
100.321
100.263
100.214
100.174
100.141
100.114
100.092
100.073
100.059
100.047
100.037
100.029
100.023
100.018
100.014
100.011
100.009
100.007
100.005
100.004
100.003
100.002
100.002
100.001
100.001
100
100
385.902
358.189
331.81
307.345
285.084
265.084
247.248
231.401
217.333
204.835
193.712
183.791
174.922
166.976
159.843
153.431
147.661
142.464
137.783
133.567
129.77
126.355
123.285
120.531
118.062
115.854
113.883
112.127
110.566
109.182
107.958
106.879
105.929
105.096
104.368
103.733
103.181
102.702
102.289
101.933
101.627
101.365
101.142
100.953
100.792
100.656
100.542
100.446
100.366
100.3
100.245
100.199
100.161
100.13
100.105
100.084
100.067
100.053
100.042
100.034
100.027
100.021
100.016
100.013
100.01
100.008
100.006
100.005
100.003
100.003
100.002
100.001
100.001
100.001
100
387.253
362.089
337.859
315.018
293.842
274.448
256.831
240.911
226.564
213.649
202.023
191.552
182.114
173.598
165.908
158.961
152.681
147.005
141.877
137.245
133.064
129.296
125.904
122.855
120.119
117.669
115.48
113.528
111.792
110.251
108.888
107.685
106.626
105.696
104.883
104.174
103.557
103.023
102.561
102.163
101.821
101.528
101.279
101.067
100.887
100.735
100.607
100.5
100.411
100.336
100.274
100.223
100.18
100.146
100.117
100.094
100.075
100.06
100.048
100.038
100.03
100.023
100.018
100.014
100.011
100.009
100.007
100.005
100.004
100.003
100.002
100.002
100.001
100.001
100
388.283
365.087
342.573
321.099
300.911
282.145
264.846
248.993
234.522
221.345
209.362
198.474
188.583
179.599
171.441
164.034
157.31
151.211
145.683
140.676
136.148
132.057
128.368
125.047
122.063
119.387
116.994
114.858
112.957
111.268
109.773
108.453
107.29
106.269
105.376
104.596
103.918
103.33
102.821
102.383
102.007
101.685
101.41
101.176
100.978
100.811
100.67
100.552
100.453
100.371
100.302
100.246
100.199
100.161
100.129
100.104
100.083
100.066
100.053
100.042
100.033
100.026
100.02
100.016
100.012
100.009
100.007
100.006
100.004
100.003
100.002
100.002
100.001
100.001
100
389.086
367.437
346.306
325.976
306.661
288.498
271.557
255.853
241.363
228.036
215.809
204.61
194.365
185.003
176.454
168.657
161.55
155.081
149.199
143.857
139.015
134.631
130.671
127.1
123.888
121.004
118.421
116.113
114.057
112.231
110.612
109.181
107.921
106.814
105.844
104.998
104.261
103.622
103.07
102.594
102.184
101.834
101.535
101.281
101.065
100.883
100.73
100.601
100.493
100.404
100.329
100.268
100.217
100.175
100.141
100.113
100.091
100.072
100.057
100.045
100.036
100.028
100.022
100.017
100.013
100.01
100.008
100.006
100.005
100.003
100.003
100.002
100.001
100.001
100
389.724
369.31
349.3
329.925
311.37
293.763
277.185
261.674
247.231
233.835
221.449
210.024
199.506
189.84
180.971
172.845
165.411
158.62
152.427
146.788
141.665
137.018
132.812
129.014
125.591
122.515
119.758
117.291
115.092
113.136
111.402
109.869
108.517
107.329
106.288
105.379
104.587
103.9
103.306
102.793
102.353
101.976
101.654
101.38
101.148
100.952
100.787
100.648
100.532
100.436
100.355
100.289
100.234
100.189
100.152
100.122
100.098
100.078
100.062
100.049
100.039
100.03
100.024
100.019
100.014
100.011
100.009
100.007
100.005
100.004
100.003
100.002
100.001
100.001
100
390.236
370.82
351.728
333.152
315.251
298.144
281.916
266.614
252.259
238.85
226.367
214.782
204.056
194.15
185.018
176.618
168.905
161.837
155.373
149.474
144.1
139.217
134.79
130.786
127.173
123.922
121.004
118.391
116.06
113.985
112.143
110.514
109.077
107.813
106.705
105.737
104.894
104.162
103.529
102.982
102.513
102.11
101.767
101.475
101.227
101.017
100.841
100.693
100.569
100.466
100.38
100.309
100.25
100.202
100.163
100.131
100.105
100.083
100.066
100.052
100.041
100.033
100.025
100.02
100.015
100.012
100.009
100.007
100.005
100.004
100.003
100.002
100.001
100.001
100
390.653
372.049
353.714
335.807
318.467
301.803
285.899
270.809
256.565
243.177
230.644
218.949
208.068
197.972
188.628
180
172.052
164.747
158.049
151.92
146.327
141.234
136.609
132.419
128.634
125.223
122.159
119.413
116.96
114.775
112.835
111.117
109.6
108.266
107.096
106.073
105.182
104.408
103.738
103.16
102.663
102.237
101.873
101.564
101.301
101.079
100.892
100.735
100.604
100.494
100.403
100.328
100.266
100.215
100.173
100.139
100.111
100.088
100.07
100.056
100.044
100.035
100.027
100.021
100.016
100.013
100.01
100.008
100.006
100.004
100.003
100.002
100.001
100.001
100
390.994
373.059
355.349
338.004
321.143
304.869
289.26
274.374
260.249
246.907
234.355
222.587
211.592
201.349
191.834
183.019
174.873
167.367
160.466
154.138
148.352
143.074
138.272
133.917
129.976
126.422
123.225
120.357
117.793
115.508
113.476
111.677
110.088
108.689
107.461
106.387
105.451
104.638
103.934
103.326
102.804
102.356
101.973
101.647
101.371
101.137
100.94
100.775
100.636
100.521
100.425
100.346
100.28
100.226
100.182
100.146
100.117
100.093
100.074
100.059
100.046
100.036
100.029
100.022
100.017
100.013
100.01
100.008
100.006
100.005
100.003
100.002
100.002
100.001
100
391.276
373.893
356.704
339.831
323.38
307.444
292.1
277.405
263.402
250.118
237.568
225.757
214.679
204.322
194.67
185.701
177.391
169.713
162.639
156.14
150.184
144.743
139.786
135.283
131.204
127.52
124.203
121.225
118.561
116.183
114.069
112.195
110.539
109.08
107.799
106.679
105.702
104.852
104.117
103.482
102.935
102.466
102.066
101.725
101.436
101.191
100.985
100.812
100.667
100.546
100.446
100.362
100.294
100.237
100.191
100.154
100.123
100.098
100.078
100.062
100.049
100.038
100.03
100.023
100.018
100.014
100.011
100.008
100.006
100.005
100.003
100.002
100.002
100.001
100
391.509
374.585
357.832
341.356
325.254
309.613
294.503
279.983
266.098
252.879
240.347
228.511
217.375
206.931
197.171
188.076
179.629
171.807
164.585
157.937
151.835
146.251
141.157
136.523
132.32
128.521
125.097
122.02
119.264
116.804
114.614
112.672
110.955
109.441
108.112
106.949
105.933
105.051
104.286
103.625
103.057
102.569
102.153
101.798
101.496
101.242
101.027
100.846
100.695
100.569
100.465
100.378
100.307
100.248
100.2
100.16
100.128
100.102
100.081
100.064
100.051
100.04
100.031
100.024
100.019
100.015
100.011
100.009
100.007
100.005
100.004
100.003
100.002
100.001
100
391.704
375.163
358.774
342.633
326.829
311.442
296.539
282.178
268.404
255.251
242.745
230.9
219.724
209.215
199.368
190.172
181.611
173.668
166.32
159.545
153.316
147.608
142.393
137.644
133.332
129.43
125.909
122.743
119.906
117.371
115.113
113.109
111.336
109.773
108.4
107.197
106.147
105.234
104.442
103.758
103.17
102.665
102.233
101.865
101.553
101.288
101.066
100.879
100.722
100.591
100.483
100.393
100.318
100.257
100.207
100.166
100.133
100.106
100.084
100.067
100.053
100.041
100.033
100.025
100.02
100.015
100.012
100.009
100.007
100.005
100.004
100.003
100.002
100.001
100
391.866
375.646
359.563
343.705
328.155
312.986
298.264
284.045
270.374
257.287
244.813
232.968
221.765
211.207
201.293
192.014
183.36
175.315
167.861
160.977
154.639
148.823
143.503
138.652
134.244
130.251
126.645
123.4
120.489
117.886
115.567
113.508
111.685
110.077
108.663
107.424
106.343
105.402
104.586
103.881
103.273
102.752
102.307
101.927
101.605
101.332
101.102
100.908
100.746
100.611
100.499
100.406
100.329
100.266
100.214
100.172
100.138
100.11
100.087
100.069
100.055
100.043
100.034
100.026
100.02
100.016
100.012
100.009
100.007
100.005
100.004
100.003
100.002
100.001
100
392.003
376.051
360.225
344.607
329.273
314.292
299.728
285.634
272.057
259.033
246.592
234.755
223.535
212.941
202.974
193.629
184.898
176.768
169.224
162.247
155.815
149.906
144.495
139.556
135.063
130.989
127.308
123.992
121.016
118.353
115.979
113.87
112.002
110.353
108.903
107.632
106.522
105.555
104.717
103.993
103.369
102.833
102.375
101.984
101.652
101.371
101.135
100.936
100.769
100.63
100.514
100.419
100.339
100.274
100.221
100.178
100.142
100.113
100.09
100.071
100.056
100.044
100.035
100.027
100.021
100.016
100.013
100.01
100.007
100.006
100.004
100.003
100.002
100.001
100
392.117
376.391
360.782
345.366
330.216
315.397
300.97
286.987
273.493
260.528
248.121
236.295
225.067
214.447
204.438
195.04
186.246
178.046
170.426
163.37
156.858
150.868
145.378
140.362
135.795
131.651
127.903
124.525
121.49
118.774
116.351
114.197
112.289
110.603
109.121
107.82
106.684
105.695
104.837
104.095
103.455
102.906
102.437
102.036
101.696
101.408
101.165
100.961
100.79
100.647
100.528
100.43
100.349
100.282
100.227
100.182
100.146
100.116
100.093
100.073
100.058
100.046
100.036
100.028
100.022
100.017
100.013
100.01
100.008
100.006
100.004
100.003
100.002
100.001
100
392.213
376.677
361.251
346.007
331.013
316.332
302.023
288.137
274.719
261.807
249.433
237.621
226.39
215.751
205.71
196.269
187.423
179.165
171.482
164.359
157.779
151.72
146.161
141.078
136.447
132.241
128.434
125.001
121.916
119.152
116.686
114.492
112.547
110.829
109.317
107.991
106.832
105.822
104.945
104.187
103.534
102.973
102.493
102.084
101.736
101.441
101.193
100.984
100.809
100.663
100.541
100.44
100.357
100.289
100.233
100.187
100.15
100.119
100.095
100.075
100.059
100.047
100.037
100.029
100.022
100.017
100.013
100.01
100.008
100.006
100.004
100.003
100.002
100.001
100
392.294
376.917
361.645
346.547
331.686
317.123
302.916
289.114
275.763
262.9
250.557
238.761
227.53
216.878
206.813
197.337
188.449
180.142
172.406
165.227
158.588
152.471
146.853
141.712
137.025
132.765
128.907
125.426
122.296
119.491
116.985
114.756
112.779
111.032
109.494
108.144
106.964
105.936
105.043
104.271
103.605
103.034
102.544
102.127
101.772
101.471
101.218
101.004
100.826
100.677
100.553
100.45
100.365
100.295
100.238
100.191
100.153
100.122
100.097
100.077
100.061
100.048
100.037
100.029
100.023
100.018
100.014
100.01
100.008
100.006
100.004
100.003
100.002
100.001
100
392.362
377.12
361.978
347.002
332.254
317.793
303.673
289.945
276.652
263.832
251.519
239.738
228.51
217.849
207.765
198.263
189.34
180.993
173.213
165.986
159.298
153.13
147.462
142.272
137.535
133.229
129.327
125.803
122.634
119.792
117.252
114.992
112.987
111.214
109.653
108.282
107.084
106.039
105.132
104.347
103.67
103.088
102.59
102.165
101.804
101.498
101.24
101.023
100.841
100.69
100.563
100.459
100.372
100.301
100.242
100.195
100.156
100.124
100.099
100.078
100.062
100.049
100.038
100.03
100.023
100.018
100.014
100.011
100.008
100.006
100.004
100.003
100.002
100.001
100
392.419
377.291
362.258
347.386
332.734
318.359
304.315
290.65
277.408
264.627
252.34
240.574
229.35
218.684
208.587
199.062
190.112
181.732
173.915
166.648
159.918
153.707
147.996
142.763
137.985
133.638
129.697
126.137
122.933
120.058
117.49
115.202
113.171
111.376
109.794
108.405
107.19
106.131
105.211
104.414
103.727
103.137
102.631
102.2
101.834
101.523
101.261
101.04
100.855
100.701
100.573
100.466
100.378
100.306
100.247
100.198
100.159
100.127
100.101
100.08
100.063
100.05
100.039
100.03
100.024
100.018
100.014
100.011
100.008
100.006
100.005
100.003
100.002
100.001
100
392.468
377.434
362.495
347.71
333.139
318.837
304.857
291.247
278.05
265.303
253.041
241.289
230.07
219.401
209.293
199.751
190.778
182.371
174.523
167.223
160.458
154.211
148.463
143.193
138.379
133.997
130.023
126.431
123.197
120.294
117.699
115.388
113.335
111.52
109.92
108.515
107.285
106.213
105.281
104.474
103.779
103.181
102.669
102.231
101.86
101.545
101.279
101.056
100.868
100.712
100.581
100.473
100.384
100.311
100.25
100.201
100.161
100.128
100.102
100.081
100.064
100.05
100.039
100.031
100.024
100.019
100.014
100.011
100.008
100.006
100.005
100.003
100.002
100.001
100
392.508
377.555
362.693
347.983
333.48
319.241
305.316
291.753
278.594
265.878
253.636
241.898
230.685
220.015
209.898
200.343
191.352
182.923
175.049
167.721
160.926
154.648
148.869
143.568
138.723
134.311
130.308
126.689
123.428
120.502
117.884
115.551
113.48
111.647
110.031
108.612
107.369
106.285
105.344
104.528
103.825
103.22
102.702
102.259
101.883
101.565
101.296
101.069
100.879
100.721
100.589
100.48
100.389
100.315
100.254
100.204
100.163
100.13
100.104
100.082
100.065
100.051
100.04
100.031
100.024
100.019
100.015
100.011
100.008
100.006
100.005
100.003
100.002
100.001
100
392.542
377.657
362.861
348.212
333.768
319.582
305.703
292.18
279.055
266.365
254.143
242.417
231.209
220.539
210.416
200.851
191.845
183.397
175.502
168.151
161.331
155.027
149.222
143.894
139.023
134.585
130.557
126.914
123.631
120.684
118.046
115.695
113.607
111.759
110.129
108.697
107.443
106.35
105.399
104.576
103.865
103.254
102.731
102.284
101.904
101.582
101.31
101.081
100.889
100.729
100.596
100.485
100.394
100.319
100.257
100.206
100.165
100.132
100.105
100.083
100.066
100.052
100.041
100.032
100.025
100.019
100.015
100.011
100.009
100.006
100.005
100.003
100.002
100.001
100
392.571
377.742
363.001
348.405
334.01
319.868
306.03
292.541
279.445
266.777
254.572
242.857
231.655
220.985
210.859
201.285
192.267
183.804
175.892
168.521
161.68
155.355
149.526
144.176
139.283
134.823
130.774
127.111
123.809
120.843
118.188
115.821
113.719
111.857
110.215
108.772
107.509
106.406
105.448
104.618
103.901
103.285
102.757
102.306
101.923
101.597
101.323
101.092
100.898
100.737
100.602
100.49
100.398
100.322
100.259
100.208
100.167
100.133
100.106
100.084
100.066
100.052
100.041
100.032
100.025
100.019
100.015
100.011
100.009
100.007
100.005
100.003
100.002
100.001
100
392.595
377.814
363.119
348.568
334.214
320.11
306.305
292.846
279.773
267.125
254.935
243.23
232.034
221.364
211.235
201.655
192.627
184.153
176.226
168.839
161.981
155.636
149.789
144.42
139.508
135.029
130.962
127.281
123.962
120.981
118.312
115.931
113.816
111.943
110.291
108.838
107.566
106.456
105.491
104.654
103.932
103.312
102.78
102.325
101.939
101.611
101.334
101.102
100.906
100.743
100.607
100.495
100.401
100.325
100.262
100.21
100.168
100.134
100.107
100.085
100.067
100.053
100.041
100.032
100.025
100.02
100.015
100.012
100.009
100.007
100.005
100.003
100.002
100.001
100
392.615
377.874
363.218
348.703
334.384
320.312
306.536
293.102
280.05
267.419
255.241
243.545
232.354
221.686
211.555
201.97
192.934
184.449
176.511
169.111
162.238
155.878
150.015
144.63
139.701
135.207
131.124
127.429
124.096
121.1
118.419
116.027
113.901
112.018
110.356
108.895
107.616
106.499
105.528
104.687
103.96
103.335
102.8
102.342
101.953
101.623
101.344
101.11
100.913
100.749
100.612
100.498
100.405
100.327
100.264
100.212
100.17
100.136
100.108
100.085
100.068
100.053
100.042
100.033
100.025
100.02
100.015
100.012
100.009
100.007
100.005
100.004
100.002
100.001
100
392.632
377.924
363.301
348.817
334.527
320.482
306.73
293.317
280.283
267.666
255.5
243.811
232.625
221.958
211.826
202.236
193.195
184.702
176.754
169.342
162.457
156.085
150.209
144.81
139.867
135.36
131.264
127.556
124.21
121.204
118.512
116.109
113.974
112.082
110.413
108.945
107.659
106.537
105.561
104.715
103.984
103.356
102.817
102.357
101.966
101.634
101.353
101.117
100.919
100.754
100.616
100.502
100.407
100.33
100.266
100.214
100.171
100.137
100.109
100.086
100.068
100.054
100.042
100.033
100.026
100.02
100.015
100.012
100.009
100.007
100.005
100.004
100.002
100.001
100
392.646
377.966
363.37
348.913
334.647
320.624
306.893
293.497
280.478
267.874
255.717
244.035
232.853
222.188
212.054
202.462
193.416
184.916
176.96
169.539
162.644
156.261
150.374
144.963
140.01
135.491
131.384
127.665
124.309
121.293
118.591
116.181
114.037
112.138
110.462
108.988
107.697
106.57
105.589
104.739
104.005
103.374
102.832
102.37
101.976
101.643
101.361
101.124
100.925
100.758
100.62
100.505
100.41
100.332
100.267
100.215
100.172
100.137
100.109
100.087
100.068
100.054
100.042
100.033
100.026
100.02
100.015
100.012
100.009
100.007
100.005
100.004
100.002
100.001
100
392.658
378.001
363.428
348.992
334.747
320.743
307.028
293.648
280.642
268.048
255.899
244.223
233.044
222.381
212.247
202.652
193.602
185.097
177.134
169.706
162.803
156.411
150.514
145.094
140.131
135.603
131.486
127.758
124.394
121.369
118.66
116.242
114.092
112.186
110.505
109.026
107.73
106.598
105.613
104.76
104.023
103.389
102.845
102.381
101.986
101.651
101.368
101.129
100.929
100.762
100.623
100.507
100.412
100.333
100.269
100.216
100.173
100.138
100.11
100.087
100.069
100.054
100.043
100.033
100.026
100.02
100.015
100.012
100.009
100.007
100.005
100.004
100.002
100.001
100
392.667
378.03
363.476
349.058
334.83
320.842
307.142
293.773
280.778
268.194
256.052
244.381
233.205
222.543
212.409
202.813
193.759
185.25
177.282
169.847
162.937
156.538
150.633
145.205
140.234
135.698
131.573
127.838
124.466
121.434
118.718
116.294
114.138
112.228
110.541
109.058
107.757
106.622
105.634
104.778
104.039
103.402
102.857
102.391
101.994
101.658
101.373
101.134
100.933
100.765
100.626
100.51
100.414
100.335
100.27
100.217
100.174
100.139
100.11
100.088
100.069
100.054
100.043
100.033
100.026
100.02
100.016
100.012
100.009
100.007
100.005
100.004
100.002
100.001
100
392.676
378.054
363.516
349.113
334.899
320.924
307.236
293.878
280.892
268.315
256.179
244.513
233.339
222.679
212.545
202.947
193.891
185.378
177.406
169.966
163.05
156.645
150.734
145.299
140.321
135.778
131.647
127.905
124.527
121.49
118.768
116.339
114.178
112.263
110.572
109.085
107.781
106.643
105.653
104.794
104.052
103.414
102.867
102.399
102.001
101.664
101.378
101.138
100.937
100.768
100.628
100.512
100.415
100.336
100.271
100.218
100.175
100.139
100.111
100.088
100.069
100.055
100.043
100.034
100.026
100.02
100.016
100.012
100.009
100.007
100.005
100.004
100.002
100.001
100
392.682
378.074
363.549
349.159
334.957
320.993
307.314
293.965
280.987
268.416
256.285
244.622
233.452
222.792
212.658
203.059
194.002
185.486
177.51
170.066
163.146
156.735
150.819
145.379
140.395
135.846
131.71
127.962
124.58
121.537
118.811
116.377
114.212
112.293
110.599
109.108
107.802
106.661
105.668
104.807
104.064
103.424
102.875
102.406
102.007
101.669
101.383
101.142
100.94
100.771
100.63
100.513
100.417
100.337
100.272
100.219
100.175
100.14
100.111
100.088
100.07
100.055
100.043
100.034
100.026
100.02
100.016
100.012
100.009
100.007
100.005
100.004
100.002
100.001
100
392.688
378.091
363.576
349.196
335.004
321.049
307.379
294.037
281.065
268.5
256.373
244.713
233.545
222.886
212.752
203.153
194.094
185.576
177.597
170.15
163.225
156.811
150.89
145.445
140.457
135.904
131.763
128.011
124.624
121.577
118.847
116.409
114.241
112.319
110.621
109.128
107.819
106.676
105.681
104.819
104.073
103.432
102.882
102.412
102.012
101.673
101.386
101.145
100.942
100.773
100.632
100.515
100.418
100.338
100.273
100.219
100.176
100.14
100.112
100.088
100.07
100.055
100.043
100.034
100.026
100.02
100.016
100.012
100.009
100.007
100.005
100.004
100.002
100.001
100
392.692
378.105
363.599
349.228
335.044
321.096
307.433
294.097
281.13
268.569
256.446
244.789
233.622
222.965
212.831
203.231
194.171
185.651
177.669
170.22
163.292
156.874
150.949
145.501
140.509
135.952
131.807
128.051
124.661
121.61
118.877
116.436
114.265
112.34
110.64
109.145
107.834
106.689
105.692
104.828
104.082
103.439
102.888
102.417
102.017
101.677
101.389
101.147
100.944
100.775
100.633
100.516
100.419
100.339
100.273
100.22
100.176
100.141
100.112
100.089
100.07
100.055
100.043
100.034
100.026
100.02
100.016
100.012
100.009
100.007
100.005
100.004
100.002
100.001
100
392.696
378.116
363.617
349.253
335.076
321.135
307.477
294.146
281.184
268.627
256.506
244.852
233.686
223.03
212.896
203.296
194.234
185.713
177.73
170.278
163.348
156.927
150.999
145.548
140.553
135.992
131.844
128.085
124.692
121.639
118.902
116.459
114.285
112.358
110.656
109.159
107.846
106.7
105.702
104.836
104.089
103.445
102.893
102.422
102.02
101.68
101.392
101.15
100.946
100.776
100.635
100.517
100.42
100.34
100.274
100.22
100.176
100.141
100.112
100.089
100.07
100.055
100.043
100.034
100.026
100.02
100.016
100.012
100.009
100.007
100.005
100.004
100.002
100.001
100
392.699
378.125
363.633
349.274
335.103
321.166
307.513
294.187
281.228
268.674
256.556
244.903
233.739
223.083
212.95
203.349
194.287
185.765
177.78
170.326
163.394
156.97
151.041
145.587
140.589
136.026
131.875
128.114
124.718
121.662
118.924
116.478
114.302
112.373
110.67
109.171
107.857
106.709
105.71
104.843
104.095
103.45
102.898
102.426
102.024
101.682
101.394
101.151
100.948
100.777
100.636
100.518
100.421
100.34
100.275
100.221
100.177
100.141
100.112
100.089
100.07
100.055
100.043
100.034
100.026
100.021
100.016
100.012
100.009
100.007
100.005
100.004
100.002
100.001
100
392.702
378.133
363.645
349.292
335.124
321.192
307.543
294.22
281.265
268.713
256.597
244.946
233.783
223.128
212.994
203.394
194.331
185.807
177.821
170.366
163.432
157.007
151.075
145.619
140.619
136.054
131.901
128.138
124.739
121.682
118.941
116.494
114.317
112.386
110.681
109.181
107.866
106.716
105.716
104.849
104.1
103.455
102.901
102.429
102.026
101.685
101.396
101.153
100.949
100.779
100.637
100.519
100.421
100.341
100.275
100.221
100.177
100.141
100.112
100.089
100.07
100.055
100.044
100.034
100.027
100.021
100.016
100.012
100.009
100.007
100.005
100.004
100.002
100.001
100
392.704
378.139
363.655
349.306
335.142
321.214
307.568
294.248
281.294
268.744
256.63
244.981
233.819
223.164
213.031
203.43
194.367
185.843
177.855
170.399
163.464
157.037
151.103
145.646
140.644
136.077
131.923
128.157
124.757
121.698
118.956
116.507
114.328
112.397
110.691
109.189
107.873
106.723
105.722
104.854
104.104
103.458
102.905
102.431
102.028
101.687
101.398
101.154
100.95
100.78
100.637
100.519
100.422
100.341
100.275
100.221
100.177
100.142
100.113
100.089
100.071
100.056
100.044
100.034
100.027
100.021
100.016
100.012
100.009
100.007
100.005
100.004
100.002
100.001
100
392.706
378.144
363.664
349.318
335.157
321.231
307.588
294.27
281.319
268.77
256.658
245.009
233.848
223.194
213.061
203.46
194.396
185.871
177.883
170.426
163.489
157.062
151.127
145.668
140.664
136.096
131.94
128.173
124.772
121.712
118.968
116.518
114.338
112.406
110.699
109.196
107.879
106.728
105.727
104.858
104.107
103.461
102.907
102.434
102.03
101.688
101.399
101.155
100.951
100.78
100.638
100.52
100.422
100.342
100.276
100.222
100.177
100.142
100.113
100.089
100.071
100.056
100.044
100.034
100.027
100.021
100.016
100.012
100.009
100.007
100.005
100.004
100.002
100.001
100
392.707
378.148
363.671
349.327
335.169
321.245
307.604
294.288
281.338
268.792
256.68
245.032
233.872
223.218
213.085
203.484
194.42
185.895
177.906
170.448
163.511
157.082
151.146
145.686
140.681
136.112
131.955
128.187
124.784
121.723
118.978
116.527
114.347
112.413
110.705
109.202
107.884
106.733
105.73
104.861
104.11
103.464
102.909
102.435
102.032
101.689
101.4
101.156
100.952
100.781
100.638
100.52
100.423
100.342
100.276
100.222
100.178
100.142
100.113
100.089
100.071
100.056
100.044
100.034
100.027
100.021
100.016
100.012
100.009
100.007
100.005
100.004
100.002
100.001
100
392.708
378.152
363.676
349.335
335.178
321.257
307.617
294.303
281.355
268.809
256.698
245.051
233.891
223.238
213.105
203.504
194.44
185.914
177.925
170.466
163.528
157.098
151.162
145.701
140.695
136.125
131.967
128.198
124.794
121.732
118.987
116.535
114.353
112.419
110.71
109.207
107.888
106.736
105.734
104.864
104.113
103.466
102.911
102.437
102.033
101.691
101.401
101.157
100.953
100.781
100.639
100.521
100.423
100.342
100.276
100.222
100.178
100.142
100.113
100.09
100.071
100.056
100.044
100.034
100.027
100.021
100.016
100.012
100.009
100.007
100.005
100.004
100.002
100.001
100
392.709
378.154
363.681
349.341
335.186
321.266
307.628
294.315
281.368
268.823
256.713
245.067
233.907
223.254
213.121
203.52
194.456
185.93
177.94
170.481
163.542
157.112
151.175
145.713
140.707
136.135
131.977
128.207
124.803
121.74
118.994
116.541
114.359
112.424
110.715
109.211
107.892
106.739
105.736
104.866
104.115
103.468
102.912
102.438
102.034
101.691
101.402
101.158
100.953
100.782
100.639
100.521
100.423
100.342
100.276
100.222
100.178
100.142
100.113
100.09
100.071
100.056
100.044
100.034
100.027
100.021
100.016
100.012
100.009
100.007
100.005
100.004
100.002
100.001
100
392.71
378.157
363.684
349.346
335.192
321.274
307.636
294.324
281.378
268.834
256.725
245.079
233.92
223.267
213.135
203.533
194.469
185.943
177.953
170.493
163.554
157.123
151.185
145.723
140.716
136.144
131.985
128.214
124.809
121.746
118.999
116.546
114.363
112.428
110.718
109.214
107.894
106.742
105.738
104.868
104.116
103.469
102.914
102.439
102.035
101.692
101.402
101.158
100.954
100.782
100.64
100.521
100.423
100.343
100.276
100.222
100.178
100.142
100.113
100.09
100.071
100.056
100.044
100.034
100.027
100.021
100.016
100.012
100.009
100.007
100.005
100.004
100.002
100.001
100
392.71
378.158
363.687
349.35
335.197
321.28
307.643
294.332
281.387
268.843
256.735
245.089
233.93
223.277
213.145
203.544
194.479
185.953
177.963
170.503
163.563
157.132
151.194
145.731
140.723
136.151
131.991
128.22
124.815
121.751
119.004
116.55
114.367
112.431
110.721
109.216
107.897
106.744
105.74
104.87
104.118
103.47
102.915
102.44
102.036
101.693
101.403
101.159
100.954
100.783
100.64
100.521
100.423
100.343
100.276
100.222
100.178
100.142
100.113
100.09
100.071
100.056
100.044
100.034
100.027
100.021
100.016
100.012
100.009
100.007
100.005
100.004
100.002
100.001
100
392.711
378.16
363.69
349.353
335.202
321.285
307.649
294.338
281.393
268.851
256.743
245.097
233.939
223.286
213.154
203.552
194.488
185.961
177.971
170.511
163.571
157.139
151.2
145.737
140.729
136.157
131.996
128.225
124.819
121.755
119.007
116.554
114.37
112.434
110.724
109.218
107.899
106.745
105.742
104.871
104.119
103.471
102.915
102.441
102.036
101.693
101.403
101.159
100.954
100.783
100.64
100.522
100.424
100.343
100.277
100.222
100.178
100.142
100.113
100.09
100.071
100.056
100.044
100.034
100.027
100.021
100.016
100.012
100.009