/*--------------------------------*- C++ -*----------------------------------*\
  =========                 |
  \\      /  F ield         | OpenFOAM: The Open Source CFD Toolbox
   \\    /   O peration     | Website:  https://openfoam.org
    \\  /    A nd           | Version:  10
     \\/     M anipulation  |
\*---------------------------------------------------------------------------*/
FoamFile
{
    format      ascii;
    class       volScalarField;
    location    "90";
    object      gradTz;
}
// * * * * * * * * * * * * * * * * * * * * * * * * * * * * * * * * * * * * * //

dimensions      [0 -1 0 1 0 0 0];

internalField   nonuniform List<scalar> 
11250
(
-14412.1
-4204.67
-1578.73
-767.306
-453.161
-301.258
-213.472
-156.08
-115.534
-85.5952
-63.011
-45.8725
-32.9214
-23.241
-16.1151
-10.964
-7.31407
-4.78185
-3.06302
-1.92195
-1.18124
-0.7111
-0.419313
-0.242212
-0.137073
-0.0760095
-0.0413062
-0.0220023
-0.0114897
-0.00588329
-0.00295457
-0.00145553
-0.000703549
-0.000333738
-0.0001554
-7.10432e-05
-3.18947e-05
-1.40647e-05
-6.0933e-06
-2.59405e-06
-1.08542e-06
-4.46499e-07
-1.80605e-07
-7.18413e-08
-2.81067e-08
-1.08093e-08
-4.09411e-09
-1.5191e-09
-5.5759e-10
-2.08547e-10
-8.34189e-11
-2.08547e-11
-2.19523e-12
-1.4269e-11
0
0
0
0
0
0
0
0
-2.08547e-11
-1.09762e-12
2.19523e-11
1.09762e-12
-1.09762e-12
0
1.09762e-12
-1.09762e-12
0
-5.48809e-12
-1.09762e-12
6.5857e-12
0
-8439.54
-5028.43
-2918.26
-1802.02
-1195.55
-838.912
-610.157
-452.255
-337.408
-251.192
-185.508
-135.35
-97.2913
-68.7637
-47.7227
-32.4908
-21.6864
-14.1845
-9.08916
-5.70487
-3.50712
-2.11171
-1.24543
-0.719525
-0.40725
-0.225855
-0.122751
-0.0653909
-0.0341503
-0.017488
-0.00878307
-0.00432714
-0.0020917
-0.000992281
-0.000462063
-0.000211249
-9.48438e-05
-4.18253e-05
-1.81209e-05
-7.71477e-06
-3.22819e-06
-1.32796e-06
-5.37174e-07
-2.13693e-07
-8.35935e-08
-3.21679e-08
-1.21989e-08
-4.53206e-09
-1.66618e-09
-6.16861e-10
-2.19523e-10
-7.57356e-11
-1.75619e-11
0
0
0
-2.19523e-12
0
5.48809e-12
-1.09762e-12
-3.29285e-12
1.09762e-12
1.09762e-12
8.78094e-12
-1.09762e-12
-1.20738e-11
1.09762e-12
2.19523e-12
-1.09762e-12
-4.39047e-12
1.09762e-12
4.39047e-12
0
-8.78094e-12
8.78094e-12
-5865.13
-4539.28
-3253.66
-2319.19
-1683.1
-1246.47
-936.379
-707.948
-534.852
-401.497
-298.195
-218.442
-157.477
-111.545
-77.5427
-52.8619
-35.3198
-23.1212
-14.8257
-9.31077
-5.7266
-3.44951
-2.03514
-1.17611
-0.665851
-0.369356
-0.200782
-0.106979
-0.0558784
-0.0286189
-0.0143752
-0.00708307
-0.00342426
-0.00162459
-0.000756574
-0.000345925
-0.000155321
-6.85004e-05
-2.968e-05
-1.26367e-05
-5.28809e-06
-2.17546e-06
-8.80016e-07
-3.50083e-07
-1.36988e-07
-5.2735e-08
-1.9969e-08
-7.43965e-09
-2.74075e-09
-1.01969e-09
-3.76483e-10
-1.07567e-10
-9.87856e-12
-1.31714e-11
-1.53666e-11
-2.19523e-12
6.58571e-12
9.87856e-12
0
5.48809e-12
0
0
1.09762e-12
5.48809e-12
-1.09762e-12
-5.48809e-12
0
0
0
-1.09762e-11
0
1.20738e-11
1.09762e-12
-1.09762e-12
-1.09762e-12
-4595.36
-3990.27
-3221.2
-2525.24
-1962.97
-1523.87
-1181.58
-912.52
-699.441
-530.341
-396.702
-292.11
-211.397
-150.176
-104.634
-71.4579
-47.813
-31.3358
-20.1123
-12.6409
-7.77998
-4.68906
-2.76779
-1.60019
-0.906276
-0.502885
-0.273447
-0.145732
-0.0761379
-0.039003
-0.0195948
-0.0096565
-0.00466908
-0.00221549
-0.00103189
-0.000471862
-0.000211891
-9.34588e-05
-4.04979e-05
-1.72442e-05
-7.21681e-06
-2.96913e-06
-1.20114e-06
-4.77874e-07
-1.87005e-07
-7.20092e-08
-2.72835e-08
-1.01694e-08
-3.75605e-09
-1.36214e-09
-4.84049e-10
-1.60252e-10
-2.85381e-11
-1.09762e-11
-1.09762e-11
0
3.29285e-12
1.09762e-12
-2.19523e-12
0
-1.09762e-12
0
-1.20738e-11
-1.09762e-12
1.4269e-11
1.09762e-12
0
0
-2.19524e-12
0
8.78094e-12
1.09762e-12
-9.87856e-12
0
0
-3901.71
-3578.43
-3092.81
-2580.18
-2108.41
-1699.53
-1354.43
-1066.87
-829.462
-635.46
-478.963
-354.696
-257.804
-183.758
-128.369
-87.8512
-58.8816
-38.6436
-24.8312
-15.6218
-9.62245
-5.80357
-3.4277
-1.98274
-1.12344
-0.623638
-0.339227
-0.180846
-0.0945096
-0.0484266
-0.0243346
-0.0119949
-0.00580081
-0.00275298
-0.00128244
-0.00058652
-0.000263415
-0.000116199
-5.03579e-05
-2.14451e-05
-8.97588e-06
-3.69323e-06
-1.49418e-06
-5.94508e-07
-2.32699e-07
-8.95985e-08
-3.39416e-08
-1.26709e-08
-4.66268e-09
-1.69143e-09
-6.02592e-10
-2.00864e-10
-5.1588e-11
-5.48809e-12
0
0
-5.48809e-12
0
1.20738e-11
0
-8.78094e-12
0
2.19523e-12
1.09762e-12
5.48809e-12
-2.19523e-12
-4.39047e-12
1.09762e-12
2.19523e-12
-5.48809e-12
-2.19523e-12
4.39047e-12
0
-5.48809e-12
5.48809e-12
-3495.28
-3295.49
-2962.99
-2572.56
-2176.94
-1805.26
-1470.83
-1178.24
-927.801
-717.694
-544.94
-405.848
-296.286
-211.922
-148.455
-101.825
-68.3728
-44.9405
-28.9139
-18.2097
-11.2267
-6.77636
-4.00493
-2.31799
-1.31407
-0.729789
-0.397126
-0.211788
-0.110715
-0.0567468
-0.0285231
-0.0140627
-0.00680233
-0.00322893
-0.00150443
-0.000688164
-0.000309113
-0.000136378
-5.9111e-05
-2.51759e-05
-1.05387e-05
-4.33675e-06
-1.75473e-06
-6.98274e-07
-2.73327e-07
-1.05269e-07
-3.98808e-08
-1.48475e-08
-5.45406e-09
-1.98449e-09
-7.15647e-10
-2.51354e-10
-6.69547e-11
-6.58571e-12
2.19524e-12
0
-5.48809e-12
-6.58571e-12
6.5857e-12
4.39047e-12
-1.09762e-12
0
4.39047e-12
0
-5.48809e-12
1.09762e-12
0
0
0
-1.09762e-11
-2.19523e-12
4.39047e-12
1.09762e-12
4.39047e-12
3.29285e-12
-3246.19
-3105.95
-2857.65
-2544.62
-2205.06
-1866.51
-1546.66
-1255.89
-999.599
-779.772
-596.013
-446.218
-327.121
-234.764
-164.905
-113.361
-76.2591
-50.2012
-32.3405
-20.3901
-12.5828
-7.60106
-4.49551
-2.60354
-1.47675
-0.820525
-0.446692
-0.238313
-0.124624
-0.0638955
-0.0321253
-0.0158428
-0.00766516
-0.00363929
-0.00169596
-0.000775916
-0.00034859
-0.000153819
-6.66806e-05
-2.84038e-05
-1.18915e-05
-4.89405e-06
-1.98047e-06
-7.88165e-07
-3.08533e-07
-1.18828e-07
-4.5044e-08
-1.68034e-08
-6.16093e-09
-2.22487e-09
-7.9248e-10
-2.74404e-10
-8.01261e-11
-6.58571e-12
3.29285e-12
0
-2.19524e-12
0
2.19523e-12
2.19524e-12
0
1.09762e-12
-1.09762e-12
-1.09762e-12
1.09762e-12
-1.09762e-12
0
0
0
0
0
-4.39047e-12
-1.09762e-12
0
5.48809e-12
-3089.35
-2980.03
-2779.25
-2514.36
-2213.53
-1900.87
-1594.87
-1308.61
-1050.52
-825.224
-634.328
-477.087
-351.061
-252.717
-177.965
-122.595
-82.6161
-54.4666
-35.1325
-22.1742
-13.6965
-8.2805
-4.9008
-2.84
-1.61175
-0.89597
-0.487975
-0.260438
-0.136242
-0.069874
-0.0351412
-0.0173347
-0.00838899
-0.00398383
-0.0018569
-0.000849708
-0.000381809
-0.000168505
-7.30582e-05
-3.11249e-05
-1.30325e-05
-5.36432e-06
-2.17107e-06
-8.64152e-07
-3.38288e-07
-1.30288e-07
-4.93994e-08
-1.84191e-08
-6.75693e-09
-2.43122e-09
-8.53946e-10
-3.07333e-10
-9.54927e-11
-6.5857e-12
-7.68332e-12
0
-5.48809e-12
0
8.78094e-12
0
2.19523e-12
0
3.29285e-12
0
0
-1.09762e-12
0
-1.20738e-11
0
1.31714e-11
1.09762e-12
-8.78094e-12
-8.78094e-12
4.39047e-12
1.09762e-11
-2989.14
-2896.74
-2723.43
-2488.33
-2213.37
-1919.57
-1624.95
-1343.64
-1085.76
-857.629
-662.28
-500.022
-369.112
-266.42
-188.033
-129.775
-87.5936
-57.8266
-37.3432
-23.5932
-14.5857
-8.8248
-5.22642
-3.03049
-1.72076
-0.957012
-0.521438
-0.278402
-0.145689
-0.0747421
-0.0376001
-0.0185523
-0.0089804
-0.00426561
-0.00198864
-0.000910162
-0.000409044
-0.000180555
-7.82944e-05
-3.33605e-05
-1.39704e-05
-5.75113e-06
-2.32789e-06
-9.26673e-07
-3.62833e-07
-1.39748e-07
-5.29535e-08
-1.97593e-08
-7.2772e-09
-2.60245e-09
-9.1212e-10
-3.21602e-10
-9.32975e-11
-1.75619e-11
5.48809e-12
2.305e-11
-5.48809e-12
-2.41476e-11
0
1.09762e-12
1.09762e-12
-1.09762e-12
0
0
1.09762e-12
6.58571e-12
-1.09762e-12
-6.5857e-12
1.09762e-12
-1.09762e-12
0
1.09762e-12
0
-1.09762e-12
0
-2924.72
-2841.94
-2684.81
-2468.13
-2210.08
-1929.42
-1643.42
-1366.49
-1109.63
-880.193
-682.161
-516.615
-382.357
-276.592
-195.581
-135.202
-91.3832
-60.4003
-39.0455
-24.6909
-15.2763
-9.24903
-5.48101
-3.17983
-1.80642
-1.00509
-0.547847
-0.292605
-0.15317
-0.0786028
-0.0395527
-0.0195205
-0.00945116
-0.00449014
-0.00209371
-0.000958424
-0.000430805
-0.00019019
-8.24844e-05
-3.51506e-05
-1.4722e-05
-6.06126e-06
-2.45367e-06
-9.76846e-07
-3.82521e-07
-1.47362e-07
-5.58578e-08
-2.08306e-08
-7.67015e-09
-2.75941e-09
-9.61513e-10
-3.46847e-10
-1.09762e-10
-1.20738e-11
3.29285e-12
1.4269e-11
0
-1.75619e-11
0
3.29285e-12
0
9.87856e-12
0
-9.87856e-12
0
1.64643e-11
1.09762e-12
-1.64643e-11
-1.09762e-12
2.19524e-12
5.48809e-12
-2.19524e-12
-5.48809e-12
0
0
-2883.3
-2806.12
-2658.64
-2453.34
-2206.18
-1934.42
-1654.61
-1381.17
-1125.5
-895.569
-695.975
-528.328
-391.83
-283.948
-201.092
-139.196
-94.1917
-62.3193
-40.3215
-25.5175
-15.7984
-9.57093
-5.67481
-3.29383
-1.87199
-1.04197
-0.568147
-0.303543
-0.158941
-0.0815856
-0.0410635
-0.0202706
-0.00981632
-0.0046645
-0.00217539
-0.000995977
-0.000447753
-0.0001977
-8.57531e-05
-3.65482e-05
-1.53091e-05
-6.30369e-06
-2.55208e-06
-1.01613e-06
-3.97955e-07
-1.53334e-07
-5.81397e-08
-2.16911e-08
-7.96431e-09
-2.87795e-09
-1.0142e-09
-3.52335e-10
-9.98832e-11
-1.31714e-11
-4.39047e-12
2.19523e-12
-1.09762e-12
-2.19523e-12
-2.19523e-12
1.09762e-12
1.09762e-12
0
-1.09762e-12
-1.09762e-12
1.09762e-12
1.09762e-12
1.09762e-12
-1.09762e-12
0
0
1.09762e-12
-6.5857e-12
0
5.48809e-12
0
-2856.78
-2782.9
-2641.22
-2442.94
-2202.72
-1936.83
-1661.31
-1390.46
-1135.87
-905.838
-705.365
-536.407
-398.444
-289.138
-205.013
-142.061
-96.2197
-63.7132
-41.2532
-26.1238
-16.183
-9.80885
-5.81851
-3.37861
-1.92087
-1.06953
-0.58335
-0.31175
-0.16328
-0.0838317
-0.0422028
-0.020837
-0.0100924
-0.00479649
-0.0022373
-0.00102447
-0.000460623
-0.000203408
-8.82395e-05
-3.76121e-05
-1.57565e-05
-6.48857e-06
-2.62717e-06
-1.04612e-06
-4.09754e-07
-1.57911e-07
-5.98816e-08
-2.23321e-08
-8.17835e-09
-2.95479e-09
-1.04603e-09
-3.55628e-10
-1.18543e-10
-2.52452e-11
0
-2.19523e-12
0
-1.09762e-12
-1.09762e-12
3.29285e-12
1.4269e-11
-2.19523e-12
-1.31714e-11
0
-9.87856e-12
-2.08547e-11
8.78094e-12
2.19523e-11
0
0
0
0
-2.19524e-12
-3.29285e-12
5.48809e-12
-2839.93
-2768.01
-2629.83
-2435.85
-2199.99
-1937.91
-1665.27
-1396.26
-1142.52
-912.568
-711.617
-541.856
-402.955
-292.712
-207.737
-144.066
-97.6477
-64.7003
-41.9163
-26.5573
-16.459
-9.98026
-5.92237
-3.44007
-1.9564
-1.08961
-0.594451
-0.317755
-0.166459
-0.0854805
-0.0430405
-0.0212541
-0.010296
-0.00489393
-0.00228305
-0.00104554
-0.000470154
-0.000207639
-9.00843e-05
-3.84022e-05
-1.60889e-05
-6.62605e-06
-2.68307e-06
-1.06848e-06
-4.18533e-07
-1.61278e-07
-6.11483e-08
-2.28074e-08
-8.36604e-09
-3.00528e-09
-1.0614e-09
-3.95142e-10
-1.383e-10
-2.96357e-11
-6.58571e-12
0
0
0
0
2.19524e-12
-2.19524e-12
6.5857e-12
0
-1.86595e-11
-4.39047e-12
9.87856e-12
3.29285e-12
3.29285e-12
1.09762e-12
0
-1.09762e-12
0
0
1.09762e-12
-1.09762e-12
-2829.32
-2758.58
-2622.5
-2431.14
-2198
-1938.34
-1667.59
-1399.83
-1146.73
-916.898
-715.696
-545.455
-405.965
-295.117
-209.585
-145.435
-98.629
-65.3823
-42.3766
-26.8595
-16.6523
-10.1007
-5.99557
-3.4835
-1.98158
-1.10388
-0.602353
-0.322038
-0.168731
-0.086661
-0.0436412
-0.0215536
-0.0104424
-0.00496408
-0.00231603
-0.00106075
-0.000477039
-0.000210699
-9.14197e-05
-3.89747e-05
-1.633e-05
-6.72586e-06
-2.7237e-06
-1.08471e-06
-4.24905e-07
-1.63744e-07
-6.20637e-08
-2.31334e-08
-8.48349e-09
-3.04589e-09
-1.08774e-09
-4.09411e-10
-1.55862e-10
-3.7319e-11
0
-1.09762e-12
-8.78094e-12
-8.78094e-12
4.39047e-12
8.78094e-12
4.39047e-12
0
-1.20738e-11
-1.09762e-12
1.31714e-11
2.19523e-12
-2.19523e-12
-1.09762e-12
1.09762e-12
-1.09762e-12
-4.39047e-12
-7.68332e-12
3.29285e-12
1.31714e-11
-3.29285e-12
-2822.73
-2752.68
-2617.85
-2428.09
-2196.61
-1938.47
-1668.93
-1401.99
-1149.34
-919.634
-718.307
-547.783
-407.929
-296.701
-210.81
-146.348
-99.2874
-65.8423
-42.6886
-27.0652
-16.7843
-10.1832
-6.0459
-3.51345
-1.99899
-1.11376
-0.607842
-0.32502
-0.170316
-0.0874856
-0.0440614
-0.0217634
-0.0105451
-0.00501337
-0.00233922
-0.00107147
-0.000481894
-0.000212859
-9.2363e-05
-3.93794e-05
-1.65006e-05
-6.79652e-06
-2.75247e-06
-1.09625e-06
-4.29464e-07
-1.65493e-07
-6.27179e-08
-2.34001e-08
-8.58117e-09
-3.06784e-09
-1.09323e-09
-4.01728e-10
-1.37202e-10
-4.71976e-11
-1.53666e-11
5.48809e-12
0
-5.48809e-12
1.09762e-12
0
-2.19524e-12
0
1.09762e-12
0
4.39047e-12
0
-4.39047e-12
-1.09762e-12
0
-4.39047e-12
4.39047e-12
5.48809e-12
-4.39047e-12
1.09762e-12
-1.09762e-12
-2818.68
-2749.04
-2614.96
-2426.15
-2195.68
-1938.48
-1669.69
-1403.29
-1150.94
-921.332
-719.947
-549.258
-409.185
-297.72
-211.604
-146.943
-99.7191
-66.1453
-42.895
-27.2019
-16.8723
-10.2384
-6.07968
-3.53361
-2.01073
-1.12045
-0.611563
-0.327044
-0.171394
-0.0880477
-0.0443483
-0.0219069
-0.0106154
-0.00504717
-0.00235515
-0.00107883
-0.000485234
-0.000214346
-9.30134e-05
-3.96587e-05
-1.66184e-05
-6.84538e-06
-2.77239e-06
-1.10422e-06
-4.32613e-07
-1.66707e-07
-6.31964e-08
-2.359e-08
-8.64374e-09
-3.11284e-09
-1.13713e-09
-4.2368e-10
-1.17445e-10
-2.305e-11
-2.19524e-12
1.53666e-11
-1.09762e-12
0
5.48809e-12
1.09762e-12
-8.78094e-12
-1.09762e-12
5.48809e-12
8.78094e-12
0
-8.78094e-12
0
-4.39047e-12
0
-6.58571e-12
-1.09762e-12
9.87856e-12
9.87856e-12
1.09762e-12
-8.78094e-12
-2816.23
-2746.83
-2613.19
-2424.94
-2195.08
-1938.44
-1670.12
-1404.06
-1151.91
-922.368
-720.957
-550.175
-409.972
-298.363
-212.107
-147.323
-99.9958
-66.3405
-43.0285
-27.2906
-16.9296
-10.2745
-6.10182
-3.54686
-2.01847
-1.12487
-0.614026
-0.328387
-0.172111
-0.0884218
-0.0445396
-0.0220028
-0.0106624
-0.0050698
-0.00236583
-0.00108377
-0.000487479
-0.000215347
-9.34513e-05
-3.98469e-05
-1.66979e-05
-6.87837e-06
-2.78584e-06
-1.10961e-06
-4.34726e-07
-1.67555e-07
-6.35191e-08
-2.37085e-08
-8.71179e-09
-3.14028e-09
-1.13384e-09
-4.10509e-10
-1.25128e-10
-1.64643e-11
-5.48809e-12
-1.09762e-12
6.5857e-12
8.78094e-12
-1.09762e-12
-8.78094e-12
0
0
-2.19523e-12
4.39047e-12
2.19523e-12
-5.48809e-12
-2.19523e-12
0
2.19523e-12
-6.5857e-12
-4.39047e-12
6.5857e-12
4.39047e-12
8.78094e-12
-7.68332e-12
-2814.77
-2745.51
-2612.12
-2424.21
-2194.7
-1938.4
-1670.36
-1404.5
-1152.48
-922.989
-721.567
-550.734
-410.454
-298.759
-212.42
-147.56
-100.169
-66.4633
-43.1129
-27.3469
-16.9661
-10.2976
-6.11599
-3.55537
-2.02345
-1.12772
-0.615618
-0.329257
-0.172576
-0.088665
-0.0446642
-0.0220652
-0.0106932
-0.00508459
-0.00237282
-0.00108701
-0.000488952
-0.000216004
-9.37394e-05
-3.99708e-05
-1.67503e-05
-6.90012e-06
-2.7947e-06
-1.11319e-06
-4.36131e-07
-1.68084e-07
-6.37452e-08
-2.37876e-08
-8.74691e-09
-3.16224e-09
-1.11847e-09
-3.79776e-10
-1.35007e-10
-4.39047e-11
-3.29285e-12
0
-1.09762e-12
0
-1.09762e-12
0
0
1.09762e-12
-1.09762e-12
0
0
0
-1.09762e-12
0
1.09762e-12
-1.4269e-11
4.39047e-12
9.87856e-12
-3.29285e-12
4.39047e-12
-1.09762e-12
-2813.91
-2744.73
-2611.49
-2423.77
-2194.47
-1938.36
-1670.49
-1404.76
-1152.81
-923.354
-721.93
-551.068
-410.744
-298.999
-212.61
-147.705
-100.276
-66.539
-43.1651
-27.3818
-16.9888
-10.3119
-6.12487
-3.56071
-2.02659
-1.12951
-0.616623
-0.329808
-0.172871
-0.0888194
-0.0447434
-0.022105
-0.0107127
-0.00509405
-0.00237729
-0.00108908
-0.000489896
-0.000216426
-9.39244e-05
-4.00505e-05
-1.6784e-05
-6.91414e-06
-2.80047e-06
-1.11551e-06
-4.37046e-07
-1.68447e-07
-6.38846e-08
-2.38315e-08
-8.76118e-09
-3.17431e-09
-1.11298e-09
-3.74288e-10
-1.41593e-10
-4.82952e-11
0
1.09762e-12
-1.09762e-12
0
1.09762e-12
0
-3.29285e-12
0
3.29285e-12
0
1.09762e-12
8.78094e-12
0
-9.87856e-12
0
0
9.87856e-12
3.29285e-12
-1.4269e-11
-2.19523e-12
3.29285e-12
-2813.41
-2744.28
-2611.12
-2423.51
-2194.33
-1938.34
-1670.56
-1404.9
-1153
-923.566
-722.141
-551.264
-410.915
-299.142
-212.723
-147.792
-100.34
-66.5846
-43.1966
-27.4029
-17.0027
-10.3207
-6.1303
-3.56398
-2.02851
-1.13062
-0.617244
-0.330148
-0.173053
-0.0889153
-0.0447927
-0.0221298
-0.010725
-0.00509995
-0.00238008
-0.00109038
-0.000490488
-0.000216691
-9.40406e-05
-4.01007e-05
-1.68053e-05
-6.92298e-06
-2.80409e-06
-1.11692e-06
-4.37614e-07
-1.68684e-07
-6.39834e-08
-2.38754e-08
-8.79411e-09
-3.1787e-09
-1.10091e-09
-3.75385e-10
-1.33909e-10
-5.04904e-11
-1.09762e-12
-2.19523e-12
1.09762e-12
-1.09762e-12
2.19523e-12
-2.19523e-12
-1.09762e-11
3.29285e-12
7.68332e-12
-8.78094e-12
-1.09762e-11
9.87856e-12
9.87856e-12
5.48809e-12
-1.09762e-12
-4.39047e-12
0
-1.09762e-12
0
0
1.09762e-12
-2813.13
-2744.03
-2610.91
-2423.36
-2194.25
-1938.32
-1670.6
-1404.98
-1153.11
-923.686
-722.262
-551.377
-411.014
-299.224
-212.789
-147.842
-100.377
-66.6115
-43.2153
-27.4155
-17.0109
-10.326
-6.13354
-3.56594
-2.02967
-1.13128
-0.617619
-0.330354
-0.173164
-0.0889734
-0.0448226
-0.0221449
-0.0107324
-0.00510355
-0.00238179
-0.00109118
-0.00049085
-0.000216853
-9.41119e-05
-4.01314e-05
-1.68183e-05
-6.92841e-06
-2.80632e-06
-1.11785e-06
-4.37992e-07
-1.68818e-07
-6.40098e-08
-2.39061e-08
-8.80728e-09
-3.15346e-09
-1.09872e-09
-3.87459e-10
-1.39397e-10
-5.04904e-11
-2.19524e-12
1.86595e-11
-4.39047e-12
-1.75619e-11
1.09762e-12
0
-1.09762e-11
-1.09762e-12
1.31714e-11
0
-2.19523e-12
0
1.09762e-12
-1.09762e-12
0
-2.19524e-12
-2.19523e-12
6.58571e-12
-3.29285e-12
-7.68332e-12
8.78094e-12
-2812.98
-2743.88
-2610.8
-2423.27
-2194.2
-1938.31
-1670.62
-1405.03
-1153.17
-923.753
-722.33
-551.44
-411.07
-299.271
-212.827
-147.871
-100.399
-66.627
-43.2261
-27.4228
-17.0157
-10.329
-6.13545
-3.5671
-2.03035
-1.13168
-0.61784
-0.330476
-0.173229
-0.089008
-0.0448404
-0.0221539
-0.0107368
-0.0051057
-0.00238281
-0.00109165
-0.000491067
-0.00021695
-9.41548e-05
-4.01499e-05
-1.68262e-05
-6.93169e-06
-2.80766e-06
-1.11841e-06
-4.38206e-07
-1.68902e-07
-6.40778e-08
-2.39028e-08
-8.77545e-09
-3.16443e-09
-1.1064e-09
-4.01728e-10
-1.39397e-10
-3.7319e-11
-9.87856e-12
9.87856e-12
0
-9.87856e-12
0
0
0
0
-1.64643e-11
0
1.64643e-11
0
1.09762e-12
0
0
-1.31714e-11
0
1.20738e-11
-3.29285e-12
1.09762e-12
2.19524e-12
-2812.89
-2743.8
-2610.73
-2423.23
-2194.17
-1938.3
-1670.63
-1405.05
-1153.2
-923.79
-722.367
-551.475
-411.101
-299.297
-212.848
-147.888
-100.411
-66.6358
-43.2322
-27.427
-17.0184
-10.3308
-6.13654
-3.56776
-2.03074
-1.1319
-0.617968
-0.330546
-0.173267
-0.089028
-0.0448507
-0.0221591
-0.0107394
-0.00510696
-0.00238341
-0.00109193
-0.000491195
-0.000217008
-9.41799e-05
-4.01608e-05
-1.68308e-05
-6.93361e-06
-2.80844e-06
-1.11873e-06
-4.38332e-07
-1.68955e-07
-6.40833e-08
-2.39116e-08
-8.77545e-09
-3.16443e-09
-1.11628e-09
-3.92947e-10
-1.33909e-10
-4.17095e-11
-1.31714e-11
-1.09762e-12
-7.68332e-12
-1.09762e-12
7.68332e-12
1.09762e-12
0
0
0
-1.09762e-12
-4.39047e-12
1.20738e-11
4.39047e-12
-1.09762e-11
-2.19523e-12
-1.09762e-12
2.19523e-12
0
0
-1.09762e-11
1.20738e-11
-2812.84
-2743.76
-2610.7
-2423.2
-2194.16
-1938.3
-1670.64
-1405.06
-1153.22
-923.809
-722.387
-551.495
-411.118
-299.312
-212.859
-147.897
-100.418
-66.6407
-43.2356
-27.4293
-17.0199
-10.3318
-6.13715
-3.56813
-2.03096
-1.13203
-0.61804
-0.330586
-0.173289
-0.0890394
-0.0448566
-0.0221621
-0.0107409
-0.00510767
-0.00238375
-0.00109209
-0.000491268
-0.00021704
-9.41944e-05
-4.01671e-05
-1.68335e-05
-6.93473e-06
-2.8089e-06
-1.1189e-06
-4.38384e-07
-1.68969e-07
-6.41042e-08
-2.39259e-08
-8.77326e-09
-3.17102e-09
-1.12725e-09
-3.91849e-10
-1.39397e-10
-4.60999e-11
2.19524e-12
2.19523e-12
7.68332e-12
1.09762e-12
-1.20738e-11
0
-1.09762e-12
-1.09762e-12
-2.19524e-12
0
1.75619e-11
0
-1.4269e-11
0
1.09762e-12
-5.48809e-12
-2.19523e-12
6.58571e-12
-1.09762e-12
-1.09762e-12
2.19524e-12
-2812.82
-2743.74
-2610.68
-2423.19
-2194.15
-1938.29
-1670.64
-1405.07
-1153.23
-923.82
-722.398
-551.505
-411.128
-299.32
-212.866
-147.902
-100.421
-66.6434
-43.2375
-27.4306
-17.0208
-10.3323
-6.13749
-3.56834
-2.03109
-1.1321
-0.61808
-0.330609
-0.173301
-0.0890458
-0.0448599
-0.0221638
-0.0107417
-0.00510807
-0.00238394
-0.00109218
-0.000491309
-0.000217059
-9.42025e-05
-4.01706e-05
-1.6835e-05
-6.93537e-06
-2.80917e-06
-1.11899e-06
-4.38417e-07
-1.68994e-07
-6.41063e-08
-2.39292e-08
-8.77874e-09
-3.18199e-09
-1.14482e-09
-3.99533e-10
-1.26226e-10
-3.7319e-11
6.58571e-12
1.53666e-11
-2.19524e-12
-3.29285e-12
-5.48809e-12
2.19524e-12
1.09762e-12
-3.29285e-12
4.39047e-12
4.39047e-12
-4.39047e-12
-2.19524e-12
0
0
0
0
0
0
1.09762e-12
1.09762e-12
-2.19524e-12
-2812.81
-2743.73
-2610.67
-2423.18
-2194.15
-1938.29
-1670.64
-1405.07
-1153.23
-923.825
-722.404
-551.51
-411.132
-299.324
-212.869
-147.904
-100.423
-66.6448
-43.2385
-27.4312
-17.0212
-10.3326
-6.13767
-3.56845
-2.03115
-1.13214
-0.618102
-0.330621
-0.173307
-0.0890492
-0.0448617
-0.0221647
-0.0107422
-0.00510829
-0.00238405
-0.00109223
-0.000491331
-0.000217069
-9.4207e-05
-4.01726e-05
-1.68358e-05
-6.93575e-06
-2.80932e-06
-1.11905e-06
-4.38432e-07
-1.69005e-07
-6.41195e-08
-2.39072e-08
-8.77765e-09
-3.18748e-09
-1.14811e-09
-4.25876e-10
-1.28421e-10
-1.4269e-11
-1.09762e-12
0
8.78094e-12
-2.19523e-12
-5.48809e-12
1.09762e-12
-2.19523e-12
0
2.19523e-12
-2.19523e-12
-2.19523e-12
4.39047e-12
1.09762e-12
-3.29285e-12
0
0
2.19523e-12
0
-2.19523e-12
-5.48809e-12
5.48809e-12
-2812.8
-2743.72
-2610.66
-2423.18
-2194.14
-1938.29
-1670.64
-1405.08
-1153.23
-923.828
-722.407
-551.513
-411.135
-299.326
-212.871
-147.906
-100.424
-66.6455
-43.239
-27.4316
-17.0215
-10.3327
-6.13776
-3.5685
-2.03119
-1.13216
-0.618114
-0.330627
-0.173311
-0.0890511
-0.0448627
-0.0221652
-0.0107424
-0.00510841
-0.0023841
-0.00109226
-0.000491343
-0.000217074
-9.42094e-05
-4.01736e-05
-1.68362e-05
-6.9359e-06
-2.8094e-06
-1.11909e-06
-4.38454e-07
-1.69008e-07
-6.40976e-08
-2.39237e-08
-8.81167e-09
-3.19516e-09
-1.14152e-09
-4.03923e-10
-1.35007e-10
-2.85381e-11
-1.09762e-12
2.19523e-12
0
-1.09762e-12
0
0
-2.19524e-12
0
-4.39047e-12
-1.09762e-12
5.48809e-12
1.09762e-12
0
2.19523e-12
-1.09762e-12
-6.58571e-12
0
2.19524e-12
-1.4269e-11
4.39047e-12
1.31714e-11
-2812.8
-2743.72
-2610.66
-2423.18
-2194.14
-1938.29
-1670.64
-1405.08
-1153.24
-923.83
-722.408
-551.514
-411.136
-299.327
-212.872
-147.906
-100.425
-66.6459
-43.2393
-27.4318
-17.0216
-10.3328
-6.13781
-3.56853
-2.03121
-1.13217
-0.61812
-0.33063
-0.173313
-0.089052
-0.0448632
-0.0221654
-0.0107426
-0.00510847
-0.00238413
-0.00109227
-0.00049135
-0.000217077
-9.42107e-05
-4.01742e-05
-1.68365e-05
-6.93599e-06
-2.80943e-06
-1.11911e-06
-4.38461e-07
-1.68983e-07
-6.40888e-08
-2.3927e-08
-8.81716e-09
-3.22919e-09
-1.14591e-09
-3.97338e-10
-1.35007e-10
-2.305e-11
0
2.19523e-12
0
1.09762e-12
0
-2.19524e-12
0
-5.48809e-12
-1.75619e-11
4.39047e-12
1.86595e-11
0
-1.09762e-12
1.09762e-12
0
0
0
0
0
8.78094e-12
-8.78094e-12
-2812.79
-2743.72
-2610.66
-2423.18
-2194.14
-1938.29
-1670.64
-1405.08
-1153.24
-923.83
-722.409
-551.515
-411.137
-299.327
-212.872
-147.907
-100.425
-66.6461
-43.2394
-27.4319
-17.0216
-10.3329
-6.13784
-3.56855
-2.03121
-1.13218
-0.618123
-0.330632
-0.173314
-0.0890525
-0.0448634
-0.0221655
-0.0107426
-0.00510851
-0.00238415
-0.00109228
-0.000491353
-0.000217079
-9.42114e-05
-4.01745e-05
-1.68366e-05
-6.93604e-06
-2.80943e-06
-1.11908e-06
-4.38437e-07
-1.68989e-07
-6.41031e-08
-2.39368e-08
-8.82375e-09
-3.22809e-09
-1.14482e-09
-3.91849e-10
-1.30616e-10
-3.18309e-11
-2.19523e-12
0
0
0
-1.09762e-12
0
1.09762e-12
-1.09762e-12
0
1.09762e-12
-3.29285e-12
0
3.29285e-12
9.87856e-12
3.29285e-12
-8.78094e-12
-2.41476e-11
-1.09762e-12
1.64643e-11
2.19523e-12
2.19523e-12
-2812.79
-2743.72
-2610.66
-2423.17
-2194.14
-1938.29
-1670.64
-1405.08
-1153.24
-923.831
-722.409
-551.515
-411.137
-299.328
-212.872
-147.907
-100.425
-66.6462
-43.2395
-27.4319
-17.0217
-10.3329
-6.13785
-3.56856
-2.03122
-1.13218
-0.618124
-0.330633
-0.173314
-0.0890528
-0.0448635
-0.0221656
-0.0107427
-0.00510852
-0.00238416
-0.00109228
-0.000491355
-0.000217079
-9.42117e-05
-4.01746e-05
-1.68367e-05
-6.93607e-06
-2.80944e-06
-1.11909e-06
-4.38452e-07
-1.68971e-07
-6.41063e-08
-2.39325e-08
-8.79631e-09
-3.21602e-09
-1.1514e-09
-3.88557e-10
-1.36105e-10
-4.28071e-11
0
1.20738e-11
-1.09762e-12
-9.87856e-12
0
-1.09762e-12
1.09762e-12
0
0
0
0
0
9.87856e-12
2.19523e-12
-9.87856e-12
-6.58571e-12
-1.09762e-12
5.48809e-12
0
0
0
-2812.79
-2743.72
-2610.66
-2423.17
-2194.14
-1938.29
-1670.64
-1405.08
-1153.24
-923.831
-722.409
-551.515
-411.137
-299.328
-212.872
-147.907
-100.425
-66.6462
-43.2395
-27.4319
-17.0217
-10.3329
-6.13786
-3.56856
-2.03122
-1.13218
-0.618125
-0.330633
-0.173314
-0.0890529
-0.0448636
-0.0221656
-0.0107427
-0.00510853
-0.00238416
-0.00109228
-0.000491355
-0.00021708
-9.42118e-05
-4.01747e-05
-1.68367e-05
-6.93607e-06
-2.80946e-06
-1.11909e-06
-4.3845e-07
-1.68986e-07
-6.40888e-08
-2.3927e-08
-8.80948e-09
-3.20175e-09
-1.1514e-09
-4.12704e-10
-1.1525e-10
-1.20738e-11
2.19524e-12
8.78094e-12
-1.31714e-11
-9.87856e-12
1.20738e-11
-1.09762e-12
-4.39047e-12
-3.29285e-12
4.39047e-12
3.29285e-12
0
0
1.09762e-12
-1.09762e-12
7.68332e-12
1.09762e-12
-4.39047e-12
0
-2.19524e-12
0
-2.19524e-12
-2812.79
-2743.72
-2610.66
-2423.17
-2194.14
-1938.29
-1670.64
-1405.08
-1153.24
-923.831
-722.41
-551.516
-411.137
-299.328
-212.872
-147.907
-100.425
-66.6462
-43.2395
-27.4319
-17.0217
-10.3329
-6.13786
-3.56856
-2.03122
-1.13218
-0.618125
-0.330634
-0.173314
-0.0890529
-0.0448636
-0.0221657
-0.0107427
-0.00510853
-0.00238416
-0.00109228
-0.000491356
-0.00021708
-9.42119e-05
-4.01747e-05
-1.68367e-05
-6.93607e-06
-2.80944e-06
-1.11911e-06
-4.3847e-07
-1.68998e-07
-6.40954e-08
-2.39083e-08
-8.8007e-09
-3.20834e-09
-1.14921e-09
-4.01728e-10
-1.05371e-10
-8.78094e-12
-2.19523e-12
0
-1.75619e-11
-9.87856e-12
5.48809e-12
5.48809e-12
1.20738e-11
4.39047e-12
-2.19523e-12
0
-7.68332e-12
0
1.4269e-11
0
-4.39047e-12
-7.68332e-12
-1.09762e-12
-1.09762e-12
0
1.64643e-11
-6.5857e-12
-2812.79
-2743.72
-2610.66
-2423.17
-2194.14
-1938.29
-1670.64
-1405.08
-1153.24
-923.831
-722.41
-551.516
-411.137
-299.328
-212.872
-147.907
-100.425
-66.6462
-43.2395
-27.4319
-17.0217
-10.3329
-6.13786
-3.56856
-2.03122
-1.13218
-0.618126
-0.330634
-0.173315
-0.089053
-0.0448637
-0.0221657
-0.0107427
-0.00510854
-0.00238416
-0.00109228
-0.000491356
-0.00021708
-9.4212e-05
-4.01747e-05
-1.68367e-05
-6.93606e-06
-2.80943e-06
-1.11912e-06
-4.38473e-07
-1.68991e-07
-6.40965e-08
-2.39204e-08
-8.81606e-09
-3.21602e-09
-1.11628e-09
-3.83069e-10
-1.28421e-10
-2.41476e-11
6.58571e-12
3.29285e-12
-1.09762e-11
-9.87856e-12
1.09762e-12
-5.48809e-12
1.09762e-12
1.31714e-11
-5.48809e-12
-1.09762e-12
6.5857e-12
0
1.09762e-12
0
-1.09762e-12
-1.31714e-11
0
6.58571e-12
-4.39047e-12
6.5857e-12
4.39047e-12
-2812.79
-2743.72
-2610.66
-2423.17
-2194.14
-1938.29
-1670.64
-1405.08
-1153.24
-923.831
-722.41
-551.516
-411.137
-299.328
-212.872
-147.907
-100.425
-66.6462
-43.2395
-27.4319
-17.0217
-10.3329
-6.13786
-3.56856
-2.03122
-1.13218
-0.618126
-0.330634
-0.173315
-0.089053
-0.0448637
-0.0221657
-0.0107427
-0.00510854
-0.00238416
-0.00109228
-0.000491356
-0.00021708
-9.4212e-05
-4.01747e-05
-1.68367e-05
-6.93605e-06
-2.80945e-06
-1.1191e-06
-4.38464e-07
-1.68991e-07
-6.41042e-08
-2.39434e-08
-8.79631e-09
-3.18638e-09
-1.12725e-09
-4.0063e-10
-1.39397e-10
-1.97571e-11
1.20738e-11
1.09762e-12
-1.75619e-11
8.78094e-12
1.31714e-11
-8.78094e-12
2.19524e-12
0
-2.19524e-12
-1.09762e-12
1.09762e-12
-3.29285e-12
4.39047e-12
4.39047e-12
1.09762e-12
-2.19524e-12
-5.48809e-12
1.09762e-12
1.09762e-12
-1.09762e-12
0
-2812.79
-2743.72
-2610.66
-2423.17
-2194.14
-1938.29
-1670.64
-1405.08
-1153.24
-923.831
-722.41
-551.516
-411.137
-299.328
-212.872
-147.907
-100.425
-66.6463
-43.2395
-27.432
-17.0217
-10.3329
-6.13786
-3.56856
-2.03122
-1.13218
-0.618126
-0.330634
-0.173315
-0.089053
-0.0448637
-0.0221657
-0.0107427
-0.00510854
-0.00238416
-0.00109228
-0.000491356
-0.00021708
-9.4212e-05
-4.01747e-05
-1.68367e-05
-6.93606e-06
-2.80945e-06
-1.11911e-06
-4.38454e-07
-1.69003e-07
-6.41107e-08
-2.39511e-08
-8.82045e-09
-3.18199e-09
-1.11957e-09
-3.94045e-10
-1.32812e-10
-2.63428e-11
-1.20738e-11
-1.09762e-12
9.87856e-12
0
3.29285e-12
-1.09762e-12
-2.19523e-12
-1.09762e-12
-5.48809e-12
-2.19523e-12
7.68332e-12
4.39047e-12
1.31714e-11
0
-1.31714e-11
8.78094e-12
1.31714e-11
-1.09762e-11
-1.09762e-11
-1.09762e-12
1.09762e-12
-2812.79
-2743.72
-2610.66
-2423.17
-2194.14
-1938.29
-1670.64
-1405.08
-1153.24
-923.831
-722.41
-551.516
-411.137
-299.328
-212.872
-147.907
-100.425
-66.6463
-43.2395
-27.432
-17.0217
-10.3329
-6.13786
-3.56857
-2.03122
-1.13218
-0.618126
-0.330634
-0.173315
-0.089053
-0.0448637
-0.0221657
-0.0107427
-0.00510854
-0.00238416
-0.00109228
-0.000491356
-0.00021708
-9.4212e-05
-4.01747e-05
-1.68367e-05
-6.93606e-06
-2.8094e-06
-1.1191e-06
-4.38475e-07
-1.69011e-07
-6.41096e-08
-2.39588e-08
-8.82704e-09
-3.18199e-09
-1.11189e-09
-3.86361e-10
-1.31714e-10
-5.1588e-11
-7.68332e-12
4.39047e-12
-8.78094e-12
-5.48809e-12
0
0
0
0
0
-3.29285e-12
0
4.39047e-12
0
-1.09762e-12
-8.78094e-12
-6.58571e-12
1.53666e-11
5.48809e-12
-8.78094e-12
0
3.29285e-12
-2812.79
-2743.72
-2610.66
-2423.17
-2194.14
-1938.29
-1670.64
-1405.08
-1153.24
-923.831
-722.41
-551.516
-411.137
-299.328
-212.872
-147.907
-100.425
-66.6463
-43.2395
-27.432
-17.0217
-10.3329
-6.13786
-3.56857
-2.03122
-1.13218
-0.618126
-0.330634
-0.173315
-0.089053
-0.0448637
-0.0221657
-0.0107427
-0.00510854
-0.00238416
-0.00109228
-0.000491356
-0.00021708
-9.4212e-05
-4.01747e-05
-1.68367e-05
-6.93605e-06
-2.80941e-06
-1.11908e-06
-4.38458e-07
-1.69028e-07
-6.41437e-08
-2.39445e-08
-8.81277e-09
-3.1809e-09
-1.09652e-09
-3.90752e-10
-1.66838e-10
-6.47594e-11
-5.48809e-12
1.53666e-11
0
-1.31714e-11
0
-1.09762e-12
-3.29285e-12
-1.09762e-12
4.39047e-12
0
0
0
0
1.09762e-12
-1.09762e-12
-7.68332e-12
1.09762e-12
7.68332e-12
-8.78094e-12
0
7.68332e-12
-2812.79
-2743.72
-2610.66
-2423.17
-2194.14
-1938.29
-1670.64
-1405.08
-1153.24
-923.831
-722.41
-551.516
-411.137
-299.328
-212.872
-147.907
-100.425
-66.6463
-43.2395
-27.432
-17.0217
-10.3329
-6.13786
-3.56857
-2.03122
-1.13218
-0.618126
-0.330634
-0.173315
-0.089053
-0.0448637
-0.0221657
-0.0107427
-0.00510854
-0.00238416
-0.00109228
-0.000491356
-0.00021708
-9.4212e-05
-4.01747e-05
-1.68367e-05
-6.93609e-06
-2.80941e-06
-1.11905e-06
-4.38452e-07
-1.6904e-07
-6.41338e-08
-2.39401e-08
-8.80838e-09
-3.18748e-09
-1.11847e-09
-3.98435e-10
-1.62447e-10
-5.04904e-11
-1.53666e-11
0
4.39047e-12
0
5.48809e-12
0
-2.19523e-12
5.48809e-12
2.19523e-12
-4.39047e-12
0
-1.09762e-12
0
7.68332e-12
7.68332e-12
-6.5857e-12
-9.87856e-12
-7.68332e-12