/*--------------------------------*- C++ -*----------------------------------*\
  =========                 |
  \\      /  F ield         | OpenFOAM: The Open Source CFD Toolbox
   \\    /   O peration     | Website:  https://openfoam.org
    \\  /    A nd           | Version:  10
     \\/     M anipulation  |
\*---------------------------------------------------------------------------*/
FoamFile
{
    format      ascii;
    class       volScalarField;
    location    "398";
    object      gradTx;
}
// * * * * * * * * * * * * * * * * * * * * * * * * * * * * * * * * * * * * * //

dimensions      [0 -1 0 1 0 0 0];

internalField   nonuniform List<scalar> 
11250
(
14303.9
8116.19
5330.35
3855.19
2964.2
2370.19
1944.6
1623.27
1371.11
1167.44
999.37
858.404
738.738
636.249
547.912
471.444
405.07
347.378
297.215
253.623
215.791
183.02
154.699
130.295
109.332
91.3863
76.0818
63.0808
52.0822
42.8173
35.0472
28.5602
23.1696
18.7111
15.0412
12.0351
9.58475
7.59735
5.99347
4.70562
3.67676
2.859
2.21235
1.70363
1.30548
0.995474
0.755356
0.570333
0.428504
0.320351
0.238308
0.176396
0.129919
0.0952117
0.0694282
0.0503742
0.0363669
0.0261233
0.0186712
0.0132782
0.00939559
0.00661497
0.00463391
0.00322981
0.00223978
0.00154527
0.00106051
0.000723746
0.000490778
0.00033008
0.00021924
0.000142313
8.78765e-05
4.75787e-05
1.50366e-05
4099.77
4714.95
4020.78
3272.52
2669.14
2204.02
1842.93
1556.97
1325.71
1135.16
975.714
840.658
725.172
625.722
539.645
464.889
399.833
343.169
293.818
250.872
213.559
181.205
153.224
129.095
108.356
90.5945
75.4399
62.5615
51.6629
42.4796
34.776
28.3431
22.9963
18.5732
14.9319
11.9488
9.51682
7.5441
5.9519
4.6733
3.65175
2.83972
2.19754
1.69231
1.29687
0.988955
0.750441
0.566644
0.425748
0.318302
0.236791
0.175279
0.1291
0.0946139
0.0689941
0.0500605
0.0361413
0.0259618
0.0185562
0.0131966
0.00933808
0.0065746
0.00460571
0.00321021
0.00222622
0.00153594
0.00105412
0.000719396
0.000487835
0.000328105
0.000217931
0.000141465
8.73536e-05
4.7296e-05
1.49475e-05
1480.18
2623.72
2766.4
2546.48
2237.7
1936.07
1668.69
1438.84
1242.69
1075.05
931.102
806.873
699.162
605.427
523.637
452.152
389.629
334.951
287.171
245.482
209.177
177.64
150.322
126.733
106.435
89.0341
74.1743
61.5369
50.8353
41.8129
34.2403
27.914
22.6537
18.3006
14.7158
11.778
9.38243
7.43875
5.86965
4.60934
3.60222
2.80153
2.16823
1.66991
1.27982
0.97604
0.740702
0.559334
0.420286
0.31424
0.233785
0.173064
0.127476
0.0934289
0.0681335
0.0494385
0.0356939
0.0256416
0.0183281
0.0130349
0.00922399
0.00649451
0.00454976
0.00317132
0.00219932
0.00151743
0.00104144
0.000710764
0.000481994
0.000324184
0.000215331
0.00013978
8.6315e-05
4.67343e-05
1.47701e-05
677.651
1534.02
1875.68
1910.8
1800.98
1636.11
1459.46
1289.82
1134.22
994.479
870.169
760.065
662.727
576.752
500.864
433.933
374.968
323.098
277.557
237.664
202.81
172.45
146.09
123.284
103.627
86.7502
72.3201
60.0347
49.6212
40.8341
33.4535
27.2835
22.15
17.8997
14.3977
11.5266
9.18456
7.28359
5.74847
4.5151
3.52923
2.74524
2.12501
1.63687
1.25467
0.956991
0.726336
0.548549
0.412227
0.308246
0.229348
0.169795
0.125079
0.0916794
0.0668628
0.04852
0.0350332
0.0251686
0.0179911
0.012796
0.00905545
0.00637618
0.0044671
0.00311385
0.00215957
0.00149007
0.00102271
0.000698007
0.000473361
0.00031839
0.000211489
0.00013729
8.47796e-05
4.59038e-05
1.45077e-05
374.27
959.668
1292.55
1421.53
1421.16
1350.1
1245.74
1129.51
1012.92
901.67
798.366
703.928
618.421
541.497
472.617
411.171
356.542
308.129
265.365
227.715
194.683
165.809
140.664
118.854
100.014
83.8075
69.9282
58.0947
48.0516
39.5676
32.4347
26.4664
21.497
17.3795
13.9849
11.2003
8.92752
7.08196
5.59094
4.39254
3.43428
2.672
2.06876
1.59386
1.22193
0.932181
0.707622
0.534498
0.401726
0.300435
0.223564
0.165533
0.121953
0.0893981
0.0652057
0.0473221
0.0341714
0.0245516
0.0175515
0.0124843
0.00883554
0.00622178
0.00435922
0.00303885
0.00210768
0.00145435
0.000998252
0.000681352
0.00046209
0.000310824
0.000206473
0.000134039
8.27745e-05
4.48193e-05
1.41651e-05
234.241
638.464
914.373
1063.02
1113.84
1099.54
1046.3
972.304
889.191
804.041
720.962
642.217
568.948
501.627
440.339
384.938
335.156
290.653
251.059
215.993
185.074
157.932
134.211
113.573
95.6973
80.2863
67.0616
55.7666
46.1657
38.0444
31.2081
25.4819
20.7094
16.7518
13.4864
10.8059
8.61677
6.83807
5.40032
4.24418
3.3193
2.58327
2.00059
1.54172
1.18224
0.902093
0.68492
0.517449
0.388982
0.290953
0.216543
0.160358
0.118158
0.0866272
0.0631926
0.0458666
0.0331241
0.0238017
0.0170172
0.0121055
0.0085682
0.00603406
0.00422805
0.00294765
0.00204459
0.00141092
0.000968507
0.000661094
0.00044838
0.000301619
0.00020037
0.000130083
8.03349e-05
4.34996e-05
1.37483e-05
158.678
446.187
664.465
803.736
873.394
889.999
870.011
826.843
770.36
707.376
642.398
578.3
516.845
459.059
405.483
356.342
311.658
271.322
235.145
202.889
174.287
149.058
126.919
107.589
90.7954
76.2791
63.7933
53.1079
44.009
36.3
29.8018
24.352
19.8048
16.0301
12.9129
10.3519
8.25877
6.55694
5.18048
4.07298
3.18656
2.4808
1.92184
1.48146
1.13634
0.867296
0.658659
0.497721
0.374232
0.279976
0.208413
0.154365
0.113761
0.0834168
0.0608599
0.0441798
0.0319103
0.0229324
0.0163977
0.0116661
0.00825815
0.00581633
0.00407589
0.00284185
0.00197138
0.00136052
0.000933988
0.000637582
0.000432466
0.000290935
0.000193284
0.000125491
7.75025e-05
4.19673e-05
1.32642e-05
113.16
323.736
494.543
615.41
687.69
719.06
719.195
697.247
660.794
615.643
566.022
514.897
464.284
415.506
369.395
326.436
286.873
250.784
218.133
188.807
162.642
139.44
118.987
101.06
85.4332
71.8852
60.2023
50.1813
41.631
34.374
28.247
23.1013
18.8023
15.2296
12.2761
9.8474
7.86069
6.24413
4.93571
3.88227
3.03861
2.36654
1.83398
1.41421
1.0851
0.828431
0.629318
0.475673
0.357742
0.267701
0.199319
0.14766
0.10884
0.0798235
0.0582484
0.042291
0.0305508
0.0219587
0.0157037
0.0111739
0.0079107
0.00557229
0.00390534
0.00272323
0.00188929
0.001304
0.000895277
0.000611213
0.000414616
0.00027895
0.000185336
0.000120338
7.43244e-05
4.0248e-05
1.27211e-05
83.5782
241.625
375.499
476.966
544.523
581.292
592.672
584.607
562.583
531.203
494.1
454.022
412.976
372.387
333.234
296.159
261.559
229.648
200.511
174.137
150.45
129.327
110.617
94.1475
79.739
67.2072
56.3703
47.0518
39.0836
32.3073
26.5762
21.7555
17.7223
14.3663
11.5888
9.30231
7.43022
5.90561
4.67062
3.6756
2.87819
2.24257
1.73862
1.34118
1.02943
0.786191
0.597417
0.451693
0.339801
0.254342
0.189418
0.140358
0.103481
0.0759087
0.0554026
0.0402323
0.0290687
0.020897
0.0149467
0.0106369
0.00753165
0.00530602
0.00371921
0.00259377
0.00179969
0.0012423
0.00085301
0.000582418
0.000395122
0.000265859
0.000176653
0.000114709
7.08523e-05
3.83696e-05
1.21277e-05
63.2892
184.231
289.762
373.671
433.701
470.76
487.709
488.27
476.268
455.185
427.976
397.019
364.162
330.797
297.938
266.301
236.372
208.455
182.721
159.24
138.006
118.958
102
87.0066
73.8383
62.3462
52.3786
43.7848
36.4188
30.1416
24.8226
20.3409
16.5856
13.4566
10.8636
8.72671
6.97524
5.54752
4.39001
3.45667
2.70814
2.11108
1.63741
1.26364
0.970291
0.741297
0.563497
0.426186
0.32071
0.240122
0.178877
0.132581
0.0977709
0.0717366
0.052369
0.0380373
0.0274882
0.0197644
0.0141392
0.0100639
0.00712708
0.00502178
0.00352049
0.00245553
0.001704
0.0011764
0.000807856
0.000551652
0.000374291
0.000251869
0.000167374
0.000108693
6.71407e-05
3.63614e-05
1.14933e-05
48.8107
142.766
226.503
295.43
347.33
382.098
401.142
406.727
401.448
387.862
368.281
344.678
318.666
291.52
264.219
237.488
211.85
187.661
165.148
144.436
125.574
108.551
93.3153
79.783
67.8498
57.3985
48.305
40.443
33.6874
27.9175
23.0186
18.8833
15.4128
12.5167
10.1136
8.1307
6.50366
5.17602
4.09865
3.22917
2.53132
1.97427
1.53203
1.18286
0.908649
0.694481
0.528109
0.399562
0.300776
0.225268
0.167862
0.124451
0.0918005
0.067373
0.0491953
0.0357402
0.0258338
0.0185787
0.0132935
0.00946375
0.00670324
0.00472394
0.00331222
0.00231062
0.00160368
0.00110729
0.000760502
0.000519382
0.000352439
0.000237191
0.000157636
0.000102379
6.32454e-05
3.42538e-05
1.08274e-05
38.1627
112.011
178.862
235.33
279.49
310.824
329.934
338.157
337.221
328.962
315.146
297.359
276.958
255.065
232.576
210.184
188.411
167.633
148.106
129.993
113.381
98.2957
84.7214
72.6079
61.8814
52.4525
44.2219
37.0851
30.9368
25.6733
21.1949
17.4075
14.2235
11.5623
9.351
7.52402
6.02315
4.79711
3.80121
2.99674
2.35051
1.83427
1.42414
1.10009
0.84546
0.646464
0.491795
0.37223
0.280302
0.210005
0.156539
0.116092
0.0856592
0.0628831
0.0459286
0.0333752
0.02413
0.0173572
0.0124222
0.00884522
0.00626633
0.00441685
0.00309745
0.00216115
0.00150018
0.00103599
0.000711634
0.000486075
0.000329881
0.000222037
0.000147582
9.58587e-05
5.92225e-05
3.20769e-05
1.01396e-05
30.1465
88.7148
142.364
188.585
225.791
253.339
271.398
280.73
282.464
277.903
268.369
255.109
239.239
221.714
203.325
184.709
166.359
148.649
131.846
116.131
101.615
88.3529
76.3539
65.5951
56.0281
47.5868
40.1937
33.7641
28.2101
23.444
19.38
15.9363
13.036
10.608
8.58748
6.91586
5.54091
4.41646
3.50211
2.76281
2.1684
1.69316
1.31531
1.01655
0.781639
0.59794
0.455078
0.34458
0.259581
0.194552
0.14507
0.107622
0.0794337
0.05833
0.042615
0.0309755
0.0224006
0.0161171
0.0115373
0.00821691
0.00582242
0.00410476
0.00287913
0.00200919
0.00139494
0.000963467
0.000661922
0.000452188
0.000306927
0.000206615
0.000137348
8.92209e-05
5.51266e-05
2.98604e-05
9.43931e-06
23.9995
70.7688
114.005
151.835
182.98
206.806
223.261
232.753
236.013
233.951
227.547
217.768
205.51
191.571
176.63
161.254
145.895
130.906
116.55
103.015
90.4253
78.8516
68.324
58.8394
50.3698
42.8686
36.2766
30.5263
25.5456
21.2608
17.5992
14.4901
11.8668
9.66701
7.83358
6.31461
5.0636
4.03929
3.20546
2.53058
1.98745
1.55283
1.207
0.93336
0.718042
0.549558
0.418447
0.316981
0.238888
0.179112
0.133606
0.0991513
0.0732059
0.0537735
0.0392978
0.0285723
0.0206682
0.0148745
0.0106503
0.00758699
0.00537724
0.00379172
0.00266009
0.00185669
0.0012893
0.00089066
0.000612004
0.000418154
0.000283869
0.00019112
0.000127064
8.25505e-05
5.10101e-05
2.76325e-05
8.73536e-06
19.2169
56.7568
91.7144
122.679
148.634
169.005
183.639
192.733
196.752
196.326
192.176
185.042
175.635
164.608
152.536
139.91
127.132
114.526
102.342
90.7636
79.9191
69.8898
60.7183
52.4163
44.9714
38.353
32.517
27.4106
22.9754
19.1504
15.8743
13.0868
10.7304
8.75098
7.09864
5.72771
4.59712
3.67027
2.91491
2.3029
1.80989
1.41503
1.10056
0.851538
0.655451
0.501909
0.382351
0.28977
0.218474
0.163873
0.122286
0.0907838
0.0670512
0.0492688
0.036017
0.0261948
0.0189538
0.0136443
0.00977202
0.006963
0.00493615
0.00348146
0.00244295
0.00170548
0.00118453
0.000818436
0.000562477
0.000384379
0.000260983
0.000175738
0.000116854
7.59266e-05
4.69217e-05
2.54197e-05
8.03613e-06
15.4527
45.698
74.0286
99.3733
120.929
138.199
150.993
159.385
163.662
164.262
161.708
156.563
149.387
140.706
131
120.684
110.112
99.5717
89.2933
79.4507
70.1701
61.5364
53.5998
46.3822
39.8827
34.083
28.9517
24.4482
20.5259
17.1347
14.2234
11.7412
9.63885
7.86978
6.39062
5.16155
4.14656
3.31343
2.63366
2.08229
1.63769
1.28126
0.99715
0.771989
0.594556
0.455522
0.347187
0.263246
0.198566
0.149004
0.111235
0.0826113
0.0610374
0.0448654
0.0328088
0.0238689
0.017276
0.0124401
0.00891195
0.0063518
0.00450397
0.0031774
0.00223009
0.00155721
0.00108177
0.000747584
0.00051388
0.000351233
0.000238518
0.000160636
0.000106828
6.94212e-05
4.29061e-05
2.3246e-05
7.34928e-06
12.4629
36.8952
59.8908
80.6312
98.4824
113.027
124.07
131.616
135.84
137.039
135.595
131.933
126.489
119.685
111.913
103.524
94.82
86.0542
77.4321
69.1142
61.2202
53.8343
47.0101
40.7759
35.1389
30.0902
25.6085
21.6631
18.2175
15.2309
12.6611
10.4654
8.60213
7.03148
5.71606
4.62141
3.71617
2.97216
2.36438
1.87086
1.47249
1.15281
0.897776
0.695485
0.535948
0.410846
0.3133
0.237669
0.179357
0.134649
0.100561
0.0747142
0.0552235
0.0406066
0.0297046
0.0216177
0.0156514
0.0112736
0.00807859
0.0057594
0.00408496
0.00288251
0.0020236
0.00141334
0.000982037
0.000678801
0.000466692
0.00031904
0.000216695
0.000145963
9.70853e-05
6.30984e-05
3.90027e-05
2.11329e-05
6.68148e-06
10.0713
29.8411
48.5225
65.4862
80.2322
92.4153
101.852
108.512
112.495
114.004
113.315
110.747
106.639
101.327
95.1285
88.3344
81.2008
73.9461
66.7513
59.7606
53.0846
46.8037
40.9717
35.6202
30.7621
26.3952
22.5059
19.0719
16.0646
13.4515
11.1979
9.26832
7.62771
6.24228
5.08007
4.11145
3.30929
2.64915
2.10922
1.6703
1.31563
1.03075
0.803257
0.62266
0.480117
0.368256
0.280974
0.213255
0.161011
0.120932
0.0903559
0.0671597
0.0496593
0.0365289
0.0267312
0.0194604
0.0140941
0.010155
0.00727915
0.00519092
0.00368275
0.00259936
0.00182527
0.00127512
0.000886197
0.000612687
0.000421323
0.000288082
0.000195704
0.000131847
8.77103e-05
5.70135e-05
3.52456e-05
1.90988e-05
6.03863e-06
8.14769
24.1591
39.3395
53.2027
65.3542
75.5114
83.5108
89.304
92.9448
94.5703
94.3797
92.6127
89.5301
85.3971
80.4706
74.9892
69.1672
63.1907
57.2164
51.3717
45.7566
40.4456
35.4906
30.9243
26.7628
23.009
19.6549
16.6848
14.0767
11.8049
9.84112
8.15622
6.72089
5.50664
4.48636
3.63472
2.92844
2.34643
1.86982
1.48193
1.16816
0.915877
0.714231
0.55401
0.427447
0.328049
0.250435
0.190176
0.143658
0.107949
0.080692
0.0600024
0.0443851
0.0326618
0.0239102
0.0174128
0.0126154
0.00909245
0.00651952
0.00465057
0.00330031
0.00233005
0.00163658
0.00114358
0.000794963
0.000549734
0.000378113
0.00025859
0.000175703
0.000118394
7.87738e-05
5.12121e-05
3.16631e-05
1.71591e-05
5.42558e-06
6.59414
19.5646
31.8968
43.2132
53.2026
61.6352
68.3695
73.3512
76.6052
78.2231
78.3484
77.1605
74.8599
71.6554
67.7525
63.3458
58.6129
53.7105
48.7727
43.9105
39.2123
34.7457
30.5595
26.6856
23.1418
19.9342
17.0593
14.506
12.2581
10.2953
8.59479
7.13277
5.88491
4.82738
3.93732
3.19324
2.57528
2.06538
1.64731
1.30666
1.03081
0.808785
0.63116
0.489899
0.37822
0.290442
0.221851
0.168561
0.127395
0.095775
0.0716249
0.0532835
0.0394315
0.0290282
0.0212582
0.0154871
0.0112241
0.00809238
0.00580427
0.00414161
0.00293997
0.00207622
0.00145868
0.00101953
0.000708899
0.000490332
0.000337331
0.000230747
0.000156817
0.000105688
7.03317e-05
4.57308e-05
2.82777e-05
1.53259e-05
4.84618e-06
5.33574
15.8393
25.8501
35.0743
43.2661
50.2397
55.875
60.1181
62.9765
64.5107
64.8238
64.0499
62.343
59.8662
56.7836
53.2527
49.4195
45.4147
41.3517
37.3259
33.4145
29.6778
26.1601
22.8919
19.8914
17.1665
14.7167
12.535
10.6092
8.92364
7.46017
6.19932
5.12114
4.20581
3.43416
2.78808
2.25076
1.8068
1.44234
1.14504
0.904022
0.70984
0.554339
0.430562
0.332622
0.255582
0.195336
0.148496
0.112289
0.0844602
0.063193
0.0470319
0.03482
0.0256439
0.0187871
0.0136919
0.00992661
0.00715934
0.00513671
0.00366641
0.00260342
0.00183907
0.00129241
0.000903556
0.000628418
0.000434769
0.000299174
0.000204691
0.000139137
9.37908e-05
6.24258e-05
4.05967e-05
2.51063e-05
1.36083e-05
4.30331e-06
4.31442
12.8133
20.9303
28.4361
35.1366
40.8821
45.5723
49.1569
51.6333
53.041
53.4538
52.9718
51.713
49.8047
47.377
44.5569
41.4634
38.2046
34.8757
31.5576
28.317
25.2066
22.2663
19.524
16.9976
14.6958
12.6203
10.7669
9.12687
7.68802
6.43607
5.35529
4.42937
3.64193
2.97702
2.41948
1.95512
1.57095
1.25518
0.997292
0.788004
0.61921
0.48391
0.376115
0.290748
0.223544
0.17095
0.130031
0.0983777
0.0740341
0.0554189
0.0412649
0.0305638
0.0225187
0.0165041
0.0120327
0.00872683
0.00629622
0.00451894
0.0032265
0.00229175
0.00161937
0.00113834
0.000796052
0.000553791
0.000383233
0.000263772
0.00018051
0.000122726
8.2745e-05
5.5084e-05
3.5828e-05
2.21601e-05
1.20126e-05
3.79886e-06
3.48458
10.3529
16.9243
23.0197
28.4858
33.2024
37.0863
40.0929
42.214
43.4747
43.9279
43.6484
42.7261
41.2603
39.3538
37.1082
34.6203
31.9787
29.2625
26.5398
23.8675
21.2912
18.846
16.5571
14.4412
12.5077
10.7592
9.19375
7.80507
6.58402
5.51933
4.59841
3.808
3.13464
2.56516
2.08692
1.68805
1.35763
1.0857
0.863361
0.682725
0.53689
0.419881
0.326573
0.252616
0.194347
0.14871
0.113178
0.0856734
0.0645065
0.0483105
0.0359888
0.0266678
0.0196566
0.0144123
0.0105117
0.00762655
0.00550435
0.00395194
0.00282258
0.00200547
0.00141751
0.000996726
0.000697211
0.000485158
0.000335821
0.000231195
0.000158253
0.000107617
7.25729e-05
4.83215e-05
3.14347e-05
1.94455e-05
1.05421e-05
3.334e-06
2.81003
8.35164
13.6621
18.6011
23.0477
26.9057
30.1069
32.6123
34.4114
35.5196
35.9748
35.8325
35.1617
34.0392
32.546
30.7634
28.7691
26.6357
24.4284
22.204
20.0104
17.8866
15.8632
13.9626
12.2
10.5845
9.11967
7.8048
6.63567
5.6054
4.70521
3.92509
3.25432
2.68193
2.19707
1.7893
1.44874
1.16624
0.933473
0.742933
0.587964
0.462723
0.36214
0.281859
0.218171
0.167952
0.128591
0.0979212
0.0741647
0.0558702
0.0418633
0.0312008
0.0231303
0.0170565
0.0125111
0.00912862
0.00662559
0.00478365
0.00343569
0.00245468
0.00174463
0.00123352
0.000867602
0.000607058
0.000422538
0.000292551
0.000201456
0.000137928
9.38169e-05
6.32796e-05
4.21417e-05
2.74192e-05
1.6964e-05
9.19769e-06
2.90901e-06
2.26185
6.72441
11.0067
14.999
18.6057
21.7501
24.3766
26.4519
27.9648
28.9244
29.3577
29.3061
28.8219
27.9649
26.7988
25.3877
23.7945
22.0779
20.2912
18.4815
16.6888
14.9464
13.2802
11.7099
10.2492
8.90659
7.68601
6.58771
5.6089
4.74451
3.98776
3.33072
2.76478
2.28106
1.87068
1.52503
1.23597
0.995881
0.797817
0.6355
0.503342
0.396428
0.310481
0.241819
0.187302
0.14428
0.110532
0.0842182
0.0638212
0.0481033
0.0360617
0.0268896
0.0199434
0.0147129
0.0107966
0.00788078
0.0057221
0.00413285
0.00296932
0.00212219
0.0015088
0.00106711
0.000750782
0.000525469
0.000365848
0.000253367
0.000174517
0.000119513
8.13092e-05
5.48548e-05
3.65383e-05
2.37775e-05
1.4713e-05
7.97805e-06
2.52339e-06
1.81668
5.40238
8.84746
12.0659
14.9824
17.536
19.6814
21.3909
22.6535
23.4741
23.8718
23.8776
23.5313
22.879
21.9707
20.8571
19.5885
18.2121
16.7715
15.3053
13.8468
12.4238
11.0583
9.76737
8.56302
7.45302
6.44138
5.52893
4.71397
3.9928
3.3602
2.80996
2.33521
1.92877
1.58344
1.29217
1.04824
0.845396
0.677852
0.540392
0.428353
0.337624
0.264617
0.20624
0.15985
0.123211
0.0944486
0.0720049
0.054596
0.0411718
0.0308808
0.0230376
0.0170944
0.0126166
0.0092622
0.00676355
0.0049128
0.00354965
0.00255122
0.00182399
0.00129722
0.000917754
0.000645896
0.00045219
0.000314916
0.000218152
0.000150299
0.000102953
7.00591e-05
4.72752e-05
3.14958e-05
2.04997e-05
1.26865e-05
6.87994e-06
2.17619e-06
1.45561
4.32966
7.094
9.68125
12.0322
14.0984
15.8434
17.244
18.2903
18.9845
19.3401
19.3801
19.1349
18.64
17.9344
17.0582
16.0513
14.9517
13.7947
12.6117
11.4302
10.2733
9.15955
8.10342
7.11541
6.20243
5.36835
4.61436
3.93949
3.3411
2.81523
2.35702
1.96101
1.62145
1.33252
1.08848
0.883846
0.713455
0.572554
0.456825
0.362398
0.285854
0.224204
0.174863
0.13562
0.104601
0.080231
0.0612012
0.0464299
0.0350322
0.0262891
0.0196216
0.0145664
0.0107556
0.00789938
0.00577073
0.0041933
0.00303092
0.00217919
0.00155854
0.0011088
0.000784703
0.000552425
0.000386865
0.000269498
0.00018674
0.00012869
8.81727e-05
6.00152e-05
4.05065e-05
2.69918e-05
1.75712e-05
1.08758e-05
5.89862e-06
1.86592e-06
1.16322
3.46071
5.67262
7.74627
9.63513
11.3007
12.714
13.8557
14.7171
15.2988
15.6103
15.6688
15.4971
15.1228
14.5762
13.8888
13.0923
12.217
11.2912
10.3407
9.3877
8.45135
7.54716
6.68731
5.88077
5.13366
4.44953
3.82975
3.27389
2.78007
2.34531
1.96584
1.63736
1.35528
1.11491
0.911612
0.740917
0.598614
0.480804
0.383933
0.304811
0.240611
0.188853
0.147393
0.11439
0.0882821
0.0677552
0.0517143
0.0392545
0.0296339
0.0222494
0.0166146
0.0123398
0.00911564
0.00669778
0.00489494
0.00355831
0.00257293
0.00185057
0.00132398
0.000942242
0.000667041
0.000469737
0.000329056
0.000229292
0.000158924
0.000109549
7.50768e-05
5.11135e-05
3.4506e-05
2.2998e-05
1.4974e-05
9.26963e-06
5.02802e-06
1.59059e-06
0.926934
2.75824
4.52287
6.17963
7.69206
9.02975
10.1694
11.0956
11.8004
12.2837
12.5521
12.6184
12.4998
12.2177
11.7954
11.2578
10.6297
9.93546
9.19762
8.43691
7.67154
6.91709
6.18642
5.48969
4.83452
4.2262
3.66793
3.16113
2.7057
2.30037
1.94289
1.63036
1.3594
1.12637
0.927516
0.759111
0.617535
0.499367
0.401427
0.320807
0.254892
0.201355
0.158154
0.123518
0.0959232
0.0740764
0.0568867
0.0434439
0.032995
0.0249217
0.018721
0.0139866
0.0103928
0.00768081
0.00564596
0.00412795
0.00300195
0.00217147
0.00156239
0.0011182
0.00079606
0.000563737
0.000397113
0.000278265
0.000193955
0.000134468
9.27161e-05
6.35566e-05
4.32806e-05
2.92246e-05
1.94819e-05
1.2687e-05
7.85505e-06
4.26116e-06
1.34806e-06
0.736412
2.19169
3.59506
4.91441
6.12118
7.19142
8.10665
8.85423
9.42761
9.82604
10.0542
10.1214
10.0409
9.82888
9.50361
9.0844
8.59085
8.04213
7.45632
6.85001
6.23792
5.63273
5.04498
4.4831
3.95347
3.46061
3.00735
2.59506
2.22388
1.89294
1.60058
1.34457
1.12228
0.930837
0.76725
0.628529
0.511766
0.414194
0.333234
0.266522
0.211922
0.167533
0.131681
0.102912
0.0799729
0.0617972
0.0474853
0.036285
0.0275731
0.0208374
0.0156609
0.0117061
0.00870237
0.00643437
0.00473178
0.003461
0.00251793
0.00182205
0.00131146
0.00093894
0.000668671
0.00047368
0.000333778
0.000233955
0.000163117
0.00011312
7.8017e-05
5.34938e-05
3.64367e-05
2.4609e-05
1.64084e-05
1.06874e-05
6.618e-06
3.59049e-06
1.13596e-06
0.58319
1.73594
2.84836
3.89543
4.85485
5.70781
6.43966
7.04026
7.5041
7.83021
8.0218
8.08581
8.03223
7.87349
7.62366
7.29779
6.91126
6.47915
6.01584
5.53456
5.04713
4.5638
4.09317
3.64216
3.21607
2.81872
2.45257
2.11889
1.81793
1.54914
1.31131
1.10274
0.921365
0.764945
0.631109
0.517474
0.421712
0.341598
0.275052
0.220159
0.175189
0.138594
0.109011
0.0852518
0.0662917
0.0512571
0.0394096
0.0301313
0.0229094
0.0173221
0.0130255
0.00974091
0.00724485
0.00535912
0.00394275
0.00288507
0.00209977
0.00152004
0.00109449
0.000783877
0.000558432
0.000395717
0.000278929
0.000195569
0.000136393
9.46134e-05
6.52706e-05
4.47653e-05
3.04988e-05
2.06031e-05
1.37403e-05
8.95122e-06
5.54369e-06
3.00797e-06
9.51738e-07
0.460314
1.37037
2.24915
3.07721
3.83716
4.51429
5.09703
5.57727
5.95047
6.21559
6.37482
6.43329
6.39856
6.28011
6.08879
5.83628
5.53458
5.19556
4.83055
4.45006
4.06355
3.67925
3.30411
2.94378
2.60263
2.28385
1.98953
1.72083
1.47807
1.26091
1.06845
0.899423
0.752235
0.625125
0.516227
0.423655
0.345551
0.280138
0.225744
0.180831
0.144001
0.114002
0.0897296
0.0702191
0.054637
0.0422714
0.03252
0.0248778
0.0189254
0.0143173
0.0107714
0.00805912
0.00599681
0.00443792
0.00326643
0.00239117
0.00174101
0.00126081
0.000908168
0.000650664
0.00046369
0.000328688
0.000231756
0.000162542
0.000113393
7.86804e-05
5.42934e-05
3.72462e-05
2.53821e-05
1.71504e-05
1.14401e-05
7.45406e-06
4.61717e-06
2.50551e-06
7.92784e-07
0.362072
1.07804
1.76979
2.42227
3.02195
3.55736
4.01939
4.40161
4.70031
4.91445
5.04556
5.0974
5.07567
4.98759
4.84152
4.64649
4.41182
4.14681
3.86036
3.56079
3.2556
2.95138
2.65371
2.36717
2.09533
1.84082
1.60542
1.39013
1.19531
1.02076
0.865845
0.729589
0.610779
0.508042
0.419917
0.344915
0.281563
0.228448
0.184235
0.147691
0.117696
0.0932425
0.0734398
0.0575087
0.0447752
0.0346626
0.0266819
0.0204232
0.015545
0.0117661
0.00885646
0.00662959
0.00493538
0.00365404
0.00269063
0.00197048
0.00143527
0.0010398
0.000749251
0.000536997
0.000382817
0.00027145
0.000191458
0.00013432
9.37318e-05
6.50561e-05
4.49039e-05
3.08127e-05
2.10029e-05
1.41947e-05
9.47038e-06
6.17181e-06
3.82352e-06
2.07507e-06
6.56595e-07
0.28378
0.845028
1.38758
1.89979
2.37118
2.79282
3.15758
3.46038
3.69821
3.87013
3.97715
4.02207
4.00915
3.94391
3.83273
3.68258
3.50069
3.29431
3.0704
2.8355
2.59555
2.35578
2.12065
1.89384
1.67825
1.47604
1.28868
1.11706
0.961506
0.821928
0.697873
0.588612
0.493217
0.410624
0.339694
0.279256
0.228151
0.185258
0.149518
0.119949
0.0956564
0.0758342
0.0597684
0.046833
0.0364859
0.0282623
0.0217678
0.016671
0.0126958
0.00961449
0.00724054
0.00542257
0.00403869
0.00299148
0.0022037
0.00161454
0.00117648
0.000852643
0.000614616
0.000440659
0.000314246
0.0002229
0.000157265
0.000110365
7.70374e-05
5.3484e-05
3.69262e-05
2.53449e-05
1.728e-05
1.16812e-05
7.7951e-06
5.08097e-06
3.14819e-06
1.70875e-06
5.40732e-07
0.2216
0.659939
1.08388
1.48445
1.85353
2.18421
2.47095
2.70972
2.89813
3.03533
3.12201
3.16021
3.15315
3.105
3.02064
2.90543
2.76496
2.60484
2.43051
2.24709
2.05923
1.87109
1.68619
1.50749
1.33732
1.17744
1.02905
0.892915
0.76934
0.658298
0.55947
0.472314
0.396123
0.330077
0.273292
0.224853
0.18385
0.149401
0.120668
0.0968752
0.0773095
0.0613307
0.0483691
0.0379248
0.0295638
0.0229139
0.0176585
0.0135312
0.0103102
0.00781187
0.00588591
0.00441016
0.00328616
0.00243515
0.00179464
0.00131539
0.000958872
0.000695197
0.000501307
0.000359547
0.00025649
0.000181993
0.000128443
9.01654e-05
6.2956e-05
4.37199e-05
3.0193e-05
2.07287e-05
1.41361e-05
9.55808e-06
6.3796e-06
4.15909e-06
2.57737e-06
1.39905e-06
4.42776e-07
0.172391
0.513441
0.843435
1.15547
1.4433
1.70158
1.926
2.11342
2.26192
2.37079
2.44048
2.47248
2.4692
2.43379
2.36999
2.2819
2.1738
2.05005
1.91486
1.77222
1.62578
1.47879
1.33406
1.19392
1.06023
0.934419
0.817474
0.710019
0.612341
0.52445
0.446124
0.376961
0.316426
0.263892
0.218672
0.180058
0.147338
0.11982
0.0968475
0.0778062
0.0621344
0.0493247
0.0389254
0.0305392
0.0238208
0.0184734
0.0142444
0.010921
0.00832569
0.00631143
0.00475771
0.00356651
0.00265873
0.00197108
0.00145324
0.00106559
0.000777085
0.000563613
0.00040657
0.000291702
0.000208162
0.000147749
0.000104308
7.3245e-05
5.11565e-05
3.55355e-05
2.45473e-05
1.6857e-05
1.14985e-05
7.77642e-06
5.19144e-06
3.38508e-06
2.09805e-06
1.13899e-06
3.60492e-07
0.133591
0.397917
0.653778
0.89588
1.11943
1.32031
1.4952
1.64164
1.75811
1.84402
1.89965
1.9261
1.92517
1.89924
1.85115
1.78402
1.70114
1.60587
1.50145
1.39099
1.27733
1.16301
1.05022
0.940827
0.836296
0.737767
0.646047
0.56165
0.484829
0.415613
0.353853
0.299252
0.251408
0.209839
0.174021
0.143403
0.117432
0.09557
0.0773015
0.0621461
0.0496618
0.0394491
0.0311515
0.024455
0.0190863
0.0148102
0.0114261
0.00876494
0.00668544
0.00507054
0.00382414
0.00286801
0.00213899
0.00158645
0.00117015
0.000858363
0.000626207
0.000454353
0.000327873
0.000235321
0.000167984
0.000119271
8.42288e-05
5.91631e-05
4.13331e-05
2.87197e-05
1.98443e-05
1.36307e-05
9.30004e-06
6.29101e-06
4.20067e-06
2.73952e-06
1.69818e-06
9.22028e-07
2.91825e-07
0.103116
0.307169
0.50476
0.691845
0.864758
1.02034
1.15602
1.26991
1.36081
1.42823
1.47235
1.49396
1.49442
1.47551
1.43937
1.38839
1.32509
1.25203
1.17171
1.08653
0.998689
0.910164
0.822677
0.737673
0.656324
0.579532
0.507946
0.441985
0.381867
0.327634
0.279184
0.236301
0.198682
0.165963
0.137741
0.113591
0.0930878
0.0758118
0.0613627
0.0493654
0.0394744
0.0313766
0.0247922
0.0194744
0.0152079
0.0118073
0.00911431
0.00699526
0.00533834
0.00405083
0.00305654
0.00229339
0.00171119
0.0012697
0.000936915
0.000687546
0.000501784
0.000364212
0.000262919
0.000188768
0.000134797
9.57383e-05
6.76312e-05
4.75189e-05
3.32076e-05
2.308e-05
1.59517e-05
1.09597e-05
7.47936e-06
5.06053e-06
3.37974e-06
2.20453e-06
1.36676e-06
7.42172e-07
2.34916e-07
0.0792734
0.236162
0.388135
0.532113
0.665299
0.785278
0.890083
0.978251
1.04885
1.10147
1.13623
1.15372
1.15492
1.14118
1.11412
1.07555
1.02738
0.971575
0.910047
0.844636
0.777044
0.7088
0.641242
0.575498
0.512487
0.452922
0.39732
0.346022
0.29921
0.256929
0.219113
0.185606
0.15618
0.13056
0.108439
0.0894921
0.0733909
0.0598119
0.048445
0.0389989
0.0312049
0.0248189
0.0196225
0.0154225
0.0120506
0.00936114
0.00722992
0.00555186
0.00423895
0.00321815
0.00242939
0.00182365
0.0013613
0.00101051
0.000745964
0.000547636
0.000399828
0.000290316
0.00020965
0.000150574
0.000107559
7.64168e-05
5.39987e-05
3.79516e-05
2.65291e-05
1.84434e-05
1.27503e-05
8.76233e-06
5.98117e-06
4.04772e-06
2.70385e-06
1.764e-06
1.0938e-06
5.94e-07
1.88037e-07
0.0606948
0.180828
0.297233
0.407575
0.509728
0.601853
0.682448
0.750389
0.804951
0.845811
0.873032
0.887038
0.888569
0.878633
0.858444
0.829367
0.792855
0.750396
0.703456
0.653441
0.601657
0.549283
0.497351
0.446738
0.398161
0.352179
0.309201
0.269502
0.23323
0.200433
0.171067
0.145018
0.122119
0.102162
0.0849143
0.0701275
0.0575501
0.0469336
0.0380391
0.0306417
0.0245331
0.0195243
0.0154456
0.0121466
0.00949618
0.00738081
0.00570343
0.00438189
0.00334731
0.00254244
0.00192018
0.00144206
0.00107692
0.000799746
0.000590615
0.00043376
0.000316807
0.000230119
0.000166237
0.000119435
8.53434e-05
6.06526e-05
4.28722e-05
3.01404e-05
2.10748e-05
1.46554e-05
1.01342e-05
6.96616e-06
4.75619e-06
3.21943e-06
2.15097e-06
1.40355e-06
8.70419e-07
4.72735e-07
1.49638e-07
0.0462778
0.137884
0.226674
0.310881
0.388897
0.459327
0.521028
0.573141
0.615105
0.646664
0.667853
0.678978
0.680586
0.673429
0.658417
0.636578
0.609009
0.576837
0.541176
0.503098
0.463598
0.423582
0.383844
0.345061
0.307788
0.27246
0.239401
0.208827
0.180862
0.155548
0.132859
0.112712
0.0949834
0.0795179
0.0661392
0.0546593
0.0448862
0.0366299
0.0297071
0.0239449
0.019183
0.0152756
0.0120913
0.00951413
0.00744217
0.00578741
0.00447445
0.0034394
0.00262861
0.0019975
0.0015093
0.00113398
0.000847212
0.000629423
0.000465017
0.00034165
0.000249626
0.000181386
0.000131078
9.42064e-05
6.73379e-05
4.78713e-05
3.38479e-05
2.38029e-05
1.66481e-05
1.15802e-05
8.00974e-06
5.50711e-06
3.76087e-06
2.54627e-06
1.70157e-06
1.11045e-06
6.88763e-07
3.74119e-07
1.18415e-07
0.035137
0.104696
0.172136
0.236125
0.29545
0.349057
0.396081
0.435868
0.467988
0.492237
0.508634
0.517399
0.518936
0.513803
0.502681
0.486339
0.465605
0.441327
0.414349
0.385483
0.355487
0.32505
0.294782
0.265201
0.236735
0.209723
0.184416
0.160986
0.139532
0.120091
0.102648
0.0871443
0.0734891
0.0615659
0.0512422
0.0423762
0.0348219
0.0284349
0.0230752
0.0186106
0.0149184
0.0118865
0.00941403
0.00741153
0.00580056
0.00451315
0.00349104
0.00268479
0.00205286
0.0015607
0.00117979
0.000886797
0.000662814
0.000492628
0.000364097
0.000267606
0.000195598
0.000142178
0.00010278
7.38931e-05
5.28351e-05
3.75726e-05
2.6574e-05
1.8693e-05
1.30778e-05
9.09906e-06
6.29515e-06
4.32929e-06
2.9572e-06
2.00255e-06
1.33849e-06
8.73653e-07
5.41951e-07
2.94413e-07
9.31954e-08
0.0265648
0.0791586
0.130163
0.178578
0.223493
0.264116
0.299792
0.330027
0.354493
0.373031
0.385647
0.3925
0.393887
0.390222
0.382012
0.369831
0.354299
0.336054
0.315731