/*--------------------------------*- C++ -*----------------------------------*\
  =========                 |
  \\      /  F ield         | OpenFOAM: The Open Source CFD Toolbox
   \\    /   O peration     | Website:  https://openfoam.org
    \\  /    A nd           | Version:  10
     \\/     M anipulation  |
\*---------------------------------------------------------------------------*/
FoamFile
{
    format      ascii;
    class       volScalarField;
    location    "261";
    object      T;
}
// * * * * * * * * * * * * * * * * * * * * * * * * * * * * * * * * * * * * * //

dimensions      [0 0 0 1 0 0 0];

internalField   nonuniform List<scalar> 
11250
(
249.796
167.42
139.135
126.637
119.788
115.425
112.363
110.075
108.295
106.868
105.703
104.739
103.935
103.261
102.695
102.218
101.819
101.484
101.204
100.972
100.78
100.623
100.494
100.389
100.304
100.237
100.183
100.14
100.107
100.081
100.061
100.045
100.033
100.025
100.018
100.013
100.009
100.007
100.005
100.003
100.002
100.002
100.001
100.001
100.001
100
100
100
100
100
100
100
100
100
100
100
100
100
100
100
100
100
100
100
100
100
100
100
100
100
100
100
100
100
100
331.362
248.177
201.635
174.286
156.906
145.006
136.351
129.761
124.573
120.387
116.954
114.104
111.721
109.719
108.035
106.617
105.427
104.429
103.596
102.903
102.33
101.86
101.475
101.162
100.909
100.707
100.546
100.419
100.319
100.241
100.181
100.135
100.1
100.073
100.054
100.039
100.028
100.02
100.014
100.01
100.007
100.005
100.003
100.002
100.002
100.001
100.001
100
100
100
100
100
100
100
100
100
100
100
100
100
100
100
100
100
100
100
100
100
100
100
100
100
100
100
100
358.845
292.322
244.993
212.036
188.63
171.444
158.387
148.168
139.977
133.29
127.757
123.138
119.258
115.989
113.231
110.905
108.949
107.307
105.935
104.794
103.85
103.073
102.437
101.921
101.504
101.169
100.903
100.693
100.528
100.399
100.3
100.224
100.166
100.122
100.089
100.064
100.046
100.033
100.023
100.016
100.011
100.008
100.005
100.004
100.003
100.002
100.001
100.001
100
100
100
100
100
100
100
100
100
100
100
100
100
100
100
100
100
100
100
100
100
100
100
100
100
100
100
370.559
317.325
274.062
240.351
214.276
193.919
177.773
164.752
154.092
145.26
137.873
131.657
126.406
121.96
118.197
115.016
112.333
110.079
108.192
106.621
105.319
104.247
103.37
102.657
102.081
101.618
101.25
100.959
100.731
100.553
100.415
100.31
100.229
100.169
100.123
100.089
100.064
100.046
100.032
100.023
100.016
100.011
100.008
100.005
100.004
100.002
100.002
100.001
100.001
100
100
100
100
100
100
100
100
100
100
100
100
100
100
100
100
100
100
100
100
100
100
100
100
100
100
376.647
332.428
293.695
261.187
234.402
212.414
194.294
179.256
166.68
156.093
147.133
139.525
133.053
127.546
122.865
118.894
115.537
112.709
110.338
108.361
106.722
105.37
104.263
103.362
102.634
102.05
101.584
101.216
100.926
100.701
100.527
100.393
100.291
100.214
100.156
100.113
100.081
100.058
100.041
100.029
100.02
100.014
100.01
100.007
100.004
100.003
100.002
100.001
100.001
100.001
100
100
100
100
100
100
100
100
100
100
100
100
100
100
100
100
100
100
100
100
100
100
100
100
100
380.278
342.137
307.25
276.505
249.982
227.337
208.064
191.656
177.659
165.691
155.441
146.655
139.127
132.683
127.181
122.496
118.524
115.169
112.352
109.998
108.044
106.43
105.107
104.03
103.159
102.459
101.901
101.459
101.112
100.842
100.633
100.472
100.35
100.257
100.188
100.136
100.098
100.07
100.049
100.035
100.024
100.017
100.012
100.008
100.005
100.004
100.002
100.002
100.001
100.001
100
100
100
100
100
100
100
100
100
100
100
100
100
100
100
100
100
100
100
100
100
100
100
100
100
382.641
348.703
316.843
287.842
261.989
239.24
219.369
202.079
187.066
174.045
162.765
153.008
144.585
137.333
131.111
125.794
121.27
117.44
114.216
111.518
109.274
107.419
105.896
104.655
103.65
102.843
102.198
101.688
101.287
100.975
100.733
100.547
100.405
100.298
100.217
100.158
100.113
100.081
100.057
100.04
100.028
100.02
100.013
100.009
100.006
100.004
100.003
100.002
100.001
100.001
100.001
100
100
100
100
100
100
100
100
100
100
100
100
100
100
100
100
100
100
100
100
100
100
100
100
384.267
353.315
323.786
296.315
271.245
248.677
228.554
210.729
195.013
181.209
169.126
158.583
149.418
141.483
134.641
128.771
123.761
119.508
115.92
112.911
110.404
108.33
106.625
105.233
104.106
103.199
102.475
101.901
101.45
101.098
100.826
100.616
100.457
100.336
100.245
100.178
100.128
100.091
100.065
100.046
100.032
100.022
100.015
100.01
100.007
100.005
100.003
100.002
100.001
100.001
100.001
100
100
100
100
100
100
100
100
100
100
100
100
100
100
100
100
100
100
100
100
100
100
100
100
385.428
356.65
328.904
302.709
278.397
256.137
235.967
217.838
201.651
187.277
174.578
163.412
153.642
145.136
137.769
131.425
125.992
121.369
117.458
114.173
111.432
109.159
107.29
105.762
104.523
103.526
102.729
102.098
101.601
101.213
100.912
100.681
100.505
100.371
100.271
100.197
100.141
100.101
100.072
100.05
100.035
100.024
100.017
100.011
100.008
100.005
100.003
100.002
100.002
100.001
100.001
100
100
100
100
100
100
100
100
100
100
100
100
100
100
100
100
100
100
100
100
100
100
100
100
386.278
359.111
332.734
307.574
283.941
262.025
241.92
223.639
207.145
192.363
179.199
167.545
157.287
148.313
140.507
133.761
127.966
123.022
118.831
115.303
112.354
109.906
107.89
106.24
104.902
103.823
102.961
102.276
101.738
101.317
100.991
100.74
100.549
100.404
100.295
100.214
100.154
100.11
100.078
100.055
100.038
100.027
100.018
100.012
100.008
100.006
100.004
100.003
100.002
100.001
100.001
100
100
100
100
100
100
100
100
100
100
100
100
100
100
100
100
100
100
100
100
100
100
100
100
386.912
360.954
335.631
311.303
288.249
266.669
246.682
228.344
211.657
196.588
183.077
171.045
160.4
151.045
142.877
135.794
129.693
124.475
120.042
116.303
113.173
110.572
108.426
106.669
105.241
104.09
103.169
102.437
101.861
101.411
101.062
100.793
100.588
100.433
100.316
100.229
100.165
100.118
100.084
100.059
100.041
100.029
100.02
100.013
100.009
100.006
100.004
100.003
100.002
100.001
100.001
100
100
100
100
100
100
100
100
100
100
100
100
100
100
100
100
100
100
100
100
100
100
100
100
387.39
362.35
337.842
314.175
291.606
270.33
250.482
232.14
215.338
200.07
186.303
173.981
163.031
153.37
144.907
137.545
131.188
125.737
121.098
117.179
113.893
111.158
108.899
107.048
105.542
104.327
103.354
102.581
101.972
101.495
101.126
100.841
100.624
100.459
100.336
100.244
100.175
100.125
100.089
100.063
100.044
100.03
100.021
100.014
100.01
100.007
100.004
100.003
100.002
100.001
100.001
100.001
100
100
100
100
100
100
100
100
100
100
100
100
100
100
100
100
100
100
100
100
100
100
100
387.753
363.416
339.538
316.395
294.224
273.213
253.504
235.19
218.322
202.919
188.965
176.422
165.235
155.33
146.627
139.038
132.468
126.823
122.011
117.938
114.518
111.669
109.313
107.38
105.806
104.535
103.517
102.708
102.069
101.57
101.182
100.884
100.656
100.483
100.353
100.256
100.184
100.132
100.094
100.066
100.046
100.032
100.022
100.015
100.01
100.007
100.005
100.003
100.002
100.001
100.001
100.001
100
100
100
100
100
100
100
100
100
100
100
100
100
100
100
100
100
100
100
100
100
100
100
388.032
364.233
340.845
318.116
296.267
275.481
255.901
237.629
220.73
205.235
191.145
178.436
167.064
156.967
148.073
140.297
133.553
127.748
122.79
118.589
115.057
112.11
109.671
107.668
106.036
104.717
103.66
102.819
102.155
101.635
101.232
100.921
100.684
100.504
100.368
100.267
100.192
100.138
100.098
100.069
100.048
100.033
100.023
100.016
100.011
100.007
100.005
100.003
100.002
100.001
100.001
100.001
100
100
100
100
100
100
100
100
100
100
100
100
100
100
100
100
100
100
100
100
100
100
100
388.245
364.862
341.854
319.451
297.862
277.263
257.797
239.572
222.661
207.106
192.918
180.084
168.57
158.323
149.275
141.351
134.465
128.528
123.451
119.142
115.516
112.487
109.978
107.915
106.234
104.874
103.783
102.915
102.229
101.692
101.275
100.954
100.708
100.522
100.381
100.277
100.199
100.143
100.101
100.071
100.05
100.035
100.024
100.016
100.011
100.007
100.005
100.003
100.002
100.001
100.001
100.001
100
100
100
100
100
100
100
100
100
100
100
100
100
100
100
100
100
100
100
100
100
100
100
388.41
365.347
342.633
320.487
299.105
278.659
259.292
241.114
224.203
208.609
194.351
181.424
169.801
159.436
150.268
142.224
135.223
129.18
124.004
119.608
115.903
112.806
110.238
108.126
106.403
105.008
103.888
102.997
102.293
101.741
101.312
100.982
100.729
100.537
100.393
100.285
100.206
100.147
100.104
100.073
100.051
100.036
100.025
100.017
100.011
100.008
100.005
100.003
100.002
100.001
100.001
100.001
100
100
100
100
100
100
100
100
100
100
100
100
100
100
100
100
100
100
100
100
100
100
100
388.536
365.721
343.236
321.29
300.072
279.751
260.467
242.332
225.428
209.809
195.501
182.505
170.799
160.343
151.08
142.942
135.85
129.72
124.464
119.996
116.226
113.073
110.457
108.303
106.545
105.121
103.978
103.067
102.347
101.783
101.344
101.006
100.747
100.551
100.403
100.293
100.211
100.151
100.107
100.075
100.053
100.037
100.025
100.017
100.012
100.008
100.005
100.003
100.002
100.001
100.001
100.001
100
100
100
100
100
100
100
100
100
100
100
100
100
100
100
100
100
100
100
100
100
100
100
388.634
366.009
343.701
321.911
300.823
280.602
261.387
243.289
226.396
210.762
196.419
183.371
171.603
161.077
151.74
143.527
136.362
130.163
124.843
120.316
116.495
113.296
110.639
108.451
106.664
105.216
104.053
103.126
102.393
101.818
101.371
101.026
100.762
100.562
100.411
100.299
100.215
100.154
100.109
100.077
100.054
100.037
100.026
100.018
100.012
100.008
100.005
100.004
100.002
100.002
100.001
100.001
100
100
100
100
100
100
100
100
100
100
100
100
100
100
100
100
100
100
100
100
100
100
100
388.709
366.23
344.059
322.391
301.405
281.263
262.104
244.039
227.156
211.514
197.146
184.061
172.245
161.665
152.271
144
136.778
130.524
125.153
120.579
116.715
113.478
110.789
108.574
106.763
105.295
104.115
103.175
102.431
101.847
101.393
101.043
100.775
100.571
100.418
100.304
100.219
100.157
100.111
100.078
100.055
100.038
100.026
100.018
100.012
100.008
100.005
100.004
100.002
100.002
100.001
100.001
100
100
100
100
100
100
100
100
100
100
100
100
100
100
100
100
100
100
100
100
100
100
100
388.766
366.4
344.335
322.76
301.854
281.775
262.661
244.623
227.751
212.105
197.719
184.607
172.755
162.134
152.696
144.38
137.112
130.815
125.404
120.792
116.894
113.628
110.913
108.674
106.844
105.36
104.167
103.215
102.462
101.872
101.412
101.057
100.786
100.579
100.424
100.308
100.222
100.159
100.113
100.08
100.056
100.039
100.027
100.018
100.012
100.008
100.006
100.004
100.002
100.002
100.001
100.001
100
100
100
100
100
100
100
100
100
100
100
100
100
100
100
100
100
100
100
100
100
100
100
388.81
366.53
344.546
323.044
302.199
282.17
263.091
245.076
228.214
212.565
198.168
185.035
173.157
162.505
153.034
144.682
137.38
131.048
125.605
120.964
117.039
113.749
111.012
108.756
106.91
105.413
104.209
103.248
102.488
101.892
101.427
101.069
100.794
100.586
100.429
100.312
100.225
100.161
100.114
100.08
100.056
100.039
100.027
100.018
100.012
100.008
100.006
100.004
100.002
100.002
100.001
100.001
100
100
100
100
100
100
100
100
100
100
100
100
100
100
100
100
100
100
100
100
100
100
100
388.844
366.63
344.707
323.26
302.464
282.472
263.422
245.426
228.572
212.923
198.518
185.37
173.472
162.797
153.299
144.921
137.591
131.234
125.765
121.101
117.155
113.846
111.093
108.822
106.964
105.456
104.243
103.275
102.509
101.908
101.44
101.078
100.802
100.591
100.433
100.315
100.227
100.162
100.115
100.081
100.057
100.039
100.027
100.019
100.013
100.008
100.006
100.004
100.002
100.002
100.001
100.001
100
100
100
100
100
100
100
100
100
100
100
100
100
100
100
100
100
100
100
100
100
100
100
388.869
366.705
344.829
323.425
302.665
282.704
263.676
245.694
228.847
213.199
198.788
185.629
173.717
163.024
153.507
145.108
137.758
131.38
125.892
121.209
117.247
113.923
111.157
108.874
107.006
105.49
104.271
103.297
102.526
101.921
101.45
101.086
100.807
100.596
100.436
100.317
100.229
100.164
100.116
100.082
100.057
100.04
100.027
100.019
100.013
100.009
100.006
100.004
100.003
100.002
100.001
100.001
100
100
100
100
100
100
100
100
100
100
100
100
100
100
100
100
100
100
100
100
100
100
100
388.889
366.762
344.922
323.55
302.818
282.879
263.869
245.899
229.058
213.41
198.995
185.829
173.906
163.2
153.668
145.254
137.888
131.494
125.991
121.295
117.32
113.984
111.207
108.916
107.04
105.518
104.292
103.314
102.54
101.932
101.458
101.092
100.812
100.599
100.439
100.319
100.23
100.165
100.117
100.082
100.058
100.04
100.028
100.019
100.013
100.009
100.006
100.004
100.003
100.002
100.001
100.001
100
100
100
100
100
100
100
100
100
100
100
100
100
100
100
100
100
100
100
100
100
100
100
388.903
366.805
344.992
323.645
302.934
283.012
264.015
246.054
229.218
213.571
199.154
185.983
174.051
163.336
153.793
145.366
137.988
131.583
126.069
121.361
117.376
114.031
111.247
108.948
107.067
105.539
104.31
103.328
102.55
101.94
101.464
101.097
100.816
100.602
100.441
100.32
100.231
100.165
100.118
100.083
100.058
100.04
100.028
100.019
100.013
100.009
100.006
100.004
100.003
100.002
100.001
100.001
100
100
100
100
100
100
100
100
100
100
100
100
100
100
100
100
100
100
100
100
100
100
100
388.914
366.837
345.044
323.715
303.02
283.112
264.125
246.171
229.339
213.693
199.274
186.099
174.162
163.439
153.888
145.453
138.066
131.651
126.128
121.413
117.42
114.068
111.278
108.974
107.088
105.556
104.323
103.338
102.559
101.946
101.469
101.101
100.819
100.604
100.442
100.322
100.232
100.166
100.118
100.083
100.058
100.04
100.028
100.019
100.013
100.009
100.006
100.004
100.003
100.002
100.001
100.001
100
100
100
100
100
100
100
100
100
100
100
100
100
100
100
100
100
100
100
100
100
100
100
388.922
366.861
345.083
323.768
303.085
283.187
264.208
246.259
229.43
213.785
199.365
186.187
174.246
163.517
153.96
145.518
138.125
131.703
126.174
121.452
117.454
114.097
111.301
108.993
107.104
105.569
104.334
103.347
102.565
101.952
101.473
101.104
100.821
100.606
100.444
100.323
100.233
100.167
100.118
100.083
100.058
100.041
100.028
100.019
100.013
100.009
100.006
100.004
100.003
100.002
100.001
100.001
100
100
100
100
100
100
100
100
100
100
100
100
100
100
100
100
100
100
100
100
100
100
100
388.928
366.879
345.112
323.807
303.133
283.243
264.269
246.324
229.498
213.854
199.433
186.253
174.309
163.577
154.015
145.568
138.169
131.743
126.209
121.482
117.479
114.118
111.32
109.009
107.116
105.579
104.342
103.353
102.57
101.955
101.476
101.106
100.823
100.607
100.445
100.323
100.233
100.167
100.119
100.084
100.059
100.041
100.028
100.019
100.013
100.009
100.006
100.004
100.003
100.002
100.001
100.001
100
100
100
100
100
100
100
100
100
100
100
100
100
100
100
100
100
100
100
100
100
100
100
388.932
366.892
345.133
323.836
303.169
283.284
264.314
246.373
229.548
213.905
199.484
186.302
174.356
163.621
154.056
145.605
138.203
131.773
126.235
121.505
117.499
114.135
111.333
109.02
107.125
105.587
104.348
103.358
102.574
101.958
101.479
101.108
100.824
100.608
100.446
100.324
100.234
100.167
100.119
100.084
100.059
100.041
100.028
100.019
100.013
100.009
100.006
100.004
100.003
100.002
100.001
100.001
100
100
100
100
100
100
100
100
100
100
100
100
100
100
100
100
100
100
100
100
100
100
100
388.936
366.902
345.149
323.857
303.195
283.314
264.348
246.409
229.585
213.943
199.521
186.339
174.391
163.654
154.086
145.633
138.228
131.795
126.254
121.522
117.514
114.147
111.344
109.029
107.133
105.593
104.352
103.362
102.577
101.961
101.481
101.109
100.825
100.609
100.446
100.324
100.234
100.167
100.119
100.084
100.059
100.041
100.028
100.019
100.013
100.009
100.006
100.004
100.003
100.002
100.001
100.001
100
100
100
100
100
100
100
100
100
100
100
100
100
100
100
100
100
100
100
100
100
100
100
388.938
366.909
345.16
323.873
303.214
283.336
264.372
246.435
229.613
213.97
199.549
186.365
174.416
163.678
154.109
145.654
138.247
131.812
126.269
121.534
117.524
114.157
111.352
109.035
107.138
105.597
104.356
103.365
102.579
101.962
101.482
101.111
100.826
100.61
100.447
100.325
100.234
100.168
100.119
100.084
100.059
100.041
100.028
100.019
100.013
100.009
100.006
100.004
100.003
100.002
100.001
100.001
100
100
100
100
100
100
100
100
100
100
100
100
100
100
100
100
100
100
100
100
100
100
100
388.94
366.914
345.169
323.884
303.228
283.352
264.39
246.454
229.632
213.99
199.569
186.385
174.435
163.695
154.125
145.669
138.26
131.824
126.28
121.544
117.532
114.163
111.357
109.04
107.142
105.6
104.358
103.367
102.581
101.964
101.483
101.111
100.827
100.61
100.447
100.325
100.234
100.168
100.119
100.084
100.059
100.041
100.028
100.019
100.013
100.009
100.006
100.004
100.003
100.002
100.001
100.001
100
100
100
100
100
100
100
100
100
100
100
100
100
100
100
100
100
100
100
100
100
100
100
388.941
366.917
345.175
323.892
303.238
283.364
264.403
246.468
229.647
214.005
199.583
186.399
174.449
163.708
154.137
145.68
138.27
131.833
126.287
121.551
117.538
114.168
111.362
109.043
107.145
105.603
104.36
103.368
102.582
101.965
101.484
101.112
100.827
100.61
100.447
100.325
100.235
100.168
100.119
100.084
100.059
100.041
100.028
100.019
100.013
100.009
100.006
100.004
100.003
100.002
100.001
100.001
100
100
100
100
100
100
100
100
100
100
100
100
100
100
100
100
100
100
100
100
100
100
100
388.942
366.92
345.179
323.898
303.245
283.372
264.412
246.478
229.657
214.015
199.594
186.409
174.459
163.718
154.146
145.688
138.277
131.839
126.293
121.556
117.543
114.172
111.365
109.046
107.147
105.604
104.362
103.369
102.583
101.965
101.484
101.112
100.827
100.611
100.447
100.325
100.235
100.168
100.119
100.084
100.059
100.041
100.028
100.019
100.013
100.009
100.006
100.004
100.003
100.002
100.001
100.001
100
100
100
100
100
100
100
100
100
100
100
100
100
100
100
100
100
100
100
100
100
100
100
388.942
366.922
345.182
323.902
303.25
283.378
264.419
246.485
229.664
214.023
199.601
186.417
174.466
163.724
154.152
145.694
138.283
131.844
126.297
121.559
117.546
114.175
111.367
109.048
107.148
105.606
104.363
103.37
102.584
101.966
101.485
101.113
100.828
100.611
100.447
100.325
100.235
100.168
100.119
100.084
100.059
100.041
100.028
100.019
100.013
100.009
100.006
100.004
100.003
100.002
100.001
100.001
100
100
100
100
100
100
100
100
100
100
100
100
100
100
100
100
100
100
100
100
100
100
100
388.943
366.923
345.184
323.905
303.254
283.382
264.423
246.49
229.67
214.028
199.606
186.422
174.471
163.729
154.156
145.698
138.286
131.847
126.3
121.562
117.548
114.177
111.369
109.049
107.15
105.606
104.364
103.371
102.584
101.966
101.485
101.113
100.828
100.611
100.448
100.325
100.235
100.168
100.119
100.084
100.059
100.041
100.028
100.019
100.013
100.009
100.006
100.004
100.003
100.002
100.001
100.001
100
100
100
100
100
100
100
100
100
100
100
100
100
100
100
100
100
100
100
100
100
100
100
388.943
366.924
345.186
323.907
303.256
283.385
264.427
246.493
229.673
214.032
199.61
186.426
174.474
163.732
154.16
145.701
138.289
131.85
126.302
121.564
117.55
114.178
111.37
109.05
107.15
105.607
104.364
103.371
102.585
101.967
101.485
101.113
100.828
100.611
100.448
100.325
100.235
100.168
100.119
100.084
100.059
100.041
100.028
100.019
100.013
100.009
100.006
100.004
100.003
100.002
100.001
100.001
100
100
100
100
100
100
100
100
100
100
100
100
100
100
100
100
100
100
100
100
100
100
100
388.943
366.925
345.187
323.909
303.258
283.387
264.429
246.496
229.676
214.035
199.613
186.428
174.477
163.735
154.162
145.703
138.291
131.851
126.304
121.565
117.551
114.179
111.371
109.051
107.151
105.608
104.364
103.371
102.585
101.967
101.485
101.113
100.828
100.611
100.448
100.325
100.235
100.168
100.119
100.084
100.059
100.041
100.028
100.019
100.013
100.009
100.006
100.004
100.003
100.002
100.001
100.001
100
100
100
100
100
100
100
100
100
100
100
100
100
100
100
100
100
100
100
100
100
100
100
388.944
366.925
345.187
323.91
303.259
283.388
264.431
246.497
229.678
214.036
199.615
186.43
174.478
163.736
154.163
145.704
138.292
131.852
126.305
121.566
117.552
114.18
111.371
109.051
107.151
105.608
104.365
103.372
102.585
101.967
101.485
101.113
100.828
100.611
100.448
100.325
100.235
100.168
100.119
100.084
100.059
100.041
100.028
100.019
100.013
100.009
100.006
100.004
100.003
100.002
100.001
100.001
100
100
100
100
100
100
100
100
100
100
100
100
100
100
100
100
100
100
100
100
100
100
100
388.944
366.925
345.188
323.91
303.26
283.389
264.432
246.498
229.679
214.038
199.616
186.431
174.48
163.738
154.164
145.705
138.293
131.853
126.306
121.566
117.552
114.18
111.372
109.052
107.152
105.608
104.365
103.372
102.585
101.967
101.485
101.113
100.828
100.611
100.448
100.325
100.235
100.168
100.119
100.084
100.059
100.041
100.028
100.019
100.013
100.009
100.006
100.004
100.003
100.002
100.001
100.001
100
100
100
100
100
100
100
100
100
100
100
100
100
100
100
100
100
100
100
100
100
100
100
388.944
366.926
345.188
323.911
303.261
283.39
264.432
246.499
229.68
214.039
199.617
186.432
174.48
163.738
154.165
145.706
138.294
131.854
126.306
121.567
117.552
114.18
111.372
109.052
107.152
105.608
104.365
103.372
102.585
101.967
101.485
101.113
100.828
100.611
100.448
100.326
100.235
100.168
100.119
100.084
100.059
100.041
100.028
100.019
100.013
100.009
100.006
100.004
100.003
100.002
100.001
100.001
100
100
100
100
100
100
100
100
100
100
100
100
100
100
100
100
100
100
100
100
100
100
100
388.944
366.926
345.189
323.911
303.261
283.391
264.433
246.5
229.68
214.039
199.617
186.433
174.481
163.739
154.166
145.706
138.294
131.854
126.306
121.567
117.553
114.181
111.372
109.052
107.152
105.608
104.365
103.372
102.585
101.967
101.485
101.113
100.828
100.611
100.448
100.326
100.235
100.168
100.119
100.084
100.059
100.041
100.028
100.019
100.013
100.009
100.006
100.004
100.003
100.002
100.001
100.001
100
100
100
100
100
100
100
100
100
100
100
100
100
100
100
100
100
100
100
100
100
100
100
388.944
366.926
345.189
323.911
303.261
283.391
264.433
246.5
229.681
214.04
199.618
186.433
174.481
163.739
154.166
145.706
138.294
131.854
126.307
121.567
117.553
114.181
111.372
109.052
107.152
105.608
104.365
103.372
102.585
101.967
101.486
101.113
100.828
100.611
100.448
100.326
100.235
100.168
100.119
100.084
100.059
100.041
100.028
100.019
100.013
100.009
100.006
100.004
100.003
100.002
100.001
100.001
100
100
100
100
100
100
100
100
100
100
100
100
100
100
100
100
100
100
100
100
100
100
100
388.944
366.926
345.189
323.911
303.261
283.391
264.433
246.5
229.681
214.04
199.618
186.433
174.482
163.74
154.166
145.707
138.294
131.855
126.307
121.568
117.553
114.181
111.372
109.052
107.152
105.609
104.365
103.372
102.585
101.967
101.486
101.113
100.828
100.611
100.448
100.326
100.235
100.168
100.119
100.084
100.059
100.041
100.028
100.019
100.013
100.009
100.006
100.004
100.003
100.002
100.001
100.001
100
100
100
100
100
100
100
100
100
100
100
100
100
100
100
100
100
100
100
100
100
100
100
388.944
366.926
345.189
323.911
303.262
283.391
264.434
246.501
229.681
214.04
199.618
186.433
174.482
163.74
154.166
145.707
138.295
131.855
126.307
121.568
117.553
114.181
111.372
109.052
107.152
105.609
104.365
103.372
102.585
101.967
101.486
101.113
100.828
100.611
100.448
100.326
100.235
100.168
100.119
100.084
100.059
100.041
100.028
100.019
100.013
100.009
100.006
100.004
100.003
100.002
100.001
100.001
100
100
100
100
100
100
100
100
100
100
100
100
100
100
100
100
100
100
100
100
100
100
100
388.944
366.926
345.189
323.912
303.262
283.391
264.434
246.501
229.681
214.04
199.618
186.434
174.482
163.74
154.166
145.707
138.295
131.855
126.307
121.568
117.553
114.181
111.372
109.052
107.152
105.609
104.365
103.372
102.585
101.967
101.486
101.113
100.828
100.611
100.448
100.326
100.235
100.168
100.119
100.084
100.059
100.041
100.028
100.019
100.013
100.009
100.006
100.004
100.003
100.002
100.001
100.001
100
100
100
100
100
100
100
100
100
100
100
100
100
100
100
100
100
100
100
100
100
100
100
388.944
366.926
345.189
323.912
303.262
283.391
264.434
246.501
229.681
214.04
199.618
186.434
174.482
163.74
154.167
145.707
138.295
131.855
126.307
121.568
117.553
114.181
111.372
109.052
107.152
105.609
104.365
103.372
102.585
101.967
101.486
101.113
100.828
100.611
100.448
100.326
100.235
100.168
100.119
100.084
100.059
100.041
100.028
100.019
100.013
100.009
100.006
100.004
100.003
100.002
100.001
100.001
100
100
100
100
100
100
100
100
100
100
100
100
100
100
100
100
100
100
100
100
100
100
100
388.944
366.926
345.189
323.912
303.262
283.391
264.434
246.501
229.681
214.04
199.618
186.434
174.482
163.74
154.167
145.707
138.295
131.855
126.307
121.568
117.553
114.181
111.372
109.052
107.152
105.609
104.365
103.372
102.585
101.967
101.486
101.113
100.828
100.611
100.448
100.326
100.235
100.168
100.119
100.084
100.059
100.041
100.028
100.019
100.013
100.009
100.006
100.004
100.003
100.002
100.001
100.001
100
100
100
100
100
100
100
100
100
100
100
100
100
100
100
100
100
100
100
100
100
100
100
388.944
366.926
345.189
323.912
303.262
283.391
264.434
246.501
229.681
214.04
199.618
186.434
174.482
163.74
154.167
145.707
138.295
131.855
126.307
121.568
117.553
114.181
111.372
109.052
107.152
105.609
104.365
103.372
102.585
101.967
101.486
101.113
100.828
100.611
100.448
100.326
100.235
100.168
100.119
100.084
100.059
100.041
100.028
100.019
100.013
100.009
100.006
100.004
100.003
100.002
100.001
100.001
100
100
100
100
100
100
100
100
100
100
100
100
100
100
100
100
100
100
100
100
100
100
100
388.944
366.926
345.189
323.912
303.262
283.391
264.434
246.501
229.681
214.04
199.618
186.434
174.482
163.74
154.167
145.707
138.295
131.855
126.307
121.568
117.553
114.181
111.372
109.052
107.152
105.609
104.365
103.372
102.585
101.967
101.486
101.113
100.828
100.611
100.448
100.326
100.235
100.168
100.119
100.084
100.059
100.041
100.028
100.019
100.013
100.009
100.006
100.004
100.003
100.002
100.001
100.001
100
100
100
100
100
100
100
100
100
100
100
100
100
100
100
100
100
100
100
100
100
100
100
388.944
366.926
345.189
323.912
303.262
283.391
264.434
246.501
229.681
214.04
199.618
186.434
174.482
163.74
154.167
145.707
138.295
131.855
126.307
121.568
117.553
114.181
111.372
109.052
107.152
105.609
104.365
103.372
102.585
101.967
101.486
101.113
100.828
100.611
100.448
100.326
100.235
100.168
100.119
100.084
100.059
100.041
100.028
100.019
100.013
100.009
100.006
100.004
100.003
100.002
100.001
100.001
100
100
100
100
100
100
100
100
100
100
100
100
100
100
100
100
100
100
100
100
100
100
100
388.944
366.926
345.189
323.912
303.262
283.391
264.434
246.501
229.681
214.04
199.619
186.434
174.482
163.74
154.167
145.707
138.295
131.855
126.307
121.568
117.553
114.181
111.372
109.052
107.152
105.609
104.365
103.372
102.585
101.967
101.486
101.113
100.828
100.611
100.448
100.326
100.235
100.168
100.119
100.084
100.059
100.041
100.028
100.019
100.013
100.009
100.006
100.004
100.003
100.002
100.001
100.001
100
100
100
100
100
100
100
100
100
100
100
100
100
100
100
100
100
100
100
100
100
100
100
388.944
366.926
345.189
323.912
303.262
283.391
264.434
246.501
229.681
214.04
199.619
186.434
174.482
163.74
154.167
145.707
138.295
131.855
126.307
121.568
117.553
114.181
111.372
109.052
107.152
105.609
104.365
103.372
102.585
101.967
101.486
101.113
100.828
100.611
100.448
100.326
100.235
100.168
100.119
100.084
100.059
100.041
100.028
100.019
100.013
100.009
100.006
100.004
100.003
100.002
100.001
100.001
100
100
100
100
100
100
100
100
100
100
100
100
100
100
100
100
100
100
100
100
100
100
100
388.944
366.926
345.189
323.912
303.262
283.391
264.434
246.501
229.681
214.04
199.619
186.434
174.482
163.74
154.167
145.707
138.295
131.855
126.307
121.568
117.553
114.181
111.372
109.052
107.152
105.609
104.365
103.372
102.585
101.967
101.486
101.113
100.828
100.611
100.448
100.326
100.235
100.168
100.119
100.084
100.059
100.041
100.028
100.019
100.013
100.009
100.006
100.004
100.003
100.002
100.001
100.001
100
100
100
100
100
100
100
100
100
100
100
100
100
100
100
100
100
100
100
100
100
100
100
388.944
366.926
345.189
323.912
303.262
283.391
264.434
246.501
229.681
214.04
199.619
186.434
174.482
163.74
154.167
145.707
138.295
131.855
126.307
121.568
117.553
114.181
111.372
109.052
107.152
105.609
104.365
103.372
102.585
101.967
101.486
101.113
100.828
100.611
100.448
100.326
100.235
100.168
100.119
100.084
100.059
100.041
100.028
100.019
100.013
100.009
100.006
100.004
100.003
100.002
100.001
100.001
100
100
100
100
100
100
100
100
100
100
100
100
100
100
100
100
100
100
100
100
100
100
100
388.944
366.926
345.189
323.912
303.262
283.391
264.434
246.501
229.681
214.04
199.619
186.434
174.482
163.74
154.167
145.707
138.295
131.855
126.307
121.568
117.553
114.181
111.372
109.052
107.152
105.609
104.365
103.372
102.585
101.967
101.486
101.113
100.828
100.611
100.448
100.326
100.235
100.168
100.119
100.084
100.059
100.041
100.028
100.019
100.013
100.009
100.006
100.004
100.003
100.002
100.001
100.001
100
100
100
100
100
100
100
100
100
100
100
100
100
100
100
100
100
100
100
100
100
100
100
388.944
366.926
345.189
323.912
303.262
283.391
264.434
246.501
229.681
214.04
199.619
186.434
174.482
163.74
154.167
145.707
138.295
131.855
126.307
121.568
117.553
114.181
111.372
109.052
107.152
105.609
104.365
103.372
102.585
101.967
101.486
101.113
100.828
100.611
100.448
100.326
100.235
100.168
100.119
100.084
100.059
100.041
100.028
100.019
100.013
100.009
100.006
100.004
100.003
100.002
100.001
100.001
100
100
100
100
100
100
100
100
100
100
100
100
100
100
100
100
100
100
100
100
100
100
100
388.944
366.926
345.189
323.912
303.262
283.391
264.434
246.501
229.681
214.04
199.619
186.434
174.482
163.74
154.167
145.707
138.295
131.855
126.307
121.568
117.553
114.181
111.372
109.052
107.152
105.609
104.365
103.372
102.585
101.967
101.486
101.113
100.828
100.611
100.448
100.326
100.235
100.168
100.119
100.084
100.059
100.041
100.028
100.019
100.013
100.009
100.006
100.004
100.003
100.002
100.001
100.001
100
100
100
100
100
100
100
100
100
100
100
100
100
100
100
100
100
100
100
100
100
100
100
388.944
366.926
345.189
323.912
303.262
283.391
264.434
246.501
229.681
214.04
199.619
186.434
174.482
163.74
154.167
145.707
138.295
131.855
126.307
121.568
117.553
114.181
111.372