/*--------------------------------*- C++ -*----------------------------------*\
  =========                 |
  \\      /  F ield         | OpenFOAM: The Open Source CFD Toolbox
   \\    /   O peration     | Website:  https://openfoam.org
    \\  /    A nd           | Version:  10
     \\/     M anipulation  |
\*---------------------------------------------------------------------------*/
FoamFile
{
    format      ascii;
    class       volScalarField;
    location    "192";
    object      T;
}
// * * * * * * * * * * * * * * * * * * * * * * * * * * * * * * * * * * * * * //

dimensions      [0 0 0 1 0 0 0];

internalField   nonuniform List<scalar> 
11250
(
249.723
167.201
138.779
126.153
119.19
114.73
111.591
109.245
107.427
105.982
104.818
103.871
103.099
102.468
101.954
101.537
101.2
100.93
100.715
100.545
100.412
100.309
100.229
100.168
100.123
100.089
100.063
100.045
100.031
100.022
100.015
100.01
100.007
100.005
100.003
100.002
100.001
100.001
100.001
100
100
100
100
100
100
100
100
100
100
100
100
100
100
100
100
100
100
100
100
100
100
100
100
100
100
100
100
100
100
100
100
100
100
100
100
331.142
247.525
200.57
172.84
155.12
142.931
134.043
127.279
121.978
117.739
114.307
111.508
109.22
107.348
105.821
104.581
103.578
102.774
102.133
101.626
101.229
100.921
100.684
100.503
100.366
100.264
100.189
100.134
100.094
100.065
100.045
100.031
100.021
100.014
100.009
100.006
100.004
100.002
100.002
100.001
100.001
100
100
100
100
100
100
100
100
100
100
100
100
100
100
100
100
100
100
100
100
100
100
100
100
100
100
100
100
100
100
100
100
100
100
358.481
291.242
243.229
209.641
185.673
168.008
154.565
144.059
135.681
128.905
123.375
118.841
115.117
112.063
109.566
107.533
105.889
104.567
103.513
102.68
102.026
101.518
101.127
100.829
100.605
100.436
100.312
100.221
100.155
100.108
100.074
100.05
100.034
100.023
100.015
100.01
100.006
100.004
100.003
100.002
100.001
100.001
100
100
100
100
100
100
100
100
100
100
100
100
100
100
100
100
100
100
100
100
100
100
100
100
100
100
100
100
100
100
100
100
100
370.055
315.828
271.617
237.031
210.177
189.156
172.475
159.056
148.138
139.182
131.799
125.701
120.666
116.519
113.117
110.342
108.092
106.281
104.835
103.69
102.791
102.092
101.554
101.144
100.834
100.602
100.431
100.305
100.214
100.149
100.102
100.07
100.047
100.031
100.021
100.014
100.009
100.006
100.004
100.002
100.001
100.001
100.001
100
100
100
100
100
100
100
100
100
100
100
100
100
100
100
100
100
100
100
100
100
100
100
100
100
100
100
100
100
100
100
100
376.007
330.529
290.593
256.975
229.201
206.371
187.572
172.028
159.124
148.38
139.425
131.967
125.77
120.641
116.418
112.962
110.154
107.889
106.077
104.641
103.513
102.635
101.958
101.442
101.052
100.76
100.543
100.385
100.27
100.188
100.129
100.088
100.059
100.04
100.026
100.017
100.011
100.007
100.005
100.003
100.002
100.001
100.001
100
100
100
100
100
100
100
100
100
100
100
100
100
100
100
100
100
100
100
100
100
100
100
100
100
100
100
100
100
100
100
100
379.509
339.854
303.521
271.439
243.728
220.069
199.98
182.965
168.572
156.416
146.171
137.565
130.368
124.379
119.428
115.362
112.05
109.372
107.227
105.524
104.184
103.14
102.335
101.72
101.255
100.907
100.649
100.46
100.323
100.224
100.154
100.105
100.071
100.047
100.031
100.021
100.013
100.009
100.005
100.003
100.002
100.001
100.001
100
100
100
100
100
100
100
100
100
100
100
100
100
100
100
100
100
100
100
100
100
100
100
100
100
100
100
100
100
100
100
100
381.75
346.055
312.519
281.97
254.738
230.814
209.996
192.003
176.531
163.291
152.017
142.469
134.429
127.705
122.122
117.522
113.763
110.718
108.273
106.329
104.798
103.604
102.681
101.976
101.442
101.043
100.747
100.529
100.372
100.258
100.178
100.121
100.082
100.055
100.036
100.024
100.015
100.01
100.006
100.004
100.002
100.002
100.001
100.001
100
100
100
100
100
100
100
100
100
100
100
100
100
100
100
100
100
100
100
100
100
100
100
100
100
100
100
100
100
100
100
383.261
350.327
318.905
289.687
263.06
239.167
217.976
199.355
183.122
169.071
156.994
146.686
137.954
130.614
124.493
119.433
115.286
111.919
109.211
107.053
105.351
104.022
102.994
102.208
101.613
101.166
100.835
100.592
100.416
100.289
100.199
100.136
100.092
100.061
100.041
100.027
100.017
100.011
100.007
100.004
100.003
100.002
100.001
100.001
100
100
100
100
100
100
100
100
100
100
100
100
100
100
100
100
100
100
100
100
100
100
100
100
100
100
100
100
100
100
100
384.316
353.346
323.508
295.379
269.347
245.621
224.269
205.261
188.502
173.854
161.162
150.255
140.963
133.115
126.546
121.097
116.619
112.974
110.037
107.693
105.842
104.394
103.273
102.415
101.765
101.277
100.915
100.649
100.456
100.317
100.218
100.149
100.101
100.067
100.044
100.029
100.019
100.012
100.008
100.005
100.003
100.002
100.001
100.001
100
100
100
100
100
100
100
100
100
100
100
100
100
100
100
100
100
100
100
100
100
100
100
100
100
100
100
100
100
100
100
385.068
355.516
326.863
299.601
274.096
250.585
229.194
209.957
192.84
177.761
164.603
153.231
143.494
135.235
128.296
122.524
117.767
113.888
110.755
108.252
106.271
104.72
103.519
102.598
101.899
101.375
100.986
100.7
100.492
100.342
100.236
100.161
100.109
100.073
100.048
100.031
100.02
100.013
100.008
100.005
100.003
100.002
100.001
100.001
100
100
100
100
100
100
100
100
100
100
100
100
100
100
100
100
100
100
100
100
100
100
100
100
100
100
100
100
100
100
100
385.613
357.096
329.33
302.745
277.682
254.39
233.023
213.657
196.301
180.913
167.409
155.679
145.593
137.005
129.768
123.73
118.743
114.668
111.371
108.732
106.641
105.003
103.732
102.757
102.017
101.461
101.047
100.744
100.523
100.364
100.251
100.171
100.116
100.077
100.051
100.034
100.022
100.014
100.009
100.006
100.003
100.002
100.001
100.001
100
100
100
100
100
100
100
100
100
100
100
100
100
100
100
100
100
100
100
100
100
100
100
100
100
100
100
100
100
100
100
386.011
358.255
331.153
305.09
280.388
257.295
235.982
216.549
199.036
183.429
169.669
157.668
147.31
138.464
130.988
124.735
119.561
115.324
111.891
109.139
106.956
105.243
103.914
102.893
102.117
101.534
101.101
100.782
100.55
100.383
100.264
100.18
100.122
100.081
100.054
100.035
100.023
100.015
100.009
100.006
100.004
100.002
100.001
100.001
100
100
100
100
100
100
100
100
100
100
100
100
100
100
100
100
100
100
100
100
100
100
100
100
100
100
100
100
100
100
100
386.303
359.109
332.504
306.842
282.427
259.505
238.254
218.793
201.178
185.417
171.47
159.265
148.699
139.651
131.986
125.563
120.237
115.868
112.324
109.479
107.22
105.446
104.067
103.008
102.202
101.597
101.146
100.814
100.573
100.399
100.275
100.188
100.127
100.085
100.056
100.037
100.024
100.015
100.01
100.006
100.004
100.002
100.001
100.001
100.001
100
100
100
100
100
100
100
100
100
100
100
100
100
100
100
100
100
100
100
100
100
100
100
100
100
100
100
100
100
100
386.519
359.74
333.506
308.148
283.959
261.178
239.99
220.521
202.842
186.973
172.89
160.533
149.809
140.606
132.794
126.235
120.788
116.315
112.681
109.76
107.439
105.614
104.195
103.104
102.274
101.649
101.184
100.842
100.592
100.413
100.285
100.194
100.131
100.088
100.058
100.038
100.025
100.016
100.01
100.006
100.004
100.002
100.001
100.001
100.001
100
100
100
100
100
100
100
100
100
100
100
100
100
100
100
100
100
100
100
100
100
100
100
100
100
100
100
100
100
100
386.677
360.206
334.248
309.122
285.107
262.44
241.308
221.842
204.123
188.18
173.999
161.529
150.687
141.365
133.439
126.775
121.233
116.676
112.97
109.989
107.618
105.752
104.3
103.183
102.333
101.692
101.215
100.864
100.608
100.424
100.292
100.2
100.135
100.09
100.06
100.039
100.025
100.016
100.01
100.007
100.004
100.003
100.002
100.001
100.001
100
100
100
100
100
100
100
100
100
100
100
100
100
100
100
100
100
100
100
100
100
100
100
100
100
100
100
100
100
100
386.794
360.55
334.798
309.844
285.963
263.387
242.303
222.846
205.102
189.107
174.856
162.304
151.373
141.961
133.948
127.203
121.587
116.965
113.203
110.174
107.762
105.864
104.386
103.248
102.381
101.728
101.241
100.883
100.622
100.433
100.299
100.204
100.138
100.092
100.061
100.04
100.026
100.017
100.011
100.007
100.004
100.003
100.002
100.001
100.001
100
100
100
100
100
100
100
100
100
100
100
100
100
100
100
100
100
100
100
100
100
100
100
100
100
100
100
100
100
100
386.88
360.803
335.203
310.379
286.599
264.094
243.049
223.602
205.843
189.814
175.513
162.901
151.904
142.424
134.346
127.538
121.866
117.194
113.387
110.32
107.878
105.953
104.454
103.299
102.419
101.756
101.262
100.898
100.632
100.441
100.304
100.208
100.141
100.094
100.062
100.041
100.027
100.017
100.011
100.007
100.004
100.003
100.002
100.001
100.001
100
100
100
100
100
100
100
100
100
100
100
100
100
100
100
100
100
100
100
100
100
100
100
100
100
100
100
100
100
100
386.943
360.988
335.5
310.772
287.069
264.618
243.605
224.168
206.401
190.348
176.012
163.356
152.31
142.781
134.653
127.799
122.083
117.372
113.531
110.436
107.968
106.024
104.509
103.34
102.45
101.779
101.279
100.91
100.641
100.447
100.308
100.211
100.143
100.095
100.063
100.042
100.027
100.017
100.011
100.007
100.004
100.003
100.002
100.001
100.001
100
100
100
100
100
100
100
100
100
100
100
100
100
100
100
100
100
100
100
100
100
100
100
100
100
100
100
100
100
100
386.989
361.123
335.718
311.061
287.414
265.004
244.016
224.589
206.817
190.748
176.387
163.699
152.619
143.053
134.888
127.998
122.25
117.51
113.643
110.525
108.039
106.079
104.551
103.373
102.474
101.797
101.292
100.92
100.648
100.452
100.312
100.213
100.144
100.097
100.064
100.042
100.027
100.018
100.011
100.007
100.004
100.003
100.002
100.001
100.001
100
100
100
100
100
100
100
100
100
100
100
100
100
100
100
100
100
100
100
100
100
100
100
100
100
100
100
100
100
100
387.023
361.221
335.876
311.271
287.666
265.287
244.318
224.899
207.125
191.045
176.666
163.956
152.85
143.257
135.065
128.15
122.378
117.615
113.729
110.594
108.094
106.122
104.584
103.398
102.493
101.811
101.302
100.927
100.653
100.456
100.315
100.215
100.145
100.097
100.065
100.042
100.028
100.018
100.011
100.007
100.004
100.003
100.002
100.001
100.001
100
100
100
100
100
100
100
100
100
100
100
100
100
100
100
100
100
100
100
100
100
100
100
100
100
100
100
100
100
100
387.047
361.292
335.99
311.423
287.849
265.492
244.538
225.125
207.351
191.264
176.873
164.147
153.023
143.41
135.198
128.263
122.473
117.694
113.794
110.646
108.135
106.154
104.609
103.417
102.508
101.822
101.31
100.933
100.657
100.458
100.317
100.216
100.146
100.098
100.065
100.043
100.028
100.018
100.011
100.007
100.004
100.003
100.002
100.001
100.001
100
100
100
100
100
100
100
100
100
100
100
100
100
100
100
100
100
100
100
100
100
100
100
100
100
100
100
100
100
100
387.064
361.343
336.072
311.532
287.981
265.641
244.697
225.29
207.515
191.423
177.024
164.287
153.149
143.523
135.297
128.348
122.545
117.753
113.842
110.685
108.166
106.179
104.628
103.431
102.519
101.83
101.316
100.937
100.66
100.461
100.318
100.217
100.147
100.099
100.065
100.043
100.028
100.018
100.011
100.007
100.004
100.003
100.002
100.001
100.001
100
100
100
100
100
100
100
100
100
100
100
100
100
100
100
100
100
100
100
100
100
100
100
100
100
100
100
100
100
100
387.076
361.379
336.13
311.61
288.075
265.747
244.811
225.408
207.634
191.539
177.133
164.388
153.242
143.605
135.369
128.41
122.597
117.797
113.878
110.715
108.19
106.197
104.642
103.442
102.527
101.836
101.321
100.94
100.663
100.462
100.319
100.218
100.148
100.099
100.066
100.043
100.028
100.018
100.011
100.007
100.004
100.003
100.002
100.001
100.001
100
100
100
100
100
100
100
100
100
100
100
100
100
100
100
100
100
100
100
100
100
100
100
100
100
100
100
100
100
100
387.085
361.405
336.172
311.665
288.142
265.823
244.893
225.493
207.718
191.622
177.212
164.462
153.309
143.665
135.421
128.455
122.636
117.829
113.905
110.736
108.207
106.21
104.653
103.45
102.533
101.841
101.324
100.943
100.665
100.464
100.32
100.219
100.148
100.099
100.066
100.043
100.028
100.018
100.011
100.007
100.005
100.003
100.002
100.001
100.001
100
100
100
100
100
100
100
100
100
100
100
100
100
100
100
100
100
100
100
100
100
100
100
100
100
100
100
100
100
100
387.091
361.423
336.201
311.704
288.189
265.876
244.95
225.552
207.778
191.68
177.268
164.514
153.357
143.708
135.459
128.488
122.664
117.853
113.924
110.752
108.219
106.22
104.66
103.456
102.537
101.844
101.327
100.945
100.666
100.465
100.321
100.219
100.148
100.099
100.066
100.043
100.028
100.018
100.012
100.007
100.005
100.003
100.002
100.001
100.001
100
100
100
100
100
100
100
100
100
100
100
100
100
100
100
100
100
100
100
100
100
100
100
100
100
100
100
100
100
100
387.095
361.436
336.221
311.731
288.221
265.913
244.991
225.594
207.821
191.722
177.308
164.551
153.39
143.738
135.486
128.511
122.683
117.869
113.937
110.763
108.228
106.227
104.666
103.461
102.541
101.847
101.328
100.946
100.667
100.465
100.321
100.22
100.149
100.1
100.066
100.043
100.028
100.018
100.012
100.007
100.005
100.003
100.002
100.001
100.001
100
100
100
100
100
100
100
100
100
100
100
100
100
100
100
100
100
100
100
100
100
100
100
100
100
100
100
100
100
100
387.098
361.444
336.235
311.75
288.244
265.939
245.019
225.624
207.85
191.751
177.336
164.577
153.414
143.76
135.505
128.528
122.697
117.881
113.947
110.771
108.235
106.232
104.67
103.464
102.543
101.848
101.33
100.947
100.668
100.466
100.322
100.22
100.149
100.1
100.066
100.043
100.028
100.018
100.012
100.007
100.005
100.003
100.002
100.001
100.001
100
100
100
100
100
100
100
100
100
100
100
100
100
100
100
100
100
100
100
100
100
100
100
100
100
100
100
100
100
100
387.1
361.45
336.245
311.763
288.26
265.957
245.038
225.644
207.871
191.771
177.355
164.595
153.431
143.775
135.518
128.539
122.707
117.889
113.954
110.776
108.239
106.236
104.673
103.466
102.545
101.85
101.331
100.948
100.668
100.466
100.322
100.22
100.149
100.1
100.066
100.043
100.028
100.018
100.012
100.007
100.005
100.003
100.002
100.001
100.001
100
100
100
100
100
100
100
100
100
100
100
100
100
100
100
100
100
100
100
100
100
100
100
100
100
100
100
100
100
100
387.101
361.454
336.251
311.772
288.271
265.969
245.051
225.657
207.884
191.785
177.368
164.607
153.442
143.785
135.527
128.547
122.714
117.895
113.959
110.78
108.242
106.239
104.674
103.467
102.546
101.85
101.331
100.948
100.668
100.466
100.322
100.22
100.149
100.1
100.066
100.043
100.028
100.018
100.012
100.007
100.005
100.003
100.002
100.001
100.001
100
100
100
100
100
100
100
100
100
100
100
100
100
100
100
100
100
100
100
100
100
100
100
100
100
100
100
100
100
100
387.102
361.457
336.256
311.778
288.278
265.977
245.06
225.667
207.894
191.794
177.377
164.616
153.45
143.792
135.533
128.553
122.719
117.899
113.962
110.783
108.244
106.24
104.676
103.468
102.547
101.851
101.332
100.948
100.669
100.467
100.322
100.22
100.149
100.1
100.066
100.043
100.028
100.018
100.012
100.007
100.005
100.003
100.002
100.001
100.001
100
100
100
100
100
100
100
100
100
100
100
100
100
100
100
100
100
100
100
100
100
100
100
100
100
100
100
100
100
100
387.103
361.459
336.259
311.782
288.283
265.983
245.066
225.673
207.9
191.8
177.383
164.622
153.455
143.797
135.538
128.556
122.722
117.902
113.964
110.785
108.246
106.241
104.677
103.469
102.547
101.851
101.332
100.949
100.669
100.467
100.322
100.22
100.149
100.1
100.066
100.043
100.028
100.018
100.012
100.007
100.005
100.003
100.002
100.001
100.001
100
100
100
100
100
100
100
100
100
100
100
100
100
100
100
100
100
100
100
100
100
100
100
100
100
100
100
100
100
100
387.103
361.46
336.261
311.784
288.286
265.987
245.07
225.677
207.904
191.804
177.387
164.625
153.459
143.8
135.54
128.559
122.724
117.903
113.966
110.786
108.247
106.242
104.677
103.47
102.548
101.852
101.332
100.949
100.669
100.467
100.322
100.22
100.149
100.1
100.066
100.044
100.028
100.018
100.012
100.007
100.005
100.003
100.002
100.001
100.001
100
100
100
100
100
100
100
100
100
100
100
100
100
100
100
100
100
100
100
100
100
100
100
100
100
100
100
100
100
100
387.104
361.461
336.262
311.786
288.288
265.989
245.073
225.68
207.907
191.807
177.39
164.628
153.461
143.802
135.542
128.56
122.725
117.905
113.967
110.787
108.247
106.243
104.678
103.47
102.548
101.852
101.332
100.949
100.669
100.467
100.322
100.22
100.149
100.1
100.066
100.044
100.028
100.018
100.012
100.007
100.005
100.003
100.002
100.001
100.001
100
100
100
100
100
100
100
100
100
100
100
100
100
100
100
100
100
100
100
100
100
100
100
100
100
100
100
100
100
100
387.104
361.461
336.263
311.787
288.289
265.99
245.074
225.682
207.909
191.809
177.391
164.63
153.463
143.803
135.544
128.561
122.726
117.905
113.968
110.787
108.248
106.243
104.678
103.47
102.548
101.852
101.332
100.949
100.669
100.467
100.322
100.22
100.149
100.1
100.066
100.044
100.028
100.018
100.012
100.007
100.005
100.003
100.002
100.001
100.001
100
100
100
100
100
100
100
100
100
100
100
100
100
100
100
100
100
100
100
100
100
100
100
100
100
100
100
100
100
100
387.104
361.462
336.263
311.788
288.29
265.991
245.075
225.683
207.91
191.81
177.393
164.631
153.464
143.804
135.544
128.562
122.727
117.906
113.968
110.788
108.248
106.243
104.678
103.47
102.548
101.852
101.333
100.949
100.669
100.467
100.322
100.22
100.149
100.1
100.066
100.044
100.028
100.018
100.012
100.007
100.005
100.003
100.002
100.001
100.001
100
100
100
100
100
100
100
100
100
100
100
100
100
100
100
100
100
100
100
100
100
100
100
100
100
100
100
100
100
100
387.104
361.462
336.264
311.789
288.291
265.992
245.076
225.684
207.911
191.811
177.393
164.631
153.464
143.805
135.545
128.563
122.727
117.906
113.968
110.788
108.248
106.244
104.678
103.47
102.548
101.852
101.333
100.949
100.669
100.467
100.322
100.221
100.149
100.1
100.066
100.044
100.028
100.018
100.012
100.007
100.005
100.003
100.002
100.001
100.001
100
100
100
100
100
100
100
100
100
100
100
100
100
100
100
100
100
100
100
100
100
100
100
100
100
100
100
100
100
100
387.104
361.462
336.264
311.789
288.291
265.993
245.077
225.684
207.911
191.811
177.394
164.632
153.465
143.805
135.545
128.563
122.728
117.906
113.968
110.788
108.249
106.244
104.678
103.47
102.548
101.852
101.333
100.949
100.669
100.467
100.323
100.221
100.149
100.1
100.066
100.044
100.028
100.018
100.012
100.007
100.005
100.003
100.002
100.001
100.001
100
100
100
100
100
100
100
100
100
100
100
100
100
100
100
100
100
100
100
100
100
100
100
100
100
100
100
100
100
100
387.104
361.462
336.264
311.789
288.291
265.993
245.077
225.684
207.912
191.812
177.394
164.632
153.465
143.805
135.545
128.563
122.728
117.907
113.969
110.788
108.249
106.244
104.679
103.47
102.548
101.852
101.333
100.949
100.669
100.467
100.323
100.221
100.149
100.1
100.066
100.044
100.028
100.018
100.012
100.007
100.005
100.003
100.002
100.001
100.001
100
100
100
100
100
100
100
100
100
100
100
100
100
100
100
100
100
100
100
100
100
100
100
100
100
100
100
100
100
100
387.104
361.462
336.264
311.789
288.291
265.993
245.077
225.685
207.912
191.812
177.394
164.632
153.465
143.806
135.546
128.563
122.728
117.907
113.969
110.788
108.249
106.244
104.679
103.47
102.548
101.852
101.333
100.949
100.669
100.467
100.323
100.221
100.149
100.1
100.066
100.044
100.028
100.018
100.012
100.007
100.005
100.003
100.002
100.001
100.001
100
100
100
100
100
100
100
100
100
100
100
100
100
100
100
100
100
100
100
100
100
100
100
100
100
100
100
100
100
100
387.104
361.462
336.264
311.789
288.292
265.993
245.077
225.685
207.912
191.812
177.394
164.632
153.465
143.806
135.546
128.563
122.728
117.907
113.969
110.788
108.249
106.244
104.679
103.47
102.548
101.852
101.333
100.949
100.669
100.467
100.323
100.221
100.149
100.1
100.066
100.044
100.028
100.018
100.012
100.007
100.005
100.003
100.002
100.001
100.001
100
100
100
100
100
100
100
100
100
100
100
100
100
100
100
100
100
100
100
100
100
100
100
100
100
100
100
100
100
100
387.104
361.462
336.264
311.789
288.292
265.993
245.077
225.685
207.912
191.812
177.394
164.632
153.465
143.806
135.546
128.563
122.728
117.907
113.969
110.788
108.249
106.244
104.679
103.47
102.548
101.852
101.333
100.949
100.669
100.467
100.323
100.221
100.149
100.1
100.066
100.044
100.028
100.018
100.012
100.007
100.005
100.003
100.002
100.001
100.001
100
100
100
100
100
100
100
100
100
100
100
100
100
100
100
100
100
100
100
100
100
100
100
100
100
100
100
100
100
100
387.104
361.462
336.264
311.789
288.292
265.993
245.077
225.685
207.912
191.812
177.394
164.632
153.465
143.806
135.546
128.563
122.728
117.907
113.969
110.788
108.249
106.244
104.679
103.47
102.548
101.852
101.333
100.949
100.669
100.467
100.323
100.221
100.149
100.1
100.066
100.044
100.028
100.018
100.012
100.007
100.005
100.003
100.002
100.001
100.001
100
100
100
100
100
100
100
100
100
100
100
100
100
100
100
100
100
100
100
100
100
100
100
100
100
100
100
100
100
100
387.104
361.462
336.264
311.789
288.292
265.993
245.077
225.685
207.912
191.812
177.395
164.632
153.465
143.806
135.546
128.563
122.728
117.907
113.969
110.788
108.249
106.244
104.679
103.47
102.548
101.852
101.333
100.949
100.669
100.467
100.323
100.221
100.149
100.1
100.066
100.044
100.028
100.018
100.012
100.007
100.005
100.003
100.002
100.001
100.001
100
100
100
100
100
100
100
100
100
100
100
100
100
100
100
100
100
100
100
100
100
100
100
100
100
100
100
100
100
100
387.104
361.462
336.264
311.789
288.292
265.993
245.077
225.685
207.912
191.812
177.395
164.632
153.465
143.806
135.546
128.563
122.728
117.907
113.969
110.788
108.249
106.244
104.679
103.47
102.548
101.852
101.333
100.949
100.669
100.467
100.323
100.221
100.149
100.1
100.066
100.044
100.028
100.018
100.012
100.007
100.005
100.003
100.002
100.001
100.001
100
100
100
100
100
100
100
100
100
100
100
100
100
100
100
100
100
100
100
100
100
100
100
100
100
100
100
100
100
100
387.104
361.462
336.264
311.789
288.292
265.993
245.077
225.685
207.912
191.812
177.395
164.632
153.465
143.806
135.546
128.563
122.728
117.907
113.969
110.788
108.249
106.244
104.679
103.47
102.548
101.852
101.333
100.949
100.669
100.467
100.323
100.221
100.149
100.1
100.066
100.044
100.028
100.018
100.012
100.007
100.005
100.003
100.002
100.001
100.001
100
100
100
100
100
100
100
100
100
100
100
100
100
100
100
100
100
100
100
100
100
100
100
100
100
100
100
100
100
100
387.104
361.462
336.264
311.789
288.292
265.993
245.077
225.685
207.912
191.812
177.395
164.632
153.465
143.806
135.546
128.563
122.728
117.907
113.969
110.788
108.249
106.244
104.679
103.47
102.548
101.852
101.333
100.949
100.669
100.467
100.323
100.221
100.149
100.1
100.066
100.044
100.028
100.018
100.012
100.007
100.005
100.003
100.002
100.001
100.001
100
100
100
100
100
100
100
100
100
100
100
100
100
100
100
100
100
100
100
100
100
100
100
100
100
100
100
100
100
100
387.104
361.462
336.264
311.789
288.292
265.993
245.077
225.685
207.912
191.812
177.395
164.632
153.465
143.806
135.546
128.563
122.728
117.907
113.969
110.788
108.249
106.244
104.679
103.47
102.548
101.852
101.333
100.949
100.669
100.467
100.323
100.221
100.149
100.1
100.066
100.044
100.028
100.018
100.012
100.007
100.005
100.003
100.002
100.001
100.001
100
100
100
100
100
100
100
100
100
100
100
100
100
100
100
100
100
100
100
100
100
100
100
100
100
100
100
100
100
100
387.104
361.462
336.264
311.789
288.292
265.993
245.077
225.685
207.912
191.812
177.395
164.632
153.465
143.806
135.546
128.563
122.728
117.907
113.969
110.788
108.249
106.244
104.679
103.47
102.548
101.852
101.333
100.949
100.669
100.467
100.323
100.221
100.149
100.1
100.066
100.044
100.028
100.018
100.012
100.007
100.005
100.003
100.002
100.001
100.001
100
100
100
100
100
100
100
100
100
100
100
100
100
100
100
100
100
100
100
100
100
100
100
100
100
100
100
100
100
100
387.104
361.462
336.264
311.789
288.292
265.993
245.077
225.685
207.912
191.812
177.395
164.632
153.465
143.806
135.546
128.563
122.728
117.907
113.969
110.788
108.249
106.244
104.679
103.47
102.548
101.852
101.333
100.949
100.669
100.467
100.323
100.221
100.149
100.1
100.066
100.044
100.028
100.018
100.012
100.007
100.005
100.003
100.002
100.001
100.001
100
100
100
100
100
100
100
100
100
100
100
100
100
100
100
100
100
100
100
100
100
100
100
100
100
100
100
100
100
100
387.104
361.462
336.264
311.789
288.292
265.993
245.077
225.685
207.912
191.812
177.395
164.632
153.465
143.806
135.546
128.563
122.728
117.907
113.969
110.788
108.249
106.244
104.679
103.47
102.548
101.852
101.333
100.949
100.669
100.467
100.323
100.221
100.149
100.1
100.066
100.044
100.028
100.018
100.012
100.007
100.005
100.003
100.002
100.001
100.001
100
100
100
100
100
100
100
100
100
100
100
100
100
100
100
100
100
100
100
100
100
100
100
100
100
100
100
100
100
100
387.104
361.462
336.264
311.789
288.292
265.993
245.077
225.685
207.912
191.812
177.395
164.632
153.465
143.806
135.546
128.563
122.728
117.907
113.969
110.788
108.249
106.244
104.679
103.47
102.548
101.852
101.333
100.949
100.669
100.467
100.323
100.221
100.149
100.1
100.066
100.044
100.028
100.018
100.012
100.007
100.005
100.003
100.002
100.001
100.001
100
100
100
100
100
100
100
100
100
100
100
100
100
100
100
100
100
100
100
100
100
100
100
100
100
100
100
100
100
100
387.104
361.462
336.264
311.789
288.292
265.993
245.077
225.685
207.912
191.812
177.395
164.632
153.465
143.806
135.546
128.563
122.728
117.907
113.969
110.788
108.249
106.244
104.679
103.47
102.548
101.852
101.333
100.949
100.669
100.467
100.323
100.221
100.149
100.1
100.066
100.044
100.028
100.018
100.012
100.007
100.005
100.003
100.002
100.001
100.001
100
100
100
100
100
100
100
100
100
100
100
100
100
100
100
100
100
100
100
100
100
100
100
100
100
100
100
100
100
100
387.104
361.462
336.264
311.789
288.292
265.993
245.077
225.685
207.912
191.812
177.395
164.632
153.465
143.806
135.546
128.563
122.728
117.907
113.969
110.788
108.249
106.244
104.679
103.47
102.548
101.852
101.333
100.949
100.669
100.467
100.323
100.221
100.149
100.1
100.066
100.044
100.028
100.018
100.012
100.007
100.005
100.003
100.002
100.001
100.001
100
100
100
100
100
100
100
100
100
100
100
100
100
100
100
100
100
100
100
100
100
100
100
100
100
100
100
100
100
100
387.104
361.462
336.264
311.789
288.292
265.993
245.077
225.685
207.912
191.812
177.395
164.632
153.465
143.806
135.546
128.563
122.728
117.907
113.969
110.788
108.249
106.244
104.679
103.47
102.548
101.852
101.333
100.949
100.669
100.467
100.323
100.221
100.149
100.1
100.066
100.044
100.028
100.018
100.012
100.007
100.005
100.003
100.002
100.001
100.001
100
100
100
100
100
100
100
100
100
100
100
100
100
100
100
100
100
100
100
100
100
100
100
100
100
100
100
100
100
100
387.104
361.462
336.264
311.789
288.292
265.993
245.077
225.685
207.912
191.812
177.395
164.632
153.465
143.806
135.546
128.563
122.728
117.907
113.969
110.788
108.249
106.244
104.679
103.47
102.548
101.852
101.333
100.949
100.669
100.467
100.323
100.221
100.149
100.1
100.066
100.044
100.028
100.018
100.012
100.007
100.005
100.003
100.002
100.001
100.001
100
100
100
100
100
100
100
100
100
100
100
100
100
100
100
100
100
100
100
100
100
100
100
100
100
100
100
100
100
100
387.104
361.462
336.264
311.789
288.292
265.993
245.077
225.685
207.912
191.812
177.395
164.632
153.465
143.806
135.546
128.563
122.728
117.907
113.969
110.788
108.249
106.244
104.679
103.47
102.548
101.852
101.333
100.949
100.669
100.467
100.323
100.221
100.149
100.1
100.066
100.044
100.028
100.018
100.012
100.007
100.005
100.003
100.002
100.001
100.001
100
100
100
100
100
100
100
100
100
100
100
100
100
100
100
100
100
100
100
100
100
100
100
100
100
100
100
100
100
100
387.104
361.462
336.264
311.789
288.292
265.993
245.077
225.685
207.912
191.812
177.395
164.632
153.465
143.806
135.546
128.563
122.728
117.907
113.969
110.788
108.249
106.244
104.679
103.47
102.548
101.852
101.333
100.949
100.669
100.467
100.323
100.221
100.149
100.1
100.066
100.044
100.028
100.018
100.012
100.007
100.005
100.003
100.002
100.001
100.001
100
100
100
100
100
100
100
100
100
100
100
100
100
100
100
100
100
100
100
100
100
100
100
100
100
100
100
100
100
100
387.104
361.462
336.264
311.789
288.292
265.993
245.077
225.685
207.912
191.812
177.395
164.632
153.465
143.806
135.546
128.563
122.728
117.907
113.969
110.788
108.249
106.244
104.679
103.47
102.548
101.852
101.333
100.949
100.669
100.467
100.323
100.221
100.149
100.1
100.066
100.044
100.028
100.018
100.012
100.007
100.005
100.003
100.002
100.001
100.001
100
100
100
100
100
100
100
100
100
100
100
100
100
100
100
100
100
100
100
100
100
100
100
100
100
100
100
100
100
100
387.104
361.462
336.264
311.789
288.292
265.993
245.077
225.685
207.912
191.812
177.395
164.632
153.465
143.806
135.546
128.563
122.728
117.907
113.969
110.788
108.249
106.244
104.679
103.47
102.548
101.852
101.333
100.949
100.669
100.467
100.323
100.221
100.149
100.1
100.066
100.044
100.028
100.018
100.012
100.007
100.005
100.003
100.002
100.001
100.001
100
100
100
100
100
100
100
100
100
100
100
100
100
100
100
100
100
100
100
100
100
100
100
100
100
100
100
100
100
100
387.104
361.462
336.264
311.789
288.292
265.993
245.077
225.685
207.912
191.812
177.395
164.632
153.465
143.806
135.546
128.563
122.728
117.907
113.969
110.788
108.249
106.244
104.679
103.47
102.548
101.852
101.333
100.949
100.669
100.467
100.323
100.221
100.149
100.1
100.066
100.044
100.028
100.018
100.012
100.007
100.005
100.003
100.002
100.001
100.001
100
100
100
100
100
100
100
100
100
100
100
100
100
100
100
100
100
100
100
100
100
100
100
100
100
100
100
100
100
100
387.104
361.462
336.264
311.789
288.292
265.993
245.077
225.685
207.912
191.812
177.395
164.632
153.465
143.806
135.546
128.563
122.728
117.907
113.969
110.788
108.249
106.244
104.679
103.47
102.548
101.852
101.333
100.949
100.669
100.467
100.323
100.221
100.149
100.1
100.066
100.044
100.028
100.018
100.012
100.007
100.005
100.003
100.002
100.001
100.001
100
100
100
100
100
100
100
100
100
100
100
100
100
100
100
100
100
100
100
100
100
100
100
100
100
100
100
100
100
100
387.104
361.462
336.264
311.789
288.292
265.993
245.077
225.685
207.912
191.812
177.395
164.632
153.465
143.806
135.546
128.563
122.728
117.907
113.969
110.788
108.249
106.244
104.679
103.47
102.548
101.852
101.333
100.949
100.669
100.467
100.323
100.221
100.149
100.1
100.066
100.044
100.028
100.018
100.012
100.007
100.005
100.003
100.002
100.001
100.001
100
100
100
100
100
100
100
100