/*--------------------------------*- C++ -*----------------------------------*\
  =========                 |
  \\      /  F ield         | OpenFOAM: The Open Source CFD Toolbox
   \\    /   O peration     | Website:  https://openfoam.org
    \\  /    A nd           | Version:  10
     \\/     M anipulation  |
\*---------------------------------------------------------------------------*/
FoamFile
{
    format      ascii;
    class       volScalarField;
    location    "488";
    object      gradTx;
}
// * * * * * * * * * * * * * * * * * * * * * * * * * * * * * * * * * * * * * //

dimensions      [0 -1 0 1 0 0 0];

internalField   nonuniform List<scalar> 
11250
(
14307.6
8127.21
5348.54
3880.26
2995.79
2407.83
1987.75
1671.31
1423.38
1223.26
1058
919.128
800.839
699.033
610.721
533.664
466.142
406.802
354.558
308.521
267.947
232.206
200.754
173.118
148.881
127.67
109.154
93.0348
79.0423
66.9338
56.4896
47.5114
39.8204
33.2558
27.6732
22.9436
18.952
15.5963
12.7864
10.4429
8.49618
6.88566
5.55874
4.46999
3.58035
2.85645
2.26986
1.79655
1.41625
1.11198
0.869557
0.677243
0.525328
0.405837
0.312251
0.239267
0.182594
0.138776
0.105041
0.0791801
0.0594409
0.0444385
0.0330847
0.0245284
0.0181071
0.0133073
0.00973296
0.00707974
0.00511451
0.00365909
0.00257725
0.0017644
0.00113928
0.000637276
0.000204916
4103.44
4725.92
4038.88
3297.47
2700.57
2241.47
1885.85
1604.77
1377.72
1190.69
1034.05
901.074
786.959
688.189
602.136
526.794
460.596
402.293
350.872
305.493
265.451
230.143
199.046
171.703
147.706
126.696
108.346
92.3648
78.4875
66.4749
56.1107
47.1991
39.5635
33.045
27.5006
22.8026
18.8372
15.5031
12.7109
10.3819
8.44711
6.8463
5.52727
4.4449
3.56043
2.84068
2.25743
1.78678
1.4086
1.106
0.864916
0.673649
0.522555
0.403706
0.310619
0.238023
0.181649
0.13806
0.104501
0.0787751
0.059138
0.0442128
0.0329173
0.0244047
0.018016
0.0132406
0.0096843
0.00704444
0.00508907
0.00364093
0.00256449
0.00175568
0.00113366
0.000634137
0.000203908
1483.82
2634.58
2784.31
2571.18
2268.81
1973.14
1711.18
1486.15
1294.18
1130.01
988.847
866.68
760.326
667.264
585.498
513.434
449.78
393.479
343.651
299.552
260.548
226.086
195.684
168.913
145.39
124.773
106.75
91.0412
77.3909
65.5677
55.3613
46.5813
39.0552
32.6276
27.1588
22.5235
18.6098
15.3184
12.5613
10.2611
8.34985
6.76826
5.46486
4.39516
3.52091
2.8094
2.23276
1.76739
1.39341
1.09416
0.855706
0.666516
0.517052
0.399476
0.30738
0.235552
0.179772
0.136639
0.10343
0.0779708
0.0585364
0.0437646
0.0325847
0.0241589
0.0178351
0.013108
0.00958761
0.00697429
0.00503852
0.00360485
0.00253913
0.00173835
0.00112248
0.000627893
0.000201901
681.234
1544.71
1893.32
1935.12
1831.63
1672.62
1501.31
1336.42
1184.93
1048.62
927.042
818.969
722.968
637.656
561.793
494.291
434.212
380.745
333.186
290.92
253.407
220.167
190.77
164.829
141.996
121.952
104.407
89.0962
75.7784
64.2327
54.258
45.6711
38.306
32.0123
26.6547
22.1116
18.2741
15.0456
12.3403
10.0826
8.20615
6.65293
5.37261
4.32162
3.46249
2.76314
2.19627
1.73871
1.37095
1.07663
0.842077
0.655961
0.508907
0.393215
0.302586
0.231895
0.176993
0.134536
0.101844
0.0767797
0.0576454
0.0431008
0.0320921
0.0237948
0.0175671
0.0129116
0.00944437
0.00687036
0.00496362
0.00355138
0.00250155
0.00171267
0.00110592
0.00061864
0.000198928
377.78
970.145
1309.84
1445.36
1451.19
1385.88
1286.75
1175.18
1062.61
954.722
854.098
761.649
677.453
601.179
532.323
470.318
414.598
364.62
319.879
279.905
244.267
212.571
184.45
159.568
137.616
118.306
101.374
86.576
73.6869
62.4997
52.8245
44.4878
37.3313
31.2114
25.9982
21.5748
17.8365
14.6899
12.052
9.84971
8.01856
6.50235
5.25212
4.22554
3.38614
2.70269
2.14857
1.70121
1.34157
1.0537
0.82425
0.642151
0.49825
0.385022
0.296311
0.227108
0.173355
0.131782
0.0997678
0.0752202
0.0564788
0.0422315
0.0314469
0.0233179
0.0172161
0.0126544
0.00925672
0.00673421
0.00486549
0.00348133
0.00245231
0.00167902
0.00108422
0.000606513
0.00019503
237.664
648.679
931.225
1086.26
1143.12
1134.42
1086.29
1016.82
937.637
855.765
775.299
698.495
626.502
559.816
498.552
442.607
391.761
345.733
304.211
266.879
233.42
203.527
176.904
153.272
132.362
113.925
97.7245
83.5391
71.1634
60.4063
51.0912
43.0557
36.1507
30.2405
25.2019
20.9234
17.3052
14.2578
11.7017
9.56649
7.79037
6.3191
5.10546
4.10856
3.29316
2.62904
2.09044
1.6555
1.30576
1.02574
0.802508
0.625306
0.485248
0.375024
0.288654
0.221266
0.168914
0.12842
0.0972325
0.0733159
0.055054
0.0411698
0.0306589
0.0227354
0.0167873
0.0123401
0.00902743
0.00656783
0.00474558
0.00339572
0.00239212
0.00163788
0.0010577
0.00059169
0.000190266
161.998
456.096
680.812
826.276
901.789
923.833
908.795
870.029
817.354
757.551
695.107
632.891
572.676
515.507
461.954
412.285
366.569
324.754
286.708
252.255
221.189
193.292
168.338
146.103
126.367
108.915
93.5425
80.0532
68.2624
57.9966
49.0937
41.4034
34.7874
29.1184
24.2807
20.1694
16.6897
13.7569
11.2953
9.23788
7.52549
6.10629
4.93507
3.9726
3.18505
2.54339
2.02282
1.60231
1.26407
0.993195
0.77719
0.605686
0.470101
0.363376
0.27973
0.214456
0.163738
0.124501
0.0942763
0.071095
0.0533922
0.0399312
0.0297395
0.0220558
0.016287
0.0119733
0.00875984
0.00637364
0.0046056
0.00329578
0.00232186
0.00158986
0.00102673
0.000574382
0.000184703
116.364
333.299
510.319
637.163
715.095
751.714
756.626
738.927
706.149
664.068
616.894
567.587
518.17
469.987
423.899
380.431
339.874
302.357
267.903
236.456
207.913
182.136
158.968
138.237
119.77
103.389
88.92
76.1927
65.0443
55.3193
46.8713
39.563
33.267
27.8658
23.2515
19.3262
16.0009
13.196
10.84
8.86943
7.22833
5.86743
4.74373
3.81986
3.06356
2.44709
1.94677
1.54247
1.21716
0.956558
0.748684
0.58359
0.453039
0.350251
0.269673
0.20678
0.157902
0.120081
0.0909423
0.06859
0.0515175
0.0385339
0.0287021
0.0212888
0.0157222
0.0115593
0.00845775
0.00615439
0.00444754
0.00318292
0.00224251
0.00153562
0.000991748
0.000554832
0.00017842
86.6547
250.807
390.649
497.854
570.839
612.648
628.616
624.63
606.136
577.704
542.951
504.618
464.722
424.705
385.575
348.012
312.457
279.176
248.308
219.898
193.928
170.333
149.014
129.854
112.718
97.4657
83.9531
72.0359
61.5725
52.4262
44.466
37.5683
31.6172
26.5049
22.1322
18.4083
15.2505
12.5844
10.3431
8.46714
6.90368
5.60633
4.53447
3.65274
2.93056
2.34163
1.86345
1.47689
1.16574
0.916378
0.717412
0.559343
0.434311
0.335842
0.25863
0.198349
0.15149
0.115225
0.0872783
0.0658365
0.0494565
0.0369974
0.0275613
0.0204451
0.015101
0.0111038
0.00812535
0.00591313
0.0042736
0.00305871
0.00215517
0.00147591
0.000953239
0.000533309
0.000171502
66.2284
193.004
304.236
393.627
458.843
500.718
522.049
526.509
517.879
499.614
474.649
445.361
413.603
380.785
347.948
315.845
285.005
255.779
228.392
202.966
179.551
158.142
138.692
121.128
105.354
91.2625
78.7384
67.6616
57.9117
49.3698
41.9208
35.4544
29.8663
25.059
20.9416
17.4309
14.4507
11.932
9.81271
8.03733
6.55659
5.32701
4.31047
3.47375
2.78805
2.22858
1.7741
1.40652
1.11054
0.873237
0.683823
0.533292
0.414184
0.320352
0.246755
0.189281
0.144593
0.109999
0.0833348
0.0628725
0.0472375
0.0353428
0.0263326
0.0195364
0.0144317
0.010613
0.00776714
0.00565308
0.00408609
0.0029248
0.002061
0.00141153
0.000911713
0.000510099
0.000164042
51.6047
151.106
240.261
314.4
371.229
410.575
433.786
443.077
441.004
430.096
412.65
390.633
365.666
339.041
311.761
284.588
258.084
232.652
208.567
186.007
165.073
145.805
128.202
112.225
97.8154
84.8935
73.3698
63.1473
54.1253
46.2024
39.2784
33.2562
28.043
23.5511
19.6986
16.4093
13.6139
11.2488
9.25673
7.58645
6.19221
5.03358
4.07501
3.28549
2.63807
2.10954
1.67997
1.33237
1.05234
0.827736
0.648384
0.505796
0.392934
0.303993
0.23421
0.179698
0.137303
0.104474
0.0791647
0.0597374
0.04489
0.0335921
0.0250322
0.0185745
0.0137231
0.0100933
0.00738779
0.00537766
0.00388747
0.00278293
0.00196122
0.0013433
0.000867707
0.000485501
0.000156135
40.8052
119.898
191.874
253.272
302.093
337.757
360.808
372.537
374.633
368.908
357.111
340.825
321.413
300.013
277.545
254.736
232.145
210.191
189.179
169.318
150.746
133.538
117.725
103.3
90.2307
78.4651
67.9358
58.5664
50.2743
42.9741
36.5802
31.0078
26.1751
22.0042
18.4216
15.3587
12.7522
10.5446
8.68317
7.12092
5.8157
4.73015
3.83136
3.09055
2.48269
1.98615
1.58234
1.25542
0.991921
0.78048
0.611564
0.477219
0.37084
0.286978
0.221158
0.169726
0.129714
0.0987215
0.0748215
0.0564714
0.0424439
0.0317674
0.0236766
0.0175715
0.0129842
0.00955132
0.00699207
0.0050903
0.00368022
0.00263487
0.00185708
0.00127209
0.000821768
0.000459821
0.000147881
32.633
96.1366
154.609
205.468
247.061
278.684
300.452
313.082
317.671
315.494
307.86
296.014
281.075
264.014
245.647
226.638
207.519
188.703
170.503
153.144
136.785
121.525
107.419
94.4851
82.7138
72.0736
62.5174
53.9866
46.415
39.732
33.865
28.7412
24.2891
20.44
17.1285
14.2934
11.8776
9.82898
8.09977
6.64698
5.43206
4.42073
3.58272
2.89149
2.32392
1.85998
1.48247
1.17667
0.930055
0.732068
0.573827
0.447918
0.348178
0.26952
0.207762
0.159488
0.121919
0.0928117
0.0703584
0.0531144
0.0399291
0.0298911
0.0222823
0.0165397
0.0122239
0.00899349
0.00658473
0.00479446
0.00346681
0.00248239
0.00174981
0.00119873
0.000774442
0.000433364
0.000139376
26.3276
77.7177
125.47
167.642
202.895
230.536
250.463
263.045
268.977
269.148
264.525
256.069
244.684
231.18
216.26
200.517
184.438
168.415
152.751
137.678
123.362
109.918
97.418
85.8973
75.3639
65.8038
57.1864
49.4686
42.5985
36.5188
31.1686
26.486
22.4093
18.8785
15.8359
13.2271
11.0012
9.11107
7.51386
6.17053
5.04605
4.10914
3.33215
2.69074
2.16369
1.73259
1.38157
1.09705
0.86748
0.683078
0.535623
0.418241
0.325217
0.251825
0.194179
0.149103
0.114011
0.0868135
0.0658274
0.0497054
0.0373745
0.0279846
0.0208654
0.0154909
0.0114509
0.00842622
0.00617042
0.00449351
0.00324967
0.00232723
0.00164064
0.00112407
0.000726265
0.00040643
0.000130718
21.3857
63.2301
102.394
137.404
167.186
191.112
208.981
220.953
227.462
229.117
226.626
220.725
212.131
201.511
189.459
176.491
163.044
149.475
136.073
123.062
110.61
98.839
87.8301
77.6314
68.2641
59.7275
52.0046
45.0651
38.8696
33.3721
28.5226
24.2688
20.558
17.3382
14.559
12.1723
10.133
8.39916
6.93222
5.69709
4.66212
3.79897
3.08251
2.49059
2.00383
1.6054
1.28076
1.01747
0.804899
0.634058
0.497377
0.388519
0.30221
0.234087
0.180558
0.138685
0.106075
0.0807927
0.0612778
0.0462814
0.0348081
0.0260688
0.0194411
0.0144365
0.0106735
0.00785565
0.00575362
0.00419068
0.00303114
0.00217105
0.00153074
0.00104889
0.000677752
0.000379306
0.000121998
17.4629
51.6981
83.9277
113.023
138.125
158.69
174.483
185.543
192.129
194.657
193.641
189.641
183.219
174.916
165.228
154.597
143.404
131.972
120.566
109.395
98.6253
88.3776
78.7382
69.7627
61.4813
53.9037
47.0233
40.8205
35.2663
30.3245
25.9545
22.1127
18.7546
15.8353
13.3111
11.1401
9.28234
7.70075
6.36098
5.23163
4.2843
3.49346
2.83642
2.29313
1.846
1.47974
1.18111
0.93875
0.742959
0.585515
0.459484
0.359057
0.279395
0.21649
0.16704
0.128342
0.0981934
0.0748107
0.0567561
0.0428774
0.0322559
0.0241631
0.018024
0.013387
0.00989962
0.00728751
0.0053385
0.00388901
0.00281342
0.00201542
0.0014212
0.000973947
0.00062939
0.000352264
0.000113305
14.3168
42.4288
69.0202
93.2192
114.342
131.925
145.734
155.741
162.094
165.073
165.048
162.442
157.694
151.239
143.485
134.805
125.53
115.942
106.28
96.738
87.4709
78.5968
70.2024
62.347
55.0667
48.3784
42.2834
36.7707
31.8197
27.4027
23.4872
20.0373
17.0155
14.3836
12.1039
10.1401
8.45714
7.02242
5.80553
4.77856
3.91616
3.19551
2.59621
2.10023
1.69171
1.35681
1.08355
0.861636
0.682248
0.537908
0.422302
0.330134
0.256987
0.199198
0.153751
0.11817
0.0904395
0.0689238
0.0523047
0.0395252
0.0297419
0.0222853
0.0166272
0.0123524
0.00913649
0.00672713
0.00492896
0.00359134
0.00259852
0.00186178
0.00131305
0.000899947
0.000581629
0.000325555
0.000104718
11.7725
34.9188
56.8999
77.0374
94.7853
109.757
121.732
130.65
136.587
139.73
140.343
138.745
135.277
130.285
124.104
117.044
109.387
101.378
93.2297
85.1163
77.1807
69.5345
62.2619
55.4229
49.0568
43.1853
37.8155
32.943
28.5542
24.6282
21.1393
18.0584
15.3542
12.9945
10.9471
9.18037
7.66414
6.36975
5.27046
4.34164
3.56079
2.90761
2.3639
1.91352
1.54224
1.23764
0.988918
0.786785
0.623283
0.491644
0.386149
0.301997
0.235177
0.182361
0.140806
0.108258
0.0828799
0.0631822
0.0479618
0.0362536
0.0272874
0.0204515
0.0152628
0.0113414
0.00839062
0.00617929
0.00452849
0.00330019
0.0023883
0.00171145
0.00120722
0.000827516
0.000534874
0.000299408
9.63111e-05
9.70094
28.7952
46.9884
63.7494
78.6419
91.3452
101.663
109.518
114.944
118.061
119.06
118.179
115.681
111.841
106.931
101.207
94.9078
88.2436
81.3988
74.5296
67.7647
61.2074
54.9373
49.013
43.4747
38.347
33.6411
29.3574
25.4876
22.0168
18.9249
16.1884
13.7815
11.6773
9.84828
8.26752
6.90883
5.74731
4.75958
3.92401
3.22076
2.63188
2.14121
1.73439
1.39873
1.12313
0.897916
0.714759
0.566507
0.447071
0.351299
0.274859
0.214131
0.166106
0.128302
0.0986793
0.0755724
0.05763
0.0437605
0.0330876
0.0249115
0.0186758
0.0139411
0.0103619
0.00766775
0.0056482
0.00414017
0.00301781
0.00218436
0.00156558
0.0011045
0.000757213
0.000489487
0.000274023
8.81491e-05
8.00521
23.7764
38.8456
52.7947
65.2743
76.0201
84.8606
91.7161
96.5917
99.5653
100.772
100.389
98.6203
95.6827
91.7951
87.1692
82.0031
76.4764
70.7483
64.9557
59.2133
53.6148
48.234
43.1265
38.332
33.8762
29.773
26.0262
22.6318
19.5794
16.8537
14.436
12.3051
10.4386
8.81343
7.40654
6.19546
5.15868
4.27587
3.52815
2.89812
2.36999
1.9295
1.56394
1.26207
1.014
0.811129
0.646023
0.51229
0.404481
0.31798
0.2489
0.193988
0.150542
0.116324
0.0894994
0.0685659
0.0523043
0.0397291
0.0300486
0.02263
0.0169701
0.0126713
0.00942045
0.00697278
0.00513747
0.00376663
0.00274612
0.0019881
0.00142518
0.00100562
0.000689518
0.000445779
0.000249575
8.02878e-05
6.61127
19.6466
32.1315
43.7355
54.1784
63.2432
70.7825
76.7197
81.0444
83.8044
85.0955
85.0498
83.824
81.5892
78.5209
74.7925
70.5681
65.9995
61.2226
56.3561
51.5012
46.7415
42.1442
37.761
33.6299
29.7767
26.2165
22.9557
19.9934
17.3226
14.932
12.8069
10.9301
9.28314
7.84658
6.60096
5.52709
4.60647
3.82155
3.15592
2.59442
2.12323
1.72983
1.40305
1.13296
0.910821
0.729017
0.580944
0.460924
0.364106
0.286375
0.224262
0.174861
0.135754
0.104939
0.0807697
0.0619002
0.0472356
0.0358908
0.0271541
0.0204562
0.0153444
0.0114605
0.00852256
0.00630977
0.00465009
0.00341009
0.00248672
0.00180067
0.00129107
0.00091114
0.000624832
0.000404007
0.000226207
7.27738e-05
5.46169
16.2377
26.5801
36.2264
44.9518
52.5783
58.9813
64.0899
67.8854
70.396
71.6889
71.8624
71.0368
69.3466
66.9324
63.935
60.4902
56.7248
52.7542
48.6804
44.5914
40.5612
36.65
32.9049
29.3616
26.0449
22.9706
20.1465
17.5738
15.2486
13.1624
11.304
9.65941
8.21351
6.95018
5.85299
4.90567
4.0924
3.3981
2.80859
2.31074
1.8925
1.54297
1.25234
1.01192
0.814015
0.651916
0.519794
0.412626
0.326119
0.256621
0.201054
0.156835
0.12181
0.094198
0.0725304
0.0556062
0.0424476
0.0322635
0.0244176
0.0184004
0.0138064
0.0103147
0.00767257
0.00568195
0.00418845
0.00307227
0.00224088
0.001623
0.0011639
0.000821544
0.000563476
0.00036438
0.000204038
6.56445e-05
4.51134
13.4176
21.9807
29.9919
37.2702
43.6704
49.0875
53.4582
56.7602
59.0083
60.2496
60.5571
60.0231
58.7529
56.859
54.4553
51.6534
48.5588
45.2687
41.87
38.4387
35.0394
31.7254
28.5391
25.5133
22.6713
20.0289
17.5945
15.3709
13.3563
11.5448
9.92752
8.4936
7.23059
6.12518
5.16361
4.33215
3.61735
3.00632
2.48688
2.0477
1.67835
1.36936
1.1122
0.899272
0.723851
0.580051
0.462756
0.367546
0.290639
0.228815
0.179353
0.139969
0.108758
0.0841386
0.0648103
0.049706
0.0379572
0.0288605
0.0218493
0.0164701
0.0123618
0.00923814
0.00687368
0.00509169
0.00375429
0.00275449
0.00200955
0.00145577
0.00104419
0.000737181
0.000505693
0.000327056
0.000183154
5.89283e-05
3.7244
11.0809
18.165
24.8101
30.8707
36.2281
40.7947
44.5151
47.3661
49.354
50.5114
50.8923
50.5676
49.6198
48.1383
46.2153
43.9419
41.4055
38.6875
35.8613
32.9921
30.1357
27.3387
24.6391
22.0661
19.6417
17.3806
15.2917
13.379
11.6417
10.0762
8.67566
7.43151
6.33369
5.37124
4.53272
3.80659
3.18148
2.64642
2.19102
1.80554
1.481
1.20922
0.982818
0.795182
0.640469
0.513542
0.40993
0.325767
0.257736
0.203012
0.159204
0.124301
0.0966251
0.0747836
0.0576273
0.0442139
0.0337756
0.02569
0.0194556
0.0146705
0.0110144
0.00823368
0.00612806
0.0045406
0.00334883
0.00245762
0.0017934
0.00129947
0.000932275
0.000658292
0.00045165
0.000292141
0.000163617
5.26449e-05
3.07208
9.14284
14.9969
20.501
25.5379
30.0111
33.8477
36.9999
39.4451
41.1846
42.2404
42.6527
42.4757
41.7739
40.6185
39.0835
37.2434
35.17
32.9311
30.5885
28.1975
25.8059
23.4544
21.1762
18.9974
16.9379
15.0117
13.2274
11.5895
10.0984
8.75184
7.54476
6.47046
5.52084
4.68693
3.95929
3.32826
2.78429
2.31808
1.92079
1.58412
1.30038
1.06252
0.864183
0.69966
0.563888
0.452411
0.361341
0.287312
0.227432
0.179232
0.140623
0.109844
0.0854249
0.0661431
0.0509896
0.0391364
0.0299079
0.0227563
0.0172397
0.0130039
0.00976627
0.00730284
0.00543684
0.00402956
0.00297272
0.00218216
0.00159277
0.00115437
0.000828346
0.000585018
0.000401444
0.000259701
0.000145462
4.68058e-05
2.53109
7.5348
12.3657
16.9172
21.0949
24.8202
28.0328
30.692
32.7769
34.2854
35.2324
35.6476
35.5724
35.0574
34.1589
32.9365
31.4504
29.7599
27.9209
25.9851
23.9992
22.004
20.0344
18.1193
16.2818
14.5397
12.9058
11.3884
9.99205
8.71814
7.56523
6.52975
5.60648
4.78897
4.06991
3.44154
2.89581
2.42475
2.02051
1.67562
1.38303
1.13617
0.929025
0.756132
0.612587
0.494025
0.3966
0.316948
0.252154
0.199707
0.157463
0.123603
0.0965944
0.0751542
0.0582155
0.0448966
0.0344733
0.0263544
0.0200597
0.0152021
0.0114708
0.00861762
0.0064459
0.00480028
0.00355879
0.00262613
0.00192824
0.00140778
0.00102053
0.000732469
0.000517406
0.000355108
0.000229757
0.000128702
4.1415e-05
2.08242
6.20062
10.1809
13.9378
17.3954
20.4897
23.1711
25.4052
27.1732
28.4711
29.309
29.7085
29.7016
29.3275
28.6308
27.6594
26.4621
25.0872
23.5809
21.9862
20.3421
18.6834
17.0397
15.436
13.8925
12.4249
11.0448
9.75986
8.57478
7.49124
6.50864
5.62445
4.83468
4.1342
3.51711
2.97704
2.50736
2.10139
1.75258
1.45463
1.20158
0.987857
0.808338
0.658361
0.53373
0.430704
0.345976
0.276652
0.220218
0.174506
0.137663
0.108114
0.0845295
0.0657968
0.0509891
0.0393398
0.0302186
0.0231105
0.0175971
0.0133405
0.0100695
0.00756736
0.00566209
0.00421784
0.00312789
0.00230879
0.00169568
0.00123831
0.00089789
0.000644587
0.000455418
0.000312618
0.000202294
0.000113329
3.64701e-05
1.71048
5.09418
8.3677
11.4626
14.3176
16.881
19.1119
20.9815
22.4732
23.5822
24.315
24.6876
24.7243
24.4557
23.9173
23.1471
22.1846
21.0692
19.8388
18.529
17.1724
15.798
14.4313
13.0934
11.8019
10.5706
9.4096
8.3262
7.32475
6.4072
5.5735
4.82192
4.14944
3.55202
3.02491
2.56292
2.16059
1.81239
1.51285
1.25669
1.03889
0.854746
0.69992
0.570453
0.462769
0.373677
0.300349
0.240307
0.191394
0.151747
0.11977
0.0941076
0.0736133
0.0573257
0.0444437
0.0343042
0.0263611
0.0201681
0.0153624
0.0116505
0.00879687
0.00661314
0.00494969
0.00368828
0.00273597
0.00202007
0.00148403
0.00108402
0.000786208
0.000564538
0.000398942
0.000273899
0.000177264
9.93169e-05
3.19624e-05
1.40237
4.17737
6.86429
9.40833
11.7602
13.8779
15.7281
17.2867
18.5393
19.4809
20.1155
20.455
20.5177
20.3277
19.9129
19.3036
18.5317
17.629
16.6267
15.5541
14.4382
13.3034
12.171
11.059
9.98255
8.95349
7.9809
7.07122
6.22855
5.45494
4.7507
4.1147
3.54468
3.03748
2.58931
2.19595
1.85293
1.55568
1.29967
1.08048
0.893914
0.736016
0.603128
0.491902
0.399309
0.322637
0.259482
0.20773
0.16554
0.131318
0.1037
0.0815208
0.0637977
0.0497045
0.038552
0.0297691
0.0228853
0.0175157
0.013347
0.0101257
0.00764821
0.00575153
0.00430618
0.00320976
0.00238171
0.00175901
0.0012926
0.00094443
0.000685134
0.000492073
0.000347805
0.000238832
0.000154591
8.66229e-05
2.78786e-05
1.14743
3.41854
5.61927
7.70571
9.63824
11.3829
12.9125
14.2069
15.254
16.0489
16.5938
16.8974
16.9739
16.8418
16.5232
16.0423
15.4246
14.696
13.8817
13.006
12.091
11.1571
10.2221
9.30131
8.40747
7.55085
6.73935
5.97869
5.27262
4.62316
4.03087
3.49505
3.01404
2.58539
2.20608
1.87269
1.58159
1.32902
1.11123
0.924564
0.765506
0.630755
0.517238
0.422138
0.3429
0.277233
0.2231
0.178708
0.142491
0.113095
0.0893548
0.0702785
0.0550257
0.0428898
0.0332809
0.0257097
0.0197727
0.0151393
0.0115405
0.00875839
0.00661773
0.00497827
0.00372845
0.00277999
0.00206343
0.00152438
0.00112049
0.000818897
0.000594213
0.000426871
0.000301781
0.000207266
0.000134179
7.51927e-05
2.42012e-05
0.936787
2.79139
4.58977
6.29678
7.88061
9.31383
10.5743
11.6455
12.517
13.1843
13.6486
13.9162
13.9979
13.9081
13.6642
13.2855
12.7924
12.2057
11.5461
10.8331
10.0853
9.3193
8.55
7.79026
7.05086
6.34055
5.66616
5.0327
4.44355
3.90063
3.40463
2.95519
2.55109
2.19044
1.87085
1.58958
1.34367
1.13006
0.945646
0.787412
0.652443
0.537985
0.441473
0.360545
0.293059
0.237084
0.190905
0.153007
0.122066
0.0969351
0.0766265
0.0602972
0.047233
0.0368326
0.0285933
0.0220979
0.0170018
0.0130229
0.0099309
0.00753957
0.00569881
0.00428845
0.00321286
0.00239631
0.00177918
0.00131477
0.000966687
0.000706678
0.000512913
0.000368551
0.000260607
0.000179019
0.00011591
6.49616e-05
2.09094e-05
0.763023
2.27393
3.73996
5.13301
6.42754
7.60148
8.63681
9.52003
10.2423
10.7997
11.1926
11.4255
11.5068
11.4476
11.2615
10.964
10.5712
10.1001
9.56715
8.98849
8.37916
7.75296
7.12221
6.49761
5.88825
5.30153
4.7433
4.2179
3.72832
3.27637
2.86279
2.48743
2.14942
1.84733
1.57926
1.34303
1.13625
0.956404
0.800973
0.667463
0.553466
0.456699
0.375028
0.306485
0.249277
0.201789
0.162581
0.13038
0.104072
0.0826896
0.0653988
0.0514875
0.0403512
0.0314804
0.0244492
0.0189031
0.0145497
0.011149
0.00850519
0.00645953
0.00488417
0.00367667
0.00275542
0.00205578
0.00152681
0.00112861
0.000830043
0.000606949
0.00044064
0.000316694
0.000223986
0.000153892
9.96548e-05
5.58574e-05
1.798e-05
0.619956
1.8478
3.03986
4.17368
5.22881
6.18751
7.03518
7.76079
8.35701
8.82026
9.15054
9.35117
9.42841
9.39099
9.2496
9.01636
8.70431
8.32689
7.89754
7.42926
6.93435
6.42413
5.90876
5.39712
4.89679
4.41401
3.95373
3.5197
3.11454
2.73988
2.39647
2.08432
1.80283
1.55089
1.32704
1.12952
0.956417
0.805692
0.675285
0.563152
0.467313
0.385881
0.31709
0.259306
0.211038
0.170939
0.137806
0.110575
0.0883115
0.0702041
0.0555523
0.0437569
0.0343088
0.0267786
0.0208066
0.0160936
0.0123923
0.00949962
0.00724966
0.005508
0.00416618
0.00313726
0.00235194
0.0017553
0.00130405
0.000964228
0.000709348
0.000518833
0.000376764
0.00027085
0.000191602
0.000131667
8.52756e-05
4.78028e-05
1.53881e-05
0.502409
1.49762
2.46433
3.38463
4.24217
5.02271
5.71447
6.30846
6.79862
7.18183
7.45784
7.62903
7.70017
7.67802
7.57096
7.38858
7.14123
6.83969
6.49475
6.11694
5.71624
5.3019
4.88225
4.46464
4.05535
3.6596
3.28157
2.92444
2.5905
2.28119
1.99725
1.73877
1.50535
1.29615
1.11004
0.945628
0.801364
0.675612
0.566696
0.472946
0.39274
0.324529
0.266854
0.218366
0.177829
0.144127
0.116259
0.0933378
0.0745853
0.0593232
0.046966
0.0370117
0.0290337
0.0226715
0.0176232
0.0136371
0.010505
0.00805603
0.00615032
0.00467447
0.00353696
0.00266435
0.00199807
0.00149168
0.00110854
0.000819906
0.000603346
0.000441421
0.000320631
0.000230551
0.00016313
0.000112122
7.2628e-05
4.07173e-05
1.3108e-05
0.406051
1.21051
1.99231
2.73718
3.43208
4.0656
4.62827
5.11278
5.51415
5.82971
6.05906
6.20392
6.2679
6.25624
6.1755
6.03322
5.83765
5.59737
5.32103
5.01713
4.69374
4.35837
4.01785
3.6782
3.34462
3.02144
2.71215
2.41947
2.14534
1.89103
1.65723
1.44409
1.25136
1.07841
0.924351
0.788091
0.668397
0.563948
0.473389
0.395363
0.328546
0.271669
0.223535
0.183035
0.149149
0.120954
0.0976226
0.0784194
0.0626977
0.049894
0.0395207
0.0311595
0.0244543
0.0191043
0.0148567
0.0115012
0.00886329
0.00679969
0.00519314
0.00394843
0.00298866
0.00225209
0.00168946
0.00126169
0.000937908
0.00069391
0.000510774
0.000373794
0.000271579
0.000195327
0.000138237
9.503e-05
6.15659e-05
3.45193e-05
1.11133e-05
0.327255
0.975703
1.60616
2.20728
2.76869
3.28126
3.73739
4.13119
4.45857
4.71727
4.90684
5.02849
5.08496
5.08031
5.01966
4.90895
4.75471
4.56375
4.34301
4.0993
3.83913
3.5686
3.29324
3.01799
2.7471
2.48418
2.23212
1.99319
1.76905
1.56082
1.3691
1.19409
1.03563
0.893252
0.766279
0.653846
0.554974
0.468605
0.393645
0.328997
0.273585
0.226373
0.186386
0.152712
0.124515
0.101036
0.081593
0.0655789
0.0524594
0.0417679
0.0331004
0.02611
0.020501
0.016023
0.0124659
0.00965439
0.00744309
0.00571238
0.00436439
0.00331953
0.00251351
0.00189469
0.00142182
0.00106215
0.000789824
0.000584523
0.000430379
0.000315046
0.000228955
0.00016471
0.000116593
8.01666e-05
5.19445e-05
2.91277e-05
9.37806e-06
0.262988
0.784162
1.29108
1.77474
2.2269
2.64028
3.00881
3.32774
3.59373
3.8049
3.96078
4.06222
4.11132
4.11118
4.06582
3.97989
3.85855
3.70721
3.5314
3.33656
3.12792
2.91041
2.68852
2.46625
2.24709
2.03399
1.82935
1.63507
1.45255
1.28272
1.12616
0.983056
0.853319
0.736614
0.632413
0.540044
0.458729
0.387624
0.325852
0.272527
0.226779
0.187768
0.154698
0.126827
0.103471
0.0840088
0.0678803
0.054587
0.0436894
0.0348029
0.0275943
0.0217771
0.0171067
0.0133761
0.0104111
0.00806635
0.00622129
0.00477654
0.00365076
0.00277776
0.00210404
0.00158657
0.00119099
0.000889999
0.000662013
0.00049008
0.000360944
0.00026429
0.000192118
0.000138243
9.78795e-05
6.73121e-05
4.3622e-05
2.44636e-05
7.87679e-06
0.210714
0.628345
1.0347
1.42266
1.78568
2.11799
2.41473
2.67209
2.88737
3.05901
3.18655
3.27061
3.31274
3.31536
3.28157
3.21505
3.11984
3.00024
2.86062
2.70533
2.53857
2.36428
2.18609
2.00724
1.83058
1.65851
1.49301
1.33565
1.1876
1.04967
0.922335
0.805803
0.70003
0.604771
0.519625
0.444066
0.377481
0.319199
0.268519
0.224729
0.187128
0.155037
0.127811
0.104847
0.0855895
0.0695301
0.0562122
0.0452281
0.0362176
0.0288653
0.0228976
0.018079
0.0142082
0.0111146
0.00865457
0.00670821
0.00517587
0.00397544
0.00303961
0.00231359
0.00175306
0.00132237
0.00099299
0.000742273
0.000552298
0.000408981
0.000301301
0.000220678
0.000160457
0.000115488
8.17865e-05
5.62555e-05
3.64622e-05
2.04506e-05
6.58505e-06
0.168316
0.501952
0.826692
1.13691
1.42743
1.69368
1.9318
2.13873
2.31231
2.45123
2.55509
2.6243
2.66005
2.66421
2.63917
2.5878
2.5133
2.41904
2.30849
2.18511
2.05225
1.91307
1.77047
1.62708
1.4852
1.34678
1.21345
1.08649
0.966878
0.855294
0.752157
0.657655
0.571779
0.494353
0.425073
0.36353
0.309243
0.26168
0.220282
0.184481
0.153713
0.127432
0.105118
0.0862828
0.0704752
0.0572837
0.0463366
0.0373018
0.0298856
0.0238305
0.0189128
0.0149397
0.0117463
0.00919272
0.00716112
0.0055529
0.00428617
0.00329335
0.00251903
0.00191805
0.00145386
0.00109704
0.00082406
0.000616191
0.000458626
0.000339717
0.000250344
0.000183407
0.000133391
9.60306e-05
6.80217e-05
4.67965e-05
3.0336e-05
1.70164e-05
5.47956e-06
0.13403
0.399731
0.658429
0.905693
1.13744
1.35005
1.54046
1.70625
1.84565
1.95763
2.04181
2.09847
2.12852
2.13338
2.11491
2.07536
2.01721
1.94314
1.85587
1.75816
1.65266
1.54188
1.42817
1.31362
1.20009
1.08916
0.982149
0.880117
0.783862
0.693956
0.610757
0.534435
0.465002
0.402335
0.346203
0.29629
0.25222
0.213572
0.179904
0.150763
0.125698
0.104271
0.0860637
0.0706835
0.0577663
0.0469794
0.0380217
0.030624
0.0245477
0.0195837
0.0155497
0.0122887
0.0096663
0.00756817
0.00589806
0.00457535
0.00353302
0.00271569
0.00207795
0.00158277
0.00120014
0.000905898
0.000680702
0.000509156
0.000379077
0.000280875
0.000207042
0.000151724
0.000110376
7.9481e-05
5.63113e-05
3.87475e-05
2.5122e-05
1.40932e-05
4.53849e-06
0.106388
0.317313
0.522738
0.719182
0.903431
1.07263
1.22437
1.3567
1.46825
1.55813
1.62605
1.67218
1.69721
1.70223
1.68868
1.6583
1.61305
1.55501
1.48634
1.4092
1.3257
1.23784
1.14747
1.05629
0.965779
0.877211
0.791657
0.709975
0.632822
0.560672
0.493827
0.43244
0.376534
0.326025
0.280737
0.240429
0.204806
0.173538
0.146276
0.122659
0.102329
0.0849363
0.0701461
0.0576432
0.0471351
0.038354
0.0310571
0.0250272
0.0200713
0.0160202
0.0127262
0.0100619
0.00791814
0.00620211
0.00483546
0.00375256
0.0028988
0.00222904
0.00170621
0.00130008
0.000986128
0.000744606
0.000559687
0.00041877
0.000311878
0.000231152
0.000170438
0.000124933
9.09104e-05
6.54794e-05
4.64014e-05
3.19345e-05
2.0708e-05
1.16182e-05
3.74165e-06
0.0841736
0.251071
0.41366
0.569213
0.715208
0.849402
0.969889
1.07514
1.16405
1.23591
1.29046
1.32782
1.3485
1.35334
1.34346
1.32019
1.28507
1.23972
1.18585
1.12515
1.05928
0.989836
0.918284
0.845966
0.774071
0.703624
0.635484
0.570347
0.508748
0.451078
0.397589
0.348416
0.303588
0.263047
0.226662
0.194248
0.165576
0.140388
0.118407
0.0993508
0.0829337
0.0688778
0.0569163
0.0467974
0.0382872
0.0311708
0.0252535
0.0203605
0.0163367
0.0130455
0.0103679
0.00820099
0.00645651
0.00505938
0.00394615
0.00306363
0.00236752
0.00182119
0.00139453
0.00106297
0.000806552
0.000609214
0.000458067
0.000342843
0.000255409
0.000189355
0.000139658
0.000102399
7.4532e-05
5.36954e-05
3.80591e-05
2.6198e-05
1.69907e-05
9.53368e-06
3.0705e-06
0.0663781
0.198002
0.326261
0.449021
0.564312
0.670373
0.765708
0.849113
0.919704
0.976924
1.02054
1.05065
1.06761
1.07208
1.0649
1.04714
1.01996
0.984638
0.942506
0.894896
0.843114
0.788412
0.731954
0.674805
0.617909
0.562086
0.508023
0.456281
0.407294
0.361381
0.318753
0.279524
0.243726
0.211321
0.182211
0.156255
0.133276
0.113071
0.0954262
0.0801161
0.0669164
0.0556069
0.0459756
0.0378224
0.0309607
0.0252191
0.0204419
0.0164892
0.0132368
0.010575
0.00840828
0.00665385
0.00524072
0.00410838
0.00320569
0.00248975
0.00192477
0.00148116
0.00113457
0.000865117
0.000656652
0.000496154
0.000373177
0.000279394
0.000208203
0.000154403
0.000113911
8.35435e-05
6.08232e-05
4.38295e-05
3.10728e-05
2.13931e-05
1.38765e-05
7.78711e-06
2.50814e-06
0.0521697
0.155627
0.256463
0.353016
0.443745
0.527279
0.602443
0.668292
0.724128
0.769506
0.804234
0.828368
0.842188
0.84618
0.841008
0.827478
0.806504
0.779078
0.746234
0.709014
0.668444
0.625506
0.581117
0.536119
0.49126
0.447191
0.404461
0.363519
0.324715
0.288308
0.254471
0.223302
0.194833
0.169038
0.145846
0.125149
0.10681
0.0906724
0.076568
0.0643208
0.0537541
0.0446939
0.0369728
0.0304323
0.0249242
0.0203123
0.0164727
0.0132939
0.0106768
0.00853366
0.00678819
0.00537413
0.00423456
0.00332098
0.00259234
0.00201416