/*--------------------------------*- C++ -*----------------------------------*\
  =========                 |
  \\      /  F ield         | OpenFOAM: The Open Source CFD Toolbox
   \\    /   O peration     | Website:  https://openfoam.org
    \\  /    A nd           | Version:  10
     \\/     M anipulation  |
\*---------------------------------------------------------------------------*/
FoamFile
{
    format      ascii;
    class       volScalarField;
    location    "245";
    object      gradTx;
}
// * * * * * * * * * * * * * * * * * * * * * * * * * * * * * * * * * * * * * //

dimensions      [0 -1 0 1 0 0 0];

internalField   nonuniform List<scalar> 
11250
(
14291.4
8078.93
5269.15
3771.38
2859.58
2246.93
1805.22
1470.5
1207.83
996.605
823.863
681.014
562.066
462.655
379.471
309.915
251.883
203.63
163.682
130.778
103.831
81.8973
64.1624
49.9212
38.5673
29.582
22.5249
17.0249
12.772
9.50933
7.02645
5.1522
3.74886
2.7067
1.93909
1.37836
0.972126
0.680248
0.47227
0.325299
0.2223
0.150714
0.101372
0.0676442
0.0447799
0.0294083
0.0191595
0.0123827
0.00793886
0.00504893
0.00318513
0.00199309
0.00123704
0.000761519
0.000464939
0.000281519
0.000169041
0.000100652
5.94254e-05
3.47864e-05
2.01885e-05
1.16151e-05
6.62421e-06
3.74456e-06
2.09795e-06
1.16486e-06
6.40932e-07
3.49423e-07
1.88724e-07
1.00935e-07
5.34079e-08
2.78696e-08
1.41143e-08
6.56485e-09
1.8901e-09
4087.35
4677.96
3960.03
3189.33
2565.28
2081.66
1704.56
1405.32
1163.63
965.56
801.481
664.554
549.779
453.382
372.418
304.522
247.745
200.451
161.239
128.903
102.394
80.7991
63.3262
49.287
38.0885
29.2223
22.2562
16.8253
12.6245
9.40115
6.94756
5.09505
3.70774
2.67731
1.91824
1.36367
0.961848
0.673111
0.467349
0.321932
0.220013
0.149173
0.100341
0.0669599
0.0443292
0.0291137
0.0189684
0.0122598
0.00786035
0.00499921
0.00315389
0.00197362
0.00122501
0.000754139
0.000460452
0.000278813
0.000167424
9.96934e-05
5.8862e-05
3.44583e-05
1.99991e-05
1.15067e-05
6.56274e-06
3.71006e-06
2.07873e-06
1.15424e-06
6.35111e-07
3.46282e-07
1.87045e-07
1.00056e-07
5.2937e-08
2.76347e-08
1.40374e-08
6.51216e-09
1.88571e-09
1467.94
2587.27
2706.53
2464.5
2135.35
1815.5
1532.34
1289.39
1082.96
907.905
759.389
633.312
526.298
435.567
358.812
294.083
239.716
194.268
156.479
125.243
99.5858
78.6514
61.6893
48.0446
37.1499
28.5169
21.7289
16.4334
12.335
9.18856
6.79248
4.98267
3.62685
2.61949
1.8772
1.33475
0.941613
0.659057
0.457659
0.315301
0.215509
0.146136
0.0983097
0.0656111
0.0434405
0.0285327
0.0185916
0.0120172
0.00770549
0.00490111
0.00309224
0.00193519
0.00120125
0.00073957
0.000451591
0.00027347
0.000164228
9.77991e-05
5.77487e-05
3.38096e-05
1.96245e-05
1.12924e-05
6.44117e-06
3.64168e-06
2.04063e-06
1.13324e-06
6.23636e-07
3.40053e-07
1.83701e-07
9.82938e-08
5.2038e-08
2.7166e-08
1.37894e-08
6.37935e-09
1.85497e-09
665.677
1498.36
1817.11
1830.6
1700.86
1518.15
1326.07
1143.61
977.953
830.955
702.167
590.249
493.586
410.545
339.576
279.249
228.258
185.415
149.644
119.975
95.5358
75.5481
59.3206
46.2446
35.7886
27.4928
20.9626
15.8634
11.9137
8.87905
6.56659
4.8189
3.50893
2.53517
1.81733
1.29254
0.912073
0.638533
0.443506
0.305612
0.208927
0.141698
0.0953399
0.063639
0.042141
0.027683
0.0180403
0.0116624
0.00747888
0.00475753
0.003002
0.00187894
0.00116646
0.000718234
0.000438614
0.000265643
0.000159547
9.50231e-05
5.61168e-05
3.28587e-05
1.90752e-05
1.09779e-05
6.2628e-06
3.54143e-06
1.9848e-06
1.10242e-06
6.06774e-07
3.30911e-07
1.78793e-07
9.56815e-08
5.06572e-08
2.6446e-08
1.34173e-08
6.2191e-09
1.79241e-09
362.642
925.039
1235.68
1343.64
1323.93
1235.55
1116.19
987.515
861.14
742.844
635.184
538.976
454.118
380.035
315.924
260.885
213.994
174.342
141.062
113.34
90.4213
71.6202
56.3166
43.9578
34.0567
26.1881
19.9854
15.1359
11.3753
8.48325
6.27751
4.60919
3.35784
2.42708
1.74054
1.23838
0.874156
0.61218
0.425325
0.293164
0.200467
0.135992
0.0915208
0.0611024
0.0404692
0.0265897
0.0173308
0.0112056
0.0071871
0.00457264
0.00288577
0.00180646
0.00112163
0.000690735
0.000421884
0.00025555
0.000153509
9.14421e-05
5.40111e-05
3.16313e-05
1.83661e-05
1.05719e-05
6.03239e-06
3.41188e-06
1.91262e-06
1.06257e-06
5.84998e-07
3.19124e-07
1.72475e-07
9.23107e-08
4.88813e-08
2.55152e-08
1.29431e-08
6.01604e-09
1.74741e-09
223.031
605.081
859.547
987.94
1020.1
989.103
921.404
835.394
742.849
650.895
563.607
483.147
410.492
345.901
289.202
239.971
197.641
161.579
131.125
105.626
84.4556
67.0255
52.794
41.2707
32.0177
24.6496
18.8315
14.2756
10.7381
8.0143
5.9347
4.3603
3.17839
2.29861
1.64923
1.17395
0.829019
0.580795
0.403664
0.278326
0.19038
0.129187
0.0869644
0.0580751
0.0384733
0.025284
0.0164834
0.0106599
0.00683843
0.00435163
0.00274681
0.00171979
0.00106801
0.000657835
0.000401864
0.000243468
0.00014628
8.71531e-05
5.14884e-05
3.01603e-05
1.7516e-05
1.00849e-05
5.75595e-06
3.25636e-06
1.82595e-06
1.01474e-06
5.58825e-07
3.04946e-07
1.64878e-07
8.82989e-08
4.6809e-08
2.44385e-08
1.23932e-08
5.7592e-09
1.67387e-09
147.95
414.24
611.995
731.879
783.68
784.297
750.464
695.795
630.278
560.773
491.756
426.005
365.128
309.944
260.75
217.503
179.944
147.68
120.246
97.1438
77.8705
61.937
48.8818
38.2789
29.7426
22.9298
17.5393
13.3109
10.0225
7.48709
5.5489
4.07993
2.97607
2.15365
1.54612
1.10114
0.77799
0.545294
0.379151
0.261527
0.178954
0.121475
0.0817992
0.0546421
0.0362093
0.0238025
0.0155215
0.0100402
0.00644243
0.00410056
0.0025889
0.00162127
0.00100705
0.000620415
0.000379086
0.000229719
0.00013805
8.22688e-05
4.86145e-05
2.8484e-05
1.65467e-05
9.52947e-06
5.44048e-06
3.07884e-06
1.72699e-06
9.60067e-07
5.28902e-07
2.88727e-07
1.56178e-07
8.36977e-08
4.44052e-08
2.32036e-08
1.17785e-08
5.46284e-09
1.57179e-09
102.968
293.383
444.691
547.137
602.448
618.624
605.599
572.715
527.67
476.312
422.842
370.136
320.059
273.741
231.783
194.414
161.612
133.185
108.836
88.204
70.9008
56.5317
44.7128
35.0818
27.3056
21.0836
16.1496
12.2716
9.25048
6.91748
5.13156
3.77631
2.75676
1.99638
1.43416
1.02203
0.722501
0.506666
0.352462
0.243227
0.166502
0.113066
0.0761649
0.0508959
0.0337377
0.0221846
0.0144706
0.00936305
0.00600951
0.003826
0.00241616
0.00151346
0.00094031
0.000579441
0.000354136
0.000214653
0.000129029
7.69126e-05
4.54616e-05
2.66442e-05
1.54825e-05
8.91929e-06
5.09375e-06
2.8836e-06
1.61802e-06
8.99818e-07
4.95938e-07
2.70845e-07
1.4656e-07
7.85576e-08
4.16765e-08
2.18097e-08
1.1098e-08
5.14014e-09
1.48178e-09
73.9646
212.994
328.477
412.567
464.114
486.546
485.507
467.119
436.98
399.734
358.989
317.405
276.852
238.571
203.322
171.51
143.278
118.587
97.2751
79.0988
63.7701
50.9798
40.416
31.7769
24.7796
19.1654
14.7027
11.1875
8.44383
6.32145
4.69428
3.45779
2.52643
1.83105
1.31636
0.938717
0.66402
0.465926
0.324296
0.223903
0.153345
0.104177
0.0702057
0.0469318
0.0311212
0.0204711
0.0133572
0.00864534
0.00555051
0.00353478
0.00223287
0.00139903
0.000869448
0.000535917
0.000327624
0.000198637
0.000119434
7.12139e-05
4.21056e-05
2.46849e-05
1.43485e-05
8.26882e-06
4.72396e-06
2.67522e-06
1.50166e-06
8.35441e-07
4.60655e-07
2.51695e-07
1.36252e-07
7.30552e-08
3.87733e-08
2.03103e-08
1.03418e-08
4.81415e-09
1.40824e-09
54.2866
157.42
245.727
313.361
358.396
382.024
387.335
378.221
358.609
332.021
301.387
269.007
236.599
205.381
176.165
149.446
125.47
104.307
85.8953
70.0877
56.6798
45.4365
36.1102
28.4544
22.233
17.2268
13.237
10.0872
7.6236
5.7144
4.24825
3.13247
2.29091
1.66179
1.19564
0.853263
0.603988
0.424072
0.29534
0.204023
0.139801
0.0950219
0.0640645
0.0428445
0.0284222
0.0187027
0.0122077
0.00790399
0.00507619
0.00323372
0.00204331
0.00128064
0.000796103
0.000490851
0.00030016
0.000182039
0.000109487
6.53025e-05
3.86227e-05
2.26503e-05
1.31704e-05
7.59261e-06
4.33928e-06
2.45835e-06
1.38051e-06
7.68365e-07
4.23837e-07
2.31698e-07
1.2549e-07
6.73279e-08
3.5756e-08
1.87078e-08
9.50976e-09
4.45084e-09
1.30616e-09
40.4407
117.839
185.561
239.355
277.309
299.585
307.801
304.382
292.016
273.299
250.521
225.581
199.971
174.807
150.881
128.71
108.597
90.6793
74.9683
61.3876
49.8011
40.0357
31.8993
25.1943
19.7268
15.3138
11.7873
8.99652
6.80903
5.1105
3.80385
2.80788
2.0556
1.4925
1.07476
0.767608
0.543759
0.382046
0.266242
0.184031
0.126172
0.0858029
0.0578771
0.0387242
0.0256999
0.0169182
0.0110471
0.00715517
0.00459687
0.00292936
0.00185159
0.00116085
0.000721858
0.00044521
0.000272333
0.000165214
9.93988e-05
5.93045e-05
3.50868e-05
2.05838e-05
1.19731e-05
6.90491e-06
3.94777e-06
2.23749e-06
1.25705e-06
6.99957e-07
3.8626e-07
2.11258e-07
1.14484e-07
6.14622e-08
3.26388e-08
1.70723e-08
8.69094e-09
4.04143e-09
1.16567e-09
30.4363
89.0004
141.067
183.563
214.846
234.642
243.749
243.651
236.162
223.154
206.373
187.337
167.293
147.216
127.829
109.635
92.9523
77.9549
64.7019
53.1687
43.2713
34.8868
27.8695
22.0636
17.3127
13.4661
10.3836
7.93811
6.01695
4.5222
3.37021
2.49067
1.82533
1.32661
0.95618
0.683497
0.484557
0.3407
0.23759
0.16433
0.112732
0.0767056
0.0517676
0.0346533
0.0230087
0.0151531
0.00989863
0.00641378
0.00412208
0.00262773
0.00166151
0.00104202
0.000648176
0.000399894
0.000244692
0.000148492
8.93675e-05
5.33372e-05
3.1567e-05
1.85254e-05
1.07797e-05
6.21907e-06
3.5571e-06
2.01691e-06
1.13359e-06
6.3152e-07
3.48682e-07
1.9079e-07
1.03447e-07
5.55603e-08
2.95051e-08
1.54534e-08
7.86553e-09
3.6375e-09
1.05701e-09
23.0647
67.6237
107.721
141.134
166.533
183.501
192.384
194.079
189.796
180.869
168.604
154.185
138.628
122.753
107.194
92.4131
78.7197
66.3003
55.2417
45.5543
37.1925
30.0728
24.0871
19.1151
15.032
11.7156
9.05037
6.93052
5.26134
3.95992
2.95504
2.18649
1.6042
1.16711
0.842022
0.602431
0.42744
0.300772
0.209896
0.145273
0.0997214
0.0678924
0.0458447
0.0307043
0.0203965
0.0134389
0.00878262
0.00569298
0.00366024
0.00233418
0.00147642
0.000926261
0.000576364
0.000355707
0.000217725
0.00013217
7.95708e-05
4.75061e-05
2.81257e-05
1.65117e-05
9.61147e-06
5.5472e-06
3.17408e-06
1.80048e-06
1.01241e-06
5.64286e-07
3.11727e-07
1.70635e-07
9.25742e-08
4.97374e-08
2.64251e-08
1.38377e-08
7.0478e-09
3.29724e-09
9.86758e-10
17.5543
51.5734
82.4751
108.645
129.042
143.233
151.329
153.862
151.635
145.587
136.684
125.836
113.848
101.397
89.0195
77.1221
65.9907
55.8089
46.6757
38.6231
31.633
25.6512
20.5998
16.3871
12.9152
10.0863
7.80627
5.9881
4.55309
3.43188
2.56445
1.89986
1.39551
1.01638
0.734005
0.525637
0.373275
0.26287
0.183583
0.127151
0.0873385
0.0594982
0.0401996
0.026938
0.0179036
0.011802
0.0077163
0.0050039
0.0032185
0.00205326
0.00129921
0.000815371
0.000507536
0.000313334
0.000191853
0.000116503
7.01615e-05
4.19025e-05
2.48165e-05
1.45741e-05
8.48669e-06
4.89991e-06
2.80481e-06
1.59169e-06
8.95413e-07
4.99293e-07
2.75939e-07
1.51127e-07
8.20151e-08
4.4077e-08
2.34407e-08
1.23164e-08
6.29484e-09
2.95588e-09
8.64923e-10
13.3922
39.4091
63.2185
83.6436
99.8811
111.54
118.613
121.409
120.457
116.418
109.996
101.881
92.7047
83.0095
73.2416
63.7476
54.7808
46.5121
39.0422
32.415
26.6304
21.6559
17.4367
13.9042
10.9827
8.59454
6.66428
5.12099
3.90005
2.94402
2.20294
1.63412
1.20175
0.87622
0.633439
0.454054
0.322729
0.227463
0.15898
0.11019
0.0757399
0.0516296
0.034904
0.0234024
0.0155619
0.0102634
0.00671345
0.00435546
0.00280258
0.00178862
0.00113218
0.000710798
0.000442596
0.000273334
0.000167416
0.000101697
6.12646e-05
3.6601e-05
2.1684e-05
1.27388e-05
7.4206e-06
4.28594e-06
2.45429e-06
1.39333e-06
7.84159e-07
4.3744e-07
2.41869e-07
1.32544e-07
7.19576e-08
3.87042e-08
2.061e-08
1.08357e-08
5.53638e-09
2.60245e-09
7.49673e-10
10.2253
30.1292
48.4538
64.3383
77.1694
86.6154
92.6168
95.3471
95.1545
92.499
87.8937
81.8564
74.8733
67.375
59.7238
52.2086
45.0472
38.3922
32.3393
26.937
22.1965
18.1004
14.6114
11.679
9.24528
7.24967
5.63206
4.33537
3.30709
2.50017
1.87344
1.39151
1.02457
0.747876
0.541225
0.388335
0.276271
0.194886
0.13632
0.0945548
0.0650384
0.0443638
0.0300103
0.0201329
0.013395
0.00883868
0.00578427
0.00375431
0.00241677
0.00154301
0.000977074
0.00061364
0.000382229
0.000236131
0.000144676
8.7911e-05
5.29765e-05
3.16594e-05
1.87623e-05
1.1026e-05
6.42499e-06
3.71219e-06
2.1265e-06
1.20767e-06
6.79932e-07
3.79463e-07
2.09918e-07
1.1508e-07
6.25291e-08
3.36639e-08
1.79384e-08
9.41207e-09
4.80427e-09
2.25121e-09
6.71742e-10
7.80406
23.0193
37.0963
49.4033
59.4756
67.0421
72.0249
74.5172
74.7469
73.0341
69.75
65.28
59.9954
54.2328
48.2816
42.3781
36.7052
31.3947
26.5336
22.1702
18.3216
14.981
12.1237
9.71314
7.70578
6.05466
4.71252
3.63386
2.77647
2.1022
1.57745
1.1732
0.864885
0.63204
0.457886
0.328867
0.234182
0.16534
0.115748
0.080347
0.0553053
0.03775
0.0255523
0.0171522
0.0114181
0.00753812
0.00493552
0.00320486
0.00206395
0.00131826
0.000835073
0.000524643
0.000326904
0.000202018
0.000123813
7.52568e-05
4.53644e-05
2.71183e-05
1.60759e-05
9.45006e-06
5.50836e-06
3.18361e-06
1.82432e-06
1.03641e-06
5.83709e-07
3.25878e-07
1.80348e-07
9.89206e-08
5.37745e-08
2.89431e-08
1.54204e-08
8.12237e-09
4.1468e-09
1.91424e-09
5.52102e-10
5.94758
17.5588
28.3452
37.8424
45.6999
51.7015
55.7685
57.947
58.3855
57.3066
54.9774
51.6832
47.705
43.3028
38.7048
34.1013
29.6424
25.4397
21.5691
18.076
14.9799
12.2807
9.96265
8.00001
6.36021
5.00734
3.90459
3.01608
2.30817
1.75027
1.31522
0.979463
0.722954
0.52893
0.383602
0.275792
0.196575
0.138911
0.0973267
0.0676126
0.0465737
0.0318117
0.0215465
0.0144719
0.0096392
0.006367
0.00417075
0.00270949
0.00174566
0.00111541
0.000706832
0.000444228
0.000276888
0.000171162
0.000104933
6.37989e-05
3.84682e-05
2.30021e-05
1.36394e-05
8.01998e-06
4.67607e-06
2.70332e-06
1.54954e-06
8.80597e-07
4.96108e-07
2.77075e-07
1.53396e-07
8.41927e-08
4.57674e-08
2.46503e-08
1.3156e-08
6.92487e-09
3.54201e-09
1.62118e-09
4.53316e-10
4.52245
13.3613
21.6003
28.8979
34.9907
39.7093
42.9822
44.8287
45.3453
44.6862
43.0433
40.6265
37.6468
34.3033
30.7739
27.2094
23.7312
20.4316
17.3753
14.6028
12.1341
9.97268
8.10946
6.52635
5.19941
4.10143
3.20402
2.47916
1.90032
1.44316
1.08597
0.809805
0.598466
0.43836
0.318262
0.229049
0.163414
0.115581
0.0810489
0.0563487
0.0388434
0.0265498
0.0179942
0.0120932
0.00805936
0.00532624
0.00349068
0.00226871
0.00146228
0.000934705
0.000592533
0.000372518
0.000232263
0.000143618
8.8071e-05
5.35607e-05
3.2303e-05
1.93202e-05
1.14589e-05
6.73941e-06
3.93036e-06
2.27275e-06
1.30305e-06
7.40714e-07
4.17396e-07
2.33184e-07
1.29123e-07
7.08721e-08
3.85637e-08
2.07911e-08
1.11134e-08
5.82286e-09
2.97564e-09
1.3841e-09
3.86361e-10
3.42859
10.1359
16.4061
21.9879
26.6842
30.3641
32.966
34.495
35.0131
34.6273
33.4749
31.7096
29.4889
26.9639
24.2717
21.5306
18.8373
16.2668
13.873
11.6909
9.73937
8.0239
6.53967
5.27432
4.21045
3.32764
2.60419
2.01842
1.5496
1.17856
0.888097
0.663119
0.490666
0.359815
0.26152
0.188405
0.134546
0.095249
0.0668476
0.0465122
0.0320865
0.0219466
0.014884
0.010009
0.00667409
0.00441304
0.00289359
0.00188147
0.00121319
0.000775775
0.000491953
0.000309383
0.000192955
0.000119344
7.32037e-05
4.45293e-05
2.68619e-05
1.60692e-05
9.53262e-06
5.60756e-06
3.27089e-06
1.89177e-06
1.08483e-06
6.16783e-07
3.47641e-07
1.94249e-07
1.07582e-07
5.90661e-08
3.21448e-08
1.73369e-08
9.23535e-09
4.84379e-09
2.49049e-09
1.16238e-09
3.38066e-10
2.59007
7.66107
12.4133
16.6621
20.2605
23.1082
25.1545
26.3969
26.8752
26.6635
25.8597
24.576
22.9291
21.0329
18.9921
16.8983
14.8278
12.8404
10.9803
9.27696
7.74725
6.39744
5.22551
4.22319
3.37795
2.67463
2.09681
1.62784
1.25168
0.95337
0.719398
0.537854
0.398464
0.292538
0.212853
0.153501
0.109724
0.0777472
0.0546107
0.038028
0.0262531
0.0179691
0.0121944
0.00820524
0.0054744
0.00362165
0.00237581
0.00154548
0.000996935
0.000637722
0.000404541
0.000254486
0.00015876
9.8218e-05
6.02583e-05
3.6662e-05
2.21199e-05
1.32347e-05
7.8523e-06
4.61978e-06
2.6951e-06
1.55898e-06
8.94115e-07
5.08401e-07
2.86613e-07
1.60176e-07
8.87534e-08
4.87693e-08
2.65382e-08
1.4314e-08
7.61966e-09
4.02167e-09
2.05913e-09
9.54927e-10
2.96357e-10
1.94869
5.76661
9.35215
12.5697
15.3103
17.4977
19.0912
20.085
20.5044
20.4005
19.8432
18.9138
17.6984
16.2823
14.7448
13.1561
11.5756
10.0505
8.61634
7.29739
6.10823
5.05515
4.13779
3.35079
2.68524
2.12997
1.67265
1.30064
1.00161
0.763993
0.57728
0.432153
0.320544
0.235601
0.171609
0.123883
0.0886379
0.0628624
0.0441926
0.0307977
0.0212774
0.0145735
0.00989638
0.00666297
0.00444788
0.00294404
0.0019322
0.00125744
0.000811445
0.000519248
0.000329489
0.00020733
0.000129373
8.00546e-05
4.91238e-05
2.98923e-05
1.80379e-05
1.07936e-05
6.40465e-06
3.76842e-06
2.19861e-06
1.27188e-06
7.29515e-07
4.14838e-07
2.33872e-07
1.30722e-07
7.24537e-08
3.97974e-08
2.16703e-08
1.16896e-08
6.26081e-09
3.29944e-09
1.65521e-09
7.80406e-10
2.10743e-10
1.45956
4.3209
7.01303
9.43669
11.5113
13.1793
14.4088
15.1929
15.5476
15.5081
15.1239
14.4541
13.5617
12.51
11.3587
10.1613
8.96324
7.80151
6.70417
5.69094
4.77405
3.95931
3.24734
2.63475
2.11527
1.68078
1.32208
1.02965
0.794099
0.606564
0.458935
0.343993
0.255457
0.187973
0.137064
0.0990443
0.070933
0.0503509
0.0354266
0.0247082
0.0170828
0.0117086
0.00795595
0.0053597
0.00357983
0.00237066
0.0015566
0.00101342
0.000654217
0.000418774
0.000265809
0.000167302
0.000104418
6.46242e-05
3.96611e-05
2.41371e-05
1.45664e-05
8.71695e-06
5.17266e-06
3.04365e-06
1.77581e-06
1.0273e-06
5.89232e-07
3.35075e-07
1.8892e-07
1.05604e-07
5.84898e-08
3.21042e-08
1.74763e-08
9.4439e-09
5.04685e-09
2.65294e-09
1.35007e-09
6.27837e-10
1.69033e-10
1.08791
3.22177
5.23269
7.04816
8.60885
9.87181
10.8122
11.4233
11.7152
11.712
11.449
10.9684
10.3164
9.53981
8.68302
7.78635
6.88454
6.00603
5.17278
4.40049
3.6992
3.07404
2.5261
2.05333
1.65139
1.31438
1.03553
0.807703
0.623827
0.477158
0.361495
0.271293
0.201704
0.148585
0.108457
0.0784503
0.0562368
0.0399542
0.0281349
0.0196378
0.0135871
0.00931896
0.00633621
0.00427101
0.0028542
0.00189105
0.00124223
0.000809071
0.000522481
0.00033455
0.000212406
0.000133719
8.34729e-05
5.16689e-05
3.17136e-05
1.93018e-05
1.16489e-05
6.97114e-06
4.13666e-06
2.43399e-06
1.42004e-06
8.2146e-07
4.71137e-07
2.67912e-07
1.51062e-07
8.44145e-08
4.67431e-08
2.56634e-08
1.39705e-08
7.53295e-09
4.01838e-09
2.11511e-09
1.10859e-09
5.29052e-10
1.67935e-10
0.8067
2.38972
3.88365
5.23572
6.40244
7.35191
8.06515
8.53619
8.7712
8.78681
8.60781
8.26464
7.79081
7.22056
6.58685
5.91981
5.24568
4.58615
3.95817
3.37407
2.84195
2.36616
1.94796
1.58618
1.27783
1.01869
0.80381
0.627889
0.485629
0.371948
0.282147
0.212
0.157801
0.116371
0.0850304
0.0615654
0.0441736
0.0314111
0.0221371
0.0154633
0.0107065
0.00734817
0.00499931
0.00337177
0.00225444
0.00149439
0.000982077
0.000639875
0.000413354
0.00026475
0.000168129
0.000105865
6.60952e-05
4.09166e-05
2.51157e-05
1.52865e-05
9.22557e-06
5.52071e-06
3.27576e-06
1.92727e-06
1.12426e-06
6.50276e-07
3.72914e-07
2.12037e-07
1.19507e-07
6.67758e-08
3.69996e-08
2.03246e-08
1.10618e-08
5.95457e-09
3.20285e-09
1.71009e-09
8.91265e-10
4.34657e-10
1.25128e-10
0.594924
1.76284
2.86641
3.86737
4.734
5.44278
5.97934
6.33865
6.52447
6.54817
6.42722
6.18334
5.84077
5.42445
4.95865
4.4657
3.96524
3.47366
3.00391
2.56554
2.16496
1.80576
1.48919
1.21465
0.980107
0.782559
0.618404
0.483748
0.374654
0.287324
0.218224
0.164163
0.122331
0.0903096
0.0660548
0.0478722
0.0343798
0.0244678
0.0172577
0.0120641
0.00835884
0.00574065
0.00390801
0.00263722
0.00176419
0.00116996
0.000769181
0.000501341
0.000323962
0.000207548
0.000131831
8.30225e-05
5.18396e-05
3.20937e-05
1.97004e-05
1.19903e-05
7.23582e-06
4.32962e-06
2.5687e-06
1.51103e-06
8.81307e-07
5.09631e-07
2.92201e-07
1.66066e-07
9.35752e-08
5.2285e-08
2.89519e-08
1.59089e-08
8.67118e-09
4.67256e-09
2.49159e-09
1.3358e-09
6.79425e-10
3.08431e-10
9.43951e-11
0.436249
1.29298
2.1034
2.8399
3.47945
4.00481
4.40525
4.67667
4.8213
4.84692
4.76576
4.59331
4.34696
4.0448
3.70455
3.34266
2.97369
2.60992
2.26114
1.93465
1.63544
1.36643
1.12875
0.922133
0.745222
0.595902
0.471574
0.369396
0.286467
0.21997
0.167269
0.125976
0.0939776
0.0694502
0.050848
0.036886
0.0265136
0.0188853
0.0133308
0.00932585
0.00646608
0.0044436
0.00302682
0.00204368
0.00136781
0.000907488
0.000596854
0.000389151
0.000251537
0.000161186
0.000102401
6.44965e-05
4.02749e-05
2.49346e-05
1.53055e-05
9.31478e-06
5.62056e-06
3.36258e-06
1.99459e-06
1.17303e-06
6.84004e-07
3.95427e-07
2.26628e-07
1.28758e-07
7.2547e-08
4.05065e-08
2.24144e-08
1.23032e-08
6.70095e-09
3.60128e-09
1.90766e-09
9.88953e-10
5.09295e-10
2.49159e-10
9.54927e-11
0.318009
0.942732
1.53427
2.07279
2.54165
2.92832
3.22482
3.42794
3.53896
3.56316
3.50912
3.38779
3.2116
2.99359
2.74662
2.4827
2.21257
1.94531
1.68825
1.44693
1.22519
1.02531
0.848299
0.694075
0.561744
0.449828
0.356465
0.279598
0.217104
0.16691
0.12707
0.0958072
0.0715483
0.0529285
0.0387891
0.0281641
0.020262
0.0144442
0.0102038
0.00714347
0.00495628
0.00340818
0.00232287
0.0015692
0.00105075
0.000697422
0.000458863
0.000299274
0.000193493
0.000124016
7.87985e-05
4.96354e-05
3.0996e-05
1.91897e-05
1.17783e-05
7.16728e-06
4.32402e-06
2.58634e-06
1.53373e-06
9.01738e-07
5.25613e-07
3.03765e-07
1.74027e-07
9.88756e-08
5.56657e-08
3.10527e-08
1.71832e-08
9.42195e-09
5.13026e-09
2.76929e-09
1.46532e-09
7.39794e-10
3.87459e-10
1.87693e-10
5.37833e-11
0.230406
0.683165
1.11225
1.50349
1.84493
2.12749
2.34535
2.49598
2.58012
2.60136
2.56565
2.48073
2.35542
2.19907
2.02095
1.82977
1.63336
1.43841
1.25036
1.07334
0.910271
0.762936
0.632163
0.517984
0.419817
0.336635
0.267117
0.209783
0.163093
0.125534
0.0956777
0.0722165
0.0539867
0.0399767
0.0293249
0.0213114
0.015345
0.0109478
0.0077397
0.00542224
0.00376454
0.00259026
0.0017664
0.00119389
0.000799799
0.000531071
0.000349535
0.000228036
0.000147469
9.45343e-05
6.00731e-05
3.78424e-05
2.36316e-05
1.46295e-05
8.97828e-06
5.46251e-06
3.2948e-06
1.97018e-06
1.16797e-06
6.86424e-07
3.99934e-07
2.31032e-07
1.32314e-07
7.51352e-08
4.22703e-08
2.35702e-08
1.30298e-08
7.15976e-09
3.88227e-09
2.10194e-09
1.10091e-09
5.75152e-10
2.96357e-10
1.20738e-10
1.97571e-11
0.165892
0.491962
0.801232
1.08361
1.33057
1.5356
1.69443
1.80517
1.8682
1.88595
1.86255
1.80342
1.71481
1.60337
1.47572
1.33816
1.19635
1.05518
0.918617
0.789748
0.670751
0.562998
0.467156
0.383308
0.311081
0.249769
0.19844
0.156036
0.121451
0.0935882
0.0714075
0.0539541
0.0403749
0.029926
0.0219723
0.015982
0.0115171
0.00822329
0.00581784
0.00407864
0.00283353
0.00195081
0.00133106
0.000900088
0.000603243
0.00040071
0.000263821
0.000172162
0.000111359
7.13968e-05
4.53739e-05
2.85835e-05
1.78489e-05
1.10486e-05
6.77956e-06
4.12388e-06
2.48669e-06
1.48645e-06
8.80862e-07
5.17466e-07
3.01348e-07
1.73968e-07
9.95792e-08
5.64944e-08
3.17727e-08
1.77134e-08
9.78306e-09
5.3443e-09
2.87795e-09
1.5641e-09
8.31994e-10
4.55511e-10
2.23914e-10
9.98832e-11
2.305e-11
0.118678
0.352002
0.573462
0.775921
0.953328
1.10103
1.21595
1.29666
1.34336
1.35769
1.34248
1.30153
1.23924
1.16029
1.06942
0.971108
0.869436
0.767932
0.669498
0.576387
0.490219
0.41203
0.342346
0.281268
0.22856
0.18374
0.146157
0.11506
0.0896583
0.0691647
0.052828
0.0399562
0.0299291
0.0222042
0.0163173
0.0118788
0.0085671
0.00612162
0.00433405
0.00304046
0.00211359
0.00145599
0.000993959
0.000672452
0.000450869
0.000299603
0.000197313
0.000128793
8.33216e-05
5.34273e-05
3.39559e-05
2.13905e-05
1.33563e-05
8.26645e-06
5.07138e-06
3.084e-06
1.85904e-06
1.11083e-06
6.57966e-07
3.86338e-07
2.24873e-07
1.29743e-07
7.42e-08
4.20607e-08
2.36438e-08
1.31506e-08
7.26513e-09
3.95362e-09
2.13926e-09
1.1536e-09
6.24544e-10
3.19407e-10
1.29519e-10
6.14666e-11
3.18309e-11
0.0843476
0.250212
0.407746
0.551926
0.678487
0.784124
0.866637
0.924978
0.959223
0.970469
0.960679
0.932478
0.888939
0.833367
0.769096
0.699314
0.626931
0.554477
0.484048
0.41728
0.355362
0.299068
0.248804
0.204669
0.166517
0.134023
0.106732
0.0841171
0.0656178
0.0506724
0.0387429
0.0293316
0.0219914
0.01633
0.0120108
0.0087509
0.00631619
0.00451657
0.00319991
0.00224629
0.00156247
0.00107694
0.000735562
0.000497862
0.000333942
0.000221981
0.000146234
9.54728e-05
6.17754e-05
3.96152e-05
2.51782e-05
1.58604e-05
9.90221e-06
6.12757e-06
3.75826e-06
2.28476e-06
1.37674e-06
8.22297e-07
4.8682e-07
2.85696e-07
1.66195e-07
9.58319e-08
5.47568e-08
3.09912e-08
1.73972e-08
9.66891e-09
5.32893e-09
2.92296e-09
1.59813e-09
8.30896e-10
4.37949e-10
2.15133e-10
8.8907e-11
3.07333e-11
5.48809e-12
0.0595501
0.176674
0.287981
0.389959
0.479615
0.554623
0.613419
0.655238
0.6801
0.688738
0.682493
0.663179
0.632933
0.594062
0.548907
0.499715
0.448547
0.397204
0.347183
0.299666
0.255515
0.2153
0.179329
0.147692
0.1203
0.0969336
0.07728
0.060971
0.0476116
0.0368044
0.0281672
0.021345
0.0160179
0.0119047
0.00876329
0.00638987
0.00461555
0.00330284
0.00234159
0.0016448
0.00114475
0.00078945
0.000539467
0.000365295
0.000245115
0.000162987
0.000107399
7.01326e-05
4.53852e-05
2.91065e-05
1.84993e-05
1.16523e-05
7.27393e-06
4.50018e-06
2.75935e-06
1.67689e-06
1.01001e-06
6.02974e-07
3.56809e-07
2.09278e-07
1.21662e-07
7.01037e-08
4.00323e-08
2.26449e-08
1.26994e-08
7.07305e-09
3.89435e-09
2.13926e-09
1.15579e-09
6.17959e-10
3.17211e-10
1.6574e-10
9.00046e-11
4.71976e-11
-1.53666e-11
0.0417593
0.123907
0.202016
0.273645
0.336711
0.389584
0.431162
0.460894
0.478771
0.485281
0.481338
0.468186
0.447302
0.420288
0.388775
0.354338
0.318423
0.282302
0.24704
0.213477
0.182235
0.15373
0.128191
0.105694
0.0861854
0.0695196
0.0554825
0.0438183
0.0342513
0.0265023
0.0203017
0.0153985
0.0115656
0.00860287
0.00633787
0.0046249
0.00334312
0.00239396
0.00169834
0.00119369
0.000831258
0.000573554
0.000392119
0.00026563
0.000178304
0.000118598
7.81682e-05
5.10536e-05
3.30422e-05
2.11917e-05
1.34685e-05
8.4827e-06
5.2944e-06
3.27469e-06
2.00729e-06
1.21933e-06
7.34083e-07
4.38014e-07
2.59033e-07
1.51813e-07
8.8198e-08
5.07714e-08
2.89738e-08
1.63841e-08
9.19255e-09
5.12478e-09
2.82307e-09
1.54435e-09
8.18823e-10
4.57706e-10
2.59038e-10
1.45983e-10
6.36618e-11
3.40261e-11
3.29285e-12
0.0290834
0.0863045
0.140739
0.190701
0.234747
0.271745
0.300925
0.321892
0.334627
0.339453
0.336989
0.328084
0.313754
0.295102
0.273259
0.249318
0.224289
0.199063
0.174388
0.15086
0.128923
0.108874
0.0908842
0.0750131
0.0612312
0.0494412
0.0394976
0.0312243
0.0244302
0.0189206
0.0145069
0.0110128
0.00827849
0.00616279
0.00454375
0.00331815
0.00240023
0.00171992
0.00122093
0.000858643
0.000598267
0.000413
0.000282481
0.000191436
0.000128545
8.55256e-05
5.63828e-05
3.68309e-05
2.38395e-05
1.52898e-05
9.71707e-06
6.11924e-06
3.81853e-06
2.36122e-06
1.44683e-06
8.78526e-07
5.2864e-07
3.15251e-07
1.86287e-07
1.09094e-07
6.3327e-08
3.64376e-08
2.07856e-08
1.17533e-08
6.55936e-09
3.65177e-09
2.0273e-09
1.08993e-09
5.81737e-10
3.10626e-10
1.74521e-10
1.07567e-10
4.28071e-11
2.19523e-12
1.4269e-11
0.0201152
0.059697
0.0973683
0.131971
0.162513
0.188213
0.208536
0.223203
0.232193
0.235718
0.234195
0.228202
0.21843
0.205636
0.190598
0.174071
0.156753
0.139264
0.122126
0.105758
0.0904711
0.0764798
0.063907
0.0527994
0.0431411
0.034868
0.0278818
0.022062
0.0172772
0.0133926
0.0102772
0.00780837
0.0058744
0.00437651
0.00322916
0.00235983
0.00170818
0.00122482
0.000869995
0.000612191
0.000426775
0.000294756
0.000201693
0.000136738
9.18469e-05
6.11253e-05
4.03053e-05
2.63323e-05
1.70454e-05
1.09324e-05
6.94734e-06
4.37441e-06
2.72911e-06
1.68705e-06
1.03332e-06
6.27171e-07
3.77195e-07
2.24792e-07
1.32755e-07
7.76894e-08
4.50528e-08
2.5906e-08
1.47673e-08
8.34409e-09
4.6528e-09
2.57282e-09
1.42581e-09
7.78211e-10
4.31364e-10
2.21719e-10
9.65903e-11
4.71976e-11
2.85381e-11
-4.39047e-12
9.87856e-12
0.0138151
0.0410035
0.0668901
0.0906852
0.11171
0.129431
0.143478
0.153656
0.159946
0.162486
0.161555
0.157545
0.150924
0.142207
0.131925
0.120595
0.108699
0.0966627
0.0848484
0.0735467
0.0629763
0.0532879
0.04457
0.0368579
0.0301437
0.0243853
0.0195169
0.0154568
0.0121149
0.0093989
0.00721847
0.00548877
0.0041325
0.00308106
0.00227496
0.00166366
0.00120504
0.000864593
0.000614485
0.000432634
0.000301753
0.000208506
0.000142734
9.68018e-05
6.5042e-05
4.32973e-05
2.85552e-05
1.86581e-05
1.20784e-05
7.74666e-06
4.92242e-06
3.0989e-06
1.93286e-06
1.19443e-06
7.31296e-07
4.43609e-07
2.66653e-07
1.58814e-07
9.37245e-08
5.48095e-08
3.17464e-08
1.82084e-08
1.03637e-08
5.83713e-09
3.272e-09
1.78912e-09
9.72489e-10
5.49906e-10
3.23797e-10
1.82205e-10
9.21999e-11
3.40261e-11
2.52452e-11
1.64643e-11
4.39047e-12
0.00942117
0.0279646
0.0456266
0.0618723
0.0762413
0.0883696
0.0980045
0.105011
0.109373
0.11118
0.110619
0.107952
0.103494
0.0975941
0.0906127
0.0829013
0.0747882
0.0665654
0.0584817
0.0507374
0.0434842
0.0368275
0.0308299
0.0255179
0.0208876
0.0169121
0.0135472
0.0107379
0.00842315
0.00654001
0.00502672
0.00382512
0.00288206
0.00215031
0.00158881
0.00116265
0.00084268
0.000604967
0.000430207
0.000303051
0.000211475
0.00014619
0.000100115
6.79219e-05
4.56509e-05
3.03962e-05
2.00503e-05
1.31025e-05
8.48237e-06
5.44014e-06
3.45643e-06
2.17558e-06
1.35661e-06
8.38042e-07
5.1289e-07
3.10978e-07
1.86811e-07
1.112e-07
6.55717e-08
3.83134e-08
2.21653e-08
1.27027e-08
7.21684e-09
4.04472e-09
2.24573e-09
1.21616e-09
6.60766e-10
3.67702e-10
2.05254e-10
1.18543e-10
7.68332e-11
2.41476e-11
2.52452e-11
3.51238e-11
1.09762e-11
0.00637899
0.0189359
0.0309002
0.0419115
0.0516597
0.0598988
0.0664572
0.0712426
0.0742409
0.0755116
0.0751777
0.0734139
0.0704319
0.066466
0.0617585
0.0565472
0.0510542
0.0454782
0.0399884
0.0347219
0.0297832
0.025245
0.0211513
0.0175215
0.014354
0.0116314
0.00932462
0.00739679
0.00580679
0.004512
0.00347054
0.00264284
0.00199267
0.00148774
0.00109998
0.000805449
0.000584135
0.000419596
0.000298548
0.000210413
0.0001469
0.000101594
6.96011e-05
4.72357e-05
3.17565e-05
2.11496e-05
1.39533e-05
9.11911e-06
5.90378e-06
3.7862e-06
2.40532e-06
1.51367e-06
9.43614e-07
5.82708e-07
3.56464e-07
2.16036e-07
1.297e-07
7.71471e-08
4.54458e-08
2.65097e-08
1.53337e-08
8.77545e-09
4.97111e-09
2.77917e-09
1.51691e-09
8.23213e-10
4.35754e-10
2.305e-10
1.07567e-10
3.84166e-11
2.19523e-11
2.52452e-11
2.41476e-11
1.53666e-11
1.31714e-11
0.00428814
0.0127301
0.0207762
0.0281854
0.0347501
0.0403053
0.0447355
0.0479776
0.0500212
0.0509045
0.0507087
0.0495494
0.0475677
0.0449197
0.0417677
0.0382711
0.0345792
0.0308259
0.0271256
0.0235715
0.0202345
0.0171646
0.0143925
0.0119318