/*--------------------------------*- C++ -*----------------------------------*\
  =========                 |
  \\      /  F ield         | OpenFOAM: The Open Source CFD Toolbox
   \\    /   O peration     | Website:  https://openfoam.org
    \\  /    A nd           | Version:  10
     \\/     M anipulation  |
\*---------------------------------------------------------------------------*/
FoamFile
{
    format      ascii;
    class       volScalarField;
    location    "245";
    object      T;
}
// * * * * * * * * * * * * * * * * * * * * * * * * * * * * * * * * * * * * * //

dimensions      [0 0 0 1 0 0 0];

internalField   nonuniform List<scalar> 
11250
(
249.783
167.38
139.07
126.549
119.678
115.296
112.219
109.919
108.13
106.698
105.531
104.568
103.768
103.1
102.542
102.075
101.686
101.363
101.095
100.875
100.695
100.548
100.429
100.334
100.258
100.198
100.151
100.114
100.085
100.064
100.047
100.034
100.025
100.018
100.013
100.009
100.006
100.005
100.003
100.002
100.001
100.001
100.001
100
100
100
100
100
100
100
100
100
100
100
100
100
100
100
100
100
100
100
100
100
100
100
100
100
100
100
100
100
100
100
100
331.322
248.058
201.441
174.022
156.577
144.622
135.92
129.294
124.079
119.878
116.439
113.592
111.22
109.237
107.577
106.189
105.031
104.067
103.27
102.612
102.074
101.636
101.282
100.997
100.771
100.591
100.45
100.34
100.255
100.19
100.14
100.103
100.075
100.054
100.039
100.028
100.019
100.014
100.009
100.007
100.004
100.003
100.002
100.001
100.001
100.001
100
100
100
100
100
100
100
100
100
100
100
100
100
100
100
100
100
100
100
100
100
100
100
100
100
100
100
100
100
358.779
292.125
244.671
211.597
188.085
170.807
157.674
147.395
139.16
132.446
126.904
122.29
118.429
115.19
112.473
110.196
108.293
106.708
105.395
104.312
103.425
102.702
102.118
101.648
101.274
100.977
100.744
100.563
100.422
100.314
100.232
100.17
100.124
100.089
100.064
100.046
100.032
100.022
100.016
100.011
100.007
100.005
100.003
100.002
100.001
100.001
100.001
100
100
100
100
100
100
100
100
100
100
100
100
100
100
100
100
100
100
100
100
100
100
100
100
100
100
100
100
370.467
317.052
273.615
239.742
213.52
193.035
176.783
163.678
152.958
144.089
136.689
130.48
125.255
120.852
117.146
114.031
111.423
109.248
107.442
105.952
104.73
103.733
102.927
102.279
101.761
101.351
101.029
100.778
100.584
100.435
100.322
100.236
100.172
100.124
100.089
100.063
100.045
100.031
100.022
100.015
100.01
100.007
100.005
100.003
100.002
100.001
100.001
100.001
100
100
100
100
100
100
100
100
100
100
100
100
100
100
100
100
100
100
100
100
100
100
100
100
100
100
100
376.53
332.082
293.127
260.413
233.442
211.291
193.036
177.891
165.238
154.605
145.628
138.03
131.591
126.138
121.528
117.642
114.38
111.653
109.386
107.512
105.973
104.717
103.7
102.881
102.228
101.71
101.303
100.986
100.74
100.551
100.407
100.299
100.218
100.157
100.113
100.08
100.056
100.04
100.027
100.019
100.013
100.009
100.006
100.004
100.003
100.002
100.001
100.001
100
100
100
100
100
100
100
100
100
100
100
100
100
100
100
100
100
100
100
100
100
100
100
100
100
100
100
380.137
341.72
306.566
275.572
248.825
225.983
206.548
190.011
175.922
163.898
153.627
144.853
137.365
130.987
125.57
120.988
117.13
113.897
111.204
108.975
107.141
105.643
104.429
103.451
102.669
102.05
101.562
101.182
100.887
100.661
100.489
100.359
100.261
100.189
100.135
100.096
100.068
100.047
100.033
100.023
100.016
100.011
100.007
100.005
100.003
100.002
100.001
100.001
100.001
100
100
100
100
100
100
100
100
100
100
100
100
100
100
100
100
100
100
100
100
100
100
100
100
100
100
382.478
348.217
316.048
286.759
260.645
237.667
217.606
200.168
185.048
171.962
160.658
150.914
142.538
135.362
129.24
124.042
119.65
115.961
112.882
110.328
108.225
106.504
105.108
103.982
103.082
102.368
101.805
101.366
101.026
100.765
100.566
100.415
100.302
100.218
100.157
100.111
100.079
100.055
100.038
100.026
100.018
100.012
100.008
100.005
100.004
100.002
100.002
100.001
100.001
100
100
100
100
100
100
100
100
100
100
100
100
100
100
100
100
100
100
100
100
100
100
100
100
100
100
384.083
352.766
322.886
295.089
269.723
246.898
226.56
208.566
192.729
178.852
166.741
156.213
147.102
139.252
132.524
126.788
121.928
117.835
114.411
111.565
109.218
107.295
105.732
104.472
103.463
102.661
102.03
101.537
101.155
100.861
100.637
100.468
100.341
100.246
100.176
100.126
100.089
100.062
100.043
100.03
100.02
100.014
100.009
100.006
100.004
100.003
100.002
100.001
100.001
100
100
100
100
100
100
100
100
100
100
100
100
100
100
100
100
100
100
100
100
100
100
100
100
100
100
385.224
356.041
327.907
301.349
276.71
254.164
233.756
215.44
199.119
184.664
171.934
160.784
151.073
142.662
135.421
129.226
123.96
119.513
115.784
112.681
110.116
108.012
106.3
104.917
103.81
102.93
102.236
101.693
101.273
100.949
100.702
100.516
100.376
100.272
100.195
100.139
100.098
100.069
100.048
100.033
100.022
100.015
100.01
100.007
100.005
100.003
100.002
100.001
100.001
100.001
100
100
100
100
100
100
100
100
100
100
100
100
100
100
100
100
100
100
100
100
100
100
100
100
100
386.055
358.446
331.646
306.091
282.1
259.872
239.507
221.023
204.382
189.512
176.314
164.677
154.484
145.614
137.946
131.362
125.749
120.997
117.005
113.674
110.918
108.654
106.81
105.319
104.123
103.172
102.422
101.835
101.38
101.029
100.762
100.56
100.408
100.295
100.212
100.151
100.106
100.074
100.052
100.036
100.024
100.017
100.011
100.007
100.005
100.003
100.002
100.001
100.001
100.001
100
100
100
100
100
100
100
100
100
100
100
100
100
100
100
100
100
100
100
100
100
100
100
100
100
386.671
360.239
334.46
309.705
286.267
264.351
244.085
225.526
208.682
193.518
179.971
167.957
157.382
148.139
140.119
133.211
127.306
122.295
118.075
114.55
111.627
109.224
107.263
105.676
104.403
103.389
102.589
101.962
101.476
101.102
100.816
100.599
100.437
100.316
100.227
100.161
100.114
100.08
100.055
100.038
100.026
100.018
100.012
100.008
100.005
100.003
100.002
100.001
100.001
100.001
100
100
100
100
100
100
100
100
100
100
100
100
100
100
100
100
100
100
100
100
100
100
100
100
100
387.133
361.588
336.594
312.473
289.495
267.861
247.715
229.139
212.169
196.8
182.994
170.693
159.817
150.275
141.969
134.794
128.645
123.415
119.004
115.311
112.246
109.722
107.661
105.991
104.649
103.581
102.737
102.075
101.561
101.166
100.864
100.635
100.463
100.335
100.24
100.171
100.121
100.085
100.059
100.041
100.028
100.019
100.013
100.008
100.006
100.004
100.002
100.002
100.001
100.001
100
100
100
100
100
100
100
100
100
100
100
100
100
100
100
100
100
100
100
100
100
100
100
100
100
387.483
362.612
338.221
314.6
291.996
270.608
250.585
232.024
214.98
199.468
185.474
172.953
161.843
152.065
143.528
136.135
129.784
124.373
119.8
115.967
112.781
110.154
108.006
106.265
104.864
103.748
102.866
102.174
101.637
101.222
100.906
100.666
100.486
100.351
100.252
100.18
100.127
100.089
100.062
100.043
100.029
100.02
100.013
100.009
100.006
100.004
100.003
100.002
100.001
100.001
100
100
100
100
100
100
100
100
100
100
100
100
100
100
100
100
100
100
100
100
100
100
100
100
100
387.748
363.392
339.466
316.237
293.935
272.755
252.845
234.315
217.23
201.623
187.491
174.804
163.514
153.549
144.828
137.259
130.744
125.183
120.477
116.526
113.238
110.524
108.303
106.5
105.05
103.893
102.978
102.26
101.702
101.271
100.942
100.693
100.505
100.366
100.263
100.187
100.132
100.093
100.064
100.044
100.03
100.021
100.014
100.009
100.006
100.004
100.003
100.002
100.001
100.001
100
100
100
100
100
100
100
100
100
100
100
100
100
100
100
100
100
100
100
100
100
100
100
100
100
387.951
363.987
340.421
317.497
295.437
274.428
254.62
236.127
219.023
203.351
189.119
176.309
164.879
154.769
145.902
138.191
131.544
125.862
121.045
116.997
113.624
110.838
108.555
106.702
105.209
104.017
103.074
102.334
101.758
101.314
100.974
100.716
100.523
100.378
100.272
100.194
100.137
100.096
100.067
100.046
100.032
100.021
100.014
100.01
100.006
100.004
100.003
100.002
100.001
100.001
100
100
100
100
100
100
100
100
100
100
100
100
100
100
100
100
100
100
100
100
100
100
100
100
100
388.106
364.443
341.152
318.467
296.599
275.729
256.008
237.552
220.443
204.727
190.424
177.521
165.986
155.762
146.781
138.959
132.205
126.424
121.518
117.391
113.948
111.102
108.768
106.871
105.343
104.122
103.156
102.397
101.806
101.35
101.001
100.736
100.538
100.389
100.28
100.199
100.141
100.099
100.069
100.047
100.032
100.022
100.015
100.01
100.007
100.004
100.003
100.002
100.001
100.001
100
100
100
100
100
100
100
100
100
100
100
100
100
100
100
100
100
100
100
100
100
100
100
100
100
388.224
364.791
341.713
319.213
297.495
276.738
257.09
238.669
221.561
205.817
191.463
178.492
166.876
156.565
147.494
139.584
132.745
126.885
121.907
117.716
114.216
111.321
108.945
107.013
105.455
104.211
103.224
102.449
101.846
101.38
101.024
100.754
100.55
100.398
100.286
100.204
100.144
100.101
100.07
100.049
100.033
100.023
100.015
100.01
100.007
100.004
100.003
100.002
100.001
100.001
100
100
100
100
100
100
100
100
100
100
100
100
100
100
100
100
100
100
100
100
100
100
100
100
100
388.314
365.056
342.141
319.785
298.185
277.517
257.929
239.539
222.436
206.675
192.284
179.262
167.586
157.209
148.068
140.089
133.184
127.261
122.225
117.982
114.437
111.501
109.091
107.13
105.549
104.284
103.281
102.493
101.88
101.406
101.043
100.768
100.561
100.406
100.292
100.208
100.147
100.103
100.072
100.05
100.034
100.023
100.016
100.01
100.007
100.005
100.003
100.002
100.001
100.001
100
100
100
100
100
100
100
100
100
100
100
100
100
100
100
100
100
100
100
100
100
100
100
100
100
388.382
365.259
342.469
320.222
298.714
278.116
258.577
240.214
223.117
207.346
192.929
179.87
168.148
157.72
148.526
140.493
133.536
127.564
122.483
118.198
114.616
111.648
109.211
107.226
105.625
104.344
103.328
102.53
101.908
101.427
101.059
100.78
100.569
100.412
100.296
100.211
100.149
100.105
100.073
100.05
100.034
100.023
100.016
100.011
100.007
100.005
100.003
100.002
100.001
100.001
100.001
100
100
100
100
100
100
100
100
100
100
100
100
100
100
100
100
100
100
100
100
100
100
100
100
388.434
365.413
342.718
320.556
299.118
278.576
259.075
240.735
223.645
207.867
193.432
180.345
168.589
158.123
148.889
140.814
133.816
127.806
122.689
118.371
114.76
111.767
109.307
107.304
105.687
104.393
103.367
102.56
101.93
101.444
101.072
100.789
100.577
100.418
100.3
100.214
100.151
100.106
100.074
100.051
100.035
100.024
100.016
100.011
100.007
100.005
100.003
100.002
100.001
100.001
100.001
100
100
100
100
100
100
100
100
100
100
100
100
100
100
100
100
100
100
100
100
100
100
100
100
388.474
365.529
342.906
320.809
299.425
278.926
259.456
241.134
224.051
208.269
193.821
180.715
168.934
158.439
149.174
141.067
134.038
127.998
122.853
118.509
114.876
111.862
109.385
107.367
105.737
104.433
103.398
102.584
101.949
101.458
101.083
100.797
100.582
100.422
100.303
100.216
100.153
100.107
100.075
100.052
100.035
100.024
100.016
100.011
100.007
100.005
100.003
100.002
100.001
100.001
100.001
100
100
100
100
100
100
100
100
100
100
100
100
100
100
100
100
100
100
100
100
100
100
100
100
388.503
365.617
343.049
321
299.658
279.192
259.746
241.439
224.362
208.578
194.121
181.001
169.201
158.684
149.395
141.265
134.212
128.148
122.982
118.619
114.967
111.938
109.447
107.417
105.777
104.464
103.423
102.603
101.964
101.47
101.091
100.804
100.587
100.426
100.306
100.218
100.154
100.108
100.075
100.052
100.036
100.024
100.016
100.011
100.007
100.005
100.003
100.002
100.001
100.001
100.001
100
100
100
100
100
100
100
100
100
100
100
100
100
100
100
100
100
100
100
100
100
100
100
100
388.526
365.683
343.156
321.144
299.834
279.393
259.965
241.67
224.598
208.813
194.35
181.22
169.406
158.873
149.567
141.418
134.347
128.266
123.082
118.704
115.038
111.997
109.495
107.456
105.809
104.49
103.442
102.618
101.976
101.479
101.098
100.809
100.591
100.428
100.308
100.22
100.155
100.109
100.076
100.052
100.036
100.024
100.016
100.011
100.007
100.005
100.003
100.002
100.001
100.001
100.001
100
100
100
100
100
100
100
100
100
100
100
100
100
100
100
100
100
100
100
100
100
100
100
100
388.542
365.732
343.236
321.251
299.965
279.543
260.13
241.844
224.776
208.991
194.524
181.386
169.563
159.018
149.698
141.536
134.451
128.356
123.16
118.77
115.094
112.043
109.533
107.487
105.834
104.509
103.458
102.63
101.985
101.486
101.104
100.813
100.594
100.431
100.31
100.221
100.156
100.11
100.076
100.053
100.036
100.025
100.017
100.011
100.007
100.005
100.003
100.002
100.001
100.001
100.001
100
100
100
100
100
100
100
100
100
100
100
100
100
100
100
100
100
100
100
100
100
100
100
100
388.555
365.769
343.295
321.332
300.063
279.656
260.254
241.974
224.91
209.125
194.656
181.512
169.681
159.128
149.798
141.626
134.53
128.426
123.22
118.821
115.137
112.079
109.563
107.511
105.853
104.525
103.47
102.64
101.992
101.492
101.108
100.816
100.596
100.432
100.311
100.222
100.157
100.11
100.077
100.053
100.036
100.025
100.017
100.011
100.007
100.005
100.003
100.002
100.001
100.001
100.001
100
100
100
100
100
100
100
100
100
100
100
100
100
100
100
100
100
100
100
100
100
100
100
100
388.564
365.796
343.339
321.391
300.136
279.74
260.345
242.072
225.01
209.225
194.754
181.607
169.77
159.21
149.874
141.694
134.591
128.479
123.266
118.86
115.17
112.106
109.585
107.529
105.868
104.536
103.479
102.647
101.998
101.496
101.111
100.819
100.598
100.434
100.312
100.222
100.157
100.11
100.077
100.053
100.036
100.025
100.017
100.011
100.007
100.005
100.003
100.002
100.001
100.001
100.001
100
100
100
100
100
100
100
100
100
100
100
100
100
100
100
100
100
100
100
100
100
100
100
100
388.57
365.816
343.372
321.435
300.19
279.801
260.413
242.143
225.084
209.3
194.827
181.677
169.837
159.272
149.931
141.745
134.636
128.518
123.3
118.89
115.195
112.127
109.602
107.544
105.879
104.546
103.486
102.653
102.002
101.499
101.114
100.82
100.6
100.435
100.313
100.223
100.158
100.111
100.077
100.053
100.036
100.025
100.017
100.011
100.007
100.005
100.003
100.002
100.001
100.001
100.001
100
100
100
100
100
100
100
100
100
100
100
100
100
100
100
100
100
100
100
100
100
100
100
100
388.575
365.83
343.395
321.467
300.229
279.846
260.463
242.196
225.139
209.355
194.881
181.729
169.886
159.318
149.973
141.783
134.67
128.548
123.326
118.912
115.214
112.143
109.615
107.554
105.888
104.552
103.492
102.657
102.006
101.502
101.115
100.822
100.601
100.436
100.313
100.223
100.158
100.111
100.077
100.053
100.037
100.025
100.017
100.011
100.007
100.005
100.003
100.002
100.001
100.001
100.001
100
100
100
100
100
100
100
100
100
100
100
100
100
100
100
100
100
100
100
100
100
100
100
100
388.579
365.841
343.412
321.49
300.257
279.879
260.499
242.235
225.179
209.395
194.921
181.767
169.923
159.352
150.004
141.811
134.695
128.57
123.345
118.928
115.228
112.154
109.625
107.562
105.894
104.558
103.496
102.66
102.008
101.504
101.117
100.823
100.602
100.436
100.314
100.224
100.158
100.111
100.077
100.053
100.037
100.025
100.017
100.011
100.007
100.005
100.003
100.002
100.001
100.001
100.001
100
100
100
100
100
100
100
100
100
100
100
100
100
100
100
100
100
100
100
100
100
100
100
100
388.582
365.849
343.425
321.507
300.278
279.903
260.525
242.263
225.208
209.424
194.95
181.795
169.949
159.377
150.027
141.832
134.714
128.586
123.36
118.941
115.238
112.163
109.632
107.568
105.899
104.561
103.499
102.663
102.01
101.505
101.118
100.824
100.602
100.437
100.314
100.224
100.159
100.111
100.077
100.054
100.037
100.025
100.017
100.011
100.007
100.005
100.003
100.002
100.001
100.001
100.001
100
100
100
100
100
100
100
100
100
100
100
100
100
100
100
100
100
100
100
100
100
100
100
100
388.583
365.854
343.434
321.519
300.293
279.92
260.544
242.283
225.229
209.445
194.97
181.816
169.968
159.395
150.043
141.847
134.727
128.598
123.37
118.949
115.245
112.169
109.638
107.572
105.902
104.564
103.501
102.664
102.011
101.506
101.119
100.824
100.603
100.437
100.314
100.224
100.159
100.111
100.078
100.054
100.037
100.025
100.017
100.011
100.007
100.005
100.003
100.002
100.001
100.001
100.001
100
100
100
100
100
100
100
100
100
100
100
100
100
100
100
100
100
100
100
100
100
100
100
100
388.585
365.858
343.44
321.528
300.303
279.932
260.558
242.297
225.243
209.46
194.985
181.83
169.982
159.408
150.055
141.857
134.737
128.607
123.377
118.956
115.251
112.174
109.641
107.575
105.905
104.566
103.503
102.666
102.012
101.507
101.119
100.825
100.603
100.437
100.314
100.224
100.159
100.111
100.078
100.054
100.037
100.025
100.017
100.011
100.007
100.005
100.003
100.002
100.001
100.001
100.001
100
100
100
100
100
100
100
100
100
100
100
100
100
100
100
100
100
100
100
100
100
100
100
100
388.586
365.861
343.445
321.534
300.311
279.941
260.567
242.308
225.254
209.471
194.996
181.84
169.992
159.417
150.064
141.865
134.744
128.613
123.383
118.961
115.255
112.177
109.644
107.578
105.907
104.568
103.504
102.667
102.013
101.508
101.12
100.825
100.603
100.437
100.315
100.224
100.159
100.111
100.078
100.054
100.037
100.025
100.017
100.011
100.007
100.005
100.003
100.002
100.001
100.001
100.001
100
100
100
100
100
100
100
100
100
100
100
100
100
100
100
100
100
100
100
100
100
100
100
100
388.586
365.863
343.448
321.538
300.316
279.947
260.574
242.315
225.262
209.479
195.004
181.848
169.999
159.424
150.07
141.871
134.749
128.618
123.387
118.964
115.258
112.18
109.646
107.579
105.908
104.569
103.505
102.667
102.014
101.508
101.12
100.825
100.603
100.437
100.315
100.224
100.159
100.112
100.078
100.054
100.037
100.025
100.017
100.011
100.007
100.005
100.003
100.002
100.001
100.001
100.001
100
100
100
100
100
100
100
100
100
100
100
100
100
100
100
100
100
100
100
100
100
100
100
100
388.587
365.864
343.45
321.541
300.32
279.952
260.579
242.32
225.267
209.484
195.009
181.853
170.004
159.428
150.074
141.875
134.752
128.621
123.389
118.966
115.26
112.181
109.648
107.581
105.909
104.57
103.506
102.668
102.014
101.508
101.12
100.826
100.604
100.438
100.315
100.225
100.159
100.112
100.078
100.054
100.037
100.025
100.017
100.011
100.007
100.005
100.003
100.002
100.001
100.001
100.001
100
100
100
100
100
100
100
100
100
100
100
100
100
100
100
100
100
100
100
100
100
100
100
100
388.587
365.865
343.452
321.543
300.322
279.954
260.582
242.323
225.271
209.488
195.013
181.856
170.007
159.431
150.077
141.877
134.755
128.623
123.391
118.968
115.261
112.183
109.649
107.581
105.91
104.57
103.506
102.668
102.014
101.508
101.121
100.826
100.604
100.438
100.315
100.225
100.159
100.112
100.078
100.054
100.037
100.025
100.017
100.011
100.007
100.005
100.003
100.002
100.001
100.001
100.001
100
100
100
100
100
100
100
100
100
100
100
100
100
100
100
100
100
100
100
100
100
100
100
100
388.587
365.866
343.453
321.545
300.324
279.957
260.584
242.326
225.273
209.49
195.015
181.859
170.01
159.434
150.079
141.879
134.756
128.624
123.393
118.969
115.262
112.183
109.649
107.582
105.91
104.571
103.506
102.668
102.014
101.509
101.121
100.826
100.604
100.438
100.315
100.225
100.159
100.112
100.078
100.054
100.037
100.025
100.017
100.011
100.007
100.005
100.003
100.002
100.001
100.001
100.001
100
100
100
100
100
100
100
100
100
100
100
100
100
100
100
100
100
100
100
100
100
100
100
100
388.587
365.866
343.453
321.546
300.325
279.958
260.586
242.328
225.275
209.492
195.017
181.861
170.011
159.435
150.081
141.881
134.758
128.625
123.394
118.97
115.263
112.184
109.65
107.582
105.911
104.571
103.507
102.669
102.015
101.509
101.121
100.826
100.604
100.438
100.315
100.225
100.159
100.112
100.078
100.054
100.037
100.025
100.017
100.011
100.007
100.005
100.003
100.002
100.001
100.001
100.001
100
100
100
100
100
100
100
100
100
100
100
100
100
100
100
100
100
100
100
100
100
100
100
100
388.588
365.866
343.454
321.546
300.326
279.959
260.587
242.329
225.276
209.493
195.018
181.862
170.012
159.436
150.082
141.882
134.758
128.626
123.394
118.97
115.263
112.184
109.65
107.583
105.911
104.571
103.507
102.669
102.015
101.509
101.121
100.826
100.604
100.438
100.315
100.225
100.159
100.112
100.078
100.054
100.037
100.025
100.017
100.011
100.007
100.005
100.003
100.002
100.001
100.001
100.001
100
100
100
100
100
100
100
100
100
100
100
100
100
100
100
100
100
100
100
100
100
100
100
100
388.588
365.867
343.454
321.547
300.327
279.96
260.588
242.329
225.277
209.494
195.019
181.863
170.013
159.437
150.082
141.882
134.759
128.627
123.395
118.971
115.264
112.185
109.65
107.583
105.911
104.571
103.507
102.669
102.015
101.509
101.121
100.826
100.604
100.438
100.315
100.225
100.159
100.112
100.078
100.054
100.037
100.025
100.017
100.011
100.007
100.005
100.003
100.002
100.001
100.001
100.001
100
100
100
100
100
100
100
100
100
100
100
100
100
100
100
100
100
100
100
100
100
100
100
100
388.588
365.867
343.454
321.547
300.327
279.96
260.588
242.33
225.277
209.495
195.019
181.863
170.014
159.437
150.083
141.883
134.759
128.627
123.395
118.971
115.264
112.185
109.651
107.583
105.911
104.571
103.507
102.669
102.015
101.509
101.121
100.826
100.604
100.438
100.315
100.225
100.159
100.112
100.078
100.054
100.037
100.025
100.017
100.011
100.007
100.005
100.003
100.002
100.001
100.001
100.001
100
100
100
100
100
100
100
100
100
100
100
100
100
100
100
100
100
100
100
100
100
100
100
100
388.588
365.867
343.455
321.547
300.327
279.96
260.588
242.33
225.278
209.495
195.02
181.864
170.014
159.438
150.083
141.883
134.76
128.627
123.395
118.971
115.264
112.185
109.651
107.583
105.911
104.571
103.507
102.669
102.015
101.509
101.121
100.826
100.604
100.438
100.315
100.225
100.159
100.112
100.078
100.054
100.037
100.025
100.017
100.011
100.007
100.005
100.003
100.002
100.001
100.001
100.001
100
100
100
100
100
100
100
100
100
100
100
100
100
100
100
100
100
100
100
100
100
100
100
100
388.588
365.867
343.455
321.547
300.328
279.96
260.589
242.331
225.278
209.495
195.02
181.864
170.014
159.438
150.083
141.883
134.76
128.627
123.395
118.971
115.264
112.185
109.651
107.583
105.911
104.571
103.507
102.669
102.015
101.509
101.121
100.826
100.604
100.438
100.315
100.225
100.159
100.112
100.078
100.054
100.037
100.025
100.017
100.011
100.007
100.005
100.003
100.002
100.001
100.001
100.001
100
100
100
100
100
100
100
100
100
100
100
100
100
100
100
100
100
100
100
100
100
100
100
100
388.588
365.867
343.455
321.547
300.328
279.961
260.589
242.331
225.278
209.495
195.02
181.864
170.014
159.438
150.083
141.883
134.76
128.627
123.395
118.971
115.264
112.185
109.651
107.583
105.911
104.571
103.507
102.669
102.015
101.509
101.121
100.826
100.604
100.438
100.315
100.225
100.159
100.112
100.078
100.054
100.037
100.025
100.017
100.011
100.007
100.005
100.003
100.002
100.001
100.001
100.001
100
100
100
100
100
100
100
100
100
100
100
100
100
100
100
100
100
100
100
100
100
100
100
100
388.588
365.867
343.455
321.547
300.328
279.961
260.589
242.331
225.278
209.495
195.02
181.864
170.015
159.438
150.083
141.883
134.76
128.627
123.395
118.971
115.264
112.185
109.651
107.583
105.911
104.571
103.507
102.669
102.015
101.509
101.121
100.826
100.604
100.438
100.315
100.225
100.159
100.112
100.078
100.054
100.037
100.025
100.017
100.011
100.007
100.005
100.003
100.002
100.001
100.001
100.001
100
100
100
100
100
100
100
100
100
100
100
100
100
100
100
100
100
100
100
100
100
100
100
100
388.588
365.867
343.455
321.547
300.328
279.961
260.589
242.331
225.278
209.496
195.02
181.864
170.015
159.438
150.083
141.883
134.76
128.628
123.395
118.972
115.264
112.185
109.651
107.583
105.911
104.571
103.507
102.669
102.015
101.509
101.121
100.826
100.604
100.438
100.315
100.225
100.159
100.112
100.078
100.054
100.037
100.025
100.017
100.011
100.007
100.005
100.003
100.002
100.001
100.001
100.001
100
100
100
100
100
100
100
100
100
100
100
100
100
100
100
100
100
100
100
100
100
100
100
100
388.588
365.867
343.455
321.547
300.328
279.961
260.589
242.331
225.278
209.496
195.02
181.864
170.015
159.438
150.083
141.883
134.76
128.628
123.395
118.972
115.264
112.185
109.651
107.583
105.911
104.571
103.507
102.669
102.015
101.509
101.121
100.826
100.604
100.438
100.315
100.225
100.159
100.112
100.078
100.054
100.037
100.025
100.017
100.011
100.007
100.005
100.003
100.002
100.001
100.001
100.001
100
100
100
100
100
100
100
100
100
100
100
100
100
100
100
100
100
100
100
100
100
100
100
100
388.588
365.867
343.455
321.547
300.328
279.961
260.589
242.331
225.278
209.496
195.02
181.864
170.015
159.438
150.083
141.883
134.76
128.628
123.396
118.972
115.264
112.185
109.651
107.583
105.911
104.571
103.507
102.669
102.015
101.509
101.121
100.826
100.604
100.438
100.315
100.225
100.159
100.112
100.078
100.054
100.037
100.025
100.017
100.011
100.007
100.005
100.003
100.002
100.001
100.001
100.001
100
100
100
100
100
100
100
100
100
100
100
100
100
100
100
100
100
100
100
100
100
100
100
100
388.588
365.867
343.455
321.547
300.328
279.961
260.589
242.331
225.278
209.496
195.02
181.864
170.015
159.438
150.083
141.883
134.76
128.628
123.396
118.972
115.264
112.185
109.651
107.583
105.911
104.571
103.507
102.669
102.015
101.509
101.121
100.826
100.604
100.438
100.315
100.225
100.159
100.112
100.078
100.054
100.037
100.025
100.017
100.011
100.007
100.005
100.003
100.002
100.001
100.001
100.001
100
100
100
100
100
100
100
100
100
100
100
100
100
100
100
100
100
100
100
100
100
100
100
100
388.588
365.867
343.455
321.548
300.328
279.961
260.589
242.331
225.278
209.496
195.02
181.864
170.015
159.438
150.084
141.883
134.76
128.628
123.396
118.972
115.264
112.185
109.651
107.583
105.911
104.571
103.507
102.669
102.015
101.509
101.121
100.826
100.604
100.438
100.315
100.225
100.159
100.112
100.078
100.054
100.037
100.025
100.017
100.011
100.007
100.005
100.003
100.002
100.001
100.001
100.001
100
100
100
100
100
100
100
100
100
100
100
100
100
100
100
100
100
100
100
100
100
100
100
100
388.588
365.867
343.455
321.548
300.328
279.961
260.589
242.331
225.278
209.496
195.02
181.864
170.015
159.438
150.084
141.883
134.76
128.628
123.396
118.972
115.264
112.185
109.651
107.583
105.911
104.571
103.507
102.669
102.015
101.509
101.121
100.826
100.604
100.438
100.315
100.225
100.159
100.112
100.078
100.054
100.037
100.025
100.017
100.011
100.007
100.005
100.003
100.002
100.001
100.001
100.001
100
100
100
100
100
100
100
100
100
100
100
100
100
100
100
100
100
100
100
100
100
100
100
100
388.588
365.867
343.455
321.548
300.328
279.961
260.589
242.331
225.278
209.496
195.02
181.864
170.015
159.438
150.084
141.883
134.76
128.628
123.396
118.972
115.264
112.185
109.651
107.583
105.911
104.571
103.507
102.669
102.015
101.509
101.121
100.826
100.604
100.438
100.315
100.225
100.159
100.112
100.078
100.054
100.037
100.025
100.017
100.011
100.007
100.005
100.003
100.002
100.001
100.001
100.001
100
100
100
100
100
100
100
100
100
100
100
100
100
100
100
100
100
100
100
100
100
100
100
100
388.588
365.867
343.455
321.548
300.328
279.961
260.589
242.331
225.278
209.496
195.02
181.864
170.015
159.438
150.084
141.883
134.76
128.628
123.396
118.972
115.264
112.185
109.651
107.583
105.911
104.571
103.507
102.669
102.015
101.509
101.121
100.826
100.604
100.438
100.315
100.225
100.159
100.112
100.078
100.054
100.037
100.025
100.017
100.011
100.007
100.005
100.003
100.002
100.001
100.001
100.001
100
100
100
100
100
100
100
100
100
100
100
100
100
100
100
100
100
100
100
100
100
100
100
100
388.588
365.867
343.455
321.548
300.328
279.961
260.589
242.331
225.278
209.496
195.02
181.864
170.015
159.438
150.084
141.883
134.76
128.628
123.396
118.972
115.264
112.185
109.651
107.583
105.911
104.571
103.507
102.669
102.015
101.509
101.121
100.826
100.604
100.438
100.315
100.225
100.159
100.112
100.078
100.054
100.037
100.025
100.017
100.011
100.007
100.005
100.003
100.002
100.001
100.001
100.001
100
100
100
100
100
100
100
100
100
100
100
100
100
100
100
100
100
100
100
100
100
100
100
100
388.588
365.867
343.455
321.548
300.328
279.961
260.589
242.331
225.278
209.496
195.02
181.864
170.015
159.438
150.084
141.883
134.76
128.628
123.396
118.972
115.264
112.185
109.651
107.583
105.911
104.571
103.507
102.669
102.015
101.509
101.121
100.826
100.604
100.438
100.315
100.225
100.159
100.112
100.078
100.054
100.037
100.025
100.017
100.011
100.007
100.005
100.003
100.002
100.001
100.001
100.001
100
100
100
100
100
100
100
100
100
100
100
100
100
100
100
100
100
100
100
100
100
100
100
100
388.588
365.867
343.455
321.548
300.328
279.961
260.589
242.331
225.278
209.496
195.02
181.864
170.015
159.438
150.084
141.883
134.76
128.628
123.396
118.972
115.264
112.185
109.651
107.583
105.911
104.571
103.507
102.669
102.015
101.509
101.121
100.826
100.604
100.438
100.315
100.225
100.159
100.112
100.078
100.054
100.037
100.025
100.017
100.011
100.007
100.005
100.003
100.002
100.001
100.001
100.001
100
100
100
100
100
100
100
100
100
100
100
100
100
100
100
100
100
100
100
100
100
100
100
100
388.588
365.867
343.455
321.548
300.328
279.961
260.589
242.331
225.278
209.496
195.02
181.864
170.015
159.438
150.084
141.883
134.76
128.628
123.396
118.972
115.264
112.185
109.651
107.583
105.911
104.571
103.507
102.669
102.015
101.509
101.121
100.826
100.604
100.438
100.315
100.225
100.159
100.112
100.078
100.054
100.037
100.025
100.017
100.011
100.007
100.005
100.003
100.002
100.001
100.001
100.001
100
100
100
100
100
100
100
100
100
100
100
100
100
100
100
100
100
100
100
100
100
100
100
100
388.588
365.867
343.455
321.548
300.328
279.961
260.589
242.331
225.278
209.496
195.02
181.864
170.015
159.438
150.084
141.883
134.76
128.628
123.396
118.972
115.264
112.185
109.651
107.583
105.911
104.571
103.507
102.669
102.015
101.509
101.121
100.826
100.604
100.438
100.315
100.225
100.159
100.112
100.078
100.054
100.037
100.025
100.017
100.011
100.007
100.005
100.003
100.002
100.001
100.001
100.001
100
100
100
100
100
100
100
100
100
100
100
100
100
100
100
100
100
100
100
100
100
100
100
100
388.588
365.867
343.455
321.548
300.328
279.961
260.589
242.331
225.278
209.496
195.02
181.864
170.015
159.438
150.084
141.883
134.76
128.628
123.396
118.972
115.264
112.185
109.651
107.583
105.911
104.571
103.507
102.669
102.015
101.509
101.121
100.826
100.604
100.438
100.315
100.225
100.159
100.112
100.078
100.054
100.037
100.025
100.017
100.011
100.007
100.005
100.003
100.002
100.001
100.001
100.001
100
100
100
100
100
100
100
100
100
100
100
100
100
100
100