/*--------------------------------*- C++ -*----------------------------------*\
  =========                 |
  \\      /  F ield         | OpenFOAM: The Open Source CFD Toolbox
   \\    /   O peration     | Website:  https://openfoam.org
    \\  /    A nd           | Version:  10
     \\/     M anipulation  |
\*---------------------------------------------------------------------------*/
FoamFile
{
    format      ascii;
    class       volScalarField;
    location    "283";
    object      T;
}
// * * * * * * * * * * * * * * * * * * * * * * * * * * * * * * * * * * * * * //

dimensions      [0 0 0 1 0 0 0];

internalField   nonuniform List<scalar> 
11250
(
249.812
167.467
139.212
126.743
119.919
115.579
112.536
110.265
108.495
107.076
105.915
104.951
104.144
103.464
102.889
102.402
101.99
101.642
101.348
101.102
100.896
100.725
100.583
100.466
100.371
100.293
100.23
100.18
100.139
100.107
100.082
100.062
100.047
100.035
100.026
100.02
100.014
100.011
100.008
100.005
100.004
100.003
100.002
100.001
100.001
100.001
100
100
100
100
100
100
100
100
100
100
100
100
100
100
100
100
100
100
100
100
100
100
100
100
100
100
100
100
100
331.409
248.318
201.867
174.603
157.3
145.468
136.87
130.327
125.173
121.01
117.588
114.738
112.346
110.326
108.615
107.166
105.939
104.901
104.027
103.292
102.677
102.166
101.742
101.394
101.108
100.876
100.688
100.537
100.416
100.321
100.246
100.187
100.141
100.106
100.079
100.059
100.043
100.031
100.023
100.016
100.012
100.008
100.006
100.004
100.003
100.002
100.001
100.001
100.001
100
100
100
100
100
100
100
100
100
100
100
100
100
100
100
100
100
100
100
100
100
100
100
100
100
100
358.924
292.556
245.377
212.561
189.282
172.209
159.248
149.106
140.972
134.322
128.808
124.189
120.294
116.994
114.193
111.815
109.798
108.09
106.65
105.439
104.425
103.581
102.881
102.305
101.833
101.449
101.138
100.889
100.689
100.531
100.407
100.309
100.234
100.175
100.131
100.097
100.071
100.052
100.038
100.027
100.019
100.014
100.01
100.007
100.005
100.003
100.002
100.002
100.001
100.001
100
100
100
100
100
100
100
100
100
100
100
100
100
100
100
100
100
100
100
100
100
100
100
100
100
370.668
317.65
274.595
241.079
215.182
194.982
178.968
166.054
155.474
146.694
139.333
133.118
127.844
123.356
119.534
116.279
113.512
111.167
109.184
107.516
106.118
104.953
103.987
103.19
102.538
102.007
101.577
101.231
100.955
100.736
100.564
100.429
100.324
100.243
100.181
100.134
100.099
100.072
100.052
100.038
100.027
100.019
100.014
100.01
100.007
100.005
100.003
100.002
100.001
100.001
100.001
100
100
100
100
100
100
100
100
100
100
100
100
100
100
100
100
100
100
100
100
100
100
100
100
376.786
332.842
294.373
262.114
235.555
213.766
195.815
180.912
168.437
157.916
148.99
141.383
134.883
129.322
124.565
120.501
117.036
114.092
111.6
109.5
107.738
106.267
105.047
104.041
103.216
102.543
101.999
101.561
101.211
100.934
100.715
100.544
100.411
100.309
100.23
100.171
100.126
100.092
100.067
100.048
100.034
100.024
100.017
100.012
100.008
100.006
100.004
100.003
100.002
100.001
100.001
100.001
100
100
100
100
100
100
100
100
100
100
100
100
100
100
100
100
100
100
100
100
100
100
100
380.445
342.636
308.068
277.622
251.372
228.967
209.898
193.653
179.778
167.89
157.68
148.896
141.333
134.825
129.231
124.434
120.332
116.838
113.874
111.371
109.269
107.512
106.053
104.849
103.86
103.054
102.401
101.876
101.456
101.123
100.86
100.655
100.495
100.372
100.277
100.205
100.151
100.11
100.08
100.058
100.041
100.029
100.021
100.015
100.01
100.007
100.005
100.003
100.002
100.001
100.001
100.001
100
100
100
100
100
100
100
100
100
100
100
100
100
100
100
100
100
100
100
100
100
100
100
382.836
349.283
317.795
289.142
263.606
241.136
221.502
204.402
189.531
176.604
165.37
155.614
147.152
139.825
133.496
128.048
123.374
119.381
115.987
113.115
110.699
108.678
106.997
105.607
104.466
103.535
102.781
102.173
101.687
101.302
100.997
100.759
100.574
100.431
100.322
100.238
100.175
100.128
100.093
100.067
100.048
100.034
100.024
100.017
100.012
100.008
100.006
100.004
100.003
100.002
100.001
100.001
100.001
100
100
100
100
100
100
100
100
100
100
100
100
100
100
100
100
100
100
100
100
100
100
384.488
353.973
324.864
297.788
273.077
250.826
230.971
213.361
197.806
184.108
172.077
161.536
152.326
144.305
137.343
131.325
126.145
121.708
117.926
114.721
112.019
109.756
107.871
106.312
105.03
103.984
103.135
102.451
101.904
101.469
101.126
100.857
100.648
100.487
100.363
100.269
100.198
100.145
100.105
100.076
100.054
100.039
100.027
100.019
100.013
100.009
100.006
100.004
100.003
100.002
100.001
100.001
100.001
100
100
100
100
100
100
100
100
100
100
100
100
100
100
100
100
100
100
100
100
100
100
385.674
357.38
330.101
304.344
280.431
258.523
238.651
220.762
204.753
190.497
177.855
166.691
156.871
148.27
140.77
134.261
128.64
123.811
119.686
116.183
113.225
110.743
108.674
106.96
105.55
104.397
103.462
102.708
102.104
101.624
101.245
100.948
100.717
100.539
100.402
100.298
100.22
100.161
100.117
100.084
100.06
100.043
100.03
100.021
100.015
100.01
100.007
100.005
100.003
100.002
100.001
100.001
100.001
100
100
100
100
100
100
100
100
100
100
100
100
100
100
100
100
100
100
100
100
100
100
386.547
359.908
334.042
309.361
286.163
264.632
244.852
226.833
210.535
195.881
182.78
171.128
160.816
151.738
143.787
136.86
130.86
125.691
121.265
117.499
114.314
111.637
109.403
107.55
106.024
104.775
103.761
102.943
102.287
101.766
101.355
101.032
100.781
100.587
100.438
100.325
100.239
100.175
100.127
100.092
100.066
100.047
100.033
100.023
100.016
100.011
100.008
100.005
100.004
100.002
100.002
100.001
100.001
100
100
100
100
100
100
100
100
100
100
100
100
100
100
100
100
100
100
100
100
100
100
387.201
361.815
337.042
313.23
290.647
269.481
249.845
231.789
215.312
200.382
186.94
174.909
164.206
154.739
146.414
139.137
132.814
127.353
122.667
118.672
115.287
112.438
110.057
108.081
106.451
105.117
104.032
103.156
102.454
101.896
101.455
101.109
100.839
100.631
100.471
100.349
100.257
100.188
100.137
100.099
100.071
100.05
100.036
100.025
100.017
100.012
100.008
100.006
100.004
100.003
100.002
100.001
100.001
100
100
100
100
100
100
100
100
100
100
100
100
100
100
100
100
100
100
100
100
100
100
387.698
363.268
339.347
316.23
294.163
273.33
253.856
235.815
219.237
204.117
190.423
178.103
167.091
157.311
148.68
141.111
134.516
128.808
123.899
119.706
116.148
113.149
110.64
108.554
106.833
105.422
104.275
103.348
102.604
102.013
101.545
101.178
100.892
100.671
100.501
100.371
100.274
100.2
100.145
100.105
100.075
100.054
100.038
100.027
100.018
100.013
100.009
100.006
100.004
100.003
100.002
100.001
100.001
100.001
100
100
100
100
100
100
100
100
100
100
100
100
100
100
100
100
100
100
100
100
100
388.079
364.386
341.129
318.568
296.927
276.384
257.07
239.074
222.444
207.197
193.32
180.78
169.526
159.495
150.615
142.806
135.986
130.069
124.971
120.609
116.902
113.774
111.153
108.972
107.171
105.694
104.491
103.518
102.738
102.117
101.625
101.239
100.939
100.706
100.527
100.391
100.288
100.211
100.153
100.111
100.079
100.056
100.04
100.028
100.02
100.013
100.009
100.006
100.004
100.003
100.002
100.001
100.001
100.001
100
100
100
100
100
100
100
100
100
100
100
100
100
100
100
100
100
100
100
100
100
388.373
365.251
342.513
320.394
299.102
278.806
259.641
241.702
225.052
209.721
195.712
183.005
171.564
161.335
152.254
144.249
137.242
131.152
125.895
121.39
117.556
114.317
111.6
109.338
107.467
105.932
104.681
103.669
102.856
102.209
101.696
101.294
100.98
100.738
100.551
100.409
100.301
100.221
100.16
100.116
100.083
100.059
100.042
100.029
100.02
100.014
100.01
100.007
100.004
100.003
100.002
100.001
100.001
100.001
100
100
100
100
100
100
100
100
100
100
100
100
100
100
100
100
100
100
100
100
100
388.601
365.922
343.591
321.824
300.814
280.726
261.692
243.815
227.163
211.779
197.675
184.844
173.257
162.872
153.631
145.467
138.307
132.073
126.684
122.059
118.119
114.786
111.987
109.655
107.724
106.139
104.846
103.8
102.96
102.289
101.759
101.342
101.017
100.765
100.572
100.425
100.313
100.229
100.167
100.12
100.086
100.061
100.043
100.03
100.021
100.015
100.01
100.007
100.005
100.003
100.002
100.001
100.001
100.001
100
100
100
100
100
100
100
100
100
100
100
100
100
100
100
100
100
100
100
100
100
388.779
366.444
344.432
322.944
302.162
282.245
263.325
245.507
228.865
213.447
199.276
186.352
174.654
164.146
154.778
146.486
139.202
132.851
127.352
122.628
118.598
115.186
112.319
109.927
107.946
106.318
104.989
103.914
103.049
102.359
101.813
101.384
101.049
100.79
100.59
100.438
100.323
100.237
100.172
100.124
100.089
100.063
100.045
100.031
100.022
100.015
100.01
100.007
100.005
100.003
100.002
100.001
100.001
100.001
100
100
100
100
100
100
100
100
100
100
100
100
100
100
100
100
100
100
100
100
100
388.916
366.851
345.089
323.821
303.221
283.444
264.621
246.857
230.23
214.793
200.574
187.581
175.798
165.195
155.726
147.332
139.948
133.501
127.913
123.107
119.003
115.526
112.6
110.158
108.135
106.471
105.112
104.011
103.126
102.42
101.86
101.42
101.077
100.811
100.606
100.45
100.332
100.243
100.177
100.128
100.091
100.065
100.046
100.032
100.023
100.016
100.011
100.007
100.005
100.003
100.002
100.001
100.001
100.001
100
100
100
100
100
100
100
100
100
100
100
100
100
100
100
100
100
100
100
100
100
389.024
367.168
345.601
324.507
304.053
284.39
265.647
247.93
231.32
215.873
201.622
188.577
176.73
166.053
156.504
148.03
140.566
134.041
128.381
123.507
119.343
115.811
112.838
110.354
108.295
106.6
105.216
104.094
103.192
102.471
101.9
101.451
101.1
100.829
100.62
100.46
100.339
100.249
100.181
100.131
100.094
100.067
100.047
100.033
100.023
100.016
100.011
100.008
100.005
100.003
100.002
100.002
100.001
100.001
100
100
100
100
100
100
100
100
100
100
100
100
100
100
100
100
100
100
100
100
100
389.107
367.415
346.001
325.042
304.704
285.133
266.456
248.78
232.187
216.735
202.461
189.379
177.483
166.749
157.139
148.6
141.072
134.486
128.767
123.839
119.624
116.048
113.036
110.518
108.429
106.709
105.304
104.164
103.247
102.515
101.934
101.477
101.12
100.844
100.631
100.469
100.346
100.253
100.184
100.133
100.095
100.068
100.048
100.034
100.024
100.016
100.011
100.008
100.005
100.003
100.002
100.002
100.001
100.001
100
100
100
100
100
100
100
100
100
100
100
100
100
100
100
100
100
100
100
100
100
389.172
367.606
346.311
325.46
305.213
285.715
267.092
249.45
232.873
217.421
203.131
190.021
178.088
167.31
157.652
149.063
141.485
134.849
129.083
124.111
119.857
116.244
113.199
110.653
108.54
106.8
105.377
104.223
103.294
102.551
101.963
101.499
101.137
100.857
100.641
100.476
100.351
100.257
100.187
100.135
100.097
100.069
100.049
100.034
100.024
100.017
100.011
100.008
100.005
100.004
100.002
100.002
100.001
100.001
100
100
100
100
100
100
100
100
100
100
100
100
100
100
100
100
100
100
100
100
100
389.222
367.754
346.552
325.785
305.609
286.169
267.59
249.977
233.414
217.962
203.662
190.532
178.571
167.76
158.065
149.437
141.819
135.144
129.34
124.333
120.047
116.405
113.334
110.765
108.632
106.875
105.438
104.271
103.332
102.582
101.986
101.518
101.151
100.868
100.649
100.482
100.356
100.261
100.19
100.137
100.098
100.07
100.05
100.035
100.024
100.017
100.012
100.008
100.005
100.004
100.002
100.002
100.001
100.001
100
100
100
100
100
100
100
100
100
100
100
100
100
100
100
100
100
100
100
100
100
389.26
367.869
346.739
326.036
305.917
286.522
267.978
250.388
233.838
218.388
204.081
190.937
178.955
168.118
158.394
149.736
142.087
135.381
129.548
124.513
120.201
116.535
113.444
110.856
108.707
106.936
105.487
104.311
103.364
102.607
102.006
101.533
101.163
100.877
100.656
100.487
100.36
100.264
100.192
100.139
100.099
100.071
100.05
100.035
100.025
100.017
100.012
100.008
100.005
100.004
100.002
100.002
100.001
100.001
100
100
100
100
100
100
100
100
100
100
100
100
100
100
100
100
100
100
100
100
100
389.29
367.958
346.883
326.23
306.154
286.796
268.279
250.709
234.168
218.721
204.41
191.255
179.257
168.401
158.655
149.974
142.3
135.571
129.714
124.658
120.325
116.641
113.533
110.93
108.768
106.986
105.528
104.344
103.39
102.627
102.022
101.545
101.173
100.884
100.662
100.492
100.363
100.266
100.193
100.14
100.1
100.071
100.051
100.036
100.025
100.017
100.012
100.008
100.005
100.004
100.002
100.002
100.001
100.001
100
100
100
100
100
100
100
100
100
100
100
100
100
100
100
100
100
100
100
100
100
389.313
368.025
346.993
326.379
306.337
287.007
268.512
250.956
234.425
218.981
204.666
191.503
179.494
168.624
158.861
150.162
142.469
135.721
129.847
124.773
120.424
116.725
113.604
110.99
108.818
107.026
105.56
104.37
103.411
102.644
102.035
101.555
101.181
100.89
100.666
100.495
100.365
100.268
100.195
100.141
100.101
100.072
100.051
100.036
100.025
100.017
100.012
100.008
100.006
100.004
100.002
100.002
100.001
100.001
100
100
100
100
100
100
100
100
100
100
100
100
100
100
100
100
100
100
100
100
100
389.331
368.077
347.077
326.494
306.478
287.169
268.691
251.148
234.623
219.181
204.865
191.697
179.679
168.798
159.022
150.309
142.603
135.84
129.951
124.864
120.502
116.792
113.66
111.037
108.857
107.059
105.587
104.391
103.428
102.657
102.045
101.564
101.187
100.895
100.67
100.498
100.367
100.269
100.196
100.142
100.102
100.072
100.051
100.036
100.025
100.017
100.012
100.008
100.006
100.004
100.003
100.002
100.001
100.001
100
100
100
100
100
100
100
100
100
100
100
100
100
100
100
100
100
100
100
100
100
389.344
368.117
347.142
326.581
306.585
287.293
268.828
251.294
234.775
219.336
205.018
191.846
179.822
168.933
159.148
150.424
142.706
135.933
130.033
124.936
120.564
116.845
113.705
111.075
108.888
107.084
105.608
104.408
103.441
102.668
102.054
101.57
101.192
100.899
100.673
100.5
100.369
100.271
100.197
100.142
100.102
100.073
100.052
100.036
100.025
100.017
100.012
100.008
100.006
100.004
100.003
100.002
100.001
100.001
100
100
100
100
100
100
100
100
100
100
100
100
100
100
100
100
100
100
100
100
100
389.354
368.147
347.191
326.647
306.666
287.388
268.933
251.406
234.891
219.454
205.136
191.961
179.932
169.037
159.244
150.513
142.787
136.005
130.097
124.991
120.613
116.887
113.74
111.104
108.912
107.104
105.624
104.421
103.452
102.676
102.061
101.575
101.196
100.902
100.675
100.502
100.37
100.272
100.198
100.143
100.103
100.073
100.052
100.036
100.025
100.018
100.012
100.008
100.006
100.004
100.003
100.002
100.001
100.001
100
100
100
100
100
100
100
100
100
100
100
100
100
100
100
100
100
100
100
100
100
389.362
368.169
347.227
326.697
306.728
287.459
269.012
251.49
234.98
219.543
205.225
192.048
180.016
169.116
159.319
150.581
142.849
136.061
130.147
125.035
120.65
116.919
113.768
111.127
108.932
107.12
105.637
104.432
103.46
102.683
102.066
101.58
101.199
100.904
100.677
100.503
100.372
100.272
100.198
100.143
100.103
100.073
100.052
100.036
100.025
100.018
100.012
100.008
100.006
100.004
100.003
100.002
100.001
100.001
100
100
100
100
100
100
100
100
100
100
100
100
100
100
100
100
100
100
100
100
100
389.367
368.186
347.255
326.734
306.774
287.513
269.071
251.554
235.046
219.611
205.293
192.115
180.08
169.177
159.375
150.633
142.897
136.103
130.185
125.068
120.679
116.944
113.789
111.145
108.946
107.132
105.647
104.44
103.467
102.688
102.07
101.583
101.202
100.906
100.678
100.504
100.372
100.273
100.199
100.144
100.103
100.073
100.052
100.037
100.025
100.018
100.012
100.008
100.006
100.004
100.003
100.002
100.001
100.001
100
100
100
100
100
100
100
100
100
100
100
100
100
100
100
100
100
100
100
100
100
389.372
368.199
347.276
326.762
306.809
287.553
269.116
251.602
235.096
219.663
205.344
192.165
180.129
169.223
159.418
150.673
142.933
136.136
130.213
125.093
120.701
116.963
113.805
111.159
108.958
107.142
105.655
104.446
103.472
102.692
102.073
101.585
101.204
100.908
100.68
100.505
100.373
100.273
100.199
100.144
100.103
100.074
100.052
100.037
100.026
100.018
100.012
100.008
100.006
100.004
100.003
100.002
100.001
100.001
100
100
100
100
100
100
100
100
100
100
100
100
100
100
100
100
100
100
100
100
100
389.375
368.208
347.291
326.783
306.834
287.583
269.149
251.638
235.134
219.701
205.382
192.202
180.165
169.257
159.451
150.703
142.96
136.16
130.235
125.113
120.718
116.977
113.817
111.169
108.967
107.149
105.661
104.451
103.476
102.695
102.076
101.587
101.205
100.909
100.68
100.506
100.374
100.274
100.199
100.144
100.103
100.074
100.052
100.037
100.026
100.018
100.012
100.008
100.006
100.004
100.003
100.002
100.001
100.001
100
100
100
100
100
100
100
100
100
100
100
100
100
100
100
100
100
100
100
100
100
389.377
368.215
347.302
326.799
306.854
287.605
269.174
251.665
235.162
219.729
205.411
192.23
180.192
169.283
159.475
150.725
142.98
136.179
130.252
125.127
120.731
116.988
113.827
111.177
108.973
107.154
105.665
104.455
103.479
102.698
102.077
101.589
101.206
100.91
100.681
100.506
100.374
100.274
100.2
100.144
100.104
100.074
100.052
100.037
100.026
100.018
100.012
100.008
100.006
100.004
100.003
100.002
100.001
100.001
100
100
100
100
100
100
100
100
100
100
100
100
100
100
100
100
100
100
100
100
100
389.379
368.22
347.311
326.81
306.868
287.621
269.192
251.684
235.182
219.75
205.432
192.251
180.212
169.302
159.493
150.742
142.996
136.193
130.264
125.138
120.74
116.996
113.834
111.183
108.978
107.159
105.668
104.457
103.481
102.699
102.079
101.59
101.207
100.91
100.682
100.507
100.374
100.274
100.2
100.144
100.104
100.074
100.052
100.037
100.026
100.018
100.012
100.008
100.006
100.004
100.003
100.002
100.001
100.001
100
100
100
100
100
100
100
100
100
100
100
100
100
100
100
100
100
100
100
100
100
389.38
368.224
347.317
326.818
306.878
287.633
269.205
251.698
235.197
219.766
205.447
192.266
180.227
169.316
159.506
150.754
143.007
136.203
130.273
125.146
120.747
117.002
113.839
111.187
108.982
107.162
105.671
104.46
103.483
102.701
102.08
101.591
101.208
100.911
100.682
100.507
100.374
100.274
100.2
100.144
100.104
100.074
100.052
100.037
100.026
100.018
100.012
100.008
100.006
100.004
100.003
100.002
100.001
100.001
100
100
100
100
100
100
100
100
100
100
100
100
100
100
100
100
100
100
100
100
100
389.381
368.227
347.321
326.824
306.885
287.642
269.215
251.709
235.208
219.777
205.459
192.277
180.238
169.327
159.516
150.763
143.015
136.21
130.28
125.152
120.752
117.007
113.843
111.19
108.985
107.164
105.673
104.461
103.484
102.702
102.081
101.591
101.208
100.911
100.682
100.507
100.375
100.275
100.2
100.145
100.104
100.074
100.052
100.037
100.026
100.018
100.012
100.008
100.006
100.004
100.003
100.002
100.001
100.001
100
100
100
100
100
100
100
100
100
100
100
100
100
100
100
100
100
100
100
100
100
389.382
368.229
347.325
326.829
306.891
287.648
269.222
251.716
235.216
219.785
205.467
192.285
180.245
169.334
159.523
150.77
143.021
136.216
130.285
125.156
120.756
117.01
113.845
111.193
108.987
107.166
105.674
104.462
103.485
102.703
102.081
101.592
101.209
100.911
100.683
100.507
100.375
100.275
100.2
100.145
100.104
100.074
100.052
100.037
100.026
100.018
100.012
100.008
100.006
100.004
100.003
100.002
100.001
100.001
100
100
100
100
100
100
100
100
100
100
100
100
100
100
100
100
100
100
100
100
100
389.382
368.23
347.327
326.832
306.894
287.652
269.227
251.722
235.222
219.791
205.473
192.291
180.251
169.34
159.528
150.775
143.026
136.22
130.288
125.16
120.759
117.012
113.848
111.195
108.988
107.167
105.675
104.463
103.485
102.703
102.082
101.592
101.209
100.912
100.683
100.508
100.375
100.275
100.2
100.145
100.104
100.074
100.052
100.037
100.026
100.018
100.012
100.008
100.006
100.004
100.003
100.002
100.001
100.001
100
100
100
100
100
100
100
100
100
100
100
100
100
100
100
100
100
100
100
100
100
389.383
368.231
347.328
326.834
306.897
287.656
269.231
251.726
235.226
219.795
205.477
192.295
180.255
169.344
159.532
150.778
143.029
136.223
130.291
125.162
120.761
117.014
113.849
111.196
108.989
107.168
105.676
104.464
103.486
102.703
102.082
101.592
101.209
100.912
100.683
100.508
100.375
100.275
100.2
100.145
100.104
100.074
100.052
100.037
100.026
100.018
100.012
100.008
100.006
100.004
100.003
100.002
100.001
100.001
100
100
100
100
100
100
100
100
100
100
100
100
100
100
100
100
100
100
100
100
100
389.383
368.232
347.33
326.835
306.899
287.658
269.233
251.729
235.229
219.798
205.48
192.298
180.258
169.346
159.534
150.78
143.031
136.225
130.293
125.163
120.762
117.015
113.85
111.197
108.99
107.168
105.677
104.464
103.486
102.704
102.082
101.592
101.209
100.912
100.683
100.508
100.375
100.275
100.2
100.145
100.104
100.074
100.052
100.037
100.026
100.018
100.012
100.008
100.006
100.004
100.003
100.002
100.001
100.001
100
100
100
100
100
100
100
100
100
100
100
100
100
100
100
100
100
100
100
100
100
389.383
368.232
347.33
326.837
306.901
287.66
269.235
251.731
235.231
219.8
205.482
192.301
180.26
169.348
159.536
150.782
143.033
136.226
130.294
125.165
120.763
117.016
113.851
111.197
108.99
107.169
105.677
104.464
103.487
102.704
102.082
101.593
101.209
100.912
100.683
100.508
100.375
100.275
100.2
100.145
100.104
100.074
100.052
100.037
100.026
100.018
100.012
100.008
100.006
100.004
100.003
100.002
100.001
100.001
100
100
100
100
100
100
100
100
100
100
100
100
100
100
100
100
100
100
100
100
100
389.383
368.233
347.331
326.837
306.902
287.661
269.236
251.732
235.232
219.802
205.484
192.302
180.262
169.35
159.538
150.783
143.034
136.227
130.295
125.165
120.764
117.017
113.851
111.198
108.991
107.169
105.677
104.465
103.487
102.704
102.083
101.593
101.209
100.912
100.683
100.508
100.375
100.275
100.2
100.145
100.104
100.074
100.052
100.037
100.026
100.018
100.012
100.008
100.006
100.004
100.003
100.002
100.001
100.001
100
100
100
100
100
100
100
100
100
100
100
100
100
100
100
100
100
100
100
100
100
389.383
368.233
347.331
326.838
306.902
287.661
269.237
251.733
235.233
219.803
205.485
192.303
180.263
169.351
159.539
150.784
143.035
136.228
130.296
125.166
120.765
117.017
113.852
111.198
108.991
107.169
105.677
104.465
103.487
102.704
102.083
101.593
101.21
100.912
100.683
100.508
100.375
100.275
100.2
100.145
100.104
100.074
100.052
100.037
100.026
100.018
100.012
100.008
100.006
100.004
100.003
100.002
100.001
100.001
100
100
100
100
100
100
100
100
100
100
100
100
100
100
100
100
100
100
100
100
100
389.383
368.233
347.332
326.838
306.903
287.662
269.238
251.734
235.234
219.803
205.485
192.304
180.263
169.351
159.539
150.785
143.035
136.228
130.296
125.166
120.765
117.018
113.852
111.199
108.991
107.17
105.678
104.465
103.487
102.704
102.083
101.593
101.21
100.912
100.683
100.508
100.375
100.275
100.2
100.145
100.104
100.074
100.052
100.037
100.026
100.018
100.012
100.008
100.006
100.004
100.003
100.002
100.001
100.001
100
100
100
100
100
100
100
100
100
100
100
100
100
100
100
100
100
100
100
100
100
389.383
368.233
347.332
326.839
306.903
287.662
269.238
251.734
235.234
219.804
205.486
192.304
180.264
169.352
159.54
150.785
143.036
136.229
130.297
125.167
120.765
117.018
113.852
111.199
108.991
107.17
105.678
104.465
103.487
102.704
102.083
101.593
101.21
100.912
100.683
100.508
100.375
100.275
100.2
100.145
100.104
100.074
100.052
100.037
100.026
100.018
100.012
100.008
100.006
100.004
100.003
100.002
100.001
100.001
100
100
100
100
100
100
100
100
100
100
100
100
100
100
100
100
100
100
100
100
100
389.383
368.233
347.332
326.839
306.903
287.663
269.238
251.734
235.235
219.804
205.486
192.305
180.264
169.352
159.54
150.786
143.036
136.229
130.297
125.167
120.765
117.018
113.852
111.199
108.992
107.17
105.678
104.465
103.487
102.704
102.083
101.593
101.21
100.912
100.683
100.508
100.375
100.275
100.2
100.145
100.104
100.074
100.052
100.037
100.026
100.018
100.012
100.008
100.006
100.004
100.003
100.002
100.001
100.001
100
100
100
100
100
100
100
100
100
100
100
100
100
100
100
100
100
100
100
100
100
389.383
368.233
347.332
326.839
306.903
287.663
269.239
251.734
235.235
219.804
205.486
192.305
180.264
169.352
159.54
150.786
143.036
136.229
130.297
125.167
120.766
117.018
113.852
111.199
108.992
107.17
105.678
104.465
103.487
102.704
102.083
101.593
101.21
100.912
100.683
100.508
100.375
100.275
100.2
100.145
100.104
100.074
100.052
100.037
100.026
100.018
100.012
100.008
100.006
100.004
100.003
100.002
100.001
100.001
100
100
100
100
100
100
100
100
100
100
100
100
100
100
100
100
100
100
100
100
100
389.383
368.233
347.332
326.839
306.903
287.663
269.239
251.735
235.235
219.805
205.487
192.305
180.265
169.352
159.54
150.786
143.036
136.229
130.297
125.167
120.766
117.018
113.853
111.199
108.992
107.17
105.678
104.465
103.487
102.704
102.083
101.593
101.21
100.912
100.683
100.508
100.375
100.275
100.2
100.145
100.104
100.074
100.052
100.037
100.026
100.018
100.012
100.008
100.006
100.004
100.003
100.002
100.001
100.001
100
100
100
100
100
100
100
100
100
100
100
100
100
100
100
100
100
100
100
100
100
389.383
368.233
347.332
326.839
306.904
287.663
269.239
251.735
235.235
219.805
205.487
192.305
180.265
169.353
159.54
150.786
143.036
136.229
130.297
125.167
120.766
117.018
113.853
111.199
108.992
107.17
105.678
104.465
103.487
102.704
102.083
101.593
101.21
100.912
100.683
100.508
100.375
100.275
100.2
100.145
100.104
100.074
100.052
100.037
100.026
100.018
100.012
100.008
100.006
100.004
100.003
100.002
100.001
100.001
100
100
100
100
100
100
100
100
100
100
100
100
100
100
100
100
100
100
100
100
100
389.383
368.233
347.332
326.839
306.904
287.663
269.239
251.735
235.235
219.805
205.487
192.305
180.265
169.353
159.54
150.786
143.036
136.229
130.297
125.167
120.766
117.018
113.853
111.199
108.992
107.17
105.678
104.465
103.487
102.704
102.083
101.593
101.21
100.912
100.683
100.508
100.375
100.275
100.2
100.145
100.104
100.074
100.052
100.037
100.026
100.018
100.012
100.008
100.006
100.004
100.003
100.002
100.001
100.001
100
100
100
100
100
100
100
100
100
100
100
100
100
100
100
100
100
100
100
100
100
389.383
368.233
347.332
326.839
306.904
287.663
269.239
251.735
235.235
219.805
205.487
192.305
180.265
169.353
159.54
150.786
143.036
136.229
130.297
125.167
120.766
117.018
113.853
111.199
108.992
107.17
105.678
104.465
103.487
102.704
102.083
101.593
101.21
100.912
100.683
100.508
100.375
100.275
100.2
100.145
100.104
100.074
100.052
100.037
100.026
100.018
100.012
100.008
100.006
100.004
100.003
100.002
100.001
100.001
100
100
100
100
100
100
100
100
100
100
100
100
100
100
100
100
100
100
100
100
100
389.383
368.233
347.332
326.839
306.904
287.663
269.239
251.735
235.235
219.805
205.487
192.305
180.265
169.353
159.54
150.786
143.036
136.229
130.297
125.167
120.766
117.018
113.853
111.199
108.992
107.17
105.678
104.465
103.487
102.704
102.083
101.593
101.21
100.912
100.683
100.508
100.375
100.275
100.2
100.145
100.104
100.074
100.052
100.037
100.026
100.018
100.012
100.008
100.006
100.004
100.003
100.002
100.001
100.001
100
100
100
100
100
100
100
100
100
100
100
100
100
100
100
100
100
100
100
100
100
389.383
368.233
347.332
326.839
306.904
287.663
269.239
251.735
235.235
219.805
205.487
192.305
180.265
169.353
159.54
150.786
143.036
136.229
130.297
125.167
120.766
117.018
113.853
111.199
108.992
107.17
105.678
104.465
103.487
102.704
102.083
101.593
101.21
100.912
100.683
100.508
100.375
100.275
100.2
100.145
100.104
100.074
100.052
100.037
100.026
100.018
100.012
100.008
100.006
100.004
100.003
100.002
100.001
100.001
100
100
100
100
100
100
100
100
100
100
100
100
100
100
100
100
100
100
100
100
100
389.383
368.233
347.332
326.839
306.904
287.663
269.239
251.735
235.235
219.805
205.487
192.305
180.265
169.353
159.541
150.786
143.036
136.229
130.297
125.167
120.766
117.018
113.853
111.199
108.992
107.17
105.678
104.465
103.487
102.704
102.083
101.593
101.21
100.912
100.683
100.508
100.375
100.275
100.2
100.145
100.104
100.074
100.052
100.037
100.026
100.018
100.012
100.008
100.006
100.004
100.003
100.002
100.001
100.001
100
100
100
100
100
100
100
100
100
100
100
100
100
100
100
100
100
100
100
100
100
389.383
368.233
347.332
326.839
306.904
287.663
269.239
251.735
235.235
219.805
205.487
192.305
180.265
169.353
159.541
150.786
143.036
136.229
130.297
125.167
120.766
117.018
113.853
111.199
108.992
107.17
105.678
104.465
103.487
102.704
102.083
101.593
101.21
100.912
100.683
100.508
100.375
100.275
100.2
100.145
100.104
100.074
100.052
100.037
100.026
100.018
100.012
100.008
100.006
100.004
100.003
100.002
100.001
100.001
100
100
100
100
100
100
100
100
100
100
100
100
100
100
100
100
100
100
100
100
100
389.383
368.233
347.332
326.839
306.904
287.663
269.239
251.735
235.235
219.805
205.487
192.305
180.265
169.353
159.541
150.786
143.036
136.229
130.297
125.167
120.766
117.018
113.853
111.199
108.992
107.17
105.678
104.465
103.487
102.704
102.083
101.593
101.21
100.912
100.683
100.508
100.375
100.275
100.2
100.145
100.104
100.074
100.052
100.037
100.026
100.018
100.012
100.008
100.006
100.004
100.003
100.002
100.001
100.001
100
100
100
100
100
100
100
100
100
100
100
100
100
100
100
100
100
100
100
100
100
389.383
368.233
347.332
326.839
306.904
287.663
269.239
251.735
235.235
219.805
205.487
192.305
180.265
169.353
159.541
150.786
143.036
136.229
130.297
125.167
120.766
117.018
113.853
111.199
108.992
107.17
105.678
104.465
103.487
102.704
102.083
101.593
101.21
100.912
100.683
100.508
100.375
100.275
100.2
100.145
100.104
100.074
100.052
100.037
100.026
100.018
100.012
100.008
100.006
100.004
100.003
100.002
100.001
100.001
100
100
100
100
100
100
100
100
100
100
100
100
100
100
100
100
100
100
100
100
100
389.383
368.233
347.332
326.839
306.904
287.663
269.239
251.735
235.235
219.805
205.487
192.305
180.265
169.353
159.541
150.786
143.036
136.229
130.297
125.167
120.766
117.018
113.853
111.199
108.992
107.17
105.678
104.465
103.487
102.704
102.083
101.593
101.21
100.912
100.683
100.508
100.375
100.275
100.2
100.145
100.104
100.074
100.052
100.037
100.026
100.018
100.012
100.008
100.006
100.004
100.003
100.002
100.001
100.001
100
100
100
100
100
100
100
100
100
100
100
100
100
100
100
100
100
100
100
100
100
389.383
368.233
347.332
326.839
306.904
287.663
269.239
251.735
235.235
219.805
205.487
192.305
180.265
169.353
159.541
150.786
143.036
136.229
130.297
125.167
120.766
117.018
113.853
111.199
108.992
107.17
105.678
104.465
103.487
102.704
102.083
101.593
101.21
100.912
100.683
100.508
100.375
100.275
100.2