/*--------------------------------*- C++ -*----------------------------------*\
  =========                 |
  \\      /  F ield         | OpenFOAM: The Open Source CFD Toolbox
   \\    /   O peration     | Website:  https://openfoam.org
    \\  /    A nd           | Version:  10
     \\/     M anipulation  |
\*---------------------------------------------------------------------------*/
FoamFile
{
    format      ascii;
    class       volScalarField;
    location    "42";
    object      gradTx;
}
// * * * * * * * * * * * * * * * * * * * * * * * * * * * * * * * * * * * * * //

dimensions      [0 -1 0 1 0 0 0];

internalField   nonuniform List<scalar> 
11250
(
14132.9
7618.41
4548.65
2852.6
1813.78
1144.65
708.033
426.073
248.318
139.782
75.8812
39.6918
19.9991
9.70673
4.53941
2.04631
0.889656
0.373259
0.151223
0.0592012
0.02241
0.00820801
0.00291071
0.000999985
0.00033303
0.000107576
3.37228e-05
1.02644e-05
3.03501e-06
8.7217e-07
2.43674e-07
6.62346e-08
1.74993e-08
4.48267e-09
1.10859e-09
2.55745e-10
5.04904e-11
-1.09762e-12
1.09762e-12
-4.39047e-12
-9.87856e-12
6.58571e-12
1.09762e-12
-5.48809e-12
-5.48809e-12
1.09762e-12
0
-4.39047e-12
2.19524e-12
0
1.09762e-12
0
1.4269e-11
0
1.09762e-12
0
1.09762e-12
-2.19524e-12
0
2.19524e-12
0
1.09762e-12
0
-2.19524e-11
9.87856e-12
-1.09762e-12
-1.09762e-12
0
1.09762e-12
0
-5.48809e-12
0
-7.68332e-12
0
-9.87856e-12
3933.75
4231.55
3261.36
2297.94
1549.97
1010.63
637.443
388.393
228.261
129.253
70.469
36.9811
18.6805
9.0849
4.25551
1.9209
0.836069
0.351111
0.142367
0.0557747
0.0211265
0.00774238
0.00274704
0.000944218
0.000314601
0.000101667
3.18837e-05
9.70857e-06
2.87179e-06
8.25594e-07
2.30757e-07
6.27332e-08
1.65828e-08
4.25437e-09
1.06359e-09
2.64526e-10
5.26856e-11
1.09762e-12
-1.09762e-12
0
0
-4.39047e-12
-1.09762e-12
-1.09762e-12
0
0
-1.09762e-12
0
-2.19523e-12
0
-1.75619e-11
0
-1.4269e-11
8.78094e-12
-1.31714e-11
-6.5857e-12
-1.4269e-11
0
-4.39047e-12
0
0
-1.09762e-12
0
2.41476e-11
5.48809e-12
0
-1.09762e-12
1.09762e-12
-1.09762e-12
0
-8.78094e-12
0
8.78094e-12
2.19523e-12
0
1323.58
2167.58
2049.22
1625.02
1177.88
803.795
522.376
324.835
193.67
110.818
60.8928
32.1481
16.3158
7.96484
3.74232
1.69355
0.73869
0.310782
0.126213
0.0495144
0.0187782
0.00688937
0.00244684
0.000841814
0.000280725
9.07935e-05
2.84959e-05
8.68348e-06
2.57046e-06
7.3951e-07
2.06864e-07
5.62672e-08
1.48991e-08
3.88118e-09
9.96637e-10
2.5355e-10
4.60999e-11
5.48809e-12
-2.19524e-12
2.19524e-12
9.87856e-12
-2.19524e-12
0
7.68332e-12
5.48809e-12
7.68332e-12
1.09762e-12
5.48809e-12
0
0
1.09762e-12
-1.09762e-12
4.39047e-12
8.78094e-12
0
-2.19523e-12
0
4.39047e-12
0
-2.19524e-12
0
0
0
-1.4269e-11
-1.09762e-11
2.19524e-12
3.29285e-12
2.19523e-12
0
0
3.29285e-12
8.78094e-12
0
-1.09762e-12
8.78094e-12
533.968
1115.25
1216.48
1062.34
822.855
588.136
394.99
251.53
152.621
88.4932
49.1233
26.1422
13.3524
6.55191
3.09155
1.40402
0.614245
0.259092
0.105457
0.0414529
0.0157485
0.00578699
0.00205829
0.000709085
0.000236759
7.66646e-05
2.40887e-05
7.34849e-06
2.17757e-06
6.27119e-07
1.75611e-07
4.78353e-08
1.2695e-08
3.30602e-09
8.59435e-10
2.22816e-10
7.13451e-11
8.78094e-12
2.19524e-12
0
0
0
1.09762e-12
0
0
0
0
1.09762e-12
0
0
1.53666e-11
0
1.09762e-12
-8.78094e-12
1.31714e-11
5.48809e-12
1.4269e-11
-4.39047e-12
5.48809e-12
6.58571e-12
0
-2.19523e-12
0
-1.09762e-12
-4.39047e-12
3.29285e-12
0
1.09762e-12
0
2.19524e-12
5.48809e-12
0
-1.09762e-12
-1.09762e-12
-5.48809e-12
245.8
584.943
701.767
659.347
539.822
402.31
278.867
181.911
112.445
66.1487
37.1423
19.9483
10.265
5.06793
2.40359
1.0963
0.481392
0.203702
0.0831429
0.0327626
0.0124745
0.00459312
0.00163667
0.000564803
0.000188888
6.12571e-05
1.92757e-05
5.88855e-06
1.74734e-06
5.03898e-07
1.41304e-07
3.85681e-08
1.02528e-08
2.63099e-09
6.62961e-10
1.55862e-10
3.7319e-11
-5.48809e-12
1.09762e-12
2.19523e-12
5.48809e-12
-1.09762e-12
8.78094e-12
0
-2.19523e-12
-1.09762e-11
-4.39047e-12
-2.19523e-12
1.09762e-12
3.29285e-12
8.78094e-12
1.09762e-12
-5.48809e-12
-9.87856e-12
0
5.48809e-12
1.09762e-12
-8.78094e-12
-5.48809e-12
0
0
0
0
1.86595e-11
0
-1.09762e-12
-1.09762e-12
-3.29285e-12
0
-1.09762e-12
-9.87856e-12
-1.20738e-11
-7.68332e-12
-1.09762e-12
-1.09762e-12
122.039
310.872
396.904
393.524
336.785
260.11
185.504
123.784
77.9149
46.5092
26.426
14.3313
7.43405
3.69501
1.76242
0.807764
0.35618
0.151269
0.0619407
0.024478
0.00934425
0.00344871
0.00123157
0.000425876
0.000142701
4.6364e-05
1.46153e-05
4.47251e-06
1.32939e-06
3.83983e-07
1.07845e-07
2.94436e-08
7.8304e-09
2.01632e-09
4.80756e-10
1.07567e-10
1.53666e-11
5.48809e-12
1.09762e-11
1.20738e-11
0
0
-9.87856e-12
-1.09762e-12
1.09762e-12
1.09762e-12
0
1.09762e-12
-2.19524e-12
-2.19523e-12
-6.58571e-12
-1.09762e-12
0
-3.29285e-12
-1.09762e-12
0
-1.09762e-12
2.19524e-12
1.09762e-12
-6.58571e-12
1.09762e-12
2.19523e-12
1.09762e-12
0
-1.09762e-12
-4.39047e-12
0
0
0
-2.19524e-12
4.39047e-12
1.09762e-12
-4.39047e-12
0
0
62.6866
165.607
220.26
227.117
201.24
160.091
117.031
79.7091
51.029
30.8905
17.7574
9.72454
5.08604
2.54567
1.22149
0.562743
0.249259
0.10628
0.0436731
0.0173138
0.00662852
0.00245292
0.000878135
0.000304365
0.000102212
3.32795e-05
1.05123e-05
3.22341e-06
9.60006e-07
2.7782e-07
7.81635e-08
2.13618e-08
5.67139e-09
1.46751e-09
3.4575e-10
8.56142e-11
1.53666e-11
1.4269e-11
0
0
-9.87856e-12
2.19524e-12
-8.78094e-12
-9.87856e-12
-4.39047e-12
2.19524e-12
5.48809e-12
1.09762e-12
-1.09762e-12
-4.39047e-12
-9.87856e-12
0
0
-1.09762e-12
0
-9.87856e-12
-1.09762e-12
-7.68332e-12
4.39047e-12
-4.39047e-12
0
-2.19523e-12
1.09762e-12
-5.48809e-12
2.19523e-12
2.19524e-12
0
0
-1.20738e-11
1.09762e-12
1.31714e-11
2.19524e-12
0
-7.68332e-12
0
32.4606
87.553
119.682
126.998
115.613
94.2258
70.3478
48.7865
31.7166
19.4521
11.3069
6.25096
3.29597
1.66129
0.801996
0.371448
0.1653
0.0707756
0.0291924
0.0116124
0.00445962
0.00165508
0.000594117
0.000206452
6.95013e-05
2.26829e-05
7.18159e-06
2.20712e-06
6.58797e-07
1.91094e-07
5.38897e-08
1.47959e-08
3.95142e-09
1.012e-09
2.50257e-10
4.17095e-11
-5.48809e-12
-5.48809e-12
-1.09762e-11
-1.20738e-11
-1.09762e-12
0
9.87856e-12
0
-5.48809e-12
-9.87856e-12
0
-1.09762e-12
1.09762e-12
-3.29285e-12
5.48809e-12
0
0
4.39047e-12
1.09762e-12
4.39047e-12
2.305e-11
3.29285e-12
-3.29285e-12
0
0
0
-3.29285e-12
0
0
0
7.68332e-12
-1.09762e-12
0
1.09762e-12
-1.09762e-12
0
6.5857e-12
0
4.39047e-12
16.6862
45.5815
63.4972
68.8237
63.9891
53.1893
40.4222
28.4766
18.7688
11.6492
6.8418
3.81661
2.02821
1.02931
0.499907
0.23277
0.104079
0.0447532
0.0185305
0.00739734
0.00285018
0.00106101
0.000381969
0.000133098
4.49261e-05
1.47002e-05
4.66597e-06
1.43757e-06
4.30174e-07
1.25099e-07
3.53641e-08
9.71721e-09
2.59587e-09
6.64059e-10
1.59155e-10
2.305e-11
5.48809e-12
5.48809e-12
0
-5.48809e-12
5.48809e-12
-1.09762e-12
-3.29285e-12
9.87856e-12
0
0
-3.29285e-12
0
0
-1.20738e-11
-2.19524e-12
0
-1.09762e-12
-3.29285e-12
0
8.78094e-12
1.4269e-11
1.4269e-11
-4.39047e-12
4.39047e-12
-1.09762e-12
2.19523e-12
8.78094e-12
0
-1.09762e-12
0
1.4269e-11
2.19523e-12
1.31714e-11
-1.09762e-12
2.19523e-12
5.48809e-12
6.58571e-12
8.78094e-12
2.19524e-12
8.4362
23.2377
32.8092
36.133
34.1558
28.8503
22.255
15.8922
10.6023
6.65173
3.94404
2.21869
1.18784
0.606806
0.296438
0.138754
0.0623347
0.0269185
0.0111896
0.00448302
0.00173313
0.000647227
0.000233709
8.16733e-05
2.76456e-05
9.07079e-06
2.88691e-06
8.91822e-07
2.67578e-07
7.80296e-08
2.21115e-08
6.07751e-09
1.60033e-09
3.95142e-10
1.03176e-10
3.07333e-11
2.08547e-11
8.78094e-12
-1.09762e-12
-6.58571e-12
-5.48809e-12
-2.19524e-12
1.09762e-12
0
5.48809e-12
8.78094e-12
-1.09762e-12
-4.39047e-12
1.09762e-12
4.39047e-12
-2.19524e-12
-1.09762e-12
0
0
0
-5.48809e-12
-1.97571e-11
-1.09762e-12
2.19523e-12
-1.09762e-12
-1.09762e-12
0
1.09762e-12
-1.09762e-12
-1.09762e-12
-1.09762e-12
-6.58571e-12
0
-1.09762e-12
0
1.09762e-12
0
-6.58571e-12
0
1.09762e-12
4.1708
11.5551
16.4761
18.3678
17.5922
15.0559
11.7607
8.49678
5.72929
3.62932
2.17069
1.23063
0.663458
0.341051
0.167551
0.0788258
0.0355762
0.0154284
0.00643842
0.00258891
0.00100429
0.000376265
0.000136289
4.77714e-05
1.62175e-05
5.33639e-06
1.7032e-06
5.27616e-07
1.58737e-07
4.64139e-08
1.3201e-08
3.67263e-09
9.86758e-10
2.51354e-10
7.90285e-11
3.40261e-11
1.4269e-11
-6.5857e-12
-7.68332e-12
5.48809e-12
1.75619e-11
0
3.29285e-12
1.09762e-12
6.5857e-12
0
3.29285e-12
-5.48809e-12
-1.09762e-12
1.20738e-11
2.19523e-12
0
2.19523e-12
4.39047e-12
2.19523e-12
1.09762e-12
-1.4269e-11
0
4.39047e-12
-1.09762e-12
3.29285e-12
1.4269e-11
-8.78094e-12
0
0
-9.87856e-12
-3.7319e-11
-1.09762e-12
0
0
-3.29285e-12
-5.48809e-12
0
-2.19523e-12
-3.29285e-12
2.00902
5.58936
8.0291
9.03629
8.74632
7.56665
5.97342
4.35921
2.967
1.89575
1.14279
0.652527
0.354078
0.183089
0.0904306
0.0427525
0.0193822
0.00844041
0.00353589
0.00142694
0.000555438
0.000208779
7.58613e-05
2.66718e-05
9.08164e-06
2.99712e-06
9.59375e-07
2.98053e-07
8.99289e-08
2.63725e-08
7.53185e-09
2.10523e-09
6.0808e-10
1.78912e-10
4.17095e-11
1.31714e-11
8.78094e-12
1.97571e-11
1.09762e-12
6.58571e-12
7.68332e-12
2.19524e-12
4.39047e-12
7.68332e-12
0
1.09762e-12
0
1.20738e-11
1.09762e-12
2.19523e-12
4.39047e-12
4.39047e-12
0
1.09762e-12
-1.09762e-12
-1.09762e-12
-3.29285e-12
0
-1.09762e-12
2.19524e-12
0
-1.09762e-12
5.48809e-12
0
-1.09762e-11
-5.48809e-12
-2.19524e-12
-1.09762e-12
0
1.09762e-12
0
0
4.39047e-12
0
1.09762e-12
0.940641
2.62528
3.79289
4.30088
4.19859
3.66501
2.91935
2.149
1.47474
0.949533
0.576475
0.331326
0.18087
0.0940427
0.0466853
0.0221746
0.0100966
0.00441454
0.00185634
0.000751817
0.000293638
0.000110732
4.03619e-05
1.42342e-05
4.86127e-06
1.60906e-06
5.16578e-07
1.60958e-07
4.86903e-08
1.43042e-08
4.1018e-09
1.14591e-09
3.11723e-10
8.78094e-11
6.5857e-12
-1.09762e-12
2.96357e-11
4.06118e-11
1.97571e-11
0
-2.305e-11
0
-1.09762e-12
-3.29285e-12
-1.09762e-12
0
-1.09762e-12
4.39047e-12
0
1.09762e-12
0
1.09762e-12
0
0
-1.09762e-12
0
1.09762e-12
-8.78094e-12
-7.68332e-12
-3.29285e-12
-1.09762e-12
-1.4269e-11
1.09762e-12
-1.20738e-11
-1.09762e-12
1.09762e-11
2.305e-11
-2.19523e-12
0
0
-1.09762e-12
-4.39047e-12
-8.78094e-12
1.09762e-12
6.58571e-12
0.42746
1.19595
1.7357
1.98012
1.94663
1.71206
1.37419
1.0192
0.704495
0.456718
0.279067
0.161356
0.0885746
0.046292
0.0230907
0.0110165
0.00503691
0.00221085
0.000933085
0.000379213
0.000148602
5.62179e-05
2.0555e-05
7.27097e-06
2.49055e-06
8.26784e-07
2.66204e-07
8.31807e-08
2.52276e-08
7.41989e-09
2.12938e-09
6.05885e-10
1.45983e-10
2.305e-11
-9.87856e-12
-1.09762e-12
1.4269e-11
1.97571e-11
8.78094e-12
0
-2.19523e-12
-1.09762e-11
-6.5857e-12
-7.68332e-12
-5.48809e-12
-6.5857e-12
-1.09762e-12
-6.5857e-12
0
-1.09762e-12
0
-2.19523e-12
-1.09762e-12
1.09762e-12
0
0
4.39047e-12
0
1.09762e-12
0
-1.09762e-12
-1.09762e-12
-6.5857e-12
0
1.20738e-11
8.78094e-12
2.19523e-12
0
-1.09762e-12
-2.19523e-12
-6.5857e-12
4.39047e-12
0
0
0
0.188371
0.52806
0.76918
0.881847
0.872011
0.771814
0.623576
0.465531
0.323848
0.211239
0.129826
0.0754775
0.0416462
0.0218706
0.0109584
0.00525028
0.00241002
0.00106178
0.000449706
0.000183379
7.20924e-05
2.73583e-05
1.00332e-05
3.55954e-06
1.22278e-06
4.07067e-07
1.31419e-07
4.11672e-08
1.25194e-08
3.69678e-09
1.06249e-09
2.96357e-10
7.02475e-11
7.68332e-12
0
-6.58571e-12
-2.96357e-11
-7.68332e-12
-1.97571e-11
0
5.48809e-12
1.09762e-12
-1.31714e-11
2.19523e-12
0
-5.48809e-12
4.39047e-12
0
-5.48809e-12
-1.09762e-12
0
-3.29285e-12
-8.78094e-12
0
-1.4269e-11
-1.09762e-12
0
7.68332e-12
8.78094e-12
6.58571e-12
1.09762e-12
-4.39047e-12
0
1.31714e-11
9.87856e-12
0
-1.09762e-12
2.19523e-12
-4.39047e-12
0
-7.68332e-12
3.29285e-12
8.78094e-12
9.87856e-12
-3.29285e-12
0.0804592
0.22591
0.33005
0.379954
0.377567
0.336
0.273013
0.204993
0.143415
0.0940638
0.0581174
0.0339584
0.0188266
0.00993139
0.00499728
0.00240381
0.00110757
0.000489703
0.000208112
8.51372e-05
3.35741e-05
1.27791e-05
4.70015e-06
1.67222e-06
5.76047e-07
1.9228e-07
6.22294e-08
1.95354e-08
5.95787e-09
1.76168e-09
5.14783e-10
1.32812e-10
2.85381e-11
-7.68332e-12
5.48809e-12
4.39047e-12
-1.09762e-11
-2.41476e-11
-8.78094e-12
-1.09762e-12
0
9.87856e-12
1.09762e-12
0
5.48809e-12
5.48809e-12
1.09762e-12
2.19524e-12
-1.09762e-12
0
1.09762e-12
-1.09762e-12
0
-2.19524e-12
0
-4.39047e-12
-4.39047e-12
0
8.78094e-12
-1.09762e-12
0
1.09762e-12
0
-2.19524e-12
5.48809e-12
-4.39047e-12
-1.09762e-12
-1.09762e-12
0
1.09762e-12
-4.39047e-12
-7.68332e-12
-2.19524e-12
2.19523e-12
5.48809e-12
0.0333046
0.0936349
0.137141
0.158425
0.158091
0.141346
0.115421
0.0871054
0.0612502
0.0403737
0.0250656
0.0147141
0.0081937
0.00434053
0.00219279
0.00105877
0.000489583
0.000217199
9.26025e-05
3.79999e-05
1.50297e-05
5.73693e-06
2.11586e-06
7.54806e-07
2.60686e-07
8.72331e-08
2.83119e-08
8.91265e-09
2.70672e-09
8.05651e-10
2.06352e-10
3.07333e-11
6.5857e-12
0
1.64643e-11
7.68332e-12
-4.39047e-12
-2.305e-11
9.87856e-12
-4.39047e-12
1.09762e-12
-1.09762e-11
1.4269e-11
5.48809e-12
-1.53666e-11
6.5857e-12
-5.48809e-12
0
7.68332e-12
0
-1.09762e-12
4.39047e-12
8.78094e-12
0
1.4269e-11
2.19523e-12
1.09762e-12
3.29285e-12
0
-2.19523e-12
-2.19523e-12
5.48809e-12
1.09762e-12
0
-9.87856e-12
-1.09762e-12
0
-3.29285e-12
4.39047e-12
-1.09762e-12
-3.29285e-12
5.48809e-12
-3.29285e-12
-9.87856e-12
-1.09762e-12
0.0133603
0.0376041
0.055193
0.0639482
0.0640448
0.0574958
0.0471561
0.0357495
0.0252534
0.0167217
0.0104277
0.00614762
0.00343753
0.00182819
0.000927062
0.000449226
0.000208431
9.27667e-05
3.96721e-05
1.63272e-05
6.47569e-06
2.47842e-06
9.16441e-07
3.27735e-07
1.13448e-07
3.80423e-08
1.23658e-08
3.89105e-09
1.18104e-09
3.55628e-10
7.13451e-11
0
-3.29285e-12
1.20738e-11
6.5857e-12
-6.58571e-12
-7.68332e-12
-1.20738e-11
-1.09762e-12
1.09762e-12
0
1.09762e-12
0
0
-1.53666e-11
-2.19524e-12
0
-3.29285e-12
1.09762e-12
0
0
0
0
-1.09762e-12
-2.19524e-12
5.48809e-12
-1.09762e-12
-2.19524e-12
-9.87856e-12
0
0
-4.39047e-12
0
2.19524e-12
-4.39047e-12
1.09762e-12
8.78094e-12
4.39047e-12
0
0
9.87856e-12
1.20738e-11
5.48809e-12
-5.48809e-12
-4.39047e-12
0.00519518
0.0146364
0.0215217
0.0249999
0.0251171
0.0226303
0.0186334
0.014184
0.0100614
0.00669002
0.00418907
0.00247957
0.00139187
0.000743
0.000378111
0.000183843
8.55735e-05
3.82027e-05
1.63849e-05
6.76179e-06
2.68885e-06
1.03164e-06
3.82362e-07
1.37021e-07
4.75422e-08
1.59637e-08
5.17636e-09
1.62118e-09
4.95025e-10
1.30616e-10
4.50023e-11
2.19523e-11
6.58571e-12
1.64643e-11
-7.68332e-12
3.29285e-12
7.68332e-12
9.87856e-12
-1.09762e-12
5.48809e-12
-1.09762e-12
1.53666e-11
-1.09762e-12
-5.48809e-12
1.4269e-11
1.09762e-12
1.31714e-11
0
6.58571e-12
1.09762e-12
0
0
0
0
1.09762e-12
-2.19523e-12
-1.09762e-12
-1.09762e-12
-1.09762e-12
2.19524e-12
-1.09762e-12
-8.78094e-12
-1.09762e-12
0
-8.78094e-12
-9.87856e-12
0
2.19523e-12
4.39047e-12
1.09762e-12
1.31714e-11
-4.39047e-12
3.29285e-12
-1.09762e-12
-1.09762e-12
0.00195878
0.00552311
0.0081343
0.00947035
0.00954157
0.00862472
0.00712657
0.00544511
0.0038773
0.00258807
0.00162679
0.000966552
0.000544545
0.000291714
0.000148955
7.26572e-05
3.39232e-05
1.51881e-05
6.53181e-06
2.70247e-06
1.07724e-06
4.14256e-07
1.5386e-07
5.52255e-08
1.92061e-08
6.46716e-09
2.09316e-09
6.55278e-10
1.82205e-10
3.29285e-11
-2.19523e-12
7.68332e-12
9.87856e-12
1.4269e-11
4.39047e-12
4.39047e-12
1.09762e-12
-5.48809e-12
1.09762e-12
0
-1.09762e-12
6.5857e-12
-1.09762e-12
0
1.53666e-11
-8.78094e-12
1.09762e-12
1.09762e-12
-2.19523e-12
-8.78094e-12
0
-1.09762e-12
0
1.09762e-12
3.29285e-12
3.29285e-12
1.86595e-11
0
2.19523e-12
0
0
-6.5857e-12
-1.09762e-12
3.29285e-12
0
-1.09762e-12
-7.68332e-12
0
0
1.09762e-12
-4.39047e-12
-8.78094e-12
0
0
-5.48809e-12
0.00071637
0.00202144
0.00298136
0.00347809
0.00351315
0.00318491
0.00264021
0.00202422
0.00144653
0.000969051
0.000611326
0.000364514
0.000206079
0.000110769
5.67432e-05
2.77632e-05
1.30001e-05
5.83629e-06
2.51635e-06
1.04359e-06
4.16928e-07
1.60684e-07
5.98004e-08
2.15078e-08
7.47258e-09
2.52342e-09
8.12237e-10
2.5355e-10
6.5857e-11
0
-3.51238e-11
-1.4269e-11
4.39047e-12
2.08547e-11
1.64643e-11
-3.29285e-12
-1.31714e-11
-2.08547e-11
0
0
1.09762e-12
1.09762e-12
1.09762e-12
0
-5.48809e-12
-1.09762e-12
-1.09762e-11
-4.39047e-12
-4.39047e-12
0
0
2.19524e-12
-1.09762e-12
2.19524e-12
-1.09762e-12
-1.09762e-12
9.87856e-12
0
0
-2.19524e-12
3.29285e-12
8.78094e-12
0
-1.86595e-11
8.78094e-12
1.09762e-11
0
1.09762e-12
-4.39047e-12
0
-1.20738e-11
0
0
-3.29285e-12
2.19524e-12
0.000254239
0.000717889
0.00106016
0.00123908
0.00125448
0.00114035
0.000948165
0.00072929
0.000522911
0.000351508
0.000222513
0.00013313
7.55172e-05
4.07221e-05
2.09252e-05
1.02683e-05
4.82137e-06
2.17007e-06
9.37861e-07
3.89824e-07
1.56061e-07
6.02603e-08
2.24638e-08
8.11688e-09
2.80661e-09
9.5383e-10
3.10626e-10
9.54927e-11
1.97571e-11
-1.31714e-11
-2.08547e-11
-7.68332e-12
1.31714e-11
2.41476e-11
2.19523e-11
1.09762e-11
1.09762e-11
1.64643e-11
1.09762e-12
-1.09762e-12
1.09762e-12
-7.68332e-12
2.19524e-12
-2.19523e-12
0
9.87856e-12
-1.09762e-12
0
0
7.68332e-12
0
1.09762e-12
0
1.09762e-12
-1.09762e-12
-2.19523e-12
-1.86595e-11
-7.68332e-12
-1.09762e-12
0
-1.09762e-12
1.09762e-11
1.09762e-12
-2.19524e-12
-1.09762e-12
-4.39047e-12
9.87856e-12
-1.09762e-12
2.19524e-12
-2.19524e-12
3.29285e-12
0
-2.19524e-12
3.29285e-12
-8.78094e-12
8.75983e-05
0.000247503
0.000365942
0.000428431
0.000434691
0.000396145
0.000330313
0.000254839
0.000183308
0.000123627
7.85183e-05
4.71326e-05
2.68218e-05
1.45086e-05
7.47757e-06
3.67969e-06
1.73232e-06
7.81597e-07
3.38539e-07
1.41004e-07
5.65416e-08
2.18678e-08
8.18164e-09
2.97125e-09
1.04822e-09
3.4575e-10
1.25128e-10
2.52452e-11
1.20738e-11
-4.39047e-12
1.09762e-12
-1.31714e-11
8.78094e-12
-2.19523e-12
1.20738e-11
1.64643e-11
2.63428e-11
2.19523e-11
4.39047e-12
0
-1.09762e-12
-6.5857e-12
1.09762e-12
0
4.39047e-12
0
2.19523e-12
0
-1.09762e-12
2.19523e-12
1.09762e-12
-2.19523e-12
7.68332e-12
-3.29285e-12
-2.19523e-12
5.48809e-12
-7.68332e-12
1.20738e-11
1.09762e-12
0
1.09762e-12
-2.19523e-12
-1.09762e-12
1.31714e-11
0
1.31714e-11
0
-2.19523e-12
0
1.09762e-12
4.39047e-12
-2.19523e-12
0
2.19523e-12
-1.09762e-12
2.93156e-05
8.28778e-05
0.000122674
0.000143852
0.000146251
0.000133602
0.000111701
8.64297e-05
6.23614e-05
4.21916e-05
2.68832e-05
1.6189e-05
9.24163e-06
5.0142e-06
2.59173e-06
1.27886e-06
6.0358e-07
2.72959e-07
1.1848e-07
4.94477e-08
1.98537e-08
7.6954e-09
2.89991e-09
1.05152e-09
3.84166e-10
1.35007e-10
4.17095e-11
8.78094e-12
2.19523e-11
1.31714e-11
1.09762e-11
-8.78094e-12
-2.74404e-11
-1.75619e-11
3.29285e-12
7.68332e-12
1.31714e-11
8.78094e-12
-1.09762e-12
2.19524e-12
1.09762e-12
3.29285e-12
-3.29285e-12
2.19523e-12
2.19524e-12
-1.09762e-12
-1.09762e-12
-5.48809e-12
-2.19524e-12
2.19523e-12
-7.68332e-12
-7.68332e-12
-1.09762e-12
0
-1.31714e-11
6.5857e-12
1.09762e-12
1.09762e-11
0
-1.09762e-12
1.09762e-12
0
-1.09762e-12
4.39047e-12
3.29285e-12
4.39047e-12
-9.87856e-12
0
-1.09762e-12
1.09762e-12
1.09762e-12
1.09762e-12
0
1.09762e-12
1.31714e-11
9.5336e-06
2.69673e-05
3.99585e-05
4.69285e-05
4.78039e-05
4.37703e-05
3.66902e-05
2.84699e-05
2.06035e-05
1.39829e-05
8.93754e-06
5.39904e-06
3.09159e-06
1.68236e-06
8.72001e-07
4.31422e-07
2.04096e-07
9.2527e-08
4.02441e-08
1.68001e-08
6.75803e-09
2.6255e-09
9.67001e-10
3.51238e-10
1.39397e-10
6.91499e-11
2.96357e-11
1.64643e-11
-2.19523e-12
-2.19524e-12
0
1.09762e-11
-1.20738e-11
-1.20738e-11
1.86595e-11
2.52452e-11
2.19524e-11
1.09762e-11
3.29285e-12
0
0
0
-1.09762e-12
0
0
1.53666e-11
-1.09762e-12
1.09762e-12
0
-1.09762e-12
-1.09762e-12
-3.29285e-12
-7.68332e-12
1.09762e-12
1.09762e-12
-4.39047e-12
0
-3.29285e-12
-2.19523e-12
2.19524e-12
-1.09762e-12
2.19523e-12
0
6.58571e-12
-2.19523e-12
-1.31714e-11
2.19524e-12
1.09762e-12
0
-1.09762e-12
7.68332e-12
3.29285e-12
0
3.29285e-12
-4.39047e-12
3.01407e-06
8.53031e-06
1.26527e-05
1.48815e-05
1.51877e-05
1.39373e-05
1.17126e-05
9.11364e-06
6.6149e-06
4.50304e-06
2.88715e-06
1.74948e-06
1.00481e-06
5.48382e-07
2.85011e-07
1.41385e-07
6.70589e-08
3.04984e-08
1.33064e-08
5.55285e-09
2.24682e-09
8.71508e-10
3.11723e-10
1.25128e-10
5.92713e-11
7.68332e-12
2.85381e-11
3.51238e-11
5.48809e-12
9.87856e-12
1.64643e-11
2.41476e-11
2.63428e-11
2.305e-11
3.07333e-11
1.09762e-11
1.09762e-12
-1.4269e-11
3.29285e-12
-2.19523e-12
1.09762e-12
-1.09762e-12
0
1.09762e-12
-1.09762e-12
2.19523e-12
1.09762e-12
9.87856e-12
1.09762e-12
-2.19523e-12
7.68332e-12
6.5857e-12
2.19523e-12
-2.19523e-12
1.4269e-11
-6.5857e-12
-1.09762e-12
-3.29285e-12
1.09762e-12
2.19523e-12
-1.09762e-12
-2.19523e-12
2.19523e-12
-1.20738e-11
-3.29285e-12
-1.09762e-12
0
1.09762e-12
1.09762e-12
0
-7.68332e-12
0
-4.39047e-12
-1.4269e-11
-1.09762e-12
9.26688e-07
2.62421e-06
3.89624e-06
4.58919e-06
4.69226e-06
4.31546e-06
3.63567e-06
2.83667e-06
2.06494e-06
1.40992e-06
9.06746e-07
5.51127e-07
3.17497e-07
1.73795e-07
9.05677e-08
4.50341e-08
2.14387e-08
9.7677e-09
4.27412e-09
1.80448e-09
7.21135e-10
2.5794e-10
1.09762e-10
4.06118e-11
-1.09762e-11
-1.64643e-11
-7.68332e-12
1.31714e-11
3.07333e-11
2.96357e-11
1.86595e-11
1.64643e-11
2.19524e-11
3.7319e-11
1.20738e-11
-4.39047e-12
-1.4269e-11
-2.52452e-11
-7.68332e-12
0
0
6.58571e-12
1.09762e-12
0
-4.39047e-12
-1.64643e-11
1.09762e-12
1.09762e-12
1.09762e-11
0
-1.09762e-12
3.29285e-12
-6.5857e-12
0
-2.19524e-12
0
0
-7.68332e-12
4.39047e-12
-3.29285e-12
0
-1.09762e-12
-5.48809e-12
-2.08547e-11
2.19523e-12
0
-2.19524e-12
-3.29285e-12
1.09762e-12
-1.09762e-12
1.09762e-12
-2.19524e-12
0
0
1.31714e-11
2.77267e-07
7.8571e-07
1.16771e-06
1.37732e-06
1.41082e-06
1.30036e-06
1.09821e-06
8.59194e-07
6.2722e-07
4.29532e-07
2.77087e-07
1.68938e-07
9.761e-08
5.35813e-08
2.7986e-08
1.39584e-08
6.65925e-09
3.0426e-09
1.31385e-09
5.6198e-10
2.21719e-10
7.90285e-11
2.19523e-11
-1.75619e-11
-3.40261e-11
-2.74404e-11
-2.74404e-11
-2.52452e-11
-4.39047e-12
2.08547e-11
1.97571e-11
1.31714e-11
4.39047e-12
-4.39047e-12
-1.53666e-11
4.39047e-12
-1.75619e-11
1.09762e-12
-1.31714e-11
2.19524e-12
-1.09762e-12
-1.09762e-12
-1.09762e-12
0
0
1.09762e-12
6.5857e-12
-2.19524e-12
8.78094e-12
-2.19523e-12
-1.09762e-12
1.09762e-12
0
3.29285e-12
0
-1.09762e-12
0
0
-1.09762e-12
0
0
3.29285e-12
-1.09762e-12
7.68332e-12
0
-1.09762e-12
0
0
6.58571e-12
4.39047e-12
6.5857e-12
-1.97571e-11
2.19524e-12
1.09762e-11
0
8.08768e-08
2.28937e-07
3.4056e-07
4.02222e-07
4.12724e-07
3.81235e-07
3.22737e-07
2.53179e-07
1.85339e-07
1.2729e-07
8.23608e-08
5.03697e-08
2.91681e-08
1.60351e-08
8.38141e-09
4.1929e-09
2.00315e-09
9.14315e-10
3.91849e-10
1.86595e-10
8.67118e-11
3.29285e-11
-6.5857e-12
-1.09762e-11
-2.74404e-11
-4.28071e-11
-2.96357e-11
-3.62214e-11
-2.52452e-11
-5.48809e-12
0
-1.09762e-12
-2.19523e-12
-1.97571e-11
-2.41476e-11
-1.53666e-11
-2.63428e-11
-2.19523e-12
0
1.09762e-12
1.09762e-12
-6.5857e-12
-1.09762e-12
1.09762e-12
0
0
1.75619e-11
0
-1.09762e-11
0
2.19523e-12
0
2.08547e-11
0
0
0
8.78094e-12
0
-1.09762e-12
-2.19523e-12
-1.09762e-12
1.09762e-12
4.39047e-12
1.86595e-11
1.09762e-12
0
-1.09762e-12
1.31714e-11
0
1.09762e-12
-7.68332e-12
0
0
0
-7.68332e-12
2.29797e-08
6.49087e-08
9.66386e-08
1.14266e-07
1.17366e-07
1.08651e-07
9.21933e-08
7.249e-08
5.32268e-08
3.6678e-08
2.38183e-08
1.46082e-08
8.48239e-09
4.66817e-09
2.45098e-09
1.21067e-09
5.69663e-10
2.35988e-10
1.32812e-10
6.5857e-11
3.40261e-11
0
-6.5857e-12
-7.68332e-12
-5.48809e-12
-1.75619e-11
-2.52452e-11
-3.07333e-11
-2.63428e-11
-3.62214e-11
-2.85381e-11
-2.41476e-11
-1.53666e-11
-1.64643e-11
-1.97571e-11
-1.4269e-11
-1.86595e-11
-9.87856e-12
8.78094e-12
0
-1.09762e-12
0
1.09762e-12
-2.19523e-12
0
-1.09762e-12
2.19523e-12
0
-7.68332e-12
2.19523e-12
-2.19524e-12
-1.31714e-11
-1.09762e-12
-2.19524e-12
1.09762e-12
3.29285e-12
7.68332e-12
-1.20738e-11
-1.09762e-12
2.19524e-12
-1.09762e-12
-5.48809e-12
-3.29285e-12
0
0
2.19524e-12
1.09762e-12
0
-8.78094e-12
4.39047e-12
1.09762e-12
2.41476e-11
2.19524e-12
4.39047e-12
0
6.41009e-09
1.81678e-08
2.70058e-08
3.1978e-08
3.28714e-08
3.04501e-08
2.59016e-08
2.04135e-08
1.5022e-08
1.04032e-08
6.79755e-09
4.17534e-09
2.43122e-09
1.34129e-09
7.17842e-10
3.30383e-10
1.27324e-10
3.84166e-11
3.29285e-11
-1.09762e-12
4.39047e-12
9.87856e-12
0
-1.97571e-11
-2.19524e-12
3.29285e-12
0
-4.39047e-12
-1.53666e-11
-1.97571e-11
-1.31714e-11
-2.85381e-11
-1.20738e-11
-1.53666e-11
-2.96357e-11
-3.29285e-12
9.87856e-12
2.19524e-12
2.19524e-12
-2.19524e-12
-6.5857e-12
0
2.19524e-12
-2.19523e-12
0
0
-1.86595e-11
0
-1.09762e-12
-1.09762e-12
-4.39047e-12
-5.48809e-12
-1.4269e-11
2.19524e-12
2.19524e-12
0
-8.78094e-12
-1.64643e-11
-8.78094e-12
-1.20738e-11
-3.29285e-12
-1.09762e-12
1.09762e-12
-2.19524e-12
-1.09762e-12
-1.09762e-11
1.09762e-12
-6.5857e-12
-1.09762e-12
-1.09762e-12
-2.19523e-12
0
-9.87856e-12
0
5.48809e-12
1.70789e-09
4.86903e-09
7.16086e-09
8.54166e-09
8.83802e-09
8.15969e-09
6.96109e-09
5.5265e-09
4.07984e-09
2.82856e-09
1.83741e-09
1.11847e-09
6.51985e-10
3.55628e-10
1.98669e-10
7.90285e-11
3.07333e-11
2.19523e-11
-7.68332e-12
6.5857e-12
2.08547e-11
2.63428e-11
2.74404e-11
1.97571e-11
9.87856e-12
7.68332e-12
2.85381e-11
2.85381e-11
2.85381e-11
3.29285e-12
-1.86595e-11
-3.40261e-11
-3.29285e-11
-4.39047e-12
-1.53666e-11
-1.53666e-11
7.68332e-12
-8.78094e-12
-2.19523e-12
-1.09762e-12
0
3.29285e-12
5.48809e-12
4.39047e-12
-2.19523e-12
0
-9.87856e-12
-1.09762e-12
1.09762e-12
-4.39047e-12
1.09762e-12
1.31714e-11
1.09762e-12
0
-3.29285e-12
6.5857e-12
-7.68332e-12
7.68332e-12
-8.78094e-12
-2.19523e-12
-1.31714e-11
5.48809e-12
4.39047e-12
-7.68332e-12
1.09762e-12
-1.09762e-12
-1.09762e-12
1.09762e-12
2.19523e-12
-8.78094e-12
-1.31714e-11
-4.39047e-12
-6.5857e-12
-7.68332e-12
-1.09762e-12
4.03923e-10
1.15908e-09
1.67716e-09
2.0284e-09
2.13377e-09
1.96254e-09
1.68814e-09
1.36544e-09
1.0142e-09
7.0028e-10
4.4234e-10
2.68916e-10
1.60252e-10
1.09762e-10
6.36618e-11
2.96357e-11
1.75619e-11
-3.29285e-12
-1.09762e-11
1.64643e-11
7.68332e-12
7.68332e-12
2.08547e-11
3.07333e-11
2.41476e-11
2.85381e-11
1.4269e-11
1.31714e-11
2.85381e-11
2.19524e-12
0
-1.31714e-11
-2.96357e-11
0
-6.5857e-12
-2.19524e-11
-1.31714e-11
-1.53666e-11
-8.78094e-12
0
1.09762e-12
0
-2.19524e-12
-4.39047e-12
5.48809e-12
-8.78094e-12
0
-1.31714e-11
-1.09762e-12
1.09762e-12
0
1.09762e-12
-1.09762e-12
-1.31714e-11
-1.09762e-12
4.39047e-12
0
4.39047e-12
1.86595e-11
1.31714e-11
4.39047e-12
2.19523e-12
0
2.19524e-12
0
1.09762e-11
-2.19524e-12
0
0
5.48809e-12
8.78094e-12
0
9.87856e-12
2.19523e-12
-6.58571e-12
1.844e-10
4.21485e-10
6.89304e-10
7.72723e-10
8.14432e-10
7.59551e-10
6.76132e-10
5.3893e-10
3.98435e-10
2.78795e-10
1.82205e-10
1.18543e-10
6.69547e-11
5.92713e-11
2.85381e-11
1.75619e-11
8.78094e-12
-1.09762e-11
-1.09762e-12
-2.41476e-11
-2.19524e-12
1.86595e-11
3.29285e-12
0
7.68332e-12
3.95142e-11
2.41476e-11
2.52452e-11
2.19523e-11
1.86595e-11
2.63428e-11
2.85381e-11
2.96357e-11
0
1.4269e-11
0
1.20738e-11
1.97571e-11
8.78094e-12
-4.39047e-12
0
-3.29285e-12
3.29285e-12
-1.64643e-11
1.09762e-12
2.19524e-12
0
0
-2.19524e-12
-4.39047e-12
1.09762e-12
3.29285e-12
0
-2.19524e-12
2.19524e-12
-2.305e-11
-1.09762e-12
0
7.68332e-12
1.09762e-12
1.4269e-11
-2.19523e-12
-1.09762e-12
-1.09762e-12
-4.39047e-12
1.09762e-12
-1.09762e-12
1.20738e-11
0
0
2.08547e-11
9.87856e-12
6.58571e-12
4.39047e-12
0
3.07333e-11
6.14666e-11
1.22933e-10
1.14152e-10
1.25128e-10
1.33909e-10
1.16347e-10
8.56142e-11
6.69547e-11
3.18309e-11
1.31714e-11
2.19523e-11
-1.09762e-12
-7.68332e-12
0
1.86595e-11
2.305e-11
3.62214e-11
2.41476e-11
6.5857e-12
1.75619e-11
1.86595e-11
7.68332e-12
6.5857e-12
1.97571e-11
2.63428e-11
3.84166e-11
5.70761e-11
3.84166e-11
4.39047e-11
3.51238e-11
4.28071e-11
3.7319e-11
1.20738e-11
3.7319e-11
1.20738e-11
1.31714e-11
3.18309e-11
1.20738e-11
-1.09762e-12
1.4269e-11
-5.48809e-12
5.48809e-12
9.87856e-12
0
8.78094e-12
9.87856e-12
2.305e-11
2.19523e-12
-6.5857e-12
4.39047e-12
6.5857e-12
1.53666e-11
2.08547e-11
1.09762e-12
5.48809e-12
4.39047e-12
1.4269e-11
-1.09762e-11
0
0
-2.19523e-12
-1.09762e-12
0
-3.29285e-12
0
4.39047e-12
-4.39047e-12
-2.19523e-12
-1.31714e-11
-5.48809e-12
6.5857e-12
-1.09762e-12
-5.48809e-12
2.19523e-12
-7.4638e-11
-1.44886e-10
-2.45866e-10
-2.766e-10
-2.26109e-10
-1.64643e-10
-1.11957e-10
-8.01261e-11
-6.36618e-11
-5.37833e-11
-3.07333e-11
-1.20738e-11
1.09762e-12
-4.39047e-12
1.64643e-11
1.97571e-11
2.19523e-11
3.29285e-11
2.19524e-12
1.31714e-11
7.68332e-12
-1.53666e-11
4.39047e-12
2.85381e-11
3.40261e-11
2.305e-11
3.84166e-11
3.62214e-11
2.52452e-11
3.07333e-11
1.97571e-11
2.08547e-11
1.86595e-11
2.19524e-11
-1.09762e-12
-7.68332e-12
-1.4269e-11
3.29285e-12
-8.78094e-12
4.39047e-12
0
0
-2.19524e-12
1.86595e-11
1.09762e-12
-1.09762e-12
2.19523e-12
-1.09762e-12
1.09762e-12
8.78094e-12
1.09762e-12
4.39047e-12
1.4269e-11
1.09762e-12
-2.19524e-12
1.4269e-11
1.31714e-11
2.19524e-12
2.19523e-12
0
0
-2.19523e-12
2.19524e-12
8.78094e-12
3.29285e-12
-1.09762e-12
0
-1.20738e-11
1.09762e-12
0
-1.64643e-11
-9.87856e-12
1.09762e-12
-7.68332e-12
0
-4.39047e-12
6.5857e-11
1.31714e-10
1.66838e-10
2.23914e-10
2.3489e-10
2.28304e-10
1.72326e-10
1.36105e-10
8.78094e-11
7.02475e-11
3.40261e-11
2.63428e-11
2.52452e-11
2.305e-11
1.75619e-11
1.75619e-11
7.68332e-12
-4.39047e-12
-3.18309e-11
-1.64643e-11
-1.20738e-11
-2.19523e-12
1.09762e-11
3.29285e-12
1.97571e-11
2.305e-11
2.19524e-12
7.68332e-12
2.52452e-11
1.97571e-11
8.78094e-12
-1.31714e-11
-6.58571e-12
-1.75619e-11
-2.19524e-12
-1.09762e-11
-3.29285e-12
-3.29285e-12
1.31714e-11
-9.87856e-12
1.09762e-11
-1.4269e-11
-4.39047e-12
1.09762e-12
0
-1.09762e-11
-7.68332e-12
0
5.48809e-12
0
-2.19524e-12
-1.4269e-11
-8.78094e-12
0
-2.08547e-11
-4.39047e-12
-4.39047e-12
1.09762e-12
0
0
-2.19523e-12
4.39047e-12
0
5.48809e-12
0
-1.09762e-12
0
6.58571e-12
1.53666e-11
5.48809e-12
-5.48809e-12
-8.78094e-12
1.09762e-12
-4.39047e-12
2.63428e-11
8.34189e-11
4.39047e-11
4.39047e-11
3.95142e-11
3.95142e-11
4.39047e-12
4.39047e-12
4.39047e-12
-2.19523e-11
-1.20738e-11
-7.68332e-12
-9.87856e-12
3.29285e-12
0
9.87856e-12
-1.09762e-12
-1.4269e-11
0
-2.74404e-11
-3.84166e-11
-1.53666e-11
-2.19523e-12
-2.19523e-11
-8.78094e-12
1.09762e-11
-2.19523e-12
-6.5857e-12
5.48809e-12
1.97571e-11
2.74404e-11
2.74404e-11
-5.48809e-12
-1.97571e-11
-6.5857e-12
8.78094e-12
7.68332e-12
8.78094e-12