/*--------------------------------*- C++ -*----------------------------------*\
  =========                 |
  \\      /  F ield         | OpenFOAM: The Open Source CFD Toolbox
   \\    /   O peration     | Website:  https://openfoam.org
    \\  /    A nd           | Version:  10
     \\/     M anipulation  |
\*---------------------------------------------------------------------------*/
FoamFile
{
    format      ascii;
    class       volScalarField;
    location    "375";
    object      gradTz;
}
// * * * * * * * * * * * * * * * * * * * * * * * * * * * * * * * * * * * * * //

dimensions      [0 -1 0 1 0 0 0];

internalField   nonuniform List<scalar> 
11250
(
-14345.2
-4140.74
-1520.68
-717.427
-413.111
-271.946
-195.062
-148.063
-116.861
-94.8402
-78.5429
-66.0152
-56.0839
-48.011
-41.3141
-35.6683
-30.848
-26.6931
-23.0868
-19.9419
-17.1915
-14.783
-12.6741
-10.8293
-9.21895
-7.81691
-6.60028
-5.54853
-4.64312
-3.8672
-3.20541
-2.64379
-2.16963
-1.77145
-1.43889
-1.16266
-0.934518
-0.747156
-0.594167
-0.469965
-0.369718
-0.289276
-0.225105
-0.174213
-0.134088
-0.102639
-0.0781343
-0.0591528
-0.0445359
-0.033346
-0.02483
-0.0183868
-0.0135404
-0.00991646
-0.00722233
-0.00523114
-0.00376803
-0.00269918
-0.00192288
-0.0013623
-0.000959845
-0.000672568
-0.000468686
-0.000324822
-0.000223891
-0.00015349
-0.000104673
-7.10273e-05
-4.79911e-05
-3.23413e-05
-2.18215e-05
-1.48717e-05
-1.04335e-05
-7.81608e-06
-6.60439e-06
-8239.62
-4837.64
-2744.97
-1653.12
-1075.97
-751.366
-555.137
-428.249
-341.288
-278.707
-231.796
-195.413
-166.382
-142.669
-122.925
-106.232
-91.9478
-79.6137
-68.8931
-59.5334
-51.3404
-44.1608
-37.8701
-32.3648
-27.5569
-23.3696
-19.735
-16.5922
-13.8861
-11.5666
-9.58801
-7.90865
-6.49068
-5.29978
-4.30504
-3.47876
-2.79625
-2.23572
-1.77799
-1.40637
-1.10641
-0.865709
-0.673682
-0.521386
-0.401309
-0.307192
-0.233855
-0.177047
-0.1333
-0.0998091
-0.0743205
-0.0550356
-0.0405299
-0.0296828
-0.0216187
-0.0156586
-0.0112791
-0.00807974
-0.005756
-0.00407799
-0.00287328
-0.00201333
-0.00140302
-0.000972367
-0.000670231
-0.000459485
-0.000313348
-0.000212628
-0.000143668
-9.68184e-05
-6.53264e-05
-4.45209e-05
-3.12348e-05
-2.33992e-05
-1.97719e-05
-5535.3
-4224.51
-2967.72
-2073.44
-1485.67
-1101.84
-845.372
-668.083
-540.987
-446.637
-374.335
-317.348
-271.328
-233.393
-201.585
-174.543
-151.304
-131.169
-113.619
-98.2641
-84.799
-72.9822
-62.6162
-53.5357
-45.5989
-38.6819
-32.6744
-27.4774
-23.0007
-19.1621
-15.8867
-13.106
-10.7575
-8.78474
-7.13662
-5.76738
-4.63626
-3.70716
-2.94838
-2.33228
-1.83495
-1.43582
-1.11739
-0.864827
-0.665683
-0.509583
-0.387943
-0.293713
-0.221145
-0.165589
-0.123305
-0.0913119
-0.0672465
-0.0492502
-0.035871
-0.0259821
-0.0187157
-0.0134071
-0.00955135
-0.00676703
-0.00476799
-0.00334102
-0.00232828
-0.00161364
-0.00111226
-0.00076253
-0.000520017
-0.000352872
-0.000238429
-0.00016068
-0.000108417
-7.38886e-05
-5.1839e-05
-3.88349e-05
-3.28152e-05
-4140.52
-3556.16
-2826.77
-2186.14
-1690.4
-1324.02
-1055.6
-857.017
-707.363
-592.077
-501.246
-428.134
-368.133
-318.051
-275.644
-239.313
-207.9
-180.549
-156.618
-135.612
-117.145
-100.905
-86.6341
-74.1151
-63.1599
-53.6029
-45.2958
-38.1041
-31.9055
-26.5879
-22.0483
-18.1929
-14.9356
-12.1987
-9.91155
-8.011
-6.44064
-5.15051
-4.09672
-3.24097
-2.55008
-1.99557
-1.55311
-1.20214
-0.925378
-0.708421
-0.539346
-0.408361
-0.307481
-0.230245
-0.171458
-0.126976
-0.0935144
-0.0684907
-0.0498861
-0.0361347
-0.0260295
-0.0186469
-0.0132846
-0.00941221
-0.00663191
-0.00464721
-0.00323859
-0.00224458
-0.00154719
-0.00106072
-0.000723385
-0.00049088
-0.000331684
-0.000223529
-0.000150826
-0.000102793
-7.21187e-05
-5.40282e-05
-4.56538e-05
-3328.35
-3031.13
-2595.42
-2152.38
-1764.31
-1446.95
-1194.84
-996.042
-838.568
-712.443
-610.004
-525.558
-454.941
-395.115
-343.857
-299.529
-260.912
-227.084
-197.34
-171.129
-148.011
-127.627
-109.675
-93.8992
-80.0728
-67.9957
-57.4867
-48.3807
-40.5259
-33.783
-28.0234
-23.1294
-18.9929
-15.5158
-12.6092
-10.1932
-8.19636
-6.55549
-5.21494
-4.12611
-3.2469
-2.54111
-1.97788
-1.53106
-1.17867
-0.902393
-0.687071
-0.520243
-0.391749
-0.293362
-0.218471
-0.1618
-0.119167
-0.0872825
-0.063576
-0.0460527
-0.0331751
-0.0237667
-0.0169326
-0.0119972
-0.00845355
-0.00592386
-0.00412838
-0.00286134
-0.00197237
-0.00135225
-0.000922219
-0.000625819
-0.00042287
-0.000284987
-0.000192298
-0.00013106
-9.19527e-05
-6.88882e-05
-5.82112e-05
-2811.2
-2642.42
-2369.29
-2061.68
-1765.68
-1502.95
-1279.29
-1092.5
-937.4
-808.337
-700.215
-608.83
-530.857
-463.718
-405.436
-354.499
-309.742
-270.265
-235.358
-204.455
-177.096
-152.897
-131.531
-112.714
-96.193
-81.7406
-69.1487
-58.2259
-48.7954
-40.6932
-33.7679
-27.8796
-22.9003
-18.7127
-15.2109
-12.299
-9.89154
-7.91272
-6.29563
-4.9819
-3.92086
-3.06896
-2.38901
-1.8495
-1.42396
-1.09029
-0.830202
-0.62867
-0.47343
-0.354553
-0.264058
-0.195574
-0.14405
-0.105513
-0.076859
-0.0556771
-0.0401101
-0.0287361
-0.0204739
-0.0145068
-0.0102223
-0.00716353
-0.00499248
-0.00346035
-0.00238534
-0.00163543
-0.00111537
-0.000756913
-0.000511463
-0.000344701
-0.000232597
-0.000158529
-0.000111228
-8.33305e-05
-7.04162e-05
-2460.14
-2355.41
-2175.12
-1956.95
-1731.54
-1517.89
-1325.09
-1155.74
-1008.96
-882.334
-773.019
-678.302
-595.816
-523.59
-460.027
-403.848
-354.032
-309.76
-270.373
-235.328
-204.172
-176.52
-152.035
-130.419
-111.403
-94.739
-80.1994
-67.5716
-56.6574
-47.272
-39.2435
-32.4126
-26.6326
-21.7691
-17.7001
-14.3152
-11.5157
-9.21387
-7.33225
-5.80319
-4.56796
-3.57598
-2.78406
-2.15561
-1.65982
-1.27102
-0.967916
-0.733021
-0.55206
-0.413473
-0.307963
-0.228107
-0.168023
-0.123081
-0.0896611
-0.0649546
-0.0467961
-0.0335278
-0.023889
-0.0169273
-0.0119284
-0.00835947
-0.00582618
-0.00403834
-0.00278386
-0.00190873
-0.0013018
-0.000883455
-0.000596988
-0.000402352
-0.000271506
-0.000185053
-0.000129841
-9.72781e-05
-8.22037e-05
-2210.67
-2140.89
-2015.86
-1856.64
-1683.03
-1509.62
-1345.35
-1194.64
-1058.92
-937.905
-830.443
-735.088
-650.372
-574.95
-507.652
-447.49
-393.637
-345.405
-302.218
-263.587
-229.091
-198.362
-171.069
-146.911
-125.613
-106.915
-90.5743
-76.3633
-64.0665
-53.4816
-44.4191
-36.7025
-30.1688
-24.6679
-20.0632
-16.2309
-13.06
-10.4519
-8.31919
-6.58558
-5.18473
-4.05947
-3.16096
-2.44777
-1.88503
-1.44365
-1.0995
-0.832757
-0.627235
-0.469819
-0.34996
-0.259235
-0.190966
-0.139897
-0.101918
-0.0738385
-0.0531995
-0.0381177
-0.0271608
-0.0192467
-0.0135634
-0.00950573
-0.00662536
-0.00459246
-0.00316597
-0.00217079
-0.00148059
-0.00100482
-0.000679024
-0.000457656
-0.000308834
-0.000210502
-0.000147703
-0.000110663
-9.35163e-05
-2027.4
-1978.12
-1887.39
-1767.54
-1631.36
-1489.54
-1349.69
-1216.54
-1092.54
-978.648
-874.871
-780.717
-695.471
-618.355
-548.617
-485.569
-428.602
-377.182
-330.84
-289.162
-251.777
-218.346
-188.559
-162.123
-138.763
-118.214
-100.227
-84.5611
-70.9888
-59.2933
-49.2706
-40.7295
-33.4925
-27.3956
-22.289
-18.037
-14.5173
-11.621
-9.25189
-7.32546
-5.76834
-4.51723
-3.51798
-2.72465
-2.09855
-1.60738
-1.22435
-0.927426
-0.698615
-0.523337
-0.389861
-0.288817
-0.212775
-0.155886
-0.113574
-0.0822892
-0.059292
-0.0424856
-0.0302749
-0.0214545
-0.0151201
-0.0105972
-0.00738647
-0.00512027
-0.00352999
-0.00242048
-0.00165096
-0.00112048
-0.000757211
-0.000510372
-0.00034442
-0.000234766
-0.000164733
-0.000123427
-0.000104305
-1889.44
-1852.88
-1784.29
-1691.19
-1582.03
-1464.49
-1344.7
-1227.02
-1114.21
-1007.86
-908.681
-816.859
-732.259
-654.573
-583.421
-518.399
-459.115
-405.195
-356.287
-312.065
-272.218
-236.45
-204.477
-176.023
-150.82
-128.607
-109.129
-92.1394
-77.4016
-64.6876
-53.7814
-44.4795
-36.5917
-29.9422
-24.3696
-19.7269
-15.8821
-12.7169
-10.1269
-8.02005
-6.3166
-4.94752
-3.85376
-2.9852
-2.29958
-1.76161
-1.342
-1.01667
-0.76593
-0.573824
-0.427514
-0.316741
-0.233369
-0.170987
-0.124587
-0.0902747
-0.0650504
-0.0466148
-0.0332194
-0.0235426
-0.0165926
-0.0116299
-0.00810666
-0.00561978
-0.00387453
-0.00265685
-0.00181226
-0.00123001
-0.000831256
-0.000560301
-0.000378128
-0.000257752
-0.000180869
-0.000135522
-0.000114529
-1783.66
-1755.36
-1701.54
-1627
-1537.42
-1438.39
-1334.72
-1230.15
-1127.42
-1028.34
-934.04
-845.144
-761.933
-684.468
-612.676
-546.408
-485.468
-429.638
-378.686
-332.375
-290.46
-252.695
-218.829
-188.608
-161.777
-138.082
-117.268
-99.0865
-83.2936
-69.6539
-57.9419
-47.9439
-39.4593
-32.3017
-26.2995
-21.2963
-17.1509
-13.7367
-10.9417
-8.66743
-6.82796
-5.34912
-4.16736
-3.22867
-2.48754
-1.90588
-1.45211
-1.10023
-0.828979
-0.621131
-0.462808
-0.342925
-0.252684
-0.185156
-0.134921
-0.097771
-0.0704573
-0.050493
-0.0359855
-0.0255045
-0.0179765
-0.0126006
-0.00878374
-0.00608946
-0.00419856
-0.00287918
-0.001964
-0.00133305
-0.000900933
-0.00060729
-0.000409856
-0.000279391
-0.000196062
-0.000146911
-0.000124156
-1701.43
-1678.69
-1635
-1573.57
-1498.33
-1413.38
-1322.47
-1228.76
-1134.77
-1042.35
-952.812
-867.054
-785.643
-708.915
-637.041
-570.082
-508.017
-450.769
-398.22
-350.22
-306.594
-267.144
-231.657
-199.905
-171.651
-146.648
-124.649
-105.403
-88.6637
-74.19
-61.7493
-51.1199
-42.0923
-34.4713
-28.0765
-22.743
-18.3217
-14.6786
-11.6951
-9.26649
-7.30152
-5.72131
-4.45818
-3.45461
-2.66205
-2.0399
-1.55445
-1.17793
-0.887635
-0.665159
-0.495669
-0.367312
-0.27068
-0.198361
-0.144557
-0.104762
-0.0755009
-0.0541115
-0.038567
-0.027336
-0.0192685
-0.0135071
-0.00941618
-0.00652826
-0.00450133
-0.00308696
-0.00210583
-0.00142938
-0.000966082
-0.000651233
-0.000439531
-0.000299633
-0.000210275
-0.000157567
-0.000133166
-1636.83
-1617.94
-1581.39
-1529.37
-1464.72
-1390.49
-1309.63
-1224.79
-1138.2
-1051.65
-966.533
-883.877
-804.439
-728.75
-657.171
-589.929
-527.151
-468.884
-415.112
-365.768
-320.742
-279.886
-243.026
-209.962
-180.474
-154.331
-131.288
-111.101
-93.5196
-78.3009
-65.2068
-54.0092
-44.4916
-36.4513
-29.7004
-24.0668
-19.3942
-15.5425
-12.3867
-9.8169
-7.73699
-6.06382
-4.72601
-3.66282
-2.82297
-2.16356
-1.64892
-1.24969
-0.941836
-0.705861
-0.52606
-0.389875
-0.287336
-0.210587
-0.15348
-0.111238
-0.080175
-0.0574658
-0.0409607
-0.0290346
-0.0204672
-0.0143482
-0.0100031
-0.00693559
-0.00478245
-0.00327991
-0.00223756
-0.00151887
-0.00102661
-0.000692066
-0.000467111
-0.000318448
-0.00022349
-0.000167476
-0.000141544
-1585.69
-1569.54
-1538.1
-1492.95
-1436.19
-1370.14
-1297.17
-1219.49
-1139.08
-1057.6
-976.435
-896.692
-819.237
-744.736
-673.686
-606.447
-543.266
-484.295
-429.606
-379.208
-333.05
-291.035
-253.023
-218.844
-188.298
-161.166
-137.215
-116.2
-97.877
-81.9983
-68.323
-56.6182
-46.6618
-38.245
-31.1737
-25.2693
-20.3698
-16.3291
-13.0171
-10.3191
-8.13464
-6.37684
-4.97096
-3.85337
-2.97035
-2.27688
-1.73555
-1.31553
-0.991585
-0.743238
-0.55398
-0.410612
-0.302651
-0.221833
-0.161691
-0.117199
-0.0844784
-0.060555
-0.0431658
-0.0305998
-0.021572
-0.0151236
-0.0105444
-0.00731128
-0.00504178
-0.00345795
-0.00235914
-0.00160147
-0.00108249
-0.00072977
-0.000492581
-0.000335827
-0.000235697
-0.000176631
-0.000149285
-1544.96
-1530.78
-1503.07
-1463
-1412.17
-1352.4
-1285.62
-1213.7
-1138.38
-1061.19
-983.485
-906.385
-830.82
-757.544
-687.153
-620.107
-556.747
-497.312
-441.953
-390.74
-343.679
-300.716
-261.748
-226.629
-195.182
-167.202
-142.464
-120.731
-101.758
-85.2991
-71.1109
-58.9568
-48.6106
-39.8584
-32.5007
-26.354
-21.2508
-17.0402
-13.5876
-10.774
-8.49524
-6.66094
-5.19345
-4.02659
-3.10441
-2.38002
-1.81444
-1.37552
-1.03694
-0.777332
-0.579461
-0.429546
-0.316639
-0.232108
-0.169197
-0.12265
-0.0884148
-0.0633816
-0.0451841
-0.0320328
-0.0225837
-0.0158339
-0.0110403
-0.00765557
-0.00527949
-0.00362117
-0.00247062
-0.00167724
-0.00113376
-0.000764364
-0.000515955
-0.000351779
-0.000246904
-0.000185038
-0.000156395
-1512.38
-1499.66
-1474.71
-1438.43
-1392.09
-1337.16
-1275.23
-1207.92
-1136.75
-1063.17
-988.43
-913.668
-839.84
-767.755
-698.076
-631.338
-567.956
-508.239
-452.4
-400.567
-352.793
-309.063
-269.306
-233.404
-201.196
-172.494
-147.081
-124.727
-105.19
-88.2247
-73.5871
-61.0381
-50.348
-41.2991
-33.6876
-27.3254
-22.0409
-17.6787
-14.1005
-11.1834
-8.81999
-6.91702
-5.39417
-4.18297
-3.22552
-2.47327
-1.88581
-1.42983
-1.07802
-0.808227
-0.602561
-0.446719
-0.329332
-0.241436
-0.176012
-0.127602
-0.0919921
-0.0659512
-0.0470194
-0.0333363
-0.0235043
-0.0164804
-0.0114918
-0.00796909
-0.005496
-0.00376988
-0.00257221
-0.00174629
-0.00118049
-0.000795906
-0.000537271
-0.000366329
-0.000257128
-0.000192708
-0.000162882
-1486.26
-1474.62
-1451.72
-1418.31
-1375.39
-1324.2
-1266.08
-1202.44
-1134.66
-1064.05
-991.835
-919.105
-846.833
-775.859
-706.893
-640.524
-577.223
-517.355
-461.185
-408.888
-360.556
-316.21
-275.81
-239.257
-206.413
-177.1
-151.112
-128.225
-108.202
-90.7992
-75.7709
-62.8773
-51.8862
-42.5767
-34.7417
-28.1894
-22.7445
-18.2481
-14.5583
-11.5492
-9.11048
-7.14629
-5.57402
-4.32321
-3.33421
-2.55701
-1.94995
-1.47866
-1.11498
-0.836038
-0.623367
-0.462193
-0.340775
-0.249849
-0.182162
-0.132072
-0.0952222
-0.0682722
-0.0486777
-0.0345145
-0.0243365
-0.0170651
-0.0119001
-0.00825276
-0.00569196
-0.00390449
-0.00266419
-0.00180882
-0.00122281
-0.000824483
-0.000556586
-0.000379516
-0.000266396
-0.000199662
-0.000168765
-1465.26
-1454.43
-1433.09
-1401.85
-1361.56
-1313.27
-1258.15
-1197.44
-1132.39
-1064.24
-994.13
-923.138
-852.231
-782.264
-713.979
-648.001
-584.846
-524.92
-468.53
-415.889
-367.126
-322.291
-281.368
-244.282
-210.907
-181.081
-154.608
-131.268
-110.829
-93.0491
-77.6836
-64.4913
-53.2385
-43.7018
-35.6715
-28.9526
-23.3668
-18.7523
-14.9641
-11.8738
-9.36856
-7.35017
-5.7341
-4.44813
-3.43111
-2.63171
-2.0072
-1.52228
-1.14802
-0.86091
-0.641983
-0.476046
-0.351023
-0.257387
-0.187675
-0.13608
-0.09812
-0.0703552
-0.0501665
-0.0355725
-0.0250842
-0.0175904
-0.0122672
-0.00850781
-0.00586818
-0.00402558
-0.00274695
-0.00186509
-0.00126092
-0.000850211
-0.00057398
-0.000391394
-0.000274746
-0.000205929
-0.000174067
-1448.37
-1438.16
-1418
-1388.42
-1350.15
-1304.11
-1251.35
-1192.97
-1130.13
-1063.99
-995.631
-926.11
-856.382
-787.309
-719.652
-654.062
-591.085
-531.163
-474.636
-421.747
-372.654
-327.433
-286.09
-248.566
-214.754
-184.501
-157.619
-133.896
-113.104
-95.0022
-79.3474
-65.8981
-54.4193
-44.686
-36.486
-29.6222
-23.9136
-19.1958
-15.3216
-12.1601
-9.59633
-7.53028
-5.87564
-4.55867
-3.51692
-2.69792
-2.05798
-1.56099
-1.17735
-0.883008
-0.658533
-0.488367
-0.360143
-0.264099
-0.192585
-0.139652
-0.100703
-0.0722126
-0.0514945
-0.0365166
-0.0257516
-0.0180595
-0.0125951
-0.00873566
-0.00602565
-0.00413382
-0.00282094
-0.00191542
-0.001295
-0.00087323
-0.000589546
-0.000402025
-0.000282221
-0.00021154
-0.000178814
-1434.78
-1425.04
-1405.78
-1377.48
-1340.78
-1296.5
-1245.58
-1189.06
-1127.99
-1063.48
-996.573
-928.285
-859.563
-791.27
-724.176
-658.953
-596.17
-536.292
-479.686
-426.622
-377.279
-331.755
-290.075
-252.197
-218.026
-187.418
-160.196
-136.152
-115.061
-96.6862
-80.7851
-67.1162
-55.4436
-45.5411
-37.1949
-30.2058
-24.3907
-19.5833
-15.6343
-12.4108
-9.79601
-7.68833
-5.99995
-4.65584
-3.59241
-2.75621
-2.10271
-1.59511
-1.20323
-0.902515
-0.673149
-0.499255
-0.368206
-0.270035
-0.19693
-0.142814
-0.102991
-0.0738583
-0.0526716
-0.0373537
-0.0263435
-0.0184757
-0.012886
-0.00893794
-0.00616549
-0.00422995
-0.00288668
-0.00196015
-0.00132529
-0.000893695
-0.000603387
-0.000411482
-0.000288872
-0.000216534
-0.00018304
-1423.85
-1414.47
-1395.91
-1368.59
-1333.1
-1290.19
-1240.73
-1185.68
-1126.04
-1062.85
-997.129
-929.865
-861.992
-794.368
-727.772
-662.886
-600.295
-540.485
-483.842
-430.656
-381.125
-335.367
-293.42
-255.256
-220.791
-189.892
-162.387
-138.075
-116.734
-98.1289
-82.0194
-68.1639
-56.3262
-46.2792
-37.8077
-30.711
-24.8044
-19.9198
-15.906
-12.6289
-9.96992
-7.82611
-6.10843
-4.74071
-3.6584
-2.8072
-2.14188
-1.62501
-1.22591
-0.919623
-0.685976
-0.508815
-0.37529
-0.275252
-0.200751
-0.145595
-0.105004
-0.0753072
-0.0537083
-0.0380912
-0.0268652
-0.0188426
-0.0131426
-0.00911639
-0.00628889
-0.00431481
-0.00294472
-0.00199964
-0.00135205
-0.000911776
-0.00061562
-0.00041984
-0.000294752
-0.000220949
-0.000186777
-1415.07
-1405.96
-1387.93
-1361.38
-1326.83
-1284.99
-1236.68
-1182.79
-1124.3
-1062.17
-997.422
-931.004
-863.84
-796.786
-730.621
-666.036
-603.629
-543.898
-487.246
-433.977
-384.308
-338.368
-296.21
-257.817
-223.115
-191.977
-164.239
-139.704
-118.154
-99.357
-83.0722
-69.0593
-57.0819
-46.9122
-38.334
-31.1456
-25.1607
-20.2099
-16.1407
-12.8174
-10.1204
-7.94546
-6.20247
-4.81435
-3.7157
-2.85152
-2.17593
-1.65102
-1.24567
-0.934531
-0.69716
-0.517156
-0.381472
-0.279809
-0.204089
-0.148027
-0.106765
-0.0765747
-0.0546156
-0.0387369
-0.0273221
-0.0191641
-0.0133675
-0.00927282
-0.00639709
-0.00438924
-0.00299564
-0.0020343
-0.00137554
-0.000927652
-0.000626362
-0.000427183
-0.000299918
-0.00022483
-0.000190062
-1408.02
-1399.12
-1381.51
-1355.54
-1321.73
-1280.74
-1233.32
-1180.36
-1122.77
-1061.51
-997.542
-931.817
-865.241
-798.666
-732.871
-668.551
-606.312
-546.664
-490.02
-436.699
-386.928
-340.849
-298.525
-259.95
-225.055
-193.723
-165.794
-141.076
-119.353
-100.396
-83.9646
-69.8196
-57.7247
-47.4515
-38.7832
-31.5169
-25.4656
-20.4585
-16.342
-12.9793
-10.2498
-8.04816
-6.28348
-4.87784
-3.76514
-2.88978
-2.20537
-1.67352
-1.26276
-0.94744
-0.70685
-0.524385
-0.386835
-0.283762
-0.206987
-0.150139
-0.108295
-0.0776766
-0.0554046
-0.0392986
-0.0277197
-0.0194439
-0.0135634
-0.00940909
-0.00649138
-0.00445412
-0.00304004
-0.00206453
-0.00139603
-0.000941504
-0.000635738
-0.000433593
-0.000304429
-0.000228219
-0.000192931
-1402.37
-1393.64
-1376.35
-1350.84
-1317.6
-1277.26
-1230.56
-1178.32
-1121.46
-1060.88
-997.552
-932.392
-866.301
-800.125
-734.642
-670.551
-608.462
-548.895
-492.271
-438.918
-389.074
-342.889
-300.436
-261.715
-226.667
-195.178
-167.093
-142.225
-120.359
-101.269
-84.7162
-70.4613
-58.2682
-47.9082
-39.1641
-31.8323
-25.7248
-20.6701
-16.5136
-13.1175
-10.3603
-8.13598
-6.35281
-4.93222
-3.80753
-2.92261
-2.23064
-1.69285
-1.27746
-0.958546
-0.715191
-0.530613
-0.391456
-0.287172
-0.209487
-0.151961
-0.109616
-0.0786285
-0.0560865
-0.0397843
-0.0280636
-0.019686
-0.0137329
-0.00952707
-0.00657304
-0.00451032
-0.00307851
-0.00209073
-0.0014138
-0.000953516
-0.00064387
-0.000439153
-0.000308344
-0.000231161
-0.000195422
-1397.86
-1389.25
-1372.21
-1347.06
-1314.26
-1274.43
-1228.29
-1176.63
-1120.34
-1060.32
-997.495
-932.793
-867.099
-801.252
-736.031
-672.136
-610.18
-550.688
-494.089
-440.719
-390.823
-344.558
-302.004
-263.169
-227.997
-196.382
-168.171
-143.18
-121.198
-101.999
-85.3455
-70.9995
-58.7247
-48.2925
-39.4851
-32.0985
-25.9439
-20.8492
-16.6589
-13.2346
-10.4541
-8.2106
-6.41178
-4.97852
-3.84365
-2.95061
-2.2522
-1.70936
-1.29002
-0.968041
-0.722327
-0.535944
-0.395414
-0.290093
-0.211631
-0.153525
-0.110749
-0.0794457
-0.0566721
-0.0402015
-0.0283592
-0.0198942
-0.0138786
-0.00962857
-0.00664331
-0.0045587
-0.00311164
-0.00211329
-0.0014291
-0.000963867
-0.00065088
-0.000443948
-0.00031172
-0.000233698
-0.00019757
-1394.26
-1385.75
-1368.9
-1344.02
-1311.58
-1272.15
-1226.44
-1175.24
-1119.4
-1059.81
-997.402
-933.069
-867.697
-802.122
-737.118
-673.387
-611.547
-552.123
-495.552
-442.174
-392.241
-345.916
-303.284
-264.359
-229.09
-197.373
-169.061
-143.971
-121.894
-102.605
-85.8692
-71.4482
-59.1059
-48.6138
-39.7539
-32.3217
-26.1279
-20.9997
-16.7813
-13.3334
-10.5333
-8.27361
-6.46161
-5.01768
-3.87422
-2.97432
-2.27048
-1.72337
-1.30068
-0.976109
-0.728394
-0.540478
-0.398783
-0.292581
-0.213457
-0.154857
-0.111716
-0.0801428
-0.0571719
-0.0405578
-0.0286116
-0.0200721
-0.0140032
-0.00971535
-0.00670341
-0.00460009
-0.00313998
-0.00213261
-0.0014422
-0.000972733
-0.000656885
-0.000448056
-0.000314613
-0.000235874
-0.000199413
-1391.39
-1382.96
-1366.26
-1341.6
-1309.42
-1270.31
-1224.94
-1174.09
-1118.61
-1059.38
-997.292
-933.257
-868.145
-802.791
-737.966
-674.373
-612.629
-553.267
-496.723
-443.344
-393.385
-347.015
-304.324
-265.329
-229.983
-198.185
-169.791
-144.621
-122.467
-103.105
-86.3024
-71.8199
-59.4223
-48.881
-39.9777
-32.5078
-26.2814
-21.1255
-16.8836
-13.4161
-10.5996
-8.32648
-6.50347
-5.0506
-3.89994
-2.99429
-2.28589
-1.73518
-1.30967
-0.98292
-0.733519
-0.544311
-0.401632
-0.294686
-0.215003
-0.155986
-0.112535
-0.0807338
-0.0575958
-0.0408601
-0.0288259
-0.0202231
-0.0141091
-0.00978909
-0.00675449
-0.00463528
-0.00316409
-0.00214904
-0.00145335
-0.000980278
-0.000661997
-0.000451555
-0.000317078
-0.000237727
-0.000200983
-1389.12
-1380.75
-1364.17
-1339.67
-1307.7
-1268.83
-1223.73
-1173.16
-1117.96
-1059
-997.179
-933.381
-868.479
-803.304
-738.625
-675.146
-613.484
-554.174
-497.656
-444.28
-394.304
-347.901
-305.164
-266.114
-230.708
-198.846
-170.387
-145.152
-122.936
-103.516
-86.6587
-72.1261
-59.6833
-49.1017
-40.1629
-32.6619
-26.4088
-21.23
-16.9687
-13.4849
-10.6549
-8.37057
-6.5384
-5.0781
-3.92145
-3.011
-2.29879
-1.74507
-1.31722
-0.988635
-0.737822
-0.547531
-0.404027
-0.296456
-0.216304
-0.156936
-0.113225
-0.0812318
-0.0579531
-0.0411149
-0.0290067
-0.0203506
-0.0141984
-0.00985136
-0.00679764
-0.00466501
-0.00318447
-0.00216294
-0.00146278
-0.000986662
-0.000666323
-0.000454516
-0.000319165
-0.000239297
-0.000202313
-1387.32
-1379
-1362.51
-1338.14
-1306.33
-1267.65
-1222.76
-1172.41
-1117.43
-1058.69
-997.071
-933.461
-868.727
-803.695
-739.136
-675.75
-614.157
-554.892
-498.397
-445.026
-395.038
-348.611
-305.84
-266.748
-231.294
-199.382
-170.871
-145.585
-123.319
-103.852
-86.9499
-72.3769
-59.8974
-49.2829
-40.3151
-32.7888
-26.5138
-21.3162
-17.039
-13.5418
-10.7006
-8.40711
-6.56738
-5.10093
-3.93931
-3.0249
-2.30952
-1.75331
-1.3235
-0.9934
-0.741412
-0.550219
-0.406027
-0.297936
-0.217391
-0.157731
-0.113803
-0.0816488
-0.0582525
-0.0413286
-0.0291582
-0.0204574
-0.0142734
-0.00990362
-0.00683387
-0.00468998
-0.00320159
-0.00217461
-0.00147071
-0.000992028
-0.000669961
-0.000457007
-0.00032092
-0.000240617
-0.000203432
-1385.91
-1377.62
-1361.2
-1336.93
-1305.25
-1266.71
-1221.98
-1171.81
-1117
-1058.43
-996.971
-933.51
-868.91
-803.994
-739.531
-676.22
-614.684
-555.457
-498.983
-445.617
-395.623
-349.178
-306.381
-267.256
-231.764
-199.813
-171.261
-145.934
-123.629
-104.124
-87.1867
-72.581
-60.0719
-49.4309
-40.4396
-32.8927
-26.5999
-21.387
-17.0968
-13.5886
-10.7383
-8.43721
-6.59128
-5.11977
-3.95407
-3.03638
-2.3184
-1.76013
-1.32871
-0.99735
-0.744389
-0.552449
-0.407688
-0.299165
-0.218295
-0.158392
-0.114283
-0.0819958
-0.0585017
-0.0415065
-0.0292845
-0.0205465
-0.0143359
-0.00994721
-0.0068641
-0.00471083
-0.00321588
-0.00218436
-0.00147733
-0.000996512
-0.000673001
-0.000459089
-0.000322388
-0.000241722
-0.000204368
-1384.8
-1376.54
-1360.16
-1335.97
-1304.39
-1265.97
-1221.36
-1171.32
-1116.65
-1058.21
-996.882
-933.539
-869.045
-804.221
-739.835
-676.586
-615.095
-555.899
-499.444
-446.084
-396.086
-349.628
-306.811
-267.661
-232.141
-200.158
-171.575
-146.215
-123.879
-104.343
-87.378
-72.7462
-60.2134
-49.551
-40.5408
-32.9772
-26.67
-21.4447
-17.1439
-13.6268
-10.7691
-8.46186
-6.61086
-5.13522
-3.96619
-3.04581
-2.3257
-1.76574
-1.333
-1.0006
-0.746843
-0.554289
-0.409058
-0.30018
-0.219042
-0.158938
-0.11468
-0.0822828
-0.0587079
-0.0416538
-0.0293891
-0.0206204
-0.0143877
-0.00998335
-0.00688917
-0.00472812
-0.00322774
-0.00219245
-0.00148283
-0.00100024
-0.000675527
-0.00046082
-0.000323608
-0.000242641
-0.000205147
-1383.93
-1375.69
-1359.36
-1335.22
-1303.72
-1265.38
-1220.88
-1170.94
-1116.37
-1058.04
-996.805
-933.555
-869.144
-804.393
-740.068
-676.868
-615.415
-556.245
-499.805
-446.452
-396.451
-349.984
-307.152
-267.983
-232.44
-200.434
-171.825
-146.44
-124.079
-104.52
-87.5318
-72.8792
-60.3274
-49.6479
-40.6225
-33.0456
-26.7268
-21.4915
-17.1822
-13.6579
-10.7942
-8.48192
-6.62681
-5.14782
-3.97607
-3.05352
-2.33166
-1.77033
-1.3365
-1.00327
-0.748853
-0.555796
-0.410182
-0.301012
-0.219655
-0.159387
-0.115006
-0.0825188
-0.0588776
-0.041775
-0.0294752
-0.0206811
-0.0144303
-0.0100131
-0.00690983
-0.00474237
-0.00323752
-0.00219913
-0.00148737
-0.00100331
-0.000677613
-0.000462249
-0.000324616
-0.000243399
-0.00020579
-1383.25
-1375.03
-1358.73
-1334.64
-1303.19
-1264.92
-1220.49
-1170.63
-1116.15
-1057.89
-996.74
-933.562
-869.216
-804.523
-740.246
-677.085
-615.663
-556.514
-500.087
-446.739
-396.737
-350.263
-307.42
-268.237
-232.677
-200.652
-172.024
-146.619
-124.238
-104.66
-87.6547
-72.9856
-60.4188
-49.7257
-40.6882
-33.1006
-26.7725
-21.5292
-17.213
-13.683
-10.8144
-8.49815
-6.63972
-5.15803
-3.98408
-3.05977
-2.33651
-1.77406
-1.33936
-1.00543
-0.75049
-0.557025
-0.411098
-0.301691
-0.220155
-0.159753
-0.115273
-0.0827117
-0.0590162
-0.0418741
-0.0295456
-0.0207309
-0.0144653
-0.0100375
-0.00692676
-0.00475406
-0.00324554
-0.0022046
-0.00149109
-0.00100583
-0.000679324
-0.000463422
-0.000325444
-0.000244023
-0.000206318
-1382.72
-1374.51
-1358.24
-1334.18
-1302.78
-1264.57
-1220.19
-1170.39
-1115.97
-1057.78
-996.685
-933.563
-869.269
-804.62
-740.382
-677.252
-615.854
-556.722
-500.306
-446.963
-396.96
-350.482
-307.631
-268.436
-232.864
-200.824
-172.181
-146.761
-124.364
-104.772
-87.7523
-73.0703
-60.4915
-49.7878
-40.7406
-33.1446
-26.809
-21.5594
-17.2378
-13.7031
-10.8307
-8.5112
-6.65012
-5.16625
-3.99055
-3.06481
-2.34042
-1.77707
-1.34166
-1.00719
-0.751815
-0.558019
-0.411841
-0.302242
-0.220561
-0.16005
-0.115489
-0.0828683
-0.0591289
-0.0419546
-0.0296029
-0.0207714
-0.0144937
-0.0100574
-0.00694054
-0.00476357
-0.00325207
-0.00220907
-0.00149412
-0.00100789
-0.00068072
-0.000464378
-0.000326119
-0.000244531
-0.000206749
-1382.32
-1374.11
-1357.86
-1333.83
-1302.46
-1264.29
-1219.96
-1170.2
-1115.83
-1057.69
-996.64
-933.562
-869.307
-804.693
-740.485
-677.38
-616
-556.883
-500.475
-447.136
-397.134
-350.653
-307.795
-268.592
-233.01
-200.959
-172.304
-146.872
-124.464
-104.86
-87.8295
-73.1373
-60.5492
-49.837
-40.7823
-33.1796
-26.8382
-21.5835
-17.2575
-13.7192
-10.8437
-8.52163
-6.65844
-5.17283
-3.99572
-3.06886
-2.34356
-1.77949
-1.34351
-1.0086
-0.752881
-0.55882
-0.412438
-0.302685
-0.220888
-0.16029
-0.115664
-0.0829947
-0.0592199
-0.0420197
-0.0296491
-0.0208041
-0.0145167
-0.0100734
-0.0069517
-0.00477128
-0.00325736
-0.00221268
-0.00149658
-0.00100956
-0.000681851
-0.000465154
-0.000326667
-0.000244944
-0.000207099
-1382
-1373.81
-1357.56
-1333.56
-1302.21
-1264.07
-1219.77
-1170.06
-1115.72
-1057.61
-996.603
-933.559
-869.335
-804.748
-740.563
-677.477
-616.113
-557.006
-500.605
-447.27
-397.268
-350.785
-307.923
-268.714
-233.124
-201.065
-172.4
-146.959
-124.542
-104.929
-87.8902
-73.1901
-60.5947
-49.8758
-40.8151
-33.2072
-26.8612
-21.6025
-17.2732
-13.732
-10.854
-8.52992
-6.66505
-5.17808
-3.99985
-3.07208
-2.34606
-1.78142
-1.34499
-1.00972
-0.753733
-0.559461
-0.412917
-0.303041
-0.22115
-0.160482
-0.115804
-0.0830961
-0.0592929
-0.042072
-0.0296863
-0.0208304
-0.0145352
-0.0100863
-0.00696067
-0.00477748
-0.00326162
-0.00221559
-0.00149856
-0.0010109
-0.000682763
-0.00046578
-0.000327109
-0.000245277
-0.000207382
-1381.76
-1373.57
-1357.34
-1333.35
-1302.02
-1263.9
-1219.63
-1169.94
-1115.64
-1057.56
-996.573
-933.555
-869.354
-804.789
-740.622
-677.551
-616.198
-557.1
-500.705
-447.373
-397.372
-350.887
-308.021
-268.808
-233.212
-201.146
-172.475
-147.027
-124.603
-104.983
-87.9376
-73.2313
-60.6302
-49.9062
-40.8409
-33.2289
-26.8793
-21.6175
-17.2855
-13.742
-10.8621
-8.53647
-6.67028
-5.18222
-4.00311
-3.07463
-2.34804
-1.78295
-1.34617
-1.01062
-0.75441
-0.55997
-0.413298
-0.303323
-0.221359
-0.160636
-0.115916
-0.0831771
-0.0593512
-0.0421137
-0.029716
-0.0208514
-0.0145499
-0.0100967
-0.00696785
-0.00478244
-0.00326503
-0.00221792
-0.00150014
-0.00101197
-0.000683494
-0.000466281
-0.000327463
-0.000245544
-0.000207608
-1381.58
-1373.39
-1357.17
-1333.19
-1301.88
-1263.77
-1219.52
-1169.86
-1115.57
-1057.51
-996.549
-933.551
-869.368
-804.819
-740.666
-677.607
-616.263
-557.172
-500.782
-447.451
-397.451
-350.965
-308.097
-268.88
-233.28
-201.21
-172.533
-147.08
-124.65
-105.025
-87.9744
-73.2634
-60.658
-49.93
-40.8611
-33.2459
-26.8935
-21.6293
-17.2952
-13.7499
-10.8685
-8.54162
-6.6744
-5.18549
-4.00569
-3.07665
-2.34961
-1.78416
-1.34709
-1.01132
-0.754945
-0.560373
-0.413599
-0.303547
-0.221524
-0.160757
-0.116004
-0.0832412
-0.0593974
-0.0421468
-0.0297396
-0.0208681
-0.0145617
-0.0101049
-0.00697356
-0.00478638
-0.00326774
-0.00221977
-0.0015014
-0.00101283
-0.000684075
-0.00046668
-0.000327745
-0.000245756
-0.000207788
-1381.44
-1373.26
-1357.04
-1333.07
-1301.77
-1263.68
-1219.44
-1169.79
-1115.52
-1057.48
-996.531
-933.547
-869.378
-804.841
-740.699
-677.649
-616.312
-557.226
-500.84
-447.511
-397.512
-351.025
-308.155
-268.936
-233.333
-201.258
-172.578
-147.12
-124.686
-105.057
-88.0029
-73.2883
-60.6795
-49.9484
-40.8767
-33.2591
-26.9045
-21.6384
-17.3027
-13.7561
-10.8735
-8.54564
-6.67761
-5.18804
-4.0077
-3.07822
-2.35083
-1.78511
-1.34782
-1.01188
-0.755366
-0.56069
-0.413836
-0.303723
-0.221655
-0.160852
-0.116074
-0.0832918
-0.0594339
-0.042173
-0.0297582
-0.0208812
-0.014571
-0.0101114
-0.00697806
-0.0047895
-0.00326988
-0.00222124
-0.0015024
-0.00101351
-0.000684535
-0.000466996
-0.000327968
-0.000245924
-0.000207931
-1381.33
-1373.15
-1356.94
-1332.98
-1301.68
-1263.6
-1219.38
-1169.74
-1115.48
-1057.45
-996.516
-933.543
-869.385
-804.858
-740.723
-677.68
-616.349
-557.267
-500.883
-447.557
-397.557
-351.07
-308.2
-268.978
-233.373
-201.295
-172.612
-147.151
-124.714
-105.082
-88.0248
-73.3074
-60.696
-49.9626
-40.8888
-33.2693
-26.9131
-21.6455
-17.3086
-13.7609
-10.8774
-8.54876
-6.68011
-5.19002
-4.00926
-3.07945
-2.35179
-1.78585
-1.34839
-1.01231
-0.755694
-0.560937
-0.414021
-0.303861
-0.221756
-0.160927
-0.116129
-0.0833314
-0.0594624
-0.0421934
-0.0297728
-0.0208916
-0.0145782
-0.0101165
-0.0069816
-0.00479195
-0.00327157
-0.00222239
-0.00150319
-0.00101404
-0.000684897
-0.000467244
-0.000328143
-0.000246057
-0.000208044
-1381.25
-1373.07
-1356.86
-1332.91