/*--------------------------------*- C++ -*----------------------------------*\
  =========                 |
  \\      /  F ield         | OpenFOAM: The Open Source CFD Toolbox
   \\    /   O peration     | Website:  https://openfoam.org
    \\  /    A nd           | Version:  10
     \\/     M anipulation  |
\*---------------------------------------------------------------------------*/
FoamFile
{
    format      ascii;
    class       volScalarField;
    location    "1100";
    object      gradTz;
}
// * * * * * * * * * * * * * * * * * * * * * * * * * * * * * * * * * * * * * //

dimensions      [0 -1 0 1 0 0 0];

internalField   nonuniform List<scalar> 
11250
(
-14331.2
-4126.94
-1507.2
-704.432
-400.747
-260.345
-184.342
-138.321
-108.178
-87.2755
-72.1359
-60.7848
-52.0292
-45.1127
-39.5361
-34.959
-31.1431
-27.9176
-25.1573
-22.7689
-20.682
-18.8426
-17.2085
-15.7469
-14.4316
-13.2415
-12.16
-11.173
-10.2693
-9.4396
-8.67597
-7.97185
-7.32165
-6.72057
-6.16449
-5.6498
-5.17332
-4.73224
-4.32405
-3.94646
-3.59742
-3.27501
-2.97748
-2.70322
-2.45069
-2.21847
-2.00522
-1.80968
-1.63064
-1.46698
-1.31764
-1.18158
-1.05786
-0.945562
-0.843836
-0.751873
-0.668912
-0.594241
-0.527193
-0.467146
-0.413521
-0.365782
-0.323434
-0.286024
-0.253139
-0.224402
-0.199477
-0.178062
-0.159893
-0.14474
-0.132408
-0.122735
-0.115592
-0.110883
-0.108544
-8197.75
-4796.27
-2704.58
-1614.19
-1038.93
-716.61
-523.017
-399.061
-315.272
-256.042
-212.599
-179.74
-154.232
-133.983
-117.595
-104.104
-92.8291
-83.2795
-75.0934
-68.0006
-61.7958
-56.3211
-51.4535
-47.0963
-43.1727
-39.621
-36.3913
-33.4428
-30.7423
-28.2619
-25.9784
-23.8724
-21.9272
-20.1287
-18.4644
-16.9238
-15.4974
-14.1768
-12.9546
-11.8239
-10.7785
-9.81286
-8.92168
-8.10012
-7.34362
-6.64793
-6.00904
-5.42317
-4.88674
-4.39638
-3.94886
-3.54117
-3.17043
-2.83391
-2.52907
-2.25347
-2.00485
-1.78107
-1.58013
-1.40017
-1.23945
-1.09637
-0.969447
-0.857324
-0.75876
-0.672629
-0.597922
-0.533736
-0.479278
-0.43386
-0.396897
-0.367902
-0.346492
-0.332378
-0.325368
-5465.7
-4155.74
-2900.59
-2008.73
-1424.1
-1044.07
-791.977
-619.561
-497.736
-408.955
-342.417
-291.288
-251.123
-218.947
-192.716
-170.997
-152.76
-137.253
-123.917
-112.331
-102.171
-93.1889
-85.1893
-78.0181
-71.5522
-65.6927
-60.3593
-55.4864
-51.0199
-46.9148
-43.1336
-39.6445
-36.4204
-33.4381
-30.6777
-28.1216
-25.7543
-23.5621
-21.5327
-19.6549
-17.9186
-16.3144
-14.8337
-13.4685
-12.2113
-11.055
-9.99308
-9.01917
-8.12737
-7.31209
-6.56801
-5.8901
-5.27359
-4.71398
-4.207
-3.74865
-3.33515
-2.96294
-2.62872
-2.32938
-2.06204
-1.82403
-1.6129
-1.42638
-1.26241
-1.11913
-0.994842
-0.88806
-0.797461
-0.7219
-0.660403
-0.612166
-0.576545
-0.553063
-0.5414
-4043.46
-3460.26
-2733.16
-2095.89
-1604.53
-1243.45
-981.135
-789.346
-647.041
-539.518
-456.723
-391.78
-339.941
-297.887
-263.258
-234.349
-209.911
-189.015
-170.96
-155.211
-141.354
-129.068
-118.099
-108.244
-99.3422
-91.262
-83.897
-77.1595
-70.9772
-65.2899
-60.0468
-55.2052
-50.7285
-46.5853
-42.7483
-39.1937
-35.9003
-32.8494
-30.0242
-27.4093
-24.9908
-22.7559
-20.6926
-18.7898
-17.0373
-15.4252
-13.9444
-12.5862
-11.3424
-10.2052
-9.16715
-8.22136
-7.36117
-6.58031
-5.87285
-5.2332
-4.6561
-4.13661
-3.6701
-3.25227
-2.87909
-2.54685
-2.25211
-1.99172
-1.7628
-1.56276
-1.38924
-1.24015
-1.11365
-1.00815
-0.922283
-0.854929
-0.805192
-0.772404
-0.756119
-3204.23
-2908.48
-2475.69
-2036.96
-1654.48
-1343.89
-1099.59
-909.479
-761.4
-645.202
-553.037
-479.035
-418.855
-369.297
-327.985
-293.148
-263.451
-237.879
-215.652
-196.165
-178.947
-163.622
-149.897
-137.531
-126.334
-116.149
-106.849
-98.3275
-90.4972
-83.2849
-76.6287
-70.4763
-64.7827
-59.5094
-54.6225
-50.0926
-45.8935
-42.0017
-38.3963
-35.058
-31.9694
-29.1144
-26.4779
-24.046
-21.8055
-19.7442
-17.8504
-16.1131
-14.5219
-13.0668
-11.7386
-10.5281
-9.42716
-8.4276
-7.52192
-6.70299
-5.96408
-5.29888
-4.7015
-4.16641
-3.68847
-3.26294
-2.88543
-2.55189
-2.25867
-2.00241
-1.78012
-1.58913
-1.42707
-1.29191
-1.1819
-1.09561
-1.03189
-0.989877
-0.969014
-2660.48
-2493.49
-2223.91
-1921.52
-1632.31
-1377.8
-1163.61
-987.363
-843.671
-726.656
-631.007
-552.3
-486.996
-432.321
-386.115
-346.702
-312.778
-283.326
-257.547
-234.811
-214.618
-196.568
-180.338
-165.667
-152.344
-140.195
-129.076
-118.869
-109.473
-100.806
-92.7966
-85.3848
-78.5187
-72.1536
-66.2501
-60.774
-55.6944
-50.9839
-46.6178
-42.5733
-38.8298
-35.3681
-32.1703
-29.2197
-26.5007
-23.9985
-21.6991
-19.5892
-17.6564
-15.8887
-14.2748
-12.8039
-11.4657
-10.2507
-9.14971
-8.15405
-7.25559
-6.44669
-5.7202
-5.0694
-4.48809
-3.97048
-3.51125
-3.1055
-2.74877
-2.437
-2.16654
-1.93415
-1.73697
-1.5725
-1.43864
-1.33364
-1.25609
-1.20497
-1.17959
-2283.39
-2180.77
-2004.63
-1792.58
-1575.13
-1371.11
-1189.41
-1032.42
-899.013
-786.508
-691.813
-611.956
-544.323
-486.71
-437.305
-394.637
-357.523
-325.009
-296.329
-270.865
-248.117
-227.68
-209.223
-192.477
-177.218
-163.262
-150.458
-138.676
-127.81
-117.769
-108.476
-99.865
-91.878
-84.4658
-77.5849
-71.1965
-65.2663
-59.7633
-54.6596
-49.9293
-45.5489
-41.4964
-37.7514
-34.2947
-31.1083
-28.1751
-25.4789
-23.0044
-20.737
-18.6628
-16.7688
-15.0422
-13.4713
-12.0448
-10.7519
-9.58255
-8.52727
-7.57708
-6.7236
-5.95899
-5.27595
-4.66772
-4.12805
-3.6512
-3.23192
-2.86548
-2.54758
-2.27441
-2.04261
-1.84927
-1.69191
-1.56846
-1.4773
-1.4172
-1.38735
-2008.56
-1941.18
-1820.9
-1668.68
-1504.17
-1341.76
-1190.18
-1053.59
-933.15
-828.271
-737.519
-659.15
-591.412
-532.694
-481.582
-436.869
-397.54
-362.754
-331.814
-304.143
-279.267
-256.796
-236.404
-217.824
-200.831
-185.24
-170.893
-157.66
-145.428
-134.103
-123.603
-113.859
-104.809
-96.3998
-88.5851
-81.3229
-74.5759
-68.3102
-62.495
-57.1021
-52.1053
-47.4803
-43.2043
-39.2559
-35.6148
-32.2619
-29.1791
-26.3489
-23.755
-21.3816
-19.2138
-17.2373
-15.4387
-13.8051
-12.3243
-10.9849
-9.77593
-8.68724
-7.70924
-6.83299
-6.05015
-5.35298
-4.73435
-4.18769
-3.707
-3.28686
-2.92235
-2.60912
-2.34331
-2.1216
-1.94113
-1.79956
-1.69501
-1.62609
-1.59186
-1800.68
-1754.08
-1668.68
-1556.67
-1430.68
-1301.2
-1175.58
-1058.25
-951.383
-855.586
-770.543
-695.436
-629.229
-570.846
-519.26
-473.541
-432.868
-396.534
-363.935
-334.557
-307.972
-283.814
-261.78
-241.611
-223.093
-206.043
-190.305
-175.748
-162.261
-149.747
-138.123
-127.317
-117.266
-107.915
-99.2144
-91.1205
-83.5937
-76.5979
-70.1002
-64.0703
-58.4798
-53.3025
-48.5134
-44.0892
-40.0078
-36.248
-32.7898
-29.6141
-26.7026
-24.038
-21.6036
-19.3837
-17.363
-15.5274
-13.8633
-12.3577
-10.9986
-9.77454
-8.67481
-7.68937
-6.80889
-6.0247
-5.32878
-4.71377
-4.17294
-3.7002
-3.29003
-2.93754
-2.63841
-2.38889
-2.18578
-2.02644
-1.90877
-1.83119
-1.79266
-1638.9
-1605.31
-1542.59
-1458.16
-1360.25
-1256.33
-1152.25
-1052.05
-958.156
-871.785
-793.296
-722.509
-658.938
-601.946
-550.847
-504.972
-463.692
-426.444
-392.727
-362.105
-334.2
-308.69
-285.296
-263.782
-243.944
-225.612
-208.635
-192.887
-178.258
-164.654
-151.991
-140.199
-129.213
-118.978
-109.442
-100.561
-92.294
-84.6032
-77.4541
-70.8148
-64.6553
-58.9475
-53.6649
-48.7824
-44.276
-40.1232
-36.3021
-32.7919
-29.5727
-26.6257
-23.9326
-21.4761
-19.2397
-17.2077
-15.3651
-13.6978
-12.1925
-10.8365
-9.61815
-8.52624
-7.55052
-6.6814
-5.91004
-5.2283
-4.62874
-4.10461
-3.64984
-3.25899
-2.92729
-2.65058
-2.42534
-2.24863
-2.11812
-2.03208
-1.98935
-1510.18
-1485.11
-1437.7
-1372.6
-1295.31
-1211.13
-1124.59
-1039.09
-956.98
-879.699
-807.97
-742.022
-681.754
-626.868
-576.961
-531.588
-490.301
-452.672
-418.307
-386.849
-357.981
-331.426
-306.94
-284.31
-263.354
-243.912
-225.847
-209.039
-193.383
-178.788
-165.175
-152.473
-140.62
-129.56
-119.242
-109.621
-100.655
-92.3064
-84.5388
-77.3193
-70.6168
-64.4018
-58.6465
-53.3242
-48.4097
-43.8786
-39.7078
-35.875
-32.3588
-29.1389
-26.1955
-23.5101
-21.0647
-18.8423
-16.8266
-15.0024
-13.3551
-11.871
-10.5373
-9.34186
-8.2735
-7.32174
-6.47695
-5.73024
-5.07348
-4.4993
-4.00106
-3.57283
-3.20938
-2.90617
-2.65934
-2.46569
-2.32267
-2.22838
-2.18155
-1405.93
-1386.68
-1349.92
-1298.67
-1236.69
-1167.77
-1095.35
-1022.23
-950.508
-881.619
-816.453
-755.476
-698.842
-646.5
-598.265
-553.88
-513.049
-475.471
-440.85
-408.909
-379.393
-352.07
-326.735
-303.205
-281.318
-260.933
-241.925
-224.184
-207.613
-192.127
-177.651
-164.117
-151.465
-139.641
-128.595
-118.282
-108.66
-99.6914
-91.3394
-83.5702
-76.3519
-69.6541
-63.4478
-57.7053
-52.4
-47.5064
-43
-38.8572
-35.0552
-31.5724
-28.3879
-25.4816
-22.8343
-20.4279
-18.2449
-16.2689
-14.4841
-12.8759
-11.4304
-10.1347
-8.97643
-7.9445
-7.02844
-6.21864
-5.50632
-4.88352
-4.34304
-3.87847
-3.48415
-3.15518
-2.88736
-2.67724
-2.52204
-2.41972
-2.3689
-1320.28
-1305.13
-1275.98
-1234.87
-1184.4
-1127.32
-1066.26
-1003.45
-940.691
-879.334
-820.301
-764.173
-711.262
-661.686
-615.421
-572.357
-532.325
-495.133
-460.574
-428.444
-398.546
-370.699
-344.734
-320.499
-297.856
-276.682
-256.868
-238.317
-220.94
-204.659
-189.406
-175.117
-161.734
-149.207
-137.487
-126.53
-116.296
-106.746
-97.8442
-89.5565
-81.8504
-74.695
-68.0603
-61.9178
-56.24
-51.0002
-46.1728
-41.733
-37.6571
-33.922
-30.5057
-27.3869
-24.5454
-21.9618
-19.6175
-17.495
-15.5776
-13.8495
-12.296
-10.9032
-9.6581
-8.54859
-7.56353
-6.69264
-5.92652
-5.2566
-4.67518
-4.17539
-3.75114
-3.39718
-3.10901
-2.8829
-2.7159
-2.60579
-2.5511
-1249.07
-1236.9
-1213.32
-1179.76
-1138.06
-1090.24
-1038.29
-984.019
-928.925
-874.208
-820.761
-769.207
-719.944
-673.196
-629.055
-587.52
-548.526
-511.968
-477.717
-445.636
-415.582
-387.418
-361.014
-336.247
-313.005
-291.185
-270.693
-251.446
-233.365
-216.383
-200.436
-185.465
-171.419
-158.248
-145.908
-134.356
-123.553
-113.461
-104.045
-95.27
-87.1046
-79.5171
-72.4771
-65.9554
-59.9236
-54.3544
-49.2211
-44.498
-40.1603
-36.1839
-32.5456
-29.2232
-26.1953
-23.4415
-20.9422
-18.6788
-16.6337
-14.7903
-13.1327
-11.6464
-10.3174
-9.13304
-8.08139
-7.15151
-6.3334
-5.61795
-4.99697
-4.46312
-4.00993
-3.6318
-3.32393
-3.08236
-2.90393
-2.78628
-2.72785
-1189.31
-1179.33
-1159.91
-1132.07
-1097.13
-1056.6
-1012.01
-964.79
-916.19
-867.257
-818.812
-771.473
-725.676
-681.707
-639.737
-599.842
-562.037
-526.287
-492.53
-460.683
-430.654
-402.347
-375.666
-350.519
-326.818
-304.479
-283.427
-263.59
-244.903
-227.306
-210.744
-195.163
-180.518
-166.762
-153.855
-141.755
-130.426
-119.831
-109.935
-100.705
-92.109
-84.1152
-76.6931
-69.8132
-63.4465
-57.5649
-52.1412
-47.1486
-42.5616
-38.355
-34.5049
-30.9879
-27.7817
-24.865
-22.2171
-19.8187
-17.6511
-15.6968
-13.9393
-12.363
-10.9534
-9.69704
-8.58128
-7.59459
-6.7264
-5.96708
-5.30795
-4.74125
-4.26015
-3.8587
-3.53183
-3.27534
-3.08588
-2.96096
-2.89891
-1138.73
-1130.41
-1114.16
-1090.71
-1061.05
-1026.31
-987.669
-946.275
-903.162
-859.226
-815.207
-771.689
-729.116
-687.806
-647.975
-609.756
-573.221
-538.393
-505.259
-473.787
-443.926
-415.617
-388.796
-363.399
-339.36
-316.617
-295.109
-274.78
-255.575
-237.445
-220.341
-204.219
-189.036
-174.751
-161.327
-148.726
-136.913
-125.853
-115.512
-105.859
-96.8602
-88.4859
-80.7051
-73.4881
-66.8055
-60.6288
-54.9302
-49.6822
-44.8585
-40.4332
-36.3814
-32.6791
-29.3029
-26.2306
-23.4409
-20.9133
-18.6285
-16.5681
-14.7148
-13.0523
-11.5654
-10.2399
-9.0626
-8.02135
-7.10504
-6.30354
-5.60774
-5.00946
-4.5015
-4.07761
-3.73245
-3.46159
-3.26152
-3.12959
-3.06407
-1095.63
-1088.59
-1074.78
-1054.76
-1029.26
-999.146
-965.348
-928.778
-890.291
-850.653
-810.517
-770.424
-730.804
-691.985
-654.21
-617.649
-582.413
-548.569
-516.145
-485.148
-455.563
-427.364
-400.515
-374.976
-350.704
-327.655
-305.785
-285.051
-265.409
-246.82
-229.245
-212.644
-196.982
-182.222
-168.33
-155.273
-143.016
-131.528
-120.776
-110.73
-101.357
-92.6276
-84.5113
-76.9781
-69.9987
-63.5442
-57.5862
-52.0969
-47.0493
-42.4168
-38.1737
-34.2953
-30.7575
-27.5372
-24.6123
-21.9616
-19.565
-17.4033
-15.4585
-13.7136
-12.1528
-10.7611
-9.52488
-8.43135
-7.46893
-6.627
-5.89602
-5.26745
-4.73372
-4.2883
-3.92558
-3.64093
-3.43066
-3.29201
-3.22314
-1058.7
-1052.65
-1040.76
-1023.43
-1001.25
-974.868
-945.025
-912.457
-877.871
-841.917
-805.171
-768.121
-731.174
-694.656
-658.821
-623.86
-589.913
-557.076
-525.413
-494.958
-465.729
-437.725
-410.936
-385.345
-360.928
-337.659
-315.508
-294.445
-274.44
-255.461
-237.477
-220.457
-204.37
-189.185
-174.872
-161.4
-148.739
-136.859
-125.729
-115.32
-105.6
-96.5407
-88.1115
-80.2829
-73.0255
-66.3103
-60.1085
-54.3919
-49.1331
-44.3048
-39.8809
-35.8358
-32.1448
-28.784
-25.7307
-22.963
-20.46
-18.2018
-16.1699
-14.3465
-12.7151
-11.2603
-9.96774
-8.82428
-7.81778
-6.9372
-6.17257
-5.51501
-4.95662
-4.49058
-4.11105
-3.8132
-3.59316
-3.44807
-3.376
-1026.9
-1021.63
-1011.25
-996.082
-976.558
-953.209
-926.615
-897.377
-866.082
-833.284
-799.483
-765.121
-730.575
-696.158
-662.127
-628.683
-595.985
-564.152
-533.269
-503.397
-474.577
-446.832
-420.172
-394.601
-370.112
-346.695
-324.334
-303.011
-282.706
-263.398
-245.064
-227.678
-211.217
-195.654
-180.963
-167.118
-154.09
-141.852
-130.375
-119.632
-109.592
-100.227
-91.507
-83.4033
-75.8864
-68.9272
-62.4969
-56.5671
-51.1096
-46.097
-41.5025
-37.3
-33.4642
-29.9706
-26.7957
-23.9171
-21.3131
-18.9634
-16.8486
-14.9505
-13.252
-11.7371
-10.3909
-9.1999
-8.15138
-7.23393
-6.43722
-5.75198
-5.17005
-4.68433
-4.28874
-3.97827
-3.74891
-3.59766
-3.52253
-999.396
-994.75
-985.586
-972.15
-954.785
-933.912
-910
-883.542
-855.028
-824.929
-793.683
-761.685
-729.279
-696.765
-664.393
-632.37
-600.863
-570.006
-539.902
-510.632
-482.255
-454.812
-428.335
-402.84
-378.338
-354.832
-332.321
-310.797
-290.25
-270.668
-252.035
-234.333
-217.544
-201.646
-186.619
-172.437
-159.077
-146.514
-134.721
-123.671
-113.336
-103.689
-94.7002
-86.3411
-78.5828
-71.3962
-64.7525
-58.6229
-52.9792
-47.7936
-43.0388
-38.6881
-34.7158
-31.0969
-27.8072
-24.8236
-22.1242
-19.6878
-17.4945
-15.5256
-13.7634
-12.1914
-10.7944
-9.55809
-8.46962
-7.51711
-6.68985
-5.97827
-5.37393
-4.86945
-4.45857
-4.13608
-3.89783
-3.74071
-3.66267
-975.53
-971.388
-963.204
-951.173
-935.571
-916.734
-895.048
-870.918
-844.757
-816.968
-787.935
-758.007
-727.503
-696.701
-665.842
-635.133
-604.746
-574.824
-545.483
-516.816
-488.898
-461.787
-435.528
-410.152
-385.685
-362.14
-339.529
-317.854
-297.114
-277.306
-258.421
-240.447
-223.373
-207.181
-191.854
-177.371
-163.713
-150.855
-138.774
-127.444
-116.839
-106.932
-97.6949
-89.0995
-81.1172
-73.7192
-66.8766
-60.5608
-54.7431
-49.3955
-44.4903
-40.0006
-35.9
-32.1631
-28.7653
-25.6829
-22.8933
-20.375
-18.1076
-16.0717
-14.2492
-12.6232
-11.1779
-9.89882
-8.77246
-7.78667
-6.93042
-6.19384
-5.56821
-5.04592
-4.6205
-4.28659
-4.03988
-3.87719
-3.79637
-954.759
-951.026
-943.64
-932.759
-918.604
-901.452
-881.62
-859.446
-835.28
-809.47
-782.35
-754.235
-725.412
-696.141
-666.654
-637.151
-607.807
-578.768
-550.159
-522.085
-494.631
-467.868
-441.851
-416.627
-392.23
-368.686
-346.016
-324.233
-303.343
-283.351
-264.255
-246.05
-228.728
-212.278
-196.686
-181.936
-168.009
-154.886
-142.543
-130.959
-120.107
-109.961
-100.496
-91.6823
-83.4929
-75.899
-68.8718
-62.3825
-56.4027
-50.9038
-45.8582
-41.2383
-37.0175
-33.1699
-29.6705
-26.4952
-23.6209
-21.0255
-18.6881
-16.589
-14.7097
-13.0327
-11.5418
-10.2221
-9.05995
-8.04267
-7.15898
-6.39871
-5.7529
-5.21373
-4.77454
-4.42979
-4.17507
-4.00709
-3.92364
-936.635
-933.237
-926.507
-916.571
-903.614
-887.863
-869.581
-849.056
-826.586
-802.471
-777.007
-750.473
-723.133
-695.228
-666.977
-638.574
-610.191
-581.978
-554.065
-526.564
-499.568
-473.157
-447.398
-422.347
-398.047
-374.536
-351.841
-329.985
-308.982
-288.842
-269.571
-251.17
-233.635
-216.96
-201.135
-186.147
-171.98
-158.618
-146.04
-134.224
-123.146
-112.783
-103.108
-94.0943
-85.714
-77.939
-70.7408
-64.0907
-57.9601
-52.3205
-47.1439
-42.4025
-38.0694
-34.1183
-30.5237
-27.2613
-24.3073
-21.6395
-19.2364
-17.0779
-15.145
-13.4199
-11.8861
-10.5282
-9.3322
-8.2852
-7.37558
-6.59294
-5.92807
-5.37294
-4.92072
-4.56572
-4.30343
-4.13044
-4.0445
-920.788
-917.666
-911.477
-902.325
-890.363
-875.781
-858.803
-839.672
-818.645
-795.985
-771.953
-746.799
-720.764
-694.072
-666.929
-639.523
-612.021
-584.574
-557.315
-530.359
-503.808
-477.748
-452.254
-427.389
-403.207
-379.752
-357.06
-335.159
-314.073
-293.818
-274.404
-255.837
-238.12
-221.249
-205.22
-190.021
-175.641
-162.065
-149.274
-137.249
-125.967
-115.405
-105.539
-96.3409
-87.785
-79.8432
-72.4871
-65.6883
-59.418
-53.6477
-48.3493
-43.4948
-39.0569
-35.0092
-31.3258
-27.9818
-24.9534
-22.2177
-19.753
-17.5388
-15.5556
-13.7853
-12.2111
-10.8173
-9.58941
-8.51441
-7.58038
-6.77665
-6.0938
-5.52363
-5.05912
-4.69446
-4.425
-4.24729
-4.15901
-906.908
-904.015
-898.275
-889.775
-878.644
-865.044
-849.165
-831.215
-811.42
-790.01
-767.215
-743.265
-718.377
-692.76
-666.608
-640.101
-613.402
-586.66
-560.01
-533.569
-507.443
-481.725
-456.496
-431.826
-407.775
-384.393
-361.725
-339.805
-318.661
-298.316
-278.786
-260.081
-242.209
-225.17
-208.962
-193.578
-179.008
-165.24
-152.259
-140.044
-128.577
-117.835
-107.794
-98.4281
-89.7113
-81.6161
-74.1147
-67.1785
-60.7791
-54.8879
-49.4766
-44.517
-39.9819
-35.8442
-32.0779
-28.658
-25.56
-22.7609
-20.2386
-17.9721
-15.9418
-14.1292
-12.5171
-11.0895
-9.83181
-8.73053
-7.77354
-6.94999
-6.25024
-5.66591
-5.18984
-4.81608
-4.5399
-4.35774
-4.26725
-894.733
-892.031
-886.665
-878.711
-868.278
-855.504
-840.554
-823.609
-804.866
-784.53
-762.808
-739.906
-716.025
-691.359
-666.09
-640.39
-614.42
-588.323
-562.235
-536.276
-510.554
-485.165
-460.197
-435.723
-411.81
-388.515
-365.887
-343.965
-322.785
-302.373
-282.751
-263.932
-245.928
-228.744
-212.381
-196.834
-182.097
-168.159
-155.006
-142.622
-130.987
-120.082
-109.881
-100.362
-91.4984
-83.2627
-75.6277
-68.5653
-62.0468
-56.044
-50.5282
-45.4714
-40.8459
-36.6248
-32.7816
-29.2909
-26.1281
-23.2699
-20.6938
-18.3786
-16.3043
-14.4522
-12.8046
-11.3455
-10.0597
-8.93381
-7.95532
-7.11317
-6.39757
-5.79995
-5.31303
-4.93073
-4.64822
-4.46189
-4.36932
-884.04
-881.498
-876.447
-868.951
-859.106
-847.03
-832.868
-816.779
-798.938
-779.527
-758.733
-736.744
-713.746
-689.918
-665.435
-640.46
-615.146
-589.637
-564.066
-538.554
-513.21
-488.135
-463.419
-439.14
-415.37
-392.17
-369.593
-347.686
-326.486
-306.026
-286.33
-267.418
-249.304
-231.996
-215.497
-199.808
-184.923
-170.834
-157.528
-144.992
-133.207
-122.153
-111.809
-102.15
-93.1522
-84.7882
-77.0309
-69.8525
-63.2246
-57.1189
-51.5068
-46.3602
-41.6512
-37.3527
-33.4382
-29.8818
-26.6589
-23.7458
-21.1196
-18.7591
-16.6438
-14.7547
-13.0741
-11.5854
-10.2735
-9.12457
-8.12597
-7.26643
-6.53599
-5.92593
-5.42885
-5.03855
-4.75012
-4.55988
-4.46536
-874.641
-872.234
-867.447
-860.338
-850.989
-839.505
-826.013
-810.656
-793.587
-774.973
-754.983
-733.79
-711.565
-688.478
-664.692
-640.363
-615.64
-590.664
-565.566
-540.466
-515.475
-490.696
-466.221
-442.132
-418.505
-395.404
-372.888
-351.005
-329.8
-309.307
-289.555
-270.568
-252.361
-234.947
-218.333
-202.519
-187.504
-173.28
-159.839
-147.166
-135.246
-124.059
-113.584
-103.799
-94.6792
-86.198
-78.329
-71.0444
-64.3162
-58.1159
-52.4152
-47.1859
-42.3999
-38.03
-34.0494
-30.4323
-27.1537
-24.1896
-21.517
-19.1143
-16.9608
-15.0374
-13.326
-11.8098
-10.4736
-9.30317
-8.2858
-7.41003
-6.66573
-6.04407
-5.53748
-5.13971
-4.84575
-4.65185
-4.55552
-866.373
-864.079
-859.516
-852.734
-843.806
-832.826
-819.905
-805.173
-788.768
-770.842
-751.549
-731.049
-709.502
-687.066
-663.897
-640.144
-615.952
-591.457
-566.789
-542.067
-517.403
-492.9
-468.653
-444.748
-421.261
-398.262
-375.811
-353.963
-332.763
-312.249
-292.455
-273.407
-255.124
-237.62
-220.906
-204.984
-189.854
-175.513
-161.951
-149.157
-137.115
-125.808
-115.216
-105.316
-96.0855
-87.4979
-79.527
-72.1455
-65.3255
-59.0386
-53.2566
-47.9511
-43.0943
-38.6586
-34.6171
-30.9439
-27.6138
-24.6025
-21.8869
-19.4451
-17.2563
-15.301
-13.561
-12.0193
-10.6604
-9.46999
-8.43515
-7.54427
-6.78707
-6.15458
-5.63915
-5.23441
-4.93529
-4.73798
-4.63996
-859.096
-856.898
-852.525
-846.02
-837.45
-826.898
-814.466
-800.27
-784.437
-767.104
-748.416
-728.519
-707.565
-685.702
-663.079
-639.839
-616.122
-592.06
-567.781
-543.404
-519.041
-494.795
-470.763
-447.032
-423.682
-400.784
-378.402
-356.593
-335.406
-314.883
-295.058
-275.962
-257.615
-240.036
-223.236
-207.221
-191.991
-177.546
-163.877
-150.974
-138.824
-127.41
-116.712
-106.709
-97.3779
-88.6936
-80.6301
-73.1603
-66.2564
-59.8904
-54.0339
-48.6587
-43.7368
-39.2406
-35.1431
-31.4182
-28.0406
-24.9857
-22.2304
-19.7525
-17.531
-15.5461
-13.7796
-12.2143
-10.8344
-9.62544
-8.57439
-7.66947
-6.90028
-6.25774
-5.73408
-5.32286
-5.01894
-4.81846
-4.71886
-852.689
-850.573
-846.36
-840.092
-831.827
-821.641
-809.627
-795.891
-780.55
-763.73
-745.566
-726.196
-705.76
-684.401
-662.26
-639.475
-616.181
-592.509
-568.582
-544.518
-520.431
-496.422
-472.59
-449.024
-425.804
-403.005
-380.694
-358.928
-337.761
-317.235
-297.39
-278.256
-259.858
-242.216
-225.342
-209.246
-193.93
-179.393
-165.63
-152.631
-140.384
-128.873
-118.08
-107.984
-98.5626
-89.7909
-81.6434
-74.0933
-67.1132
-60.675
-54.7505
-49.3115
-44.3299
-39.7782
-35.6294
-31.857
-28.4356
-25.3406
-22.5487
-20.0375
-17.7857
-15.7737
-13.9827
-12.3955
-10.9961
-9.76998
-8.7039
-7.78598
-7.00567
-6.3538
-5.82251
-5.40529
-5.09691
-4.89349
-4.79242
-847.047
-845
-840.925
-834.858
-826.853
-816.981
-805.325
-791.985
-777.068
-760.692
-742.983
-724.071
-704.089
-683.172
-661.456
-639.075
-616.158
-592.834
-569.223
-545.445
-521.608
-497.818
-474.171
-450.759
-427.663
-404.96
-382.719
-360.999
-339.855
-319.334
-299.475
-280.313
-261.873
-244.178
-227.242
-211.076
-195.684
-181.067
-167.221
-154.137
-141.804
-130.207
-119.329
-109.15
-99.6463
-90.7957
-82.5721
-74.9493
-67.8998
-61.3959
-55.4095
-49.9122
-44.8762
-40.2738
-36.0778
-32.2618
-28.8003
-25.6686
-22.843
-20.3011
-18.0215
-15.9843
-14.1707
-12.5633
-11.146
-9.90405
-8.82409
-7.89414
-7.10356
-6.44306
-5.90471
-5.48192
-5.16942
-4.96327
-4.86085
-842.078
-840.091
-836.132
-830.238
-822.456
-812.852
-801.504
-788.504
-773.953
-757.961
-740.647
-722.134
-702.549
-682.021
-660.68
-638.655
-616.073
-593.06
-569.734
-546.212
-522.603
-499.013
-475.537
-452.268
-429.289
-406.678
-384.505
-362.832
-341.715
-321.202
-301.337
-282.153
-263.68
-245.941
-228.953
-212.727
-197.269
-182.582
-168.663
-155.503
-143.094
-131.421
-120.466
-110.212
-100.635
-91.7136
-83.4214
-75.7328
-68.6205
-62.0569
-56.0141
-50.4639
-45.3782
-40.7294
-36.4904
-32.6346
-29.1364
-25.9708
-23.1144
-20.5443
-18.2392
-16.1789
-14.3446
-12.7186
-11.2847
-10.0281
-8.93538
-7.99434
-7.19427
-6.5258
-5.98094
-5.55301
-5.2367
-5.02804
-4.92436
-837.702
-835.765
-831.908
-826.16
-818.569
-809.195
-798.112
-785.406
-771.17
-755.512
-738.541
-720.375
-701.136
-680.949
-659.938
-638.228
-615.945
-593.208
-570.137
-546.846
-523.444
-500.035
-476.716
-453.579
-430.71
-408.186
-386.079
-364.452
-343.364
-322.864
-302.996
-283.797
-265.298
-247.522
-230.49
-214.212
-198.698
-183.95
-169.966
-156.741
-144.264
-132.522
-121.5
-111.178
-101.536
-92.5504
-84.1964
-76.4483
-69.2792
-62.6616
-56.5677
-50.9693
-45.8384
-41.1475
-36.8692
-32.9771
-29.4452
-26.2489
-23.3641
-20.7683
-18.4398
-16.3583
-14.5049
-12.8618
-11.4127
-10.1427
-9.03819
-8.08694
-7.27814
-6.60234
-6.05147
-5.61881
-5.29899
-5.08801
-4.98318
-833.85
-831.956
-828.184
-822.563
-815.136
-805.96
-795.105
-782.651
-768.689
-753.318
-736.645
-718.782
-699.847
-679.957
-659.236
-637.805
-615.785
-593.296
-570.453
-547.369
-524.153
-500.908
-477.733
-454.718
-431.95
-409.508
-387.463
-365.882
-344.823
-324.338
-304.472
-285.263
-266.743
-248.938
-231.868
-215.547
-199.984
-185.183
-171.143
-157.859
-145.322
-133.52
-122.437
-112.056
-102.355
-93.3116
-84.9019
-77.1003
-69.8799
-63.2135
-57.0733
-51.4313
-46.2594
-41.5302
-37.2162
-33.2909
-29.7285
-26.504
-23.5934
-20.974
-18.6241
-16.5232
-14.6523
-12.9936
-11.5306
-10.2483
-9.13296
-8.17233
-7.35551
-6.67298
-6.11659
-5.67957
-5.35653
-5.14341
-5.03752
-830.459
-828.602
-824.904
-819.39
-812.104
-803.099
-792.44
-780.204
-766.479
-751.358
-734.943
-717.344
-698.673
-679.045
-658.579
-637.394
-615.607
-593.336
-570.696
-547.798
-524.749
-501.654
-478.608
-455.705
-433.031
-410.665
-388.68
-367.143
-346.114
-325.645
-305.783
-286.568
-268.032
-250.203
-233.102
-216.744
-201.139
-186.292
-172.202
-158.867
-146.277
-134.422
-123.286
-112.851
-103.097
-94.0024
-85.5429
-77.6931
-70.4266
-63.7162
-57.5342
-51.8527
-46.6437
-41.8797
-37.5333
-33.578
-29.9877
-26.7376
-23.8035
-21.1626
-18.7931
-16.6746
-14.7877
-13.1147
-11.6389
-10.3453
-9.22011
-8.25091
-7.42674
-6.73802
-6.17657
-5.73556
-5.40956
-5.19449
-5.08762
-827.475
-825.65
-822.015
-816.595
-809.43
-800.571
-790.081
-778.034
-764.513
-749.608
-733.419
-716.049
-697.608
-678.21
-657.967
-636.998
-615.417
-593.34
-570.881
-548.149
-525.251
-502.289
-479.362
-456.56
-433.972
-411.676
-389.748
-368.253
-347.253
-326.802
-306.947
-287.728
-269.181
-251.332
-234.205
-217.815
-202.174
-187.287
-173.155
-159.774
-147.138
-135.235
-124.051
-113.569
-103.769
-94.6282
-86.124
-78.2311
-70.9231
-64.1731
-57.9534
-52.2362
-46.9937
-42.1983
-37.8226
-33.8399
-30.2244
-26.951
-23.9955
-21.3351
-18.9478
-16.8131
-14.9117
-13.2256
-11.7383
-10.4344
-9.30009
-8.32304
-7.49215
-6.79779
-6.2317
-5.78704
-5.45833
-5.24147
-5.13371
-824.85
-823.053
-819.472
-814.132
-807.071
-798.339
-787.995
-776.111
-762.766
-748.049
-732.055
-714.885
-696.646
-677.447
-657.401
-636.622
-615.223
-593.318
-571.019
-548.435
-525.671
-502.83
-480.009
-457.301
-434.791
-412.56
-390.684
-369.229
-348.257
-327.824
-307.977
-288.757
-270.201
-252.337
-235.189
-218.772
-203.1
-188.178
-174.009
-160.589
-147.912
-135.968
-124.742
-114.217
-104.375
-95.1937
-86.6497
-78.7181
-71.3729
-64.5873
-58.3338
-52.5845
-47.3118
-42.488
-38.0857
-34.0784
-30.44
-27.1455
-24.1707
-21.4925
-19.089
-16.9397
-15.0251
-13.3271
-11.8291
-10.5158
-9.37333
-8.38911
-7.55209
-6.85257
-6.28227
-5.83427
-5.50309
-5.28458
-5.17602
-822.544
-820.77
-817.236
-811.965
-804.994
-796.37
-786.152
-774.409
-761.217
-746.662
-730.838
-713.842
-695.779
-676.755
-656.881
-636.268
-615.03
-593.277
-571.12
-548.667
-526.023
-503.29
-480.565
-457.94
-435.502
-413.331
-391.503
-370.086
-349.142
-328.726
-308.888
-289.67
-271.108
-253.231
-236.065
-219.626
-203.927
-188.976
-174.774
-161.32
-148.607
-136.626
-125.363
-114.801
-104.922
-95.7039
-87.1242
-79.1581
-71.7797
-64.9622
-58.6783
-52.9002
-47.6003
-42.7508
-38.3247
-34.2951
-30.6361
-27.3225
-24.3301
-21.6358
-19.2177
-17.0551
-15.1284
-13.4196
-11.912
-10.5902
-9.44023
-8.44951
-7.60691
-6.90269
-6.32853
-5.8775
-5.54406
-5.32407
-5.21476
-820.518
-818.765
-815.27
-810.059
-803.165
-794.635
-784.526
-772.904
-759.844
-745.431
-729.754
-712.909
-694.999
-676.128
-656.404
-635.938
-614.841
-593.222
-571.19
-548.854
-526.317
-503.681
-481.043
-458.493
-436.12
-414.003
-392.22
-370.837
-349.919
-329.521
-309.692
-290.476
-271.911
-254.025
-236.844
-220.386
-204.665
-189.687
-175.458
-161.974
-149.23
-137.216
-125.92
-115.325
-105.413
-96.1631
-87.5518
-79.5549
-72.1468
-65.3007
-58.9896
-53.1856
-47.8613
-42.9889
-38.5412
-34.4915
-30.8139
-27.4831
-24.4748
-21.766
-19.3347
-17.16
-15.2224
-13.5039
-11.9876
-10.658
-9.50123
-8.50459
-7.65692
-6.94844
-6.37078
-5.91699
-5.5815
-5.36015
-5.25016
-818.739
-817.004
-813.544
-808.383
-801.556
-793.107
-783.092
-771.575
-758.63
-744.339
-728.789
-712.076
-694.299
-675.562
-655.97
-635.633
-614.659
-593.157
-571.237
-549.005
-526.563
-504.013
-481.452
-458.97
-436.655
-414.589
-392.846
-371.495
-350.601
-330.22
-310.401
-291.189
-272.621
-254.728
-237.535
-221.061
-205.321
-190.322
-176.068
-162.558
-149.786
-137.744
-126.419
-115.795
-105.854
-96.5756
-87.9361
-79.9119
-72.4773
-65.6058
-59.2703
-53.4432
-48.097
-43.2039
-38.7369
-34.6692
-30.9748
-27.6285
-24.606
-21.8841
-19.4408
-17.2552
-15.3078
-13.5805
-12.0562
-10.7197
-9.55671
-8.55472
-7.70245
-6.9901
-6.40927
-5.95297
-5.61563
-5.39305
-5.28245
-817.179
-815.459
-812.029
-806.912
-800.142
-791.763
-781.829
-770.403
-757.557
-743.372
-727.933
-711.334
-693.673
-675.052
-655.576
-635.351
-614.486
-593.088
-571.266
-549.125
-526.768
-504.294
-481.802
-459.381
-437.119
-415.097
-393.391
-372.071
-351.2
-330.834
-311.026
-291.818
-273.249
-255.35
-238.147
-221.661
-205.904
-190.886
-176.611
-163.078
-150.283
-138.216
-126.866
-116.216
-106.25
-96.9454
-88.281
-80.2324
-72.7743
-65.8801
-59.5229
-53.6752
-48.3093
-43.3978
-38.9135
-34.8297
-31.1202
-27.7599
-24.7246
-21.9909
-19.5368
-17.3414
-15.3852
-13.6498
-12.1185
-10.7756
-9.60707
-8.60023
-7.74381
-7.02797
-6.44427
-5.9857
-5.64667
-5.42297
-5.31182
-815.812
-814.104
-810.7
-805.621
-798.901
-790.582
-780.718
-769.37
-756.61
-742.517
-727.174
-710.675
-693.115
-674.595
-655.219
-635.093
-614.323
-593.016
-571.281
-549.22
-526.937
-504.533
-482.101
-459.735
-437.52
-415.539
-393.867
-372.574
-351.724
-331.374
-311.575
-292.371
-273.802
-255.9
-238.689
-222.191
-206.421
-191.387
-177.094
-163.541
-150.725
-138.637
-127.264
-116.592
-106.603
-97.2762
-88.5898
-80.5197
-73.0406
-66.1263
-59.7498
-53.8836
-48.5003
-43.5723
-39.0725
-34.9742
-31.2512
-27.8785
-24.8316
-22.0873
-19.6235
-17.4193
-15.4551
-13.7126
-12.1748
-10.8262
-9.65268
-8.64148
-7.78131
-7.0623
-6.47601
-6.0154
-5.67484
-5.45014
-5.33849
-814.615
-812.918
-809.536
-804.49
-797.812
-789.546
-779.742
-768.462
-755.776
-741.762
-726.503
-710.09
-692.617
-674.186
-654.898
-634.857
-614.171
-592.944
-571.284
-549.295
-527.078
-504.734
-482.357
-460.039
-437.867
-415.923
-394.281
-373.013
-352.182
-331.846
-312.056
-292.858
-274.29
-256.384
-239.167
-222.661
-206.878
-191.83
-177.522
-163.953
-151.118
-139.011
-127.619
-116.927
-106.918
-97.5717
-88.8658
-80.7766
-73.279
-66.3468
-59.9531
-54.0705
-48.6717
-43.729
-39.2154
-35.1041
-31.3691
-27.9851
-24.9279
-22.1742
-19.7017
-17.4896
-15.5182
-13.7692
-12.2257
-10.872
-9.6939
-8.67877
-7.81522
-7.09337
-6.50474
-6.04229