/*--------------------------------*- C++ -*----------------------------------*\
  =========                 |
  \\      /  F ield         | OpenFOAM: The Open Source CFD Toolbox
   \\    /   O peration     | Website:  https://openfoam.org
    \\  /    A nd           | Version:  10
     \\/     M anipulation  |
\*---------------------------------------------------------------------------*/
FoamFile
{
    format      ascii;
    class       volScalarField;
    location    "19";
    object      gradTx;
}
// * * * * * * * * * * * * * * * * * * * * * * * * * * * * * * * * * * * * * //

dimensions      [0 -1 0 1 0 0 0];

internalField   nonuniform List<scalar> 
11250
(
13897.2
6973.25
3651.51
1889.71
936.33
437.085
190.843
77.7562
29.5692
10.5109
3.49923
1.09281
0.320399
0.0881608
0.0227422
0.00549286
0.00124097
0.000262181
5.18242e-05
9.59564e-06
1.66717e-06
2.72356e-07
4.19191e-08
6.09507e-09
8.45165e-10
1.08664e-10
3.29285e-12
2.19524e-12
1.09762e-12
2.19524e-12
-1.4269e-11
1.09762e-12
-3.29285e-12
-2.19524e-12
-9.87856e-12
-4.39047e-12
0
-2.19524e-12
1.09762e-12
-4.39047e-12
-9.87856e-12
6.58571e-12
1.09762e-12
-5.48809e-12
-5.48809e-12
1.09762e-12
0
-4.39047e-12
2.19524e-12
0
1.09762e-12
0
1.4269e-11
0
1.09762e-12
0
1.09762e-12
-2.19524e-12
0
2.19524e-12
0
1.09762e-12
0
-2.19524e-11
9.87856e-12
-1.09762e-12
-1.09762e-12
0
1.09762e-12
0
-5.48809e-12
0
-7.68332e-12
0
-9.87856e-12
3717.68
3639.98
2438.05
1413.19
742.473
358.276
159.637
65.909
25.2943
9.05121
3.02853
0.949626
0.279354
0.0770914
0.0199386
0.00482716
0.00109296
0.000231378
4.58218e-05
8.49925e-06
1.47911e-06
2.42027e-07
3.73201e-08
5.40686e-09
7.17842e-10
9.21999e-11
-1.20738e-11
-2.19523e-12
-2.19523e-12
-2.19523e-12
-6.5857e-12
6.5857e-12
3.29285e-12
0
1.09762e-12
0
-8.78094e-12
1.09762e-12
-1.09762e-12
0
0
-4.39047e-12
-1.09762e-12
-1.09762e-12
0
0
-1.09762e-12
0
-2.19523e-12
0
-1.75619e-11
0
-1.4269e-11
8.78094e-12
-1.31714e-11
-6.5857e-12
-1.4269e-11
0
-4.39047e-12
0
0
-1.09762e-12
0
2.41476e-11
5.48809e-12
0
-1.09762e-12
1.09762e-12
-1.09762e-12
0
-8.78094e-12
0
8.78094e-12
2.19523e-12
0
1141.71
1669.21
1354.46
876.607
492.711
248.281
113.886
47.9832
18.6878
6.76175
2.28234
0.720871
0.213421
0.0592444
0.0154085
0.00375041
0.000853503
0.000181561
3.61198e-05
6.72823e-06
1.17558e-06
1.93086e-07
2.98826e-08
4.35535e-09
5.99299e-10
6.91499e-11
1.64643e-11
0
1.09762e-12
3.29285e-12
1.4269e-11
0
-3.29285e-12
1.09762e-12
1.75619e-11
3.29285e-12
0
-1.09762e-12
-2.19524e-12
2.19524e-12
9.87856e-12
-2.19524e-12
0
7.68332e-12
5.48809e-12
7.68332e-12
1.09762e-12
5.48809e-12
0
0
1.09762e-12
-1.09762e-12
4.39047e-12
8.78094e-12
0
-2.19523e-12
0
4.39047e-12
0
-2.19524e-12
0
0
0
-1.4269e-11
-1.09762e-11
2.19524e-12
3.29285e-12
2.19523e-12
0
0
3.29285e-12
8.78094e-12
0
-1.09762e-12
8.78094e-12
392.852
728.071
675.41
477.427
284.986
149.786
70.8187
30.5122
12.0868
4.43207
1.51256
0.482424
0.144163
0.0403952
0.0106073
0.002607
0.000599046
0.000128633
2.58203e-05
4.85027e-06
8.54113e-07
1.41311e-07
2.20314e-08
3.25114e-09
4.55511e-10
4.71976e-11
2.63428e-11
0
0
0
6.58571e-12
-7.68332e-12
-1.09762e-12
1.09762e-12
0
1.09762e-12
8.78094e-12
0
1.09762e-12
0
0
0
1.09762e-12
0
0
0
0
1.09762e-12
0
0
1.53666e-11
0
1.09762e-12
-8.78094e-12
1.31714e-11
5.48809e-12
1.4269e-11
-4.39047e-12
5.48809e-12
6.58571e-12
0
-2.19523e-12
0
-1.09762e-12
-4.39047e-12
3.29285e-12
0
1.09762e-12
0
2.19524e-12
5.48809e-12
0
-1.09762e-12
-1.09762e-12
-5.48809e-12
144.354
306.16
310.955
234.97
147.37
80.3775
39.0858
17.2099
6.93551
2.57921
0.891121
0.287598
0.0870163
0.0247165
0.00658719
0.00164446
0.000383902
8.37216e-05
1.70547e-05
3.24797e-06
5.79227e-07
9.69328e-08
1.52635e-08
2.28195e-09
3.2709e-10
4.28071e-11
5.48809e-12
0
0
-2.19523e-12
0
7.68332e-12
4.39047e-12
-1.09762e-12
-7.68332e-12
0
0
-1.97571e-11
2.19523e-12
2.19523e-12
5.48809e-12
-1.09762e-12
8.78094e-12
0
-2.19523e-12
-1.09762e-11
-4.39047e-12
-2.19523e-12
1.09762e-12
3.29285e-12
8.78094e-12
1.09762e-12
-5.48809e-12
-9.87856e-12
0
5.48809e-12
1.09762e-12
-8.78094e-12
-5.48809e-12
0
0
0
0
1.86595e-11
0
-1.09762e-12
-1.09762e-12
-3.29285e-12
0
-1.09762e-12
-9.87856e-12
-1.20738e-11
-7.68332e-12
-1.09762e-12
-1.09762e-12
54.0714
123.736
133.598
106.091
69.2177
38.9487
19.4152
8.7208
3.5724
1.34724
0.471551
0.154253
0.0473915
0.0137023
0.00372506
0.000949752
0.000226473
5.04097e-05
1.04669e-05
2.02851e-06
3.67509e-07
6.23732e-08
9.93234e-09
1.48617e-09
2.09645e-10
3.29285e-11
0
-1.09762e-12
0
-1.53666e-11
1.09762e-12
-1.09762e-12
1.09762e-12
2.19524e-12
0
0
0
0
1.09762e-11
1.20738e-11
0
0
-9.87856e-12
-1.09762e-12
1.09762e-12
1.09762e-12
0
1.09762e-12
-2.19524e-12
-2.19523e-12
-6.58571e-12
-1.09762e-12
0
-3.29285e-12
-1.09762e-12
0
-1.09762e-12
2.19524e-12
1.09762e-12
-6.58571e-12
1.09762e-12
2.19523e-12
1.09762e-12
0
-1.09762e-12
-4.39047e-12
0
0
0
-2.19524e-12
4.39047e-12
1.09762e-12
-4.39047e-12
0
0
19.9817
47.778
53.7882
44.3236
29.8353
17.2282
8.77356
4.01166
1.66843
0.637741
0.226157
0.0750419
0.0234443
0.00691271
0.00192077
0.000501007
0.000122174
2.77737e-05
5.87895e-06
1.15919e-06
2.13244e-07
3.66769e-08
5.91835e-09
8.94558e-10
1.18543e-10
1.75619e-11
-7.68332e-12
0
0
0
-1.09762e-12
-1.64643e-11
-2.19524e-12
1.09762e-12
-5.48809e-12
0
-1.09762e-12
2.19524e-11
0
0
-9.87856e-12
2.19524e-12
-8.78094e-12
-9.87856e-12
-4.39047e-12
2.19524e-12
5.48809e-12
1.09762e-12
-1.09762e-12
-4.39047e-12
-9.87856e-12
0
0
-1.09762e-12
0
-9.87856e-12
-1.09762e-12
-7.68332e-12
4.39047e-12
-4.39047e-12
0
-2.19523e-12
1.09762e-12
-5.48809e-12
2.19523e-12
2.19524e-12
0
0
-1.20738e-11
1.09762e-12
1.31714e-11
2.19524e-12
0
-7.68332e-12
0
7.14365
17.5407
20.333
17.2286
11.8878
7.01304
3.63748
1.68967
0.712531
0.275823
0.0990372
0.0333089
0.0105699
0.0031729
0.00089892
0.00023915
5.94368e-05
1.37507e-05
2.95697e-06
5.91274e-07
1.10129e-07
1.91534e-08
3.12053e-09
4.82952e-10
7.68332e-11
-3.29285e-12
-1.09762e-12
-3.29285e-12
-1.09762e-12
1.09762e-11
1.09762e-12
2.19523e-12
2.19523e-12
0
-1.09762e-12
0
-8.78094e-12
-9.87856e-12
-1.20738e-11
-1.20738e-11
-1.09762e-12
0
9.87856e-12
0
-5.48809e-12
-9.87856e-12
0
-1.09762e-12
1.09762e-12
-3.29285e-12
5.48809e-12
0
0
4.39047e-12
1.09762e-12
4.39047e-12
2.305e-11
3.29285e-12
-3.29285e-12
0
0
0
-3.29285e-12
0
0
0
7.68332e-12
-1.09762e-12
0
1.09762e-12
-1.09762e-12
0
6.5857e-12
0
4.39047e-12
2.44438
6.10476
7.227
6.25587
4.40344
2.64465
1.39362
0.656495
0.280325
0.109756
0.0398378
0.0135472
0.00435053
0.00132305
0.000380006
0.000102491
2.58077e-05
6.04326e-06
1.31393e-06
2.65376e-07
4.98955e-08
8.76667e-09
1.43459e-09
2.20621e-10
3.51238e-11
-1.09762e-12
0
0
1.09762e-12
1.09762e-12
1.09762e-12
6.5857e-12
0
0
5.48809e-12
-1.09762e-12
0
-2.19524e-12
-1.09762e-12
-5.48809e-12
5.48809e-12
-1.09762e-12
-3.29285e-12
9.87856e-12
0
0
-3.29285e-12
0
0
-1.20738e-11
-2.19524e-12
0
-1.09762e-12
-3.29285e-12
0
8.78094e-12
1.4269e-11
1.4269e-11
-4.39047e-12
4.39047e-12
-1.09762e-12
2.19523e-12
8.78094e-12
0
-1.09762e-12
0
1.4269e-11
2.19523e-12
1.31714e-11
-1.09762e-12
2.19523e-12
5.48809e-12
6.58571e-12
8.78094e-12
2.19524e-12
0.796124
2.01135
2.41885
2.12963
1.52413
0.929758
0.496972
0.237107
0.102379
0.0404691
0.0148081
0.00507082
0.00163885
0.000501519
0.00014497
3.9357e-05
9.97593e-06
2.35127e-06
5.1446e-07
1.0456e-07
1.97911e-08
3.50689e-09
5.70761e-10
8.12237e-11
1.09762e-12
2.19523e-12
-1.09762e-12
8.78094e-12
-2.19523e-12
3.29285e-12
-1.4269e-11
-1.20738e-11
-2.08547e-11
-2.08547e-11
0
-1.09762e-12
7.68332e-12
8.78094e-12
0
-6.58571e-12
-5.48809e-12
-2.19524e-12
1.09762e-12
0
5.48809e-12
8.78094e-12
-1.09762e-12
-4.39047e-12
1.09762e-12
4.39047e-12
-2.19524e-12
-1.09762e-12
0
0
0
-5.48809e-12
-1.97571e-11
-1.09762e-12
2.19523e-12
-1.09762e-12
-1.09762e-12
0
1.09762e-12
-1.09762e-12
-1.09762e-12
-1.09762e-12
-6.58571e-12
0
-1.09762e-12
0
1.09762e-12
0
-6.58571e-12
0
1.09762e-12
0.246125
0.627082
0.763636
0.682096
0.495558
0.306858
0.166349
0.0803559
0.035046
0.013954
0.00512812
0.00175893
0.000568235
0.00017364
5.0121e-05
1.35975e-05
3.4477e-06
8.13676e-07
1.78386e-07
3.63608e-08
6.89743e-09
1.21616e-09
2.03059e-10
1.4269e-11
-1.09762e-12
2.08547e-11
9.87856e-12
0
0
-1.09762e-12
-1.09762e-12
3.29285e-12
0
-2.19523e-12
1.75619e-11
2.19523e-12
2.19523e-12
-1.20738e-11
-6.5857e-12
5.48809e-12
1.75619e-11
0
3.29285e-12
1.09762e-12
6.5857e-12
0
3.29285e-12
-5.48809e-12
-1.09762e-12
1.20738e-11
2.19523e-12
0
2.19523e-12
4.39047e-12
2.19523e-12
1.09762e-12
-1.4269e-11
0
4.39047e-12
-1.09762e-12
3.29285e-12
1.4269e-11
-8.78094e-12
0
0
-9.87856e-12
-3.7319e-11
-1.09762e-12
0
0
-3.29285e-12
-5.48809e-12
0
-2.19523e-12
-3.29285e-12
0.0721079
0.184975
0.227751
0.20624
0.152164
0.0957774
0.052751
0.025827
0.0113724
0.00455032
0.00167238
0.000571112
0.000183068
5.541e-05
1.58434e-05
4.26399e-06
1.07482e-06
2.52732e-07
5.53089e-08
1.12703e-08
2.14694e-09
3.76483e-10
6.47594e-11
2.19524e-11
1.64643e-11
1.75619e-11
1.4269e-11
-4.39047e-12
2.19523e-12
3.29285e-12
1.31714e-11
9.87856e-12
2.08547e-11
1.97571e-11
2.19523e-12
0
-2.19524e-12
1.09762e-12
0
6.58571e-12
7.68332e-12
2.19524e-12
4.39047e-12
7.68332e-12
0
1.09762e-12
0
1.20738e-11
1.09762e-12
2.19523e-12
4.39047e-12
4.39047e-12
0
1.09762e-12
-1.09762e-12
-1.09762e-12
-3.29285e-12
0
-1.09762e-12
2.19524e-12
0
-1.09762e-12
5.48809e-12
0
-1.09762e-11
-5.48809e-12
-2.19524e-12
-1.09762e-12
0
1.09762e-12
0
0
4.39047e-12
0
1.09762e-12
0.019989
0.0515966
0.0642228
0.0590094
0.0443043
0.0284358
0.015964
0.00793948
0.00353077
0.00141712
0.000518891
0.000175448
5.54174e-05
1.64857e-05
4.63273e-06
1.22785e-06
3.0575e-07
7.12474e-08
1.55148e-08
3.13589e-09
5.96006e-10
1.1525e-10
2.85381e-11
3.62214e-11
2.74404e-11
1.09762e-11
9.87856e-12
0
0
0
0
-3.29285e-12
0
2.19524e-12
-2.305e-11
0
1.09762e-11
1.64643e-11
9.87856e-12
0
-2.305e-11
0
-1.09762e-12
-3.29285e-12
-1.09762e-12
0
-1.09762e-12
4.39047e-12
0
1.09762e-12
0
1.09762e-12
0
0
-1.09762e-12
0
1.09762e-12
-8.78094e-12
-7.68332e-12
-3.29285e-12
-1.09762e-12
-1.4269e-11
1.09762e-12
-1.20738e-11
-1.09762e-12
1.09762e-11
2.305e-11
-2.19523e-12
0
0
-1.09762e-12
-4.39047e-12
-8.78094e-12
1.09762e-12
6.58571e-12
0.00523321
0.0135931
0.017117
0.0159867
0.0122497
0.00804653
0.00462069
0.00233977
0.00105163
0.000423035
0.000153969
5.13598e-05
1.59074e-05
4.62302e-06
1.26819e-06
3.28755e-07
8.035e-08
1.84433e-08
3.94154e-09
7.61747e-10
1.29519e-10
1.64643e-11
1.53666e-11
1.97571e-11
3.29285e-12
4.39047e-12
4.39047e-12
2.19523e-12
0
-4.39047e-12
-1.09762e-12
1.09762e-12
-1.09762e-12
-3.29285e-12
-4.39047e-12
0
2.19523e-12
0
0
0
-2.19523e-12
-1.09762e-11
-6.5857e-12
-7.68332e-12
-5.48809e-12
-6.5857e-12
-1.09762e-12
-6.5857e-12
0
-1.09762e-12
0
-2.19523e-12
-1.09762e-12
1.09762e-12
0
0
4.39047e-12
0
1.09762e-12
0
-1.09762e-12
-1.09762e-12
-6.5857e-12
0
1.20738e-11
8.78094e-12
2.19523e-12
0
-1.09762e-12
-2.19523e-12
-6.5857e-12
4.39047e-12
0
0
0
0.00129122
0.0033762
0.00430585
0.00409581
0.00321124
0.00216487
0.00127443
0.000657906
0.000299023
0.000120563
4.36031e-05
1.43373e-05
4.34701e-06
1.23057e-06
3.28112e-07
8.27505e-08
1.9733e-08
4.44535e-09
9.20901e-10
1.54764e-10
-6.58571e-12
-1.86595e-11
-9.87856e-12
-1.09762e-11
-1.64643e-11
-1.20738e-11
-1.64643e-11
0
0
-4.39047e-12
0
2.19523e-12
0
0
5.48809e-12
0
-1.97571e-11
3.29285e-12
-9.87856e-12
0
5.48809e-12
1.09762e-12
-1.31714e-11
2.19523e-12
0
-5.48809e-12
4.39047e-12
0
-5.48809e-12
-1.09762e-12
0
-3.29285e-12
-8.78094e-12
0
-1.4269e-11
-1.09762e-12
0
7.68332e-12
8.78094e-12
6.58571e-12
1.09762e-12
-4.39047e-12
0
1.31714e-11
9.87856e-12
0
-1.09762e-12
2.19523e-12
-4.39047e-12
0
-7.68332e-12
3.29285e-12
8.78094e-12
9.87856e-12
-3.29285e-12
0.000299663
0.000789099
0.00102027
0.000989861
0.000795292
0.000550835
0.000332525
0.00017498
8.04223e-05
3.25183e-05
1.17003e-05
3.79837e-06
1.129e-06
3.1149e-07
8.06672e-08
1.97297e-08
4.60121e-09
1.0131e-09
2.21719e-10
3.40261e-11
-1.09762e-12
-1.09762e-12
-1.09762e-11
1.09762e-12
8.78094e-12
-1.09762e-11
-1.64643e-11
-2.19524e-12
0
0
1.09762e-12
0
0
-9.87856e-12
0
-1.09762e-12
0
4.39047e-12
0
-1.09762e-12
0
9.87856e-12
1.09762e-12
0
5.48809e-12
5.48809e-12
1.09762e-12
2.19524e-12
-1.09762e-12
0
1.09762e-12
-1.09762e-12
0
-2.19524e-12
0
-4.39047e-12
-4.39047e-12
0
8.78094e-12
-1.09762e-12
0
1.09762e-12
0
-2.19524e-12
5.48809e-12
-4.39047e-12
-1.09762e-12
-1.09762e-12
0
1.09762e-12
-4.39047e-12
-7.68332e-12
-2.19524e-12
2.19523e-12
5.48809e-12
6.53211e-05
0.000173287
0.000227286
0.000225048
0.000185318
0.000131783
8.14695e-05
4.36427e-05
2.02735e-05
8.22633e-06
2.95017e-06
9.48321e-07
2.77299e-07
7.48191e-08
1.8868e-08
4.49365e-09
1.04164e-09
2.31597e-10
6.69547e-11
9.87856e-12
1.4269e-11
2.19523e-12
1.09762e-12
1.53666e-11
2.19523e-12
3.29285e-12
8.78094e-12
1.09762e-12
-4.39047e-12
6.5857e-12
0
-1.09762e-12
-2.19523e-12
-1.09762e-12
5.48809e-12
1.09762e-12
3.29285e-12
-4.39047e-12
8.78094e-12
-4.39047e-12
1.09762e-12
-1.09762e-11
1.4269e-11
5.48809e-12
-1.53666e-11
6.5857e-12
-5.48809e-12
0
7.68332e-12
0
-1.09762e-12
4.39047e-12
8.78094e-12
0
1.4269e-11
2.19523e-12
1.09762e-12
3.29285e-12
0
-2.19523e-12
-2.19523e-12
5.48809e-12
1.09762e-12
0
-9.87856e-12
-1.09762e-12
0
-3.29285e-12
4.39047e-12
-1.09762e-12
-3.29285e-12
5.48809e-12
-3.29285e-12
-9.87856e-12
-1.09762e-12
1.3365e-05
3.57244e-05
4.75403e-05
4.8031e-05
4.04985e-05
2.95129e-05
1.86415e-05
1.0147e-05
4.7603e-06
1.93939e-06
6.94526e-07
2.21736e-07
6.40504e-08
1.69768e-08
4.17973e-09
9.98832e-10
2.29402e-10
7.4638e-11
3.40261e-11
2.08547e-11
-2.19524e-12
-1.20738e-11
1.09762e-11
5.48809e-12
-1.4269e-11
-2.19523e-12
6.58571e-12
-6.58571e-12
0
8.78094e-12
0
0
0
9.87856e-12
2.19523e-12
0
-1.09762e-12
-5.48809e-12
-1.09762e-12
1.09762e-12
0
1.09762e-12
0
0
-1.53666e-11
-2.19524e-12
0
-3.29285e-12
1.09762e-12
0
0
0
0
-1.09762e-12
-2.19524e-12
5.48809e-12
-1.09762e-12
-2.19524e-12
-9.87856e-12
0
0
-4.39047e-12
0
2.19524e-12
-4.39047e-12
1.09762e-12
8.78094e-12
4.39047e-12
0
0
9.87856e-12
1.20738e-11
5.48809e-12
-5.48809e-12
-4.39047e-12
2.56728e-06
6.91424e-06
9.33291e-06
9.61326e-06
8.28585e-06
6.1726e-06
3.97311e-06
2.19315e-06
1.03814e-06
4.24789e-07
1.52146e-07
4.83588e-08
1.38344e-08
3.61116e-09
8.6163e-10
2.04157e-10
3.40261e-11
1.64643e-11
1.86595e-11
3.84166e-11
8.78094e-12
-5.48809e-12
-1.09762e-12
-1.86595e-11
1.09762e-12
-5.48809e-12
-8.78094e-12
0
4.39047e-12
0
0
1.09762e-12
1.09762e-12
1.09762e-12
-5.48809e-12
0
5.48809e-12
-1.09762e-12
0
5.48809e-12
-1.09762e-12
1.53666e-11
-1.09762e-12
-5.48809e-12
1.4269e-11
1.09762e-12
1.31714e-11
0
6.58571e-12
1.09762e-12
0
0
0
0
1.09762e-12
-2.19523e-12
-1.09762e-12
-1.09762e-12
-1.09762e-12
2.19524e-12
-1.09762e-12
-8.78094e-12
-1.09762e-12
0
-8.78094e-12
-9.87856e-12
0
2.19523e-12
4.39047e-12
1.09762e-12
1.31714e-11
-4.39047e-12
3.29285e-12
-1.09762e-12
-1.09762e-12
4.63357e-07
1.2571e-06
1.72007e-06
1.80409e-06
1.58631e-06
1.20488e-06
7.88295e-07
4.40438e-07
2.10189e-07
8.64044e-08
3.09846e-08
9.82807e-09
2.78027e-09
7.26623e-10
1.72326e-10
3.07333e-11
0
-1.09762e-12
-5.48809e-12
-5.48809e-12
-9.87856e-12
-4.39047e-12
-7.68332e-12
-2.85381e-11
8.78094e-12
7.68332e-12
4.39047e-12
5.48809e-12
0
-9.87856e-12
0
0
0
-1.09762e-12
0
0
1.09762e-12
-8.78094e-12
1.09762e-12
0
-1.09762e-12
6.5857e-12
-1.09762e-12
0
1.53666e-11
-8.78094e-12
1.09762e-12
1.09762e-12
-2.19523e-12
-8.78094e-12
0
-1.09762e-12
0
1.09762e-12
3.29285e-12
3.29285e-12
1.86595e-11
0
2.19523e-12
0
0
-6.5857e-12
-1.09762e-12
3.29285e-12
0
-1.09762e-12
-7.68332e-12
0
0
1.09762e-12
-4.39047e-12
-8.78094e-12
0
0
-5.48809e-12
7.8607e-08
2.14707e-07
2.97595e-07
3.17422e-07
2.84173e-07
2.19558e-07
1.45677e-07
8.22423e-08
3.95603e-08
1.63446e-08
5.87774e-09
1.86595e-09
5.32344e-10
1.55862e-10
3.40261e-11
-1.09762e-11
-4.39047e-12
-1.31714e-11
-2.19524e-11
-2.19523e-11
1.09762e-11
2.74404e-11
1.20738e-11
-6.58571e-12
-9.87856e-12
3.29285e-12
2.19524e-12
0
-1.09762e-12
0
0
-1.09762e-12
-4.39047e-12
1.09762e-12
0
0
-5.48809e-12
-6.58571e-12
0
0
1.09762e-12
1.09762e-12
1.09762e-12
0
-5.48809e-12
-1.09762e-12
-1.09762e-11
-4.39047e-12
-4.39047e-12
0
0
2.19524e-12
-1.09762e-12
2.19524e-12
-1.09762e-12
-1.09762e-12
9.87856e-12
0
0
-2.19524e-12
3.29285e-12
8.78094e-12
0
-1.86595e-11
8.78094e-12
1.09762e-11
0
1.09762e-12
-4.39047e-12
0
-1.20738e-11
0
0
-3.29285e-12
2.19524e-12
1.28421e-08
3.50184e-08
4.90218e-08
5.31005e-08
4.82688e-08
3.78063e-08
2.53802e-08
1.44754e-08
7.01707e-09
2.91198e-09
1.0581e-09
3.51238e-10
9.7688e-11
2.19523e-11
-2.19524e-12
-2.96357e-11
-3.07333e-11
-3.51238e-11
-3.40261e-11
-3.29285e-12
9.87856e-12
1.97571e-11
6.5857e-12
1.97571e-11
-1.75619e-11
-1.09762e-12
-5.48809e-12
0
-3.29285e-12
0
-1.09762e-12
1.09762e-12
2.19524e-12
1.09762e-12
1.09762e-12
0
1.09762e-12
9.87856e-12
1.09762e-12
-1.09762e-12
1.09762e-12
-7.68332e-12
2.19524e-12
-2.19523e-12
0
9.87856e-12
-1.09762e-12
0
0
7.68332e-12
0
1.09762e-12
0
1.09762e-12
-1.09762e-12
-2.19523e-12
-1.86595e-11
-7.68332e-12
-1.09762e-12
0
-1.09762e-12
1.09762e-11
1.09762e-12
-2.19524e-12
-1.09762e-12
-4.39047e-12
9.87856e-12
-1.09762e-12
2.19524e-12
-2.19524e-12
3.29285e-12
0
-2.19524e-12
3.29285e-12
-8.78094e-12
1.92303e-09
5.25978e-09
7.46599e-09
8.20359e-09
7.51648e-09
5.96555e-09
4.06118e-09
2.35219e-09
1.14042e-09
4.98318e-10
1.71228e-10
6.80523e-11
2.19523e-12
-2.19523e-11
1.75619e-11
2.19523e-12
-4.39047e-12
-2.08547e-11
-2.19523e-11
4.39047e-12
-1.20738e-11
-5.48809e-12
1.4269e-11
2.41476e-11
2.08547e-11
-5.48809e-12
9.87856e-12
0
0
1.09762e-12
1.09762e-12
0
6.5857e-12
0
7.68332e-12
0
5.48809e-12
5.48809e-12
0
0
-1.09762e-12
-6.5857e-12
1.09762e-12
0
4.39047e-12
0
2.19523e-12
0
-1.09762e-12
2.19523e-12
1.09762e-12
-2.19523e-12
7.68332e-12
-3.29285e-12
-2.19523e-12
5.48809e-12
-7.68332e-12
1.20738e-11
1.09762e-12
0
1.09762e-12
-2.19523e-12
-1.09762e-12
1.31714e-11
0
1.31714e-11
0
-2.19523e-12
0
1.09762e-12
4.39047e-12
-2.19523e-12
0
2.19523e-12
-1.09762e-12
3.07333e-11
3.7319e-10
6.67351e-10
8.12237e-10
7.88089e-10
6.64059e-10
4.85147e-10
2.82088e-10
1.40495e-10
5.48809e-11
2.41476e-11
4.39047e-12
2.08547e-11
4.39047e-12
1.4269e-11
1.09762e-11
6.5857e-12
-1.09762e-12
5.48809e-12
8.78094e-12
-8.78094e-12
-5.48809e-12
1.75619e-11
3.29285e-12
1.20738e-11
5.48809e-12
-1.09762e-12
0
3.29285e-12
-2.19524e-12
1.09762e-12
0
-3.29285e-12
2.19524e-12
2.19523e-12
-2.19524e-12
0
1.09762e-12
-1.09762e-12
2.19524e-12
1.09762e-12
3.29285e-12
-3.29285e-12
2.19523e-12
2.19524e-12
-1.09762e-12
-1.09762e-12
-5.48809e-12
-2.19524e-12
2.19523e-12
-7.68332e-12
-7.68332e-12
-1.09762e-12
0
-1.31714e-11
6.5857e-12
1.09762e-12
1.09762e-11
0
-1.09762e-12
1.09762e-12
0
-1.09762e-12
4.39047e-12
3.29285e-12
4.39047e-12
-9.87856e-12
0
-1.09762e-12
1.09762e-12
1.09762e-12
1.09762e-12
0
1.09762e-12
1.31714e-11
1.49276e-10
4.43437e-10
6.0808e-10
6.25642e-10
5.51004e-10
3.83069e-10
2.42573e-10
1.37202e-10
5.81737e-11
1.86595e-11
2.41476e-11
0
2.52452e-11
9.87856e-12
-1.53666e-11
4.39047e-12
-1.09762e-11
1.75619e-11
1.31714e-11
-1.75619e-11
-7.68332e-12
-2.19524e-12
-2.52452e-11
-8.78094e-12
3.29285e-12
9.87856e-12
-7.68332e-12
2.19524e-12
0
-1.09762e-12
-2.19524e-12
0
-1.09762e-12
-1.09762e-12
-7.68332e-12
-1.09762e-12
1.09762e-11
1.09762e-12
1.09762e-12
0
0
0
-1.09762e-12
0
0
1.53666e-11
-1.09762e-12
1.09762e-12
0
-1.09762e-12
-1.09762e-12
-3.29285e-12
-7.68332e-12
1.09762e-12
1.09762e-12
-4.39047e-12
0
-3.29285e-12
-2.19523e-12
2.19524e-12
-1.09762e-12
2.19523e-12
0
6.58571e-12
-2.19523e-12
-1.31714e-11
2.19524e-12
1.09762e-12
0
-1.09762e-12
7.68332e-12
3.29285e-12
0
3.29285e-12
-4.39047e-12
3.51238e-11
-4.39047e-12
1.09762e-11
-5.48809e-11
-4.39047e-11
-5.81737e-11
-4.06118e-11
-1.53666e-11
-6.5857e-12
1.09762e-12
-4.39047e-12
0
7.68332e-12
1.09762e-12
-1.53666e-11
7.68332e-12
1.20738e-11
4.17095e-11
3.40261e-11
0
1.09762e-11
2.19523e-12
-1.53666e-11
3.29285e-12
1.09762e-11
-1.86595e-11
2.19523e-12
0
1.09762e-12
3.29285e-12
5.48809e-12
1.09762e-12
0
-2.19523e-12
2.19523e-12
2.19523e-12
4.39047e-12
-7.68332e-12
0
-2.19523e-12
1.09762e-12
-1.09762e-12
0
1.09762e-12
-1.09762e-12
2.19523e-12
1.09762e-12
9.87856e-12
1.09762e-12
-2.19523e-12
7.68332e-12
6.5857e-12
2.19523e-12
-2.19523e-12
1.4269e-11
-6.5857e-12
-1.09762e-12
-3.29285e-12
1.09762e-12
2.19523e-12
-1.09762e-12
-2.19523e-12
2.19523e-12
-1.20738e-11
-3.29285e-12
-1.09762e-12
0
1.09762e-12
1.09762e-12
0
-7.68332e-12
0
-4.39047e-12
-1.4269e-11
-1.09762e-12
-2.32695e-10
-3.95142e-10
-4.58804e-10
-4.50023e-10
-3.51238e-10
-2.43671e-10
-1.48178e-10
-8.23213e-11
-1.97571e-11
-1.64643e-11
-8.78094e-12
1.09762e-12
1.53666e-11
2.74404e-11
1.31714e-11
2.19524e-12
2.96357e-11
2.08547e-11
1.64643e-11
1.86595e-11
3.29285e-12
-1.97571e-11
1.4269e-11
1.31714e-11
-1.31714e-11
0
-3.29285e-12
-2.19524e-12
0
0
1.09762e-12
0
1.09762e-12
7.68332e-12
0
1.09762e-12
-1.20738e-11
-1.31714e-11
-2.19524e-12
0
0
6.58571e-12
1.09762e-12
0
-4.39047e-12
-1.64643e-11
1.09762e-12
1.09762e-12
1.09762e-11
0
-1.09762e-12
3.29285e-12
-6.5857e-12
0
-2.19524e-12
0
0
-7.68332e-12
4.39047e-12
-3.29285e-12
0
-1.09762e-12
-5.48809e-12
-2.08547e-11
2.19523e-12
0
-2.19524e-12
-3.29285e-12
1.09762e-12
-1.09762e-12
1.09762e-12
-2.19524e-12
0
0
1.31714e-11
6.14666e-11
3.20504e-10
4.43437e-10
4.52218e-10
3.97338e-10
3.01845e-10
1.81107e-10
1.11957e-10
3.40261e-11
-2.19524e-12
-4.39047e-12
5.48809e-12
5.48809e-12
1.31714e-11
-8.78094e-12
7.68332e-12
1.09762e-11
4.39047e-12
-1.75619e-11
0
-5.48809e-12
-5.48809e-12
-6.5857e-12
-1.20738e-11
-1.53666e-11
0
-3.29285e-12
-1.09762e-12
-1.09762e-12
1.20738e-11
-5.48809e-12
-1.09762e-12
-1.09762e-12
0
-4.39047e-12
2.19524e-12
-5.48809e-12
6.58571e-12
-8.78094e-12
2.19524e-12
-1.09762e-12
-1.09762e-12
-1.09762e-12
0
0
1.09762e-12
6.5857e-12
-2.19524e-12
8.78094e-12
-2.19523e-12
-1.09762e-12
1.09762e-12
0
3.29285e-12
0
-1.09762e-12
0
0
-1.09762e-12
0
0
3.29285e-12
-1.09762e-12
7.68332e-12
0
-1.09762e-12
0
0
6.58571e-12
4.39047e-12
6.5857e-12
-1.97571e-11
2.19524e-12
1.09762e-11
0
1.31714e-10
6.5857e-11
1.97571e-11
-1.75619e-11
-5.70761e-11
-1.75619e-11
-2.41476e-11
-8.78094e-12
-1.97571e-11
-2.19523e-11
-1.4269e-11
-2.19523e-12
-1.97571e-11
-2.85381e-11
-2.96357e-11
-5.48809e-12
1.09762e-12
-2.19523e-12
-1.4269e-11
1.20738e-11
1.31714e-11
2.19523e-12
-9.87856e-12
-1.09762e-12
-9.87856e-12
-2.08547e-11
8.78094e-12
0
2.19523e-12
-1.09762e-12
-1.09762e-12
0
0
-6.5857e-12
1.09762e-12
1.09762e-12
-5.48809e-12
1.20738e-11
-1.09762e-12
1.09762e-12
1.09762e-12
-6.5857e-12
-1.09762e-12
1.09762e-12
0
0
1.75619e-11
0
-1.09762e-11
0
2.19523e-12
0
2.08547e-11
0
0
0
8.78094e-12
0
-1.09762e-12
-2.19523e-12
-1.09762e-12
1.09762e-12
4.39047e-12
1.86595e-11
1.09762e-12
0
-1.09762e-12
1.31714e-11
0
1.09762e-12
-7.68332e-12
0
0
0
-7.68332e-12
-3.95142e-11
-2.89771e-10
-3.53433e-10
-3.53433e-10
-3.29285e-10
-2.16231e-10
-1.40495e-10
-1.03176e-10
-5.1588e-11
-1.53666e-11
7.68332e-12
4.39047e-12
-2.19524e-12
-1.20738e-11
-2.19524e-12
-1.4269e-11
-1.31714e-11
-2.74404e-11
1.4269e-11
1.31714e-11
6.58571e-12
-6.58571e-12
-1.09762e-12
-4.39047e-12
2.19524e-12
-4.39047e-12
-4.39047e-12
-3.29285e-12
0
-1.53666e-11
1.09762e-12
0
1.09762e-12
0
2.19523e-12
0
1.09762e-12
0
8.78094e-12
0
-1.09762e-12
0
1.09762e-12
-2.19523e-12
0
-1.09762e-12
2.19523e-12
0
-7.68332e-12
2.19523e-12
-2.19524e-12
-1.31714e-11
-1.09762e-12
-2.19524e-12
1.09762e-12
3.29285e-12
7.68332e-12
-1.20738e-11
-1.09762e-12
2.19524e-12
-1.09762e-12
-5.48809e-12
-3.29285e-12
0
0
2.19524e-12
1.09762e-12
0
-8.78094e-12
4.39047e-12
1.09762e-12
2.41476e-11
2.19524e-12
4.39047e-12
0
1.80009e-10
3.81971e-10
4.87342e-10
4.93928e-10
3.99533e-10
2.60135e-10
1.59155e-10
7.79308e-11
2.08547e-11
1.64643e-11
2.63428e-11
9.87856e-12
3.29285e-12
-3.29285e-12
1.4269e-11
-1.86595e-11
-4.39047e-11
-3.51238e-11
2.19524e-12
-1.4269e-11
-1.09762e-12
7.68332e-12
-6.5857e-12
-2.41476e-11
-4.39047e-12
-4.39047e-12
-6.58571e-12
5.48809e-12
-2.19523e-12
0
0
-9.87856e-12
1.09762e-12
0
-7.68332e-12
-2.19524e-12
5.48809e-12
0
3.29285e-12
-2.19524e-12
-6.5857e-12
0
2.19524e-12
-2.19523e-12
0
0
-1.86595e-11
0
-1.09762e-12
-1.09762e-12
-4.39047e-12
-5.48809e-12
-1.4269e-11
2.19524e-12
2.19524e-12
0
-8.78094e-12
-1.64643e-11
-8.78094e-12
-1.20738e-11
-3.29285e-12
-1.09762e-12
1.09762e-12
-2.19524e-12
-1.09762e-12
-1.09762e-11
1.09762e-12
-6.5857e-12
-1.09762e-12
-1.09762e-12
-2.19523e-12
0
-9.87856e-12
0
5.48809e-12
5.70761e-11
6.5857e-11
-5.26856e-11
-5.04904e-11
-4.17095e-11
-7.02475e-11
-4.39047e-11
-7.68332e-12
-4.39047e-12
2.19523e-12
-7.68332e-12
-1.53666e-11
-1.20738e-11
-6.5857e-12
6.5857e-12
-1.20738e-11
-1.09762e-11
3.29285e-12
-1.31714e-11
-1.09762e-12
1.20738e-11
1.86595e-11
1.64643e-11
1.20738e-11
0
-5.48809e-12
1.31714e-11
2.19523e-12
2.19523e-12
3.29285e-12
-2.41476e-11
-3.95142e-11
-2.63428e-11
0
-2.19523e-12
-1.09762e-12
0
-1.20738e-11
-1.09762e-12
-1.09762e-12
0
3.29285e-12
5.48809e-12
4.39047e-12
-2.19523e-12
0
-9.87856e-12
-1.09762e-12
1.09762e-12
-4.39047e-12
1.09762e-12
1.31714e-11
1.09762e-12
0
-3.29285e-12
6.5857e-12
-7.68332e-12
7.68332e-12
-8.78094e-12
-2.19523e-12
-1.31714e-11
5.48809e-12
4.39047e-12
-7.68332e-12
1.09762e-12
-1.09762e-12
-1.09762e-12
1.09762e-12
2.19523e-12
-8.78094e-12
-1.31714e-11
-4.39047e-12
-6.5857e-12
-7.68332e-12
-1.09762e-12
-1.66838e-10
-3.24895e-10
-4.74171e-10
-4.25876e-10
-3.20504e-10
-2.35988e-10
-1.36105e-10
-6.14666e-11
-1.97571e-11
-9.87856e-12
-1.75619e-11
-1.20738e-11
2.19524e-12
2.305e-11
1.4269e-11
8.78094e-12
9.87856e-12
-5.48809e-12
-1.20738e-11
1.09762e-11
5.48809e-12
0
1.53666e-11
1.75619e-11
6.58571e-12
1.53666e-11
8.78094e-12
-5.48809e-12
-1.09762e-12
-8.78094e-12
-9.87856e-12
-1.31714e-11
-1.75619e-11
0
1.09762e-12
0
-1.09762e-12
-9.87856e-12
-8.78094e-12
0
1.09762e-12
0
-2.19524e-12
-4.39047e-12
5.48809e-12
-8.78094e-12
0
-1.31714e-11
-1.09762e-12
1.09762e-12
0
1.09762e-12
-1.09762e-12
-1.31714e-11
-1.09762e-12
4.39047e-12
0
4.39047e-12
1.86595e-11
1.31714e-11
4.39047e-12
2.19523e-12
0
2.19524e-12
0
1.09762e-11
-2.19524e-12
0
0
5.48809e-12
8.78094e-12
0
9.87856e-12
2.19523e-12
-6.58571e-12
1.49276e-10
2.94161e-10
4.50023e-10
4.43437e-10
3.81971e-10
2.766e-10
1.8879e-10
1.04274e-10
4.93928e-11
2.19524e-11
8.78094e-12
8.78094e-12
2.19524e-12
1.53666e-11
6.58571e-12
2.19524e-12
0
-1.09762e-11
-2.19524e-12
-2.19523e-11
-4.39047e-12
1.31714e-11
-4.39047e-12
-9.87856e-12
-7.68332e-12
1.64643e-11
0
3.29285e-12
0
-2.19524e-12
2.19524e-11
3.7319e-11
2.63428e-11
-1.09762e-12
0
-1.09762e-12
1.09762e-12
1.20738e-11
8.78094e-12
-4.39047e-12
0
-3.29285e-12
3.29285e-12
-1.64643e-11
1.09762e-12
2.19524e-12
0
0
-2.19524e-12
-4.39047e-12
1.09762e-12
3.29285e-12
0
-2.19524e-12
2.19524e-12
-2.305e-11
-1.09762e-12
0
7.68332e-12
1.09762e-12
1.4269e-11
-2.19523e-12
-1.09762e-12
-1.09762e-12
-4.39047e-12
1.09762e-12
-1.09762e-12
1.20738e-11
0
0
2.08547e-11
9.87856e-12
6.58571e-12
4.39047e-12
0
3.51238e-11
1.31714e-11
1.75619e-11
-5.04904e-11
-5.92713e-11
-4.06118e-11
-2.63428e-11
-1.53666e-11
-1.09762e-11
-1.20738e-11
-1.4269e-11
2.19523e-12
-1.4269e-11
-1.86595e-11
-9.87856e-12
5.48809e-12
1.4269e-11
3.51238e-11
2.305e-11
4.39047e-12
1.4269e-11
1.4269e-11
0
-2.19523e-12
5.48809e-12
4.39047e-12
-1.09762e-12
1.09762e-11
9.87856e-12
1.53666e-11
1.09762e-11
2.52452e-11
1.53666e-11
0
1.4269e-11
1.09762e-12
2.19523e-12
7.68332e-12
8.78094e-12
-1.09762e-12
1.4269e-11
-5.48809e-12
5.48809e-12
9.87856e-12
0
8.78094e-12
9.87856e-12
2.305e-11
2.19523e-12
-6.5857e-12
4.39047e-12
6.5857e-12
1.53666e-11
2.08547e-11
1.09762e-12
5.48809e-12
4.39047e-12
1.4269e-11
-1.09762e-11
0
0
-2.19523e-12
-1.09762e-12
0
-3.29285e-12
0
4.39047e-12
-4.39047e-12
-2.19523e-12
-1.31714e-11
-5.48809e-12
6.5857e-12
-1.09762e-12
-5.48809e-12
2.19523e-12
-2.10743e-10
-3.68799e-10
-4.89537e-10
-4.80756e-10
-3.68799e-10
-2.40378e-10
-1.31714e-10
-6.36618e-11
-2.41476e-11
-1.31714e-11
-2.19523e-12
1.09762e-11
8.78094e-12
2.19523e-12
1.4269e-11
1.4269e-11
2.08547e-11
3.07333e-11
-1.09762e-12
1.09762e-11
9.87856e-12
-1.20738e-11
4.39047e-12
1.64643e-11
1.97571e-11
1.09762e-12
8.78094e-12
-3.29285e-12
2.19523e-12
1.09762e-12
1.09762e-12
0
1.09762e-12
6.58571e-12
0
-5.48809e-12
-2.19524e-12
-1.09762e-12
-9.87856e-12
4.39047e-12
0
0
-2.19524e-12
1.86595e-11
1.09762e-12
-1.09762e-12
2.19523e-12
-1.09762e-12
1.09762e-12
8.78094e-12
1.09762e-12
4.39047e-12
1.4269e-11
1.09762e-12
-2.19524e-12
1.4269e-11
1.31714e-11
2.19524e-12
2.19523e-12
0
0
-2.19523e-12
2.19524e-12
8.78094e-12
3.29285e-12
-1.09762e-12
0
-1.20738e-11
1.09762e-12
0
-1.64643e-11
-9.87856e-12
1.09762e-12
-7.68332e-12
0
7.90285e-11
2.94161e-10
3.97338e-10
4.14899e-10
3.75385e-10
2.8099e-10
1.98669e-10
1.03176e-10
6.58571e-11
2.19524e-11
2.08547e-11
1.09762e-12
2.19524e-12
6.5857e-12
1.53666e-11
1.4269e-11
1.75619e-11
-1.09762e-12
-6.58571e-12
-2.85381e-11
-9.87856e-12
-6.58571e-12
-4.39047e-12
5.48809e-12
1.09762e-12
7.68332e-12
1.09762e-12
-1.09762e-11
-1.97571e-11
-5.48809e-12
0
0
-6.58571e-12
0
-9.87856e-12
0
-1.09762e-12
2.19524e-12
0
1.31714e-11
-9.87856e-12
1.09762e-11
-1.4269e-11
-4.39047e-12
1.09762e-12
0
-1.09762e-11
-7.68332e-12
0
5.48809e-12
0
-2.19524e-12
-1.4269e-11
-8.78094e-12
0
-2.08547e-11
-4.39047e-12
-4.39047e-12
1.09762e-12
0
0
-2.19523e-12
4.39047e-12
0
5.48809e-12
0
-1.09762e-12
0
6.58571e-12
1.53666e-11
5.48809e-12
-5.48809e-12
-8.78094e-12
1.09762e-12
-4.39047e-12
3.95142e-11
9.65903e-11
3.7319e-11
-4.39047e-12
-1.97571e-11
-1.4269e-11
-2.63428e-11
-1.31714e-11
-3.29285e-12
-2.305e-11
-5.48809e-12
-1.09762e-11
-9.87856e-12
3.29285e-12
-1.09762e-12
9.87856e-12
0
-1.09762e-11
6.5857e-12
-1.64643e-11
-2.85381e-11
-7.68332e-12
1.09762e-12
-1.64643e-11
-5.48809e-12
8.78094e-12
-2.19523e-12
0
-2.19523e-12
1.09762e-12
1.09762e-12
-1.09762e-12
-3.29285e-12
-5.48809e-12
-1.09762e-12
5.48809e-12
1.09762e-12
2.19523e-12
1.09762e-12
0
-1.09762e-12
0
-5.48809e-12
-5.48809e-12
0
0
-2.19523e-12
4.39047e-12
-1.09762e-12
2.19523e-12
-1.09762e-12
-4.39047e-12
-1.09762e-11
-3.29285e-12
2.19523e-12
0
-1.4269e-11
-1.09762e-12
-1.09762e-12
0
-1.09762e-12
4.39047e-12
0
-1.09762e-12
0
-4.39047e-12
-1.09762e-12
-1.09762e-12
0
6.5857e-12
8.78094e-12
-2.19523e-12
-4.39047e-12
8.78094e-12
0
-1.18543e-10
-3.46847e-10
-4.30266e-10
-3.86361e-10
-3.227e-10