/*--------------------------------*- C++ -*----------------------------------*\
  =========                 |
  \\      /  F ield         | OpenFOAM: The Open Source CFD Toolbox
   \\    /   O peration     | Website:  https://openfoam.org
    \\  /    A nd           | Version:  10
     \\/     M anipulation  |
\*---------------------------------------------------------------------------*/
FoamFile
{
    format      ascii;
    class       volScalarField;
    location    "25";
    object      gradTz;
}
// * * * * * * * * * * * * * * * * * * * * * * * * * * * * * * * * * * * * * //

dimensions      [0 -1 0 1 0 0 0];

internalField   nonuniform List<scalar> 
11250
(
-14639.3
-4393.66
-1703.28
-819.134
-440.856
-243.657
-131.815
-68.2255
-33.4477
-15.4718
-6.74675
-2.77522
-1.07827
-0.39636
-0.138064
-0.0456386
-0.014334
-0.00428146
-0.00121708
-0.000329453
-8.49647e-05
-2.08872e-05
-4.8975e-06
-1.09602e-06
-2.34303e-07
-4.79011e-08
-9.37695e-09
-1.76277e-09
-3.20504e-10
-4.93928e-11
0
-2.19523e-12
0
1.09762e-12
0
0
0
0
0
0
4.39047e-12
0
-3.29285e-12
0
-1.09762e-12
0
0
2.19524e-12
0
-1.09762e-12
0
1.31714e-11
0
-1.4269e-11
0
0
0
0
0
0
0
0
-2.08547e-11
-1.09762e-12
2.19523e-11
1.09762e-12
-1.09762e-12
0
1.09762e-12
-1.09762e-12
0
-5.48809e-12
-1.09762e-12
6.5857e-12
0
-9107.73
-5584.72
-3285.27
-1955.35
-1160.26
-670.18
-370.321
-193.824
-95.6385
-44.4193
-19.4228
-8.00498
-3.11475
-1.14624
-0.399635
-0.132205
-0.0415503
-0.0124183
-0.00353208
-0.00095661
-0.000246831
-6.07092e-05
-1.42416e-05
-3.1887e-06
-6.81974e-07
-1.39464e-07
-2.72934e-08
-5.12148e-09
-9.18706e-10
-1.52569e-10
-1.64643e-11
1.31714e-11
-1.09762e-12
-8.78094e-12
-3.29285e-12
8.78094e-12
4.39047e-12
0
-4.39047e-12
-8.78094e-12
6.5857e-12
9.87856e-12
-8.78094e-12
-5.48809e-12
6.5857e-12
5.48809e-12
-6.5857e-12
2.19523e-12
3.29285e-12
0
0
0
0
0
0
0
-2.19523e-12
0
5.48809e-12
-1.09762e-12
-3.29285e-12
1.09762e-12
1.09762e-12
8.78094e-12
-1.09762e-12
-1.20738e-11
1.09762e-12
2.19523e-12
-1.09762e-12
-4.39047e-12
1.09762e-12
4.39047e-12
0
-8.78094e-12
8.78094e-12
-6937.51
-5432.8
-3844.45
-2567.87
-1629.22
-977.918
-552.721
-293.336
-146.043
-68.2418
-29.9675
-12.3898
-4.83245
-1.78172
-0.622156
-0.206088
-0.0648449
-0.0194005
-0.00552331
-0.00149727
-0.000386674
-9.51848e-05
-2.23474e-05
-5.0076e-06
-1.07179e-06
-2.19336e-07
-4.29673e-08
-8.05432e-09
-1.43898e-09
-2.41476e-10
-2.41476e-11
6.5857e-12
-8.78094e-12
1.09762e-12
-1.09762e-12
-8.78094e-12
-1.09762e-12
7.68332e-12
1.09762e-12
0
1.09762e-12
-1.09762e-12
0
1.09762e-12
0
0
0
0
0
-1.64643e-11
1.09762e-12
1.53666e-11
8.78094e-12
-1.31714e-11
-1.53666e-11
-2.19523e-12
6.58571e-12
9.87856e-12
0
5.48809e-12
0
0
1.09762e-12
5.48809e-12
-1.09762e-12
-5.48809e-12
0
0
0
-1.09762e-11
0
1.20738e-11
1.09762e-12
-1.09762e-12
-1.09762e-12
-6018.02
-5176.98
-4008.22
-2859.87
-1896.55
-1171.72
-674.93
-362.778
-182.21
-85.6769
-37.7977
-15.6818
-6.13319
-2.26629
-0.792812
-0.263033
-0.0828794
-0.0248285
-0.00707739
-0.00192084
-0.000496635
-0.000122391
-2.87668e-05
-6.45299e-06
-1.38264e-06
-2.83227e-07
-5.55164e-08
-1.04263e-08
-1.85827e-09
-3.09528e-10
-5.70761e-11
-7.68332e-12
1.09762e-12
9.87856e-12
0
-8.78094e-12
0
-3.29285e-12
1.09762e-12
1.09762e-12
1.09762e-12
1.09762e-12
1.09762e-12
-2.19523e-12
9.87856e-12
0
-8.78094e-12
0
-1.09762e-12
0
0
3.29285e-12
1.09762e-11
-4.39047e-12
-1.09762e-11
0
3.29285e-12
1.09762e-12
-2.19523e-12
0
-1.09762e-12
0
-1.20738e-11
-1.09762e-12
1.4269e-11
1.09762e-12
0
0
-2.19524e-12
0
8.78094e-12
1.09762e-12
-9.87856e-12
0
0
-5612.46
-5007.31
-4043.79
-2989.29
-2035.74
-1281.97
-748.545
-406.296
-205.529
-97.1578
-43.0372
-17.9124
-7.02341
-2.60068
-0.911421
-0.302863
-0.0955681
-0.028669
-0.00818304
-0.00222383
-0.000575723
-0.000142065
-3.34333e-05
-7.50922e-06
-1.61093e-06
-3.30389e-07
-6.48407e-08
-1.21836e-08
-2.18755e-09
-3.69897e-10
-5.37833e-11
-1.09762e-12
1.09762e-12
2.19523e-12
-1.09762e-12
0
0
0
-1.09762e-12
0
-1.09762e-12
1.09762e-12
0
0
-1.09762e-12
1.09762e-12
0
1.09762e-12
-2.19523e-12
0
1.09762e-12
0
0
0
0
0
-5.48809e-12
0
1.20738e-11
0
-8.78094e-12
0
2.19523e-12
1.09762e-12
5.48809e-12
-2.19523e-12
-4.39047e-12
1.09762e-12
2.19523e-12
-5.48809e-12
-2.19523e-12
4.39047e-12
0
-5.48809e-12
5.48809e-12
-5431.89
-4915.28
-4045.05
-3043.78
-2103.4
-1339.75
-789.105
-431.148
-219.207
-104.031
-46.2247
-19.287
-7.57788
-2.81086
-0.986569
-0.328285
-0.103725
-0.0311552
-0.00890389
-0.00242279
-0.000628034
-0.000155172
-3.65649e-05
-8.22302e-06
-1.76629e-06
-3.62695e-07
-7.12584e-08
-1.34217e-08
-2.395e-09
-3.87459e-10
-6.36618e-11
-1.4269e-11
-8.78094e-12
0
0
0
-2.08547e-11
0
2.08547e-11
5.48809e-12
-1.09762e-12
4.39047e-12
1.09762e-12
-9.87856e-12
-1.09762e-12
-4.39047e-12
1.09762e-12
4.39047e-12
4.39047e-12
8.78094e-12
-3.29285e-12
-9.87856e-12
0
0
2.19524e-12
0
-5.48809e-12
-6.58571e-12
6.5857e-12
4.39047e-12
-1.09762e-12
0
4.39047e-12
0
-5.48809e-12
1.09762e-12
0
0
0
-1.09762e-11
-2.19523e-12
4.39047e-12
1.09762e-12
4.39047e-12
3.29285e-12
-5352.5
-4870.09
-4040.43
-3065.78
-2134.43
-1367.97
-809.778
-444.218
-226.575
-107.805
-48.0018
-20.0631
-7.89429
-2.93192
-1.03023
-0.343175
-0.108541
-0.0326354
-0.0093367
-0.0025433
-0.00066
-0.000163253
-3.85128e-05
-8.67088e-06
-1.86454e-06
-3.83288e-07
-7.54074e-08
-1.42054e-08
-2.56403e-09
-4.24778e-10
-4.50023e-11
-4.39047e-12
3.29285e-12
1.09762e-12
-3.29285e-12
0
0
1.09762e-11
1.31714e-11
-1.09762e-11
-1.31714e-11
-9.87856e-12
0
9.87856e-12
0
0
1.09762e-12
-2.19524e-12
-3.29285e-12
-5.48809e-12
1.09762e-12
7.68332e-12
-3.29285e-12
-1.09762e-12
4.39047e-12
0
-2.19524e-12
0
2.19523e-12
2.19524e-12
0
1.09762e-12
-1.09762e-12
-1.09762e-12
1.09762e-12
-1.09762e-12
0
0
0
0
0
-4.39047e-12
-1.09762e-12
0
5.48809e-12
-5318.53
-4849.39
-4036.73
-3074.33
-2147.94
-1380.92
-819.601
-450.597
-230.249
-109.719
-48.9159
-20.4671
-8.06073
-2.99619
-1.05361
-0.351219
-0.111165
-0.0334494
-0.00957696
-0.00261085
-0.000678097
-0.000167874
-3.96374e-05
-8.93192e-06
-1.92237e-06
-3.95517e-07
-7.78573e-08
-1.46839e-08
-2.65514e-09
-4.44535e-10
-6.80523e-11
-1.09762e-12
8.78094e-12
-5.48809e-12
0
4.39047e-12
0
0
1.09762e-12
-5.48809e-12
1.09762e-12
6.5857e-12
-9.87856e-12
-6.5857e-12
9.87856e-12
6.5857e-12
-1.09762e-12
0
-1.09762e-12
0
1.09762e-12
-1.09762e-12
-1.09762e-12
1.09762e-12
-7.68332e-12
0
-5.48809e-12
0
8.78094e-12
0
2.19523e-12
0
3.29285e-12
0
0
-1.09762e-12
0
-1.20738e-11
0
1.31714e-11
1.09762e-12
-8.78094e-12
-8.78094e-12
4.39047e-12
1.09762e-11
-5304.5
-4840.45
-4034.65
-3077.53
-2153.53
-1386.51
-823.974
-453.503
-231.953
-110.621
-49.3523
-20.6622
-8.14188
-3.02782
-1.06521
-0.355246
-0.112491
-0.0338643
-0.00970063
-0.00264597
-0.0006876
-0.000170325
-4.02399e-05
-9.07308e-06
-1.95392e-06
-4.02239e-07
-7.92118e-08
-1.49506e-08
-2.70563e-09
-4.47828e-10
-6.36618e-11
-5.48809e-12
1.09762e-12
-1.09762e-12
-3.29285e-12
-8.78094e-12
-9.87856e-12
9.87856e-12
8.78094e-12
0
0
0
0
-4.39047e-12
-9.87856e-12
5.48809e-12
8.78094e-12
0
-6.58571e-12
-1.09762e-12
5.48809e-12
2.19524e-12
0
0
5.48809e-12
2.305e-11
-5.48809e-12
-2.41476e-11
0
1.09762e-12
1.09762e-12
-1.09762e-12
0
0
1.09762e-12
6.58571e-12
-1.09762e-12
-6.5857e-12
1.09762e-12
-1.09762e-12
0
1.09762e-12
0
-1.09762e-12
0
-5298.94
-4836.81
-4033.66
-3078.68
-2155.74
-1388.8
-825.807
-454.745
-232.694
-111.018
-49.5467
-20.75
-8.17873
-3.0423
-1.07057
-0.357121
-0.113114
-0.0340609
-0.00975976
-0.00266292
-0.00069223
-0.00017153
-4.05388e-05
-9.14372e-06
-1.96984e-06
-4.05659e-07
-7.99055e-08
-1.50659e-08
-2.7199e-09
-4.75268e-10
-9.21999e-11
-7.68332e-12
2.19524e-12
0
-1.09762e-12
-1.09762e-12
0
0
-3.29285e-12
1.09762e-12
4.39047e-12
-1.09762e-12
0
-3.29285e-12
0
3.29285e-12
0
1.09762e-12
-1.20738e-11
-2.19523e-12
1.31714e-11
1.09762e-12
-4.39047e-12
1.09762e-12
3.29285e-12
1.4269e-11
0
-1.75619e-11
0
3.29285e-12
0
9.87856e-12
0
-9.87856e-12
0
1.64643e-11
1.09762e-12
-1.64643e-11
-1.09762e-12
2.19524e-12
5.48809e-12
-2.19524e-12
-5.48809e-12
0
0
-5296.84
-4835.39
-4033.24
-3079.08
-2156.57
-1389.68
-826.532
-455.244
-232.996
-111.182
-49.6279
-20.787
-8.1944
-3.04851
-1.07289
-0.357937
-0.113386
-0.0341477
-0.00978608
-0.00267052
-0.000694323
-0.000172079
-4.0676e-05
-9.17639e-06
-1.97723e-06
-4.07252e-07
-8.02413e-08
-1.51504e-08
-2.74404e-09
-4.85147e-10
-9.00046e-11
-9.87856e-12
-8.78094e-12
2.08547e-11
1.75619e-11
0
-1.09762e-12
-1.09762e-12
-5.48809e-12
-4.39047e-12
5.48809e-12
5.48809e-12
2.19523e-12
-1.09762e-12
0
0
-4.39047e-12
0
2.19523e-12
-3.29285e-12
0
3.29285e-12
2.19523e-12
1.09762e-12
0
2.19523e-12
-1.09762e-12
-2.19523e-12
-2.19523e-12
1.09762e-12
1.09762e-12
0
-1.09762e-12
-1.09762e-12
1.09762e-12
1.09762e-12
1.09762e-12
-1.09762e-12
0
0
1.09762e-12
-6.5857e-12
0
5.48809e-12
0
-5296.07
-4834.87
-4033.07
-3079.22
-2156.86
-1390.01
-826.803
-455.434
-233.112
-111.245
-49.6598
-20.8016
-8.20066
-3.05101
-1.07382
-0.358269
-0.113498
-0.0341835
-0.009797
-0.0026737
-0.000695203
-0.000172311
-4.07343e-05
-9.19034e-06
-1.98038e-06
-4.07936e-07
-8.04148e-08
-1.51844e-08
-2.75392e-09
-4.79659e-10
-7.57356e-11
-5.48809e-12
-2.19524e-12
1.64643e-11
2.19523e-12
-1.64643e-11
-1.4269e-11
-8.78094e-12
1.4269e-11
2.52452e-11
0
-1.53666e-11
1.09762e-12
0
-1.09762e-12
-1.09762e-12
-5.48809e-12
0
4.39047e-12
1.09762e-12
0
0
0
1.09762e-12
1.09762e-12
-2.19523e-12
0
-1.09762e-12
-1.09762e-12
3.29285e-12
1.4269e-11
-2.19523e-12
-1.31714e-11
0
-9.87856e-12
-2.08547e-11
8.78094e-12
2.19523e-11
0
0
0
0
-2.19524e-12
-3.29285e-12
5.48809e-12
-5295.81
-4834.69
-4033
-3079.26
-2156.97
-1390.12
-826.9
-455.502
-233.154
-111.269
-49.6716
-20.8071
-8.20302
-3.05195
-1.07418
-0.358396
-0.113541
-0.0341974
-0.00980123
-0.00267493
-0.000695546
-0.000172402
-4.07573e-05
-9.19583e-06
-1.98165e-06
-4.08225e-07
-8.04707e-08
-1.52086e-08
-2.75612e-09
-4.79659e-10
-8.34189e-11
0
3.29285e-12
1.09762e-12
-3.29285e-12
-3.29285e-12
0
1.09762e-12
0
2.19524e-12
0
3.29285e-12
8.78094e-12
-5.48809e-12
-7.68332e-12
1.09762e-12
5.48809e-12
-1.09762e-12
-6.58571e-12
0
2.19524e-12
1.09762e-12
-2.19523e-12
-1.09762e-12
0
0
0
0
0
2.19524e-12
-2.19524e-12
6.5857e-12
0
-1.86595e-11
-4.39047e-12
9.87856e-12
3.29285e-12
3.29285e-12
1.09762e-12
0
-1.09762e-12
0
0
1.09762e-12
-1.09762e-12
-5295.72
-4834.63
-4032.98
-3079.27
-2157
-1390.16
-826.932
-455.526
-233.169
-111.277
-49.6758
-20.8091
-8.20386
-3.05229
-1.07431
-0.358443
-0.113557
-0.0342024
-0.00980277
-0.00267538
-0.000695671
-0.000172435
-4.07656e-05
-9.19785e-06
-1.98212e-06
-4.08325e-07
-8.04993e-08
-1.52371e-08
-2.77917e-09
-4.78561e-10
-7.02475e-11
0
2.19523e-12
-5.48809e-12
0
1.64643e-11
3.29285e-12
-1.09762e-11
-2.19523e-12
-6.5857e-12
0
5.48809e-12
-2.19523e-12
0
2.19523e-12
-2.19523e-12
1.09762e-12
3.29285e-12
-1.09762e-12
0
1.09762e-12
0
-2.19523e-12
1.09762e-12
0
-1.09762e-12
-8.78094e-12
-8.78094e-12
4.39047e-12
8.78094e-12
4.39047e-12
0
-1.20738e-11
-1.09762e-12
1.31714e-11
2.19523e-12
-2.19523e-12
-1.09762e-12
1.09762e-12
-1.09762e-12
-4.39047e-12
-7.68332e-12
3.29285e-12
1.31714e-11
-3.29285e-12
-5295.69
-4834.61
-4032.97
-3079.28
-2157.01
-1390.17
-826.943
-455.533
-233.174
-111.28
-49.6772
-20.8097
-8.20415
-3.05241
-1.07435
-0.358458
-0.113562
-0.0342041
-0.0098033
-0.00267554
-0.000695714
-0.000172447
-4.07685e-05
-9.19855e-06
-1.98229e-06
-4.08355e-07
-8.05059e-08
-1.52371e-08
-2.78356e-09
-4.68683e-10
-5.81737e-11
-1.09762e-12
0
-1.09762e-12
0
1.09762e-12
0
0
0
0
-8.78094e-12
-1.09762e-12
9.87856e-12
-4.39047e-12
-5.48809e-12
5.48809e-12
4.39047e-12
0
0
0
0
0
2.19523e-12
0
-2.19524e-12
5.48809e-12
0
-5.48809e-12
1.09762e-12
0
-2.19524e-12
0
1.09762e-12
0
4.39047e-12
0
-4.39047e-12
-1.09762e-12
0
-4.39047e-12
4.39047e-12
5.48809e-12
-4.39047e-12
1.09762e-12
-1.09762e-12
-5295.68
-4834.6
-4032.97
-3079.28
-2157.01
-1390.18
-826.946
-455.536
-233.175
-111.281
-49.6777
-20.81
-8.20424
-3.05245
-1.07437
-0.358464
-0.113564
-0.0342047
-0.00980347
-0.00267559
-0.000695728
-0.00017245
-4.07694e-05
-9.19877e-06
-1.98234e-06
-4.08364e-07
-8.05048e-08
-1.52229e-08
-2.77478e-09
-4.6539e-10
-5.81737e-11
-6.5857e-12
0
1.09762e-12
0
-8.78094e-12
5.48809e-12
0
-5.48809e-12
7.68332e-12
1.09762e-12
-1.4269e-11
0
1.4269e-11
-5.48809e-12
2.19524e-12
5.48809e-12
-7.68332e-12
0
6.5857e-12
-3.29285e-12
-9.87856e-12
3.29285e-12
-5.48809e-12
-2.19524e-12
1.53666e-11
-1.09762e-12
0
5.48809e-12
1.09762e-12
-8.78094e-12
-1.09762e-12
5.48809e-12
8.78094e-12
0
-8.78094e-12
0
-4.39047e-12
0
-6.58571e-12
-1.09762e-12
9.87856e-12
9.87856e-12
1.09762e-12
-8.78094e-12
-5295.68
-4834.6
-4032.97
-3079.28
-2157.01
-1390.18
-826.947
-455.537
-233.176
-111.281
-49.6778
-20.81
-8.20427
-3.05246
-1.07437
-0.358465
-0.113565
-0.0342049
-0.00980353
-0.0026756
-0.000695732
-0.000172452
-4.07697e-05
-9.19882e-06
-1.98237e-06
-4.08388e-07
-8.05026e-08
-1.52163e-08
-2.7649e-09
-4.63195e-10
-6.47594e-11
-9.87856e-12
-1.20738e-11
-3.29285e-12
1.09762e-11
2.19523e-12
5.48809e-12
0
-5.48809e-12
0
-1.09762e-12
1.09762e-12
1.09762e-12
-1.09762e-12
0
0
3.29285e-12
0
-4.39047e-12
0
1.09762e-12
0
-1.09762e-12
1.09762e-12
-4.39047e-12
-1.09762e-12
6.5857e-12
8.78094e-12
-1.09762e-12
-8.78094e-12
0
0
-2.19523e-12
4.39047e-12
2.19523e-12
-5.48809e-12
-2.19523e-12
0
2.19523e-12
-6.5857e-12
-4.39047e-12
6.5857e-12
4.39047e-12
8.78094e-12
-7.68332e-12
-5295.68
-4834.6
-4032.97
-3079.28
-2157.01
-1390.18
-826.947
-455.537
-233.176
-111.281
-49.6778
-20.81
-8.20428
-3.05246
-1.07437
-0.358466
-0.113565
-0.0342049
-0.00980354
-0.0026756
-0.000695733
-0.000172452
-4.07697e-05
-9.19885e-06
-1.98238e-06
-4.08371e-07
-8.04938e-08
-1.52349e-08
-2.75941e-09
-4.59902e-10
-7.90285e-11
-7.68332e-12
0
6.58571e-12
1.09762e-12
-9.87856e-12
0
4.39047e-12
-4.39047e-12
0
-4.39047e-12
0
1.4269e-11
-1.53666e-11
-4.39047e-12
1.4269e-11
0
1.09762e-12
0
-1.09762e-12
1.09762e-12
0
-1.09762e-12
0
2.19524e-12
0
-1.09762e-12
0
-1.09762e-12
0
0
1.09762e-12
-1.09762e-12
0
0
0
-1.09762e-12
0
1.09762e-12
-1.4269e-11
4.39047e-12
9.87856e-12
-3.29285e-12
4.39047e-12
-1.09762e-12
-5295.68
-4834.6
-4032.97
-3079.28
-2157.01
-1390.18
-826.947
-455.537
-233.176
-111.281
-49.6778
-20.81
-8.20428
-3.05247
-1.07437
-0.358466
-0.113565
-0.0342049
-0.00980355
-0.00267561
-0.000695734
-0.000172452
-4.07698e-05
-9.19886e-06
-1.98239e-06
-4.08382e-07
-8.04993e-08
-1.52174e-08
-2.74075e-09
-4.62097e-10
-8.45165e-11
-7.68332e-12
0
0
0
0
0
-1.09762e-12
1.09762e-12
1.09762e-12
0
1.09762e-12
-1.09762e-12
-1.64643e-11
0
1.53666e-11
0
0
1.09762e-12
-1.09762e-12
1.09762e-12
0
-1.09762e-12
-1.09762e-12
0
1.09762e-12
-1.09762e-12
0
1.09762e-12
0
-3.29285e-12
0
3.29285e-12
0
1.09762e-12
8.78094e-12
0
-9.87856e-12
0
0
9.87856e-12
3.29285e-12
-1.4269e-11
-2.19523e-12
3.29285e-12
-5295.68
-4834.6
-4032.97
-3079.28
-2157.01
-1390.18
-826.947
-455.537
-233.176
-111.281
-49.6779
-20.81
-8.20428
-3.05247
-1.07437
-0.358466
-0.113565
-0.0342049
-0.00980355
-0.00267561
-0.000695734
-0.000172452
-4.07698e-05
-9.19885e-06
-1.98236e-06
-4.08393e-07
-8.04982e-08
-1.52064e-08
-2.75063e-09
-4.56609e-10
-7.24428e-11
-1.4269e-11
0
1.09762e-12
0
0
0
0
0
0
5.48809e-12
-1.09762e-12
-5.48809e-12
1.09762e-12
1.09762e-12
1.09762e-11
-1.09762e-12
-2.19523e-12
0
-8.78094e-12
0
0
0
1.09762e-12
1.09762e-12
-2.19523e-12
1.09762e-12
-1.09762e-12
2.19523e-12
-2.19523e-12
-1.09762e-11
3.29285e-12
7.68332e-12
-8.78094e-12
-1.09762e-11
9.87856e-12
9.87856e-12
5.48809e-12
-1.09762e-12
-4.39047e-12
0
-1.09762e-12
0
0
1.09762e-12
-5295.68
-4834.6
-4032.97
-3079.28
-2157.01
-1390.18
-826.947
-455.537
-233.176
-111.281
-49.6779
-20.81
-8.20428
-3.05247
-1.07437
-0.358466
-0.113565
-0.0342049
-0.00980355
-0.00267561
-0.000695734
-0.000172452
-4.07698e-05
-9.19885e-06
-1.98235e-06
-4.08393e-07
-8.05048e-08
-1.52097e-08
-2.75502e-09
-4.62097e-10
-6.91499e-11
-1.09762e-12
-1.09762e-12
0
1.09762e-12
0
-7.68332e-12
0
8.78094e-12
0
5.48809e-12
0
-6.58571e-12
0
-9.87856e-12
2.19524e-12
8.78094e-12
-1.09762e-12
-8.78094e-12
1.09762e-12
7.68332e-12
0
0
1.09762e-12
2.19524e-12
1.86595e-11
-4.39047e-12
-1.75619e-11
1.09762e-12
0
-1.09762e-11
-1.09762e-12
1.31714e-11
0
-2.19523e-12
0
1.09762e-12
-1.09762e-12
0
-2.19524e-12
-2.19523e-12
6.58571e-12
-3.29285e-12
-7.68332e-12
8.78094e-12
-5295.68
-4834.6
-4032.97
-3079.28
-2157.01
-1390.18
-826.947
-455.537
-233.176
-111.281
-49.6779
-20.81
-8.20428
-3.05247
-1.07437
-0.358466
-0.113565
-0.0342049
-0.00980355
-0.00267561
-0.000695734
-0.000172452
-4.07698e-05
-9.19888e-06
-1.98236e-06
-4.08377e-07
-8.0496e-08
-1.52064e-08
-2.75612e-09
-4.66487e-10
-7.13451e-11
-5.48809e-12
0
4.39047e-12
0
-4.39047e-12
-6.58571e-12
5.48809e-12
5.48809e-12
1.09762e-12
6.5857e-12
-1.09762e-12
-6.58571e-12
-4.39047e-12
0
4.39047e-12
-3.29285e-12
2.19524e-12
3.29285e-12
-2.19523e-12
2.19524e-12
0
1.09762e-12
0
-3.29285e-12
9.87856e-12
0
-9.87856e-12
0
0
0
0
-1.64643e-11
0
1.64643e-11
0
1.09762e-12
0
0
-1.31714e-11
0
1.20738e-11
-3.29285e-12
1.09762e-12
2.19524e-12
-5295.68
-4834.6
-4032.97
-3079.28
-2157.01
-1390.18
-826.947
-455.537
-233.176
-111.281
-49.6779
-20.81
-8.20428
-3.05247
-1.07437
-0.358466
-0.113565
-0.0342049
-0.00980355
-0.00267561
-0.000695734
-0.000172452
-4.07698e-05
-9.19888e-06
-1.98237e-06
-4.0837e-07
-8.0507e-08
-1.52196e-08
-2.76161e-09
-4.62097e-10
-6.25642e-11
4.39047e-12
-1.09762e-12
-2.19523e-12
0
1.09762e-12
0
0
0
-1.09762e-12
-1.09762e-12
3.29285e-12
-2.19523e-12
-3.29285e-12
2.19523e-12
1.09762e-12
0
0
0
0
1.09762e-12
0
-1.09762e-12
1.09762e-12
0
-1.09762e-12
-7.68332e-12
-1.09762e-12
7.68332e-12
1.09762e-12
0
0
0
-1.09762e-12
-4.39047e-12
1.20738e-11
4.39047e-12
-1.09762e-11
-2.19523e-12
-1.09762e-12
2.19523e-12
0
0
-1.09762e-11
1.20738e-11
-5295.68
-4834.6
-4032.97
-3079.28
-2157.01
-1390.18
-826.947
-455.537
-233.176
-111.281
-49.6779
-20.81
-8.20428
-3.05247
-1.07437
-0.358466
-0.113565
-0.0342049
-0.00980355
-0.00267561
-0.000695734
-0.000172452
-4.07698e-05
-9.19887e-06
-1.98239e-06
-4.08392e-07
-8.05026e-08
-1.52119e-08
-2.74514e-09
-4.6539e-10
-7.13451e-11
-5.48809e-12
0
7.68332e-12
0
-8.78094e-12
0
0
0
0
0
1.09762e-12
0
-1.09762e-12
0
1.09762e-12
-3.29285e-12
-1.09762e-12
4.39047e-12
0
0
5.48809e-12
0
-7.68332e-12
3.29285e-12
2.19523e-12
7.68332e-12
1.09762e-12
-1.20738e-11
0
-1.09762e-12
-1.09762e-12
-2.19524e-12
0
1.75619e-11
0
-1.4269e-11
0
1.09762e-12
-5.48809e-12
-2.19523e-12
6.58571e-12
-1.09762e-12
-1.09762e-12
2.19524e-12
-5295.68
-4834.6
-4032.97
-3079.28
-2157.01
-1390.18
-826.947
-455.537
-233.176
-111.281
-49.6779
-20.81
-8.20428
-3.05247
-1.07437
-0.358466
-0.113565
-0.0342049
-0.00980355
-0.00267561
-0.000695734
-0.000172452
-4.07698e-05
-9.19888e-06
-1.98237e-06
-4.08393e-07
-8.05256e-08
-1.52031e-08
-2.75282e-09
-4.6978e-10
-6.0369e-11
-2.19523e-12
2.19524e-12
3.29285e-12
-4.39047e-12
-2.19524e-12
4.39047e-12
-2.19524e-12
2.19524e-12
0
1.09762e-12
-1.09762e-12
-3.29285e-12
2.19523e-12
-2.19524e-12
-1.09762e-12
-3.29285e-12
-1.09762e-12
6.58571e-12
-5.48809e-12
-8.78094e-12
5.48809e-12
8.78094e-12
-1.31714e-11
6.58571e-12
1.53666e-11
-2.19524e-12
-3.29285e-12
-5.48809e-12
2.19524e-12
1.09762e-12
-3.29285e-12
4.39047e-12
4.39047e-12
-4.39047e-12
-2.19524e-12
0
0
0
0
0
0
1.09762e-12
1.09762e-12
-2.19524e-12
-5295.68
-4834.6
-4032.97
-3079.28
-2157.01
-1390.18
-826.947
-455.537
-233.176
-111.281
-49.6779
-20.81
-8.20428
-3.05247
-1.07437
-0.358466
-0.113565
-0.0342049
-0.00980355
-0.00267561
-0.000695734
-0.000172452
-4.07698e-05
-9.19885e-06
-1.98236e-06
-4.08386e-07
-8.0519e-08
-1.52327e-08
-2.766e-09
-4.60999e-10
-5.81737e-11
1.09762e-12
-1.09762e-12
0
1.09762e-12
1.09762e-11
1.09762e-12
-9.87856e-12
-1.09762e-12
0
-1.09762e-12
-1.09762e-12
0
0
1.75619e-11
1.09762e-12
-2.08547e-11
0
3.29285e-12
0
-2.19523e-12
-1.09762e-12
3.29285e-12
0
0
0
8.78094e-12
-2.19523e-12
-5.48809e-12
1.09762e-12
-2.19523e-12
0
2.19523e-12
-2.19523e-12
-2.19523e-12
4.39047e-12
1.09762e-12
-3.29285e-12
0
0
2.19523e-12
0
-2.19523e-12
-5.48809e-12
5.48809e-12
-5295.68
-4834.6
-4032.97
-3079.28
-2157.01
-1390.18
-826.947
-455.537
-233.176
-111.281
-49.6779
-20.81
-8.20428
-3.05247
-1.07437
-0.358466
-0.113565
-0.0342049
-0.00980355
-0.00267561
-0.000695734
-0.000172452
-4.07698e-05
-9.19885e-06
-1.98238e-06
-4.08389e-07
-8.04861e-08
-1.52185e-08
-2.77039e-09
-4.64292e-10
-7.13451e-11
-1.20738e-11
0
5.48809e-12
-1.09762e-12
0
-4.39047e-12
-5.48809e-12
5.48809e-12
0
1.09762e-12
-1.09762e-12
0
0
1.09762e-12
0
3.29285e-12
0
-4.39047e-12
0
0
0
0
0
0
2.19523e-12
0
-1.09762e-12
0
0
-2.19524e-12
0
-4.39047e-12
-1.09762e-12
5.48809e-12
1.09762e-12
0
2.19523e-12
-1.09762e-12
-6.58571e-12
0
2.19524e-12
-1.4269e-11
4.39047e-12
1.31714e-11
-5295.68
-4834.6
-4032.97
-3079.28
-2157.01
-1390.18
-826.947
-455.537
-233.176
-111.281
-49.6779
-20.81
-8.20428
-3.05247
-1.07437
-0.358466
-0.113565
-0.0342049
-0.00980355
-0.00267561
-0.000695734
-0.000172452
-4.07698e-05
-9.19887e-06
-1.98239e-06
-4.08376e-07
-8.04894e-08
-1.5202e-08
-2.75831e-09
-4.78561e-10
-8.01261e-11
-7.68332e-12
6.58571e-12
1.09762e-12
-5.48809e-12
-1.09762e-12
-1.31714e-11
-1.09762e-12
1.31714e-11
2.19524e-12
5.48809e-12
-1.09762e-12
-6.58571e-12
-4.39047e-12
0
5.48809e-12
0
8.78094e-12
2.19524e-12
-1.20738e-11
0
-5.48809e-12
-1.09762e-12
5.48809e-12
0
2.19523e-12
0
1.09762e-12
0
-2.19524e-12
0
-5.48809e-12
-1.75619e-11
4.39047e-12
1.86595e-11
0
-1.09762e-12
1.09762e-12
0
0
0
0
0
8.78094e-12
-8.78094e-12
-5295.68
-4834.6
-4032.97
-3079.28
-2157.01
-1390.18
-826.947
-455.537
-233.176
-111.281
-49.6779
-20.81
-8.20428
-3.05247
-1.07437
-0.358466
-0.113565
-0.0342049
-0.00980355
-0.00267561
-0.000695734
-0.000172452
-4.07698e-05
-9.19887e-06
-1.98238e-06
-4.08381e-07
-8.04872e-08
-1.52075e-08
-2.74404e-09
-4.55511e-10
-8.12237e-11
-1.20738e-11
0
1.09762e-12
1.09762e-12
-1.09762e-12
-1.09762e-12
-7.68332e-12
1.09762e-12
8.78094e-12
-1.09762e-12
-1.09762e-12
0
1.09762e-12
1.09762e-12
6.5857e-12
0
1.09762e-12
-2.19523e-12
-8.78094e-12
2.19523e-12
1.09762e-12
2.19523e-12
-1.09762e-12
-2.19523e-12
0
0
0
-1.09762e-12
0
1.09762e-12
-1.09762e-12
0
1.09762e-12
-3.29285e-12
0
3.29285e-12
9.87856e-12
3.29285e-12
-8.78094e-12
-2.41476e-11
-1.09762e-12
1.64643e-11
2.19523e-12
2.19523e-12
-5295.68
-4834.6
-4032.97
-3079.28
-2157.01
-1390.18
-826.947
-455.537
-233.176
-111.281
-49.6779
-20.81
-8.20428
-3.05247
-1.07437
-0.358466
-0.113565
-0.0342049
-0.00980355
-0.00267561
-0.000695734
-0.000172452
-4.07698e-05
-9.19888e-06
-1.9824e-06
-4.08376e-07
-8.04905e-08
-1.52009e-08
-2.74514e-09
-4.66487e-10
-7.02475e-11
-3.29285e-12
0
2.19524e-12
3.29285e-12
-6.58571e-12
-4.39047e-12
3.29285e-12
3.29285e-12
4.39047e-12
-3.29285e-12
-2.19524e-12
1.09762e-12
-3.29285e-12
-2.19524e-12
2.305e-11
-1.09762e-12
-1.64643e-11
0
-1.09762e-12
0
1.4269e-11
0
-1.53666e-11
0
1.20738e-11
-1.09762e-12
-9.87856e-12
0
-1.09762e-12
1.09762e-12
0
0
0
0
0
9.87856e-12
2.19523e-12
-9.87856e-12
-6.58571e-12
-1.09762e-12
5.48809e-12
0
0
0
-5295.68
-4834.6
-4032.97
-3079.28
-2157.01
-1390.18
-826.947
-455.537
-233.176
-111.281
-49.6779
-20.81
-8.20428
-3.05247
-1.07437
-0.358466
-0.113565
-0.0342049
-0.00980355
-0.00267561
-0.000695734
-0.000172452
-4.07698e-05
-9.19887e-06
-1.98238e-06
-4.08392e-07
-8.05026e-08
-1.52042e-08
-2.74185e-09
-4.52218e-10
-6.25642e-11
-4.39047e-12
0
2.19524e-12
1.09762e-12
-2.19524e-12
-1.09762e-12
0
1.09762e-12
0
-1.09762e-12
0
0
0
0
9.87856e-12
0
-9.87856e-12
0
-2.19523e-12
-9.87856e-12
1.09762e-12
1.09762e-11
1.09762e-12
2.19524e-12
8.78094e-12
-1.31714e-11
-9.87856e-12
1.20738e-11
-1.09762e-12
-4.39047e-12
-3.29285e-12
4.39047e-12
3.29285e-12
0
0
1.09762e-12
-1.09762e-12
7.68332e-12
1.09762e-12
-4.39047e-12
0
-2.19524e-12
0
-2.19524e-12
-5295.68
-4834.6
-4032.97
-3079.28
-2157.01
-1390.18
-826.947
-455.537
-233.176
-111.281
-49.6779
-20.81
-8.20428
-3.05247
-1.07437
-0.358466
-0.113565
-0.0342049
-0.00980355
-0.00267561
-0.000695734
-0.000172452
-4.07698e-05
-9.19888e-06
-1.98238e-06
-4.08371e-07
-8.04894e-08
-1.52086e-08
-2.74953e-09
-4.64292e-10
-7.35404e-11
1.09762e-12
8.78094e-12
-6.5857e-12
0
5.48809e-12
1.09762e-12
0
0
-6.5857e-12
0
6.5857e-12
0
-6.5857e-12
0
5.48809e-12
-1.09762e-12
1.09762e-12
0
-5.48809e-12
-3.29285e-12
3.29285e-12
7.68332e-12
0
-2.19523e-12
0
-1.75619e-11
-9.87856e-12
5.48809e-12
5.48809e-12
1.20738e-11
4.39047e-12
-2.19523e-12
0
-7.68332e-12
0
1.4269e-11
0
-4.39047e-12
-7.68332e-12
-1.09762e-12
-1.09762e-12
0
1.64643e-11
-6.5857e-12
-5295.68
-4834.6
-4032.97
-3079.28
-2157.01
-1390.18
-826.947
-455.537
-233.176
-111.281
-49.6779
-20.81
-8.20428
-3.05247
-1.07437
-0.358466
-0.113565
-0.0342049
-0.00980355
-0.00267561
-0.000695734
-0.000172452
-4.07698e-05
-9.19888e-06
-1.9824e-06
-4.08376e-07
-8.04828e-08
-1.51998e-08
-2.7638e-09
-5.00514e-10
-9.98832e-11
-5.48809e-12
3.84166e-11
2.63428e-11
0
0
-1.20738e-11
-1.09762e-12
1.31714e-11
0
3.29285e-12
4.39047e-12
0
-7.68332e-12
-1.09762e-12
1.09762e-12
0
0
-2.19524e-12
-2.19523e-12
4.39047e-12
1.09762e-12
-1.09762e-12
-1.09762e-12
8.78094e-12
3.29285e-12
-1.09762e-11
-9.87856e-12
1.09762e-12
-5.48809e-12
1.09762e-12
1.31714e-11
-5.48809e-12
-1.09762e-12
6.5857e-12
0
1.09762e-12
0
-1.09762e-12
-1.31714e-11
0
6.58571e-12
-4.39047e-12
6.5857e-12
4.39047e-12
-5295.68
-4834.6
-4032.97
-3079.28
-2157.01
-1390.18
-826.947
-455.537
-233.176
-111.281
-49.6779
-20.81
-8.20428
-3.05247
-1.07437
-0.358466
-0.113565
-0.0342049
-0.00980355
-0.00267561
-0.000695734
-0.000172452
-4.07698e-05
-9.19888e-06
-1.98238e-06
-4.0838e-07
-8.05048e-08
-1.52042e-08
-2.7627e-09
-4.86245e-10
-7.57356e-11
-5.48809e-12
2.305e-11
1.20738e-11
-1.09762e-12
3.29285e-12
-9.87856e-12
-7.68332e-12
9.87856e-12
5.48809e-12
0
3.29285e-12
-4.39047e-12
0
-4.39047e-12
0
-5.48809e-12
-1.09762e-12
1.31714e-11
-2.19523e-12
-4.39047e-12
3.29285e-12
-7.68332e-12
1.09762e-12
1.53666e-11
1.09762e-12
-1.75619e-11
8.78094e-12
1.31714e-11
-8.78094e-12
2.19524e-12
0
-2.19524e-12
-1.09762e-12
1.09762e-12
-3.29285e-12
4.39047e-12
4.39047e-12
1.09762e-12
-2.19524e-12
-5.48809e-12
1.09762e-12
1.09762e-12
-1.09762e-12
0
-5295.68
-4834.6
-4032.97
-3079.28
-2157.01
-1390.18
-826.947
-455.537
-233.176
-111.281
-49.6779
-20.81
-8.20428
-3.05247
-1.07437
-0.358466
-0.113565
-0.0342049
-0.00980355
-0.00267561
-0.000695734
-0.000172452
-4.07698e-05
-9.19888e-06
-1.98237e-06
-4.08362e-07
-8.05015e-08
-1.52086e-08
-2.76819e-09
-4.81854e-10
-6.14666e-11
0
0
0
1.09762e-12
1.09762e-12
0
7.68332e-12
-5.48809e-12
-8.78094e-12
5.48809e-12
8.78094e-12
-1.4269e-11
-8.78094e-12
1.53666e-11
1.09762e-12
-2.19523e-12
1.09762e-12
-9.87856e-12
0
1.4269e-11
0
-7.68332e-12
1.09762e-12
-1.09762e-11
-1.09762e-12
9.87856e-12
0
3.29285e-12
-1.09762e-12
-2.19523e-12
-1.09762e-12
-5.48809e-12
-2.19523e-12
7.68332e-12
4.39047e-12
1.31714e-11
0
-1.31714e-11
8.78094e-12
1.31714e-11
-1.09762e-11
-1.09762e-11
-1.09762e-12
1.09762e-12
-5295.68
-4834.6
-4032.97
-3079.28
-2157.01
-1390.18
-826.947
-455.537
-233.176
-111.281
-49.6779
-20.81
-8.20428
-3.05247
-1.07437
-0.358466
-0.113565
-0.0342049
-0.00980355
-0.00267561
-0.000695734
-0.000172452
-4.07698e-05
-9.19887e-06
-1.98237e-06
-4.08372e-07
-8.04806e-08
-1.5202e-08
-2.7638e-09
-4.9283e-10
-8.56142e-11
-5.48809e-12
0
9.87856e-12
0
-8.78094e-12
-1.09762e-12
-1.09762e-12
1.09762e-12
8.78094e-12
-4.39047e-12
-4.39047e-12
9.87856e-12
-5.48809e-12
-4.39047e-12
9.87856e-12
9.87856e-12
-1.09762e-11
-1.4269e-11
0
7.68332e-12
1.4269e-11
7.68332e-12
-1.4269e-11
0
4.39047e-12
-8.78094e-12
-5.48809e-12
0
0
0
0
0
-3.29285e-12
0
4.39047e-12
0
-1.09762e-12
-8.78094e-12
-6.58571e-12
1.53666e-11
5.48809e-12
-8.78094e-12
0
3.29285e-12
-5295.68
-4834.6
-4032.97
-3079.28
-2157.01
-1390.18
-826.947
-455.537
-233.176
-111.281
-49.6779
-20.81
-8.20428
-3.05247
-1.07437
-0.358466
-0.113565
-0.0342049
-0.00980355
-0.00267561
-0.000695734
-0.000172452
-4.07698e-05
-9.19886e-06
-1.98238e-06
-4.08366e-07
-8.04883e-08
-1.52229e-08
-2.77039e-09
-4.8844e-10
-7.79308e-11
-1.09762e-12
5.48809e-12
0
-9.87856e-12
-1.09762e-12
4.39047e-12
-1.09762e-12
2.19524e-12
0
0
5.48809e-12
5.48809e-12
-6.5857e-12
-3.29285e-12
1.09762e-12
-1.09762e-12
0
0
-1.09762e-12
8.78094e-12
1.4269e-11
-8.78094e-12
-1.53666e-11
0
1.53666e-11
0
-1.31714e-11
0
-1.09762e-12
-3.29285e-12
-1.09762e-12
4.39047e-12
0
0
0
0
1.09762e-12
-1.09762e-12
-7.68332e-12
1.09762e-12
7.68332e-12
-8.78094e-12
0
7.68332e-12
-5295.68
-4834.6
-4032.97
-3079.28
-2157.01
-1390.18
-826.947
-455.537
-233.176
-111.281
-49.6779
-20.81
-8.20428
-3.05247
-1.07437
-0.358466
-0.113565
-0.0342049
-0.00980355
-0.00267561
-0.000695734
-0.000172452
-4.07698e-05
-9.19886e-06
-1.98237e-06
-4.08361e-07
-8.05026e-08
-1.5224e-08
-2.75831e-09
-4.77464e-10
-8.12237e-11
-1.4269e-11
1.09762e-12
6.5857e-12
0
0
-1.09762e-12
2.19523e-12
1.31714e-11
0
-7.68332e-12
-9.87856e-12
-5.48809e-12
9.87856e-12
0
-1.09762e-12
1.09762e-12
-1.09762e-12
0
0
1.09762e-12
0
0
-1.09762e-12
-9.87856e-12
0
4.39047e-12
0
5.48809e-12
0
-2.19523e-12
5.48809e-12
2.19523e-12
-4.39047e-12
0
-1.09762e-12
0
7.68332e-12
7.68332e-12
-6.5857e-12
-9.87856e-12
-7.68332e-12
-2.19523e-12
3.29285e-12
7.68332e-12
-5295.68
-4834.6
-4032.97
-3079.28
-2157.01
-1390.18
-826.947
-455.537
-233.176
-111.281
-49.6779
-20.81
-8.20428
-3.05247
-1.07437
-0.358466
-0.113565
-0.0342049
-0.00980355
-0.00267561
-0.000695734
-0.000172452
-4.07698e-05
-9.19887e-06
-1.98236e-06
-4.08361e-07
-8.0507e-08
-1.52207e-08
-2.75722e-09
-4.80756e-10
-7.79308e-11
-7.68332e-12
1.09762e-12
1.09762e-12
0
1.09762e-12
0
0
0
-1.09762e-12
0
1.09762e-12
0
0
1.09762e-12
-1.09762e-12
3.29285e-12
0
-2.19524e-12
0
3.29285e-12
2.19524e-12
-7.68332e-12
-2.19524e-12
3.29285e-12
-1.09762e-12
-1.09762e-12
1.09762e-12
1.09762e-12
0
-1.09762e-12
1.09762e-12
-1.09762e-12
0
-4.39047e-12
0
4.39047e-12
1.09762e-12
4.39047e-12
0
-5.48809e-12
-4.39047e-12
1.09762e-12
4.39047e-12
0
-5295.68
-4834.6
-4032.97
-3079.28
-2157.01
-1390.18
-826.947
-455.537
-233.176
-111.281
-49.6779
-20.81
-8.20428
-3.05247
-1.07437
-0.358466
-0.113565
-0.0342049
-0.00980355
-0.00267561
-0.000695734
-0.000172452
-4.07698e-05
-9.19887e-06
-1.98234e-06
-4.08362e-07
-8.05048e-08
-1.52218e-08
-2.74953e-09
-4.77464e-10
-8.12237e-11
1.09762e-12
-1.09762e-12
-3.29285e-12
1.09762e-12
0
-1.09762e-12
3.29285e-12
4.39047e-12