/*--------------------------------*- C++ -*----------------------------------*\
  =========                 |
  \\      /  F ield         | OpenFOAM: The Open Source CFD Toolbox
   \\    /   O peration     | Website:  https://openfoam.org
    \\  /    A nd           | Version:  10
     \\/     M anipulation  |
\*---------------------------------------------------------------------------*/
FoamFile
{
    format      ascii;
    class       volScalarField;
    location    "99";
    object      gradTx;
}
// * * * * * * * * * * * * * * * * * * * * * * * * * * * * * * * * * * * * * //

dimensions      [0 -1 0 1 0 0 0];

internalField   nonuniform List<scalar> 
11250
(
14243.3
7936.83
5039.76
3465.2
2490.08
1829.55
1356.21
1005.88
742.411
543.293
393.19
280.897
197.825
137.205
93.6439
62.8586
41.48
26.9006
17.1408
10.7295
6.59713
3.98413
2.36321
1.37678
0.787836
0.44283
0.244513
0.132638
0.0706937
0.0370244
0.0190565
0.0096406
0.00479434
0.00234412
0.001127
0.000532869
0.000247822
0.000113384
5.10412e-05
2.26109e-05
9.85849e-06
4.23127e-06
1.78796e-06
7.43946e-07
3.04838e-07
1.23056e-07
4.89296e-08
1.91644e-08
7.40782e-09
2.82746e-09
1.07347e-09
3.9624e-10
1.49276e-10
3.7319e-11
4.39047e-12
0
1.09762e-12
-2.19524e-12
0
2.19524e-12
0
1.09762e-12
0
-2.19524e-11
9.87856e-12
-1.09762e-12
-1.09762e-12
0
1.09762e-12
0
-5.48809e-12
0
-7.68332e-12
0
-9.87856e-12
4039.98
4538.09
3734.23
2887.92
2201.53
1670.75
1262.47
947.797
705.262
519.064
377.219
270.329
190.84
132.61
90.6443
60.9199
40.2413
26.1193
16.6549
10.4317
6.41736
3.87732
2.30076
1.34087
0.76752
0.431529
0.238331
0.129313
0.0689354
0.0361101
0.018589
0.00940551
0.00467809
0.00228758
0.00109994
0.000520135
0.000241926
0.000110697
4.98362e-05
2.2079e-05
9.62739e-06
4.1324e-06
1.74634e-06
7.26686e-07
2.97813e-07
1.20214e-07
4.77947e-08
1.87308e-08
7.23001e-09
2.73965e-09
9.91149e-10
3.53433e-10
1.16347e-10
4.28071e-11
-1.53666e-11
-6.5857e-12
-1.4269e-11
0
-4.39047e-12
0
0
-1.09762e-12
0
2.41476e-11
5.48809e-12
0
-1.09762e-12
1.09762e-12
-1.09762e-12
0
-8.78094e-12
0
8.78094e-12
2.19523e-12
0
1422.05
2451.75
2487.74
2172.42
1782.82
1417.19
1103.73
845.721
638.37
474.71
347.643
250.594
177.714
123.934
84.9607
57.2356
37.882
24.6284
15.7261
9.86159
6.07286
3.67243
2.18087
1.27186
0.728459
0.409788
0.226432
0.12291
0.0655474
0.0343475
0.0176873
0.00895193
0.00445369
0.00217839
0.00104768
0.00049553
0.000230527
0.000105501
4.75053e-05
2.10498e-05
9.18005e-06
3.94096e-06
1.66568e-06
6.93243e-07
2.84153e-07
1.14711e-07
4.56258e-08
1.78879e-08
6.89304e-09
2.60135e-09
9.5822e-10
3.39164e-10
1.31714e-10
4.17095e-11
0
-2.19523e-12
0
4.39047e-12
0
-2.19524e-12
0
0
0
-1.4269e-11
-1.09762e-11
2.19524e-12
3.29285e-12
2.19523e-12
0
0
3.29285e-12
8.78094e-12
0
-1.09762e-12
8.78094e-12
621.9
1369.1
1608.4
1551.94
1364.46
1137.98
916.864
719.893
553.203
416.922
308.458
224.119
159.939
112.101
77.1635
52.1583
34.6186
22.56
14.4343
9.06709
5.5919
3.38595
2.01302
1.17514
0.673657
0.379257
0.20971
0.113905
0.0607798
0.0318658
0.0164171
0.00831264
0.00413728
0.00202437
0.000973938
0.000460794
0.000214431
9.81612e-05
4.42116e-05
1.95951e-05
8.54758e-06
3.6702e-06
1.55155e-06
6.45871e-07
2.64773e-07
1.069e-07
4.25294e-08
1.66487e-08
6.41448e-09
2.41366e-09
9.1212e-10
3.29285e-10
1.13055e-10
3.29285e-11
2.19524e-11
5.48809e-12
1.4269e-11
-4.39047e-12
5.48809e-12
6.58571e-12
0
-2.19523e-12
0
-1.09762e-12
-4.39047e-12
3.29285e-12
0
1.09762e-12
0
2.19524e-12
5.48809e-12
0
-1.09762e-12
-1.09762e-12
-5.48809e-12
321.531
803.644
1039.64
1081.86
1007.82
878.201
731.406
588.923
461.378
352.959
264.219
193.775
139.325
98.2513
67.9712
46.1374
30.73
20.0856
12.8838
8.11089
5.01169
3.03965
1.80977
1.05785
0.607109
0.34214
0.189359
0.102936
0.0549675
0.028838
0.0148664
0.00753169
0.00375054
0.00183601
0.000883709
0.000418276
0.000194719
8.91696e-05
4.01753e-05
1.78117e-05
7.77194e-06
3.33808e-06
1.41153e-06
5.87704e-07
2.40983e-07
9.73104e-08
3.86932e-08
1.51559e-08
5.8525e-09
2.23036e-09
8.37482e-10
3.06235e-10
8.67118e-11
1.53666e-11
3.29285e-12
5.48809e-12
1.09762e-12
-8.78094e-12
-5.48809e-12
0
0
0
0
1.86595e-11
0
-1.09762e-12
-1.09762e-12
-3.29285e-12
0
-1.09762e-12
-9.87856e-12
-1.20738e-11
-7.68332e-12
-1.09762e-12
-1.09762e-12
185.012
492.805
678.21
745.727
727.539
658.242
564.982
465.983
372.131
289.093
219.109
162.319
117.677
83.5536
58.1335
39.6492
26.516
17.3915
11.189
7.06213
4.3735
2.65782
1.58518
0.928
0.53332
0.300925
0.166732
0.0907262
0.0484913
0.0254612
0.0131355
0.00665934
0.00331823
0.00162534
0.000782728
0.000370666
0.000172636
7.90913e-05
3.5649e-05
1.58111e-05
6.90146e-06
2.96524e-06
1.25425e-06
5.22369e-07
2.14244e-07
8.65504e-08
3.44257e-08
1.3482e-08
5.19063e-09
1.9823e-09
7.36501e-10
2.766e-10
1.00981e-10
2.63428e-11
-4.39047e-12
0
-1.09762e-12
2.19524e-12
1.09762e-12
-6.58571e-12
1.09762e-12
2.19523e-12
1.09762e-12
0
-1.09762e-12
-4.39047e-12
0
0
0
-2.19524e-12
4.39047e-12
1.09762e-12
-4.39047e-12
0
0
113.316
311.951
446.758
511.11
516.918
482.48
425.151
358.413
291.459
229.839
176.373
132.014
96.5336
69.0391
48.3295
33.1345
22.2581
14.6549
9.4598
5.98804
3.71775
2.26437
1.3532
0.793588
0.456792
0.258108
0.143191
0.0780062
0.0417364
0.0219353
0.0113263
0.00574676
0.00286562
0.00140459
0.000676851
0.000320715
0.000149453
6.85055e-05
3.08925e-05
1.37076e-05
5.98587e-06
2.57291e-06
1.08871e-06
4.53575e-07
1.86074e-07
7.51989e-08
2.9932e-08
1.17182e-08
4.50352e-09
1.7024e-09
6.35521e-10
2.40378e-10
8.45165e-11
2.19524e-11
1.20738e-11
-9.87856e-12
-1.09762e-12
-7.68332e-12
4.39047e-12
-4.39047e-12
0
-2.19523e-12
1.09762e-12
-5.48809e-12
2.19523e-12
2.19524e-12
0
0
-1.20738e-11
1.09762e-12
1.31714e-11
2.19524e-12
0
-7.68332e-12
0
71.8807
201.56
296.328
348.85
362.749
347.283
312.949
268.985
222.392
177.863
138.13
104.445
77.0368
55.5032
39.1003
26.9533
18.1913
12.0263
7.79082
4.94706
3.07994
1.88049
1.12624
0.661773
0.381583
0.215951
0.119973
0.0654422
0.0350552
0.0184437
0.00953276
0.00484111
0.00241603
0.00118514
0.000571508
0.000270981
0.000126355
5.79517e-05
2.61475e-05
1.16081e-05
5.07153e-06
2.18088e-06
9.23239e-07
3.84805e-07
1.57922e-07
6.38265e-08
2.54055e-08
9.98064e-09
3.84934e-09
1.44886e-09
5.53199e-10
1.94278e-10
7.02475e-11
1.64643e-11
2.63428e-11
4.39047e-12
2.305e-11
3.29285e-12
-3.29285e-12
0
0
0
-3.29285e-12
0
0
0
7.68332e-12
-1.09762e-12
0
1.09762e-12
-1.09762e-12
0
6.5857e-12
0
4.39047e-12
46.4615
131.748
197.171
237.012
251.793
246.051
225.939
197.499
165.732
134.276
105.46
80.5221
59.8949
43.4694
30.8179
21.3617
14.4873
9.61826
6.25413
3.9844
2.48787
1.52296
0.914239
0.538325
0.310987
0.176298
0.0980948
0.0535833
0.0287396
0.0151386
0.00783294
0.00398183
0.00198902
0.000976508
0.000471273
0.000223619
0.000104343
4.7887e-05
2.16195e-05
9.60341e-06
4.19793e-06
1.80611e-06
7.6495e-07
3.19012e-07
1.31002e-07
5.29809e-08
2.11039e-08
8.29579e-09
3.21382e-09
1.21836e-09
4.55511e-10
1.63545e-10
6.80523e-11
3.95142e-11
2.63428e-11
1.4269e-11
1.4269e-11
1.4269e-11
-4.39047e-12
4.39047e-12
-1.09762e-12
2.19523e-12
8.78094e-12
0
-1.09762e-12
0
1.4269e-11
2.19523e-12
1.31714e-11
-1.09762e-12
2.19523e-12
5.48809e-12
6.58571e-12
8.78094e-12
2.19524e-12
30.2943
86.535
131.136
160.091
172.926
171.803
160.261
142.135
120.848
99.0664
78.619
60.5811
45.4272
33.204
23.6876
16.5098
11.2513
7.50201
4.8967
3.13021
1.96045
1.20336
0.724145
0.427333
0.247359
0.14048
0.0782941
0.0428315
0.0230044
0.0121329
0.00628503
0.00319839
0.00159926
0.00078588
0.0003796
0.000180265
8.41769e-05
3.86591e-05
1.7465e-05
7.76283e-06
3.39536e-06
1.46165e-06
6.19422e-07
2.5846e-07
1.06221e-07
4.29882e-08
1.71382e-08
6.71413e-09
2.61452e-09
1.00871e-09
3.69897e-10
1.43788e-10
6.0369e-11
5.1588e-11
9.87856e-12
-3.29285e-12
-1.97571e-11
-1.09762e-12
2.19523e-12
-1.09762e-12
-1.09762e-12
0
1.09762e-12
-1.09762e-12
-1.09762e-12
-1.09762e-12
-6.58571e-12
0
-1.09762e-12
0
1.09762e-12
0
-6.58571e-12
0
1.09762e-12
19.7948
56.8317
86.9083
107.344
117.47
118.281
111.791
100.386
86.3395
71.5244
57.3026
44.5327
33.6481
24.7617
17.7718
12.4534
8.52768
5.71041
3.7416
2.40004
1.50779
0.928089
0.559901
0.331162
0.192088
0.109296
0.0610192
0.0334338
0.017983
0.00949715
0.00492575
0.00250952
0.00125614
0.000617879
0.000298725
0.000141981
6.63532e-05
3.04965e-05
1.37872e-05
6.1323e-06
2.68391e-06
1.15609e-06
4.90221e-07
2.04662e-07
8.41565e-08
3.40547e-08
1.35797e-08
5.31576e-09
2.06352e-09
8.10042e-10
3.00747e-10
1.22933e-10
6.80523e-11
2.85381e-11
1.4269e-11
2.19523e-12
-1.4269e-11
0
4.39047e-12
-1.09762e-12
3.29285e-12
1.4269e-11
-8.78094e-12
0
0
-9.87856e-12
-3.7319e-11
-1.09762e-12
0
0
-3.29285e-12
-5.48809e-12
0
-2.19523e-12
-3.29285e-12
12.9029
37.182
57.2461
71.3452
78.8847
80.3002
76.7292
69.636
60.4962
50.5856
40.8764
32.0166
24.3632
18.044
13.0254
9.17495
6.31213
4.24464
2.79177
1.79693
1.1324
0.698985
0.422764
0.250632
0.145686
0.0830549
0.0464513
0.0254933
0.0137327
0.00726261
0.00377165
0.00192384
0.000964049
0.000474695
0.000229723
0.000109284
5.11162e-05
2.35124e-05
1.06378e-05
4.73489e-06
2.07374e-06
8.93835e-07
3.79227e-07
1.58404e-07
6.51403e-08
2.63933e-08
1.05283e-08
4.15448e-09
1.61679e-09
6.41009e-10
2.67819e-10
1.24031e-10
5.04904e-11
2.19524e-11
2.52452e-11
2.19523e-12
-3.29285e-12
0
-1.09762e-12
2.19524e-12
0
-1.09762e-12
5.48809e-12
0
-1.09762e-11
-5.48809e-12
-2.19524e-12
-1.09762e-12
0
1.09762e-12
0
0
4.39047e-12
0
1.09762e-12
8.36283
24.166
37.4
46.9402
52.3312
53.7484
51.831
47.4679
41.5995
35.0733
28.5611
22.5308
17.2577
12.8583
9.3328
6.60663
4.56573
3.08286
2.0352
1.3144
0.830871
0.514306
0.311864
0.18532
0.107953
0.0616653
0.0345512
0.0189941
0.0102476
0.00542727
0.00282227
0.00144137
0.000723114
0.000356444
0.000172672
8.22217e-05
3.84926e-05
1.77207e-05
8.02389e-06
3.57413e-06
1.56646e-06
6.75653e-07
2.86816e-07
1.19851e-07
4.93017e-08
1.99821e-08
7.98078e-09
3.16333e-09
1.2436e-09
5.01611e-10
2.26109e-10
1.02078e-10
3.7319e-11
2.52452e-11
1.31714e-11
-2.19523e-12
1.09762e-12
-8.78094e-12
-7.68332e-12
-3.29285e-12
-1.09762e-12
-1.4269e-11
1.09762e-12
-1.20738e-11
-1.09762e-12
1.09762e-11
2.305e-11
-2.19523e-12
0
0
-1.09762e-12
-4.39047e-12
-8.78094e-12
1.09762e-12
6.58571e-12
5.37642
15.5696
24.194
30.536
34.2718
35.4607
34.4603
31.8052
28.0859
23.8534
19.5593
15.5299
11.9672
8.9663
6.54137
4.65244
3.22911
2.18898
1.45032
0.939769
0.595858
0.369859
0.224847
0.133925
0.0781831
0.0447489
0.025119
0.0138324
0.00747459
0.00396445
0.00206439
0.00105565
0.000530239
0.000261662
0.00012689
6.04811e-05
2.83409e-05
1.30587e-05
5.91783e-06
2.6381e-06
1.1571e-06
4.99436e-07
2.12162e-07
8.87127e-08
3.65101e-08
1.47783e-08
5.90847e-09
2.32475e-09
9.00046e-10
3.51238e-10
1.47081e-10
5.59785e-11
2.08547e-11
1.4269e-11
-1.86595e-11
-4.39047e-12
4.39047e-12
0
1.09762e-12
0
-1.09762e-12
-1.09762e-12
-6.5857e-12
0
1.20738e-11
8.78094e-12
2.19523e-12
0
-1.09762e-12
-2.19523e-12
-6.5857e-12
4.39047e-12
0
0
0
3.42224
9.92729
15.4764
19.6217
22.1434
23.0528
22.549
20.9508
18.6237
15.9196
13.1348
10.4903
8.12845
6.12161
4.48746
3.20582
2.2342
1.52027
1.01078
0.657064
0.417844
0.260071
0.158502
0.0946279
0.0553609
0.0317495
0.017855
0.00984915
0.00533065
0.00283153
0.0014765
0.00075601
0.000380195
0.000187833
9.11851e-05
4.35069e-05
2.04065e-05
9.41123e-06
4.26857e-06
1.90444e-06
8.35972e-07
3.61119e-07
1.53535e-07
6.4271e-08
2.648e-08
1.07369e-08
4.31144e-09
1.68484e-09
6.39911e-10
2.32695e-10
7.13451e-11
-6.58571e-12
-2.74404e-11
-1.86595e-11
-3.51238e-11
-5.48809e-12
0
7.68332e-12
8.78094e-12
6.58571e-12
1.09762e-12
-4.39047e-12
0
1.31714e-11
9.87856e-12
0
-1.09762e-12
2.19523e-12
-4.39047e-12
0
-7.68332e-12
3.29285e-12
8.78094e-12
9.87856e-12
-3.29285e-12
2.15371
6.25608
9.77868
12.4438
14.1071
14.7624
14.5201
13.5687
12.1315
10.4293
8.65265
6.94735
5.41037
4.09401
3.01452
2.16254
1.51297
1.03322
0.689253
0.449441
0.286633
0.178879
0.109288
0.0653959
0.0383405
0.0220318
0.0124128
0.00685891
0.00371819
0.00197798
0.00103287
0.000529552
0.000266639
0.000131885
6.40949e-05
3.06131e-05
1.43729e-05
6.63476e-06
3.01195e-06
1.34494e-06
5.90857e-07
2.55441e-07
1.08704e-07
4.55445e-08
1.88197e-08
7.66247e-09
3.07552e-09
1.22384e-09
4.73073e-10
1.71228e-10
4.17095e-11
-1.20738e-11
-2.63428e-11
-3.29285e-11
-4.39047e-12
-4.39047e-12
-4.39047e-12
0
8.78094e-12
-1.09762e-12
0
1.09762e-12
0
-2.19524e-12
5.48809e-12
-4.39047e-12
-1.09762e-12
-1.09762e-12
0
1.09762e-12
-4.39047e-12
-7.68332e-12
-2.19524e-12
2.19523e-12
5.48809e-12
1.33859
3.89266
6.09765
7.78339
8.85738
9.30936
9.20011
8.64008
7.76414
6.70849
5.5933
4.51252
3.53039
2.68313
1.98384
1.4287
1.0032
0.687439
0.46005
0.300878
0.192418
0.120392
0.0737323
0.0442189
0.0259791
0.0149576
0.00844258
0.00467305
0.00253729
0.0013518
0.000706879
0.000362898
0.000182954
9.05989e-05
4.40793e-05
2.10754e-05
9.9048e-06
4.57656e-06
2.07949e-06
9.29364e-07
4.0863e-07
1.76782e-07
7.52977e-08
3.15817e-08
1.3043e-08
5.3421e-09
2.13157e-09
8.64923e-10
3.36969e-10
1.1964e-10
3.29285e-11
3.95142e-11
3.84166e-11
1.53666e-11
1.20738e-11
2.19523e-12
1.09762e-12
3.29285e-12
0
-2.19523e-12
-2.19523e-12
5.48809e-12
1.09762e-12
0
-9.87856e-12
-1.09762e-12
0
-3.29285e-12
4.39047e-12
-1.09762e-12
-3.29285e-12
5.48809e-12
-3.29285e-12
-9.87856e-12
-1.09762e-12
0.820938
2.38953
3.7498
4.79877
5.47851
5.77953
5.73508
5.40929
4.88254
4.2376
3.54884
2.87552
2.25911
1.72385
1.27946
0.924772
0.651585
0.447936
0.300678
0.197206
0.126454
0.0793174
0.0486901
0.0292644
0.0172283
0.00993837
0.00561964
0.00311578
0.00169444
0.000904097
0.000473432
0.000243373
0.000122849
6.09073e-05
2.96666e-05
1.41994e-05
6.68006e-06
3.08954e-06
1.40509e-06
6.28521e-07
2.76579e-07
1.19782e-07
5.10491e-08
2.14222e-08
8.83143e-09
3.60677e-09
1.44007e-09
5.59785e-10
2.305e-10
7.79308e-11
2.63428e-11
3.18309e-11
3.95142e-11
2.08547e-11
-1.09762e-12
1.75619e-11
-1.09762e-12
-2.19524e-12
-9.87856e-12
0
0
-4.39047e-12
0
2.19524e-12
-4.39047e-12
1.09762e-12
8.78094e-12
4.39047e-12
0
0
9.87856e-12
1.20738e-11
5.48809e-12
-5.48809e-12
-4.39047e-12
0.496453
1.44616
2.27285
2.91499
3.33702
3.53162
3.51688
3.32963
3.01718
2.62907
2.21051
1.79813
1.41807
1.08608
0.808949
0.586673
0.414692
0.28595
0.192497
0.126595
0.0813836
0.0511699
0.0314823
0.0189621
0.0111855
0.00646462
0.00366187
0.00203368
0.0011077
0.000591909
0.000310387
0.000159769
8.07488e-05
4.00818e-05
1.95449e-05
9.36491e-06
4.41019e-06
2.04171e-06
9.29425e-07
4.16136e-07
1.8328e-07
7.94642e-08
3.38856e-08
1.42251e-08
5.90848e-09
2.39939e-09
9.68099e-10
3.66604e-10
1.52569e-10
3.40261e-11
2.52452e-11
5.48809e-12
1.75619e-11
2.52452e-11
2.63428e-11
2.305e-11
-1.09762e-12
-1.09762e-12
-1.09762e-12
2.19524e-12
-1.09762e-12
-8.78094e-12
-1.09762e-12
0
-8.78094e-12
-9.87856e-12
0
2.19523e-12
4.39047e-12
1.09762e-12
1.31714e-11
-4.39047e-12
3.29285e-12
-1.09762e-12
-1.09762e-12
0.29588
0.862464
1.35722
1.74391
2.00109
2.12364
2.1213
2.01501
1.83226
1.60223
1.35196
1.10365
0.873402
0.671188
0.501561
0.364889
0.258698
0.178896
0.120757
0.0796204
0.0513098
0.0323354
0.0199377
0.0120333
0.0071121
0.00411793
0.00233662
0.0012998
0.000709068
0.000379449
0.000199253
0.000102698
5.19693e-05
2.58269e-05
1.26081e-05
6.04761e-06
2.8509e-06
1.32112e-06
6.01988e-07
2.69774e-07
1.18931e-07
5.15957e-08
2.20325e-08
9.26609e-09
3.84276e-09
1.55862e-09
6.39911e-10
2.62331e-10
8.67118e-11
2.52452e-11
2.96357e-11
9.87856e-12
9.87856e-12
9.87856e-12
2.74404e-11
1.86595e-11
1.86595e-11
0
2.19523e-12
0
0
-6.5857e-12
-1.09762e-12
3.29285e-12
0
-1.09762e-12
-7.68332e-12
0
0
1.09762e-12
-4.39047e-12
-8.78094e-12
0
0
-5.48809e-12
0.173714
0.506647
0.798169
1.02721
1.1811
1.25645
1.25845
1.19889
1.0935
0.959255
0.812018
0.665002
0.527939
0.406969
0.305035
0.222563
0.158235
0.109717
0.0742508
0.0490766
0.0317
0.0200214
0.0123708
0.00748118
0.00442993
0.00256951
0.00146047
0.000813721
0.000444574
0.000238251
0.000125279
6.46545e-05
3.27582e-05
1.62989e-05
7.96568e-06
3.82493e-06
1.80495e-06
8.37242e-07
3.81857e-07
1.71278e-07
7.55973e-08
3.28155e-08
1.40451e-08
5.91396e-09
2.42573e-09
9.90051e-10
3.87459e-10
1.45983e-10
5.81737e-11
4.39047e-11
2.305e-11
1.86595e-11
-1.4269e-11
-1.75619e-11
-2.19524e-12
-1.09762e-11
9.87856e-12
0
0
-2.19524e-12
3.29285e-12
8.78094e-12
0
-1.86595e-11
8.78094e-12
1.09762e-11
0
1.09762e-12
-4.39047e-12
0
-1.20738e-11
0
0
-3.29285e-12
2.19524e-12
0.100436
0.293071
0.462143
0.595585
0.686024
0.731322
0.734224
0.701283
0.641392
0.564248
0.479025
0.39344
0.313253
0.242164
0.182016
0.133165
0.0949239
0.0659845
0.0447629
0.0296548
0.0191973
0.0121504
0.00752254
0.00455791
0.00270384
0.00157103
0.000894413
0.000499112
0.000273093
0.000146559
7.71687e-05
3.98767e-05
2.02289e-05
1.00767e-05
4.93024e-06
2.36992e-06
1.11951e-06
5.19827e-07
2.37305e-07
1.06527e-07
4.7056e-08
2.04289e-08
8.74582e-09
3.67921e-09
1.52569e-09
6.27837e-10
2.43671e-10
8.45165e-11
4.71976e-11
3.29285e-11
2.19524e-12
4.39047e-12
-1.20738e-11
-5.48809e-12
-1.75619e-11
-1.97571e-11
-1.86595e-11
-7.68332e-12
-1.09762e-12
0
-1.09762e-12
1.09762e-11
1.09762e-12
-2.19524e-12
-1.09762e-12
-4.39047e-12
9.87856e-12
-1.09762e-12
2.19524e-12
-2.19524e-12
3.29285e-12
0
-2.19524e-12
3.29285e-12
-8.78094e-12
0.05717
0.166892
0.26339
0.339854
0.392068
0.41873
0.421274
0.403299
0.369759
0.326117
0.277586
0.228595
0.182487
0.141444
0.106587
0.0781761
0.0558627
0.0389238
0.0264655
0.0175715
0.011399
0.00722918
0.00448434
0.00272205
0.0016176
0.000941456
0.000536842
0.000300031
0.000164402
8.83511e-05
4.65814e-05
2.41012e-05
1.2241e-05
6.10465e-06
2.99016e-06
1.43889e-06
6.80422e-07
3.1626e-07
1.44513e-07
6.49372e-08
2.86807e-08
1.24645e-08
5.32564e-09
2.23585e-09
9.36268e-10
3.87459e-10
1.72326e-10
7.4638e-11
2.63428e-11
2.08547e-11
-6.5857e-12
-1.4269e-11
1.09762e-12
-1.86595e-11
-2.85381e-11
-6.5857e-12
-7.68332e-12
1.20738e-11
1.09762e-12
0
1.09762e-12
-2.19523e-12
-1.09762e-12
1.31714e-11
0
1.31714e-11
0
-2.19523e-12
0
1.09762e-12
4.39047e-12
-2.19523e-12
0
2.19523e-12
-1.09762e-12
0.0320319
0.0935429
0.147738
0.19083
0.22045
0.235827
0.237702
0.228027
0.209523
0.185218
0.158029
0.130453
0.104393
0.0811093
0.0612665
0.0450412
0.0322589
0.0225271
0.0153498
0.0102125
0.00663826
0.00421803
0.00262131
0.00159397
0.000948832
0.000553119
0.000315889
0.000176806
9.70179e-05
5.22087e-05
2.75617e-05
1.42781e-05
7.26043e-06
3.62496e-06
1.77751e-06
8.56253e-07
4.05319e-07
1.88584e-07
8.62552e-08
3.88074e-08
1.71503e-08
7.46929e-09
3.1809e-09
1.3358e-09
5.70761e-10
2.42573e-10
1.10859e-10
4.17095e-11
1.97571e-11
1.09762e-11
-1.31714e-11
-2.74404e-11
-2.52452e-11
-1.53666e-11
-2.305e-11
5.48809e-12
1.09762e-12
1.09762e-11
0
-1.09762e-12
1.09762e-12
0
-1.09762e-12
4.39047e-12
3.29285e-12
4.39047e-12
-9.87856e-12
0
-1.09762e-12
1.09762e-12
1.09762e-12
1.09762e-12
0
1.09762e-12
1.31714e-11
0.0176633
0.051599
0.0815457
0.10543
0.121942
0.130638
0.131896
0.12676
0.116704
0.103381
0.0883958
0.0731313
0.0586523
0.0456721
0.034575
0.0254738
0.0182834
0.0127943
0.00873561
0.00582335
0.00379243
0.00241416
0.00150293
0.000915451
0.000545818
0.00031868
0.000182272
0.000102166
5.61381e-05
3.02497e-05
1.59895e-05
8.29332e-06
4.22208e-06
2.11035e-06
1.03595e-06
4.99569e-07
2.36719e-07
1.10246e-07
5.04959e-08
2.2758e-08
1.00959e-08
4.40364e-09
1.87363e-09
7.9248e-10
3.38066e-10
1.56959e-10
5.59785e-11
3.18309e-11
2.63428e-11
1.31714e-11
3.29285e-12
-1.20738e-11
-2.19523e-11
3.29285e-12
1.53666e-11
-9.87856e-12
0
-3.29285e-12
-2.19523e-12
2.19524e-12
-1.09762e-12
2.19523e-12
0
6.58571e-12
-2.19523e-12
-1.31714e-11
2.19524e-12
1.09762e-12
0
-1.09762e-12
7.68332e-12
3.29285e-12
0
3.29285e-12
-4.39047e-12
0.00958488
0.0280081
0.0442885
0.0573083
0.0663556
0.0711799
0.0719727
0.0692844
0.063902
0.0567141
0.0485884
0.040279
0.0323704
0.0252584
0.0191604
0.0141454
0.0101729
0.00713268
0.00487928
0.00325867
0.00212601
0.00135572
0.000845415
0.000515788
0.000308008
0.000180103
0.000103161
5.79033e-05
3.18593e-05
1.71894e-05
9.09727e-06
4.72414e-06
2.40781e-06
1.20486e-06
5.92094e-07
2.85806e-07
1.3555e-07
6.31745e-08
2.89639e-08
1.30562e-08
5.81518e-09
2.55086e-09
1.11298e-09
4.84049e-10
2.0745e-10
1.02078e-10
4.60999e-11
5.1588e-11
2.85381e-11
9.87856e-12
1.09762e-11
1.31714e-11
1.4269e-11
-1.09762e-12
2.305e-11
-1.20738e-11
-1.09762e-12
-3.29285e-12
1.09762e-12
2.19523e-12
-1.09762e-12
-2.19523e-12
2.19523e-12
-1.20738e-11
-3.29285e-12
-1.09762e-12
0
1.09762e-12
1.09762e-12
0
-7.68332e-12
0
-4.39047e-12
-1.4269e-11
-1.09762e-12
0.00511802
0.0149593
0.0236668
0.0306472
0.0355199
0.0381468
0.0386236
0.0372365
0.0343994
0.0305825
0.0262479
0.0217993
0.0175521
0.0137218
0.0104288
0.00771372
0.00555781
0.00390398
0.00267541
0.00178993
0.00116977
0.000747178
0.000466683
0.000285166
0.000170545
9.98683e-05
5.72834e-05
3.2196e-05
1.77379e-05
9.58228e-06
5.07743e-06
2.63974e-06
1.34695e-06
6.7475e-07
3.31911e-07
1.60363e-07
7.61121e-08
3.54893e-08
1.62535e-08
7.31343e-09
3.23797e-09
1.42032e-09
6.3113e-10
2.71112e-10
1.18543e-10
4.82952e-11
5.26856e-11
4.50023e-11
2.52452e-11
0
-1.4269e-11
4.39047e-12
1.09762e-12
-6.58571e-12
-1.20738e-11
6.5857e-12
0
-7.68332e-12
4.39047e-12
-3.29285e-12
0
-1.09762e-12
-5.48809e-12
-2.08547e-11
2.19523e-12
0
-2.19524e-12
-3.29285e-12
1.09762e-12
-1.09762e-12
1.09762e-12
-2.19524e-12
0
0
1.31714e-11
0.00268907
0.00786163
0.0124434
0.0161244
0.0187043
0.0201087
0.0203848
0.0196794
0.0182068
0.016212
0.013937
0.0115946
0.00935185
0.0073239
0.00557611
0.00413168
0.00298212
0.00209834
0.00144044
0.000965295
0.000631872
0.000404237
0.000252871
0.000154747
9.26807e-05
5.43479e-05
3.12155e-05
1.75675e-05
9.69072e-06
5.24149e-06
2.78063e-06
1.44728e-06
7.39285e-07
3.70715e-07
1.82526e-07
8.82825e-08
4.19136e-08
1.95683e-08
8.94558e-09
4.02935e-09
1.75948e-09
7.47478e-10
3.10626e-10
1.28421e-10
6.91499e-11
4.28071e-11
3.95142e-11
1.75619e-11
2.305e-11
-2.19523e-12
-1.09762e-11
-3.29285e-12
-4.39047e-12
6.58571e-12
-8.78094e-12
-1.09762e-12
3.29285e-12
0
-1.09762e-12
0
0
3.29285e-12
-1.09762e-12
7.68332e-12
0
-1.09762e-12
0
0
6.58571e-12
4.39047e-12
6.5857e-12
-1.97571e-11
2.19524e-12
1.09762e-11
0
0.00139022
0.00406523
0.00643711
0.00834634
0.00968938
0.0104269
0.0105817
0.0102281
0.00947544
0.00844942
0.00727473
0.00606155
0.0048969
0.00384126
0.00292939
0.00217413
0.00157179
0.00110777
0.000761664
0.000511223
0.000335156
0.000214737
0.000134526
8.24415e-05
4.94442e-05
2.9033e-05
1.66973e-05
9.40877e-06
5.19649e-06
2.81399e-06
1.49454e-06
7.78748e-07
3.98217e-07
1.99872e-07
9.84947e-08
4.76673e-08
2.26362e-08
1.05788e-08
4.84159e-09
2.16999e-09
9.42853e-10
3.91849e-10
1.48178e-10
6.5857e-11
2.19523e-11
1.53666e-11
4.39047e-12
-1.31714e-11
0
3.29285e-12
6.5857e-12
-1.20738e-11
5.48809e-12
-4.39047e-12
-6.5857e-12
-5.48809e-12
9.87856e-12
0
-1.09762e-12
-2.19523e-12
-1.09762e-12
1.09762e-12
4.39047e-12
1.86595e-11
1.09762e-12
0
-1.09762e-12
1.31714e-11
0
1.09762e-12
-7.68332e-12
0
0
0
-7.68332e-12
0.000707213
0.00206841
0.00327645
0.00425057
0.00493806
0.00531852
0.0054029
0.00522825
0.00484949
0.00433008
0.00373327
0.00311519
0.00252039
0.00198007
0.00151234
0.00112416
0.000813959
0.000574541
0.00039563
0.000265939
0.000174603
0.00011203
7.02814e-05
4.31294e-05
2.59012e-05
1.52286e-05
8.76915e-06
4.94739e-06
2.7357e-06
1.4831e-06
7.88559e-07
4.11329e-07
2.10547e-07
1.0578e-07
5.21698e-08
2.52639e-08
1.20068e-08
5.59456e-09
2.56623e-09
1.13823e-09
4.86245e-10
2.08547e-10
7.02475e-11
1.53666e-11
-2.19524e-11
-3.84166e-11
-2.63428e-11
-2.74404e-11
-2.74404e-11
-1.09762e-11
-6.58571e-12
-3.07333e-11
-2.52452e-11
-1.53666e-11
8.78094e-12
1.4269e-11
3.29285e-12
-1.20738e-11
-1.09762e-12
2.19524e-12
-1.09762e-12
-5.48809e-12
-3.29285e-12
0
0
2.19524e-12
1.09762e-12
0
-8.78094e-12
4.39047e-12
1.09762e-12
2.41476e-11
2.19524e-12
4.39047e-12
0
0.000354014
0.00103557
0.00164095
0.00212988
0.00247599
0.00266886
0.00271369
0.00262868
0.002441
0.0021822
0.00188385
0.00157407
0.00127528
0.0010033
0.000767403
0.000571252
0.00041422
0.000292802
0.000201912
0.000135915
8.93595e-05
5.74136e-05
3.60663e-05
2.21617e-05
1.33262e-05
7.84486e-06
4.52285e-06
2.55473e-06
1.41428e-06
7.67581e-07
4.08565e-07
2.13322e-07
1.09307e-07
5.49643e-08
2.7109e-08
1.31473e-08
6.26191e-09
2.90869e-09
1.3369e-09
5.97104e-10
2.305e-10
9.32975e-11
3.62214e-11
-4.39047e-12
-1.97571e-11
-3.07333e-11
-4.50023e-11
-2.19524e-11
-3.95142e-11
-3.07333e-11
-2.52452e-11
-2.85381e-11
-2.85381e-11
2.19524e-12
8.78094e-12
-1.09762e-12
-8.78094e-12
-1.64643e-11
-8.78094e-12
-1.20738e-11
-3.29285e-12
-1.09762e-12
1.09762e-12
-2.19524e-12
-1.09762e-12
-1.09762e-11
1.09762e-12
-6.5857e-12
-1.09762e-12
-1.09762e-12
-2.19523e-12
0
-9.87856e-12
0
5.48809e-12
0.000174387
0.000510203
0.00080871
0.00105015
0.00122152
0.00131763
0.00134089
0.00130012
0.00120855
0.00108163
0.00093486
0.000782101
0.000634462
0.000499808
0.000382805
0.000285344
0.000207187
0.000146655
0.000101267
6.82585e-05
4.49371e-05
2.89097e-05
1.81839e-05
1.11875e-05
6.73548e-06
3.96982e-06
2.29146e-06
1.29582e-06
7.18174e-07
3.90209e-07
2.07904e-07
1.08649e-07
5.57063e-08
2.80507e-08
1.38432e-08
6.70425e-09
3.19626e-09
1.47081e-09
6.5857e-10
2.89771e-10
1.29519e-10
5.1588e-11
3.95142e-11
2.41476e-11
0
1.09762e-12
-1.09762e-11
-1.09762e-11
-4.39047e-12
-2.19523e-11
-1.86595e-11
1.86595e-11
7.68332e-12
8.78094e-12
-1.64643e-11
6.5857e-12
-7.68332e-12
7.68332e-12
-8.78094e-12
-2.19523e-12
-1.31714e-11
5.48809e-12
4.39047e-12
-7.68332e-12
1.09762e-12
-1.09762e-12
-1.09762e-12
1.09762e-12
2.19523e-12
-8.78094e-12
-1.31714e-11
-4.39047e-12
-6.5857e-12
-7.68332e-12
-1.09762e-12
8.45394e-05
0.000247373
0.000392216
0.000509524
0.000592996
0.000640078
0.000651883
0.000632613
0.000588624
0.000527355
0.000456299
0.000382181
0.000310408
0.000244831
0.000187753
0.00014013
0.000101878
7.22058e-05
4.99231e-05
3.36931e-05
2.22093e-05
1.43059e-05
9.00927e-06
5.54956e-06
3.34509e-06
1.97386e-06
1.14064e-06
6.45745e-07
3.58286e-07
1.94868e-07
1.03944e-07
5.43716e-08
2.7897e-08
1.4066e-08
6.94792e-09
3.34444e-09
1.58167e-09
7.18939e-10
3.11723e-10
1.31714e-10
6.69547e-11
3.07333e-11
1.97571e-11
3.29285e-12
1.64643e-11
5.48809e-12
2.52452e-11
-5.48809e-12
-4.39047e-12
-1.09762e-12
1.31714e-11
2.41476e-11
1.64643e-11
-7.68332e-12
-1.09762e-12
8.78094e-12
0
4.39047e-12
1.86595e-11
1.31714e-11
4.39047e-12
2.19523e-12
0
2.19524e-12
0
1.09762e-11
-2.19524e-12
0
0
5.48809e-12
8.78094e-12
0
9.87856e-12
2.19523e-12
-6.58571e-12
4.03358e-05
0.000118044
0.00018721
0.000243296
0.000283296
0.000305976
0.000311843
0.000302869
0.00028206
0.000252945
0.000219088
0.000183699
0.000149368
0.000117949
9.05577e-05
6.76693e-05
4.9257e-05
3.49531e-05
2.4196e-05
1.63496e-05
1.079e-05
6.95854e-06
4.38734e-06
2.70565e-06
1.63274e-06
9.64547e-07
5.58e-07
3.16251e-07
1.75657e-07
9.56475e-08
5.10853e-08
2.67709e-08
1.3774e-08
6.92597e-09
3.44103e-09
1.6596e-09
8.05651e-10
3.80873e-10
1.94278e-10
7.90285e-11
5.37833e-11
3.07333e-11
2.305e-11
5.48809e-12
2.85381e-11
1.97571e-11
1.31714e-11
6.58571e-12
-1.64643e-11
6.5857e-12
2.19524e-11
1.09762e-11
1.86595e-11
2.19524e-12
1.64643e-11
-3.40261e-11
-1.09762e-12
0
7.68332e-12
1.09762e-12
1.4269e-11
-2.19523e-12
-1.09762e-12
-1.09762e-12
-4.39047e-12
1.09762e-12
-1.09762e-12
1.20738e-11
0
0
2.08547e-11
9.87856e-12
6.58571e-12
4.39047e-12
0
1.89429e-05
5.54436e-05
8.79514e-05
0.000114341
0.000133202
0.000143947
0.000146804
0.000142687
0.000132994
0.000119373
0.000103494
8.68639e-05
7.07045e-05
5.58925e-05
4.29605e-05
3.21386e-05
2.34208e-05
1.66387e-05
1.15313e-05
7.80083e-06
5.15413e-06
3.32771e-06
2.10047e-06
1.29679e-06
7.83427e-07
4.6331e-07
2.68335e-07
1.52275e-07
8.46735e-08
4.61735e-08
2.46909e-08
1.29716e-08
6.68778e-09
3.36969e-09
1.70021e-09
8.25408e-10
4.05021e-10
2.10743e-10
9.7688e-11
3.95142e-11
5.59785e-11
2.305e-11
4.39047e-11
6.0369e-11
4.93928e-11
4.71976e-11
2.96357e-11
4.50023e-11
1.86595e-11
1.53666e-11
2.19523e-11
3.62214e-11
4.50023e-11
5.04904e-11
1.75619e-11
1.09762e-11
4.39047e-12
1.4269e-11
-1.09762e-11
0
0
-2.19523e-12
-1.09762e-12
0
-3.29285e-12
0
4.39047e-12
-4.39047e-12
-2.19523e-12
-1.31714e-11
-5.48809e-12
6.5857e-12
-1.09762e-12
-5.48809e-12
2.19523e-12
8.7572e-06
2.56343e-05
4.06733e-05
5.28949e-05
6.16465e-05
6.66547e-05
6.80195e-05
6.61579e-05
6.17111e-05
5.54372e-05
4.81059e-05
4.04143e-05
3.29285e-05
2.60569e-05
2.00491e-05
1.50147e-05
1.09537e-05
7.79032e-06
5.4049e-06
3.66041e-06
2.42114e-06
1.56486e-06
9.88832e-07
6.1116e-07
3.69619e-07
2.18814e-07
1.26876e-07
7.20718e-08
4.01212e-08
2.19084e-08
1.17269e-08
6.16971e-09
3.18529e-09
1.62667e-09
7.9687e-10
3.87459e-10
1.76716e-10
1.03176e-10
3.40261e-11
2.63428e-11
1.53666e-11
1.31714e-11
2.41476e-11
5.70761e-11
4.50023e-11
4.60999e-11
2.41476e-11
1.4269e-11
3.7319e-11
2.52452e-11
3.95142e-11
5.1588e-11
4.50023e-11
3.29285e-11
-4.39047e-12
1.86595e-11
1.31714e-11
2.19524e-12
2.19523e-12
0
0
-2.19523e-12
2.19524e-12
8.78094e-12
3.29285e-12
-1.09762e-12
0
-1.20738e-11
1.09762e-12
0
-1.64643e-11
-9.87856e-12
1.09762e-12
-7.68332e-12
0
3.98562e-06
1.16682e-05
1.85175e-05
2.4089e-05
2.80859e-05
3.03824e-05
3.10224e-05
3.01929e-05
2.81839e-05
2.53384e-05
2.2006e-05
1.85039e-05
1.50905e-05
1.19529e-05
9.2061e-06
6.9014e-06
5.03998e-06
3.58816e-06
2.49207e-06
1.68946e-06
1.11865e-06
7.23779e-07
4.57823e-07
2.83254e-07
1.71474e-07
1.01631e-07
5.8986e-08
3.35234e-08
1.86869e-08
1.02309e-08
5.49138e-09
2.88344e-09
1.47081e-09
7.45282e-10
3.56726e-10
1.844e-10
7.68332e-11
5.37833e-11
3.95142e-11
4.17095e-11
9.87856e-12
1.53666e-11
-1.4269e-11
7.68332e-12
3.07333e-11
2.74404e-11
-3.29285e-12
3.29285e-12
1.53666e-11
2.74404e-11
1.86595e-11
2.305e-11
4.39047e-12
-6.58571e-12
-1.20738e-11
-3.07333e-11
-4.39047e-12
-4.39047e-12
1.09762e-12
0
0
-2.19523e-12
4.39047e-12
0
5.48809e-12
0
-1.09762e-12
0
6.58571e-12
1.53666e-11
5.48809e-12
-5.48809e-12
-8.78094e-12
1.09762e-12
-4.39047e-12
1.78607e-06
5.22933e-06
8.30052e-06
1.0801e-05
1.25978e-05
1.36342e-05
1.39288e-05
1.35646e-05
1.26706e-05
1.13997e-05
9.9083e-06
8.33842e-06
6.8062e-06
5.39598e-06
4.15986e-06
3.12147e-06
2.28178e-06
1.62609e-06
1.1305e-06
7.67158e-07
5.08448e-07
3.29312e-07
2.08518e-07
1.29112e-07
7.8236e-08
4.64182e-08
2.69575e-08
1.5337e-08
8.56361e-09
4.7011e-09
2.53769e-09
1.35117e-09
6.7723e-10
3.3148e-10