/*--------------------------------*- C++ -*----------------------------------*\
  =========                 |
  \\      /  F ield         | OpenFOAM: The Open Source CFD Toolbox
   \\    /   O peration     | Website:  https://openfoam.org
    \\  /    A nd           | Version:  10
     \\/     M anipulation  |
\*---------------------------------------------------------------------------*/
FoamFile
{
    format      ascii;
    class       volScalarField;
    location    "305";
    object      T;
}
// * * * * * * * * * * * * * * * * * * * * * * * * * * * * * * * * * * * * * //

dimensions      [0 0 0 1 0 0 0];

internalField   nonuniform List<scalar> 
11250
(
249.826
167.507
139.279
126.834
120.033
115.712
112.687
110.429
108.671
107.259
106.103
105.14
104.332
103.647
103.066
102.571
102.149
101.79
101.485
101.227
101.009
100.826
100.673
100.545
100.439
100.352
100.28
100.222
100.175
100.137
100.107
100.083
100.063
100.048
100.037
100.028
100.021
100.016
100.012
100.008
100.006
100.005
100.003
100.002
100.002
100.001
100.001
100.001
100
100
100
100
100
100
100
100
100
100
100
100
100
100
100
100
100
100
100
100
100
100
100
100
100
100
100
331.45
248.439
202.065
174.874
157.639
145.867
137.321
130.819
125.698
121.558
118.149
115.304
112.907
110.875
109.146
107.672
106.416
105.346
104.436
103.666
103.015
102.468
102.01
101.629
101.312
101.052
100.838
100.664
100.523
100.41
100.319
100.247
100.19
100.145
100.11
100.083
100.062
100.047
100.034
100.025
100.019
100.013
100.01
100.007
100.005
100.004
100.002
100.002
100.001
100.001
100.001
100
100
100
100
100
100
100
100
100
100
100
100
100
100
100
100
100
100
100
100
100
100
100
100
358.991
292.757
245.706
213.011
189.844
172.87
159.995
149.923
141.843
135.231
129.739
125.127
121.224
117.904
115.072
112.654
110.588
108.827
107.329
106.059
104.985
104.082
103.325
102.695
102.172
101.741
101.388
101.1
100.866
100.678
100.528
100.409
100.314
100.24
100.183
100.138
100.103
100.077
100.057
100.042
100.031
100.022
100.016
100.012
100.008
100.006
100.004
100.003
100.002
100.001
100.001
100.001
100
100
100
100
100
100
100
100
100
100
100
100
100
100
100
100
100
100
100
100
100
100
100
370.761
317.929
275.052
241.705
215.963
195.9
180.006
167.189
156.684
147.956
140.627
134.421
129.137
124.621
120.755
117.444
114.611
112.191
110.129
108.378
106.897
105.649
104.604
103.732
103.009
102.412
101.923
101.524
101.201
100.941
100.733
100.567
100.436
100.333
100.253
100.191
100.143
100.107
100.079
100.058
100.043
100.031
100.022
100.016
100.011
100.008
100.006
100.004
100.003
100.002
100.001
100.001
100.001
100
100
100
100
100
100
100
100
100
100
100
100
100
100
100
100
100
100
100
100
100
100
376.905
333.197
294.955
262.911
236.549
214.935
197.135
182.356
169.977
159.524
150.637
143.042
136.529
130.932
126.12
121.984
118.435
115.396
112.803
110.597
108.729
107.154
105.833
104.73
103.815
103.06
102.44
101.934
101.525
101.194
100.93
100.72
100.554
100.423
100.322
100.243
100.182
100.136
100.101
100.074
100.054
100.039
100.028
100.02
100.015
100.01
100.007
100.005
100.004
100.002
100.002
100.001
100.001
100.001
100
100
100
100
100
100
100
100
100
100
100
100
100
100
100
100
100
100
100
100
100
380.589
343.065
308.771
278.584
252.572
230.378
211.492
195.397
181.637
169.831
159.668
150.898
143.32
136.769
131.108
126.224
122.02
118.412
115.325
112.696
110.465
108.583
107.002
105.681
104.584
103.677
102.934
102.326
101.834
101.437
101.12
100.867
100.667
100.51
100.388
100.293
100.22
100.164
100.121
100.089
100.065
100.048
100.034
100.025
100.018
100.012
100.009
100.006
100.004
100.003
100.002
100.001
100.001
100.001
100
100
100
100
100
100
100
100
100
100
100
100
100
100
100
100
100
100
100
100
100
383.004
349.782
318.614
290.262
265.003
242.78
223.358
206.433
191.697
178.864
167.685
157.946
149.466
142.089
135.683
130.133
125.34
121.214
117.677
114.658
112.093
109.924
108.101
106.577
105.309
104.261
103.401
102.698
102.128
101.668
101.299
101.006
100.774
100.592
100.45
100.34
100.255
100.19
100.141
100.104
100.076
100.055
100.04
100.029
100.02
100.014
100.01
100.007
100.005
100.003
100.002
100.002
100.001
100.001
100
100
100
100
100
100
100
100
100
100
100
100
100
100
100
100
100
100
100
100
100
384.678
354.539
325.793
299.059
274.662
252.691
233.077
215.665
200.263
186.673
174.704
164.182
154.952
146.874
139.824
133.691
128.376
123.787
119.844
116.471
113.601
111.17
109.125
107.412
105.987
104.808
103.838
103.046
102.403
101.884
101.469
101.138
100.876
100.67
100.509
100.385
100.289
100.215
100.16
100.118
100.086
100.063
100.045
100.032
100.023
100.016
100.012
100.008
100.006
100.004
100.003
100.002
100.001
100.001
100.001
100
100
100
100
100
100
100
100
100
100
100
100
100
100
100
100
100
100
100
100
385.885
358.009
331.134
305.757
282.194
260.597
240.993
223.324
207.485
193.348
180.776
169.633
159.79
151.126
143.528
136.892
131.12
126.124
121.819
118.129
114.983
112.316
110.068
108.183
106.613
105.314
104.244
103.37
102.659
102.086
101.626
101.26
100.97
100.742
100.565
100.427
100.32
100.239
100.177
100.131
100.096
100.069
100.05
100.036
100.026
100.018
100.013
100.009
100.006
100.004
100.003
100.002
100.001
100.001
100.001
100
100
100
100
100
100
100
100
100
100
100
100
100
100
100
100
100
100
100
100
386.778
360.597
335.173
310.908
288.093
266.903
247.415
229.638
213.525
199.002
185.977
174.348
164.011
154.864
146.805
139.74
133.574
128.222
123.599
119.629
116.238
113.359
110.928
108.888
107.187
105.778
104.617
103.668
102.896
102.272
101.772
101.373
101.058
100.81
100.616
100.465
100.35
100.261
100.193
100.142
100.104
100.076
100.055
100.039
100.028
100.02
100.014
100.01
100.007
100.005
100.003
100.002
100.001
100.001
100.001
100
100
100
100
100
100
100
100
100
100
100
100
100
100
100
100
100
100
100
100
387.451
362.559
338.264
314.901
292.731
271.934
252.614
234.818
218.543
203.754
190.393
178.388
167.658
158.116
149.675
142.248
135.747
130.087
125.189
120.973
117.366
114.298
111.705
109.527
107.708
106.2
104.957
103.939
103.111
102.442
101.905
101.477
101.138
100.871
100.663
100.501
100.376
100.281
100.208
100.154
100.112
100.082
100.059
100.042
100.03
100.021
100.015
100.011
100.007
100.005
100.003
100.002
100.002
100.001
100.001
100
100
100
100
100
100
100
100
100
100
100
100
100
100
100
100
100
100
100
100
387.965
364.064
340.652
318.016
296.391
275.95
256.815
239.052
222.689
207.72
194.114
181.821
170.78
160.92
152.165
144.435
137.651
131.73
126.594
122.165
118.369
115.137
112.4
110.099
108.176
106.58
105.263
104.185
103.306
102.596
102.026
101.571
101.211
100.927
100.706
100.534
100.401
100.299
100.222
100.164
100.12
100.087
100.063
100.045
100.032
100.023
100.016
100.011
100.008
100.005
100.004
100.003
100.002
100.001
100.001
100.001
100
100
100
100
100
100
100
100
100
100
100
100
100
100
100
100
100
100
100
388.362
365.228
342.511
320.459
299.285
279.159
260.203
242.502
226.1
211.012
197.228
184.716
173.432
163.317
154.306
146.327
139.305
133.163
127.824
123.213
119.254
115.878
113.017
110.608
108.594
106.919
105.537
104.404
103.482
102.735
102.135
101.656
101.277
100.978
100.744
100.563
100.423
100.316
100.234
100.173
100.127
100.092
100.067
100.048
100.034
100.024
100.017
100.012
100.008
100.006
100.004
100.003
100.002
100.001
100.001
100.001
100
100
100
100
100
100
100
100
100
100
100
100
100
100
100
100
100
100
100
388.671
366.135
343.965
322.381
301.58
281.721
262.932
245.303
228.892
213.729
199.817
187.141
175.667
165.35
156.131
147.948
140.729
134.402
128.892
124.125
120.028
116.528
113.559
111.057
108.962
107.22
105.78
104.6
103.637
102.858
102.232
101.732
101.336
101.023
100.779
100.589
100.443
100.331
100.246
100.181
100.133
100.096
100.07
100.05
100.036
100.025
100.018
100.013
100.009
100.006
100.004
100.003
100.002
100.001
100.001
100.001
100
100
100
100
100
100
100
100
100
100
100
100
100
100
100
100
100
100
100
388.911
366.845
345.106
323.897
303.399
283.768
265.127
247.572
231.17
215.961
201.958
189.159
177.539
167.061
157.676
149.326
141.945
135.465
129.812
124.914
120.698
117.093
114.031
111.448
109.284
107.483
105.994
104.771
103.775
102.967
102.318
101.799
101.388
101.064
100.81
100.613
100.461
100.344
100.255
100.188
100.138
100.1
100.073
100.052
100.037
100.026
100.019
100.013
100.009
100.006
100.004
100.003
100.002
100.001
100.001
100.001
100
100
100
100
100
100
100
100
100
100
100
100
100
100
100
100
100
100
100
389.1
367.402
346.004
325.094
304.843
285.4
266.888
249.404
233.021
217.785
203.719
190.828
179.095
168.492
158.974
150.489
142.976
136.369
130.597
125.589
121.273
117.579
114.439
111.787
109.564
107.712
106.18
104.921
103.895
103.063
102.393
101.858
101.434
101.099
100.837
100.634
100.476
100.356
100.264
100.195
100.143
100.104
100.075
100.054
100.039
100.027
100.019
100.013
100.009
100.006
100.004
100.003
100.002
100.001
100.001
100.001
100
100
100
100
100
100
100
100
100
100
100
100
100
100
100
100
100
100
100
389.248
367.839
346.711
326.04
305.989
286.701
268.298
250.879
234.519
219.269
205.16
192.2
180.382
169.68
160.056
151.463
143.843
137.132
131.262
126.163
121.764
117.995
114.788
112.079
109.805
107.909
106.341
105.051
103.999
103.145
102.459
101.91
101.474
101.13
100.861
100.652
100.49
100.366
100.272
100.201
100.147
100.107
100.077
100.056
100.04
100.028
100.02
100.014
100.01
100.007
100.005
100.003
100.002
100.001
100.001
100.001
100
100
100
100
100
100
100
100
100
100
100
100
100
100
100
100
100
100
100
389.364
368.183
347.267
326.786
306.896
287.735
269.424
252.062
235.726
220.472
206.333
193.323
181.438
170.66
160.953
152.273
144.566
137.771
131.82
126.646
122.179
118.348
115.085
112.327
110.01
108.078
106.478
105.163
104.088
103.217
102.515
101.954
101.508
101.157
100.881
100.667
100.502
100.375
100.279
100.206
100.151
100.11
100.079
100.057
100.041
100.029
100.02
100.014
100.01
100.007
100.005
100.003
100.002
100.001
100.001
100.001
100
100
100
100
100
100
100
100
100
100
100
100
100
100
100
100
100
100
100
389.456
368.453
347.706
327.375
307.613
288.556
270.321
253.009
236.696
221.442
207.282
194.235
182.301
171.463
161.691
152.943
145.166
138.302
132.287
127.051
122.527
118.644
115.336
112.536
110.184
108.222
106.595
105.258
104.165
103.278
102.563
101.992
101.538
101.18
100.899
100.681
100.512
100.383
100.284
100.21
100.154
100.112
100.081
100.058
100.042
100.03
100.021
100.015
100.01
100.007
100.005
100.003
100.002
100.001
100.001
100.001
100
100
100
100
100
100
100
100
100
100
100
100
100
100
100
100
100
100
100
389.527
368.665
348.05
327.839
308.18
289.206
271.034
253.763
237.472
222.22
208.047
194.974
183.002
172.118
162.295
153.492
145.66
138.741
132.673
127.387
122.817
118.892
115.545
112.712
110.33
108.342
106.694
105.338
104.229
103.329
102.604
102.024
101.563
101.199
100.914
100.692
100.521
100.389
100.289
100.213
100.156
100.114
100.082
100.059
100.042
100.03
100.021
100.015
100.01
100.007
100.005
100.003
100.002
100.002
100.001
100.001
100
100
100
100
100
100
100
100
100
100
100
100
100
100
100
100
100
100
100
389.583
368.831
348.32
328.203
308.626
289.719
271.597
254.361
238.089
222.842
208.661
195.568
183.567
172.648
162.785
153.94
146.064
139.101
132.99
127.664
123.056
119.097
115.719
112.859
110.452
108.443
106.777
105.405
104.283
103.373
102.639
102.051
101.584
101.216
100.927
100.702
100.528
100.395
100.293
100.217
100.159
100.116
100.084
100.06
100.043
100.031
100.022
100.015
100.01
100.007
100.005
100.003
100.002
100.002
100.001
100.001
100
100
100
100
100
100
100
100
100
100
100
100
100
100
100
100
100
100
100
389.627
368.961
348.531
328.489
308.976
290.122
272.042
254.835
238.579
223.337
209.15
196.043
184.021
173.075
163.181
154.302
146.392
139.395
133.249
127.891
123.253
119.266
115.863
112.979
110.553
108.527
106.846
105.461
104.329
103.409
102.668
102.074
101.602
101.23
100.938
100.71
100.535
100.4
100.297
100.219
100.161
100.117
100.085
100.061
100.044
100.031
100.022
100.015
100.011
100.007
100.005
100.003
100.002
100.002
100.001
100.001
100
100
100
100
100
100
100
100
100
100
100
100
100
100
100
100
100
100
100
389.661
369.063
348.696
328.712
309.25
290.438
272.392
255.207
238.966
223.729
209.539
196.421
184.384
173.417
163.499
154.594
146.656
139.632
133.46
128.076
123.413
119.403
115.98
113.078
110.636
108.595
106.902
105.507
104.366
103.439
102.692
102.093
101.617
101.241
100.947
100.717
100.54
100.404
100.3
100.221
100.162
100.118
100.086
100.062
100.044
100.031
100.022
100.015
100.011
100.007
100.005
100.003
100.002
100.002
100.001
100.001
100
100
100
100
100
100
100
100
100
100
100
100
100
100
100
100
100
100
100
389.688
369.141
348.825
328.886
309.464
290.685
272.665
255.5
239.27
224.037
209.846
196.721
184.671
173.689
163.753
154.828
146.869
139.822
133.629
128.225
123.542
119.515
116.076
113.159
110.704
108.652
106.948
105.545
104.397
103.464
102.711
102.109
101.629
101.251
100.954
100.723
100.544
100.407
100.302
100.223
100.164
100.119
100.086
100.062
100.044
100.031
100.022
100.016
100.011
100.007
100.005
100.004
100.002
100.002
100.001
100.001
100
100
100
100
100
100
100
100
100
100
100
100
100
100
100
100
100
100
100
389.709
369.202
348.924
329.021
309.63
290.878
272.878
255.728
239.508
224.279
210.087
196.957
184.899
173.905
163.954
155.013
147.038
139.975
133.765
128.344
123.647
119.605
116.152
113.224
110.759
108.697
106.986
105.576
104.422
103.484
102.727
102.121
101.639
101.259
100.96
100.728
100.548
100.41
100.304
100.225
100.165
100.12
100.087
100.063
100.045
100.032
100.022
100.016
100.011
100.008
100.005
100.004
100.002
100.002
100.001
100.001
100
100
100
100
100
100
100
100
100
100
100
100
100
100
100
100
100
100
100
389.724
369.249
349.001
329.125
309.758
291.027
273.043
255.905
239.693
224.468
210.275
197.142
185.077
174.074
164.113
155.16
147.172
140.095
133.872
128.439
123.73
119.677
116.214
113.277
110.803
108.734
107.016
105.601
104.442
103.5
102.74
102.132
101.647
101.265
100.965
100.731
100.551
100.412
100.306
100.226
100.166
100.121
100.087
100.063
100.045
100.032
100.022
100.016
100.011
100.008
100.005
100.004
100.002
100.002
100.001
100.001
100
100
100
100
100
100
100
100
100
100
100
100
100
100
100
100
100
100
100
389.737
369.286
349.06
329.205
309.857
291.141
273.171
256.042
239.836
224.614
210.422
197.286
185.216
174.206
164.237
155.275
147.277
140.191
133.958
128.515
123.796
119.734
116.263
113.318
110.838
108.763
107.041
105.62
104.458
103.513
102.751
102.14
101.654
101.27
100.969
100.734
100.553
100.414
100.307
100.227
100.167
100.121
100.088
100.063
100.045
100.032
100.023
100.016
100.011
100.008
100.005
100.004
100.002
100.002
100.001
100.001
100
100
100
100
100
100
100
100
100
100
100
100
100
100
100
100
100
100
100
389.746
369.313
349.105
329.266
309.933
291.23
273.269
256.148
239.947
224.727
210.535
197.397
185.324
174.309
164.334
155.365
147.359
140.265
134.024
128.574
123.848
119.779
116.302
113.351
110.866
108.786
107.06
105.636
104.471
103.524
102.759
102.147
101.659
101.274
100.972
100.737
100.555
100.415
100.309
100.228
100.167
100.122
100.088
100.063
100.045
100.032
100.023
100.016
100.011
100.008
100.005
100.004
100.002
100.002
100.001
100.001
100
100
100
100
100
100
100
100
100
100
100
100
100
100
100
100
100
100
100
389.753
369.334
349.14
329.313
309.991
291.297
273.344
256.229
240.031
224.814
210.622
197.483
185.407
174.389
164.409
155.435
147.423
140.323
134.076
128.62
123.888
119.814
116.332
113.377
110.887
108.805
107.075
105.649
104.481
103.532
102.766
102.152
101.663
101.277
100.975
100.739
100.556
100.416
100.309
100.228
100.168
100.122
100.088
100.064
100.045
100.032
100.023
100.016
100.011
100.008
100.005
100.004
100.002
100.002
100.001
100.001
100
100
100
100
100
100
100
100
100
100
100
100
100
100
100
100
100
100
100
389.758
369.35
349.166
329.349
310.035
291.348
273.401
256.291
240.096
224.881
210.689
197.549
185.471
174.45
164.466
155.488
147.473
140.368
134.117
128.656
123.92
119.842
116.356
113.397
110.905
108.819
107.087
105.659
104.489
103.538
102.771
102.156
101.667
101.28
100.977
100.74
100.558
100.417
100.31
100.229
100.168
100.122
100.089
100.064
100.046
100.032
100.023
100.016
100.011
100.008
100.005
100.004
100.002
100.002
100.001
100.001
100
100
100
100
100
100
100
100
100
100
100
100
100
100
100
100
100
100
100
389.763
369.363
349.186
329.376
310.068
291.387
273.445
256.337
240.145
224.931
210.74
197.599
185.52
174.497
164.511
155.529
147.51
140.403
134.148
128.683
123.944
119.863
116.374
113.413
110.918
108.83
107.096
105.666
104.495
103.544
102.775
102.159
101.669
101.282
100.978
100.742
100.559
100.418
100.311
100.229
100.168
100.123
100.089
100.064
100.046
100.032
100.023
100.016
100.011
100.008
100.005
100.004
100.002
100.002
100.001
100.001
100
100
100
100
100
100
100
100
100
100
100
100
100
100
100
100
100
100
100
389.766
369.372
349.201
329.396
310.093
291.416
273.477
256.373
240.182
224.969
210.778
197.637
185.557
174.532
164.544
155.561
147.539
140.429
134.171
128.705
123.963
119.879
116.388
113.425
110.928
108.839
107.103
105.672
104.5
103.547
102.778
102.162
101.671
101.284
100.979
100.743
100.559
100.418
100.311
100.23
100.169
100.123
100.089
100.064
100.046
100.032
100.023
100.016
100.011
100.008
100.005
100.004
100.002
100.002
100.001
100.001
100
100
100
100
100
100
100
100
100
100
100
100
100
100
100
100
100
100
100
389.768
369.378
349.212
329.411
310.112
291.438
273.502
256.399
240.21
224.998
210.807
197.666
185.585
174.559
164.57
155.584
147.561
140.449
134.19
128.721
123.977
119.892
116.399
113.434
110.936
108.845
107.109
105.677
104.504
103.551
102.781
102.164
101.673
101.285
100.98
100.743
100.56
100.419
100.311
100.23
100.169
100.123
100.089
100.064
100.046
100.032
100.023
100.016
100.011
100.008
100.005
100.004
100.002
100.002
100.001
100.001
100
100
100
100
100
100
100
100
100
100
100
100
100
100
100
100
100
100
100
389.77
369.383
349.22
329.422
310.126
291.454
273.52
256.419
240.231
225.019
210.829
197.687
185.606
174.579
164.589
155.602
147.578
140.464
134.203
128.733
123.988
119.901
116.407
113.441
110.942
108.85
107.113
105.68
104.507
103.553
102.783
102.165
101.674
101.286
100.981
100.744
100.56
100.419
100.312
100.23
100.169
100.123
100.089
100.064
100.046
100.033
100.023
100.016
100.011
100.008
100.005
100.004
100.002
100.002
100.001
100.001
100
100
100
100
100
100
100
100
100
100
100
100
100
100
100
100
100
100
100
389.771
369.387
349.226
329.431
310.136
291.466
273.533
256.433
240.246
225.035
210.845
197.703
185.621
174.594
164.603
155.616
147.59
140.475
134.213
128.742
123.996
119.908
116.413
113.447
110.946
108.854
107.116
105.683
104.509
103.555
102.784
102.166
101.675
101.287
100.982
100.744
100.561
100.419
100.312
100.23
100.169
100.123
100.089
100.064
100.046
100.033
100.023
100.016
100.011
100.008
100.005
100.004
100.002
100.002
100.001
100.001
100
100
100
100
100
100
100
100
100
100
100
100
100
100
100
100
100
100
100
389.772
369.39
349.231
329.437
310.144
291.475
273.543
256.444
240.258
225.047
210.857
197.715
185.633
174.605
164.613
155.626
147.599
140.484
134.221
128.749
124.002
119.913
116.418
113.451
110.95
108.857
107.119
105.685
104.511
103.556
102.785
102.167
101.676
101.287
100.982
100.745
100.561
100.42
100.312
100.23
100.169
100.123
100.089
100.064
100.046
100.033
100.023
100.016
100.011
100.008
100.005
100.004
100.002
100.002
100.001
100.001
100
100
100
100
100
100
100
100
100
100
100
100
100
100
100
100
100
100
100
389.772
369.392
349.234
329.441
310.149
291.482
273.551
256.452
240.266
225.055
210.865
197.724
185.641
174.614
164.621
155.633
147.606
140.49
134.227
128.754
124.006
119.917
116.421
113.453
110.952
108.859
107.121
105.686
104.512
103.557
102.786
102.168
101.676
101.287
100.982
100.745
100.561
100.42
100.312
100.23
100.169
100.123
100.089
100.064
100.046
100.033
100.023
100.016
100.011
100.008
100.005
100.004
100.002
100.002
100.001
100.001
100
100
100
100
100
100
100
100
100
100
100
100
100
100
100
100
100
100
100
389.773
369.393
349.236
329.445
310.153
291.487
273.556
256.458
240.272
225.062
210.872
197.73
185.648
174.62
164.627
155.638
147.611
140.494
134.231
128.758
124.01
119.92
116.424
113.456
110.954
108.861
107.122
105.687
104.513
103.558
102.787
102.168
101.677
101.288
100.983
100.745
100.561
100.42
100.312
100.231
100.169
100.123
100.089
100.064
100.046
100.033
100.023
100.016
100.011
100.008
100.005
100.004
100.002
100.002
100.001
100.001
100
100
100
100
100
100
100
100
100
100
100
100
100
100
100
100
100
100
100
389.773
369.394
349.238
329.447
310.156
291.49
273.56
256.462
240.277
225.066
210.877
197.735
185.652
174.624
164.631
155.642
147.615
140.498
134.234
128.76
124.012
119.922
116.426
113.457
110.955
108.862
107.123
105.688
104.513
103.558
102.787
102.169
101.677
101.288
100.983
100.745
100.561
100.42
100.312
100.231
100.169
100.123
100.089
100.064
100.046
100.033
100.023
100.016
100.011
100.008
100.005
100.004
100.002
100.002
100.001
100.001
100
100
100
100
100
100
100
100
100
100
100
100
100
100
100
100
100
100
100
389.774
369.395
349.239
329.449
310.158
291.493
273.563
256.465
240.28
225.07
210.88
197.738
185.655
174.627
164.634
155.645
147.617
140.5
134.236
128.762
124.014
119.924
116.427
113.458
110.956
108.863
107.124
105.689
104.514
103.559
102.787
102.169
101.677
101.288
100.983
100.745
100.561
100.42
100.312
100.231
100.169
100.123
100.089
100.064
100.046
100.033
100.023
100.016
100.011
100.008
100.005
100.004
100.002
100.002
100.001
100.001
100
100
100
100
100
100
100
100
100
100
100
100
100
100
100
100
100
100
100
389.774
369.396
349.24
329.45
310.16
291.494
273.565
256.467
240.282
225.072
210.882
197.741
185.658
174.629
164.636
155.647
147.619
140.502
134.238
128.764
124.015
119.925
116.428
113.459
110.957
108.863
107.124
105.689
104.514
103.559
102.788
102.169
101.677
101.288
100.983
100.745
100.561
100.42
100.312
100.231
100.169
100.123
100.089
100.064
100.046
100.033
100.023
100.016
100.011
100.008
100.005
100.004
100.002
100.002
100.001
100.001
100
100
100
100
100
100
100
100
100
100
100
100
100
100
100
100
100
100
100
389.774
369.396
349.241
329.451
310.161
291.496
273.566
256.469
240.284
225.074
210.884
197.742
185.66
174.631
164.638
155.649
147.621
140.503
134.239
128.765
124.016
119.926
116.429
113.46
110.958
108.864
107.124
105.69
104.515
103.559
102.788
102.169
101.677
101.288
100.983
100.745
100.561
100.42
100.312
100.231
100.169
100.123
100.089
100.064
100.046
100.033
100.023
100.016
100.011
100.008
100.005
100.004
100.002
100.002
100.001
100.001
100
100
100
100
100
100
100
100
100
100
100
100
100
100
100
100
100
100
100
389.774
369.396
349.241
329.451
310.162
291.496
273.567
256.47
240.285
225.075
210.885
197.743
185.661
174.632
164.639
155.65
147.622
140.504
134.24
128.765
124.017
119.926
116.429
113.46
110.958
108.864
107.125
105.69
104.515
103.559
102.788
102.169
101.677
101.288
100.983
100.745
100.561
100.42
100.312
100.231
100.169
100.123
100.089
100.064
100.046
100.033
100.023
100.016
100.011
100.008
100.005
100.004
100.002
100.002
100.001
100.001
100
100
100
100
100
100
100
100
100
100
100
100
100
100
100
100
100
100
100
389.774
369.397
349.242
329.452
310.162
291.497
273.568
256.471
240.286
225.076
210.886
197.744
185.662
174.633
164.64
155.65
147.622
140.505
134.24
128.766
124.017
119.927
116.43
113.461
110.958
108.864
107.125
105.69
104.515
103.559
102.788
102.17
101.677
101.288
100.983
100.745
100.561
100.42
100.312
100.231
100.169
100.123
100.089
100.064
100.046
100.033
100.023
100.016
100.011
100.008
100.005
100.004
100.002
100.002
100.001
100.001
100
100
100
100
100
100
100
100
100
100
100
100
100
100
100
100
100
100
100
389.774
369.397
349.242
329.452
310.163
291.498
273.568
256.471
240.286
225.076
210.887
197.745
185.662
174.634
164.64
155.651
147.623
140.505
134.241
128.766
124.017
119.927
116.43
113.461
110.959
108.865
107.125
105.69
104.515
103.559
102.788
102.17
101.677
101.288
100.983
100.745
100.562
100.42
100.312
100.231
100.169
100.123
100.089
100.064
100.046
100.033
100.023
100.016
100.011
100.008
100.005
100.004
100.002
100.002
100.001
100.001
100
100
100
100
100
100
100
100
100
100
100
100
100
100
100
100
100
100
100
389.774
369.397
349.242
329.452
310.163
291.498
273.569
256.472
240.287
225.077
210.887
197.745
185.663
174.634
164.641
155.651
147.623
140.506
134.241
128.767
124.018
119.927
116.43
113.461
110.959
108.865
107.125
105.69
104.515
103.559
102.788
102.17
101.677
101.289
100.983
100.745
100.562
100.42
100.312
100.231
100.169
100.123
100.089
100.064
100.046
100.033
100.023
100.016
100.011
100.008
100.005
100.004
100.002
100.002
100.001
100.001
100
100
100
100
100
100
100
100
100
100
100
100
100
100
100
100
100
100
100
389.774
369.397
349.242
329.453
310.163
291.498
273.569
256.472
240.287
225.077
210.887
197.746
185.663
174.634
164.641
155.651
147.623
140.506
134.241
128.767
124.018
119.928
116.43
113.461
110.959
108.865
107.125
105.69
104.515
103.56
102.788
102.17
101.677
101.289
100.983
100.746
100.562
100.42
100.312
100.231
100.169
100.123
100.089
100.064
100.046
100.033
100.023
100.016
100.011
100.008
100.005
100.004
100.002
100.002
100.001
100.001
100
100
100
100
100
100
100
100
100
100
100
100
100
100
100
100
100
100
100
389.774
369.397
349.242
329.453
310.163
291.498
273.569
256.472
240.287
225.077
210.888
197.746
185.663
174.635
164.641
155.652
147.624
140.506
134.241
128.767
124.018
119.928
116.43
113.461
110.959
108.865
107.125
105.69
104.515
103.56
102.788
102.17
101.678
101.289
100.983
100.746
100.562
100.42
100.312
100.231
100.169
100.123
100.089
100.064
100.046
100.033
100.023
100.016
100.011
100.008
100.005
100.004
100.002
100.002
100.001
100.001
100
100
100
100
100
100
100
100
100
100
100
100
100
100
100
100
100
100
100
389.774
369.397
349.242
329.453
310.163
291.498
273.569
256.472
240.287
225.077
210.888
197.746
185.663
174.635
164.641
155.652
147.624
140.506
134.241
128.767
124.018
119.928
116.43
113.461
110.959
108.865
107.125
105.69
104.515
103.56
102.788
102.17
101.678
101.289
100.983
100.746
100.562
100.42
100.312
100.231
100.169
100.123
100.089
100.064
100.046
100.033
100.023
100.016
100.011
100.008
100.005
100.004
100.002
100.002
100.001
100.001
100
100
100
100
100
100
100
100
100
100
100
100
100
100
100
100
100
100
100
389.774
369.397
349.242
329.453
310.163
291.498
273.569
256.472
240.287
225.078
210.888
197.746
185.663
174.635
164.641
155.652
147.624
140.506
134.241
128.767
124.018
119.928
116.43
113.461
110.959
108.865
107.125
105.69
104.515
103.56
102.788
102.17
101.678
101.289
100.983
100.746
100.562
100.42
100.312
100.231
100.169
100.123
100.089
100.064
100.046
100.033
100.023
100.016
100.011
100.008
100.005
100.004
100.002
100.002
100.001
100.001
100
100
100
100
100
100
100
100
100
100
100
100
100
100
100
100
100
100
100
389.774
369.397
349.242
329.453
310.163
291.498
273.569
256.472
240.287
225.078
210.888
197.746
185.663
174.635
164.641
155.652
147.624
140.506
134.241
128.767
124.018
119.928
116.43
113.461
110.959
108.865
107.125
105.69
104.515
103.56
102.788
102.17
101.678
101.289
100.983
100.746
100.562
100.42
100.312
100.231
100.169
100.123
100.089
100.064
100.046
100.033
100.023
100.016
100.011
100.008
100.005
100.004
100.002
100.002
100.001
100.001
100
100
100
100
100
100
100
100
100
100
100
100
100
100
100
100
100
100
100
389.774
369.397
349.242
329.453
310.163
291.498
273.569
256.472
240.287
225.078
210.888
197.746
185.663
174.635
164.642
155.652
147.624
140.506
134.241
128.767
124.018
119.928
116.43
113.461
110.959
108.865
107.125
105.69
104.515
103.56
102.788
102.17
101.678
101.289
100.983
100.746
100.562
100.42
100.312
100.231
100.169
100.123
100.089
100.064
100.046
100.033
100.023
100.016
100.011
100.008
100.005
100.004
100.002
100.002
100.001
100.001
100
100
100
100
100
100
100
100
100
100
100
100
100
100
100
100
100
100
100
389.774
369.397
349.242
329.453
310.163
291.498
273.569
256.472
240.287
225.078
210.888
197.746
185.663
174.635
164.642
155.652
147.624
140.506
134.241
128.767
124.018
119.928
116.43
113.461
110.959
108.865
107.125
105.69
104.515
103.56
102.788
102.17
101.678
101.289
100.983
100.746
100.562
100.42
100.312
100.231
100.169
100.123
100.089
100.064
100.046
100.033
100.023
100.016
100.011
100.008
100.005
100.004
100.002
100.002
100.001
100.001
100
100
100
100
100
100
100
100
100
100
100
100
100
100
100
100
100
100
100
389.774
369.397
349.242
329.453
310.163
291.498
273.569
256.472
240.288
225.078
210.888
197.746
185.663
174.635
164.642
155.652
147.624
140.506
134.241
128.767
124.018
119.928
116.43
113.461
110.959
108.865
107.125
105.69
104.515
103.56
102.788
102.17
101.678
101.289
100.983
100.746
100.562
100.42
100.312
100.231
100.169
100.123
100.089
100.064
100.046
100.033
100.023
100.016
100.011
100.008
100.005
100.004
100.002
100.002
100.001
100.001
100
100
100
100
100
100
100
100
100
100
100
100
100
100
100
100
100
100
100
389.774
369.397
349.242
329.453
310.163
291.498
273.569
256.472
240.288
225.078
210.888
197.746
185.663
174.635
164.642
155.652
147.624
140.506
134.241
128.767
124.018
119.928
116.43
113.461
110.959
108.865
107.125
105.69
104.515
103.56
102.788
102.17
101.678
101.289
100.983
100.746
100.562
100.42
100.312
100.231
100.169
100.123
100.089
100.064
100.046
100.033
100.023
100.016
100.011
100.008
100.005
100.004
100.002
100.002
100.001
100.001
100
100
100
100
100
100
100
100
100
100
100
100
100
100
100
100
100
100
100
389.774
369.397
349.242
329.453
310.163
291.498
273.569
256.472
240.288
225.078
210.888
197.746
185.663
174.635
164.642
155.652
147.624
140.506
134.241
128.767
124.018
119.928
116.43
113.461
110.959
108.865
107.125
105.69
104.515
103.56
102.788
102.17
101.678
101.289
100.983
100.746
100.562
100.42
100.312
100.231
100.169
100.123
100.089
100.064
100.046
100.033
100.023
100.016
100.011
100.008
100.005
100.004
100.002
100.002
100.001
100.001
100
100
100
100
100
100
100
100
100
100
100
100
100
100
100
100
100
100
100
389.774
369.397
349.242
329.453
310.163
291.498
273.569
256.472
240.288
225.078
210.888
197.746
185.663
174.635
164.642
155.652
147.624
140.506
134.241
128.767
124.018
119.928
116.43
113.461
110.959
108.865
107.125
105.69
104.515
103.56
102.788
102.17
101.678
101.289
100.983
100.746
100.562
100.42
100.312
100.231
100.169
100.123
100.089
100.064
100.046
100.033
100.023
100.016