/*--------------------------------*- C++ -*----------------------------------*\
  =========                 |
  \\      /  F ield         | OpenFOAM: The Open Source CFD Toolbox
   \\    /   O peration     | Website:  https://openfoam.org
    \\  /    A nd           | Version:  10
     \\/     M anipulation  |
\*---------------------------------------------------------------------------*/
FoamFile
{
    format      ascii;
    class       volScalarField;
    location    "47";
    object      gradTz;
}
// * * * * * * * * * * * * * * * * * * * * * * * * * * * * * * * * * * * * * //

dimensions      [0 -1 0 1 0 0 0];

internalField   nonuniform List<scalar> 
11250
(
-14492.4
-4276.35
-1634.81
-803.505
-468.439
-297.517
-194.735
-127.395
-81.9413
-51.3553
-31.2043
-18.3302
-10.3943
-5.6858
-2.99965
-1.52648
-0.749551
-0.355316
-0.162697
-0.0720062
-0.0308229
-0.0127697
-0.00512374
-0.00199241
-0.000751344
-0.000274941
-9.76887e-05
-3.37213e-05
-1.13152e-05
-3.69269e-06
-1.17265e-06
-3.6253e-07
-1.09157e-07
-3.20263e-08
-9.16511e-09
-2.54977e-09
-7.05768e-10
-1.99766e-10
-4.17095e-11
-2.19524e-12
4.39047e-12
0
-3.29285e-12
0
-1.09762e-12
0
0
2.19524e-12
0
-1.09762e-12
0
1.31714e-11
0
-1.4269e-11
0
0
0
0
0
0
0
0
-2.08547e-11
-1.09762e-12
2.19523e-11
1.09762e-12
-1.09762e-12
0
1.09762e-12
-1.09762e-12
0
-5.48809e-12
-1.09762e-12
6.5857e-12
0
-8677.47
-5240.89
-3084.47
-1909.35
-1240.89
-827.887
-554.68
-367.284
-237.869
-149.714
-91.2232
-53.6911
-30.4887
-16.6952
-8.815
-4.48869
-2.20523
-1.04581
-0.479039
-0.212076
-0.0908047
-0.0376284
-0.0151011
-0.00587328
-0.0022152
-0.000810738
-0.000288102
-9.94639e-05
-3.33793e-05
-1.08947e-05
-3.46013e-06
-1.06984e-06
-3.22205e-07
-9.45488e-08
-2.70244e-08
-7.51758e-09
-2.06133e-09
-5.6198e-10
-1.383e-10
-3.51238e-11
5.48809e-12
9.87856e-12
-8.78094e-12
-5.48809e-12
6.5857e-12
5.48809e-12
-6.5857e-12
2.19523e-12
3.29285e-12
0
0
0
0
0
0
0
-2.19523e-12
0
5.48809e-12
-1.09762e-12
-3.29285e-12
1.09762e-12
1.09762e-12
8.78094e-12
-1.09762e-12
-1.20738e-11
1.09762e-12
2.19523e-12
-1.09762e-12
-4.39047e-12
1.09762e-12
4.39047e-12
0
-8.78094e-12
8.78094e-12
-6252.27
-4885.01
-3524.19
-2493.97
-1757.05
-1228.73
-846.281
-569.806
-372.94
-236.363
-144.709
-85.4612
-48.6511
-26.6912
-14.1136
-7.1952
-3.53824
-1.67928
-0.769703
-0.340945
-0.146052
-0.060547
-0.0243077
-0.00945707
-0.00356793
-0.00130617
-0.000464273
-0.000160322
-5.38145e-05
-1.75681e-05
-5.58074e-06
-1.72586e-06
-5.19845e-07
-1.5256e-07
-4.36336e-08
-1.21825e-08
-3.33456e-09
-8.92363e-10
-2.25012e-10
-3.51238e-11
0
-1.09762e-12
0
1.09762e-12
0
0
0
0
0
-1.64643e-11
1.09762e-12
1.53666e-11
8.78094e-12
-1.31714e-11
-1.53666e-11
-2.19523e-12
6.58571e-12
9.87856e-12
0
5.48809e-12
0
0
1.09762e-12
5.48809e-12
-1.09762e-12
-5.48809e-12
0
0
0
-1.09762e-11
0
1.20738e-11
1.09762e-12
-1.09762e-12
-1.09762e-12
-5118.69
-4457.68
-3587.06
-2761.77
-2063.28
-1500.26
-1060.11
-726.009
-480.67
-307.084
-189.082
-112.135
-64.0375
-35.2179
-18.6578
-9.52641
-4.69046
-2.22842
-1.02229
-0.453164
-0.194246
-0.0805712
-0.0323626
-0.0125964
-0.00475419
-0.00174107
-0.000619064
-0.00021384
-7.17997e-05
-2.3446e-05
-7.44993e-06
-2.3045e-06
-6.94274e-07
-2.03795e-07
-5.83373e-08
-1.6304e-08
-4.44535e-09
-1.19091e-09
-3.12821e-10
-6.25642e-11
-5.48809e-12
1.09762e-12
1.09762e-12
-2.19523e-12
9.87856e-12
0
-8.78094e-12
0
-1.09762e-12
0
0
3.29285e-12
1.09762e-11
-4.39047e-12
-1.09762e-11
0
3.29285e-12
1.09762e-12
-2.19523e-12
0
-1.09762e-12
0
-1.20738e-11
-1.09762e-12
1.4269e-11
1.09762e-12
0
0
-2.19524e-12
0
8.78094e-12
1.09762e-12
-9.87856e-12
0
0
-4544.96
-4153.04
-3542.76
-2871.33
-2232.25
-1671.07
-1205.62
-837.961
-560.706
-360.994
-223.552
-133.152
-76.2937
-42.0681
-22.3335
-11.4224
-5.63183
-2.67877
-1.2301
-0.545739
-0.234099
-0.0971635
-0.0390493
-0.0152067
-0.00574202
-0.00210372
-0.000748297
-0.000258574
-8.68494e-05
-2.83697e-05
-9.0172e-06
-2.79015e-06
-8.40851e-07
-2.4689e-07
-7.06877e-08
-1.9756e-08
-5.39808e-09
-1.4302e-09
-3.63311e-10
-9.87856e-11
-2.41476e-11
0
0
0
-1.09762e-12
1.09762e-12
0
1.09762e-12
-2.19523e-12
0
1.09762e-12
0
0
0
0
0
-5.48809e-12
0
1.20738e-11
0
-8.78094e-12
0
2.19523e-12
1.09762e-12
5.48809e-12
-2.19523e-12
-4.39047e-12
1.09762e-12
2.19523e-12
-5.48809e-12
-2.19523e-12
4.39047e-12
0
-5.48809e-12
5.48809e-12
-4240.47
-3961.3
-3484.59
-2910.42
-2321.11
-1773.03
-1299.09
-913.502
-616.645
-399.663
-248.768
-148.762
-85.5057
-47.2659
-25.1441
-12.8814
-6.36002
-3.02869
-1.39217
-0.618175
-0.265369
-0.110215
-0.0443207
-0.0172686
-0.00652375
-0.00239117
-0.000850895
-0.00029414
-9.88309e-05
-3.22946e-05
-1.02681e-05
-3.17827e-06
-9.58147e-07
-2.81443e-07
-8.0597e-08
-2.25264e-08
-6.15105e-09
-1.62886e-09
-4.05021e-10
-9.65903e-11
-2.41476e-11
4.39047e-12
1.09762e-12
-9.87856e-12
-1.09762e-12
-4.39047e-12
1.09762e-12
4.39047e-12
4.39047e-12
8.78094e-12
-3.29285e-12
-9.87856e-12
0
0
2.19524e-12
0
-5.48809e-12
-6.58571e-12
6.5857e-12
4.39047e-12
-1.09762e-12
0
4.39047e-12
0
-5.48809e-12
1.09762e-12
0
0
0
-1.09762e-11
-2.19523e-12
4.39047e-12
1.09762e-12
4.39047e-12
3.29285e-12
-4075.13
-3846.73
-3438.27
-2921.1
-2366.27
-1831.54
-1356.39
-961.94
-653.707
-425.928
-266.228
-159.737
-92.0615
-51.0019
-27.1807
-13.9459
-6.89434
-3.28669
-1.51217
-0.672003
-0.288682
-0.119973
-0.0482717
-0.0188176
-0.00711222
-0.00260799
-0.000928418
-0.000321058
-0.000107914
-3.52748e-05
-1.12194e-05
-3.4738e-06
-1.04754e-06
-3.07809e-07
-8.81727e-08
-2.46261e-08
-6.71961e-09
-1.77265e-09
-4.48926e-10
-1.26226e-10
-2.96357e-11
-9.87856e-12
0
9.87856e-12
0
0
1.09762e-12
-2.19524e-12
-3.29285e-12
-5.48809e-12
1.09762e-12
7.68332e-12
-3.29285e-12
-1.09762e-12
4.39047e-12
0
-2.19524e-12
0
2.19523e-12
2.19524e-12
0
1.09762e-12
-1.09762e-12
-1.09762e-12
1.09762e-12
-1.09762e-12
0
0
0
0
0
-4.39047e-12
-1.09762e-12
0
5.48809e-12
-3984.82
-3780.42
-3406.9
-2921.76
-2388.58
-1864.04
-1390.16
-991.646
-677.119
-442.903
-277.72
-167.066
-96.4929
-53.5524
-28.5827
-14.6837
-7.26695
-3.46753
-1.59666
-0.710049
-0.305216
-0.126915
-0.0510903
-0.0199255
-0.00753409
-0.00276375
-0.000984225
-0.000340474
-0.000114477
-3.74318e-05
-1.19091e-05
-3.68844e-06
-1.1126e-06
-3.27015e-07
-9.36959e-08
-2.61881e-08
-7.14659e-09
-1.8879e-09
-4.76366e-10
-1.16347e-10
-1.97571e-11
5.48809e-12
-9.87856e-12
-6.5857e-12
9.87856e-12
6.5857e-12
-1.09762e-12
0
-1.09762e-12
0
1.09762e-12
-1.09762e-12
-1.09762e-12
1.09762e-12
-7.68332e-12
0
-5.48809e-12
0
8.78094e-12
0
2.19523e-12
0
3.29285e-12
0
0
-1.09762e-12
0
-1.20738e-11
0
1.31714e-11
1.09762e-12
-8.78094e-12
-8.78094e-12
4.39047e-12
1.09762e-11
-3935.79
-3743.05
-3387.39
-2919.73
-2399.34
-1881.59
-1409.38
-1009.15
-691.277
-453.383
-284.935
-171.732
-99.3462
-55.2105
-29.5016
-15.1708
-7.51436
-3.58824
-1.65331
-0.735665
-0.316388
-0.131621
-0.0530068
-0.0206808
-0.00782242
-0.00287046
-0.00102254
-0.000353832
-0.000119002
-3.89218e-05
-1.23863e-05
-3.83724e-06
-1.15779e-06
-3.4039e-07
-9.7565e-08
-2.72813e-08
-7.43307e-09
-1.96364e-09
-5.06002e-10
-1.13055e-10
-1.20738e-11
0
0
-4.39047e-12
-9.87856e-12
5.48809e-12
8.78094e-12
0
-6.58571e-12
-1.09762e-12
5.48809e-12
2.19524e-12
0
0
5.48809e-12
2.305e-11
-5.48809e-12
-2.41476e-11
0
1.09762e-12
1.09762e-12
-1.09762e-12
0
0
1.09762e-12
6.58571e-12
-1.09762e-12
-6.5857e-12
1.09762e-12
-1.09762e-12
0
1.09762e-12
0
-1.09762e-12
0
-3909.53
-3722.52
-3375.94
-2917.6
-2404.41
-1890.83
-1419.96
-1019.08
-699.498
-459.582
-289.267
-174.57
-101.1
-56.2393
-30.0763
-15.4774
-7.67107
-3.6651
-1.68955
-0.752119
-0.323591
-0.134665
-0.0542504
-0.0211723
-0.00801055
-0.00294026
-0.00104766
-0.000362609
-0.000121981
-3.9905e-05
-1.2702e-05
-3.93585e-06
-1.18777e-06
-3.49276e-07
-1.00124e-07
-2.79838e-08
-7.61527e-09
-2.0284e-09
-5.43321e-10
-1.14152e-10
1.09762e-12
-1.09762e-12
0
-3.29285e-12
0
3.29285e-12
0
1.09762e-12
-1.20738e-11
-2.19523e-12
1.31714e-11
1.09762e-12
-4.39047e-12
1.09762e-12
3.29285e-12
1.4269e-11
0
-1.75619e-11
0
3.29285e-12
0
9.87856e-12
0
-9.87856e-12
0
1.64643e-11
1.09762e-12
-1.64643e-11
-1.09762e-12
2.19524e-12
5.48809e-12
-2.19524e-12
-5.48809e-12
0
0
-3895.73
-3711.54
-3369.53
-2916.02
-2406.75
-1895.57
-1425.61
-1024.52
-704.092
-463.103
-291.762
-176.222
-102.132
-56.8498
-30.4198
-15.6619
-7.76593
-3.71186
-1.7117
-0.762217
-0.328028
-0.136547
-0.0550215
-0.0214779
-0.00812785
-0.00298389
-0.00106341
-0.000368123
-0.000123857
-4.05255e-05
-1.29016e-05
-3.99835e-06
-1.20684e-06
-3.5491e-07
-1.01738e-07
-2.84426e-08
-7.76674e-09
-2.08108e-09
-5.36735e-10
-1.09762e-10
-2.19523e-12
5.48809e-12
2.19523e-12
-1.09762e-12
0
0
-4.39047e-12
0
2.19523e-12
-3.29285e-12
0
3.29285e-12
2.19523e-12
1.09762e-12
0
2.19523e-12
-1.09762e-12
-2.19523e-12
-2.19523e-12
1.09762e-12
1.09762e-12
0
-1.09762e-12
-1.09762e-12
1.09762e-12
1.09762e-12
1.09762e-12
-1.09762e-12
0
0
1.09762e-12
-6.5857e-12
0
5.48809e-12
0
-3888.65
-3705.82
-3366.07
-2915.02
-2407.8
-1897.93
-1428.53
-1027.4
-706.566
-465.026
-293.141
-177.146
-102.714
-57.1968
-30.6165
-15.7683
-7.82088
-3.73909
-1.72466
-0.768147
-0.330644
-0.13766
-0.055479
-0.0216598
-0.00819786
-0.00301
-0.00107285
-0.000371439
-0.000124988
-4.09003e-05
-1.30224e-05
-4.03627e-06
-1.21844e-06
-3.58377e-07
-1.02737e-07
-2.8729e-08
-7.84906e-09
-2.09425e-09
-5.32344e-10
-9.98832e-11
-1.53666e-11
-1.53666e-11
1.09762e-12
0
-1.09762e-12
-1.09762e-12
-5.48809e-12
0
4.39047e-12
1.09762e-12
0
0
0
1.09762e-12
1.09762e-12
-2.19523e-12
0
-1.09762e-12
-1.09762e-12
3.29285e-12
1.4269e-11
-2.19523e-12
-1.31714e-11
0
-9.87856e-12
-2.08547e-11
8.78094e-12
2.19523e-11
0
0
0
0
-2.19524e-12
-3.29285e-12
5.48809e-12
-3885.1
-3702.93
-3364.28
-2914.44
-2408.26
-1899.09
-1430
-1028.87
-707.851
-466.038
-293.875
-177.642
-103.029
-57.3861
-30.7245
-15.827
-7.8514
-3.75428
-1.73192
-0.771484
-0.332121
-0.13829
-0.0557391
-0.0217635
-0.00823788
-0.00302497
-0.00107828
-0.000373349
-0.000125641
-4.11174e-05
-1.30926e-05
-4.05832e-06
-1.22518e-06
-3.60416e-07
-1.03351e-07
-2.88871e-08
-7.84687e-09
-2.08657e-09
-5.76249e-10
-1.41593e-10
-1.53666e-11
3.29285e-12
8.78094e-12
-5.48809e-12
-7.68332e-12
1.09762e-12
5.48809e-12
-1.09762e-12
-6.58571e-12
0
2.19524e-12
1.09762e-12
-2.19523e-12
-1.09762e-12
0
0
0
0
0
2.19524e-12
-2.19524e-12
6.5857e-12
0
-1.86595e-11
-4.39047e-12
9.87856e-12
3.29285e-12
3.29285e-12
1.09762e-12
0
-1.09762e-12
0
0
1.09762e-12
-1.09762e-12
-3883.37
-3701.51
-3363.38
-2914.13
-2408.45
-1899.63
-1430.71
-1029.6
-708.497
-466.552
-294.251
-177.899
-103.194
-57.4854
-30.7815
-15.8581
-7.86767
-3.76242
-1.73582
-0.773285
-0.332921
-0.138633
-0.0558809
-0.0218202
-0.00825984
-0.0030332
-0.00108127
-0.000374406
-0.000126003
-4.1238e-05
-1.31316e-05
-4.07065e-06
-1.22898e-06
-3.61538e-07
-1.03657e-07
-2.89409e-08
-7.86772e-09
-2.11401e-09
-5.90518e-10
-1.6135e-10
-1.75619e-11
5.48809e-12
-2.19523e-12
0
2.19523e-12
-2.19523e-12
1.09762e-12
3.29285e-12
-1.09762e-12
0
1.09762e-12
0
-2.19523e-12
1.09762e-12
0
-1.09762e-12
-8.78094e-12
-8.78094e-12
4.39047e-12
8.78094e-12
4.39047e-12
0
-1.20738e-11
-1.09762e-12
1.31714e-11
2.19523e-12
-2.19523e-12
-1.09762e-12
1.09762e-12
-1.09762e-12
-4.39047e-12
-7.68332e-12
3.29285e-12
1.31714e-11
-3.29285e-12
-3882.55
-3700.83
-3362.94
-2913.97
-2408.53
-1899.89
-1431.05
-1029.95
-708.81
-466.804
-294.437
-178.026
-103.276
-57.5355
-30.8104
-15.874
-7.87601
-3.76661
-1.73784
-0.77422
-0.333338
-0.138812
-0.0559552
-0.02185
-0.00827141
-0.00303755
-0.00108286
-0.000374967
-0.000126196
-4.13023e-05
-1.31525e-05
-4.07725e-06
-1.23102e-06
-3.62161e-07
-1.03837e-07
-2.89914e-08
-7.87321e-09
-2.10743e-09
-5.88323e-10
-1.54764e-10
-3.07333e-11
-1.09762e-12
9.87856e-12
-4.39047e-12
-5.48809e-12
5.48809e-12
4.39047e-12
0
0
0
0
0
2.19523e-12
0
-2.19524e-12
5.48809e-12
0
-5.48809e-12
1.09762e-12
0
-2.19524e-12
0
1.09762e-12
0
4.39047e-12
0
-4.39047e-12
-1.09762e-12
0
-4.39047e-12
4.39047e-12
5.48809e-12
-4.39047e-12
1.09762e-12
-1.09762e-12
-3882.17
-3700.52
-3362.74
-2913.89
-2408.57
-1900
-1431.2
-1030.11
-708.957
-466.923
-294.526
-178.088
-103.316
-57.5598
-30.8246
-15.8818
-7.88012
-3.76868
-1.73884
-0.774686
-0.333546
-0.138902
-0.0559926
-0.0218651
-0.00827727
-0.00303976
-0.00108366
-0.000375253
-0.000126295
-4.13353e-05
-1.31632e-05
-4.08066e-06
-1.23208e-06
-3.62461e-07
-1.03927e-07
-2.90386e-08
-7.88638e-09
-2.10523e-09
-5.82835e-10
-1.40495e-10
-1.86595e-11
-1.4269e-11
0
1.4269e-11
-5.48809e-12
2.19524e-12
5.48809e-12
-7.68332e-12
0
6.5857e-12
-3.29285e-12
-9.87856e-12
3.29285e-12
-5.48809e-12
-2.19524e-12
1.53666e-11
-1.09762e-12
0
5.48809e-12
1.09762e-12
-8.78094e-12
-1.09762e-12
5.48809e-12
8.78094e-12
0
-8.78094e-12
0
-4.39047e-12
0
-6.58571e-12
-1.09762e-12
9.87856e-12
9.87856e-12
1.09762e-12
-8.78094e-12
-3882
-3700.37
-3362.65
-2913.85
-2408.58
-1900.05
-1431.27
-1030.19
-709.024
-466.977
-294.567
-178.116
-103.334
-57.5713
-30.8312
-15.8855
-7.88208
-3.76967
-1.73932
-0.77491
-0.333647
-0.138946
-0.0560108
-0.0218724
-0.00828013
-0.00304084
-0.00108406
-0.000375394
-0.000126343
-4.13516e-05
-1.31686e-05
-4.08235e-06
-1.2326e-06
-3.62617e-07
-1.03952e-07
-2.90452e-08
-7.91163e-09
-2.10633e-09
-5.6198e-10
-1.48178e-10
-2.74404e-11
0
1.09762e-12
-1.09762e-12
0
0
3.29285e-12
0
-4.39047e-12
0
1.09762e-12
0
-1.09762e-12
1.09762e-12
-4.39047e-12
-1.09762e-12
6.5857e-12
8.78094e-12
-1.09762e-12
-8.78094e-12
0
0
-2.19523e-12
4.39047e-12
2.19523e-12
-5.48809e-12
-2.19523e-12
0
2.19523e-12
-6.5857e-12
-4.39047e-12
6.5857e-12
4.39047e-12
8.78094e-12
-7.68332e-12
-3881.93
-3700.31
-3362.61
-2913.84
-2408.59
-1900.07
-1431.3
-1030.22
-709.053
-467.001
-294.585
-178.129
-103.343
-57.5764
-30.8342
-15.8872
-7.88297
-3.77013
-1.73955
-0.775014
-0.333694
-0.138966
-0.0560193
-0.0218759
-0.00828147
-0.00304135
-0.00108425
-0.00037546
-0.000126366
-4.13594e-05
-1.31711e-05
-4.08314e-06
-1.23281e-06
-3.62661e-07
-1.0398e-07
-2.90814e-08
-7.91602e-09
-2.10413e-09
-5.64175e-10
-1.39397e-10
-3.29285e-11
0
1.4269e-11
-1.53666e-11
-4.39047e-12
1.4269e-11
0
1.09762e-12
0
-1.09762e-12
1.09762e-12
0
-1.09762e-12
0
2.19524e-12
0
-1.09762e-12
0
-1.09762e-12
0
0
1.09762e-12
-1.09762e-12
0
0
0
-1.09762e-12
0
1.09762e-12
-1.4269e-11
4.39047e-12
9.87856e-12
-3.29285e-12
4.39047e-12
-1.09762e-12
-3881.9
-3700.29
-3362.59
-2913.83
-2408.59
-1900.08
-1431.32
-1030.23
-709.066
-467.012
-294.593
-178.134
-103.346
-57.5787
-30.8356
-15.888
-7.88337
-3.77033
-1.73964
-0.775061
-0.333715
-0.138975
-0.0560231
-0.0218774
-0.00828208
-0.00304158
-0.00108433
-0.000375491
-0.000126377
-4.13629e-05
-1.31723e-05
-4.08351e-06
-1.23292e-06
-3.62704e-07
-1.04001e-07
-2.90715e-08
-7.91053e-09
-2.1184e-09
-5.58687e-10
-1.29519e-10
-2.74404e-11
1.09762e-12
-1.09762e-12
-1.64643e-11
0
1.53666e-11
0
0
1.09762e-12
-1.09762e-12
1.09762e-12
0
-1.09762e-12
-1.09762e-12
0
1.09762e-12
-1.09762e-12
0
1.09762e-12
0
-3.29285e-12
0
3.29285e-12
0
1.09762e-12
8.78094e-12
0
-9.87856e-12
0
0
9.87856e-12
3.29285e-12
-1.4269e-11
-2.19523e-12
3.29285e-12
-3881.88
-3700.28
-3362.58
-2913.83
-2408.59
-1900.08
-1431.32
-1030.24
-709.071
-467.016
-294.596
-178.137
-103.348
-57.5797
-30.8361
-15.8883
-7.88354
-3.77042
-1.73969
-0.775081
-0.333724
-0.138979
-0.0560248
-0.0218781
-0.00828235
-0.00304168
-0.00108437
-0.000375504
-0.000126382
-4.13645e-05
-1.31728e-05
-4.08368e-06
-1.23297e-06
-3.62721e-07
-1.0401e-07
-2.90715e-08
-7.91602e-09
-2.11401e-09
-5.59785e-10
-1.36105e-10
-2.41476e-11
-2.19523e-12
-5.48809e-12
1.09762e-12
1.09762e-12
1.09762e-11
-1.09762e-12
-2.19523e-12
0
-8.78094e-12
0
0
0
1.09762e-12
1.09762e-12
-2.19523e-12
1.09762e-12
-1.09762e-12
2.19523e-12
-2.19523e-12
-1.09762e-11
3.29285e-12
7.68332e-12
-8.78094e-12
-1.09762e-11
9.87856e-12
9.87856e-12
5.48809e-12
-1.09762e-12
-4.39047e-12
0
-1.09762e-12
0
0
1.09762e-12
-3881.88
-3700.27
-3362.58
-2913.82
-2408.59
-1900.08
-1431.32
-1030.24
-709.073
-467.018
-294.597
-178.137
-103.348
-57.5801
-30.8364
-15.8884
-7.88361
-3.77045
-1.7397
-0.775089
-0.333728
-0.138981
-0.0560255
-0.0218784
-0.00828246
-0.00304173
-0.00108439
-0.00037551
-0.000126384
-4.13652e-05
-1.3173e-05
-4.08372e-06
-1.23299e-06
-3.62736e-07
-1.04018e-07
-2.9077e-08
-7.93138e-09
-2.10304e-09
-5.3893e-10
-1.41593e-10
-2.74404e-11
-2.19524e-12
-6.58571e-12
0
-9.87856e-12
2.19524e-12
8.78094e-12
-1.09762e-12
-8.78094e-12
1.09762e-12
7.68332e-12
0
0
1.09762e-12
2.19524e-12
1.86595e-11
-4.39047e-12
-1.75619e-11
1.09762e-12
0
-1.09762e-11
-1.09762e-12
1.31714e-11
0
-2.19523e-12
0
1.09762e-12
-1.09762e-12
0
-2.19524e-12
-2.19523e-12
6.58571e-12
-3.29285e-12
-7.68332e-12
8.78094e-12
-3881.88
-3700.27
-3362.58
-2913.82
-2408.59
-1900.08
-1431.32
-1030.24
-709.074
-467.019
-294.598
-178.138
-103.349
-57.5802
-30.8365
-15.8885
-7.88364
-3.77047
-1.73971
-0.775093
-0.333729
-0.138982
-0.0560258
-0.0218785
-0.0082825
-0.00304174
-0.00108439
-0.000375512
-0.000126384
-4.13655e-05
-1.31731e-05
-4.08373e-06
-1.23297e-06
-3.62714e-07
-1.04038e-07
-2.91055e-08
-7.93358e-09
-2.10084e-09
-5.49906e-10
-1.30616e-10
-1.31714e-11
-5.48809e-12
-6.58571e-12
-4.39047e-12
0
4.39047e-12
-3.29285e-12
2.19524e-12
3.29285e-12
-2.19523e-12
2.19524e-12
0
1.09762e-12
0
-3.29285e-12
9.87856e-12
0
-9.87856e-12
0
0
0
0
-1.64643e-11
0
1.64643e-11
0
1.09762e-12
0
0
-1.31714e-11
0
1.20738e-11
-3.29285e-12
1.09762e-12
2.19524e-12
-3881.87
-3700.27
-3362.58
-2913.82
-2408.59
-1900.08
-1431.32
-1030.24
-709.074
-467.019
-294.598
-178.138
-103.349
-57.5803
-30.8365
-15.8885
-7.88365
-3.77047
-1.73971
-0.775094
-0.33373
-0.138982
-0.0560259
-0.0218785
-0.00828252
-0.00304175
-0.00108439
-0.000375513
-0.000126385
-4.13656e-05
-1.31731e-05
-4.08372e-06
-1.23296e-06
-3.62723e-07
-1.04031e-07
-2.90913e-08
-7.92809e-09
-2.1195e-09
-5.70761e-10
-1.40495e-10
-1.75619e-11
2.19523e-12
-2.19523e-12
-3.29285e-12
2.19523e-12
1.09762e-12
0
0
0
0
1.09762e-12
0
-1.09762e-12
1.09762e-12
0
-1.09762e-12
-7.68332e-12
-1.09762e-12
7.68332e-12
1.09762e-12
0
0
0
-1.09762e-12
-4.39047e-12
1.20738e-11
4.39047e-12
-1.09762e-11
-2.19523e-12
-1.09762e-12
2.19523e-12
0
0
-1.09762e-11
1.20738e-11
-3881.87
-3700.27
-3362.58
-2913.82
-2408.59
-1900.08
-1431.32
-1030.24
-709.074
-467.019
-294.598
-178.138
-103.349
-57.5803
-30.8365
-15.8885
-7.88365
-3.77048
-1.73972
-0.775094
-0.33373
-0.138982
-0.0560259
-0.0218786
-0.00828253
-0.00304175
-0.0010844
-0.000375514
-0.000126385
-4.13656e-05
-1.31731e-05
-4.08374e-06
-1.23296e-06
-3.62708e-07
-1.04015e-07
-2.90913e-08
-7.92919e-09
-2.12828e-09
-5.67468e-10
-1.40495e-10
-2.85381e-11
1.09762e-12
0
-1.09762e-12
0
1.09762e-12
-3.29285e-12
-1.09762e-12
4.39047e-12
0
0
5.48809e-12
0
-7.68332e-12
3.29285e-12
2.19523e-12
7.68332e-12
1.09762e-12
-1.20738e-11
0
-1.09762e-12
-1.09762e-12
-2.19524e-12
0
1.75619e-11
0
-1.4269e-11
0
1.09762e-12
-5.48809e-12
-2.19523e-12
6.58571e-12
-1.09762e-12
-1.09762e-12
2.19524e-12
-3881.87
-3700.27
-3362.58
-2913.82
-2408.59
-1900.08
-1431.32
-1030.24
-709.074
-467.019
-294.598
-178.138
-103.349
-57.5803
-30.8365
-15.8885
-7.88366
-3.77048
-1.73972
-0.775095
-0.33373
-0.138982
-0.056026
-0.0218786
-0.00828253
-0.00304175
-0.0010844
-0.000375514
-0.000126385
-4.13656e-05
-1.31731e-05
-4.08376e-06
-1.23297e-06
-3.62695e-07
-1.04006e-07
-2.9077e-08
-7.92151e-09
-2.12718e-09
-5.64175e-10
-1.50374e-10
-4.17095e-11
-2.19524e-12
-3.29285e-12
2.19523e-12
-2.19524e-12
-1.09762e-12
-3.29285e-12
-1.09762e-12
6.58571e-12
-5.48809e-12
-8.78094e-12
5.48809e-12
8.78094e-12
-1.31714e-11
6.58571e-12
1.53666e-11
-2.19524e-12
-3.29285e-12
-5.48809e-12
2.19524e-12
1.09762e-12
-3.29285e-12
4.39047e-12
4.39047e-12
-4.39047e-12
-2.19524e-12
0
0
0
0
0
0
1.09762e-12
1.09762e-12
-2.19524e-12
-3881.87
-3700.27
-3362.58
-2913.82
-2408.59
-1900.08
-1431.32
-1030.24
-709.074
-467.019
-294.598
-178.138
-103.349
-57.5803
-30.8365
-15.8885
-7.88366
-3.77048
-1.73972
-0.775095
-0.33373
-0.138982
-0.056026
-0.0218786
-0.00828253
-0.00304175
-0.0010844
-0.000375514
-0.000126385
-4.13656e-05
-1.31731e-05
-4.08375e-06
-1.23298e-06
-3.62679e-07
-1.03975e-07
-2.90858e-08
-7.94126e-09
-2.12609e-09
-5.51004e-10
-1.39397e-10
-5.92713e-11
-2.96357e-11
-4.39047e-12
0
1.75619e-11
1.09762e-12
-2.08547e-11
0
3.29285e-12
0
-2.19523e-12
-1.09762e-12
3.29285e-12
0
0
0
8.78094e-12
-2.19523e-12
-5.48809e-12
1.09762e-12
-2.19523e-12
0
2.19523e-12
-2.19523e-12
-2.19523e-12
4.39047e-12
1.09762e-12
-3.29285e-12
0
0
2.19523e-12
0
-2.19523e-12
-5.48809e-12
5.48809e-12
-3881.87
-3700.27
-3362.58
-2913.82
-2408.59
-1900.08
-1431.32
-1030.24
-709.074
-467.019
-294.598
-178.138
-103.349
-57.5803
-30.8365
-15.8885
-7.88366
-3.77048
-1.73972
-0.775095
-0.33373
-0.138982
-0.056026
-0.0218786
-0.00828253
-0.00304175
-0.0010844
-0.000375514
-0.000126385
-4.13656e-05
-1.31731e-05
-4.08375e-06
-1.23297e-06
-3.62686e-07
-1.04011e-07
-2.91022e-08
-7.95004e-09
-2.13157e-09
-5.5759e-10
-1.40495e-10
-3.7319e-11
-1.86595e-11
0
0
1.09762e-12
0
3.29285e-12
0
-4.39047e-12
0
0
0
0
0
0
2.19523e-12
0
-1.09762e-12
0
0
-2.19524e-12
0
-4.39047e-12
-1.09762e-12
5.48809e-12
1.09762e-12
0
2.19523e-12
-1.09762e-12
-6.58571e-12
0
2.19524e-12
-1.4269e-11
4.39047e-12
1.31714e-11
-3881.87
-3700.27
-3362.58
-2913.82
-2408.59
-1900.08
-1431.32
-1030.24
-709.074
-467.019
-294.598
-178.138
-103.349
-57.5803
-30.8365
-15.8885
-7.88366
-3.77048
-1.73972
-0.775095
-0.33373
-0.138982
-0.056026
-0.0218786
-0.00828253
-0.00304175
-0.0010844
-0.000375514
-0.000126385
-4.13657e-05
-1.31731e-05
-4.08375e-06
-1.23296e-06
-3.62687e-07
-1.04019e-07
-2.91132e-08
-7.96321e-09
-2.14255e-09
-5.55394e-10
-1.35007e-10
-2.52452e-11
-4.39047e-12
-6.58571e-12
-4.39047e-12
0
5.48809e-12
0
8.78094e-12
2.19524e-12
-1.20738e-11
0
-5.48809e-12
-1.09762e-12
5.48809e-12
0
2.19523e-12
0
1.09762e-12
0
-2.19524e-12
0
-5.48809e-12
-1.75619e-11
4.39047e-12
1.86595e-11
0
-1.09762e-12
1.09762e-12
0
0
0
0
0
8.78094e-12
-8.78094e-12
-3881.87
-3700.27
-3362.58
-2913.82
-2408.59
-1900.08
-1431.32
-1030.24
-709.074
-467.019
-294.598
-178.138
-103.349
-57.5803
-30.8365
-15.8885
-7.88366
-3.77048
-1.73972
-0.775095
-0.33373
-0.138982
-0.056026
-0.0218786
-0.00828253
-0.00304175
-0.0010844
-0.000375514
-0.000126385
-4.13656e-05
-1.31731e-05
-4.08377e-06
-1.23298e-06
-3.62713e-07
-1.04019e-07
-2.91132e-08
-7.95114e-09
-2.12389e-09
-5.59785e-10
-1.33909e-10
-2.96357e-11
-1.09762e-12
0
1.09762e-12
1.09762e-12
6.5857e-12
0
1.09762e-12
-2.19523e-12
-8.78094e-12
2.19523e-12
1.09762e-12
2.19523e-12
-1.09762e-12
-2.19523e-12
0
0
0
-1.09762e-12
0
1.09762e-12
-1.09762e-12
0
1.09762e-12
-3.29285e-12
0
3.29285e-12
9.87856e-12
3.29285e-12
-8.78094e-12
-2.41476e-11
-1.09762e-12
1.64643e-11
2.19523e-12
2.19523e-12
-3881.87
-3700.27
-3362.58
-2913.82
-2408.59
-1900.08
-1431.32
-1030.24
-709.074
-467.019
-294.598
-178.138
-103.349
-57.5803
-30.8365
-15.8885
-7.88366
-3.77048
-1.73972
-0.775095
-0.33373
-0.138982
-0.056026
-0.0218786
-0.00828253
-0.00304175
-0.0010844
-0.000375514
-0.000126385
-4.13656e-05
-1.31731e-05
-4.08376e-06
-1.23298e-06
-3.62714e-07
-1.04019e-07
-2.91209e-08
-7.94456e-09
-2.10852e-09
-5.54297e-10
-1.28421e-10
-2.74404e-11
-5.48809e-12
1.09762e-12
-3.29285e-12
-2.19524e-12
2.305e-11
-1.09762e-12
-1.64643e-11
0
-1.09762e-12
0
1.4269e-11
0
-1.53666e-11
0
1.20738e-11
-1.09762e-12
-9.87856e-12
0
-1.09762e-12
1.09762e-12
0
0
0
0
0
9.87856e-12
2.19523e-12
-9.87856e-12
-6.58571e-12
-1.09762e-12
5.48809e-12
0
0
0
-3881.87
-3700.27
-3362.58
-2913.82
-2408.59
-1900.08
-1431.32
-1030.24
-709.074
-467.019
-294.598
-178.138
-103.349
-57.5803
-30.8365
-15.8885
-7.88366
-3.77048
-1.73972
-0.775095
-0.33373
-0.138982
-0.056026
-0.0218786
-0.00828253
-0.00304175
-0.0010844
-0.000375514
-0.000126385
-4.13656e-05
-1.31731e-05
-4.08375e-06
-1.23298e-06
-3.62718e-07
-1.04012e-07
-2.9111e-08
-7.94236e-09
-2.09864e-09
-5.44418e-10
-1.32812e-10
-3.29285e-11
-4.39047e-12
0
0
0
9.87856e-12
0
-9.87856e-12
0
-2.19523e-12
-9.87856e-12
1.09762e-12
1.09762e-11
1.09762e-12
2.19524e-12
8.78094e-12
-1.31714e-11
-9.87856e-12
1.20738e-11
-1.09762e-12
-4.39047e-12
-3.29285e-12
4.39047e-12
3.29285e-12
0
0
1.09762e-12
-1.09762e-12
7.68332e-12
1.09762e-12
-4.39047e-12
0
-2.19524e-12
0
-2.19524e-12
-3881.87
-3700.27
-3362.58
-2913.82
-2408.59
-1900.08
-1431.32
-1030.24
-709.074
-467.019
-294.598
-178.138
-103.349
-57.5803
-30.8365
-15.8885
-7.88366
-3.77048
-1.73972
-0.775095
-0.33373
-0.138982
-0.056026
-0.0218786
-0.00828253
-0.00304175
-0.0010844
-0.000375514
-0.000126385
-4.13656e-05
-1.31731e-05
-4.08375e-06
-1.23297e-06
-3.62732e-07
-1.04008e-07
-2.90781e-08
-7.94346e-09
-2.10194e-09
-5.33442e-10
-1.52569e-10
-4.17095e-11
5.48809e-12
0
-6.5857e-12
0
5.48809e-12
-1.09762e-12
1.09762e-12
0
-5.48809e-12
-3.29285e-12
3.29285e-12
7.68332e-12
0
-2.19523e-12
0
-1.75619e-11
-9.87856e-12
5.48809e-12
5.48809e-12
1.20738e-11
4.39047e-12
-2.19523e-12
0
-7.68332e-12
0
1.4269e-11
0
-4.39047e-12
-7.68332e-12
-1.09762e-12
-1.09762e-12
0
1.64643e-11
-6.5857e-12
-3881.87
-3700.27
-3362.58
-2913.82
-2408.59
-1900.08
-1431.32
-1030.24
-709.074
-467.019
-294.598
-178.138
-103.349
-57.5803
-30.8365
-15.8885
-7.88366
-3.77048
-1.73972
-0.775095
-0.33373
-0.138982
-0.056026
-0.0218786
-0.00828253
-0.00304175
-0.0010844
-0.000375514
-0.000126385
-4.13657e-05
-1.31732e-05
-4.08377e-06
-1.23295e-06
-3.62697e-07
-1.0402e-07
-2.90902e-08
-7.94895e-09
-2.12279e-09
-5.33442e-10
-1.17445e-10
-2.08547e-11
4.39047e-12
0
-7.68332e-12
-1.09762e-12
1.09762e-12
0
0
-2.19524e-12
-2.19523e-12
4.39047e-12
1.09762e-12
-1.09762e-12
-1.09762e-12
8.78094e-12
3.29285e-12
-1.09762e-11
-9.87856e-12
1.09762e-12
-5.48809e-12
1.09762e-12
1.31714e-11
-5.48809e-12
-1.09762e-12
6.5857e-12
0
1.09762e-12
0
-1.09762e-12
-1.31714e-11
0
6.58571e-12
-4.39047e-12
6.5857e-12
4.39047e-12
-3881.87
-3700.27
-3362.58
-2913.82
-2408.59
-1900.08
-1431.32
-1030.24
-709.074
-467.019
-294.598
-178.138
-103.349
-57.5803
-30.8365
-15.8885
-7.88366
-3.77048
-1.73972
-0.775095
-0.33373
-0.138982
-0.056026
-0.0218786
-0.00828253
-0.00304175
-0.0010844
-0.000375514
-0.000126385
-4.13657e-05
-1.31732e-05
-4.08378e-06
-1.23296e-06
-3.62714e-07
-1.0403e-07
-2.90924e-08
-7.94675e-09
-2.11182e-09
-5.31247e-10
-1.21836e-10
-1.64643e-11
3.29285e-12
-4.39047e-12
0
-4.39047e-12
0
-5.48809e-12
-1.09762e-12
1.31714e-11
-2.19523e-12
-4.39047e-12
3.29285e-12
-7.68332e-12
1.09762e-12
1.53666e-11
1.09762e-12
-1.75619e-11
8.78094e-12
1.31714e-11
-8.78094e-12
2.19524e-12
0
-2.19524e-12
-1.09762e-12
1.09762e-12
-3.29285e-12
4.39047e-12
4.39047e-12
1.09762e-12
-2.19524e-12
-5.48809e-12
1.09762e-12
1.09762e-12
-1.09762e-12
0
-3881.87
-3700.27
-3362.58
-2913.82
-2408.59
-1900.08
-1431.32
-1030.24
-709.074
-467.019
-294.598
-178.138
-103.349
-57.5803
-30.8365
-15.8885
-7.88366
-3.77048
-1.73972
-0.775095
-0.33373
-0.138982
-0.056026
-0.0218786
-0.00828253
-0.00304175
-0.0010844
-0.000375514
-0.000126385
-4.13657e-05
-1.31732e-05
-4.08378e-06
-1.23298e-06
-3.62715e-07
-1.04023e-07
-2.90902e-08
-7.92809e-09
-2.11291e-09
-5.6198e-10
-1.383e-10
-1.31714e-11
7.68332e-12
-1.4269e-11
-8.78094e-12
1.53666e-11
1.09762e-12
-2.19523e-12
1.09762e-12
-9.87856e-12
0
1.4269e-11
0
-7.68332e-12
1.09762e-12
-1.09762e-11
-1.09762e-12
9.87856e-12
0
3.29285e-12
-1.09762e-12
-2.19523e-12
-1.09762e-12
-5.48809e-12
-2.19523e-12
7.68332e-12
4.39047e-12
1.31714e-11
0
-1.31714e-11
8.78094e-12
1.31714e-11
-1.09762e-11
-1.09762e-11
-1.09762e-12
1.09762e-12
-3881.87
-3700.27
-3362.58
-2913.82
-2408.59
-1900.08
-1431.32
-1030.24
-709.074
-467.019
-294.598
-178.138
-103.349
-57.5803
-30.8365
-15.8885
-7.88366
-3.77048
-1.73972
-0.775095
-0.33373
-0.138982
-0.056026
-0.0218786
-0.00828253
-0.00304175
-0.0010844
-0.000375514
-0.000126385
-4.13657e-05
-1.31732e-05
-4.08378e-06
-1.23299e-06
-3.62712e-07
-1.04031e-07
-2.91143e-08
-7.9248e-09
-2.11511e-09
-5.67468e-10
-1.22933e-10
-2.08547e-11
-4.39047e-12
9.87856e-12
-5.48809e-12
-4.39047e-12
9.87856e-12
9.87856e-12
-1.09762e-11
-1.4269e-11
0
7.68332e-12
1.4269e-11
7.68332e-12
-1.4269e-11
0
4.39047e-12
-8.78094e-12
-5.48809e-12
0
0
0
0
0
-3.29285e-12
0
4.39047e-12
0
-1.09762e-12
-8.78094e-12
-6.58571e-12
1.53666e-11
5.48809e-12
-8.78094e-12
0
3.29285e-12
-3881.87
-3700.27
-3362.58
-2913.82
-2408.59
-1900.08
-1431.32
-1030.24
-709.074
-467.019
-294.598
-178.138
-103.349
-57.5803
-30.8365
-15.8885
-7.88366
-3.77048
-1.73972
-0.775095
-0.33373
-0.138982
-0.056026
-0.0218786
-0.00828253
-0.00304175
-0.0010844
-0.000375514
-0.000126385
-4.13657e-05
-1.31732e-05
-4.08377e-06
-1.23298e-06
-3.62733e-07
-1.0405e-07
-2.91033e-08
-7.91602e-09
-2.11291e-09
-5.56492e-10
-1.29519e-10
-2.74404e-11
5.48809e-12
5.48809e-12
-6.5857e-12
-3.29285e-12
1.09762e-12
-1.09762e-12
0
0
-1.09762e-12
8.78094e-12
1.4269e-11
-8.78094e-12
-1.53666e-11
0
1.53666e-11
0
-1.31714e-11
0
-1.09762e-12
-3.29285e-12
-1.09762e-12
4.39047e-12
0
0
0
0
1.09762e-12
-1.09762e-12
-7.68332e-12
1.09762e-12
7.68332e-12
-8.78094e-12
0
7.68332e-12
-3881.87
-3700.27
-3362.58
-2913.82
-2408.59
-1900.08
-1431.32
-1030.24
-709.074
-467.019
-294.598
-178.138
-103.349
-57.5803
-30.8365
-15.8885
-7.88366
-3.77048
-1.73972
-0.775095
-0.33373
-0.138982
-0.056026
-0.0218786
-0.00828253
-0.00304175
-0.0010844
-0.000375514
-0.000126385
-4.13656e-05
-1.31732e-05
-4.08382e-06
-1.233e-06
-3.62721e-07
-1.04031e-07
-2.91077e-08
-7.91821e-09
-2.09316e-09
-5.47711e-10
-1.39397e-10
-3.29285e-11
-9.87856e-12
-5.48809e-12
9.87856e-12
0
-1.09762e-12
1.09762e-12
-1.09762e-12
0
0
1.09762e-12
0
0
-1.09762e-12
-9.87856e-12
0
4.39047e-12
0
5.48809e-12
0
-2.19523e-12
5.48809e-12
2.19523e-12
-4.39047e-12
0
-1.09762e-12
0
7.68332e-12
7.68332e-12
-6.5857e-12
-9.87856e-12
-7.68332e-12
-2.19523e-12
3.29285e-12
7.68332e-12
-3881.87
-3700.27
-3362.58
-2913.82
-2408.59
-1900.08
-1431.32
-1030.24
-709.074
-467.019
-294.598
-178.138
-103.349
-57.5803
-30.8365
-15.8885
-7.88366
-3.77048
-1.73972
-0.775095
-0.33373
-0.138982
-0.056026
-0.0218786
-0.00828253
-0.00304175
-0.0010844
-0.000375514
-0.000126385
-4.13656e-05
-1.31732e-05
-4.08381e-06
-1.23303e-06
-3.62737e-07
-1.04026e-07
-2.90902e-08
-7.91821e-09
-2.10084e-09
-5.56492e-10
-1.47081e-10
-2.63428e-11
0
0
0
1.09762e-12
-1.09762e-12
3.29285e-12
0
-2.19524e-12
0
3.29285e-12
2.19524e-12
-7.68332e-12
-2.19524e-12
3.29285e-12
-1.09762e-12