/*--------------------------------*- C++ -*----------------------------------*\
  =========                 |
  \\      /  F ield         | OpenFOAM: The Open Source CFD Toolbox
   \\    /   O peration     | Website:  https://openfoam.org
    \\  /    A nd           | Version:  10
     \\/     M anipulation  |
\*---------------------------------------------------------------------------*/
FoamFile
{
    format      ascii;
    class       volScalarField;
    location    "1400";
    object      gradTz;
}
// * * * * * * * * * * * * * * * * * * * * * * * * * * * * * * * * * * * * * //

dimensions      [0 -1 0 1 0 0 0];

internalField   nonuniform List<scalar> 
11250
(
-14329.6
-4125.39
-1505.67
-702.933
-399.281
-258.919
-182.963
-136.997
-106.915
-86.0789
-71.0113
-59.7369
-51.0621
-44.2296
-38.7397
-34.2513
-30.5255
-27.3906
-24.7209
-22.4225
-20.4242
-18.6715
-17.1217
-15.7415
-14.5042
-13.3884
-12.3769
-11.4556
-10.613
-9.83933
-9.12678
-8.46863
-7.85926
-7.29386
-6.76838
-6.27929
-5.82355
-5.39853
-5.00189
-4.63159
-4.2858
-3.9629
-3.6614
-3.37996
-3.11738
-2.87251
-2.64432
-2.43185
-2.23419
-2.05049
-1.87995
-1.72184
-1.57544
-1.44007
-1.31511
-1.19996
-1.09403
-0.996802
-0.907761
-0.826428
-0.752354
-0.685117
-0.624326
-0.569615
-0.520647
-0.477114
-0.438735
-0.405258
-0.376457
-0.352136
-0.332126
-0.316287
-0.304506
-0.296698
-0.292809
-8193.1
-4791.65
-2700.01
-1609.69
-1034.53
-712.333
-518.883
-395.09
-311.484
-252.454
-209.227
-176.598
-151.332
-131.335
-115.207
-101.982
-90.9774
-81.6995
-73.7851
-66.9619
-61.0228
-55.8081
-51.1934
-47.0802
-43.3905
-40.0614
-37.0418
-34.2903
-31.7726
-29.4604
-27.3301
-25.3619
-23.5391
-21.8475
-20.275
-18.8112
-17.4469
-16.1745
-14.9869
-13.878
-12.8424
-11.8753
-10.9722
-10.1291
-9.34249
-8.60888
-7.9252
-7.28857
-6.69629
-6.14583
-5.63481
-5.16099
-4.72224
-4.31657
-3.94206
-3.59692
-3.27945
-2.98803
-2.72115
-2.47737
-2.25534
-2.05381
-1.87159
-1.70759
-1.56081
-1.43032
-1.31527
-1.21492
-1.12858
-1.05568
-0.995696
-0.948215
-0.9129
-0.889496
-0.877836
-5457.97
-4148.05
-2892.98
-2001.24
-1416.78
-1036.95
-785.095
-612.951
-491.431
-402.983
-336.804
-286.058
-246.296
-214.539
-188.741
-167.465
-149.678
-134.623
-121.739
-110.601
-100.884
-92.3349
-84.7562
-77.9913
-71.9148
-66.4258
-61.4423
-56.8971
-52.7349
-48.9099
-45.3836
-42.1239
-39.1035
-36.2994
-33.6917
-31.2633
-28.9996
-26.8875
-24.9157
-23.0743
-21.3543
-19.7476
-18.2471
-16.8462
-15.5388
-14.3194
-13.1829
-12.1244
-11.1397
-10.2244
-9.37456
-8.58657
-7.85686
-7.18211
-6.55917
-5.98506
-5.45694
-4.97215
-4.52816
-4.12258
-3.75318
-3.41787
-3.11468
-2.84181
-2.59758
-2.38044
-2.18901
-2.02202
-1.87836
-1.75704
-1.65722
-1.57821
-1.51944
-1.4805
-1.46109
-4032.66
-3449.51
-2722.53
-2085.43
-1594.3
-1233.5
-971.518
-780.11
-638.229
-531.172
-448.88
-384.471
-333.195
-291.728
-257.704
-229.413
-205.604
-185.34
-167.916
-152.794
-139.556
-127.875
-117.494
-108.207
-99.8488
-92.2864
-85.4103
-79.1309
-73.3739
-68.0779
-63.1911
-58.6701
-54.4782
-50.5838
-46.9602
-43.5842
-40.4355
-37.4966
-34.752
-32.1879
-29.7922
-27.5538
-25.4627
-23.51
-21.6873
-19.9871
-18.4021
-16.9258
-15.552
-14.275
-13.0893
-11.9897
-10.9713
-10.0295
-9.16
-8.35858
-7.62131
-6.94448
-6.32458
-5.75828
-5.24248
-4.77425
-4.35086
-3.9698
-3.62871
-3.32547
-3.05811
-2.82488
-2.62423
-2.45478
-2.31536
-2.205
-2.12292
-2.06852
-2.04142
-3190.36
-2894.69
-2462.05
-2023.54
-1641.36
-1331.13
-1087.25
-897.631
-750.097
-634.497
-542.976
-469.66
-410.203
-361.396
-320.86
-286.817
-257.926
-233.165
-211.748
-193.066
-176.64
-162.092
-149.12
-137.483
-126.984
-117.463
-108.79
-100.856
-93.5712
-86.8607
-80.6615
-74.9204
-69.5921
-64.638
-60.0249
-55.724
-51.7105
-47.9623
-44.4603
-41.1872
-38.1278
-35.2683
-32.5963
-30.1003
-27.7699
-25.5954
-23.568
-21.6793
-19.9214
-18.2871
-16.7693
-15.3616
-14.0577
-12.8518
-11.7382
-10.7118
-9.76744
-8.90044
-8.1063
-7.38078
-6.71991
-6.11996
-5.57744
-5.08913
-4.65202
-4.2634
-3.92075
-3.62184
-3.36467
-3.14748
-2.96879
-2.82734
-2.72212
-2.65239
-2.61765
-2643.58
-2476.69
-2207.29
-1905.17
-1616.32
-1362.25
-1148.58
-972.926
-829.898
-713.611
-618.747
-540.876
-476.453
-422.694
-377.433
-338.987
-306.044
-277.58
-252.789
-231.034
-211.807
-194.702
-179.391
-165.608
-153.136
-141.796
-131.441
-121.95
-113.219
-105.163
-97.7108
-90.8002
-84.3792
-78.403
-72.8332
-67.6361
-62.7827
-58.2473
-54.0071
-50.0422
-46.3343
-42.8671
-39.626
-36.5973
-33.7687
-31.1287
-28.6664
-26.3721
-24.2362
-22.25
-20.4052
-18.6938
-17.1085
-15.642
-14.2877
-13.0392
-11.8904
-10.8356
-9.86931
-8.98647
-8.18224
-7.45208
-6.79179
-6.19742
-5.66537
-5.19229
-4.77517
-4.41127
-4.09818
-3.83377
-3.61621
-3.44398
-3.31588
-3.23098
-3.18868
-2263.5
-2160.98
-1985.06
-1773.33
-1556.3
-1352.8
-1171.71
-1015.42
-882.794
-771.146
-677.376
-598.504
-531.907
-475.373
-427.081
-385.552
-349.594
-318.244
-290.726
-266.417
-244.806
-225.483
-208.109
-192.407
-178.15
-165.147
-153.243
-142.304
-132.221
-122.9
-114.263
-106.242
-98.7791
-91.8251
-85.3369
-79.2772
-73.6134
-68.3166
-63.3612
-58.7245
-54.3861
-50.3272
-46.5313
-42.9826
-39.6672
-36.5716
-33.6837
-30.9919
-28.4854
-26.154
-23.988
-21.9784
-20.1163
-18.3936
-16.8025
-15.3354
-13.9853
-12.7456
-11.6097
-10.5719
-9.62633
-8.76781
-7.99136
-7.2924
-6.66666
-6.11027
-5.61965
-5.19162
-4.82333
-4.51229
-4.25636
-4.05376
-3.90305
-3.80318
-3.75342
-1985.7
-1918.45
-1798.41
-1646.56
-1482.53
-1320.72
-1169.84
-1034.06
-914.514
-810.62
-720.93
-643.692
-577.144
-519.667
-469.834
-426.429
-388.429
-354.98
-325.376
-299.031
-275.463
-254.271
-235.123
-217.743
-201.902
-187.406
-174.093
-161.828
-150.496
-139.999
-130.252
-121.186
-112.738
-104.856
-97.4925
-90.6081
-84.1671
-78.1383
-72.4936
-67.2083
-62.2597
-57.6274
-53.2928
-49.2388
-45.4495
-41.9101
-38.607
-35.5271
-32.6585
-29.9895
-27.5093
-25.2075
-23.0744
-21.1005
-19.277
-17.5954
-16.0478
-14.6263
-13.3239
-12.1337
-11.0492
-10.0644
-9.17373
-8.37185
-7.65393
-7.01551
-6.45254
-5.96137
-5.53872
-5.18176
-4.88804
-4.65551
-4.48254
-4.36791
-4.3108
-1774.89
-1728.44
-1643.31
-1531.71
-1406.28
-1277.46
-1152.64
-1036.22
-930.361
-835.675
-751.831
-677.999
-613.135
-556.151
-506.009
-461.766
-422.591
-387.765
-356.672
-328.791
-303.68
-280.966
-260.334
-241.521
-224.301
-208.485
-193.914
-180.45
-167.977
-156.397
-145.623
-135.582
-126.21
-117.453
-109.262
-101.594
-94.4122
-87.6836
-81.3783
-75.4697
-69.9337
-64.7482
-59.8931
-55.3498
-51.1011
-47.131
-43.4244
-39.9671
-36.7457
-33.7477
-30.9609
-28.374
-25.9761
-23.7567
-21.706
-19.8145
-18.0733
-16.474
-15.0083
-13.6687
-12.448
-11.3394
-10.3366
-9.43367
-8.62525
-7.9063
-7.27228
-6.71907
-6.24302
-5.84094
-5.51008
-5.24814
-5.05329
-4.92416
-4.85982
-1610.23
-1576.8
-1514.39
-1430.42
-1333.11
-1229.94
-1126.75
-1027.55
-934.786
-849.65
-772.493
-703.125
-641.046
-585.609
-536.115
-491.88
-452.266
-416.694
-384.653
-355.694
-329.429
-305.523
-283.689
-263.68
-245.286
-228.327
-212.647
-198.113
-184.612
-172.046
-160.329
-149.387
-139.156
-129.581
-120.611
-112.204
-104.321
-96.9273
-89.9922
-83.4878
-77.3888
-71.672
-66.316
-61.3011
-56.6089
-52.2223
-48.125
-44.3017
-40.7381
-37.4205
-34.3357
-31.4712
-28.8154
-26.3567
-24.0844
-21.9881
-20.058
-18.2848
-16.6596
-15.174
-13.82
-12.5902
-11.4777
-10.4759
-9.57885
-8.78101
-8.07736
-7.46336
-6.93498
-6.48867
-6.12139
-5.83062
-5.61431
-5.47096
-5.39953
-1478.68
-1453.79
-1406.71
-1342.12
-1265.49
-1182.14
-1096.56
-1012.17
-931.301
-855.377
-785.112
-720.722
-662.094
-608.917
-560.772
-517.203
-477.745
-441.959
-409.435
-379.804
-352.738
-327.946
-305.173
-284.198
-264.828
-246.895
-230.255
-214.781
-200.364
-186.91
-174.336
-162.568
-151.545
-141.21
-131.515
-122.414
-113.87
-105.848
-98.3154
-91.2443
-84.6083
-78.3834
-72.5475
-67.0798
-61.9611
-57.1731
-52.6989
-48.5222
-44.6276
-41.0004
-37.6267
-34.493
-31.5867
-28.8955
-26.4077
-24.1121
-21.9981
-20.0555
-18.2748
-16.6468
-15.1628
-13.8147
-12.5951
-11.4967
-10.513
-9.63811
-8.8664
-8.19297
-7.6134
-7.12383
-6.72094
-6.40195
-6.16466
-6.00739
-5.92903
-1371.65
-1352.59
-1316.2
-1265.5
-1204.24
-1136.22
-1064.85
-992.941
-922.564
-855.151
-791.578
-732.297
-677.448
-626.965
-580.648
-538.225
-499.385
-463.812
-431.195
-401.243
-373.686
-348.282
-324.812
-303.082
-282.921
-264.178
-246.721
-230.432
-215.21
-200.965
-187.619
-175.102
-163.354
-152.319
-141.95
-132.203
-123.041
-114.427
-106.331
-98.7235
-91.5777
-84.8692
-78.5753
-72.6746
-67.1471
-61.9741
-57.1375
-52.6204
-48.4067
-44.4807
-40.8279
-37.4338
-34.2851
-31.3685
-28.6717
-26.1827
-23.8901
-21.783
-19.8511
-18.0845
-16.474
-15.0108
-13.6868
-12.4943
-11.4263
-10.4762
-9.63811
-8.9067
-8.2772
-7.74541
-7.30776
-6.96124
-6.70345
-6.53259
-6.44746
-1283.28
-1268.33
-1239.58
-1199.06
-1149.37
-1093.27
-1033.34
-971.827
-910.527
-850.764
-793.45
-739.153
-688.169
-640.599
-596.405
-555.458
-517.576
-482.548
-450.151
-420.168
-392.386
-366.61
-342.658
-320.366
-299.586
-280.184
-262.044
-245.06
-229.139
-214.199
-200.165
-186.974
-174.566
-162.891
-151.902
-141.557
-131.818
-122.652
-114.026
-105.913
-98.2852
-91.1182
-84.389
-78.0759
-72.1582
-66.6168
-61.4331
-56.5894
-52.069
-47.8557
-43.9339
-40.2887
-36.9059
-33.7717
-30.8728
-28.1966
-25.731
-23.4645
-21.3859
-19.4849
-17.7516
-16.1766
-14.7512
-13.4672
-12.3171
-11.2939
-10.3913
-9.60346
-8.92535
-8.35247
-7.88097
-7.50763
-7.22988
-7.04579
-6.95407
-1209.42
-1197.45
-1174.3
-1141.38
-1100.51
-1053.73
-1003.01
-950.127
-896.591
-843.583
-791.979
-742.387
-695.189
-650.592
-608.67
-569.406
-532.715
-498.476
-466.544
-436.764
-408.978
-383.034
-358.787
-336.103
-314.858
-294.938
-276.24
-258.674
-242.154
-226.608
-211.968
-198.174
-185.173
-172.916
-161.359
-150.463
-140.191
-130.51
-121.39
-112.803
-104.721
-97.1216
-89.9803
-83.2757
-76.987
-71.0945
-65.5793
-60.4234
-55.6092
-51.1202
-46.9401
-43.0535
-39.4454
-36.1014
-33.0076
-30.1507
-27.5181
-25.0974
-22.877
-20.846
-18.9937
-17.3104
-15.7867
-14.414
-13.1843
-12.0902
-11.1249
-10.2823
-9.55694
-8.94413
-8.43975
-8.04035
-7.74321
-7.54626
-7.44813
-1147.05
-1137.3
-1118.34
-1091.17
-1057.13
-1017.7
-974.414
-928.678
-881.739
-834.626
-788.144
-742.896
-699.299
-657.623
-618.017
-580.541
-545.19
-511.911
-480.624
-451.229
-423.616
-397.675
-373.293
-350.366
-328.792
-308.477
-289.337
-271.291
-254.267
-238.2
-223.03
-208.704
-195.172
-182.39
-170.317
-158.916
-148.153
-137.996
-128.416
-119.386
-110.879
-102.873
-95.3426
-88.2679
-81.6275
-75.4016
-69.571
-64.1173
-59.0226
-54.2699
-49.8426
-45.7245
-41.9001
-38.3545
-35.0733
-32.0425
-29.2489
-26.6796
-24.3224
-22.1658
-20.1987
-18.4106
-16.7919
-15.3335
-14.0267
-12.8639
-11.8379
-10.9422
-10.1711
-9.51964
-8.98338
-8.55872
-8.24278
-8.03336
-7.92901
-1093.95
-1085.87
-1070.1
-1047.37
-1018.65
-985.079
-947.819
-908.001
-866.648
-824.641
-782.703
-741.401
-701.16
-662.279
-624.954
-589.299
-555.365
-523.155
-492.64
-463.766
-436.466
-410.664
-386.28
-363.235
-341.451
-320.853
-301.371
-282.94
-265.498
-248.989
-233.362
-218.569
-204.567
-191.314
-178.775
-166.915
-155.701
-145.106
-135.1
-125.658
-116.754
-108.366
-100.471
-93.0479
-86.0753
-79.5338
-73.404
-67.6673
-62.3057
-57.3016
-52.6381
-48.2986
-44.2673
-40.5286
-37.0676
-33.8698
-30.9215
-28.2093
-25.7205
-23.4429
-21.3651
-19.4761
-17.7657
-16.2244
-14.8433
-13.6141
-12.5294
-11.5825
-10.7672
-10.0783
-9.51121
-9.06212
-8.72798
-8.50649
-8.39613
-1048.39
-1041.6
-1028.3
-1009.04
-984.533
-955.654
-923.309
-888.401
-851.771
-814.167
-776.227
-738.472
-701.312
-665.055
-629.924
-596.067
-563.575
-532.493
-502.832
-474.576
-447.693
-422.138
-397.859
-374.802
-352.909
-332.123
-312.39
-293.658
-275.876
-258.998
-242.981
-227.782
-213.365
-199.694
-186.736
-174.46
-162.836
-151.838
-141.44
-131.616
-122.344
-113.6
-105.363
-97.6127
-90.3274
-83.4881
-77.0753
-71.0706
-65.4555
-60.2125
-55.3242
-50.7737
-46.5448
-42.6215
-38.9885
-35.6308
-32.5343
-29.685
-27.0697
-24.676
-22.4917
-20.5056
-18.707
-17.086
-15.6332
-14.3401
-13.1989
-12.2025
-11.3445
-10.6195
-10.0227
-9.55001
-9.19831
-8.96517
-8.849
-1009.07
-1003.28
-991.927
-975.4
-954.262
-929.177
-900.861
-870.039
-837.403
-803.587
-769.147
-734.553
-700.191
-666.364
-633.306
-601.186
-570.121
-540.187
-511.425
-483.85
-457.459
-432.233
-408.145
-385.161
-363.243
-342.351
-322.446
-303.487
-285.435
-268.253
-251.906
-236.359
-221.58
-207.539
-194.207
-181.556
-169.561
-158.196
-147.437
-137.262
-127.648
-118.573
-110.018
-101.961
-94.3821
-87.2627
-80.5832
-74.3252
-68.4703
-63.0008
-57.899
-53.1479
-48.7309
-44.6317
-40.8345
-37.3242
-34.0858
-31.1053
-28.3691
-25.8639
-23.5776
-21.4984
-19.6151
-17.9174
-16.3958
-15.0412
-13.8456
-12.8016
-11.9026
-11.1428
-10.5173
-10.0219
-9.65332
-9.40896
-9.2872
-974.952
-969.962
-960.144
-945.808
-927.383
-905.387
-880.392
-852.981
-823.728
-793.166
-761.78
-729.988
-698.146
-666.546
-635.421
-604.951
-575.27
-546.474
-518.628
-491.77
-465.92
-441.082
-417.25
-394.407
-372.533
-351.605
-331.594
-312.473
-294.213
-276.786
-260.164
-244.321
-229.229
-214.863
-201.199
-188.213
-175.882
-164.183
-153.095
-142.597
-132.667
-123.287
-114.435
-106.092
-98.239
-90.8569
-83.9268
-77.4303
-71.3491
-65.6654
-60.3615
-55.4202
-50.8246
-46.5581
-42.6047
-38.9488
-35.5753
-32.4696
-29.6176
-27.0061
-24.6221
-22.4536
-20.4892
-18.7181
-17.1304
-15.7169
-14.4691
-13.3794
-12.441
-11.6478
-10.9948
-10.4775
-10.0927
-9.83752
-9.71038
-945.212
-940.859
-932.278
-919.71
-903.49
-884.03
-861.785
-837.233
-810.848
-783.083
-754.355
-725.037
-695.452
-665.877
-636.536
-607.614
-579.254
-551.566
-524.63
-498.503
-473.224
-448.814
-425.284
-402.635
-380.862
-359.952
-339.892
-320.664
-302.251
-284.631
-267.784
-251.691
-236.331
-221.682
-207.725
-194.44
-181.807
-169.807
-158.419
-147.625
-137.406
-127.743
-118.616
-110.008
-101.899
-94.2712
-87.1062
-80.3857
-74.0915
-68.2059
-62.7112
-57.59
-52.8252
-48.4001
-44.2984
-40.5042
-37.002
-33.777
-30.8149
-28.1018
-25.6246
-23.3709
-21.3289
-19.4876
-17.8367
-16.3667
-15.069
-13.9355
-12.9593
-12.1341
-11.4547
-10.9165
-10.516
-10.2506
-10.1183
-919.185
-915.348
-907.77
-896.642
-882.231
-864.863
-844.91
-822.762
-798.815
-773.453
-747.037
-719.897
-692.326
-664.579
-636.873
-609.389
-582.274
-555.647
-529.599
-504.201
-479.505
-455.548
-432.354
-409.938
-388.307
-367.463
-347.4
-328.113
-309.592
-291.824
-274.797
-258.497
-242.908
-228.014
-213.801
-200.251
-187.349
-175.076
-163.417
-152.353
-141.868
-131.945
-122.565
-113.71
-105.364
-97.5069
-90.1224
-83.1921
-76.6981
-70.6227
-64.9482
-59.6572
-54.7326
-50.1575
-45.9153
-41.99
-38.3657
-35.0275
-31.9605
-29.1507
-26.5848
-24.2498
-22.1339
-20.2256
-18.5144
-16.9905
-15.645
-14.4696
-13.4573
-12.6015
-11.8969
-11.3387
-10.9233
-10.6479
-10.5106
-896.332
-892.914
-886.158
-876.212
-863.293
-847.664
-829.628
-809.51
-787.64
-764.346
-739.941
-714.715
-688.934
-662.832
-636.614
-610.455
-584.503
-558.881
-533.688
-509.003
-484.89
-461.397
-438.559
-416.403
-394.948
-374.204
-354.177
-334.87
-316.28
-298.404
-281.235
-264.765
-248.984
-233.88
-219.444
-205.661
-192.518
-180.001
-168.096
-156.788
-146.061
-135.898
-126.285
-117.203
-108.636
-100.566
-92.9774
-85.8511
-79.17
-72.9166
-67.0732
-61.6225
-56.5473
-51.8306
-47.4557
-43.4063
-39.6665
-36.2208
-33.0544
-30.1528
-27.5025
-25.0904
-22.9041
-20.932
-19.1633
-17.5881
-16.197
-14.9817
-13.9349
-13.0499
-12.3211
-11.7438
-11.3142
-11.0293
-10.8873
-876.205
-873.133
-867.053
-858.086
-846.406
-832.23
-815.807
-797.408
-777.312
-755.799
-733.142
-709.598
-685.404
-660.776
-635.905
-610.96
-586.087
-561.407
-537.027
-513.031
-489.49
-466.462
-443.991
-422.114
-400.857
-380.241
-360.28
-340.985
-322.361
-304.41
-287.132
-270.525
-254.584
-239.302
-224.672
-210.684
-197.329
-184.594
-172.468
-160.938
-149.99
-139.61
-129.782
-120.49
-111.719
-103.453
-95.6736
-88.3648
-81.5091
-75.0891
-69.0874
-63.4869
-58.2701
-53.4201
-48.9201
-44.7536
-40.9045
-37.3573
-34.0967
-31.1083
-28.378
-25.8926
-23.6395
-21.6068
-19.7835
-18.1593
-16.7249
-15.4717
-14.392
-13.4792
-12.7275
-12.1319
-11.6887
-11.3948
-11.2484
-858.434
-855.649
-850.131
-841.978
-831.334
-818.377
-803.317
-786.379
-767.802
-747.827
-726.691
-704.622
-681.833
-658.522
-634.867
-611.029
-587.148
-563.348
-539.733
-516.394
-493.408
-470.838
-448.736
-427.147
-406.104
-385.636
-365.765
-346.508
-327.877
-309.88
-292.522
-275.807
-259.734
-244.302
-229.505
-215.339
-201.796
-188.867
-176.544
-164.814
-153.665
-143.086
-133.061
-123.577
-114.619
-106.17
-98.2145
-90.736
-83.7176
-77.1422
-70.9926
-65.2516
-59.9021
-54.9269
-50.3092
-46.0325
-42.0805
-38.4374
-35.0879
-32.0173
-29.2114
-26.6566
-24.3402
-22.2501
-20.375
-18.7044
-17.2289
-15.9396
-14.8287
-13.8895
-13.1159
-12.503
-12.0468
-11.7444
-11.5937
-842.71
-840.164
-835.115
-827.643
-817.869
-805.943
-792.037
-776.346
-759.073
-740.426
-720.615
-699.839
-678.293
-656.157
-633.597
-610.763
-587.792
-564.804
-541.906
-519.189
-496.734
-474.609
-452.873
-431.574
-410.755
-390.45
-370.686
-351.487
-332.871
-314.851
-297.439
-280.641
-264.461
-248.903
-233.964
-219.643
-205.935
-192.835
-180.334
-168.424
-157.095
-146.335
-136.131
-126.47
-117.339
-108.722
-100.604
-92.9679
-85.7984
-79.0783
-72.7908
-66.9186
-61.4449
-56.3524
-51.6243
-47.244
-43.1952
-39.4619
-36.0286
-32.8805
-30.0031
-27.3828
-25.0066
-22.8621
-20.938
-19.2235
-17.709
-16.3855
-15.2451
-14.2807
-13.4864
-12.8571
-12.3887
-12.0781
-11.9233
-828.77
-826.425
-821.769
-814.872
-805.833
-794.778
-781.856
-767.231
-751.08
-733.584
-714.926
-695.286
-674.838
-653.748
-632.169
-610.245
-588.104
-565.865
-543.632
-521.499
-499.548
-477.851
-456.471
-435.462
-414.87
-394.736
-375.092
-355.967
-337.384
-319.361
-301.914
-285.055
-268.791
-253.128
-238.069
-223.615
-209.763
-196.511
-183.853
-171.781
-160.289
-149.364
-138.997
-129.176
-119.886
-111.114
-102.846
-95.0645
-87.7549
-80.9004
-74.4845
-68.4901
-62.9003
-57.6981
-52.8667
-48.3894
-44.2497
-40.4316
-36.9196
-33.6985
-30.7539
-28.0718
-25.6391
-23.4433
-21.4728
-19.7169
-18.1655
-16.8097
-15.6413
-14.6532
-13.8393
-13.1944
-12.7143
-12.396
-12.2374
-816.393
-814.216
-809.893
-803.481
-795.065
-784.752
-772.67
-758.96
-743.776
-727.278
-709.626
-690.983
-671.506
-651.346
-630.647
-609.542
-588.156
-566.603
-544.985
-523.397
-501.921
-480.632
-459.596
-438.87
-418.506
-398.547
-379.031
-359.992
-341.455
-323.446
-305.982
-289.079
-272.749
-257.001
-241.841
-227.272
-213.295
-199.91
-187.112
-174.896
-163.257
-152.184
-141.669
-131.701
-122.266
-113.352
-104.945
-97.0297
-89.5906
-82.6117
-76.0765
-69.9684
-64.2706
-58.9661
-54.0381
-49.47
-45.2452
-41.3477
-37.7617
-34.4721
-31.4642
-28.724
-26.2382
-23.9941
-21.98
-20.1849
-18.5988
-17.2124
-16.0176
-15.0071
-14.1746
-13.515
-13.024
-12.6984
-12.5361
-805.387
-803.353
-799.312
-793.312
-785.427
-775.748
-764.385
-751.463
-737.115
-721.482
-704.709
-686.941
-668.321
-648.988
-629.075
-608.709
-588.008
-567.081
-546.03
-524.947
-503.916
-483.012
-462.305
-441.854
-421.713
-401.931
-382.548
-363.602
-345.123
-327.139
-309.672
-292.741
-276.362
-260.545
-245.301
-230.634
-216.549
-203.046
-190.125
-177.781
-166.009
-154.803
-144.154
-134.052
-124.485
-115.441
-106.907
-98.8683
-91.3096
-84.2156
-77.57
-71.3564
-65.5581
-60.1584
-55.1404
-50.4875
-46.1832
-42.2114
-38.5562
-35.2024
-32.1352
-29.3404
-26.8046
-24.5151
-22.46
-20.628
-19.0092
-17.594
-16.3743
-15.3427
-14.4927
-13.8192
-13.3179
-12.9854
-12.8197
-795.59
-793.678
-789.877
-784.228
-776.796
-767.66
-756.916
-744.673
-731.049
-716.169
-700.164
-683.164
-665.301
-646.702
-627.492
-607.79
-587.708
-567.351
-546.819
-526.203
-505.586
-485.045
-464.649
-444.461
-424.538
-404.93
-385.683
-366.835
-348.422
-330.473
-313.014
-296.068
-279.653
-263.782
-248.468
-233.719
-219.541
-205.936
-192.905
-180.447
-168.558
-157.231
-146.461
-136.237
-126.55
-117.388
-108.737
-100.585
-92.9162
-85.7159
-78.9682
-72.6569
-66.7655
-61.2773
-56.1756
-51.4438
-47.0653
-43.0241
-39.3043
-35.8904
-32.7676
-29.9217
-27.3392
-25.007
-22.9133
-21.0468
-19.3971
-17.955
-16.7119
-15.6603
-14.794
-14.1074
-13.5963
-13.2573
-13.0884
-786.86
-785.052
-781.456
-776.108
-769.065
-760.395
-750.184
-738.528
-725.532
-711.308
-695.975
-679.651
-662.456
-644.509
-625.926
-606.819
-587.295
-567.457
-547.4
-527.213
-506.979
-486.776
-466.674
-446.737
-427.024
-407.587
-388.474
-369.727
-351.384
-333.478
-316.037
-299.086
-282.646
-266.734
-251.363
-236.544
-222.286
-208.592
-195.466
-182.907
-170.912
-159.478
-148.599
-138.265
-128.468
-119.198
-110.441
-102.185
-94.4147
-87.1167
-80.2748
-73.8732
-67.8955
-62.3253
-57.1459
-52.3407
-47.8933
-43.7874
-40.0072
-36.5373
-33.3626
-30.469
-27.8426
-25.4706
-23.3407
-21.4418
-19.7633
-18.2957
-17.0306
-15.9604
-15.0786
-14.3798
-13.8595
-13.5145
-13.3425
-779.075
-777.357
-773.936
-768.847
-762.137
-753.869
-744.118
-732.971
-720.521
-706.87
-692.124
-676.394
-659.789
-642.421
-624.397
-605.824
-586.803
-567.434
-547.809
-528.016
-508.137
-488.248
-468.421
-448.721
-429.208
-409.936
-390.956
-372.311
-354.042
-336.184
-318.767
-301.82
-285.365
-269.421
-254.004
-239.128
-224.801
-211.031
-197.821
-185.172
-173.084
-161.553
-150.575
-140.143
-130.247
-120.878
-112.024
-103.672
-95.8099
-88.4219
-81.4934
-75.0085
-68.9512
-63.3051
-58.0536
-53.1804
-48.6689
-44.5029
-40.6666
-37.1444
-33.9214
-30.9831
-28.3158
-25.9065
-23.7429
-21.8136
-20.1081
-18.6169
-17.3312
-16.2435
-15.3472
-14.6368
-14.1079
-13.7572
-13.5824
-772.129
-770.487
-767.217
-762.35
-755.928
-748.008
-738.655
-727.949
-715.974
-702.823
-688.593
-673.385
-657.302
-640.446
-622.92
-604.825
-586.258
-567.313
-548.081
-528.647
-509.094
-489.496
-469.925
-450.448
-431.124
-412.011
-393.16
-374.616
-356.422
-338.616
-321.229
-304.292
-287.83
-271.864
-256.411
-241.487
-227.102
-213.265
-199.982
-187.254
-175.083
-163.467
-152.4
-141.878
-131.893
-122.434
-113.492
-105.054
-97.1063
-89.6359
-82.6277
-76.0662
-69.9354
-64.2192
-58.9012
-53.965
-49.3941
-45.1723
-41.2839
-37.7131
-34.4451
-31.4653
-28.7599
-26.3158
-24.1207
-22.1631
-20.4324
-18.9189
-17.6139
-16.5099
-15.6
-14.8789
-14.342
-13.9859
-13.8085
-765.927
-764.351
-761.212
-756.537
-750.364
-742.743
-733.737
-723.414
-711.853
-699.139
-685.362
-670.614
-654.991
-638.59
-621.508
-603.84
-585.679
-567.117
-548.242
-529.136
-509.881
-490.551
-471.219
-451.949
-432.805
-413.843
-395.115
-376.671
-358.552
-340.799
-323.447
-306.525
-290.062
-274.081
-258.6
-243.636
-229.203
-215.309
-201.962
-189.165
-176.921
-165.228
-154.082
-143.48
-133.413
-123.873
-114.851
-106.333
-98.3087
-90.763
-83.6817
-77.0498
-70.8514
-65.0707
-59.6912
-54.6967
-50.0709
-45.7975
-41.8607
-38.2449
-34.935
-31.9166
-29.1758
-26.6993
-24.4749
-22.4909
-20.7366
-19.2024
-17.8795
-16.7602
-15.8377
-15.1065
-14.5621
-14.201
-14.0211
-760.389
-758.87
-755.843
-751.334
-745.376
-738.016
-729.31
-719.321
-708.122
-695.791
-682.41
-668.067
-652.851
-636.854
-620.166
-602.88
-585.084
-566.867
-548.314
-529.507
-510.525
-491.442
-472.329
-453.253
-434.277
-415.457
-396.849
-378.5
-360.456
-342.758
-325.441
-308.54
-292.081
-276.09
-260.588
-245.593
-231.119
-217.176
-203.774
-190.916
-178.607
-166.845
-155.629
-144.955
-134.815
-125.202
-116.107
-107.517
-99.422
-91.8074
-84.6593
-77.9628
-71.7023
-65.8622
-60.4262
-55.378
-50.7014
-46.3802
-42.3987
-38.7411
-35.3925
-32.3383
-29.5646
-27.0581
-24.8063
-22.7978
-21.0216
-19.4681
-18.1285
-16.9949
-16.0607
-15.3201
-14.7687
-14.403
-14.2207
-755.441
-753.972
-751.043
-746.677
-740.906
-733.773
-725.328
-715.63
-704.747
-692.751
-679.719
-665.732
-650.876
-635.236
-618.9
-601.955
-584.486
-566.58
-548.318
-529.782
-511.048
-492.191
-473.281
-454.385
-435.565
-416.879
-398.383
-380.127
-362.155
-344.512
-327.233
-310.354
-293.904
-277.909
-262.391
-247.371
-232.862
-218.878
-205.428
-192.518
-180.151
-168.329
-157.05
-146.311
-136.105
-126.427
-117.265
-108.61
-100.451
-92.7735
-85.5643
-78.8087
-72.4914
-66.5967
-61.1086
-56.011
-51.2877
-46.9225
-42.8996
-39.2035
-35.819
-32.7316
-29.9274
-27.393
-25.1159
-23.0846
-21.2881
-19.7167
-18.3615
-17.2147
-16.2695
-15.5202
-14.9622
-14.5922
-14.4078
-751.021
-749.594
-746.75
-742.509
-736.9
-729.964
-721.747
-712.304
-701.697
-689.994
-677.269
-663.597
-649.058
-633.736
-617.712
-601.07
-583.895
-566.267
-548.269
-529.978
-511.47
-492.82
-474.096
-455.365
-436.69
-418.131
-399.741
-381.572
-363.671
-346.081
-328.841
-311.987
-295.548
-279.553
-264.025
-248.984
-234.448
-220.429
-206.937
-193.981
-181.564
-169.688
-158.353
-147.556
-137.291
-127.553
-118.332
-109.618
-101.4
-93.6656
-86.4007
-79.5911
-73.2217
-67.277
-61.7412
-56.5982
-51.8318
-47.4261
-43.3651
-39.6334
-36.2158
-33.0978
-30.2653
-27.7051
-25.4046
-23.3521
-21.5368
-19.9488
-18.5791
-17.42
-16.4647
-15.7073
-15.1433
-14.7692
-14.5828
-747.072
-745.682
-742.911
-738.778
-733.312
-726.547
-718.528
-709.308
-698.943
-687.498
-675.042
-661.647
-647.39
-632.348
-616.602
-600.231
-583.318
-565.941
-548.179
-530.11
-511.808
-493.345
-474.792
-456.214
-437.674
-419.231
-400.941
-382.855
-365.022
-347.484
-330.283
-313.454
-297.029
-281.037
-265.502
-250.446
-235.887
-221.838
-208.311
-195.315
-182.853
-170.93
-159.545
-148.697
-138.379
-128.587
-119.312
-110.545
-102.274
-94.4879
-87.1723
-80.3134
-73.8965
-67.9061
-62.3266
-57.1419
-52.336
-47.893
-43.7969
-40.0324
-36.5843
-33.438
-30.5795
-27.9954
-25.6733
-23.6012
-21.7685
-20.1651
-18.7821
-17.6116
-16.6468
-15.8819
-15.3123
-14.9345
-14.7462
-743.544
-742.186
-739.479
-735.441
-730.097
-723.482
-715.637
-706.611
-696.458
-685.24
-673.021
-659.87
-645.861
-631.068
-615.569
-599.44
-582.761
-565.608
-548.06
-530.191
-512.075
-493.783
-475.386
-456.947
-438.531
-420.197
-402
-383.993
-366.223
-348.737
-331.574
-314.771
-298.361
-282.375
-266.837
-251.769
-237.191
-223.118
-209.56
-196.529
-184.029
-172.064
-160.635
-149.74
-139.376
-129.536
-120.212
-111.397
-103.078
-95.2446
-87.8829
-80.9792
-74.5189
-68.4868
-62.8673
-57.6444
-52.8023
-48.325
-44.1968
-40.4022
-36.926
-33.7536
-30.8711
-28.2651
-25.9229
-23.8328
-21.984
-20.3663
-18.971
-17.79
-16.8164
-16.0446
-15.4698
-15.0885
-14.8985
-740.392
-739.062
-736.411
-732.455
-727.219
-720.735
-713.041
-704.186
-694.219
-683.199
-671.189
-658.254
-644.464
-629.892
-614.612
-598.698
-582.228
-565.276
-547.919
-530.231
-512.283
-494.147
-475.891
-457.581
-439.279
-421.045
-402.935
-385.001
-367.292
-349.854
-332.728
-315.951
-299.559
-283.579
-268.04
-252.965
-238.372
-224.277
-210.695
-197.633
-185.1
-173.098
-161.63
-150.694
-140.287
-130.404
-121.037
-112.178
-103.816
-95.9397
-88.5362
-81.5918
-75.092
-69.0219
-63.3658
-58.1081
-53.2329
-48.7242
-44.5665
-40.7442
-37.2422
-34.0459
-31.1413
-28.515
-26.1544
-24.0477
-22.184
-20.5533
-19.1465
-17.9558
-16.9742
-16.1959
-15.6163
-15.2319
-15.0402
-737.576
-736.271
-733.669
-729.785
-724.643
-718.273
-710.712
-702.006
-692.202
-681.357
-669.531
-656.786
-643.19
-628.813
-613.727
-598.006
-581.722
-564.95
-547.765
-530.239
-512.443
-494.448
-476.321
-458.128
-439.931
-421.789
-403.759
-385.893
-368.242
-350.85
-333.759
-317.009
-300.633
-284.663
-269.125
-254.044
-239.439
-225.328
-211.723
-198.635
-186.072
-174.039
-162.536
-151.563
-141.119
-131.197
-121.791
-112.893
-104.492
-96.5772
-89.1358
-82.1545
-75.6188
-69.514
-63.8247
-58.5352
-53.6297
-49.0924
-44.9076
-41.0599
-37.5343
-34.316
-31.3911
-28.7463
-26.3687
-24.2468
-22.3694
-20.7265
-19.3093
-18.1096
-17.1206
-16.3364
-15.7524
-15.365
-15.1719
-735.063
-733.779
-731.219
-727.398
-722.338
-716.068
-708.624
-700.048
-690.388
-679.696
-668.031
-655.454
-642.03
-627.826
-612.913
-597.362
-581.244
-564.634
-547.602
-530.222
-512.563
-494.695
-476.686
-458.599
-440.497
-422.441
-404.485
-386.683
-369.084
-351.736
-334.68
-317.955
-301.597
-285.636
-270.101
-255.017
-240.403
-226.277
-212.654
-199.544
-186.955
-174.893
-163.36
-152.355
-141.877
-131.921
-122.48
-113.547
-105.111
-97.1609
-89.6853
-82.6704
-76.1023
-69.966
-64.2464
-58.9279
-53.9948
-49.4313
-45.2219
-41.351
-37.8037
-34.5653
-31.6218
-28.9599
-26.5668
-24.4308
-22.5408
-20.8869
-19.46
-18.2521
-17.2562
-16.4666
-15.8785
-15.4884
-15.294
-732.819
-731.554
-729.031
-725.265
-720.276
-714.094
-706.752
-698.291
-688.757
-678.2
-666.678
-654.249
-640.976
-626.926
-612.165
-596.765
-580.796
-564.329
-547.436
-530.186
-512.651
-494.898
-476.995
-459.005
-440.99
-423.011
-405.123
-387.38
-369.832
-352.524
-335.501
-318.801
-302.459
-286.509
-270.979
-255.892
-241.271
-227.134
-213.495
-200.366
-187.756
-175.669
-164.108
-153.075
-142.567
-132.58
-123.108
-114.143
-105.675
-97.6944
-90.1879
-83.1428
-76.5451
-70.3803
-64.6332
-59.2884
-54.3301
-49.7428
-45.5108
-41.6188
-38.0517
-34.7949
-31.8344
-29.1569
-26.7496
-24.6007
-22.6992
-21.0351
-19.5993
-18.3838
-17.3817
-16.5871
-15.9952
-15.6027
-15.407
-730.817
-729.568
-727.078
-723.36
-718.434
-712.328
-705.076
-696.715
-687.292
-676.854
-665.457
-653.159
-640.02
-626.105
-611.481
-596.215
-580.378
-564.039
-547.269
-530.137
-512.713
-495.063
-477.256
-459.353
-441.418
-423.51
-405.685
-387.996
-370.494
-353.225
-336.232
-319.555
-303.231
-287.292
-271.766
-256.679
-242.054
-227.907
-214.255
-201.11
-188.48
-176.371
-164.787
-153.729
-143.195
-133.18
-123.68
-114.687
-106.191
-98.1813
-90.6469
-83.5745
-76.9502
-70.7595
-64.9875
-59.6187
-54.6376
-50.0286
-45.7761
-41.8648
-38.2797
-35.0061
-32.0301
-29.3382
-26.9179
-24.7572
-22.8452
-21.1717
-19.7278
-18.5054
-17.4975
-16.6983
-16.103
-15.7082
-15.5114
-729.032
-727.797
-725.335
-721.659
-716.789
-710.75
-703.576
-695.304
-685.977
-675.644
-664.358
-652.174
-639.154
-625.359
-610.855
-595.709
-579.989
-563.765
-547.105
-530.078
-512.753
-495.197
-477.476
-459.653
-441.79
-423.947
-406.179
-388.54
-371.08
-353.846
-336.883
-320.229
-303.921
-287.992
-272.472
-257.386
-242.757
-228.603
-214.94
-201.781
-189.134
-177.007
-165.402
-154.322
-143.764
-133.725
-124.2
-115.181
-106.66
-98.625
-91.0655
-83.9684
-77.32
-71.106
-65.3114
-59.9209
-54.9191
-50.2904
-46.0193
-42.0904
-38.4888
-35.1999
-32.2097
-29.5048
-27.0726
-24.9012
-22.9795
-21.2975
-19.8462
-18.6174
-17.6043