/*--------------------------------*- C++ -*----------------------------------*\
  =========                 |
  \\      /  F ield         | OpenFOAM: The Open Source CFD Toolbox
   \\    /   O peration     | Website:  https://openfoam.org
    \\  /    A nd           | Version:  10
     \\/     M anipulation  |
\*---------------------------------------------------------------------------*/
FoamFile
{
    format      ascii;
    class       volScalarField;
    location    "268";
    object      T;
}
// * * * * * * * * * * * * * * * * * * * * * * * * * * * * * * * * * * * * * //

dimensions      [0 0 0 1 0 0 0];

internalField   nonuniform List<scalar> 
11250
(
249.802
167.435
139.161
126.673
119.832
115.476
112.421
110.139
108.361
106.937
105.773
104.81
104.004
103.328
102.758
102.278
101.874
101.535
101.251
101.014
100.817
100.655
100.522
100.413
100.325
100.254
100.197
100.152
100.117
100.089
100.067
100.05
100.038
100.028
100.02
100.015
100.011
100.008
100.006
100.004
100.003
100.002
100.001
100.001
100.001
100
100
100
100
100
100
100
100
100
100
100
100
100
100
100
100
100
100
100
100
100
100
100
100
100
100
100
100
100
100
331.377
248.224
201.713
174.393
157.038
145.161
136.525
129.95
124.773
120.595
117.164
114.314
111.927
109.919
108.225
106.797
105.593
104.582
103.735
103.028
102.442
101.957
101.56
101.235
100.972
100.76
100.59
100.455
100.349
100.266
100.201
100.151
100.112
100.083
100.061
100.045
100.032
100.023
100.017
100.012
100.008
100.006
100.004
100.003
100.002
100.001
100.001
100.001
100
100
100
100
100
100
100
100
100
100
100
100
100
100
100
100
100
100
100
100
100
100
100
100
100
100
100
358.871
292.401
245.122
212.212
188.849
171.7
158.675
148.481
140.308
133.633
128.106
123.486
119.6
116.32
113.546
111.203
109.225
107.561
106.166
105.002
104.034
103.235
102.578
102.042
101.607
101.257
100.976
100.753
100.577
100.439
100.332
100.249
100.186
100.138
100.101
100.074
100.053
100.038
100.027
100.019
100.014
100.01
100.007
100.005
100.003
100.002
100.001
100.001
100.001
100
100
100
100
100
100
100
100
100
100
100
100
100
100
100
100
100
100
100
100
100
100
100
100
100
100
370.595
317.434
274.241
240.595
214.58
194.275
178.173
165.186
154.553
145.736
138.358
132.141
126.88
122.42
118.636
115.429
112.718
110.432
108.513
106.909
105.575
104.472
103.566
102.825
102.224
101.74
101.352
101.043
100.8
100.609
100.46
100.346
100.258
100.191
100.14
100.102
100.074
100.053
100.038
100.027
100.019
100.013
100.009
100.006
100.004
100.003
100.002
100.001
100.001
100.001
100
100
100
100
100
100
100
100
100
100
100
100
100
100
100
100
100
100
100
100
100
100
100
100
100
376.694
332.567
293.922
261.498
234.788
212.867
194.802
179.808
167.265
156.699
147.749
140.14
133.657
128.13
123.422
119.419
116.025
113.158
110.746
108.728
107.047
105.656
104.512
103.576
102.816
102.204
101.713
101.322
101.014
100.772
100.584
100.438
100.327
100.242
100.178
100.13
100.094
100.068
100.048
100.034
100.024
100.017
100.012
100.008
100.006
100.004
100.003
100.002
100.001
100.001
100
100
100
100
100
100
100
100
100
100
100
100
100
100
100
100
100
100
100
100
100
100
100
100
100
380.334
342.305
307.525
276.879
250.448
227.882
208.677
192.322
178.364
166.422
156.183
147.396
139.854
133.387
127.853
123.129
119.112
115.711
112.844
110.44
108.436
106.775
105.407
104.288
103.379
102.644
102.056
101.588
101.218
100.927
100.701
100.527
100.393
100.291
100.214
100.156
100.113
100.081
100.058
100.041
100.029
100.02
100.014
100.01
100.007
100.005
100.003
100.002
100.001
100.001
100.001
100
100
100
100
100
100
100
100
100
100
100
100
100
100
100
100
100
100
100
100
100
100
100
100
382.706
348.897
317.162
288.278
262.531
239.874
220.081
202.854
187.886
174.895
163.628
153.869
145.431
138.152
131.893
126.53
121.955
118.07
114.788
112.031
109.73
107.82
106.245
104.955
103.906
103.059
102.379
101.838
101.41
101.074
100.813
100.61
100.455
100.337
100.248
100.181
100.131
100.094
100.067
100.048
100.034
100.024
100.016
100.011
100.008
100.005
100.004
100.002
100.002
100.001
100.001
100
100
100
100
100
100
100
100
100
100
100
100
100
100
100
100
100
100
100
100
100
100
100
100
384.341
353.536
324.147
296.808
271.858
249.395
229.361
211.606
195.942
182.172
170.103
159.559
150.377
142.41
135.526
129.605
124.537
120.221
116.568
113.493
110.921
108.784
107.02
105.573
104.396
103.444
102.679
102.071
101.589
101.211
100.916
100.689
100.514
100.381
100.28
100.204
100.148
100.107
100.076
100.054
100.038
100.027
100.018
100.013
100.009
100.006
100.004
100.003
100.002
100.001
100.001
100
100
100
100
100
100
100
100
100
100
100
100
100
100
100
100
100
100
100
100
100
100
100
100
385.511
356.895
329.305
303.256
279.078
256.934
236.862
218.812
202.683
188.346
175.663
164.495
154.705
146.165
138.752
132.35
126.853
122.16
118.177
114.819
112.005
109.663
107.728
106.139
104.845
103.797
102.956
102.285
101.754
101.338
101.012
100.761
100.568
100.421
100.31
100.226
100.164
100.118
100.084
100.06
100.042
100.029
100.02
100.014
100.01
100.007
100.004
100.003
100.002
100.001
100.001
100.001
100
100
100
100
100
100
100
100
100
100
100
100
100
100
100
100
100
100
100
100
100
100
100
386.368
359.378
333.172
308.172
284.684
262.896
242.898
224.703
208.271
193.53
180.384
168.727
158.449
149.437
141.58
134.772
128.907
123.886
119.616
116.008
112.98
110.457
108.369
106.653
105.253
104.119
103.208
102.481
101.906
101.453
101.1
100.827
100.618
100.458
100.337
100.246
100.178
100.128
100.092
100.065
100.046
100.032
100.022
100.015
100.011
100.007
100.005
100.003
100.002
100.001
100.001
100.001
100
100
100
100
100
100
100
100
100
100
100
100
100
100
100
100
100
100
100
100
100
100
100
387.009
361.242
336.103
311.947
289.05
267.608
247.736
229.49
212.871
197.846
184.355
172.32
161.652
152.257
144.034
136.884
130.707
125.406
120.888
117.063
113.848
111.165
108.942
107.113
105.619
104.409
103.436
102.658
102.042
101.558
101.18
100.888
100.663
100.491
100.362
100.264
100.192
100.138
100.099
100.07
100.049
100.034
100.024
100.017
100.011
100.008
100.005
100.003
100.002
100.002
100.001
100.001
100
100
100
100
100
100
100
100
100
100
100
100
100
100
100
100
100
100
100
100
100
100
100
387.493
362.658
338.345
314.862
292.46
271.33
251.605
233.362
216.632
201.411
187.665
175.34
164.366
154.662
146.14
138.707
132.268
126.73
122
117.989
114.612
111.79
109.449
107.521
105.946
104.667
103.639
102.817
102.165
101.652
101.252
100.942
100.703
100.522
100.384
100.281
100.204
100.147
100.105
100.074
100.052
100.037
100.025
100.018
100.012
100.008
100.006
100.004
100.002
100.002
100.001
100.001
100
100
100
100
100
100
100
100
100
100
100
100
100
100
100
100
100
100
100
100
100
100
100
387.862
363.74
340.07
317.121
295.126
274.27
254.691
236.48
219.69
204.335
190.403
177.858
166.645
156.695
147.93
140.264
133.609
127.872
122.963
118.794
115.279
112.337
109.894
107.88
106.233
104.895
103.818
102.957
102.273
101.736
101.316
100.99
100.74
100.549
100.404
100.295
100.214
100.154
100.11
100.078
100.055
100.039
100.027
100.018
100.013
100.009
100.006
100.004
100.003
100.002
100.001
100.001
100
100
100
100
100
100
100
100
100
100
100
100
100
100
100
100
100
100
100
100
100
100
100
388.146
364.573
341.402
318.876
297.212
276.589
257.145
238.982
222.163
206.719
192.652
179.941
168.542
158.397
149.437
141.583
134.749
128.847
123.789
119.486
115.853
112.81
110.28
108.192
106.483
105.094
103.975
103.079
102.369
101.809
101.372
101.032
100.772
100.572
100.422
100.308
100.224
100.161
100.115
100.082
100.058
100.04
100.028
100.019
100.013
100.009
100.006
100.004
100.003
100.002
100.001
100.001
100
100
100
100
100
100
100
100
100
100
100
100
100
100
100
100
100
100
100
100
100
100
100
388.364
365.216
342.434
320.243
298.846
278.416
259.092
240.98
224.153
208.651
194.487
181.651
170.108
159.811
150.696
142.689
135.709
129.672
124.49
120.076
116.345
113.216
110.612
108.461
106.699
105.267
104.111
103.186
102.452
101.873
101.42
101.07
100.799
100.593
100.437
100.32
100.232
100.167
100.12
100.085
100.06
100.042
100.029
100.02
100.014
100.009
100.006
100.004
100.003
100.002
100.001
100.001
100.001
100
100
100
100
100
100
100
100
100
100
100
100
100
100
100
100
100
100
100
100
100
100
388.533
365.713
343.233
321.306
300.123
279.852
260.632
242.571
225.747
210.207
195.975
183.045
171.393
160.976
151.738
143.609
136.511
130.364
125.08
120.573
116.761
113.56
110.894
108.691
106.884
105.414
104.228
103.278
102.523
101.928
101.463
101.102
100.824
100.611
100.45
100.329
100.239
100.172
100.123
100.088
100.062
100.043
100.03
100.021
100.014
100.01
100.006
100.004
100.003
100.002
100.001
100.001
100.001
100
100
100
100
100
100
100
100
100
100
100
100
100
100
100
100
100
100
100
100
100
100
388.663
366.098
343.854
322.133
301.12
280.979
261.846
243.832
227.017
211.455
197.173
184.173
172.438
161.929
152.594
144.367
137.176
130.938
125.571
120.99
117.11
113.85
111.132
108.885
107.041
105.539
104.327
103.356
102.584
101.975
101.499
101.129
100.844
100.627
100.462
100.338
100.245
100.177
100.127
100.09
100.063
100.044
100.031
100.021
100.015
100.01
100.007
100.004
100.003
100.002
100.001
100.001
100.001
100
100
100
100
100
100
100
100
100
100
100
100
100
100
100
100
100
100
100
100
100
100
388.764
366.395
344.334
322.775
301.897
281.86
262.8
244.827
228.024
212.448
198.132
185.081
173.282
162.702
153.291
144.988
137.721
131.412
125.978
121.335
117.4
114.091
111.331
109.047
107.172
105.645
104.411
103.422
102.636
102.015
101.53
101.153
100.862
100.64
100.472
100.345
100.251
100.181
100.129
100.092
100.065
100.045
100.032
100.022
100.015
100.01
100.007
100.005
100.003
100.002
100.001
100.001
100.001
100
100
100
100
100
100
100
100
100
100
100
100
100
100
100
100
100
100
100
100
100
100
388.842
366.625
344.706
323.273
302.502
282.548
263.547
245.609
228.819
213.236
198.895
185.807
173.96
163.325
153.855
145.492
138.165
131.799
126.311
121.619
117.639
114.291
111.496
109.182
107.281
105.733
104.481
103.477
102.679
102.049
101.555
101.172
100.877
100.651
100.48
100.351
100.255
100.184
100.132
100.094
100.066
100.046
100.032
100.022
100.015
100.01
100.007
100.005
100.003
100.002
100.001
100.001
100.001
100
100
100
100
100
100
100
100
100
100
100
100
100
100
100
100
100
100
100
100
100
100
388.901
366.802
344.992
323.658
302.97
283.082
264.129
246.221
229.443
213.857
199.499
186.383
174.5
163.823
154.308
145.898
138.524
132.113
126.582
121.851
117.835
114.455
111.632
109.293
107.372
105.806
104.539
103.523
102.715
102.077
101.577
101.189
100.889
100.661
100.487
100.357
100.259
100.187
100.134
100.095
100.067
100.047
100.033
100.023
100.015
100.01
100.007
100.005
100.003
100.002
100.001
100.001
100.001
100
100
100
100
100
100
100
100
100
100
100
100
100
100
100
100
100
100
100
100
100
100
388.947
366.938
345.213
323.955
303.331
283.496
264.581
246.697
229.93
214.343
199.974
186.838
174.928
164.219
154.669
146.222
138.812
132.365
126.801
122.038
117.994
114.588
111.742
109.384
107.446
105.865
104.587
103.561
102.744
102.1
101.595
101.202
100.9
100.668
100.493
100.361
100.262
100.189
100.135
100.096
100.068
100.048
100.033
100.023
100.016
100.011
100.007
100.005
100.003
100.002
100.001
100.001
100.001
100
100
100
100
100
100
100
100
100
100
100
100
100
100
100
100
100
100
100
100
100
100
388.982
367.042
345.382
324.182
303.61
283.815
264.93
247.066
230.309
214.723
200.345
187.194
175.264
164.531
154.954
146.48
139.041
132.566
126.976
122.188
118.121
114.695
111.831
109.457
107.505
105.913
104.625
103.592
102.768
102.118
101.609
101.213
100.908
100.675
100.498
100.364
100.265
100.191
100.137
100.097
100.069
100.048
100.033
100.023
100.016
100.011
100.007
100.005
100.003
100.002
100.001
100.001
100.001
100
100
100
100
100
100
100
100
100
100
100
100
100
100
100
100
100
100
100
100
100
100
389.009
367.121
345.511
324.357
303.823
284.06
265.199
247.351
230.602
215.016
200.634
187.472
175.527
164.776
155.179
146.683
139.223
132.726
127.115
122.308
118.223
114.78
111.903
109.516
107.554
105.952
104.657
103.616
102.788
102.134
101.621
101.222
100.915
100.68
100.502
100.367
100.267
100.193
100.138
100.098
100.069
100.048
100.034
100.023
100.016
100.011
100.007
100.005
100.003
100.002
100.001
100.001
100.001
100
100
100
100
100
100
100
100
100
100
100
100
100
100
100
100
100
100
100
100
100
100
389.03
367.182
345.61
324.489
303.985
284.247
265.405
247.569
230.827
215.243
200.857
187.687
175.731
164.966
155.354
146.841
139.364
132.851
127.224
122.402
118.303
114.848
111.959
109.563
107.592
105.983
104.682
103.636
102.804
102.146
101.63
101.23
100.921
100.684
100.505
100.37
100.269
100.194
100.139
100.099
100.07
100.049
100.034
100.023
100.016
100.011
100.007
100.005
100.003
100.002
100.001
100.001
100.001
100
100
100
100
100
100
100
100
100
100
100
100
100
100
100
100
100
100
100
100
100
100
389.045
367.228
345.684
324.59
304.108
284.389
265.561
247.735
230.999
215.416
201.028
187.853
175.889
165.114
155.49
146.965
139.475
132.949
127.31
122.476
118.367
114.902
112.004
109.6
107.622
106.008
104.701
103.652
102.816
102.156
101.638
101.236
100.925
100.688
100.507
100.371
100.27
100.195
100.14
100.099
100.07
100.049
100.034
100.024
100.016
100.011
100.007
100.005
100.003
100.002
100.001
100.001
100.001
100
100
100
100
100
100
100
100
100
100
100
100
100
100
100
100
100
100
100
100
100
100
389.057
367.262
345.74
324.666
304.202
284.496
265.68
247.862
231.13
215.548
201.159
187.979
176.009
165.227
155.594
147.06
139.56
133.025
127.376
122.533
118.416
114.943
112.039
109.629
107.646
106.028
104.717
103.664
102.826
102.163
101.644
101.24
100.929
100.69
100.509
100.373
100.271
100.196
100.14
100.1
100.07
100.049
100.034
100.024
100.016
100.011
100.007
100.005
100.003
100.002
100.001
100.001
100.001
100
100
100
100
100
100
100
100
100
100
100
100
100
100
100
100
100
100
100
100
100
100
389.065
367.288
345.782
324.723
304.272
284.577
265.769
247.957
231.229
215.648
201.258
188.076
176.101
165.313
155.674
147.132
139.626
133.083
127.427
122.578
118.454
114.976
112.066
109.652
107.665
106.043
104.729
103.674
102.834
102.169
101.649
101.244
100.931
100.692
100.511
100.374
100.272
100.196
100.141
100.1
100.071
100.049
100.034
100.024
100.016
100.011
100.007
100.005
100.003
100.002
100.001
100.001
100.001
100
100
100
100
100
100
100
100
100
100
100
100
100
100
100
100
100
100
100
100
100
100
389.072
367.307
345.814
324.765
304.324
284.637
265.836
248.028
231.303
215.723
201.332
188.148
176.17
165.378
155.734
147.188
139.676
133.128
127.466
122.612
118.483
115.001
112.087
109.669
107.679
106.054
104.739
103.682
102.84
102.174
101.652
101.247
100.934
100.694
100.512
100.375
100.273
100.197
100.141
100.1
100.071
100.05
100.034
100.024
100.016
100.011
100.007
100.005
100.003
100.002
100.001
100.001
100.001
100
100
100
100
100
100
100
100
100
100
100
100
100
100
100
100
100
100
100
100
100
100
389.077
367.321
345.837
324.797
304.363
284.682
265.886
248.082
231.358
215.78
201.388
188.203
176.223
165.427
155.78
147.229
139.714
133.161
127.496
122.638
118.505
115.02
112.103
109.682
107.69
106.063
104.746
103.688
102.844
102.178
101.655
101.249
100.935
100.695
100.513
100.376
100.273
100.197
100.141
100.1
100.071
100.05
100.035
100.024
100.016
100.011
100.007
100.005
100.003
100.002
100.001
100.001
100.001
100
100
100
100
100
100
100
100
100
100
100
100
100
100
100
100
100
100
100
100
100
100
389.08
367.332
345.854
324.82
304.391
284.716
265.923
248.121
231.399
215.821
201.429
188.243
176.261
165.464
155.814
147.261
139.742
133.187
127.518
122.657
118.522
115.034
112.115
109.692
107.698
106.07
104.751
103.692
102.848
102.181
101.657
101.25
100.936
100.696
100.514
100.376
100.274
100.197
100.141
100.101
100.071
100.05
100.035
100.024
100.016
100.011
100.008
100.005
100.003
100.002
100.001
100.001
100.001
100
100
100
100
100
100
100
100
100
100
100
100
100
100
100
100
100
100
100
100
100
100
389.083
367.34
345.867
324.837
304.412
284.74
265.95
248.15
231.43
215.852
201.46
188.273
176.29
165.491
155.839
147.284
139.763
133.205
127.535
122.672
118.535
115.045
112.124
109.7
107.705
106.075
104.756
103.695
102.85
102.183
101.659
101.252
100.937
100.697
100.514
100.377
100.274
100.198
100.142
100.101
100.071
100.05
100.035
100.024
100.016
100.011
100.008
100.005
100.003
100.002
100.001
100.001
100.001
100
100
100
100
100
100
100
100
100
100
100
100
100
100
100
100
100
100
100
100
100
100
389.085
367.345
345.876
324.85
304.428
284.758
265.969
248.172
231.452
215.875
201.483
188.295
176.311
165.511
155.858
147.301
139.779
133.219
127.547
122.682
118.544
115.053
112.131
109.706
107.709
106.079
104.759
103.698
102.852
102.184
101.66
101.253
100.938
100.697
100.515
100.377
100.274
100.198
100.142
100.101
100.071
100.05
100.035
100.024
100.016
100.011
100.008
100.005
100.003
100.002
100.001
100.001
100.001
100
100
100
100
100
100
100
100
100
100
100
100
100
100
100
100
100
100
100
100
100
100
389.086
367.349
345.883
324.859
304.439
284.771
265.984
248.187
231.468
215.891
201.499
188.311
176.327
165.526
155.872
147.314
139.79
133.23
127.556
122.69
118.551
115.059
112.136
109.71
107.713
106.082
104.761
103.7
102.854
102.185
101.661
101.253
100.939
100.698
100.515
100.377
100.274
100.198
100.142
100.101
100.071
100.05
100.035
100.024
100.016
100.011
100.008
100.005
100.003
100.002
100.001
100.001
100.001
100
100
100
100
100
100
100
100
100
100
100
100
100
100
100
100
100
100
100
100
100
100
389.087
367.352
345.888
324.865
304.447
284.78
265.994
248.198
231.48
215.903
201.511
188.323
176.338
165.537
155.882
147.323
139.799
133.237
127.563
122.696
118.556
115.063
112.14
109.713
107.715
106.084
104.763
103.701
102.855
102.186
101.662
101.254
100.939
100.698
100.515
100.377
100.274
100.198
100.142
100.101
100.071
100.05
100.035
100.024
100.016
100.011
100.008
100.005
100.003
100.002
100.001
100.001
100.001
100
100
100
100
100
100
100
100
100
100
100
100
100
100
100
100
100
100
100
100
100
100
389.088
367.354
345.891
324.87
304.453
284.787
266.002
248.206
231.488
215.912
201.52
188.332
176.346
165.544
155.889
147.33
139.805
133.243
127.568
122.701
118.56
115.066
112.142
109.715
107.717
106.086
104.764
103.702
102.856
102.187
101.662
101.254
100.939
100.698
100.515
100.378
100.274
100.198
100.142
100.101
100.071
100.05
100.035
100.024
100.016
100.011
100.008
100.005
100.003
100.002
100.001
100.001
100.001
100
100
100
100
100
100
100
100
100
100
100
100
100
100
100
100
100
100
100
100
100
100
389.088
367.356
345.893
324.873
304.457
284.792
266.007
248.212
231.494
215.918
201.526
188.338
176.352
165.55
155.894
147.335
139.809
133.247
127.571
122.704
118.562
115.068
112.144
109.717
107.719
106.087
104.765
103.703
102.856
102.187
101.663
101.255
100.94
100.699
100.516
100.378
100.275
100.198
100.142
100.101
100.071
100.05
100.035
100.024
100.016
100.011
100.008
100.005
100.003
100.002
100.001
100.001
100.001
100
100
100
100
100
100
100
100
100
100
100
100
100
100
100
100
100
100
100
100
100
100
389.089
367.357
345.895
324.876
304.46
284.795
266.011
248.216
231.498
215.922
201.53
188.342
176.356
165.554
155.898
147.338
139.812
133.249
127.574
122.706
118.564
115.07
112.146
109.718
107.72
106.087
104.766
103.703
102.857
102.188
101.663
101.255
100.94
100.699
100.516
100.378
100.275
100.198
100.142
100.101
100.071
100.05
100.035
100.024
100.016
100.011
100.008
100.005
100.003
100.002
100.001
100.001
100.001
100
100
100
100
100
100
100
100
100
100
100
100
100
100
100
100
100
100
100
100
100
100
389.089
367.358
345.896
324.877
304.462
284.798
266.014
248.219
231.501
215.925
201.533
188.345
176.359
165.557
155.901
147.341
139.814
133.251
127.576
122.707
118.566
115.071
112.147
109.719
107.72
106.088
104.766
103.704
102.857
102.188
101.663
101.255
100.94
100.699
100.516
100.378
100.275
100.198
100.142
100.101
100.071
100.05
100.035
100.024
100.016
100.011
100.008
100.005
100.003
100.002
100.001
100.001
100.001
100
100
100
100
100
100
100
100
100
100
100
100
100
100
100
100
100
100
100
100
100
100
389.089
367.358
345.897
324.878
304.463
284.799
266.015
248.221
231.503
215.928
201.535
188.347
176.361
165.559
155.903
147.342
139.816
133.253
127.577
122.708
118.567
115.072
112.147
109.72
107.721
106.088
104.766
103.704
102.857
102.188
101.663
101.255
100.94
100.699
100.516
100.378
100.275
100.198
100.142
100.101
100.071
100.05
100.035
100.024
100.016
100.011
100.008
100.005
100.003
100.002
100.001
100.001
100.001
100
100
100
100
100
100
100
100
100
100
100
100
100
100
100
100
100
100
100
100
100
100
389.089
367.359
345.898
324.879
304.464
284.8
266.017
248.222
231.505
215.929
201.537
188.348
176.363
165.56
155.904
147.343
139.817
133.254
127.578
122.709
118.567
115.073
112.148
109.72
107.721
106.089
104.767
103.704
102.858
102.188
101.663
101.255
100.94
100.699
100.516
100.378
100.275
100.198
100.142
100.101
100.071
100.05
100.035
100.024
100.016
100.011
100.008
100.005
100.003
100.002
100.001
100.001
100.001
100
100
100
100
100
100
100
100
100
100
100
100
100
100
100
100
100
100
100
100
100
100
389.089
367.359
345.898
324.88
304.465
284.801
266.018
248.223
231.506
215.93
201.538
188.35
176.364
165.561
155.905
147.344
139.818
133.255
127.578
122.71
118.568
115.073
112.148
109.72
107.721
106.089
104.767
103.704
102.858
102.188
101.663
101.255
100.94
100.699
100.516
100.378
100.275
100.198
100.142
100.101
100.071
100.05
100.035
100.024
100.016
100.011
100.008
100.005
100.003
100.002
100.001
100.001
100.001
100
100
100
100
100
100
100
100
100
100
100
100
100
100
100
100
100
100
100
100
100
100
389.089
367.359
345.899
324.88
304.466
284.802
266.018
248.224
231.507
215.931
201.539
188.35
176.364
165.562
155.905
147.345
139.818
133.255
127.579
122.71
118.568
115.073
112.148
109.72
107.722
106.089
104.767
103.704
102.858
102.188
101.664
101.255
100.94
100.699
100.516
100.378
100.275
100.198
100.142
100.101
100.071
100.05
100.035
100.024
100.016
100.011
100.008
100.005
100.003
100.002
100.001
100.001
100.001
100
100
100
100
100
100
100
100
100
100
100
100
100
100
100
100
100
100
100
100
100
100
389.09
367.359
345.899
324.88
304.466
284.802
266.019
248.224
231.507
215.931
201.539
188.351
176.365
165.562
155.906
147.345
139.819
133.255
127.579
122.71
118.568
115.073
112.148
109.721
107.722
106.089
104.767
103.705
102.858
102.188
101.664
101.255
100.94
100.699
100.516
100.378
100.275
100.198
100.142
100.101
100.071
100.05
100.035
100.024
100.016
100.011
100.008
100.005
100.003
100.002
100.001
100.001
100.001
100
100
100
100
100
100
100
100
100
100
100
100
100
100
100
100
100
100
100
100
100
100
389.09
367.359
345.899
324.881
304.466
284.802
266.019
248.225
231.507
215.932
201.54
188.351
176.365
165.562
155.906
147.345
139.819
133.256
127.579
122.711
118.569
115.074
112.149
109.721
107.722
106.089
104.767
103.705
102.858
102.188
101.664
101.255
100.94
100.699
100.516
100.378
100.275
100.198
100.142
100.101
100.071
100.05
100.035
100.024
100.016
100.011
100.008
100.005
100.003
100.002
100.001
100.001
100.001
100
100
100
100
100
100
100
100
100
100
100
100
100
100
100
100
100
100
100
100
100
100
389.09
367.359
345.899
324.881
304.466
284.803
266.019
248.225
231.508
215.932
201.54
188.351
176.365
165.563
155.906
147.346
139.819
133.256
127.58
122.711
118.569
115.074
112.149
109.721
107.722
106.089
104.767
103.705
102.858
102.188
101.664
101.255
100.94
100.699
100.516
100.378
100.275
100.198
100.142
100.101
100.071
100.05
100.035
100.024
100.016
100.011
100.008
100.005
100.003
100.002
100.001
100.001
100.001
100
100
100
100
100
100
100
100
100
100
100
100
100
100
100
100
100
100
100
100
100
100
389.09
367.359
345.899
324.881
304.466
284.803
266.019
248.225
231.508
215.932
201.54
188.351
176.366
165.563
155.906
147.346
139.819
133.256
127.58
122.711
118.569
115.074
112.149
109.721
107.722
106.089
104.767
103.705
102.858
102.189
101.664
101.255
100.94
100.699
100.516
100.378
100.275
100.198
100.142
100.101
100.071
100.05
100.035
100.024
100.016
100.011
100.008
100.005
100.003
100.002
100.001
100.001
100.001
100
100
100
100
100
100
100
100
100
100
100
100
100
100
100
100
100
100
100
100
100
100
389.09
367.359
345.899
324.881
304.466
284.803
266.019
248.225
231.508
215.932
201.54
188.351
176.366
165.563
155.906
147.346
139.819
133.256
127.58
122.711
118.569
115.074
112.149
109.721
107.722
106.089
104.767
103.705
102.858
102.189
101.664
101.255
100.94
100.699
100.516
100.378
100.275
100.198
100.142
100.101
100.071
100.05
100.035
100.024
100.016
100.011
100.008
100.005
100.003
100.002
100.001
100.001
100.001
100
100
100
100
100
100
100
100
100
100
100
100
100
100
100
100
100
100
100
100
100
100
389.09
367.359
345.899
324.881
304.466
284.803
266.019
248.225
231.508
215.932
201.54
188.352
176.366
165.563
155.907
147.346
139.819
133.256
127.58
122.711
118.569
115.074
112.149
109.721
107.722
106.089
104.767
103.705
102.858
102.189
101.664
101.255
100.94
100.699
100.516
100.378
100.275
100.198
100.142
100.101
100.071
100.05
100.035
100.024
100.016
100.011
100.008
100.005
100.003
100.002
100.001
100.001
100.001
100
100
100
100
100
100
100
100
100
100
100
100
100
100
100
100
100
100
100
100
100
100
389.09
367.359
345.899
324.881
304.466
284.803
266.019
248.225
231.508
215.932
201.54
188.352
176.366
165.563
155.907
147.346
139.819
133.256
127.58
122.711
118.569
115.074
112.149
109.721
107.722
106.089
104.767
103.705
102.858
102.189
101.664
101.255
100.94
100.699
100.516
100.378
100.275
100.198
100.142
100.101
100.071
100.05
100.035
100.024
100.016
100.011
100.008
100.005
100.003
100.002
100.001
100.001
100.001
100
100
100
100
100
100
100
100
100
100
100
100
100
100
100
100
100
100
100
100
100
100
389.09
367.359
345.899
324.881
304.466
284.803
266.019
248.225
231.508
215.932
201.54
188.352
176.366
165.563
155.907
147.346
139.819
133.256
127.58
122.711
118.569
115.074
112.149
109.721
107.722
106.089
104.767
103.705
102.858
102.189
101.664
101.255
100.94
100.699
100.516
100.378
100.275
100.198
100.142
100.101
100.071
100.05
100.035
100.024
100.016
100.011
100.008
100.005
100.003
100.002
100.001
100.001
100.001
100
100
100
100
100
100
100
100
100
100
100
100
100
100
100
100
100
100
100
100
100
100
389.09
367.359
345.899
324.881
304.466
284.803
266.019
248.225
231.508
215.932
201.54
188.352
176.366
165.563
155.907
147.346
139.819
133.256
127.58
122.711
118.569
115.074
112.149
109.721
107.722
106.089
104.767
103.705
102.858
102.189
101.664
101.255
100.94
100.699
100.516
100.378
100.275
100.198
100.142
100.101
100.071
100.05
100.035
100.024
100.016
100.011
100.008
100.005
100.003
100.002
100.001
100.001
100.001
100
100
100
100
100
100
100
100
100
100
100
100
100
100
100
100
100
100
100
100
100
100
389.09
367.359
345.899
324.881
304.467
284.803
266.019
248.225
231.508
215.932
201.54
188.352
176.366
165.563
155.907
147.346
139.819
133.256
127.58
122.711
118.569
115.074
112.149
109.721
107.722
106.089
104.767
103.705
102.858
102.189
101.664
101.255
100.94
100.699
100.516
100.378
100.275
100.198
100.142
100.101
100.071
100.05
100.035
100.024
100.016
100.011
100.008
100.005
100.003
100.002
100.001
100.001
100.001
100
100
100
100
100
100
100
100
100
100
100
100
100
100
100
100
100
100
100
100
100
100
389.09
367.359
345.899
324.881
304.467
284.803
266.019
248.225
231.508
215.932
201.54
188.352
176.366
165.563
155.907
147.346
139.819
133.256
127.58
122.711
118.569
115.074
112.149
109.721
107.722
106.089
104.767
103.705
102.858
102.189
101.664
101.255
100.94
100.699
100.516
100.378
100.275
100.198
100.142
100.101
100.071
100.05
100.035
100.024
100.016
100.011
100.008
100.005
100.003
100.002
100.001
100.001
100.001
100
100
100
100
100
100
100
100
100
100
100
100
100
100
100
100
100
100
100
100
100
100
389.09
367.359
345.899
324.881
304.467
284.803
266.019
248.225
231.508
215.932
201.54
188.352
176.366
165.563
155.907
147.346
139.819
133.256
127.58
122.711
118.569
115.074
112.149
109.721
107.722
106.089
104.767
103.705
102.858
102.189
101.664
101.255
100.94
100.699
100.516
100.378
100.275
100.198
100.142
100.101
100.071
100.05
100.035
100.024
100.016
100.011
100.008
100.005
100.003
100.002
100.001
100.001
100.001
100
100
100
100
100
100
100
100
100
100
100
100
100
100
100
100
100
100
100
100
100
100
389.09
367.359
345.899
324.881
304.467
284.803
266.019
248.225
231.508
215.932
201.54
188.352
176.366
165.563
155.907
147.346
139.819
133.256
127.58
122.711
118.569
115.074
112.149
109.721
107.722
106.089
104.767
103.705
102.858
102.189
101.664
101.255
100.94
100.699
100.516
100.378
100.275
100.198
100.142
100.101
100.071
100.05
100.035
100.024
100.016
100.011
100.008
100.005
100.003
100.002
100.001
100.001
100.001
100
100
100
100
100
100
100
100
100
100
100
100
100
100
100
100
100
100
100
100
100
100
389.09
367.359
345.899
324.881
304.467
284.803
266.019
248.225
231.508
215.932
201.54
188.352
176.366
165.563
155.907
147.346
139.819
133.256
127.58
122.711
118.569
115.074
112.149
109.721
107.722
106.089
104.767
103.705
102.858
102.189
101.664
101.255
100.94
100.699
100.516
100.378
100.275
100.198
100.142
100.101
100.071
100.05
100.035
100.024
100.016
100.011
100.008
100.005
100.003
100.002
100.001
100.001
100.001
100
100
100
100
100
100
100
100
100
100
100
100
100
100
100
100
100
100
100
100
100
100
389.09
367.359
345.899
324.881
304.467
284.803
266.019
248.225
231.508
215.932
201.54
188.352
176.366
165.563
155.907
147.346
139.819
133.256
127.58
122.711
118.569
115.074
112.149
109.721
107.722
106.089
104.767
103.705
102.858
102.189
101.664
101.255
100.94
100.699
100.516
100.378
100.275
100.198
100.142
100.101
100.071
100.05
100.035
100.024
100.016
100.011
100.008
100.005
100.003
100.002
100.001
100.001
100.001
100
100
100
100
100
100
100
100
100
100
100
100
100
100
100
100
100
100
100
100
100
100
389.09
367.359
345.899
324.881
304.467
284.803
266.019
248.225
231.508
215.932
201.54
188.352
176.366
165.563
155.907
147.346
139.819
133.256
127.58
122.711
118.569
115.074
112.149
109.721
107.722
106.089
104.767
103.705
102.858
102.189
101.664
101.255
100.94
100.699
100.516
100.378
100.275
100.198
100.142
100.101
100.071
100.05
100.035
100.024
100.016
100.011
100.008
100.005
100.003
100.002
100.001
100.001
100.001
100
100
100
100
100
100
100
100
100
100
100
100
100
100
100
100
100
100
100
100
100
100
389.09
367.359
345.899
324.881
304.467
284.803
266.019
248.225
231.508
215.932