/*--------------------------------*- C++ -*----------------------------------*\
  =========                 |
  \\      /  F ield         | OpenFOAM: The Open Source CFD Toolbox
   \\    /   O peration     | Website:  https://openfoam.org
    \\  /    A nd           | Version:  10
     \\/     M anipulation  |
\*---------------------------------------------------------------------------*/
FoamFile
{
    format      ascii;
    class       volScalarField;
    location    "85";
    object      gradTz;
}
// * * * * * * * * * * * * * * * * * * * * * * * * * * * * * * * * * * * * * //

dimensions      [0 -1 0 1 0 0 0];

internalField   nonuniform List<scalar> 
11250
(
-14417.3
-4209.45
-1582.78
-770.364
-455.095
-302.053
-213.225
-154.969
-113.789
-83.4604
-60.7139
-43.6033
-30.8205
-21.3969
-14.5693
-9.72055
-6.35083
-4.06142
-2.54171
-1.5564
-0.932486
-0.546648
-0.313582
-0.176046
-0.0967381
-0.0520408
-0.0274126
-0.0141419
-0.00714676
-0.0035388
-0.00171731
-0.000816944
-0.000381057
-0.000174319
-7.82288e-05
-3.44473e-05
-1.48874e-05
-6.31624e-06
-2.63134e-06
-1.07665e-06
-4.32754e-07
-1.70939e-07
-6.63674e-08
-2.53253e-08
-9.49659e-09
-3.48933e-09
-1.26665e-09
-4.55511e-10
-1.60252e-10
-5.70761e-11
-2.08547e-11
6.58571e-12
0
-1.4269e-11
0
0
0
0
0
0
0
0
-2.08547e-11
-1.09762e-12
2.19523e-11
1.09762e-12
-1.09762e-12
0
1.09762e-12
-1.09762e-12
0
-5.48809e-12
-1.09762e-12
6.5857e-12
0
-8454.93
-5042.65
-2930.29
-1811.12
-1201.31
-841.279
-609.421
-448.952
-332.219
-244.843
-178.676
-128.601
-91.0424
-63.2785
-43.1247
-28.7922
-18.8213
-12.0416
-7.53857
-4.61754
-2.7672
-1.62255
-0.930935
-0.522711
-0.287272
-0.154559
-0.0814227
-0.0420091
-0.0212316
-0.0105139
-0.00510257
-0.00242751
-0.00113236
-0.000518042
-0.000232492
-0.000102381
-4.42489e-05
-1.87742e-05
-7.82164e-06
-3.20048e-06
-1.28648e-06
-5.08143e-07
-1.97295e-07
-7.52966e-08
-2.82197e-08
-1.03977e-08
-3.79007e-09
-1.34239e-09
-4.79659e-10
-1.81107e-10
-4.93928e-11
0
0
0
0
0
-2.19523e-12
0
5.48809e-12
-1.09762e-12
-3.29285e-12
1.09762e-12
1.09762e-12
8.78094e-12
-1.09762e-12
-1.20738e-11
1.09762e-12
2.19523e-12
-1.09762e-12
-4.39047e-12
1.09762e-12
4.39047e-12
0
-8.78094e-12
8.78094e-12
-5890.34
-4562.59
-3273.38
-2334.1
-1692.53
-1250.35
-935.174
-702.535
-526.349
-391.093
-287
-207.382
-147.238
-102.557
-70.0082
-46.8011
-30.6249
-19.6097
-12.2848
-7.52895
-4.51409
-2.6479
-1.51975
-0.853581
-0.469234
-0.252515
-0.133054
-0.06866
-0.0347067
-0.0171893
-0.00834332
-0.00396975
-0.00185197
-0.000847342
-0.000380314
-0.000167491
-7.23952e-05
-3.07186e-05
-1.27988e-05
-5.23739e-06
-2.10541e-06
-8.31653e-07
-3.22892e-07
-1.23222e-07
-4.6224e-08
-1.70471e-08
-6.17849e-09
-2.19963e-09
-7.91382e-10
-3.05138e-10
-9.11023e-11
2.19524e-12
8.78094e-12
-1.31714e-11
-1.53666e-11
-2.19523e-12
6.58571e-12
9.87856e-12
0
5.48809e-12
0
0
1.09762e-12
5.48809e-12
-1.09762e-12
-5.48809e-12
0
0
0
-1.09762e-11
0
1.20738e-11
1.09762e-12
-1.09762e-12
-1.09762e-12
-4629.79
-4022.09
-3248.13
-2545.59
-1975.84
-1529.17
-1179.94
-905.13
-687.831
-516.134
-381.415
-277.009
-197.416
-137.903
-94.3463
-63.1821
-41.4022
-26.5409
-16.6427
-10.2078
-6.12426
-3.59442
-2.06401
-1.15975
-0.637776
-0.343326
-0.180955
-0.0934021
-0.0472242
-0.0233936
-0.0113569
-0.00540452
-0.00252171
-0.00115394
-0.000517991
-0.000228152
-9.8626e-05
-4.18533e-05
-1.74398e-05
-7.13719e-06
-2.86938e-06
-1.13351e-06
-4.40097e-07
-1.67968e-07
-6.30186e-08
-2.32563e-08
-8.44287e-09
-3.00747e-09
-1.08554e-09
-3.89654e-10
-1.11957e-10
-1.53666e-11
1.09762e-11
-4.39047e-12
-1.09762e-11
0
3.29285e-12
1.09762e-12
-2.19523e-12
0
-1.09762e-12
0
-1.20738e-11
-1.09762e-12
1.4269e-11
1.09762e-12
0
0
-2.19524e-12
0
8.78094e-12
1.09762e-12
-9.87856e-12
0
0
-3944.57
-3618.03
-3126.32
-2605.51
-2124.43
-1706.12
-1352.38
-1057.67
-815.013
-617.779
-459.938
-335.902
-240.403
-168.483
-115.565
-77.551
-50.9025
-32.6756
-20.5126
-12.5933
-7.56159
-4.44106
-2.55167
-1.4345
-0.789224
-0.42502
-0.224092
-0.115704
-0.0585165
-0.0289949
-0.0140793
-0.00670147
-0.00312746
-0.00143138
-0.000642636
-0.000283095
-0.000122394
-5.19464e-05
-2.16481e-05
-8.86047e-06
-3.56262e-06
-1.40752e-06
-5.46505e-07
-2.08593e-07
-7.82953e-08
-2.88882e-08
-1.04811e-08
-3.75495e-09
-1.3358e-09
-4.6978e-10
-1.41593e-10
-2.96357e-11
0
0
0
0
-5.48809e-12
0
1.20738e-11
0
-8.78094e-12
0
2.19523e-12
1.09762e-12
5.48809e-12
-2.19523e-12
-4.39047e-12
1.09762e-12
2.19523e-12
-5.48809e-12
-2.19523e-12
4.39047e-12
0
-5.48809e-12
5.48809e-12
-3545.63
-3342.02
-3002.36
-2602.33
-2195.77
-1813.01
-1468.42
-1167.43
-910.824
-696.92
-522.586
-383.764
-275.839
-193.973
-133.409
-89.7218
-58.9965
-37.9275
-23.839
-14.6508
-8.80478
-5.17516
-2.97542
-1.67369
-0.921281
-0.496359
-0.261809
-0.135226
-0.0684113
-0.0339074
-0.0164691
-0.0078408
-0.00365996
-0.00167543
-0.000752345
-0.000331481
-0.000143336
-6.08436e-05
-2.53595e-05
-1.03809e-05
-4.17447e-06
-1.64942e-06
-6.40505e-07
-2.44523e-07
-9.17817e-08
-3.38867e-08
-1.22944e-08
-4.36522e-09
-1.53886e-09
-5.41125e-10
-1.83302e-10
-5.37833e-11
-1.09762e-12
0
2.19524e-12
0
-5.48809e-12
-6.58571e-12
6.5857e-12
4.39047e-12
-1.09762e-12
0
4.39047e-12
0
-5.48809e-12
1.09762e-12
0
0
0
-1.09762e-11
-2.19523e-12
4.39047e-12
1.09762e-12
4.39047e-12
3.29285e-12
-3303.05
-3158.5
-2902.12
-2578.24
-2226.32
-1875.26
-1543.95
-1243.69
-980.427
-756.311
-570.768
-421.277
-304.029
-214.493
-147.912
-99.691
-65.6693
-42.2805
-26.6086
-16.3704
-9.84729
-5.7925
-3.33265
-1.87577
-1.03306
-0.556845
-0.293836
-0.151825
-0.0768349
-0.0380942
-0.0185078
-0.00881365
-0.00411502
-0.00188415
-0.000846238
-0.000372918
-0.000161282
-6.84723e-05
-2.85434e-05
-1.16859e-05
-4.69987e-06
-1.85726e-06
-7.2132e-07
-2.75385e-07
-1.0336e-07
-3.81532e-08
-1.38618e-08
-4.95574e-09
-1.73753e-09
-5.99299e-10
-1.95376e-10
-4.28071e-11
-4.39047e-12
-1.09762e-12
4.39047e-12
0
-2.19524e-12
0
2.19523e-12
2.19524e-12
0
1.09762e-12
-1.09762e-12
-1.09762e-12
1.09762e-12
-1.09762e-12
0
0
0
0
0
-4.39047e-12
-1.09762e-12
0
5.48809e-12
-3151.73
-3037.67
-2828.03
-2551.23
-2236.85
-1910.47
-1591.9
-1295.23
-1029.49
-799.489
-606.636
-449.729
-325.73
-230.481
-159.324
-107.6
-70.999
-45.7773
-28.8444
-17.7644
-10.6954
-6.29631
-3.62499
-2.04153
-1.12495
-0.606662
-0.320258
-0.16554
-0.0838044
-0.0415625
-0.0201985
-0.00962128
-0.00449317
-0.00205774
-0.000924391
-0.000407435
-0.000176241
-7.48355e-05
-3.12008e-05
-1.27757e-05
-5.13885e-06
-2.031e-06
-7.88932e-07
-3.01261e-07
-1.13066e-07
-4.17226e-08
-1.51636e-08
-5.40796e-09
-1.90107e-09
-6.47594e-10
-1.95376e-10
-5.59785e-11
-1.4269e-11
1.09762e-12
-7.68332e-12
0
-5.48809e-12
0
8.78094e-12
0
2.19523e-12
0
3.29285e-12
0
0
-1.09762e-12
0
-1.20738e-11
0
1.31714e-11
1.09762e-12
-8.78094e-12
-8.78094e-12
4.39047e-12
1.09762e-11
-3056.06
-2958.59
-2775.77
-2527.9
-2238.4
-1929.87
-1621.75
-1329.28
-1063.2
-830.019
-632.569
-470.668
-341.933
-242.561
-168.032
-113.684
-75.1282
-48.5027
-30.5957
-18.8612
-11.3653
-6.69555
-3.85732
-2.17361
-1.19834
-0.64653
-0.341443
-0.176555
-0.08941
-0.0443559
-0.021562
-0.0102733
-0.00479879
-0.00219817
-0.000987674
-0.000435408
-0.000188373
-8e-05
-3.33591e-05
-1.36614e-05
-5.49586e-06
-2.17239e-06
-8.43935e-07
-3.22295e-07
-1.20995e-07
-4.46511e-08
-1.6191e-08
-5.78554e-09
-2.06352e-09
-6.94792e-10
-2.15133e-10
-5.70761e-11
0
0
5.48809e-12
2.305e-11
-5.48809e-12
-2.41476e-11
0
1.09762e-12
1.09762e-12
-1.09762e-12
0
0
1.09762e-12
6.58571e-12
-1.09762e-12
-6.5857e-12
1.09762e-12
-1.09762e-12
0
1.09762e-12
0
-1.09762e-12
0
-2995.3
-2907.17
-2740.01
-2509.86
-2236.47
-1940.28
-1640.05
-1351.35
-1085.84
-851.073
-650.825
-485.655
-353.691
-251.427
-174.485
-118.23
-78.235
-50.5655
-31.9282
-19.6995
-11.8793
-7.00296
-4.03677
-2.27591
-1.25531
-0.677549
-0.357958
-0.185157
-0.0937949
-0.0465442
-0.0226315
-0.0107854
-0.00503909
-0.00230871
-0.00103753
-0.000457468
-0.000197949
-8.40796e-05
-3.50653e-05
-1.43621e-05
-5.77848e-06
-2.28438e-06
-8.87519e-07
-3.38964e-07
-1.27265e-07
-4.69857e-08
-1.7057e-08
-6.07751e-09
-2.15901e-09
-7.47478e-10
-2.31597e-10
-6.25642e-11
-8.78094e-12
1.09762e-12
3.29285e-12
1.4269e-11
0
-1.75619e-11
0
3.29285e-12
0
9.87856e-12
0
-9.87856e-12
0
1.64643e-11
1.09762e-12
-1.64643e-11
-1.09762e-12
2.19524e-12
5.48809e-12
-2.19524e-12
-5.48809e-12
0
0
-2956.75
-2874
-2716.09
-2496.76
-2233.65
-1945.72
-1651.11
-1365.41
-1100.74
-865.264
-663.363
-496.108
-361.996
-257.758
-179.135
-121.533
-80.5074
-52.0833
-32.9138
-20.3223
-12.2627
-7.23308
-4.17153
-2.35294
-1.29833
-0.701021
-0.37048
-0.191692
-0.0971317
-0.0482121
-0.0234479
-0.0111768
-0.00522297
-0.00239339
-0.00107577
-0.000474402
-0.000205307
-8.72169e-05
-3.63784e-05
-1.49018e-05
-5.99633e-06
-2.37074e-06
-9.21158e-07
-3.51845e-07
-1.32131e-07
-4.88023e-08
-1.7732e-08
-6.32776e-09
-2.22707e-09
-7.77113e-10
-2.55745e-10
-5.59785e-11
1.09762e-12
1.09762e-12
0
2.19523e-12
-1.09762e-12
-2.19523e-12
-2.19523e-12
1.09762e-12
1.09762e-12
0
-1.09762e-12
-1.09762e-12
1.09762e-12
1.09762e-12
1.09762e-12
-1.09762e-12
0
0
1.09762e-12
-6.5857e-12
0
5.48809e-12
0
-2932.43
-2852.82
-2700.39
-2487.67
-2231.01
-1948.48
-1657.7
-1374.23
-1110.36
-874.627
-671.777
-503.222
-367.716
-262.163
-182.399
-123.868
-82.1247
-53.1698
-33.6229
-20.7724
-12.5409
-7.40068
-4.26998
-2.40939
-1.32993
-0.718305
-0.379721
-0.196523
-0.0996031
-0.0494493
-0.0240544
-0.011468
-0.00535995
-0.00245655
-0.00110432
-0.000487058
-0.000210812
-8.95663e-05
-3.73626e-05
-1.53066e-05
-6.15988e-06
-2.43565e-06
-9.46463e-07
-3.61549e-07
-1.35803e-07
-5.01699e-08
-1.82259e-08
-6.50119e-09
-2.26548e-09
-7.86992e-10
-2.74404e-10
-6.69547e-11
-1.09762e-12
1.09762e-12
1.09762e-12
-2.19523e-12
0
-1.09762e-12
-1.09762e-12
3.29285e-12
1.4269e-11
-2.19523e-12
-1.31714e-11
0
-9.87856e-12
-2.08547e-11
8.78094e-12
2.19523e-11
0
0
0
0
-2.19524e-12
-3.29285e-12
5.48809e-12
-2917.23
-2839.45
-2690.28
-2481.55
-2228.9
-1949.81
-1661.59
-1379.68
-1116.47
-880.679
-677.299
-507.95
-371.56
-265.15
-184.631
-125.476
-83.2458
-53.9272
-34.1196
-21.0892
-12.7375
-7.51949
-4.34
-2.44964
-1.35253
-0.730693
-0.386359
-0.2
-0.101385
-0.050343
-0.0244931
-0.011679
-0.00545933
-0.00250242
-0.00112508
-0.000496272
-0.000214823
-9.128e-05
-3.80812e-05
-1.56024e-05
-6.27949e-06
-2.48315e-06
-9.65008e-07
-3.68678e-07
-1.38479e-07
-5.11446e-08
-1.85684e-08
-6.62083e-09
-2.32146e-09
-7.9687e-10
-2.71112e-10
-8.78094e-11
-2.305e-11
-3.29285e-12
0
0
0
0
0
2.19524e-12
-2.19524e-12
6.5857e-12
0
-1.86595e-11
-4.39047e-12
9.87856e-12
3.29285e-12
3.29285e-12
1.09762e-12
0
-1.09762e-12
0
0
1.09762e-12
-1.09762e-12
-2907.82
-2831.12
-2683.89
-2477.55
-2227.36
-1950.43
-1663.85
-1382.99
-1120.27
-884.516
-680.847
-511.024
-374.082
-267.128
-186.12
-126.556
-84.0032
-54.4417
-34.4587
-21.3063
-12.8727
-7.60153
-4.3885
-2.47761
-1.36826
-0.739342
-0.391003
-0.202438
-0.102637
-0.0509718
-0.0248023
-0.0118279
-0.00552955
-0.00253488
-0.00113979
-0.000502808
-0.000217671
-9.2498e-05
-3.85925e-05
-1.58131e-05
-6.36474e-06
-2.51706e-06
-9.78271e-07
-3.7375e-07
-1.40387e-07
-5.18449e-08
-1.88033e-08
-6.69327e-09
-2.33683e-09
-7.95773e-10
-2.82088e-10
-1.10859e-10
-3.40261e-11
-1.09762e-12
0
-1.09762e-12
-8.78094e-12
-8.78094e-12
4.39047e-12
8.78094e-12
4.39047e-12
0
-1.20738e-11
-1.09762e-12
1.31714e-11
2.19523e-12
-2.19523e-12
-1.09762e-12
1.09762e-12
-1.09762e-12
-4.39047e-12
-7.68332e-12
3.29285e-12
1.31714e-11
-3.29285e-12
-2902.07
-2826.01
-2679.91
-2475
-2226.29
-1950.69
-1665.15
-1384.98
-1122.6
-886.901
-683.08
-512.978
-375.701
-268.407
-187.089
-127.264
-84.5023
-54.7824
-34.6842
-21.4513
-12.9634
-7.65673
-4.42123
-2.49654
-1.37894
-0.745226
-0.394169
-0.204104
-0.103494
-0.0514029
-0.0250146
-0.0119303
-0.00557792
-0.00255727
-0.00114994
-0.000507325
-0.000219642
-9.33418e-05
-3.8947e-05
-1.59593e-05
-6.42396e-06
-2.54062e-06
-9.87476e-07
-3.77308e-07
-1.41749e-07
-5.23366e-08
-1.89745e-08
-6.7712e-09
-2.36646e-09
-8.00163e-10
-2.85381e-10
-9.98832e-11
-1.64643e-11
-1.09762e-12
-2.19524e-12
5.48809e-12
0
-5.48809e-12
1.09762e-12
0
-2.19524e-12
0
1.09762e-12
0
4.39047e-12
0
-4.39047e-12
-1.09762e-12
0
-4.39047e-12
4.39047e-12
5.48809e-12
-4.39047e-12
1.09762e-12
-1.09762e-12
-2898.62
-2822.92
-2677.48
-2473.41
-2225.58
-1950.79
-1665.89
-1386.15
-1124
-888.355
-684.457
-514.194
-376.716
-269.215
-187.706
-127.717
-84.8233
-55.0025
-34.8306
-21.5458
-13.0227
-7.69295
-4.44278
-2.50903
-1.38601
-0.749128
-0.396274
-0.205213
-0.104065
-0.051691
-0.0251568
-0.0119989
-0.00561039
-0.00257232
-0.00115678
-0.00051037
-0.000220972
-9.39116e-05
-3.91866e-05
-1.60583e-05
-6.46404e-06
-2.5566e-06
-9.93742e-07
-3.79702e-07
-1.42655e-07
-5.26681e-08
-1.91183e-08
-6.83267e-09
-2.37744e-09
-8.1992e-10
-2.95259e-10
-9.87856e-11
-9.87856e-12
-5.48809e-12
-2.19524e-12
1.53666e-11
-1.09762e-12
0
5.48809e-12
1.09762e-12
-8.78094e-12
-1.09762e-12
5.48809e-12
8.78094e-12
0
-8.78094e-12
0
-4.39047e-12
0
-6.58571e-12
-1.09762e-12
9.87856e-12
9.87856e-12
1.09762e-12
-8.78094e-12
-2896.57
-2821.08
-2676.02
-2472.44
-2225.13
-1950.81
-1666.3
-1386.83
-1124.83
-889.226
-685.289
-514.934
-377.339
-269.714
-188.089
-128
-85.0248
-55.1414
-34.9234
-21.6059
-13.0605
-7.71613
-4.45661
-2.51707
-1.39057
-0.751651
-0.397638
-0.205933
-0.104437
-0.0518788
-0.0252496
-0.0120438
-0.00563165
-0.00258218
-0.00116127
-0.000512371
-0.000221847
-9.42871e-05
-3.93447e-05
-1.61236e-05
-6.49056e-06
-2.56716e-06
-9.97876e-07
-3.81291e-07
-1.43245e-07
-5.2915e-08
-1.92028e-08
-6.86011e-09
-2.41476e-09
-8.31994e-10
-2.94161e-10
-8.78094e-11
-1.09762e-11
1.09762e-12
-4.39047e-12
-1.09762e-12
6.5857e-12
8.78094e-12
-1.09762e-12
-8.78094e-12
0
0
-2.19523e-12
4.39047e-12
2.19523e-12
-5.48809e-12
-2.19523e-12
0
2.19523e-12
-6.5857e-12
-4.39047e-12
6.5857e-12
4.39047e-12
8.78094e-12
-7.68332e-12
-2895.37
-2820
-2675.16
-2471.87
-2224.85
-1950.81
-1666.53
-1387.22
-1125.31
-889.737
-685.782
-515.377
-377.714
-270.016
-188.322
-128.173
-85.1485
-55.227
-34.9807
-21.6432
-13.0841
-7.73061
-4.46527
-2.52212
-1.39344
-0.753244
-0.3985
-0.20639
-0.104673
-0.0519982
-0.0253086
-0.0120724
-0.00564523
-0.0025885
-0.00116414
-0.000513654
-0.000222409
-9.45284e-05
-3.94464e-05
-1.61656e-05
-6.50765e-06
-2.57397e-06
-1.00053e-06
-3.82334e-07
-1.43632e-07
-5.30468e-08
-1.92687e-08
-6.88096e-09
-2.42573e-09
-8.49556e-10
-3.02942e-10
-7.79308e-11
-1.09762e-12
0
2.19524e-12
0
-1.09762e-12
0
-1.09762e-12
0
0
1.09762e-12
-1.09762e-12
0
0
0
-1.09762e-12
0
1.09762e-12
-1.4269e-11
4.39047e-12
9.87856e-12
-3.29285e-12
4.39047e-12
-1.09762e-12
-2894.69
-2819.39
-2674.67
-2471.53
-2224.68
-1950.8
-1666.65
-1387.44
-1125.58
-890.032
-686.068
-515.635
-377.934
-270.195
-188.46
-128.276
-85.2226
-55.2785
-35.0154
-21.6658
-13.0984
-7.73944
-4.47057
-2.52522
-1.3952
-0.754225
-0.399033
-0.206672
-0.104819
-0.0520723
-0.0253454
-0.0120902
-0.0056537
-0.00259244
-0.00116594
-0.000514457
-0.000222761
-9.46797e-05
-3.95102e-05
-1.61921e-05
-6.51839e-06
-2.57827e-06
-1.00225e-06
-3.82994e-07
-1.43886e-07
-5.31444e-08
-1.93071e-08
-6.88096e-09
-2.42573e-09
-8.58337e-10
-2.96357e-10
-7.68332e-11
-1.09762e-12
-1.09762e-12
0
1.09762e-12
-1.09762e-12
0
1.09762e-12
0
-3.29285e-12
0
3.29285e-12
0
1.09762e-12
8.78094e-12
0
-9.87856e-12
0
0
9.87856e-12
3.29285e-12
-1.4269e-11
-2.19523e-12
3.29285e-12
-2894.3
-2819.04
-2674.39
-2471.33
-2224.58
-1950.79
-1666.72
-1387.56
-1125.74
-890.198
-686.231
-515.783
-378.061
-270.298
-188.541
-128.336
-85.2661
-55.3088
-35.0358
-21.6792
-13.107
-7.7447
-4.47373
-2.52707
-1.39626
-0.754815
-0.399353
-0.206842
-0.104908
-0.0521172
-0.0253677
-0.0121011
-0.00565885
-0.00259484
-0.00116704
-0.000514948
-0.000222977
-9.47724e-05
-3.95493e-05
-1.62083e-05
-6.52499e-06
-2.58092e-06
-1.0033e-06
-3.83368e-07
-1.44026e-07
-5.32125e-08
-1.93367e-08
-6.90621e-09
-2.45427e-09
-8.52849e-10
-2.75502e-10
-8.12237e-11
-5.48809e-12
1.09762e-12
1.09762e-12
-2.19523e-12
1.09762e-12
-1.09762e-12
2.19523e-12
-2.19523e-12
-1.09762e-11
3.29285e-12
7.68332e-12
-8.78094e-12
-1.09762e-11
9.87856e-12
9.87856e-12
5.48809e-12
-1.09762e-12
-4.39047e-12
0
-1.09762e-12
0
0
1.09762e-12
-2894.09
-2818.84
-2674.23
-2471.22
-2224.53
-1950.79
-1666.75
-1387.62
-1125.82
-890.291
-686.322
-515.866
-378.132
-270.356
-188.587
-128.371
-85.291
-55.3262
-35.0476
-21.687
-13.1119
-7.74776
-4.47558
-2.52816
-1.39688
-0.755161
-0.399542
-0.206943
-0.10496
-0.0521438
-0.0253809
-0.0121075
-0.00566191
-0.00259627
-0.00116769
-0.000515241
-0.000223105
-9.48278e-05
-3.95728e-05
-1.6218e-05
-6.52896e-06
-2.58249e-06
-1.00392e-06
-3.8364e-07
-1.44141e-07
-5.32399e-08
-1.93247e-08
-6.92158e-09
-2.45757e-09
-8.36385e-10
-2.70014e-10
-8.01261e-11
-1.31714e-11
-4.39047e-12
2.19524e-12
1.86595e-11
-4.39047e-12
-1.75619e-11
1.09762e-12
0
-1.09762e-11
-1.09762e-12
1.31714e-11
0
-2.19523e-12
0
1.09762e-12
-1.09762e-12
0
-2.19524e-12
-2.19523e-12
6.58571e-12
-3.29285e-12
-7.68332e-12
8.78094e-12
-2893.97
-2818.74
-2674.14
-2471.16
-2224.5
-1950.78
-1666.77
-1387.66
-1125.87
-890.341
-686.372
-515.912
-378.172
-270.389
-188.612
-128.39
-85.305
-55.3361
-35.0543
-21.6913
-13.1147
-7.74951
-4.47663
-2.52878
-1.39724
-0.75536
-0.399651
-0.207001
-0.10499
-0.0521592
-0.0253885
-0.0121112
-0.00566369
-0.0025971
-0.00116807
-0.000515411
-0.00022318
-9.48602e-05
-3.95865e-05
-1.62237e-05
-6.53127e-06
-2.58343e-06
-1.00428e-06
-3.83797e-07
-1.44199e-07
-5.32674e-08
-1.93686e-08
-6.90621e-09
-2.42244e-09
-8.41873e-10
-2.75502e-10
-8.67118e-11
-1.4269e-11
-1.09762e-12
-3.29285e-12
9.87856e-12
0
-9.87856e-12
0
0
0
0
-1.64643e-11
0
1.64643e-11
0
1.09762e-12
0
0
-1.31714e-11
0
1.20738e-11
-3.29285e-12
1.09762e-12
2.19524e-12
-2893.91
-2818.68
-2674.1
-2471.13
-2224.48
-1950.78
-1666.78
-1387.68
-1125.89
-890.368
-686.399
-515.937
-378.193
-270.407
-188.626
-128.4
-85.3127
-55.3415
-35.058
-21.6938
-13.1163
-7.75048
-4.47722
-2.52912
-1.39744
-0.755472
-0.399712
-0.207033
-0.105007
-0.0521679
-0.0253929
-0.0121133
-0.0056647
-0.00259757
-0.00116829
-0.000515509
-0.000223223
-9.48787e-05
-3.95943e-05
-1.6227e-05
-6.53262e-06
-2.58396e-06
-1.00449e-06
-3.8388e-07
-1.44231e-07
-5.32816e-08
-1.93598e-08
-6.9084e-09
-2.42134e-09
-8.36385e-10
-2.74404e-10
-8.8907e-11
-2.63428e-11
1.09762e-12
0
-1.09762e-12
-7.68332e-12
-1.09762e-12
7.68332e-12
1.09762e-12
0
0
0
-1.09762e-12
-4.39047e-12
1.20738e-11
4.39047e-12
-1.09762e-11
-2.19523e-12
-1.09762e-12
2.19523e-12
0
0
-1.09762e-11
1.20738e-11
-2893.88
-2818.65
-2674.07
-2471.11
-2224.47
-1950.78
-1666.78
-1387.69
-1125.91
-890.382
-686.413
-515.95
-378.205
-270.416
-188.634
-128.406
-85.3168
-55.3444
-35.06
-21.6951
-13.1171
-7.75101
-4.47754
-2.52931
-1.39755
-0.755533
-0.399746
-0.207051
-0.105017
-0.0521727
-0.0253953
-0.0121145
-0.00566526
-0.00259783
-0.00116841
-0.000515563
-0.000223247
-9.48891e-05
-3.95987e-05
-1.62288e-05
-6.53337e-06
-2.58426e-06
-1.00461e-06
-3.83913e-07
-1.44231e-07
-5.3274e-08
-1.93719e-08
-6.91609e-09
-2.41476e-09
-8.46263e-10
-2.93064e-10
-8.01261e-11
-1.4269e-11
-7.68332e-12
3.29285e-12
2.19523e-12
7.68332e-12
1.09762e-12
-1.20738e-11
0
-1.09762e-12
-1.09762e-12
-2.19524e-12
0
1.75619e-11
0
-1.4269e-11
0
1.09762e-12
-5.48809e-12
-2.19523e-12
6.58571e-12
-1.09762e-12
-1.09762e-12
2.19524e-12
-2893.86
-2818.64
-2674.06
-2471.11
-2224.46
-1950.78
-1666.79
-1387.69
-1125.91
-890.389
-686.42
-515.957
-378.21
-270.421
-188.637
-128.409
-85.319
-55.3459
-35.061
-21.6958
-13.1176
-7.75129
-4.47771
-2.52941
-1.39761
-0.755566
-0.399764
-0.207061
-0.105022
-0.0521753
-0.0253966
-0.0121152
-0.00566557
-0.00259798
-0.00116847
-0.000515592
-0.00022326
-9.48947e-05
-3.96011e-05
-1.62298e-05
-6.5338e-06
-2.58444e-06
-1.00468e-06
-3.83917e-07
-1.44228e-07
-5.32838e-08
-1.93729e-08
-6.92158e-09
-2.41915e-09
-8.56142e-10
-3.02942e-10
-7.35404e-11
-4.39047e-12
-1.31714e-11
6.58571e-12
1.53666e-11
-2.19524e-12
-3.29285e-12
-5.48809e-12
2.19524e-12
1.09762e-12
-3.29285e-12
4.39047e-12
4.39047e-12
-4.39047e-12
-2.19524e-12
0
0
0
0
0
0
1.09762e-12
1.09762e-12
-2.19524e-12
-2893.85
-2818.63
-2674.05
-2471.1
-2224.46
-1950.78
-1666.79
-1387.69
-1125.92
-890.393
-686.424
-515.96
-378.213
-270.423
-188.639
-128.411
-85.3201
-55.3467
-35.0616
-21.6962
-13.1178
-7.75144
-4.4778
-2.52947
-1.39764
-0.755584
-0.399773
-0.207066
-0.105024
-0.0521766
-0.0253973
-0.0121155
-0.00566573
-0.00259805
-0.00116851
-0.000515608
-0.000223267
-9.48977e-05
-3.96024e-05
-1.62303e-05
-6.53403e-06
-2.58456e-06
-1.00473e-06
-3.83941e-07
-1.44226e-07
-5.3286e-08
-1.93806e-08
-6.89853e-09
-2.41915e-09
-8.59434e-10
-3.0404e-10
-8.8907e-11
-9.87856e-12
0
0
0
8.78094e-12
-2.19523e-12
-5.48809e-12
1.09762e-12
-2.19523e-12
0
2.19523e-12
-2.19523e-12
-2.19523e-12
4.39047e-12
1.09762e-12
-3.29285e-12
0
0
2.19523e-12
0
-2.19523e-12
-5.48809e-12
5.48809e-12
-2893.85
-2818.62
-2674.05
-2471.1
-2224.46
-1950.78
-1666.79
-1387.7
-1125.92
-890.395
-686.426
-515.962
-378.215
-270.425
-188.64
-128.411
-85.3207
-55.3471
-35.0619
-21.6963
-13.1179
-7.75151
-4.47785
-2.5295
-1.39765
-0.755593
-0.399778
-0.207069
-0.105026
-0.0521773
-0.0253976
-0.0121157
-0.00566581
-0.00259809
-0.00116852
-0.000515616
-0.000223271
-9.48993e-05
-3.96031e-05
-1.62306e-05
-6.53411e-06
-2.58458e-06
-1.00474e-06
-3.83956e-07
-1.44246e-07
-5.32893e-08
-1.9351e-08
-6.9128e-09
-2.44988e-09
-8.67118e-10
-3.10626e-10
-8.56142e-11
-4.39047e-12
0
0
2.19523e-12
0
-1.09762e-12
0
0
-2.19524e-12
0
-4.39047e-12
-1.09762e-12
5.48809e-12
1.09762e-12
0
2.19523e-12
-1.09762e-12
-6.58571e-12
0
2.19524e-12
-1.4269e-11
4.39047e-12
1.31714e-11
-2893.84
-2818.62
-2674.05
-2471.1
-2224.46
-1950.78
-1666.79
-1387.7
-1125.92
-890.396
-686.427
-515.963
-378.216
-270.425
-188.641
-128.412
-85.321
-55.3473
-35.062
-21.6964
-13.118
-7.75155
-4.47787
-2.52951
-1.39766
-0.755597
-0.399781
-0.20707
-0.105026
-0.0521777
-0.0253978
-0.0121158
-0.00566586
-0.00259811
-0.00116853
-0.00051562
-0.000223273
-9.49001e-05
-3.96034e-05
-1.62308e-05
-6.53417e-06
-2.58459e-06
-1.00475e-06
-3.8396e-07
-1.44241e-07
-5.32619e-08
-1.93444e-08
-6.9128e-09
-2.45647e-09
-8.96753e-10
-3.15016e-10
-8.45165e-11
-5.48809e-12
5.48809e-12
0
2.19523e-12
0
1.09762e-12
0
-2.19524e-12
0
-5.48809e-12
-1.75619e-11
4.39047e-12
1.86595e-11
0
-1.09762e-12
1.09762e-12
0
0
0
0
0
8.78094e-12
-8.78094e-12
-2893.84
-2818.62
-2674.05
-2471.1
-2224.46
-1950.78
-1666.79
-1387.7
-1125.92
-890.396
-686.427
-515.963
-378.216
-270.426
-188.641
-128.412
-85.3211
-55.3474
-35.0621
-21.6965
-13.118
-7.75157
-4.47788
-2.52952
-1.39767
-0.755599
-0.399782
-0.207071
-0.105027
-0.0521779
-0.0253979
-0.0121158
-0.00566588
-0.00259812
-0.00116854
-0.000515623
-0.000223273
-9.49005e-05
-3.96036e-05
-1.62308e-05
-6.53421e-06
-2.5846e-06
-1.00473e-06
-3.83919e-07
-1.44212e-07
-5.32696e-08
-1.93642e-08
-6.92048e-09
-2.46196e-09
-8.95656e-10
-3.00747e-10
-8.01261e-11
-1.20738e-11
-1.09762e-12
-2.19523e-12
0
0
0
-1.09762e-12
0
1.09762e-12
-1.09762e-12
0
1.09762e-12
-3.29285e-12
0
3.29285e-12
9.87856e-12
3.29285e-12
-8.78094e-12
-2.41476e-11
-1.09762e-12
1.64643e-11
2.19523e-12
2.19523e-12
-2893.84
-2818.62
-2674.05
-2471.1
-2224.46
-1950.78
-1666.79
-1387.7
-1125.92
-890.396
-686.427
-515.963
-378.216
-270.426
-188.641
-128.412
-85.3212
-55.3475
-35.0621
-21.6965
-13.118
-7.75158
-4.47789
-2.52952
-1.39767
-0.7556
-0.399782
-0.207071
-0.105027
-0.052178
-0.0253979
-0.0121158
-0.00566589
-0.00259813
-0.00116854
-0.000515624
-0.000223274
-9.49007e-05
-3.96037e-05
-1.62309e-05
-6.53421e-06
-2.58461e-06
-1.00474e-06
-3.83938e-07
-1.44226e-07
-5.32498e-08
-1.93631e-08
-6.91609e-09
-2.43561e-09
-8.82484e-10
-3.17211e-10
-7.57356e-11
-6.5857e-12
-1.53666e-11
0
1.20738e-11
-1.09762e-12
-9.87856e-12
0
-1.09762e-12
1.09762e-12
0
0
0
0
0
9.87856e-12
2.19523e-12
-9.87856e-12
-6.58571e-12
-1.09762e-12
5.48809e-12
0
0
0
-2893.84
-2818.62
-2674.05
-2471.1
-2224.46
-1950.78
-1666.79
-1387.7
-1125.92
-890.396
-686.427
-515.963
-378.216
-270.426
-188.641
-128.412
-85.3212
-55.3475
-35.0621
-21.6965
-13.118
-7.75158
-4.47789
-2.52952
-1.39767
-0.755601
-0.399783
-0.207071
-0.105027
-0.052178
-0.0253979
-0.0121158
-0.00566589
-0.00259813
-0.00116854
-0.000515624
-0.000223274
-9.49008e-05
-3.96037e-05
-1.62309e-05
-6.53422e-06
-2.5846e-06
-1.00475e-06
-3.83943e-07
-1.44229e-07
-5.32586e-08
-1.93433e-08
-6.91609e-09
-2.44659e-09
-8.69313e-10
-3.09528e-10
-8.12237e-11
2.19523e-12
1.09762e-12
2.19524e-12
8.78094e-12
-1.31714e-11
-9.87856e-12
1.20738e-11
-1.09762e-12
-4.39047e-12
-3.29285e-12
4.39047e-12
3.29285e-12
0
0
1.09762e-12
-1.09762e-12
7.68332e-12
1.09762e-12
-4.39047e-12
0
-2.19524e-12
0
-2.19524e-12
-2893.84
-2818.62
-2674.05
-2471.1
-2224.46
-1950.78
-1666.79
-1387.7
-1125.92
-890.396
-686.427
-515.963
-378.216
-270.426
-188.641
-128.412
-85.3212
-55.3475
-35.0621
-21.6965
-13.118
-7.75158
-4.47789
-2.52952
-1.39767
-0.755601
-0.399783
-0.207071
-0.105027
-0.052178
-0.025398
-0.0121158
-0.0056659
-0.00259813
-0.00116854
-0.000515624
-0.000223274
-9.49008e-05
-3.96037e-05
-1.62309e-05
-6.53423e-06
-2.5846e-06
-1.00473e-06
-3.83948e-07
-1.44242e-07
-5.3274e-08
-1.9351e-08
-6.89962e-09
-2.43781e-09
-8.72606e-10
-3.01845e-10
-6.91499e-11
6.5857e-12
0
-2.19523e-12
0
-1.75619e-11
-9.87856e-12
5.48809e-12
5.48809e-12
1.20738e-11
4.39047e-12
-2.19523e-12
0
-7.68332e-12
0
1.4269e-11
0
-4.39047e-12
-7.68332e-12
-1.09762e-12
-1.09762e-12
0
1.64643e-11
-6.5857e-12
-2893.84
-2818.62
-2674.05
-2471.1
-2224.46
-1950.78
-1666.79
-1387.7
-1125.92
-890.396
-686.427
-515.963
-378.216
-270.426
-188.641
-128.412
-85.3212
-55.3475
-35.0621
-21.6965
-13.118
-7.75158
-4.47789
-2.52952
-1.39767
-0.755601
-0.399783
-0.207071
-0.105027
-0.052178
-0.025398
-0.0121158
-0.0056659
-0.00259813
-0.00116854
-0.000515624
-0.000223274
-9.49009e-05
-3.96037e-05
-1.62309e-05
-6.53421e-06
-2.58458e-06
-1.00472e-06
-3.83956e-07
-1.44246e-07
-5.3263e-08
-1.93499e-08
-6.90731e-09
-2.45427e-09
-8.86875e-10
-2.75502e-10
-6.14666e-11
-1.53666e-11
-1.09762e-12
8.78094e-12
3.29285e-12
-1.09762e-11
-9.87856e-12
1.09762e-12
-5.48809e-12
1.09762e-12
1.31714e-11
-5.48809e-12
-1.09762e-12
6.5857e-12
0
1.09762e-12
0
-1.09762e-12
-1.31714e-11
0
6.58571e-12
-4.39047e-12
6.5857e-12
4.39047e-12
-2893.84
-2818.62
-2674.05
-2471.1
-2224.46
-1950.78
-1666.79
-1387.7
-1125.92
-890.396
-686.427
-515.963
-378.216
-270.426
-188.641
-128.412
-85.3212
-55.3475
-35.0621
-21.6965
-13.118
-7.75158
-4.47789
-2.52952
-1.39767
-0.755601
-0.399783
-0.207071
-0.105027
-0.052178
-0.025398
-0.0121158
-0.0056659
-0.00259813
-0.00116854
-0.000515624
-0.000223274
-9.49009e-05
-3.96037e-05
-1.62309e-05
-6.53421e-06
-2.58458e-06
-1.00473e-06
-3.83939e-07
-1.4424e-07
-5.32674e-08
-1.93587e-08
-6.93255e-09
-2.43452e-09
-8.55044e-10
-2.93064e-10
-7.68332e-11
-1.64643e-11
0
1.53666e-11
1.09762e-12
-1.75619e-11
8.78094e-12
1.31714e-11
-8.78094e-12
2.19524e-12
0
-2.19524e-12
-1.09762e-12
1.09762e-12
-3.29285e-12
4.39047e-12
4.39047e-12
1.09762e-12
-2.19524e-12
-5.48809e-12
1.09762e-12
1.09762e-12
-1.09762e-12
0
-2893.84
-2818.62
-2674.05
-2471.1
-2224.46
-1950.78
-1666.79
-1387.7
-1125.92
-890.396
-686.427
-515.963
-378.216
-270.426
-188.641
-128.412
-85.3212
-55.3475
-35.0621
-21.6965
-13.118
-7.75158
-4.47789
-2.52952
-1.39767
-0.755601
-0.399783
-0.207071
-0.105027
-0.052178
-0.025398
-0.0121158
-0.0056659
-0.00259813
-0.00116854
-0.000515624
-0.000223274
-9.49009e-05
-3.96037e-05
-1.62309e-05
-6.53419e-06
-2.58458e-06
-1.00474e-06
-3.83946e-07
-1.44226e-07
-5.32795e-08
-1.93675e-08
-6.94353e-09
-2.45537e-09
-8.48458e-10
-2.73307e-10
-7.90285e-11
-2.08547e-11
1.09762e-12
-1.09762e-11
-1.09762e-12
9.87856e-12
0
3.29285e-12
-1.09762e-12
-2.19523e-12
-1.09762e-12
-5.48809e-12
-2.19523e-12
7.68332e-12
4.39047e-12
1.31714e-11
0
-1.31714e-11
8.78094e-12
1.31714e-11
-1.09762e-11
-1.09762e-11
-1.09762e-12
1.09762e-12
-2893.84
-2818.62
-2674.05
-2471.1
-2224.46
-1950.78
-1666.79
-1387.7
-1125.92
-890.396
-686.427
-515.963
-378.216
-270.426
-188.641
-128.412
-85.3212
-55.3475
-35.0621
-21.6965
-13.118
-7.75158
-4.47789
-2.52952
-1.39767
-0.755601
-0.399783
-0.207071
-0.105027
-0.052178
-0.025398
-0.0121158
-0.0056659
-0.00259813
-0.00116854
-0.000515624
-0.000223274
-9.49009e-05
-3.96037e-05
-1.62309e-05
-6.53419e-06
-2.58458e-06
-1.0047e-06
-3.83937e-07
-1.44242e-07
-5.32871e-08
-1.93675e-08
-6.94902e-09
-2.47293e-09
-8.51751e-10
-2.73307e-10
-7.35404e-11
-1.31714e-11
-1.4269e-11
0
4.39047e-12
-8.78094e-12
-5.48809e-12
0
0
0
0
0
-3.29285e-12
0
4.39047e-12
0
-1.09762e-12
-8.78094e-12
-6.58571e-12
1.53666e-11
5.48809e-12
-8.78094e-12
0
3.29285e-12
-2893.84
-2818.62
-2674.05
-2471.1
-2224.46
-1950.78
-1666.79
-1387.7
-1125.92
-890.396
-686.427
-515.963
-378.216
-270.426
-188.641
-128.412
-85.3212
-55.3475
-35.0621
-21.6965
-13.118
-7.75158
-4.47789
-2.52952
-1.39767
-0.755601
-0.399783
-0.207071
-0.105027
-0.052178
-0.025398
-0.0121158
-0.0056659
-0.00259813
-0.00116854
-0.000515624
-0.000223274
-9.49009e-05
-3.96037e-05
-1.62309e-05
-6.5342e-06
-2.58457e-06
-1.0047e-06
-3.83922e-07
-1.44236e-07
-5.33047e-08
-1.94015e-08
-6.92816e-09
-2.45318e-09
-8.53946e-10
-2.64526e-10
-7.90285e-11
-3.95142e-11
-2.305e-11
0
1.53666e-11
0
-1.31714e-11
0
-1.09762e-12
-3.29285e-12
-1.09762e-12
4.39047e-12
0
0
0
0
1.09762e-12
-1.09762e-12
-7.68332e-12
1.09762e-12
7.68332e-12
-8.78094e-12
0
7.68332e-12
-2893.84
-2818.62
-2674.05
-2471.1
-2224.46
-1950.78
-1666.79
-1387.7
-1125.92
-890.396
-686.427
-515.963
-378.216
-270.426
-188.641
-128.412
-85.3212
-55.3475
-35.0621
-21.6965
-13.118
-7.75158
-4.47789
-2.52952
-1.39767
-0.755601
-0.399783
-0.207071
-0.105027
-0.052178
-0.025398
-0.0121158
-0.0056659
-0.00259813
-0.00116854
-0.000515624
-0.000223274
-9.49009e-05
-3.96037e-05
-1.62309e-05
-6.53422e-06
-2.58461e-06
-1.0047e-06
-3.83891e-07
-1.44232e-07
-5.33157e-08
-1.93861e-08
-6.92706e-09
-2.45098e-09
-8.6602e-10
-2.88673e-10
-9.00046e-11
-3.07333e-11
-3.29285e-12
-9.87856e-12
0
4.39047e-12
0
5.48809e-12
0
-2.19523e-12
5.48809e-12
2.19523e-12
-4.39047e-12
0
-1.09762e-12
0
7.68332e-12
7.68332e-12
-6.5857e-12
-9.87856e-12
-7.68332e-12
-2.19523e-12
3.29285e-12
7.68332e-12
-2893.84
-2818.62
-2674.05
-2471.1
-2224.46
-1950.78
-1666.79
-1387.7
-1125.92
-890.396
-686.427
-515.963