/*--------------------------------*- C++ -*----------------------------------*\
  =========                 |
  \\      /  F ield         | OpenFOAM: The Open Source CFD Toolbox
   \\    /   O peration     | Website:  https://openfoam.org
    \\  /    A nd           | Version:  10
     \\/     M anipulation  |
\*---------------------------------------------------------------------------*/
FoamFile
{
    format      ascii;
    class       volScalarField;
    location    "282";
    object      gradTx;
}
// * * * * * * * * * * * * * * * * * * * * * * * * * * * * * * * * * * * * * //

dimensions      [0 -1 0 1 0 0 0];

internalField   nonuniform List<scalar> 
11250
(
14295.7
8091.63
5289.98
3799.8
2894.89
2288.28
1851.65
1520.98
1261.27
1051.91
880.003
737.005
617.018
515.791
430.139
357.597
296.194
244.314
200.604
163.909
133.236
107.717
86.5984
69.2178
54.9975
43.4337
34.0895
26.5877
20.6047
15.8653
12.1365
9.22309
6.96267
5.2212
3.88905
2.87727
2.11429
1.54308
1.11851
0.80521
0.575691
0.408765
0.288242
0.201852
0.140378
0.0969506
0.0664941
0.0452891
0.0306323
0.0205749
0.0137235
0.00908992
0.00597883
0.00390509
0.00253279
0.00163124
0.00104322
0.000662484
0.000417737
0.000261549
0.000162598
0.000100364
6.15088e-05
3.74262e-05
2.26089e-05
1.35593e-05
8.0728e-06
4.77094e-06
2.79827e-06
1.62792e-06
9.37739e-07
5.31886e-07
2.91523e-07
1.44054e-07
4.32736e-08
4091.58
4690.56
3980.68
3217.5
2600.29
2122.67
1750.6
1455.36
1216.61
1020.4
857.147
720.071
604.266
506.069
422.658
351.801
291.682
240.792
197.849
161.754
131.55
106.401
85.5731
68.421
54.3803
42.9575
33.7235
26.3076
20.3915
15.7037
12.0147
9.13176
6.89458
5.17073
3.85186
2.85002
2.09445
1.52872
1.10818
0.797832
0.570453
0.40507
0.285652
0.200049
0.139131
0.0960935
0.0659091
0.0448925
0.0303652
0.0203963
0.0136048
0.00901158
0.00592749
0.00387167
0.00251119
0.00161737
0.00103438
0.000656887
0.000414218
0.000259352
0.000161237
9.95267e-05
6.09969e-05
3.71157e-05
2.24219e-05
1.34475e-05
8.00641e-06
4.73184e-06
2.77542e-06
1.61469e-06
9.30141e-07
5.27602e-07
2.8923e-07
1.42916e-07
4.29509e-08
1472.11
2599.66
2726.83
2492.2
2169.77
1855.81
1577.6
1338.59
1135.05
961.823
814.118
687.895
579.868
487.368
408.207
340.568
282.915
233.931
192.474
157.542
128.253
103.824
83.5628
66.8576
53.1685
42.0218
33.004
25.7568
19.9719
15.3856
11.7748
8.95189
6.76043
5.07126
3.77853
2.79629
2.05533
1.50041
1.08782
0.783276
0.560116
0.397777
0.28054
0.196489
0.136668
0.094401
0.0647537
0.044109
0.0298375
0.0200432
0.0133703
0.00885677
0.00582601
0.00380561
0.00246848
0.00158995
0.0010169
0.000645817
0.000407259
0.000255007
0.000158543
9.78689e-05
5.99838e-05
3.65009e-05
2.20517e-05
1.32261e-05
7.87502e-06
4.65442e-06
2.73016e-06
1.58846e-06
9.15109e-07
5.19102e-07
2.84564e-07
1.40609e-07
4.22671e-08
669.737
1510.44
1836.9
1857.61
1734.41
1557.45
1370.2
1191.57
1028.73
883.517
755.519
643.46
545.81
461.043
387.73
324.566
270.372
224.082
184.735
151.464
123.484
100.089
80.6458
64.5861
51.4059
40.6595
31.9555
24.9536
19.3595
14.9212
11.4244
8.68898
6.56428
4.92576
3.67125
2.71765
1.99804
1.45893
1.05798
0.761948
0.544967
0.387087
0.273045
0.191269
0.133056
0.0919184
0.0630587
0.0429595
0.0290632
0.0195251
0.0130259
0.0086295
0.00567703
0.00370861
0.00240576
0.00154968
0.000991221
0.000629557
0.000397034
0.000248623
0.000154585
9.54326e-05
5.84949e-05
3.55975e-05
2.15074e-05
1.29006e-05
7.68181e-06
4.54058e-06
2.66358e-06
1.54985e-06
8.92927e-07
5.06564e-07
2.77706e-07
1.37236e-07
4.12342e-08
366.566
936.713
1254.81
1369.75
1356.36
1273.53
1158.84
1033.88
910.222
793.652
686.756
590.411
504.599
428.848
362.472
304.691
254.703
211.721
174.984
143.78
117.439
95.3444
76.9321
61.6892
49.1546
38.9171
30.613
23.9241
18.574
14.3249
10.9742
8.35095
6.31193
4.73848
3.53308
2.61634
1.92421
1.40546
1.0195
0.73443
0.525416
0.373286
0.263367
0.184527
0.12839
0.0887108
0.0608682
0.0414737
0.0280621
0.0188552
0.0125807
0.00833558
0.00548432
0.00358313
0.00232462
0.00149757
0.000957988
0.00060851
0.000383799
0.000240358
0.000149461
9.22777e-05
5.65664e-05
3.44272e-05
2.08024e-05
1.24789e-05
7.43146e-06
4.39305e-06
2.57732e-06
1.4998e-06
8.64188e-07
4.90297e-07
2.68812e-07
1.32861e-07
3.99313e-08
226.793
616.269
877.878
1012.96
1051.19
1025.51
962.283
879.83
789.892
699.591
613.036
532.446
458.877
392.688
333.818
281.958
236.662
197.407
163.64
134.804
110.353
89.7667
72.5557
58.2679
46.4908
36.852
29.0196
22.7006
17.6393
13.6146
10.4375
7.94765
6.01064
4.51472
3.3679
2.49515
1.83584
1.34144
0.973405
0.701456
0.501981
0.356739
0.25176
0.176438
0.122791
0.0848603
0.0582382
0.0396894
0.0268597
0.0180504
0.0120456
0.00798231
0.00525267
0.00343227
0.00222705
0.0014349
0.000918014
0.000583191
0.000367873
0.000230412
0.000143293
8.84799e-05
5.42447e-05
3.30181e-05
1.99533e-05
1.1971e-05
7.12987e-06
4.2153e-06
2.47337e-06
1.43952e-06
8.29596e-07
4.70725e-07
2.58104e-07
1.27576e-07
3.83486e-08
151.525
424.872
629.416
755.652
813.22
818.894
789.313
738.025
674.985
607.052
538.732
472.857
411.112
354.41
303.153
257.409
217.03
181.732
151.15
124.877
102.486
83.5526
67.6656
54.4354
43.5001
34.5291
27.2241
21.3198
16.583
12.8111
9.8296
7.49042
5.66875
4.26061
3.18018
2.35733
1.7353
1.26855
0.920899
0.663879
0.475263
0.337865
0.238515
0.167205
0.116397
0.0804628
0.0552337
0.0376504
0.0254853
0.0171303
0.0114338
0.00757827
0.00498767
0.00325965
0.00211538
0.00136316
0.00087225
0.000554199
0.000349635
0.000219019
0.000136226
8.41281e-05
5.15838e-05
3.14028e-05
1.89798e-05
1.13886e-05
6.78396e-06
4.01139e-06
2.35409e-06
1.37034e-06
7.89864e-07
4.48256e-07
2.45828e-07
1.21508e-07
3.65166e-08
106.336
303.402
461.107
569.539
630.284
651.226
642.207
612.51
569.799
519.923
467.11
414.288
363.394
315.646
271.743
232.021
196.563
165.277
137.962
114.342
94.1005
76.9046
62.4171
50.3101
40.273
32.0169
25.2785
19.8211
15.4348
11.9363
9.16701
6.99149
5.29531
3.9828
2.97478
2.20642
1.62512
1.18862
0.863295
0.622631
0.445919
0.317128
0.223957
0.157052
0.109364
0.0756235
0.0519263
0.0354052
0.0239715
0.0161165
0.0107596
0.00713289
0.00469548
0.00306929
0.00199221
0.00128402
0.000821748
0.000522198
0.0003295
0.000206439
0.000128422
7.93209e-05
4.86438e-05
2.96176e-05
1.79037e-05
1.07446e-05
6.40142e-06
3.78583e-06
2.22209e-06
1.2937e-06
7.45799e-07
4.23344e-07
2.32228e-07
1.14795e-07
3.44981e-08
77.1117
222.356
343.815
433.498
490.123
517.008
519.713
504.302
476.345
440.484
400.353
358.662
317.345
277.728
240.664
206.654
175.94
148.578
124.494
103.526
85.4519
70.0201
56.9626
46.0097
36.8996
29.3846
23.2355
18.2442
14.2247
11.013
8.46668
6.46349
4.89966
3.68816
2.75674
2.04609
1.50797
1.10358
0.801961
0.578684
0.414639
0.29501
0.208422
0.146214
0.101853
0.0704531
0.0483913
0.0330047
0.0223524
0.015032
0.010038
0.00665612
0.00438262
0.0028654
0.00186025
0.00119921
0.000767618
0.000487892
0.000307909
0.000192947
0.000120049
7.41624e-05
4.54883e-05
2.77011e-05
1.67481e-05
1.00529e-05
5.9904e-06
3.54341e-06
2.08019e-06
1.2113e-06
6.9843e-07
3.96549e-07
2.17562e-07
1.07587e-07
3.23479e-08
57.2023
166.093
259.938
332.753
382.493
410.248
419.028
412.672
395.081
369.778
339.714
307.234
274.119
241.664
210.767
182.011
155.735
132.098
111.119
92.724
76.7727
63.0819
51.445
41.6453
33.466
26.6984
21.1459
16.6281
12.9821
10.0633
7.74525
5.91884
4.49104
3.38351
2.53106
1.87998
1.3865
1.01533
0.738268
0.533018
0.382113
0.271999
0.192251
0.134926
0.0940268
0.0650635
0.0447049
0.0305004
0.0206627
0.0138997
0.00928448
0.00615806
0.00405569
0.00265228
0.00172229
0.00111051
0.000710994
0.000451994
0.000285311
0.000178821
0.000111282
6.87593e-05
4.21823e-05
2.56927e-05
1.55368e-05
9.32762e-06
5.55929e-06
3.28907e-06
1.93126e-06
1.12483e-06
6.48722e-07
3.68367e-07
2.02116e-07
9.99864e-08
3.00747e-08
43.1194
125.807
198.616
257.171
299.447
325.514
336.917
336.033
325.525
307.988
285.734
260.702
234.443
208.144
182.673
158.632
136.407
116.216
98.1461
82.1886
68.2654
56.2514
45.992
37.3171
30.0506
24.019
19.0565
15.0086
11.7344
9.10804
7.01846
5.36934
4.07822
3.07538
2.30254
1.71161
1.26327
0.92572
0.673541
0.486576
0.349014
0.248567
0.175774
0.123418
0.0860441
0.0595637
0.0409414
0.0279426
0.0189363
0.0127424
0.00851399
0.00564863
0.00372119
0.00243416
0.00158104
0.00101968
0.000652988
0.000415211
0.000262149
0.000164338
0.000102291
6.32166e-05
3.87898e-05
2.36313e-05
1.42932e-05
8.58275e-06
5.11638e-06
3.02768e-06
1.77818e-06
1.03591e-06
5.97546e-07
3.39371e-07
1.86257e-07
9.2123e-08
2.76995e-08
32.8765
96.2589
152.96
199.793
235.013
258.263
270.274
272.485
266.689
254.757
238.454
219.335
198.7
177.589
156.795
136.897
118.291
101.223
85.8215
72.123
60.0968
49.6637
40.7122
33.1115
26.7214
21.4
17.009
13.4179
10.5064
8.16612
6.30057
4.82574
3.66927
2.76972
2.0756
1.54422
1.14062
0.836461
0.609013
0.440241
0.315966
0.225155
0.159302
0.111907
0.0780545
0.0540562
0.0371709
0.0253789
0.0172051
0.0115814
0.00774076
0.00513721
0.00338526
0.00221503
0.00143909
0.000928366
0.000594659
0.000378211
0.000238844
0.000149762
9.32383e-05
5.76347e-05
3.53724e-05
2.1554e-05
1.30395e-05
7.83168e-06
4.66971e-06
2.76396e-06
1.62367e-06
9.46108e-07
5.45852e-07
3.10098e-07
1.70222e-07
8.41873e-08
2.53198e-08
25.269
74.1805
118.464
155.795
184.751
204.839
216.345
220.126
217.374
209.418
197.585
183.093
167.002
150.193
133.365
117.045
101.614
87.3241
74.3246
62.6812
52.3964
43.4259
35.6929
29.0992
23.5351
18.8861
15.0385
11.8834
9.31938
7.2538
5.60402
4.29744
3.27124
2.47184
1.85415
1.3807
1.02069
0.749087
0.545792
0.394805
0.283535
0.202165
0.143114
0.100588
0.0701937
0.0486345
0.0334572
0.0228526
0.0154984
0.0104363
0.00697783
0.00463239
0.00305355
0.00199857
0.00129883
0.000838105
0.000536983
0.000341614
0.000215784
0.000135335
8.42759e-05
5.21065e-05
3.19868e-05
1.94953e-05
1.17967e-05
7.08688e-06
4.2266e-06
2.50224e-06
1.47028e-06
8.56922e-07
4.94516e-07
2.80983e-07
1.54273e-07
7.63481e-08
2.29874e-08
19.5288
57.4467
92.0984
121.778
145.361
162.347
172.793
177.195
176.339
171.162
162.646
151.732
139.268
125.98
112.466
99.1904
86.5028
74.6459
63.7741
53.9695
45.2567
37.617
31.0001
25.3345
20.5358
16.5128
13.1733
10.4275
8.19058
6.38453
4.93914
3.79232
2.89009
2.18618
1.64152
1.22351
0.905266
0.664917
0.484831
0.350956
0.252211
0.179942
0.127457
0.0896319
0.0625803
0.0433805
0.0298563
0.0204018
0.0138419
0.00932447
0.00623667
0.00414178
0.00273104
0.00178804
0.00116235
0.000750254
0.000480826
0.000305968
0.000193317
0.000121274
7.55379e-05
4.6715e-05
2.86837e-05
1.74862e-05
1.05835e-05
6.35947e-06
3.79364e-06
2.24647e-06
1.32028e-06
7.69674e-07
4.44293e-07
2.52542e-07
1.38711e-07
6.86659e-08
2.06583e-08
15.1461
44.626
71.7664
95.3088
114.377
128.518
137.679
142.136
142.402
139.136
133.059
124.887
115.287
104.85
94.0717
83.3541
73.0052
63.2488
54.2347
46.0513
38.7364
32.2891
26.6791
21.8559
17.7554
14.3063
11.4346
9.06703
7.13344
5.5688
4.31404
3.31662
2.53058
1.91636
1.44041
1.07464
0.795835
0.585031
0.426916
0.309261
0.222401
0.158776
0.112533
0.079182
0.055314
0.0383628
0.0264155
0.0180587
0.0122574
0.00826038
0.00552705
0.00367184
0.00242199
0.00158622
0.00103147
0.00066597
0.00042693
0.000271746
0.00017174
0.000107765
6.71402e-05
4.15316e-05
2.55071e-05
1.55533e-05
9.41581e-06
5.65915e-06
3.37667e-06
2.00004e-06
1.17574e-06
6.85593e-07
3.95863e-07
2.2507e-07
1.23643e-07
6.12196e-08
1.84092e-08
11.7702
34.7244
55.9832
74.6135
89.938
101.571
109.412
113.605
114.485
112.512
108.211
102.123
94.7676
86.6159
78.0753
69.4827
61.1041
53.1388
45.7258
38.9528
32.8642
27.4707
22.7564
18.6868
15.2144
12.284
9.8368
7.81372
6.1574
4.81411
3.73464
2.87493
2.19623
1.66505
1.25284
0.935627
0.693528
0.510265
0.372659
0.270162
0.194422
0.138894
0.0985034
0.0693516
0.0484738
0.0336365
0.0231726
0.0158491
0.0107624
0.00725587
0.00485684
0.00322779
0.00212984
0.00139535
0.000907645
0.0005862
0.000375902
0.000239332
0.000151295
9.4961e-05
5.91777e-05
3.66151e-05
2.2493e-05
1.37187e-05
8.30707e-06
4.99395e-06
2.98048e-06
1.76578e-06
1.0383e-06
6.05609e-07
3.49772e-07
1.98887e-07
1.0927e-07
5.41071e-08
1.6293e-08
9.15345
27.0332
43.6731
58.3786
70.6289
80.106
86.6955
90.4661
91.6334
90.517
87.4988
82.9849
77.3756
71.0425
64.3148
57.4706
50.7346
44.2797
38.2307
32.6698
27.6438
23.1697
19.2419
15.8379
12.9229
10.455
8.38796
6.67452
5.26827
4.1252
3.20473
2.47026
1.88943
1.4341
1.08023
0.807532
0.599144
0.441212
0.322496
0.233978
0.168506
0.120463
0.0854873
0.0602243
0.0421184
0.0292423
0.0201556
0.0137923
0.00936995
0.00631983
0.00423201
0.00281361
0.00185723
0.00121717
0.000792
0.00051167
0.000328206
0.000209024
0.000132172
8.29799e-05
5.17244e-05
3.20114e-05
1.96696e-05
1.19995e-05
7.26773e-06
4.37014e-06
2.60879e-06
1.54594e-06
9.09238e-07
5.30434e-07
3.06417e-07
1.74302e-07
9.57803e-08
4.7405e-08
1.42602e-08
7.11644
21.0357
34.0421
45.617
55.3612
63.0179
68.4769
71.7629
73.0139
72.4519
70.3534
67.0216
62.7624
57.8665
52.5962
47.178
41.7985
36.6046
31.7051
27.1747
23.0586
19.3774
16.132
13.3085
10.8823
8.82169
7.09076
5.65212
4.46852
3.50428
2.72623
2.10421
1.61144
1.22453
0.923377
0.690983
0.513163
0.378236
0.276699
0.200911
0.1448
0.103589
0.0735616
0.0518553
0.0362868
0.0252075
0.0173837
0.0119014
0.00808914
0.00545835
0.00365665
0.00243205
0.00160596
0.00105287
0.000685318
0.000442889
0.000284173
0.000181033
0.000114503
7.19061e-05
4.48331e-05
2.77532e-05
1.70572e-05
1.04082e-05
6.30537e-06
3.79233e-06
2.26437e-06
1.34217e-06
7.89549e-07
4.60723e-07
2.66221e-07
1.51465e-07
8.32543e-08
4.11958e-08
1.23767e-08
5.5265
16.3479
26.494
35.5764
43.29
49.4306
53.8993
56.6975
57.9123
57.6976
56.2532
53.8044
50.5837
46.8164
42.7097
38.4456
34.1768
30.0258
26.0857
22.4222
19.0772
16.0722
13.4122
11.0894
9.0867
7.38048
5.94322
4.74554
3.75783
2.9514
2.29935
1.77708
1.36262
1.03666
0.782568
0.586217
0.43578
0.321493
0.23539
0.171055
0.123376
0.0883261
0.0627655
0.0442731
0.0309997
0.0215469
0.0148673
0.0101837
0.00692495
0.0046749
0.00313313
0.00208469
0.00137711
0.000903154
0.000588069
0.000380163
0.000243999
0.000155485
9.83713e-05
6.17916e-05
3.85363e-05
2.3861e-05
1.46684e-05
8.95263e-06
5.42477e-06
3.2634e-06
1.94896e-06
1.15544e-06
6.79883e-07
3.9683e-07
2.29363e-07
1.30489e-07
7.17392e-08
3.55233e-08
1.06732e-08
4.28393
12.6802
20.575
27.6773
33.7545
38.6458
42.2667
44.6066
45.7197
45.7128
44.7298
42.9375
40.5118
37.6261
34.4424
31.1054
27.7388
24.4431
21.2964
18.3553
15.6572
13.2229
11.0598
9.16416
7.52443
6.12325
4.93968
3.95091
3.13356
2.46477
1.92293
1.48813
1.14247
0.870192
0.657626
0.493134
0.366942
0.270958
0.198562
0.14441
0.104239
0.0746796
0.0531046
0.0374829
0.0262613
0.0182639
0.0126089
0.00864122
0.00587891
0.00397055
0.00266222
0.00177208
0.00117105
0.000768295
0.000500428
0.000323611
0.000207766
0.000132433
8.38099e-05
5.26585e-05
3.28485e-05
2.0344e-05
1.25092e-05
7.6364e-06
4.62818e-06
2.78477e-06
1.66344e-06
9.86374e-07
5.80511e-07
3.38899e-07
1.95884e-07
1.11474e-07
6.13074e-08
3.03689e-08
9.13986e-09
3.31269
9.81059
15.9354
21.4688
26.2339
30.1052
33.0125
34.9402
35.9215
36.0301
35.3697
34.0634
32.2436
30.0428
27.587
24.9901
22.3508
19.7508
17.2547
14.9101
12.7496
10.7924
9.04679
7.51183
6.1799
5.03845
4.07171
3.26207
2.59127
2.04122
1.5947
1.23573
0.949876
0.724339
0.548002
0.411357
0.306391
0.226454
0.166094
0.120897
0.0873339
0.0626145
0.044556
0.0314696
0.022062
0.0153524
0.0106047
0.00727148
0.00494946
0.00334435
0.00224334
0.00149387
0.000987582
0.000648159
0.000422322
0.000273189
0.000175447
0.000111865
7.0812e-05
4.45029e-05
2.77677e-05
1.72012e-05
1.0579e-05
6.45939e-06
3.91562e-06
2.35648e-06
1.40789e-06
8.35023e-07
4.91512e-07
2.86994e-07
1.65905e-07
9.44511e-08
5.19426e-08
2.57249e-08
7.75906e-09
2.55415
7.56761
12.3032
16.5972
20.3154
23.3605
25.6755
27.2436
28.0847
28.2494
27.8124
26.8644
25.5044
23.8333
21.9482
19.9381
17.8812
15.843
13.8759
12.0196
10.3019
8.73988
7.34171
6.10829
5.0348
4.11227
3.32892
2.6713
2.12523
1.67653
1.31158
1.01766
0.783202
0.59793
0.452862
0.340291
0.253707
0.187689
0.137781
0.100371
0.0725634
0.0520632
0.0370736
0.0262022
0.0183806
0.0127982
0.0088453
0.00606826
0.00413251
0.00279364
0.00187475
0.00124894
0.000825979
0.000542294
0.000353463
0.000228719
0.000146931
9.3709e-05
5.93346e-05
3.72989e-05
2.32781e-05
1.44231e-05
8.87221e-06
5.41829e-06
3.28511e-06
1.97738e-06
1.18161e-06
7.00901e-07
4.12647e-07
2.40973e-07
1.39366e-07
7.93457e-08
4.36127e-08
2.16143e-08
6.48911e-09
1.96268
5.81747
9.46529
12.7834
15.6704
18.0513
19.8805
21.142
21.8472
22.031
21.7471
21.062
20.0496
18.7863
17.3464
15.7988
14.205
12.6169
11.0768
9.61711
8.26095
7.02321
5.9116
4.92793
4.06934
3.32952
2.69975
2.16983
1.72885
1.36578
1.06991
0.831199
0.640474
0.489525
0.371159
0.279184
0.20835
0.154277
0.113352
0.0826436
0.0597938
0.0429329
0.0305935
0.0216366
0.0151875
0.0105811
0.00731706
0.00502247
0.00342202
0.00231442
0.00155384
0.00103557
0.000685135
0.000449986
0.000293396
0.00018991
0.000122036
7.78525e-05
4.9307e-05
3.10026e-05
1.93528e-05
1.19934e-05
7.379e-06
4.50719e-06
2.73317e-06
1.64541e-06
9.83346e-07
5.83355e-07
3.43487e-07
2.00629e-07
1.16036e-07
6.60623e-08
3.63366e-08
1.80075e-08
5.40796e-09
1.50255
4.45516
7.2537
9.80638
12.0367
13.8872
15.3219
16.3266
16.9075
17.0886
16.9083
16.4153
15.6647
14.7137
13.6192
12.4342
11.2062
9.97643
8.7783
7.63803
6.57468
5.60085
4.72347
3.94478
3.26324
2.67447
2.17208
1.74841
1.39511
1.10365
0.865701
0.673396
0.519496
0.397507
0.301714
0.227178
0.169703
0.125774
0.0924911
0.0674895
0.0488677
0.0351138
0.0250392
0.0177202
0.0124462
0.00867637
0.00600326
0.00412284
0.00281046
0.00190169
0.0012773
0.00085162
0.000563648
0.000370327
0.000241538
0.000156391
0.000100525
6.41467e-05
4.06364e-05
2.55565e-05
1.59564e-05
9.89046e-06
6.08619e-06
3.71812e-06
2.25502e-06
1.35772e-06
8.11498e-07
4.81479e-07
2.83527e-07
1.65611e-07
9.57792e-08
5.45395e-08
3.00286e-08
1.48925e-08
4.49913e-09
1.14562
3.39788
5.53561
7.49029
9.20436
10.6342
11.7516
12.5444
13.0158
13.1822
13.071
12.7178
12.1635
11.4509
10.623
9.7203
8.77969
7.83305
6.90684
6.02196
5.19387
4.43302
3.74546
3.13353
2.59655
2.13152
1.73382
1.3977
1.11684
0.884709
0.694858
0.541165
0.417973
0.320179
0.243277
0.183361
0.137102
0.101705
0.0748553
0.0546655
0.0396129
0.0284847
0.0203263
0.0143944
0.0101165
0.00705652
0.0048852
0.00335676
0.00228936
0.00154981
0.00104141
0.000694625
0.000459914
0.000302278
0.000197218
0.000127734
8.21271e-05
5.24199e-05
3.32152e-05
2.08936e-05
1.30475e-05
8.0888e-06
4.97829e-06
3.04172e-06
1.84498e-06
1.11096e-06
6.6411e-07
3.94077e-07
2.32076e-07
1.3556e-07
7.84292e-08
4.46917e-08
2.4602e-08
1.22066e-08
3.67153e-09
0.869689
2.58017
4.20568
5.69521
7.00562
8.10385
8.96815
9.58847
9.96602
10.1121
10.0462
9.79438
9.38661
8.85503
8.23188
7.54799
6.83156
6.10726
5.39575
4.71353
4.07297
3.48262
2.94763
2.47022
2.05023
1.68567
1.37321
1.10859
0.88704
0.703592
0.5533
0.431434
0.333601
0.255826
0.194582
0.146804
0.109871
0.0815775
0.0600927
0.0439202
0.0318509
0.02292
0.0163667
0.011598
0.00815627
0.00569253
0.0039431
0.00271083
0.00184974
0.00125278
0.000842176
0.000561962
0.000372215
0.000244722
0.000159717
0.000103475
6.65477e-05
4.24861e-05
2.69266e-05
1.69412e-05
1.05811e-05
6.56074e-06
4.03838e-06
2.46768e-06
1.49694e-06
9.01473e-07
5.38912e-07
3.19812e-07
1.88367e-07
1.10037e-07
6.36497e-08
3.6273e-08
1.99503e-08
9.88075e-09
2.97893e-09
0.657189
1.9502
3.18032
4.3097
5.30613
6.14471
6.80874
7.29011
7.589
7.71309
7.67636
7.49761
7.19894
6.80419
6.3375
5.82215
5.27957
4.7287
4.18553
3.66296
3.17076
2.71585
2.30247
1.93266
1.60657
1.32288
1.07922
0.872454
0.699025
0.555167
0.437111
0.341234
0.264149
0.202782
0.154394
0.116597
0.0873444
0.0649088
0.0478543
0.0350035
0.0254038
0.0182939
0.0130723
0.00926948
0.00652278
0.00455512
0.00315698
0.0021715
0.00148245
0.00100448
0.000675544
0.00045095
0.000298796
0.000196517
0.000128296
8.31416e-05
5.3484e-05
3.41536e-05
2.16501e-05
1.36238e-05
8.51047e-06
5.27753e-06
3.24885e-06
1.98542e-06
1.2045e-06
7.2539e-07
4.33654e-07
2.5735e-07
1.51571e-07
8.8536e-08
5.12017e-08
2.9145e-08
1.60373e-08
7.95663e-09
2.42025e-09
0.494224
1.46691
2.39321
3.24508
3.99861
4.63513
5.14192
5.51256
5.74668
5.84951
5.83098
5.70472
5.48689
5.19511
4.84736
4.46111
4.05255
3.63609
3.22401
2.82629
2.45061
2.10243
1.78524
1.50081
1.24943
1.03029
0.841682
0.681336
0.546599
0.434645
0.342624
0.267775
0.20751
0.159467
0.121536
0.0918703
0.068884
0.0512347
0.0378043
0.0276742
0.0200997
0.0144846
0.0103573
0.00734904
0.00517456
0.00361569
0.00250725
0.00172548
0.00117852
0.0007989
0.00053751
0.000358946
0.00023792
0.00015653
0.000102221
6.62615e-05
4.26355e-05
2.72317e-05
1.72655e-05
1.08664e-05
6.78889e-06
4.21042e-06
2.59216e-06
1.58425e-06
9.61141e-07
5.78841e-07
3.46052e-07
2.05361e-07
1.20949e-07
7.0658e-08
4.08566e-08
2.32344e-08
1.27927e-08
6.34642e-09
1.90876e-09
0.369811
1.09785
1.79177
2.43092
2.99759
3.47785
3.8621
4.14532
4.32691
4.41042
4.40288
4.31412
4.15594
3.9413
3.68351
3.39559
3.08971
2.77675
2.46607
2.16532
1.88045
1.61576
1.37406
1.15683
0.964435
0.79637
0.651452
0.528023
0.424129
0.337662
0.266479
0.208494
0.161742
0.124421
0.0949185
0.0718169
0.0538961
0.0401211
0.0296281
0.0217058
0.0157765
0.0113772
0.0081408
0.00577998
0.00407221
0.00284705
0.00197531
0.00136008
0.00092939
0.000630296
0.000424245
0.000283415
0.000187921
0.000123674
8.07874e-05
5.23814e-05
3.37121e-05
2.15365e-05
1.36568e-05
8.59641e-06
5.3713e-06
3.33153e-06
2.05121e-06
1.25368e-06
7.60597e-07
4.58058e-07
2.73836e-07
1.62513e-07
9.57013e-08
5.5906e-08
3.23161e-08
1.83961e-08
1.01189e-08
4.99635e-09
1.48947e-09
0.275287
0.817378
1.33447
1.81141
2.23513
2.59531
2.88476
3.09958
3.23914
3.30581
3.30457
3.24249
3.12815
2.97101
2.7809
2.56746
2.33977
2.10601
1.87322
1.64725
1.43267
1.2328
1.04988
0.885132
0.738924
0.610961
0.50042
0.406108
0.326591
0.260309
0.205661
0.161082
0.12509
0.0963217
0.0735515
0.055701
0.0418381
0.031171
0.0230371
0.0168901
0.0122852
0.00886562
0.00634786
0.00450981
0.00317921
0.00222396
0.00154382
0.00106351
0.000727071
0.000493299
0.000332166
0.000221984
0.000147238
9.69294e-05
6.33343e-05
4.1075e-05
2.64409e-05
1.68944e-05
1.07148e-05
6.74534e-06
4.21508e-06
2.61454e-06
1.60983e-06
9.83905e-07
5.96923e-07
3.5948e-07
2.14885e-07
1.27492e-07
7.50529e-08
4.38542e-08
2.53583e-08
1.44578e-08
7.94126e-09
3.92618e-09
1.17774e-09
0.203832
0.605309
0.988548
1.34246
1.65747
1.92597
2.14259
2.30436
2.41067
2.46311
2.46521
2.42201
2.33973
2.22526
2.08579
1.92845
1.75996
1.58639
1.41306
1.24437
1.08378
0.933871
0.796383
0.6723
0.561973
0.465238
0.381528
0.30999
0.24958
0.199148
0.157509
0.123495
0.0959975
0.073991
0.056552
0.0428652
0.0322244
0.024028
0.0177719
0.0130395
0.00949129
0.00685403
0.00491073
0.00349096
0.0024624
0.00172348
0.00119702
0.000825006
0.000564271
0.000383005
0.000258
0.000172481
0.00011444
7.536e-05
4.92535e-05
3.19502e-05
2.05711e-05
1.31461e-05
8.33861e-06
5.24997e-06
3.28088e-06
2.03515e-06
1.25309e-06
7.65851e-07
4.6462e-07
2.79768e-07
1.67228e-07
9.91939e-08
5.83922e-08
3.41063e-08
1.97253e-08
1.12166e-08
6.13897e-09
3.04479e-09
9.28584e-10
0.1501
0.445808
0.728264
0.989398
1.22222
1.42115
1.58222
1.70317
1.78348
1.8242
1.8278
1.7979
1.73897
1.656
1.55424
1.4389
1.31493
1.18685
1.05859
0.933458
0.814067
0.702381
0.599742
0.506934
0.424266
0.351657
0.288721
0.234852
0.189293
0.151205
0.119714
0.0939562
0.0731064
0.0564
0.0431458
0.0327319
0.024627
0.0183777
0.0136032
0.00998818
0.00727533
0.00525731
0.00376911
0.00268102
0.00189218
0.00132509
0.000920787
0.000634924
0.000434455
0.000295013
0.000198801
0.000132951
8.82396e-05
5.8123e-05
3.79971e-05
2.46535e-05
1.5876e-05
1.01471e-05
6.43709e-06
4.05312e-06
2.53305e-06
1.5713e-06
9.67451e-07
5.91229e-07
3.5865e-07
2.15941e-07
1.29056e-07
7.65632e-08
4.50824e-08
2.62945e-08
1.51987e-08
8.63496e-09
4.72634e-09
2.33573e-09
7.01378e-10
0.109916
0.326499
0.533499
0.725067
0.89613
1.04261
1.1616
1.2514
1.31157
1.34281
1.34686
1.32627
1.28426
1.22443
1.15058
1.06651
0.975848
0.881902
0.787589
0.69536
0.607178
0.524522
0.448418
0.37948
0.317968
0.263853
0.216874
0.176603
0.142495
0.11394
0.0903006
0.0709399
0.0552493
0.0426622
0.0326649
0.0248016
0.0186755
0.0139473
0.0103315
0.00759135
0.00553328
0.00400108
0.00287027
0.00204286
0.0014426
0.00101078
0.000702727
0.000484788
0.000331866
0.00022544
0.000151974
0.000101668
6.74976e-05
4.44721e-05
2.90797e-05
1.88714e-05
1.21545e-05
7.76952e-06
4.92928e-06
3.10391e-06
1.93989e-06
1.20334e-06
7.4088e-07
4.52735e-07
2.74611e-07
1.65339e-07
9.87944e-08
5.86029e-08
3.44904e-08
2.01347e-08
1.16282e-08
6.61534e-09
3.6386e-09
1.80558e-09
5.1149e-10
0.0800319
0.237758
0.388584
0.528297
0.65323
0.760427
0.847756
0.913967
0.958693
0.982402
0.986301
0.972208
0.942406
0.899486
0.846188
0.785262
0.719345
0.650858
0.58194
0.5144
0.449694
0.388929
0.332881
0.282025
0.236574
0.196526
0.161708
0.131818
0.106468
0.085217
0.0676017
0.0531573
0.0414374
0.032025
0.0245411
0.0186486
0.0140534
0.0105033
0.00778604
0.005725
0.0041757
0.00302135
0.00216876
0.00154447
0.00109124
0.000764991
0.000532105
0.000367247
0.000251508
0.000170919
0.000115261
7.71323e-05
5.12229e-05
3.37577e-05
2.20785e-05
1.43305e-05
9.23117e-06
5.9015e-06
3.74441e-06
2.35788e-06
1.47364e-06
9.14087e-07
5.62757e-07
3.43868e-07
2.08555e-07
1.25556e-07
7.50167e-08
4.44777e-08
2.61562e-08
1.5281e-08
8.84899e-09
5.04685e-09
2.7638e-09
1.37312e-09
4.03923e-10
0.0579354
0.172132
0.281387
0.382677
0.473368
0.551326
0.615006
0.663487
0.696478
0.714287
0.717752
0.708156
0.687121
0.656494
0.618242
0.574344
0.526705
0.477085
0.427041
0.377897
0.330728
0.286354
0.245355
0.208095
0.174744
0.145314
0.119691
0.0976647
0.0789598
0.0632599
0.0502298
0.0395329
0.0308437
0.0238579
0.0182976
0.0139152
0.0104943
0.00784912
0.00582261
0.00428422
0.00312686
0.00226386
0.00162599
0.00115859
0.000819039
0.000574457
0.000399764
0.00027603
0.000189115
0.000128566
8.67296e-05
5.80572e-05
3.85658e-05
2.54223e-05
1.66303e-05
1.0796e-05
6.9553e-06
4.44694e-06
2.82164e-06
1.77684e-06
1.11047e-06
6.88786e-07
4.24025e-07
2.59068e-07
1.57072e-07
9.454e-08
5.64944e-08
3.3474e-08
1.9688e-08
1.14822e-08
6.64168e-09
3.79556e-09
2.08108e-09
1.012e-09
3.18309e-10
0.0416933
0.123887
0.202559
0.275553
0.340984
0.397325
0.443458
0.478713
0.502864
0.516112
0.519037
0.512541
0.497767
0.47603
0.448731
0.417286
0.383065
0.347335
0.311226
0.275698
0.241538
0.209348
0.17956
0.152447
0.128144
0.106668
0.0879451
0.0718296
0.058127
0.0466119
0.0370439
0.0291803
0.0227858
0.0176394
0.0135391
0.0103043
0.00777691
0.00582081
0.00432095
0.00318142
0.00232344
0.0016832
0.00120964
0.000862394
0.000609967
0.000428028
0.000298001
0.000205852
0.000141091
9.59526e-05
6.475e-05
4.33568e-05
2.88082e-05
1.89944e-05
1.24277e-05
8.06903e-06
5.19903e-06
3.32429e-06
2.10939e-06
1.32832e-06
8.3012e-07
5.14859e-07
3.16918e-07
1.93599e-07
1.17359e-07
7.06042e-08
4.21749e-08
2.49993e-08
1.47169e-08
8.5713e-09
4.9305e-09
2.80112e-09
1.54105e-09
7.45282e-10
2.40378e-10
0.029826
0.0886325
0.144942
0.197225
0.244142
0.284602
0.317807
0.343269
0.360817
0.370581
0.372962
0.368589
0.358267
0.342923
0.323551
0.30116
0.276726
0.251158
0.225267
0.199749
0.175171
0.151976
0.130479
0.110884
0.0932963
0.0777342
0.0641495
0.0524424
0.0424762
0.0340914
0.0271167
0.0213782
0.016707
0.0129438
0.0099426
0.00757271
0.0057194
0.00428379
0.0031821
0.00234441
0.00171322
0.00124186
0.000892967
0.000636968
0.000450752
0.000316454
0.000220419
0.000152324
0.000104443
7.10539e-05
4.79632e-05
3.21254e-05
2.13508e-05
1.40804e-05
9.21413e-06
5.98331e-06
3.85554e-06
2.4654e-06
1.56443e-06
9.85122e-07
6.15593e-07
3.81738e-07
2.34938e-07
1.43486e-07
8.69752e-08
5.22993e-08
3.12129e-08
1.85113e-08
1.09059e-08
6.37057e-09
3.66934e-09
2.06791e-09
1.14262e-09
5.74054e-10
1.69033e-10
0.0212079
0.0630277
0.103087
0.140306
0.173738
0.20261
0.226354
0.244618
0.257274
0.264407
0.266292
0.263365
0.25619
0.245419
0.231752
0.215902
0.198563
0.18038
0.161935
0.143724
0.126157
0.109553
0.0941439
0.0800796
0.0674391
0.0562406
0.0464533
0.0380088
0.030812
0.0247505
0.0197029
0.0155459
0.0121585
0.00942701
0.00724658
0.00552327
0.00417442
0.00312871
0.00232558
0.00171444
0.00125361
0.000909222
0.000654138
0.00046685
0.00033053
0.000232158
0.000161775
0.000111842
7.67139e-05
5.22073e-05
3.5252e-05
2.36178e-05
1.57003e-05
1.0356e-05
6.77803e-06
4.40194e-06
2.83676e-06
1.81403e-06
1.15109e-06
7.24817e-07
4.52888e-07
2.80812e-07
1.72789e-07
1.05494e-07
6.39132e-08
3.84122e-08
2.29226e-08
1.35808e-08
7.98736e-09
4.66597e-09
2.70124e-09
1.51691e-09
8.47361e-10
4.43437e-10
1.30616e-10
0.0149881
0.0445466
0.0728706
0.0992021
0.122876
0.143348
0.160214
0.173227
0.182289
0.187455
0.188913
0.186966
0.182005
0.174486
0.1649
0.153747
0.141518
0.128669
0.115611
0.102699
0.0902255
0.0784195
0.0674485
0.0574223
0.0484
0.0403976
0.0333956
0.0273475
0.0221875
0.017837
0.0142105
0.0112209
0.00878255
0.00681446
0.00524204
0.00399819
0.00302381
0.0022678
0.00168672
0.00124422
0.000910304
0.000660597
0.000475517
0.000339541
0.00024051
0.000169005
0.000117818
8.1484e-05
5.5911e-05
3.80623e-05
2.57084e-05
1.72283e-05
1.14553e-05
7.55737e-06
4.94703e-06
3.21317e-06
2.07081e-06
1.32426e-06
8.40277e-07
5.29063e-07
3.30556e-07
2.04926e-07
1.2606e-07
7.6943e-08
4.65818e-08
2.79903e-08
1.66871e-08
9.87856e-09
5.78225e-09
3.34664e-09
1.9329e-09
1.11079e-09
6.22349e-10
3.06235e-10
1.05371e-10
0.0105273
0.0312907
0.0511933
0.0697061
0.0863643
0.100787
0.11269
0.121898
0.128339
0.13205
0.133157
0.131869
0.128457
0.123238
0.116554
0.108754
0.100182
0.0911588
0.0819741
0.0728786
0.0640798
0.0557412
0.0479826
0.0408837
0.0344883
0.0288094
0.0238351
0.019534
0.0158606
0.0127605
0.0101738
0.00803935
0.0062969
0.00488926
0.00376365
0.00287251
0.00217387
0.00163139
0.00121411
0.000896115
0.000655991
0.000476301
0.000343031
0.00024506
0.000173665
0.000122087
8.51441e-05
5.89088e-05
4.04348e-05
2.75353e-05
1.86033e-05
1.24699e-05
8.29308e-06
5.47214e-06
3.58252e-06
2.32709e-06
1.49982e-06
9.59106e-07
6.08552e-07
3.83146e-07
2.39354e-07
1.48356e-07
9.12186e-08
5.56745e-08
3.37111e-08
2.02796e-08
1.20892e-08
7.12464e-09
4.15997e-09
2.41805e-09
1.3819e-09
7.97968e-10
4.52218e-10
2.18426e-10
5.48809e-11
0.00734826
0.0218429
0.0357407
0.0486747