/*--------------------------------*- C++ -*----------------------------------*\
  =========                 |
  \\      /  F ield         | OpenFOAM: The Open Source CFD Toolbox
   \\    /   O peration     | Website:  https://openfoam.org
    \\  /    A nd           | Version:  10
     \\/     M anipulation  |
\*---------------------------------------------------------------------------*/
FoamFile
{
    format      ascii;
    class       volScalarField;
    location    "402";
    object      T;
}
// * * * * * * * * * * * * * * * * * * * * * * * * * * * * * * * * * * * * * //

dimensions      [0 0 0 1 0 0 0];

internalField   nonuniform List<scalar> 
11250
(
249.868
167.633
139.485
127.117
120.388
116.133
113.165
110.957
109.239
107.858
106.724
105.774
104.97
104.281
103.688
103.175
102.73
102.343
102.006
101.713
101.459
101.239
101.048
100.884
100.743
100.622
100.518
100.43
100.356
100.293
100.24
100.196
100.159
100.129
100.104
100.083
100.066
100.053
100.042
100.033
100.026
100.02
100.016
100.012
100.009
100.007
100.005
100.004
100.003
100.002
100.002
100.001
100.001
100.001
100.001
100
100
100
100
100
100
100
100
100
100
100
100
100
100
100
100
100
100
100
100
331.576
248.815
202.684
175.724
158.703
147.126
138.752
132.399
127.398
123.352
120.008
117.201
114.816
112.772
111.009
109.481
108.154
107
105.995
105.122
104.363
103.705
103.135
102.644
102.222
101.86
101.55
101.287
101.065
100.877
100.719
100.587
100.477
100.386
100.311
100.249
100.199
100.158
100.125
100.098
100.077
100.06
100.046
100.036
100.028
100.021
100.016
100.012
100.009
100.007
100.005
100.004
100.003
100.002
100.002
100.001
100.001
100.001
100
100
100
100
100
100
100
100
100
100
100
100
100
100
100
100
100
359.2
293.381
246.732
214.42
191.61
174.96
162.371
152.544
144.664
138.207
132.824
128.276
124.393
121.053
118.164
115.656
113.474
111.573
109.917
108.475
107.221
106.134
105.192
104.38
103.681
103.082
102.57
102.134
101.765
101.453
101.192
100.973
100.791
100.64
100.515
100.413
100.33
100.262
100.207
100.163
100.128
100.099
100.077
100.06
100.046
100.035
100.027
100.02
100.015
100.011
100.008
100.006
100.005
100.003
100.002
100.002
100.001
100.001
100.001
100
100
100
100
100
100
100
100
100
100
100
100
100
100
100
100
371.053
318.796
276.48
243.665
218.419
198.807
183.311
170.835
160.609
152.097
144.918
138.801
133.545
129.001
125.057
121.621
118.625
116.01
113.728
111.739
110.007
108.504
107.201
106.076
105.108
104.277
103.568
102.963
102.451
102.019
101.656
101.352
101.099
100.889
100.716
100.574
100.458
100.364
100.288
100.227
100.177
100.138
100.107
100.083
100.064
100.049
100.037
100.028
100.021
100.016
100.012
100.009
100.006
100.005
100.003
100.003
100.002
100.001
100.001
100.001
100
100
100
100
100
100
100
100
100
100
100
100
100
100
100
377.276
334.303
296.775
265.41
239.68
218.642
201.349
187.005
174.982
164.803
156.108
148.626
142.149
136.517
131.603
127.309
123.552
120.265
117.391
114.882
112.695
110.793
109.145
107.719
106.492
105.438
104.537
103.769
103.119
102.569
102.107
101.721
101.399
101.132
100.912
100.732
100.584
100.464
100.367
100.289
100.226
100.176
100.137
100.106
100.081
100.062
100.047
100.036
100.027
100.02
100.015
100.011
100.008
100.006
100.004
100.003
100.002
100.002
100.001
100.001
100.001
100
100
100
100
100
100
100
100
100
100
100
100
100
100
381.038
344.403
310.973
281.607
256.36
234.861
216.589
201.02
187.69
176.216
166.286
157.652
150.118
143.523
137.741
132.666
128.211
124.302
120.876
117.879
115.263
112.985
111.008
109.297
107.821
106.554
105.47
104.546
103.763
103.1
102.544
102.078
101.689
101.368
101.102
100.884
100.705
100.561
100.443
100.349
100.273
100.213
100.165
100.128
100.098
100.075
100.057
100.043
100.033
100.024
100.018
100.014
100.01
100.007
100.005
100.004
100.003
100.002
100.001
100.001
100.001
100.001
100
100
100
100
100
100
100
100
100
100
100
100
100
383.527
351.343
321.183
293.79
269.424
248.012
229.307
212.996
198.762
186.316
175.409
165.83
157.4
149.973
143.425
137.652
132.565
128.089
124.156
120.708
117.692
115.063
112.777
110.797
109.089
107.62
106.362
105.289
104.379
103.609
102.962
102.42
101.968
101.593
101.284
101.03
100.822
100.654
100.517
100.407
100.319
100.248
100.193
100.149
100.114
100.087
100.067
100.05
100.038
100.028
100.021
100.016
100.012
100.009
100.006
100.005
100.003
100.002
100.002
100.001
100.001
100.001
100
100
100
100
100
100
100
100
100
100
100
100
100
385.274
356.315
328.715
303.072
279.69
258.642
239.844
223.129
208.299
195.149
183.49
173.149
163.977
155.842
148.63
142.243
136.594
131.607
127.214
123.353
119.971
117.016
114.444
112.213
110.286
108.628
107.207
105.994
104.964
104.093
103.36
102.746
102.234
101.809
101.458
101.17
100.934
100.742
100.587
100.462
100.362
100.282
100.219
100.169
100.13
100.099
100.076
100.057
100.043
100.032
100.024
100.018
100.013
100.01
100.007
100.005
100.004
100.003
100.002
100.001
100.001
100.001
100
100
100
100
100
100
100
100
100
100
100
100
100
386.55
359.99
334.393
310.232
287.801
267.233
248.538
231.647
216.446
202.801
190.574
179.633
169.854
161.127
153.349
146.429
140.286
134.844
130.038
125.804
122.087
118.835
116
113.538
111.409
109.574
108.001
106.658
105.516
104.55
103.736
103.054
102.485
102.013
101.623
101.302
101.04
100.827
100.654
100.515
100.404
100.315
100.244
100.189
100.145
100.111
100.084
100.064
100.048
100.036
100.027
100.02
100.015
100.011
100.008
100.006
100.004
100.003
100.002
100.002
100.001
100.001
100.001
100
100
100
100
100
100
100
100
100
100
100
100
387.507
362.771
338.75
315.82
294.248
274.187
255.699
238.775
223.362
209.379
196.733
185.325
175.06
165.843
157.587
150.21
143.637
137.796
132.623
128.056
124.038
120.516
117.442
114.768
112.453
110.456
108.743
107.278
106.032
104.978
104.089
103.343
102.721
102.205
101.778
101.427
101.14
100.907
100.717
100.565
100.443
100.345
100.268
100.207
100.159
100.122
100.093
100.07
100.053
100.04
100.03
100.022
100.016
100.012
100.009
100.006
100.005
100.003
100.002
100.002
100.001
100.001
100.001
100
100
100
100
100
100
100
100
100
100
100
100
388.241
364.915
342.14
320.225
299.402
279.829
261.592
244.721
229.204
215
202.05
190.286
179.632
170.015
161.361
153.596
146.653
140.465
134.969
130.107
125.82
122.057
118.766
115.9
113.416
111.272
109.429
107.853
106.512
105.375
104.417
103.613
102.942
102.384
101.923
101.544
101.234
100.981
100.776
100.612
100.479
100.374
100.29
100.224
100.172
100.132
100.1
100.076
100.057
100.043
100.032
100.024
100.018
100.013
100.009
100.007
100.005
100.004
100.003
100.002
100.001
100.001
100.001
100
100
100
100
100
100
100
100
100
100
100
100
388.813
366.59
344.809
323.725
303.543
284.416
266.441
249.671
234.121
219.78
206.614
194.579
183.621
173.68
164.696
156.605
149.346
142.859
137.083
131.96
127.436
123.457
119.973
116.935
114.298
112.02
110.06
108.383
106.954
105.743
104.721
103.863
103.146
102.55
102.058
101.652
101.321
101.05
100.832
100.655
100.514
100.401
100.311
100.24
100.185
100.141
100.108
100.082
100.061
100.046
100.034
100.026
100.019
100.014
100.01
100.007
100.005
100.004
100.003
100.002
100.001
100.001
100.001
100
100
100
100
100
100
100
100
100
100
100
100
389.263
367.913
346.928
326.525
306.886
288.155
270.433
253.786
238.248
223.827
210.511
198.274
187.077
176.877
167.622
159.259
151.734
144.99
138.971
133.623
128.891
124.722
121.065
117.874
115.1
112.701
110.636
108.867
107.359
106.079
104.999
104.092
103.334
102.703
102.182
101.752
101.401
101.115
100.882
100.695
100.545
100.425
100.33
100.255
100.196
100.15
100.114
100.087
100.065
100.049
100.037
100.027
100.02
100.015
100.011
100.008
100.006
100.004
100.003
100.002
100.001
100.001
100.001
100.001
100
100
100
100
100
100
100
100
100
100
100
389.62
368.966
348.622
328.777
309.594
291.207
273.718
257.201
241.702
227.241
213.824
201.437
190.056
179.648
170.173
161.585
153.836
146.874
140.648
135.104
130.19
125.854
122.047
118.719
115.824
113.317
111.158
109.306
107.727
106.386
105.253
104.301
103.505
102.843
102.295
101.844
101.475
101.173
100.929
100.732
100.574
100.448
100.348
100.269
100.207
100.158
100.121
100.091
100.069
100.052
100.039
100.029
100.021
100.016
100.011
100.008
100.006
100.004
100.003
100.002
100.002
100.001
100.001
100.001
100
100
100
100
100
100
100
100
100
100
100
389.906
369.81
349.984
330.596
311.793
293.702
276.423
260.034
244.586
230.113
216.628
204.132
192.61
182.037
172.384
163.61
155.674
148.529
142.125
136.413
131.343
126.862
122.923
119.475
116.473
113.871
111.627
109.702
108.059
106.663
105.483
104.491
103.661
102.971
102.399
101.928
101.542
101.227
100.972
100.766
100.601
100.469
100.364
100.282
100.217
100.166
100.126
100.096
100.072
100.054
100.04
100.03
100.022
100.016
100.012
100.009
100.006
100.005
100.003
100.002
100.002
100.001
100.001
100.001
100
100
100
100
100
100
100
100
100
100
100
390.136
370.488
351.083
332.068
313.583
295.744
278.65
262.379
246.989
232.52
218.994
206.418
194.788
184.086
174.289
165.363
157.272
149.972
143.419
137.564
132.359
127.753
123.699
120.147
117.05
114.365
112.047
110.057
108.357
106.912
105.69
104.662
103.802
103.085
102.492
102.003
101.603
101.276
101.011
100.797
100.625
100.488
100.379
100.293
100.225
100.173
100.131
100.1
100.075
100.056
100.042
100.031
100.023
100.017
100.012
100.009
100.007
100.005
100.003
100.002
100.002
100.001
100.001
100.001
100
100
100
100
100
100
100
100
100
100
100
390.321
371.036
351.971
333.264
315.041
297.415
280.481
264.319
248.988
234.533
220.983
208.35
196.637
185.834
175.921
166.872
158.653
151.225
144.545
138.569
133.248
128.536
124.382
120.739
117.561
114.802
112.42
110.373
108.622
107.134
105.875
104.815
103.928
103.189
102.576
102.071
101.657
101.32
101.046
100.824
100.647
100.505
100.392
100.303
100.233
100.179
100.136
100.103
100.078
100.058
100.044
100.032
100.024
100.018
100.013
100.009
100.007
100.005
100.004
100.003
100.002
100.001
100.001
100.001
100
100
100
100
100
100
100
100
100
100
100
390.47
371.48
352.692
334.236
316.23
298.783
281.987
265.921
250.647
236.212
222.649
209.976
198.201
187.318
177.313
168.163
159.839
152.304
145.519
139.441
134.023
129.218
124.98
121.259
118.01
115.188
112.749
110.651
108.858
107.331
106.039
104.951
104.04
103.28
102.651
102.132
101.706
101.359
101.077
100.849
100.666
100.52
100.404
100.313
100.241
100.184
100.14
100.106
100.08
100.06
100.045
100.033
100.025
100.018
100.013
100.01
100.007
100.005
100.004
100.003
100.002
100.001
100.001
100.001
100
100
100
100
100
100
100
100
100
100
100
390.592
371.839
353.276
335.026
317.2
299.902
283.224
267.242
252.02
237.607
224.04
211.34
199.518
188.573
178.495
169.264
160.853
153.23
146.358
140.193
134.693
129.811
125.499
121.712
118.403
115.525
113.037
110.896
109.064
107.505
106.184
105.071
104.139
103.362
102.717
102.186
101.75
101.394
101.105
100.871
100.684
100.534
100.415
100.321
100.247
100.189
100.144
100.109
100.082
100.062
100.046
100.034
100.025
100.019
100.014
100.01
100.007
100.005
100.004
100.003
100.002
100.001
100.001
100.001
100
100
100
100
100
100
100
100
100
100
100
390.69
372.13
353.751
335.668
317.99
300.817
284.238
268.329
253.154
238.764
225.197
212.479
200.622
189.629
179.492
170.196
161.715
154.02
147.074
140.839
135.269
130.321
125.949
122.105
118.743
115.819
113.288
111.11
109.245
107.657
106.311
105.177
104.226
103.433
102.776
102.233
101.788
101.424
101.129
100.891
100.699
100.546
100.425
100.328
100.253
100.194
100.147
100.112
100.084
100.063
100.047
100.035
100.026
100.019
100.014
100.01
100.007
100.005
100.004
100.003
100.002
100.001
100.001
100.001
100
100
100
100
100
100
100
100
100
100
100
390.769
372.366
354.136
336.19
318.634
301.564
285.068
269.221
254.088
239.72
226.157
213.427
201.544
190.514
180.331
170.982
162.445
154.69
147.684
141.389
135.762
130.759
126.335
122.442
119.037
116.072
113.506
111.296
109.402
107.789
106.422
105.269
104.302
103.496
102.827
102.275
101.822
101.451
101.151
100.908
100.713
100.557
100.433
100.335
100.258
100.197
100.15
100.114
100.086
100.065
100.048
100.036
100.027
100.02
100.014
100.01
100.008
100.005
100.004
100.003
100.002
100.001
100.001
100.001
100
100
100
100
100
100
100
100
100
100
100
390.834
372.557
354.448
336.615
319.158
302.174
285.747
269.953
254.856
240.509
226.951
214.213
202.311
191.252
181.033
171.642
163.059
155.256
148.201
141.856
136.181
131.132
126.664
122.732
119.289
116.29
113.693
111.455
109.538
107.903
106.517
105.349
104.368
103.55
102.871
102.311
101.851
101.475
101.17
100.923
100.725
100.566
100.44
100.341
100.262
100.201
100.153
100.116
100.088
100.066
100.049
100.037
100.027
100.02
100.015
100.011
100.008
100.006
100.004
100.003
100.002
100.001
100.001
100.001
100
100
100
100
100
100
100
100
100
100
100
390.886
372.712
354.702
336.959
319.584
302.67
286.3
270.551
255.485
241.156
227.606
214.863
202.947
191.866
181.618
172.194
163.573
155.731
148.635
142.251
136.536
131.449
126.945
122.978
119.504
116.476
113.853
111.593
109.654
108.002
106.6
105.418
104.425
103.597
102.91
102.342
101.876
101.496
101.186
100.936
100.735
100.575
100.447
100.346
100.266
100.204
100.155
100.118
100.089
100.067
100.05
100.037
100.027
100.02
100.015
100.011
100.008
100.006
100.004
100.003
100.002
100.001
100.001
100.001
100
100
100
100
100
100
100
100
100
100
100
390.928
372.837
354.906
337.237
319.929
303.072
286.751
271.039
256
241.687
228.143
215.398
203.471
192.374
182.104
172.652
164.002
156.128
149
142.582
136.834
131.716
127.181
123.186
119.686
116.635
113.99
111.709
109.754
108.086
106.671
105.477
104.474
103.638
102.943
102.369
101.898
101.513
101.2
100.948
100.744
100.582
100.452
100.35
100.269
100.206
100.157
100.119
100.09
100.068
100.051
100.038
100.028
100.02
100.015
100.011
100.008
100.006
100.004
100.003
100.002
100.001
100.001
100.001
100.001
100
100
100
100
100
100
100
100
100
100
390.962
372.938
355.071
337.463
320.208
303.399
287.116
271.435
256.419
242.121
228.583
215.837
203.903
192.792
182.505
173.032
164.358
156.458
149.303
142.858
137.084
131.939
127.38
123.362
119.839
116.768
114.105
111.808
109.838
108.157
106.731
105.527
104.516
103.672
102.971
102.393
101.917
101.528
101.213
100.957
100.752
100.588
100.457
100.354
100.272
100.209
100.159
100.121
100.091
100.068
100.051
100.038
100.028
100.021
100.015
100.011
100.008
100.006
100.004
100.003
100.002
100.001
100.001
100.001
100.001
100
100
100
100
100
100
100
100
100
100
390.989
373.02
355.205
337.644
320.434
303.662
287.412
271.757
256.76
242.473
228.941
216.195
204.256
193.136
182.835
173.345
164.652
156.732
149.555
143.088
137.292
132.126
127.546
123.509
119.968
116.881
114.202
111.892
109.909
108.218
106.782
105.569
104.552
103.702
102.996
102.412
101.933
101.541
101.223
100.966
100.758
100.593
100.461
100.357
100.275
100.211
100.161
100.122
100.092
100.069
100.052
100.038
100.028
100.021
100.015
100.011
100.008
100.006
100.004
100.003
100.002
100.002
100.001
100.001
100.001
100
100
100
100
100
100
100
100
100
100
391.011
373.085
355.312
337.79
320.615
303.875
287.651
272.017
257.035
242.76
229.233
216.487
204.545
193.416
183.105
173.602
164.894
156.957
149.763
143.278
137.464
132.281
127.685
123.631
120.076
116.974
114.284
111.962
109.969
108.268
106.824
105.605
104.581
103.726
103.016
102.429
101.947
101.552
101.232
100.973
100.764
100.597
100.465
100.36
100.277
100.212
100.162
100.123
100.093
100.07
100.052
100.039
100.029
100.021
100.015
100.011
100.008
100.006
100.004
100.003
100.002
100.002
100.001
100.001
100.001
100
100
100
100
100
100
100
100
100
100
391.029
373.137
355.398
337.907
320.761
304.046
287.844
272.227
257.258
242.991
229.469
216.724
204.779
193.645
183.325
173.812
165.092
157.142
149.934
143.435
137.607
132.409
127.799
123.733
120.165
117.052
114.351
112.02
110.019
108.311
106.86
105.635
104.606
103.747
103.033
102.443
101.958
101.561
101.239
100.978
100.769
100.601
100.468
100.362
100.279
100.214
100.163
100.124
100.093
100.07
100.052
100.039
100.029
100.021
100.016
100.011
100.008
100.006
100.004
100.003
100.002
100.002
100.001
100.001
100.001
100
100
100
100
100
100
100
100
100
100
391.043
373.179
355.466
338.001
320.878
304.183
287.998
272.395
257.437
243.177
229.659
216.915
204.968
193.83
183.504
173.983
165.253
157.292
150.073
143.563
137.723
132.514
127.893
123.816
120.239
117.117
114.407
112.068
110.06
108.346
106.89
105.66
104.627
103.764
103.047
102.455
101.967
101.569
101.245
100.983
100.773
100.604
100.47
100.364
100.28
100.215
100.164
100.124
100.094
100.07
100.053
100.039
100.029
100.021
100.016
100.011
100.008
100.006
100.004
100.003
100.002
100.002
100.001
100.001
100.001
100
100
100
100
100
100
100
100
100
100
391.054
373.213
355.521
338.076
320.971
304.292
288.121
272.53
257.58
243.327
229.812
217.069
205.121
193.98
183.649
174.121
165.384
157.415
150.187
143.667
137.818
132.6
127.97
123.885
120.299
117.17
114.453
112.108
110.094
108.375
106.914
105.681
104.645
103.779
103.059
102.464
101.975
101.576
101.251
100.988
100.776
100.607
100.472
100.365
100.281
100.216
100.164
100.125
100.094
100.071
100.053
100.039
100.029
100.021
100.016
100.011
100.008
100.006
100.004
100.003
100.002
100.002
100.001
100.001
100.001
100
100
100
100
100
100
100
100
100
100
391.063
373.239
355.564
338.135
321.045
304.38
288.22
272.637
257.695
243.446
229.935
217.193
205.244
194.1
183.765
174.233
165.489
157.514
150.279
143.752
137.895
132.67
128.033
123.94
120.348
117.213
114.491
112.141
110.122
108.399
106.935
105.698
104.659
103.791
103.069
102.472
101.982
101.581
101.255
100.991
100.779
100.609
100.474
100.367
100.283
100.217
100.165
100.125
100.095
100.071
100.053
100.039
100.029
100.022
100.016
100.011
100.008
100.006
100.004
100.003
100.002
100.002
100.001
100.001
100.001
100
100
100
100
100
100
100
100
100
100
391.07
373.26
355.599
338.183
321.104
304.449
288.298
272.722
257.786
243.541
230.032
217.291
205.342
194.196
183.858
174.322
165.574
157.594
150.353
143.82
137.958
132.727
128.084
123.986
120.389
117.248
114.522
112.167
110.145
108.418
106.951
105.712
104.671
103.8
103.077
102.479
101.987
101.585
101.258
100.994
100.781
100.611
100.475
100.368
100.283
100.217
100.166
100.126
100.095
100.071
100.053
100.04
100.029
100.022
100.016
100.012
100.008
100.006
100.004
100.003
100.002
100.002
100.001
100.001
100.001
100
100
100
100
100
100
100
100
100
100
391.076
373.277
355.626
338.22
321.15
304.503
288.36
272.79
257.858
243.617
230.11
217.37
205.42
194.273
183.933
174.394
165.642
157.658
150.413
143.875
138.008
132.772
128.125
124.022
120.421
117.277
114.546
112.189
110.164
108.434
106.965
105.723
104.68
103.808
103.084
102.484
101.992
101.589
101.261
100.996
100.783
100.612
100.476
100.369
100.284
100.218
100.166
100.126
100.095
100.071
100.053
100.04
100.029
100.022
100.016
100.012
100.008
100.006
100.004
100.003
100.002
100.002
100.001
100.001
100.001
100
100
100
100
100
100
100
100
100
100
391.08
373.29
355.647
338.249
321.187
304.546
288.408
272.843
257.915
243.677
230.171
217.432
205.482
194.334
183.992
174.451
165.696
157.709
150.46
143.919
138.048
132.809
128.158
124.052
120.447
117.3
114.566
112.206
110.179
108.447
106.976
105.733
104.688
103.815
103.089
102.489
101.995
101.592
101.264
100.998
100.784
100.613
100.477
100.37
100.285
100.218
100.166
100.126
100.095
100.072
100.054
100.04
100.029
100.022
100.016
100.012
100.008
100.006
100.004
100.003
100.002
100.002
100.001
100.001
100.001
100
100
100
100
100
100
100
100
100
100
391.083
373.3
355.664
338.272
321.215
304.58
288.446
272.885
257.96
243.724
230.219
217.481
205.531
194.382
184.039
174.496
165.739
157.749
150.498
143.954
138.08
132.838
128.184
124.075
120.468
117.318
114.583
112.22
110.191
108.457
106.984
105.74
104.694
103.82
103.093
102.492
101.998
101.594
101.266
101
100.786
100.614
100.478
100.37
100.285
100.219
100.167
100.126
100.096
100.072
100.054
100.04
100.03
100.022
100.016
100.012
100.008
100.006
100.004
100.003
100.002
100.002
100.001
100.001
100.001
100
100
100
100
100
100
100
100
100
100
391.086
373.308
355.677
338.29
321.238
304.607
288.476
272.918
257.995
243.76
230.257
217.519
205.569
194.42
184.076
174.531
165.773
157.781
150.528
143.981
138.106
132.861
128.205
124.094
120.484
117.333
114.595
112.231
110.2
108.466
106.991
105.746
104.699
103.824
103.097
102.495
102.001
101.596
101.267
101.001
100.787
100.615
100.479
100.371
100.286
100.219
100.167
100.127
100.096
100.072
100.054
100.04
100.03
100.022
100.016
100.012
100.008
100.006
100.004
100.003
100.002
100.002
100.001
100.001
100.001
100
100
100
100
100
100
100
100
100
100
391.088
373.314
355.687
338.304
321.255
304.627
288.5
272.944
258.023
243.789
230.287
217.549
205.599
194.45
184.105
174.559
165.8
157.806
150.551
144.003
138.126
132.879
128.221
124.109
120.498
117.344
114.606
112.24
110.208
108.472
106.997
105.751
104.703
103.827
103.099
102.498
102.003
101.598
101.268
101.002
100.787
100.616
100.479
100.371
100.286
100.219
100.167
100.127
100.096
100.072
100.054
100.04
100.03
100.022
100.016
100.012
100.008
100.006
100.004
100.003
100.002
100.002
100.001
100.001
100.001
100
100
100
100
100
100
100
100
100
100
391.09
373.319
355.695
338.315
321.269
304.643
288.518
272.964
258.044
243.812
230.31
217.573
205.623
194.473
184.127
174.581
165.821
157.826
150.57
144.02
138.142
132.893
128.234
124.12
120.508
117.353
114.614
112.247
110.214
108.477
107.002
105.754
104.706
103.83
103.102
102.499
102.004
101.599
101.269
101.003
100.788
100.616
100.48
100.371
100.286
100.219
100.167
100.127
100.096
100.072
100.054
100.04
100.03
100.022
100.016
100.012
100.008
100.006
100.004
100.003
100.002
100.002
100.001
100.001
100.001
100
100
100
100
100
100
100
100
100
100
391.091
373.323
355.701
338.323
321.279
304.656
288.532
272.979
258.06
243.829
230.328
217.591
205.641
194.491
184.145
174.598
165.837
157.841
150.584
144.034
138.154
132.905
128.244
124.129
120.516
117.361
114.62
112.253
110.219
108.481
107.005
105.757
104.709
103.832
103.103
102.501
102.005
101.6
101.27
101.003
100.789
100.617
100.48
100.372
100.286
100.219
100.167
100.127
100.096
100.072
100.054
100.04
100.03
100.022
100.016
100.012
100.008
100.006
100.004
100.003
100.002
100.002
100.001
100.001
100.001
100
100
100
100
100
100
100
100
100
100
391.092
373.325
355.706
338.33
321.287
304.665
288.543
272.991
258.073
243.842
230.342
217.605
205.655
194.505
184.158
174.611
165.849
157.853
150.595
144.044
138.163
132.913
128.252
124.137
120.522
117.366
114.625
112.257
110.223
108.485
107.008
105.76
104.711
103.834
103.105
102.502
102.006
101.601
101.271
101.004
100.789
100.617
100.48
100.372
100.286
100.22
100.167
100.127
100.096
100.072
100.054
100.04
100.03
100.022
100.016
100.012
100.008
100.006
100.004
100.003
100.002
100.002
100.001
100.001
100.001
100
100
100
100
100
100
100
100
100
100
391.093
373.328
355.71
338.335
321.293
304.672
288.551
273
258.083
243.853
230.352
217.616
205.666
194.515
184.169
174.621
165.859
157.862
150.604
144.052
138.171
132.92
128.258
124.142
120.527
117.371
114.629
112.26
110.226
108.487
107.01
105.762
104.712
103.835
103.106
102.503
102.007
101.601
101.271
101.004
100.789
100.617
100.48
100.372
100.287
100.22
100.168
100.127
100.096
100.072
100.054
100.04
100.03
100.022
100.016
100.012
100.008
100.006
100.004
100.003
100.002
100.002
100.001
100.001
100.001
100
100
100
100
100
100
100
100
100
100
391.093
373.329
355.712
338.338
321.298
304.678
288.557
273.007
258.09
243.86
230.36
217.624
205.674
194.524
184.177
174.629
165.866
157.869
150.61
144.058
138.176
132.925
128.263
124.146
120.531
117.374
114.632
112.263
110.228
108.489
107.012
105.763
104.713
103.836
103.107
102.503
102.007
101.602
101.272
101.005
100.79
100.618
100.481
100.372
100.287
100.22
100.168
100.127
100.096
100.072
100.054
100.04
100.03
100.022
100.016
100.012
100.008
100.006
100.004
100.003
100.002
100.002
100.001
100.001
100.001
100
100
100
100
100
100
100
100
100
100
391.094
373.331
355.715
338.341
321.302
304.682
288.562
273.012
258.096
243.866
230.367
217.63
205.68
194.53
184.183
174.635
165.872
157.875
150.615
144.063
138.181
132.929
128.267
124.15
120.534
117.377
114.634
112.265
110.23
108.491
107.013
105.764
104.714
103.837
103.107
102.504
102.008
101.602
101.272
101.005
100.79
100.618
100.481
100.372
100.287
100.22
100.168
100.127
100.096
100.072
100.054
100.04
100.03
100.022
100.016
100.012
100.008
100.006
100.004
100.003
100.002
100.002
100.001
100.001
100.001
100
100
100
100
100
100
100
100
100
100
391.094
373.332
355.716
338.343
321.304
304.685
288.565
273.016
258.1
243.871
230.371
217.635
205.685
194.534
184.188
174.639
165.876
157.879
150.619
144.067
138.184
132.932
128.269
124.152
120.536
117.379
114.636
112.266
110.231
108.492
107.014
105.765
104.715
103.837
103.108
102.504
102.008
101.602
101.272
101.005
100.79
100.618
100.481
100.372
100.287
100.22
100.168
100.127
100.096
100.072
100.054
100.04
100.03
100.022
100.016
100.012
100.008
100.006
100.004
100.003
100.002
100.002
100.001
100.001
100.001
100
100
100
100
100
100
100
100
100
100
391.094
373.332
355.717
338.345
321.306
304.688
288.568
273.019
258.103
243.874
230.375
217.639
205.688
194.538
184.191
174.643
165.88
157.882
150.622
144.069
138.187
132.935
128.272
124.154
120.538
117.38
114.637
112.268
110.232
108.493
107.015
105.765
104.716
103.838
103.108
102.505
102.008
101.603
101.272
101.005
100.79
100.618
100.481
100.372
100.287
100.22
100.168
100.127
100.096
100.072
100.054
100.04
100.03
100.022
100.016
100.012
100.008
100.006
100.004
100.003
100.002
100.002
100.001
100.001
100.001
100
100
100
100
100
100
100
100
100
100
391.094
373.333
355.718
338.346
321.308
304.69
288.57
273.021
258.106
243.877
230.377
217.641
205.691
194.541
184.194
174.645
165.882
157.884
150.624
144.071
138.189
132.936
128.273
124.155
120.539
117.381
114.638
112.268
110.233
108.493
107.015
105.766
104.716
103.838
103.108
102.505
102.009
101.603
101.272
101.005
100.79
100.618
100.481
100.372
100.287
100.22
100.168
100.127
100.096
100.072
100.054
100.04
100.03
100.022
100.016
100.012
100.008
100.006
100.004
100.003
100.002
100.002
100.001
100.001
100.001
100
100
100
100
100
100
100
100
100
100
391.095
373.333
355.719
338.347
321.309
304.691
288.572
273.023
258.108
243.879
230.379
217.643
205.693
194.543
184.196
174.647
165.884
157.886
150.626
144.073
138.19
132.938
128.274
124.157
120.54
117.382
114.639
112.269
110.233
108.494
107.016
105.766
104.716
103.839
103.109
102.505
102.009
101.603
101.273
101.005
100.79
100.618
100.481
100.372
100.287
100.22
100.168
100.127
100.096
100.072
100.054
100.04
100.03
100.022
100.016
100.012
100.008
100.006
100.004
100.003
100.002
100.002
100.001
100.001
100.001
100
100
100
100
100
100
100
100
100
100
391.095
373.333
355.719
338.348
321.31
304.692
288.573
273.024
258.109
243.88
230.381
217.645
205.695
194.544
184.197
174.649
165.885
157.887
150.627
144.074
138.191
132.939
128.275
124.157
120.541
117.383
114.639
112.27
110.234
108.494
107.016
105.767
104.717
103.839
103.109
102.505
102.009
101.603
101.273
101.005
100.79
100.618
100.481
100.372
100.287
100.22
100.168
100.127
100.096
100.072
100.054
100.04
100.03
100.022
100.016
100.012
100.008
100.006
100.004
100.003
100.002
100.002
100.001
100.001
100.001
100
100
100
100
100
100
100
100
100
100
391.095
373.334
355.72
338.348
321.31
304.693
288.574
273.025
258.11
243.881
230.382
217.646
205.696
194.545
184.198
174.65
165.886
157.888
150.628
144.075
138.192
132.939
128.276
124.158
120.542
117.383
114.64
112.27
110.234
108.494
107.016
105.767
104.717
103.839
103.109
102.505
102.009
101.603
101.273
101.005
100.79
100.618
100.481
100.372
100.287
100.22
100.168
100.127
100.096
100.072
100.054
100.04
100.03
100.022
100.016
100.012
100.008
100.006
100.004
100.003
100.002
100.002
100.001
100.001
100.001
100
100
100
100
100
100
100
100
100
100
391.095
373.334
355.72
338.349
321.311
304.693
288.574
273.026
258.111
243.882
230.383
217.647
205.697
194.546
184.199
174.65
165.887
157.889
150.629
144.076
138.192
132.94
128.276
124.158
120.542
117.384
114.64
112.27
110.234
108.495
107.016
105.767
104.717
103.839
103.109
102.506
102.009
101.603
101.273
101.005
100.79
100.618
100.481
100.372
100.287
100.22
100.168
100.127
100.096
100.072
100.054
100.04
100.03
100.022
100.016
100.012
100.008
100.006
100.004
100.003
100.002
100.002
100.001
100.001
100.001
100
100
100
100
100
100
100
100
100
100
391.095
373.334
355.72
338.349
321.311
304.694
288.575
273.027
258.111
243.883
230.383
217.647
205.697
194.547
184.2
174.651
165.888
157.889
150.629
144.076
138.193
132.94
128.277
124.159
120.542
117.384
114.64
112.27
110.234
108.495
107.016
105.767
104.717
103.839
103.109
102.506
102.009
101.603
101.273
101.005
100.79
100.618
100.481
100.372
100.287
100.22
100.168
100.127
100.096
100.072
100.054
100.04
100.03
100.022
100.016
100.012
100.008
100.006
100.004
100.003
100.002
100.002
100.001
100.001
100.001
100
100
100
100
100
100
100
100
100
100
391.095
373.334
355.72
338.349
321.312
304.694
288.575
273.027
258.112
243.883
230.384
217.648
205.698
194.547
184.2
174.651
165.888
157.89
150.63
144.076
138.193
132.941
128.277
124.159
120.543
117.384
114.641
112.271
110.235
108.495
107.017
105.767
104.717
103.839
103.109
102.506
102.009
101.603
101.273
101.005
100.79
100.618
100.481
100.372
100.287
100.22
100.168
100.127
100.096
100.072
100.054
100.04
100.03
100.022
100.016
100.012
100.008
100.006
100.004
100.003
100.002
100.002
100.001
100.001
100.001
100
100
100
100
100
100
100
100
100
100
391.095
373.334
355.72
338.349
321.312
304.694
288.575
273.027
258.112
243.883
230.384
217.648
205.698
194.548
184.201
174.652
165.888
157.89
150.63
144.077
138.193
132.941
128.277
124.159
120.543
117.384
114.641
112.271
110.235
108.495
107.017
105.767
104.717
103.839
103.109
102.506
102.009
101.603
101.273
101.005
100.79
100.618
100.481
100.372
100.287
100.22
100.168
100.127
100.096
100.072
100.054
100.04
100.03
100.022
100.016
100.012
100.008
100.006
100.004
100.003
100.002
100.002
100.001
100.001
100.001
100
100
100
100
100
100
100
100
100
100
391.095
373.334
355.72
338.349
321.312
304.694
288.576
273.027
258.112
243.883
230.384
217.648
205.698
194.548
184.201
174.652
165.889
157.89
150.63
144.077
138.194
132.941
128.277
124.159
120.543
117.384
114.641
112.271
110.235
108.495
107.017
105.767
104.717
103.839