/*--------------------------------*- C++ -*----------------------------------*\
  =========                 |
  \\      /  F ield         | OpenFOAM: The Open Source CFD Toolbox
   \\    /   O peration     | Website:  https://openfoam.org
    \\  /    A nd           | Version:  10
     \\/     M anipulation  |
\*---------------------------------------------------------------------------*/
FoamFile
{
    format      ascii;
    class       volScalarField;
    location    "167";
    object      T;
}
// * * * * * * * * * * * * * * * * * * * * * * * * * * * * * * * * * * * * * //

dimensions      [0 0 0 1 0 0 0];

internalField   nonuniform List<scalar> 
11250
(
249.681
167.078
138.578
125.883
118.86
114.351
111.175
108.806
106.976
105.532
104.379
103.453
102.707
102.109
101.63
101.25
100.949
100.715
100.533
100.393
100.287
100.208
100.149
100.105
100.074
100.051
100.035
100.024
100.016
100.01
100.007
100.004
100.003
100.002
100.001
100.001
100
100
100
100
100
100
100
100
100
100
100
100
100
100
100
100
100
100
100
100
100
100
100
100
100
100
100
100
100
100
100
100
100
100
100
100
100
100
100
331.017
247.156
199.971
172.032
154.132
141.797
132.8
125.966
120.631
116.395
112.996
110.257
108.049
106.273
104.852
103.721
102.829
102.13
101.588
101.173
100.857
100.62
100.443
100.314
100.22
100.152
100.104
100.071
100.047
100.031
100.021
100.013
100.008
100.005
100.003
100.002
100.001
100.001
100
100
100
100
100
100
100
100
100
100
100
100
100
100
100
100
100
100
100
100
100
100
100
100
100
100
100
100
100
100
100
100
100
100
100
100
100
358.276
290.633
242.239
208.306
184.04
166.134
152.511
141.889
133.456
126.683
121.208
116.773
113.183
110.287
107.964
106.113
104.649
103.503
102.614
101.93
101.411
101.021
100.73
100.517
100.362
100.251
100.172
100.116
100.078
100.052
100.034
100.022
100.014
100.009
100.006
100.003
100.002
100.001
100.001
100
100
100
100
100
100
100
100
100
100
100
100
100
100
100
100
100
100
100
100
100
100
100
100
100
100
100
100
100
100
100
100
100
100
100
100
369.77
314.986
270.248
235.185
207.92
186.565
169.635
156.054
145.06
136.109
128.802
122.841
117.99
114.062
110.901
108.377
106.378
104.809
103.59
102.653
101.94
101.404
101.005
100.712
100.499
100.345
100.237
100.16
100.107
100.071
100.047
100.03
100.019
100.012
100.008
100.005
100.003
100.002
100.001
100.001
100
100
100
100
100
100
100
100
100
100
100
100
100
100
100
100
100
100
100
100
100
100
100
100
100
100
100
100
100
100
100
100
100
100
100
375.648
329.464
288.861
254.64
226.345
203.093
183.979
168.231
155.231
144.493
135.635
128.349
122.385
117.534
113.615
110.476
107.985
106.027
104.503
103.33
102.437
101.765
101.264
100.895
100.627
100.435
100.298
100.202
100.135
100.09
100.059
100.038
100.024
100.015
100.01
100.006
100.004
100.002
100.001
100.001
100
100
100
100
100
100
100
100
100
100
100
100
100
100
100
100
100
100
100
100
100
100
100
100
100
100
100
100
100
100
100
100
100
100
100
379.078
338.577
301.445
268.641
240.307
216.142
195.676
178.416
163.909
151.759
141.63
133.231
126.313
120.656
116.069
112.384
109.452
107.142
105.341
103.953
102.895
102.097
101.503
101.065
100.747
100.518
100.355
100.241
100.161
100.107
100.07
100.045
100.029
100.018
100.012
100.007
100.004
100.003
100.002
100.001
100.001
100
100
100
100
100
100
100
100
100
100
100
100
100
100
100
100
100
100
100
100
100
100
100
100
100
100
100
100
100
100
100
100
100
100
381.252
344.581
310.124
278.74
250.789
226.281
205.028
186.752
171.148
157.917
146.776
137.466
129.748
123.407
118.245
114.084
110.764
108.143
106.096
104.516
103.31
102.399
101.721
101.22
100.856
100.594
100.407
100.276
100.185
100.123
100.08
100.052
100.033
100.021
100.013
100.008
100.005
100.003
100.002
100.001
100.001
100
100
100
100
100
100
100
100
100
100
100
100
100
100
100
100
100
100
100
100
100
100
100
100
100
100
100
100
100
100
100
100
100
100
382.702
348.672
316.215
286.059
258.625
234.076
212.395
193.457
177.075
163.033
151.106
141.066
132.696
125.786
120.138
115.571
111.917
109.026
106.765
105.016
103.679
102.669
101.915
101.359
100.954
100.662
100.454
100.308
100.207
100.137
100.09
100.058
100.037
100.024
100.015
100.009
100.006
100.003
100.002
100.001
100.001
100
100
100
100
100
100
100
100
100
100
100
100
100
100
100
100
100
100
100
100
100
100
100
100
100
100
100
100
100
100
100
100
100
100
383.701
351.525
320.548
291.389
264.469
240.021
218.131
198.774
181.851
167.214
154.686
144.074
135.18
127.805
121.756
116.849
112.913
109.793
107.347
105.453
104.003
102.906
102.086
101.481
101.04
100.722
100.495
100.336
100.226
100.15
100.098
100.064
100.041
100.026
100.016
100.01
100.006
100.004
100.002
100.001
100.001
100
100
100
100
100
100
100
100
100
100
100
100
100
100
100
100
100
100
100
100
100
100
100
100
100
100
100
100
100
100
100
100
100
100
384.403
353.547
323.662
295.286
268.819
244.528
222.555
202.94
185.646
170.578
157.598
146.545
137.238
129.491
123.115
117.928
113.759
110.446
107.845
105.828
104.281
103.11
102.235
101.587
101.115
100.774
100.532
100.361
100.242
100.161
100.105
100.068
100.044
100.028
100.017
100.011
100.007
100.004
100.002
100.001
100.001
100
100
100
100
100
100
100
100
100
100
100
100
100
100
100
100
100
100
100
100
100
100
100
100
100
100
100
100
100
100
100
100
100
100
384.903
354.995
325.915
298.14
272.052
247.927
225.939
206.17
188.625
173.248
159.934
148.544
138.917
130.875
124.238
118.826
114.465
110.994
108.265
106.145
104.518
103.284
102.361
101.678
101.179
100.819
100.563
100.382
100.257
100.17
100.112
100.073
100.047
100.029
100.018
100.011
100.007
100.004
100.003
100.001
100.001
100.001
100
100
100
100
100
100
100
100
100
100
100
100
100
100
100
100
100
100
100
100
100
100
100
100
100
100
100
100
100
100
100
100
100
385.262
356.038
327.549
300.231
274.447
250.475
228.506
208.649
190.937
175.341
161.782
150.139
140.266
131.996
125.153
119.561
115.047
111.448
108.613
106.409
104.715
103.43
102.467
101.755
101.234
100.858
100.589
100.4
100.269
100.179
100.117
100.076
100.049
100.031
100.019
100.012
100.007
100.004
100.003
100.002
100.001
100.001
100
100
100
100
100
100
100
100
100
100
100
100
100
100
100
100
100
100
100
100
100
100
100
100
100
100
100
100
100
100
100
100
100
385.521
356.792
328.737
301.763
276.217
252.376
230.441
210.535
192.712
176.963
163.225
151.395
141.336
132.89
125.887
120.154
115.518
111.816
108.898
106.625
104.878
103.55
102.555
101.818
101.279
100.889
100.611
100.415
100.279
100.185
100.122
100.079
100.051
100.032
100.02
100.012
100.008
100.005
100.003
100.002
100.001
100.001
100
100
100
100
100
100
100
100
100
100
100
100
100
100
100
100
100
100
100
100
100
100
100
100
100
100
100
100
100
100
100
100
100
385.707
357.337
329.599
302.881
277.519
253.786
231.887
211.956
194.061
178.205
164.339
152.371
142.172
133.593
126.468
120.625
115.894
112.112
109.127
106.8
105.009
103.648
102.627
101.87
101.316
100.915
100.629
100.428
100.288
100.191
100.125
100.081
100.052
100.033
100.021
100.013
100.008
100.005
100.003
100.002
100.001
100.001
100
100
100
100
100
100
100
100
100
100
100
100
100
100
100
100
100
100
100
100
100
100
100
100
100
100
100
100
100
100
100
100
100
385.842
357.73
330.224
303.695
278.472
254.824
232.96
213.019
195.076
179.147
165.189
153.12
142.819
134.14
126.921
120.995
116.191
112.346
109.309
106.939
105.114
103.726
102.684
101.911
101.345
100.936
100.644
100.438
100.294
100.196
100.128
100.083
100.054
100.034
100.021
100.013
100.008
100.005
100.003
100.002
100.001
100.001
100
100
100
100
100
100
100
100
100
100
100
100
100
100
100
100
100
100
100
100
100
100
100
100
100
100
100
100
100
100
100
100
100
385.938
358.013
330.675
304.285
279.166
255.585
233.75
213.806
195.834
179.853
165.831
153.689
143.312
134.558
127.27
121.281
116.421
112.529
109.451
107.049
105.197
103.788
102.73
101.944
101.369
100.953
100.656
100.446
100.3
100.199
100.131
100.085
100.055
100.035
100.022
100.013
100.008
100.005
100.003
100.002
100.001
100.001
100
100
100
100
100
100
100
100
100
100
100
100
100
100
100
100
100
100
100
100
100
100
100
100
100
100
100
100
100
100
100
100
100
386.007
358.216
330.998
304.71
279.667
256.137
234.327
214.384
196.392
180.377
166.309
154.115
143.683
134.876
127.536
121.499
116.598
112.669
109.561
107.133
105.262
103.836
102.765
101.97
101.388
100.966
100.665
100.452
100.304
100.202
100.133
100.086
100.055
100.035
100.022
100.014
100.008
100.005
100.003
100.002
100.001
100.001
100
100
100
100
100
100
100
100
100
100
100
100
100
100
100
100
100
100
100
100
100
100
100
100
100
100
100
100
100
100
100
100
100
386.056
358.36
331.229
305.014
280.028
256.536
234.745
214.805
196.801
180.762
166.662
154.431
143.96
135.113
127.736
121.664
116.731
112.776
109.645
107.198
105.311
103.873
102.793
101.99
101.402
100.976
100.672
100.457
100.308
100.204
100.134
100.087
100.056
100.036
100.022
100.014
100.008
100.005
100.003
100.002
100.001
100.001
100
100
100
100
100
100
100
100
100
100
100
100
100
100
100
100
100
100
100
100
100
100
100
100
100
100
100
100
100
100
100
100
100
386.091
358.463
331.393
305.231
280.285
256.821
235.045
215.108
197.097
181.042
166.92
154.663
144.164
135.288
127.884
121.786
116.831
112.856
109.708
107.247
105.348
103.901
102.813
102.006
101.413
100.984
100.678
100.461
100.31
100.206
100.136
100.088
100.057
100.036
100.023
100.014
100.009
100.005
100.003
100.002
100.001
100.001
100
100
100
100
100
100
100
100
100
100
100
100
100
100
100
100
100
100
100
100
100
100
100
100
100
100
100
100
100
100
100
100
100
386.116
358.535
331.509
305.383
280.467
257.023
235.259
215.325
197.309
181.243
167.107
154.831
144.312
135.416
127.992
121.877
116.905
112.915
109.754
107.283
105.376
103.922
102.829
102.017
101.421
100.99
100.682
100.464
100.312
100.208
100.136
100.089
100.057
100.036
100.023
100.014
100.009
100.005
100.003
100.002
100.001
100.001
100
100
100
100
100
100
100
100
100
100
100
100
100
100
100
100
100
100
100
100
100
100
100
100
100
100
100
100
100
100
100
100
100
386.133
358.585
331.59
305.49
280.595
257.166
235.41
215.478
197.46
181.387
167.24
154.952
144.419
135.509
128.071
121.942
116.958
112.958
109.789
107.31
105.396
103.938
102.841
102.025
101.427
100.994
100.685
100.466
100.314
100.209
100.137
100.089
100.057
100.036
100.023
100.014
100.009
100.005
100.003
100.002
100.001
100.001
100
100
100
100
100
100
100
100
100
100
100
100
100
100
100
100
100
100
100
100
100
100
100
100
100
100
100
100
100
100
100
100
100
386.145
358.62
331.646
305.565
280.684
257.265
235.516
215.586
197.566
181.488
167.334
155.037
144.495
135.575
128.127
121.989
116.997
112.989
109.813
107.329
105.411
103.949
102.849
102.032
101.432
100.998
100.687
100.468
100.315
100.209
100.138
100.089
100.057
100.036
100.023
100.014
100.009
100.005
100.003
100.002
100.001
100.001
100
100
100
100
100
100
100
100
100
100
100
100
100
100
100
100
100
100
100
100
100
100
100
100
100
100
100
100
100
100
100
100
100
386.153
358.644
331.685
305.616
280.745
257.334
235.589
215.66
197.639
181.559
167.4
155.097
144.548
135.622
128.167
122.023
117.024
113.011
109.831
107.343
105.422
103.957
102.855
102.036
101.435
101
100.689
100.469
100.315
100.21
100.138
100.09
100.058
100.037
100.023
100.014
100.009
100.005
100.003
100.002
100.001
100.001
100
100
100
100
100
100
100
100
100
100
100
100
100
100
100
100
100
100
100
100
100
100
100
100
100
100
100
100
100
100
100
100
100
386.158
358.66
331.711
305.651
280.787
257.381
235.639
215.712
197.69
181.608
167.446
155.139
144.585
135.654
128.195
122.046
117.044
113.027
109.844
107.353
105.43
103.963
102.859
102.039
101.438
101.002
100.69
100.47
100.316
100.21
100.138
100.09
100.058
100.037
100.023
100.014
100.009
100.005
100.003
100.002
100.001
100.001
100
100
100
100
100
100
100
100
100
100
100
100
100
100
100
100
100
100
100
100
100
100
100
100
100
100
100
100
100
100
100
100
100
386.162
358.671
331.729
305.675
280.816
257.412
235.673
215.747
197.725
181.641
167.477
155.167
144.611
135.676
128.214
122.062
117.057
113.038
109.852
107.36
105.435
103.967
102.862
102.042
101.439
101.003
100.691
100.47
100.316
100.21
100.138
100.09
100.058
100.037
100.023
100.014
100.009
100.005
100.003
100.002
100.001
100.001
100
100
100
100
100
100
100
100
100
100
100
100
100
100
100
100
100
100
100
100
100
100
100
100
100
100
100
100
100
100
100
100
100
386.165
358.679
331.74
305.69
280.835
257.434
235.696
215.77
197.748
181.664
167.498
155.187
144.628
135.692
128.227
122.073
117.066
113.046
109.858
107.365
105.439
103.97
102.865
102.043
101.44
101.004
100.691
100.471
100.317
100.211
100.139
100.09
100.058
100.037
100.023
100.014
100.009
100.005
100.003
100.002
100.001
100.001
100
100
100
100
100
100
100
100
100
100
100
100
100
100
100
100
100
100
100
100
100
100
100
100
100
100
100
100
100
100
100
100
100
386.166
358.684
331.748
305.701
280.847
257.448
235.711
215.786
197.764
181.679
167.512
155.2
144.64
135.702
128.236
122.081
117.073
113.051
109.862
107.368
105.441
103.972
102.866
102.044
101.441
101.004
100.692
100.471
100.317
100.211
100.139
100.09
100.058
100.037
100.023
100.014
100.009
100.005
100.003
100.002
100.001
100.001
100
100
100
100
100
100
100
100
100
100
100
100
100
100
100
100
100
100
100
100
100
100
100
100
100
100
100
100
100
100
100
100
100
386.167
358.687
331.754
305.708
280.856
257.458
235.721
215.796
197.774
181.689
167.522
155.209
144.648
135.709
128.242
122.086
117.077
113.054
109.865
107.37
105.443
103.973
102.867
102.045
101.442
101.005
100.692
100.471
100.317
100.211
100.139
100.09
100.058
100.037
100.023
100.014
100.009
100.005
100.003
100.002
100.001
100.001
100
100
100
100
100
100
100
100
100
100
100
100
100
100
100
100
100
100
100
100
100
100
100
100
100
100
100
100
100
100
100
100
100
386.168
358.689
331.757
305.712
280.861
257.464
235.728
215.803
197.781
181.695
167.528
155.214
144.653
135.713
128.246
122.089
117.08
113.056
109.867
107.371
105.444
103.974
102.868
102.045
101.442
101.005
100.692
100.471
100.317
100.211
100.139
100.09
100.058
100.037
100.023
100.014
100.009
100.005
100.003
100.002
100.001
100.001
100
100
100
100
100
100
100
100
100
100
100
100
100
100
100
100
100
100
100
100
100
100
100
100
100
100
100
100
100
100
100
100
100
386.169
358.69
331.759
305.715
280.865
257.468
235.732
215.807
197.785
181.7
167.532
155.218
144.656
135.716
128.248
122.091
117.081
113.058
109.868
107.372
105.445
103.975
102.868
102.046
101.442
101.005
100.692
100.471
100.317
100.211
100.139
100.09
100.058
100.037
100.023
100.014
100.009
100.005
100.003
100.002
100.001
100.001
100
100
100
100
100
100
100
100
100
100
100
100
100
100
100
100
100
100
100
100
100
100
100
100
100
100
100
100
100
100
100
100
100
386.169
358.691
331.761
305.717
280.867
257.47
235.735
215.81
197.788
181.702
167.534
155.22
144.659
135.718
128.25
122.093
117.083
113.059
109.869
107.373
105.445
103.975
102.868
102.046
101.442
101.005
100.692
100.471
100.317
100.211
100.139
100.09
100.058
100.037
100.023
100.014
100.009
100.005
100.003
100.002
100.001
100.001
100
100
100
100
100
100
100
100
100
100
100
100
100
100
100
100
100
100
100
100
100
100
100
100
100
100
100
100
100
100
100
100
100
386.169
358.692
331.761
305.718
280.868
257.472
235.736
215.812
197.79
181.704
167.536
155.222
144.66
135.72
128.251
122.094
117.083
113.059
109.869
107.373
105.445
103.975
102.869
102.046
101.443
101.005
100.692
100.471
100.317
100.211
100.139
100.09
100.058
100.037
100.023
100.014
100.009
100.005
100.003
100.002
100.001
100.001
100
100
100
100
100
100
100
100
100
100
100
100
100
100
100
100
100
100
100
100
100
100
100
100
100
100
100
100
100
100
100
100
100
386.169
358.692
331.762
305.719
280.869
257.473
235.737
215.813
197.791
181.705
167.537
155.223
144.661
135.72
128.252
122.094
117.084
113.06
109.87
107.374
105.446
103.975
102.869
102.046
101.443
101.005
100.692
100.471
100.317
100.211
100.139
100.09
100.058
100.037
100.023
100.014
100.009
100.005
100.003
100.002
100.001
100.001
100
100
100
100
100
100
100
100
100
100
100
100
100
100
100
100
100
100
100
100
100
100
100
100
100
100
100
100
100
100
100
100
100
386.169
358.692
331.762
305.719
280.87
257.473
235.738
215.814
197.792
181.706
167.538
155.223
144.661
135.721
128.252
122.095
117.084
113.06
109.87
107.374
105.446
103.975
102.869
102.046
101.443
101.005
100.692
100.471
100.317
100.211
100.139
100.09
100.058
100.037
100.023
100.014
100.009
100.005
100.003
100.002
100.001
100.001
100
100
100
100
100
100
100
100
100
100
100
100
100
100
100
100
100
100
100
100
100
100
100
100
100
100
100
100
100
100
100
100
100
386.169
358.692
331.762
305.72
280.87
257.474
235.738
215.814
197.792
181.706
167.538
155.224
144.662
135.721
128.252
122.095
117.084
113.06
109.87
107.374
105.446
103.976
102.869
102.046
101.443
101.005
100.692
100.471
100.317
100.211
100.139
100.09
100.058
100.037
100.023
100.014
100.009
100.005
100.003
100.002
100.001
100.001
100
100
100
100
100
100
100
100
100
100
100
100
100
100
100
100
100
100
100
100
100
100
100
100
100
100
100
100
100
100
100
100
100
386.169
358.693
331.763
305.72
280.87
257.474
235.739
215.814
197.792
181.706
167.538
155.224
144.662
135.721
128.253
122.095
117.084
113.06
109.87
107.374
105.446
103.976
102.869
102.046
101.443
101.005
100.693
100.471
100.317
100.211
100.139
100.09
100.058
100.037
100.023
100.014
100.009
100.005
100.003
100.002
100.001
100.001
100
100
100
100
100
100
100
100
100
100
100
100
100
100
100
100
100
100
100
100
100
100
100
100
100
100
100
100
100
100
100
100
100
386.169
358.693
331.763
305.72
280.87
257.474
235.739
215.815
197.793
181.707
167.539
155.224
144.662
135.721
128.253
122.095
117.084
113.06
109.87
107.374
105.446
103.976
102.869
102.046
101.443
101.005
100.693
100.471
100.317
100.211
100.139
100.09
100.058
100.037
100.023
100.014
100.009
100.005
100.003
100.002
100.001
100.001
100
100
100
100
100
100
100
100
100
100
100
100
100
100
100
100
100
100
100
100
100
100
100
100
100
100
100
100
100
100
100
100
100
386.169
358.693
331.763
305.72
280.87
257.474
235.739
215.815
197.793
181.707
167.539
155.224
144.662
135.721
128.253
122.095
117.085
113.06
109.87
107.374
105.446
103.976
102.869
102.046
101.443
101.005
100.693
100.472
100.317
100.211
100.139
100.09
100.058
100.037
100.023
100.014
100.009
100.005
100.003
100.002
100.001
100.001
100
100
100
100
100
100
100
100
100
100
100
100
100
100
100
100
100
100
100
100
100
100
100
100
100
100
100
100
100
100
100
100
100
386.169
358.693
331.763
305.72
280.87
257.474
235.739
215.815
197.793
181.707
167.539
155.224
144.662
135.721
128.253
122.095
117.085
113.06
109.87
107.374
105.446
103.976
102.869
102.046
101.443
101.005
100.693
100.472
100.317
100.211
100.139
100.09
100.058
100.037
100.023
100.014
100.009
100.005
100.003
100.002
100.001
100.001
100
100
100
100
100
100
100
100
100
100
100
100
100
100
100
100
100
100
100
100
100
100
100
100
100
100
100
100
100
100
100
100
100
386.169
358.693
331.763
305.72
280.87
257.474
235.739
215.815
197.793
181.707
167.539
155.224
144.662
135.721
128.253
122.095
117.085
113.06
109.87
107.374
105.446
103.976
102.869
102.046
101.443
101.005
100.693
100.472
100.317
100.211
100.139
100.09
100.058
100.037
100.023
100.014
100.009
100.005
100.003
100.002
100.001
100.001
100
100
100
100
100
100
100
100
100
100
100
100
100
100
100
100
100
100
100
100
100
100
100
100
100
100
100
100
100
100
100
100
100
386.169
358.693
331.763
305.72
280.87
257.474
235.739
215.815
197.793
181.707
167.539
155.224
144.662
135.721
128.253
122.095
117.085
113.06
109.87
107.374
105.446
103.976
102.869
102.046
101.443
101.005
100.693
100.472
100.317
100.211
100.139
100.09
100.058
100.037
100.023
100.014
100.009
100.005
100.003
100.002
100.001
100.001
100
100
100
100
100
100
100
100
100
100
100
100
100
100
100
100
100
100
100
100
100
100
100
100
100
100
100
100
100
100
100
100
100
386.169
358.693
331.763
305.72
280.87
257.474
235.739
215.815
197.793
181.707
167.539
155.224
144.662
135.721
128.253
122.095
117.085
113.06
109.87
107.374
105.446
103.976
102.869
102.046
101.443
101.005
100.693
100.472
100.317
100.211
100.139
100.09
100.058
100.037
100.023
100.014
100.009
100.005
100.003
100.002
100.001
100.001
100
100
100
100
100
100
100
100
100
100
100
100
100
100
100
100
100
100
100
100
100
100
100
100
100
100
100
100
100
100
100
100
100
386.169
358.693
331.763
305.72
280.87
257.474
235.739
215.815
197.793
181.707
167.539
155.224
144.662
135.721
128.253
122.095
117.085
113.06
109.87
107.374
105.446
103.976
102.869
102.046
101.443
101.005
100.693
100.472
100.317
100.211
100.139
100.09
100.058
100.037
100.023
100.014
100.009
100.005
100.003
100.002
100.001
100.001
100
100
100
100
100
100
100
100
100
100
100
100
100
100
100
100
100
100
100
100
100
100
100
100
100
100
100
100
100
100
100
100
100
386.169
358.693
331.763
305.72
280.87
257.474
235.739
215.815
197.793
181.707
167.539
155.224
144.662
135.721
128.253
122.095
117.085
113.06
109.87
107.374
105.446
103.976
102.869
102.046
101.443
101.005
100.693
100.472
100.317
100.211
100.139
100.09
100.058
100.037
100.023
100.014
100.009
100.005
100.003
100.002
100.001
100.001
100
100
100
100
100
100
100
100
100
100
100
100
100
100
100
100
100
100
100
100
100
100
100
100
100
100
100
100
100
100
100
100
100
386.169
358.693
331.763
305.72
280.87
257.474
235.739
215.815
197.793
181.707
167.539
155.224
144.662
135.721
128.253
122.095
117.085
113.06
109.87
107.374
105.446
103.976
102.869
102.046
101.443
101.005
100.693
100.472
100.317
100.211
100.139
100.09
100.058
100.037
100.023
100.014
100.009
100.005
100.003
100.002
100.001
100.001
100
100
100
100
100
100
100
100
100
100
100
100
100
100
100
100
100
100
100
100
100
100
100
100
100
100
100
100
100
100
100
100
100
386.169
358.693
331.763
305.72
280.87
257.474
235.739
215.815
197.793
181.707
167.539
155.224
144.662
135.721
128.253
122.095
117.085
113.06
109.87
107.374
105.446
103.976
102.869
102.046
101.443
101.005
100.693
100.472
100.317
100.211
100.139
100.09
100.058
100.037
100.023
100.014
100.009
100.005
100.003
100.002
100.001
100.001
100
100
100
100
100
100
100
100
100
100
100
100
100
100
100
100
100
100
100
100
100
100
100
100
100
100
100
100
100
100
100
100
100
386.169
358.693
331.763
305.72
280.87
257.474
235.739
215.815
197.793
181.707
167.539
155.224
144.662
135.721
128.253
122.095
117.085
113.06
109.87
107.374
105.446
103.976
102.869
102.046
101.443
101.005
100.693
100.472
100.317
100.211
100.139
100.09
100.058
100.037
100.023
100.014
100.009
100.005
100.003
100.002
100.001
100.001
100
100
100
100
100
100
100
100
100
100
100
100
100
100
100
100
100
100
100
100
100
100
100
100
100
100
100
100
100
100
100
100
100
386.169
358.693
331.763
305.72
280.87
257.474
235.739
215.815
197.793
181.707
167.539
155.224
144.662
135.721
128.253
122.095
117.085
113.06
109.87
107.374
105.446
103.976
102.869
102.046
101.443
101.005
100.693
100.472
100.317
100.211
100.139
100.09
100.058
100.037
100.023
100.014
100.009
100.005
100.003
100.002
100.001
100.001
100
100
100
100
100
100
100
100
100
100
100
100
100
100
100
100
100
100
100
100
100
100
100
100
100
100
100
100
100
100
100
100
100
386.169
358.693
331.763
305.72
280.87
257.474
235.739
215.815
197.793
181.707
167.539
155.224
144.662
135.721
128.253
122.095
117.085
113.06
109.87
107.374
105.446
103.976
102.869
102.046
101.443
101.005
100.693
100.472
100.317
100.211
100.139
100.09
100.058
100.037
100.023
100.014
100.009
100.005
100.003
100.002
100.001
100.001
100
100
100
100
100
100
100
100
100
100
100
100
100
100
100
100
100
100
100
100
100
100
100
100
100
100
100
100
100
100
100
100
100
386.169
358.693
331.763
305.72
280.87
257.474
235.739
215.815
197.793
181.707
167.539
155.224
144.662
135.721
128.253
122.095
117.085
113.06
109.87
107.374
105.446
103.976
102.869
102.046
101.443
101.005
100.693
100.472
100.317
100.211
100.139
100.09
100.058
100.037
100.023
100.014
100.009
100.005
100.003
100.002
100.001
100.001
100
100
100
100
100
100
100
100
100
100
100
100
100
100
100
100
100
100
100
100
100
100
100
100
100
100
100
100
100
100
100
100
100
386.169
358.693
331.763
305.72
280.87
257.474
235.739
215.815
197.793
181.707
167.539
155.224
144.662
135.721
128.253
122.095
117.085
113.06
109.87
107.374
105.446
103.976
102.869
102.046
101.443
101.005
100.693
100.472
100.317
100.211
100.139
100.09
100.058
100.037
100.023
100.014
100.009
100.005
100.003
100.002
100.001
100.001
100
100
100
100
100
100
100
100
100
100
100
100
100
100
100
100
100
100
100
100
100
100
100
100
100
100
100
100
100
100
100
100
100
386.169
358.693
331.763
305.72
280.87
257.474
235.739
215.815
197.793
181.707
167.539
155.224
144.662
135.721
128.253
122.095
117.085
113.06
109.87
107.374
105.446
103.976
102.869
102.046
101.443
101.005
100.693
100.472
100.317
100.211
100.139
100.09
100.058
100.037
100.023
100.014
100.009
100.005
100.003
100.002
100.001
100.001
100
100
100
100
100
100
100
100
100
100
100
100
100
100
100
100
100
100
100
100
100
100
100
100
100
100
100
100
100
100
100
100
100
386.169
358.693
331.763
305.72
280.87
257.474
235.739
215.815
197.793
181.707
167.539
155.224
144.662
135.721
128.253
122.095
117.085
113.06
109.87
107.374
105.446
103.976
102.869
102.046
101.443
101.005
100.693
100.472
100.317
100.211
100.139
100.09
100.058
100.037
100.023
100.014
100.009
100.005
100.003
100.002
100.001
100.001
100
100
100
100
100
100
100
100
100
100
100
100
100
100
100
100
100
100
100
100
100
100
100
100
100
100
100
100
100
100
100
100
100
386.169
358.693
331.763
305.72
280.87
257.474
235.739
215.815
197.793
181.707
167.539
155.224
144.662
135.721
128.253
122.095
117.085
113.06
109.87
107.374
105.446
103.976
102.869
102.046
101.443
101.005
100.693
100.472
100.317
100.211
100.139
100.09
100.058
100.037
100.023
100.014
100.009
100.005
100.003
100.002
100.001
100.001
100
100
100
100
100
100
100
100
100
100
100
100
100
100
100
100
100
100
100
100
100
100
100
100
100
100
100
100
100
100
100
100
100
386.169
358.693
331.763
305.72
280.87
257.474
235.739
215.815
197.793
181.707
167.539
155.224
144.662
135.721
128.253
122.095
117.085
113.06
109.87
107.374
105.446
103.976
102.869
102.046
101.443
101.005
100.693
100.472
100.317
100.211
100.139
100.09
100.058
100.037
100.023
100.014
100.009
100.005
100.003
100.002
100.001
100.001
100
100
100
100
100
100
100
100
100
100
100
100
100
100
100
100
100
100
100
100
100
100
100
100
100
100
100
100
100
100
100
100
100
386.169
358.693
331.763
305.72
280.87
257.474
235.739
215.815
197.793
181.707
167.539
155.224
144.662
135.721
128.253
122.095
117.085
113.06
109.87
107.374
105.446
103.976
102.869
102.046
101.443
101.005
100.693
100.472
100.317
100.211
100.139
100.09
100.058
100.037
100.023
100.014
100.009
100.005
100.003
100.002
100.001
100.001
100
100
100
100
100
100
100
100
100
100
100
100
100
100
100
100
100
100
100
100
100
100
100
100
100
100
100
100
100
100
100
100
100
386.169
358.693
331.763
305.72
280.87
257.474
235.739
215.815
197.793
181.707
167.539
155.224
144.662
135.721
128.253
122.095
117.085
113.06
109.87
107.374
105.446
103.976
102.869
102.046
101.443
101.005
100.693
100.472
100.317
100.211
100.139
100.09
100.058
100.037
100.023
100.014
100.009
100.005
100.003
100.002
100.001
100.001
100
100
100
100
100
100
100
100
100
100
100
100
100
100
100
100
100
100
100
100
100
100
100
100
100
100
100
100
100
100
100
100
100
386.169
358.693
331.763
305.72
280.87
257.474
235.739
215.815
197.793
181.707
167.539
155.224
144.662
135.721
128.253
122.095
117.085
113.06
109.87
107.374
105.446
103.976
102.869
102.046
101.443
101.005
100.693
100.472
100.317
100.211
100.139
100.09
100.058
100.037
100.023
100.014
100.009
100.005
100.003
100.002
100.001
100.001
100
100
100
100
100
100
100
100
100
100
100
100
100
100
100
100
100
100
100
100
100
100
100
100
100
100
100
100
100
100
100
100
100
386.169
358.693
331.763
305.72
280.87
257.474
235.739
215.815
197.793
181.707
167.539
155.224
144.662
135.721
128.253
122.095
117.085
113.06
109.87
107.374
105.446
103.976
102.869
102.046
101.443
101.005
100.693
100.472
100.317
100.211
100.139
100.09
100.058
100.037
100.023
100.014
100.009
100.005
100.003
100.002
100.001
100.001
100
100
100
100
100
100
100
100
100
100
100
100
100
100
100
100
100
100
100
100
100
100
100
100
100
100
100
100
100
100
100
100
100
386.169
358.693
331.763
305.72
280.87
257.474
235.739
215.815
197.793
181.707
167.539
155.224
144.662
135.721
128.253
122.095
117.085
113.06
109.87
107.374
105.446
103.976
102.869
102.046
101.443
101.005
100.693
100.472
100.317
100.211
100.139
100.09
100.058
100.037
100.023
100.014
100.009
100.005
100.003
100.002
100.001
100.001
100
100
100
100
100
100
100
100
100
100
100
100
100
100
100
100
100
100
100
100
100
100
100
100
100
100
100
100
100
100
100
100
100
386.169
358.693
331.763
305.72
280.87
257.474
235.739
215.815
197.793
181.707
167.539
155.224
144.662
135.721
128.253
122.095
117.085
113.06
109.87
107.374
105.446
103.976
102.869
102.046
101.443
101.005
100.693
100.472
100.317
100.211
100.139
100.09
100.058
100.037
100.023
100.014
100.009
100.005
100.003
100.002
100.001
100.001
100
100
100
100
100
100
100
100
100
100
100
100
100
100
100
100
100
100
100
100
100
100
100
100
100
100
100
100
100
100
100
100
100
386.169
358.693
331.763
305.72
280.87
257.474
235.739
215.815
197.793
181.707
167.539
155.224
144.662
135.721
128.253
122.095
117.085
113.06
109.87
107.374
105.446
103.976
102.869
102.046
101.443
101.005
100.693
100.472
100.317
100.211
100.139
100.09
100.058
100.037
100.023
100.014
100.009
100.005
100.003
100.002
100.001
100.001
100
100
100
100
100
100
100
100
100
100
100
100
100
100
100
100
100
100
100
100
100
100
100
100
100
100
100
100
100
100
100
100
100
386.169
358.693
331.763
305.72
280.87
257.474
235.739
215.815
197.793
181.707
167.539
155.224
144.662
135.721
128.253
122.095
117.085
113.06
109.87
107.374
105.446
103.976
102.869
102.046
101.443
101.005
100.693
100.472
100.317
100.211
100.139
100.09
100.058
100.037
100.023
100.014
100.009
100.005
100.003
100.002
100.001
100.001
100
100
100
100
100
100
100
100
100
100
100
100
100
100
100
100
100
100
100
100
100
100
100
100
100
100
100
100
100
100
100
100
100
386.169
358.693
331.763
305.72
280.87
257.474
235.739
215.815
197.793
181.707
167.539
155.224
144.662
135.721
128.253
122.095
117.085
113.06
109.87
107.374
105.446
103.976
102.869
102.046
101.443
101.005