/*--------------------------------*- C++ -*----------------------------------*\
  =========                 |
  \\      /  F ield         | OpenFOAM: The Open Source CFD Toolbox
   \\    /   O peration     | Website:  https://openfoam.org
    \\  /    A nd           | Version:  10
     \\/     M anipulation  |
\*---------------------------------------------------------------------------*/
FoamFile
{
    format      ascii;
    class       volScalarField;
    location    "260";
    object      gradTz;
}
// * * * * * * * * * * * * * * * * * * * * * * * * * * * * * * * * * * * * * //

dimensions      [0 -1 0 1 0 0 0];

internalField   nonuniform List<scalar> 
11250
(
-14354.5
-4149.91
-1529.45
-725.616
-420.56
-278.52
-200.656
-152.605
-120.313
-97.1956
-79.8275
-66.2826
-55.4116
-46.4958
-39.0671
-32.8095
-27.5015
-22.9822
-19.1299
-15.8491
-13.0623
-10.704
-8.71807
-7.05513
-5.67135
-4.52764
-3.5891
-2.82463
-2.20673
-1.71121
-1.31701
-1.00595
-0.762496
-0.573531
-0.428072
-0.317033
-0.232975
-0.169873
-0.122898
-0.0882193
-0.0628319
-0.044401
-0.0311315
-0.0216573
-0.0149487
-0.0102376
-0.00695654
-0.00469015
-0.00313747
-0.00208244
-0.0013714
-0.000896094
-0.00058095
-0.000373694
-0.000238495
-0.000151016
-9.48725e-05
-5.91316e-05
-3.65638e-05
-2.24295e-05
-1.36494e-05
-8.23969e-06
-4.93401e-06
-2.9306e-06
-1.72645e-06
-1.00874e-06
-5.84563e-07
-3.35955e-07
-1.91484e-07
-1.08276e-07
-6.08179e-08
-3.41074e-08
-1.93642e-08
-1.16644e-08
-8.40446e-09
-8267.66
-4865.08
-2771.21
-1677.63
-1098.27
-771.041
-571.879
-441.843
-351.618
-285.757
-235.641
-196.213
-164.37
-138.135
-116.201
-97.6766
-81.9329
-68.508
-57.051
-47.2848
-38.9826
-31.9531
-26.0306
-21.0694
-16.9396
-13.5254
-10.723
-8.43993
-6.59427
-5.11396
-3.93617
-3.00669
-2.27917
-1.71443
-1.27968
-0.947779
-0.696513
-0.507879
-0.367446
-0.26377
-0.187869
-0.132763
-0.0930884
-0.0647602
-0.0447009
-0.0306141
-0.0208029
-0.0140257
-0.00938261
-0.00622763
-0.00410129
-0.00267988
-0.00173743
-0.00111761
-0.000713277
-0.000451656
-0.000283746
-0.000176854
-0.000109358
-6.70849e-05
-4.08246e-05
-2.46449e-05
-1.47577e-05
-8.76558e-06
-5.16407e-06
-3.01737e-06
-1.74852e-06
-1.00488e-06
-5.72785e-07
-3.2392e-07
-1.81937e-07
-1.01961e-07
-5.79026e-08
-3.49448e-08
-2.51519e-08
-5581.82
-4270.03
-3011.25
-2114.1
-1522.65
-1134.48
-873.142
-690.631
-558.122
-458.331
-380.714
-318.677
-267.993
-225.874
-190.433
-160.355
-134.694
-112.749
-93.978
-77.9483
-64.3019
-52.7338
-42.9784
-34.7999
-27.9878
-22.3529
-17.7257
-13.9546
-10.905
-8.45838
-6.51129
-4.97436
-3.77117
-2.83703
-2.1178
-1.56866
-1.15288
-0.840708
-0.608284
-0.436681
-0.31104
-0.219817
-0.154134
-0.107233
-0.0740211
-0.0506963
-0.0344503
-0.0232278
-0.0155389
-0.0103141
-0.0067927
-0.00443863
-0.00287773
-0.00185116
-0.00118147
-0.000748137
-0.000470016
-0.000292959
-0.000181156
-0.000111131
-6.76307e-05
-4.0828e-05
-2.4449e-05
-1.45222e-05
-8.55567e-06
-4.99922e-06
-2.89706e-06
-1.66499e-06
-9.49058e-07
-5.36716e-07
-3.01481e-07
-1.68962e-07
-9.5957e-08
-5.79026e-08
-4.17171e-08
-4205.18
-3619.42
-2887.28
-2242.65
-1741.79
-1369.38
-1094.2
-888.36
-731.182
-608.334
-510.115
-429.986
-363.501
-307.603
-260.146
-219.594
-184.815
-154.949
-129.319
-107.375
-88.6554
-72.7603
-59.3375
-48.0719
-38.6797
-30.9046
-24.5157
-19.306
-15.0909
-11.7079
-9.01471
-6.88818
-5.22296
-3.9298
-2.93394
-2.17344
-1.59755
-1.16509
-0.843065
-0.60528
-0.431165
-0.304733
-0.213692
-0.148678
-0.102635
-0.0702976
-0.0477727
-0.0322118
-0.02155
-0.0143046
-0.00942114
-0.0061564
-0.00399157
-0.00256774
-0.00163887
-0.00103781
-0.000652025
-0.000406417
-0.000251323
-0.00015418
-9.3832e-05
-5.66473e-05
-3.39232e-05
-2.01505e-05
-1.18719e-05
-6.9372e-06
-4.02029e-06
-2.31063e-06
-1.31712e-06
-7.4487e-07
-4.18429e-07
-2.34538e-07
-1.33227e-07
-8.03928e-08
-5.78927e-08
-3410.7
-3111.7
-2672.48
-2224.35
-1829.77
-1504.72
-1244
-1035.96
-868.907
-733.151
-621.304
-527.921
-449.047
-381.814
-324.125
-274.421
-231.516
-194.483
-162.576
-135.169
-111.729
-91.7836
-74.9114
-60.7307
-48.8942
-39.0859
-31.0196
-24.4373
-19.1086
-14.8295
-11.4213
-8.72919
-6.62035
-4.98219
-3.7203
-2.75642
-2.02635
-1.47801
-1.06963
-0.768029
-0.547153
-0.386747
-0.271227
-0.188724
-0.13029
-0.0892451
-0.0606529
-0.0408991
-0.0273635
-0.0181645
-0.0119639
-0.00781841
-0.00506939
-0.00326124
-0.00208159
-0.00131822
-0.00082823
-0.00051627
-0.000319267
-0.000195871
-0.000119209
-7.19709e-05
-4.31016e-05
-2.56036e-05
-1.50854e-05
-8.81542e-06
-5.10903e-06
-2.93651e-06
-1.67397e-06
-9.46749e-07
-5.31862e-07
-2.98128e-07
-1.69347e-07
-1.02211e-07
-7.36106e-08
-2910.66
-2739.73
-2462.37
-2148.6
-1844.74
-1572.73
-1338.67
-1140.72
-974.051
-833.356
-713.872
-611.692
-523.745
-447.659
-381.609
-324.177
-274.241
-230.891
-193.369
-161.021
-133.271
-109.601
-89.5382
-72.6474
-58.5293
-46.8167
-37.1748
-29.3
-22.9204
-17.7942
-13.7092
-10.4809
-7.95093
-5.98494
-4.47004
-3.31255
-2.43561
-1.77682
-1.28606
-0.923559
-0.658037
-0.465177
-0.326265
-0.227042
-0.156758
-0.107384
-0.0729866
-0.0492195
-0.0329325
-0.0218629
-0.0144007
-0.00941139
-0.00610262
-0.00392615
-0.00250612
-0.00158715
-0.000997245
-0.000621655
-0.000384457
-0.000235877
-0.000143565
-8.66795e-05
-5.1913e-05
-3.08395e-05
-1.81714e-05
-1.06194e-05
-6.15487e-06
-3.53786e-06
-2.01691e-06
-1.14077e-06
-6.40925e-07
-3.59314e-07
-2.04104e-07
-1.23179e-07
-8.8727e-08
-2576.05
-2468.81
-2283.59
-2058.25
-1823.68
-1599.21
-1394.3
-1211.94
-1051.68
-911.5
-788.945
-681.648
-587.539
-504.887
-432.27
-368.52
-312.666
-263.881
-221.445
-184.714
-153.101
-126.063
-103.095
-83.7227
-67.5053
-54.0335
-42.9311
-33.855
-26.496
-20.5787
-15.8603
-12.1295
-9.20437
-6.93033
-5.1774
-3.8376
-2.82224
-2.05925
-1.49074
-1.07071
-0.762992
-0.539443
-0.378399
-0.263352
-0.181847
-0.124583
-0.0846841
-0.0571128
-0.0382169
-0.025373
-0.0167139
-0.0109239
-0.00708385
-0.00455772
-0.00290944
-0.00184268
-0.00115787
-0.000721826
-0.000446433
-0.000273916
-0.000166727
-0.00010067
-6.02956e-05
-3.58215e-05
-2.11083e-05
-1.23365e-05
-7.15064e-06
-4.1105e-06
-2.34353e-06
-1.32561e-06
-7.44856e-07
-4.17645e-07
-2.37253e-07
-1.43202e-07
-1.03161e-07
-2342.27
-2269.65
-2139.02
-1971.66
-1787.65
-1601.96
-1423.94
-1258.46
-1107.44
-971.032
-848.538
-738.9
-640.988
-553.728
-476.149
-407.39
-346.681
-293.322
-246.671
-206.123
-171.107
-141.073
-115.5
-93.888
-75.7658
-60.6907
-48.2519
-38.0729
-29.8124
-23.165
-17.8609
-13.6645
-10.3726
-7.81229
-5.83787
-4.32822
-3.18376
-2.32351
-1.68236
-1.20855
-0.861357
-0.609078
-0.427304
-0.297425
-0.205399
-0.140734
-0.0956723
-0.0645297
-0.0431839
-0.028673
-0.0188893
-0.0123467
-0.00800703
-0.00515205
-0.00328906
-0.00208324
-0.00130912
-0.000816166
-0.000504812
-0.000309756
-0.000188553
-0.000113856
-6.81981e-05
-4.05191e-05
-2.38781e-05
-1.39564e-05
-8.09016e-06
-4.65097e-06
-2.65189e-06
-1.50014e-06
-8.43019e-07
-4.7275e-07
-2.68607e-07
-1.62154e-07
-1.16792e-07
-2173.87
-2121.41
-2024.46
-1895.55
-1747.8
-1592.31
-1437.16
-1287.58
-1146.55
-1015.53
-895.025
-784.977
-685.044
-594.753
-513.571
-440.954
-376.354
-319.226
-269.026
-225.212
-187.244
-154.586
-126.71
-103.105
-83.278
-66.7602
-53.114
-41.9349
-32.8543
-25.5411
-19.7015
-15.0786
-11.4501
-8.62656
-6.44821
-4.782
-3.51841
-2.5683
-1.85999
-1.3364
-0.952641
-0.673734
-0.472734
-0.329092
-0.227296
-0.155756
-0.105896
-0.071433
-0.0478083
-0.0317465
-0.0209159
-0.0136724
-0.00886751
-0.00570615
-0.00364306
-0.00230763
-0.00145022
-0.0009042
-0.0005593
-0.000343214
-0.000208934
-0.000126172
-7.55805e-05
-4.49086e-05
-2.64669e-05
-1.54707e-05
-8.96872e-06
-5.1565e-06
-2.94039e-06
-1.66352e-06
-9.34909e-07
-5.2431e-07
-2.97955e-07
-1.79914e-07
-1.29608e-07
-2049.88
-2009.84
-1934.43
-1831.42
-1709.58
-1577.08
-1440.53
-1304.85
-1173.39
-1048.28
-930.778
-821.545
-720.857
-628.738
-545.049
-469.543
-401.895
-341.719
-288.582
-242.017
-201.528
-166.603
-136.721
-111.365
-90.0309
-72.2313
-57.5074
-45.4321
-35.6143
-27.7006
-21.377
-16.3676
-12.4335
-9.37058
-7.00649
-5.19747
-3.82507
-2.7928
-2.023
-1.45382
-1.03653
-0.733184
-0.514528
-0.358239
-0.247461
-0.169596
-0.115319
-0.0777977
-0.0520734
-0.034582
-0.0227862
-0.0148963
-0.0096621
-0.00621796
-0.00397013
-0.00251499
-0.00158066
-0.000985597
-0.000609693
-0.000374164
-0.000227792
-0.00013757
-8.24145e-05
-4.89731e-05
-2.88646e-05
-1.68736e-05
-9.78285e-06
-5.62511e-06
-3.20793e-06
-1.81504e-06
-1.02016e-06
-5.72211e-07
-3.25216e-07
-1.96382e-07
-1.41533e-07
-1957.15
-1925.09
-1863.89
-1778.63
-1675.36
-1560.15
-1438.35
-1314.33
-1191.42
-1072.07
-957.957
-850.234
-749.627
-656.553
-571.205
-493.597
-423.61
-361.012
-305.483
-256.635
-214.022
-177.165
-145.557
-118.683
-96.0331
-77.1082
-61.4338
-48.5648
-38.0916
-29.6426
-22.8861
-17.5303
-13.3218
-10.0435
-7.51199
-5.57405
-4.10328
-2.99665
-2.17115
-1.5606
-1.11287
-0.78732
-0.552609
-0.38481
-0.265853
-0.182224
-0.123921
-0.0836106
-0.0559703
-0.0371737
-0.0244962
-0.0160157
-0.010389
-0.00668634
-0.00426953
-0.00270487
-0.00170012
-0.00106017
-0.000655871
-0.000402533
-0.000245081
-0.000148023
-8.86834e-05
-5.27025e-05
-3.10652e-05
-1.81616e-05
-1.05306e-05
-6.05559e-06
-3.45376e-06
-1.95433e-06
-1.09859e-06
-6.16286e-07
-3.50269e-07
-2.11545e-07
-1.52506e-07
-1887.01
-1860.25
-1808.68
-1735.78
-1645.89
-1543.63
-1433.34
-1318.83
-1203.26
-1089.15
-978.421
-872.525
-772.506
-679.08
-592.702
-513.61
-441.864
-377.372
-319.923
-269.205
-224.828
-186.344
-153.269
-125.095
-101.31
-81.4087
-64.9053
-51.3412
-40.2919
-31.3707
-24.2315
-18.5685
-14.1161
-10.646
-7.96513
-5.91198
-4.35319
-3.17994
-2.30446
-1.65676
-1.18167
-0.836143
-0.586974
-0.408803
-0.282469
-0.193639
-0.1317
-0.0888696
-0.0594973
-0.0395204
-0.0260451
-0.0170299
-0.011048
-0.00711102
-0.00454108
-0.00287713
-0.00180854
-0.00112786
-0.0006978
-0.000428299
-0.000260789
-0.000157522
-9.43818e-05
-5.60934e-05
-3.30668e-05
-1.93335e-05
-1.1211e-05
-6.44747e-06
-3.67763e-06
-2.08124e-06
-1.17006e-06
-6.56438e-07
-3.73167e-07
-2.25407e-07
-1.62479e-07
-1833.54
-1810.4
-1765.49
-1701.31
-1621.14
-1528.56
-1427.17
-1320.28
-1210.82
-1101.29
-993.705
-889.705
-790.542
-697.153
-610.198
-530.092
-457.049
-391.099
-332.129
-279.899
-234.072
-194.236
-159.929
-130.653
-105.9
-85.161
-67.9426
-53.7764
-42.226
-32.8929
-25.4186
-19.4862
-14.8192
-11.1801
-8.3673
-6.21225
-4.57549
-3.34314
-2.42326
-1.74253
-1.24308
-0.879755
-0.617691
-0.430262
-0.297339
-0.20386
-0.138669
-0.0935832
-0.0626599
-0.0416254
-0.0274351
-0.0179405
-0.0116397
-0.00749253
-0.0047851
-0.00303198
-0.00190602
-0.00118874
-0.000735524
-0.000451487
-0.000274928
-0.000166075
-9.95145e-05
-5.91486e-05
-3.48707e-05
-2.03899e-05
-1.18247e-05
-6.80101e-06
-3.87966e-06
-2.19582e-06
-1.23462e-06
-6.92725e-07
-3.93844e-07
-2.37914e-07
-1.71524e-07
-1792.57
-1771.94
-1731.71
-1673.78
-1600.7
-1515.37
-1420.8
-1319.94
-1215.48
-1109.83
-1005.04
-902.852
-804.652
-711.535
-624.311
-543.541
-469.559
-402.503
-342.343
-288.904
-241.899
-200.952
-165.62
-135.422
-109.852
-88.4013
-70.5729
-55.8904
-43.909
-34.2201
-26.4557
-20.2892
-15.4354
-11.6488
-8.72074
-6.47646
-4.77131
-3.48704
-2.52812
-1.8183
-1.29738
-0.918341
-0.644888
-0.449274
-0.310522
-0.212927
-0.144854
-0.0977686
-0.0654694
-0.0434963
-0.0286709
-0.0187504
-0.0121662
-0.00783211
-0.00500238
-0.0031699
-0.00199287
-0.001243
-0.000769155
-0.000472165
-0.000287541
-0.000173707
-0.000104095
-6.18762e-05
-3.64816e-05
-2.13336e-05
-1.23731e-05
-7.11707e-06
-4.06033e-06
-2.2983e-06
-1.29238e-06
-7.25208e-07
-4.12335e-07
-2.49117e-07
-1.79674e-07
-1761.07
-1742.22
-1705.33
-1651.91
-1584.03
-1504.12
-1414.79
-1318.65
-1218.21
-1115.78
-1013.4
-912.853
-815.618
-722.893
-635.604
-554.42
-479.773
-411.889
-350.807
-296.413
-248.462
-206.609
-170.436
-139.472
-113.219
-91.1716
-72.8279
-57.7075
-45.3588
-35.3659
-27.3527
-20.9849
-15.9702
-12.0562
-9.02834
-6.7067
-4.94215
-3.61271
-2.61979
-1.8846
-1.34493
-0.95216
-0.668741
-0.465961
-0.322099
-0.220894
-0.150292
-0.10145
-0.0679422
-0.0451436
-0.0297596
-0.0194641
-0.0126304
-0.0081316
-0.00519407
-0.00329162
-0.00206955
-0.00129092
-0.000798862
-0.000490436
-0.000298689
-0.000180455
-0.000108147
-6.42891e-05
-3.79072e-05
-2.2169e-05
-1.28586e-05
-7.39701e-06
-4.22043e-06
-2.38914e-06
-1.34355e-06
-7.53984e-07
-4.28783e-07
-2.59118e-07
-1.86892e-07
-1736.81
-1719.23
-1684.75
-1634.62
-1570.58
-1494.73
-1409.39
-1316.93
-1219.69
-1119.88
-1019.53
-920.419
-824.087
-731.803
-644.574
-563.149
-488.042
-419.545
-357.759
-302.616
-253.912
-211.33
-174.471
-142.878
-116.062
-93.5168
-74.7423
-59.2541
-46.5957
-36.3454
-28.121
-21.582
-16.4299
-12.4069
-9.29349
-6.90541
-5.08976
-3.72142
-2.69916
-1.94206
-1.38618
-0.981521
-0.689467
-0.48047
-0.332172
-0.22783
-0.15503
-0.10466
-0.0700985
-0.0465808
-0.0307099
-0.0200873
-0.0130359
-0.00839331
-0.00536164
-0.00339806
-0.00213662
-0.00133285
-0.000824865
-0.000506434
-0.000308453
-0.000186366
-0.000111697
-6.64043e-05
-3.91572e-05
-2.29018e-05
-1.32847e-05
-7.64271e-06
-4.36097e-06
-2.46891e-06
-1.38856e-06
-7.79335e-07
-4.43216e-07
-2.67872e-07
-1.93264e-07
-1718.12
-1701.47
-1668.73
-1621
-1559.8
-1487.01
-1404.71
-1315.09
-1220.38
-1122.69
-1024
-926.115
-830.592
-738.748
-651.648
-570.102
-494.682
-425.738
-363.418
-307.695
-258.397
-215.232
-177.82
-145.717
-118.438
-95.4834
-76.352
-60.5579
-47.6408
-37.1749
-28.7729
-22.0894
-16.8212
-12.7059
-9.51988
-7.07529
-5.21612
-3.81458
-2.76725
-1.99141
-1.42163
-1.00678
-0.707308
-0.492968
-0.340855
-0.233813
-0.159118
-0.107431
-0.0719616
-0.0478233
-0.0315317
-0.0206266
-0.0133869
-0.00861993
-0.0055068
-0.00349029
-0.00219476
-0.00136921
-0.000847419
-0.000520314
-0.000316926
-0.000191498
-0.00011478
-6.82415e-05
-4.02432e-05
-2.35385e-05
-1.3655e-05
-7.85636e-06
-4.48322e-06
-2.53833e-06
-1.42773e-06
-8.01392e-07
-4.55819e-07
-2.75515e-07
-1.988e-07
-1703.73
-1687.75
-1656.29
-1610.33
-1551.24
-1480.74
-1400.74
-1313.32
-1220.58
-1124.57
-1027.25
-930.384
-835.563
-744.13
-657.19
-575.599
-499.975
-430.708
-367.987
-311.818
-262.056
-218.43
-180.575
-148.06
-120.406
-97.1171
-77.693
-61.6466
-48.5156
-37.8706
-29.3207
-22.5166
-17.1512
-12.9584
-9.71137
-7.21917
-5.32326
-3.89367
-2.82512
-2.03338
-1.45181
-1.0283
-0.722524
-0.503636
-0.348272
-0.238926
-0.162615
-0.109802
-0.0735567
-0.0488875
-0.032236
-0.0210889
-0.0136879
-0.00881438
-0.00563139
-0.00356949
-0.0022447
-0.00140044
-0.000866802
-0.000532245
-0.000324213
-0.000195912
-0.000117432
-6.98226e-05
-4.11781e-05
-2.40869e-05
-1.3974e-05
-8.04043e-06
-4.58861e-06
-2.59819e-06
-1.46148e-06
-8.20413e-07
-4.66714e-07
-2.82133e-07
-2.03548e-07
-1692.67
-1677.18
-1646.66
-1602
-1544.48
-1475.69
-1397.45
-1311.71
-1220.51
-1125.83
-1029.59
-933.569
-839.341
-748.276
-661.505
-579.916
-504.161
-434.666
-371.647
-315.137
-265.014
-221.026
-182.821
-149.976
-122.021
-98.4618
-78.7997
-62.5474
-49.241
-38.4487
-29.7768
-22.873
-17.4269
-13.1697
-9.87183
-7.3399
-5.41328
-3.96019
-2.87384
-2.06875
-1.47727
-1.04647
-0.735382
-0.512657
-0.354548
-0.243257
-0.165578
-0.111813
-0.0749099
-0.0497907
-0.032834
-0.0214816
-0.0139438
-0.00897971
-0.00573737
-0.00363687
-0.0022872
-0.00142704
-0.000883309
-0.00054241
-0.000330421
-0.000199674
-0.000119694
-7.11708e-05
-4.19755e-05
-2.45547e-05
-1.42462e-05
-8.19756e-06
-4.67858e-06
-2.64929e-06
-1.49034e-06
-8.36683e-07
-4.76028e-07
-2.878e-07
-2.0762e-07
-1684.19
-1669.06
-1639.23
-1595.53
-1539.18
-1471.68
-1394.76
-1310.31
-1220.29
-1126.65
-1031.28
-935.935
-842.2
-751.454
-664.844
-583.284
-507.45
-437.793
-374.554
-317.787
-267.387
-223.117
-184.637
-151.531
-123.335
-99.5588
-79.7048
-63.286
-49.8371
-38.9247
-30.1531
-23.1675
-17.6551
-13.3449
-10.0051
-7.44027
-5.48821
-4.01562
-2.91449
-2.0983
-1.49856
-1.06167
-0.746149
-0.520217
-0.359812
-0.246891
-0.168066
-0.113502
-0.0760474
-0.0505505
-0.0333373
-0.0218123
-0.0141593
-0.00911901
-0.00582669
-0.00369369
-0.00232305
-0.00144947
-0.000897239
-0.000550989
-0.000335663
-0.000202851
-0.000121604
-7.231e-05
-4.26494e-05
-2.49501e-05
-1.44764e-05
-8.33041e-06
-4.75465e-06
-2.69254e-06
-1.51479e-06
-8.50479e-07
-4.83877e-07
-2.92578e-07
-2.11082e-07
-1677.71
-1662.84
-1633.52
-1590.54
-1535.05
-1468.51
-1392.59
-1309.12
-1220
-1127.17
-1032.49
-937.685
-844.353
-753.875
-667.412
-585.894
-510.016
-440.247
-376.847
-319.887
-269.275
-224.787
-186.092
-152.781
-124.395
-100.446
-80.4387
-63.8861
-50.3225
-39.3132
-30.4608
-23.4087
-17.8424
-13.4889
-10.1147
-7.52296
-5.55002
-4.0614
-2.94809
-2.12275
-1.51619
-1.07428
-0.755083
-0.526495
-0.364186
-0.249913
-0.170136
-0.114909
-0.0769952
-0.0511838
-0.033757
-0.0220882
-0.0143391
-0.00923532
-0.00590129
-0.00374116
-0.00235301
-0.00146823
-0.000908889
-0.000558166
-0.000340049
-0.000205509
-0.000123202
-7.32636e-05
-4.32136e-05
-2.52812e-05
-1.46691e-05
-8.44174e-06
-4.81843e-06
-2.7288e-06
-1.53527e-06
-8.6199e-07
-4.90477e-07
-2.96599e-07
-2.13994e-07
-1672.77
-1658.09
-1629.14
-1586.69
-1531.85
-1466.03
-1390.86
-1308.13
-1219.71
-1127.5
-1033.35
-938.975
-845.967
-755.71
-669.376
-587.904
-512.004
-442.159
-378.642
-321.537
-270.765
-226.11
-187.248
-153.777
-125.242
-101.157
-81.0284
-64.3695
-50.7143
-39.6274
-30.7101
-23.6045
-17.9946
-13.6061
-10.204
-7.59047
-5.60054
-4.09887
-2.97563
-2.1428
-1.53067
-1.08464
-0.76243
-0.531662
-0.367789
-0.252403
-0.171843
-0.116069
-0.0777776
-0.0517069
-0.0341038
-0.0223163
-0.0144879
-0.00933157
-0.00596305
-0.00378046
-0.00237782
-0.00148377
-0.000918542
-0.000564114
-0.000343685
-0.000207714
-0.000124528
-7.40546e-05
-4.36817e-05
-2.5556e-05
-1.48291e-05
-8.53412e-06
-4.87137e-06
-2.75891e-06
-1.55227e-06
-8.716e-07
-4.95978e-07
-2.99915e-07
-2.16408e-07
-1669.02
-1654.49
-1625.81
-1583.75
-1529.39
-1464.1
-1389.49
-1307.32
-1219.43
-1127.7
-1033.96
-939.921
-847.171
-757.094
-670.869
-589.442
-513.534
-443.637
-380.036
-322.825
-271.932
-227.149
-188.159
-154.565
-125.913
-101.722
-81.4982
-64.7555
-51.0278
-39.8792
-30.9103
-23.762
-18.1173
-13.7006
-10.2763
-7.64509
-5.64147
-4.12925
-2.99798
-2.15909
-1.54244
-1.09307
-0.768418
-0.535876
-0.370729
-0.254438
-0.173239
-0.117019
-0.0784179
-0.0521352
-0.0343879
-0.0225032
-0.0146098
-0.00941049
-0.00601371
-0.00381272
-0.00239819
-0.00149653
-0.000926469
-0.000569
-0.000346672
-0.000209525
-0.000125618
-7.47047e-05
-4.40665e-05
-2.57819e-05
-1.49606e-05
-8.6101e-06
-4.91489e-06
-2.78363e-06
-1.56625e-06
-8.79515e-07
-5.00497e-07
-3.02671e-07
-2.18381e-07
-1666.18
-1651.76
-1623.29
-1581.51
-1527.5
-1462.61
-1388.42
-1306.67
-1219.18
-1127.82
-1034.39
-940.612
-848.064
-758.133
-671.997
-590.612
-514.703
-444.773
-381.112
-323.822
-272.838
-227.959
-188.872
-155.182
-126.441
-102.167
-81.8693
-65.061
-51.2765
-40.0794
-31.0697
-23.8876
-18.2152
-13.7763
-10.3341
-7.68891
-5.67434
-4.15368
-3.01597
-2.17222
-1.55194
-1.09988
-0.773254
-0.539283
-0.373108
-0.256085
-0.174369
-0.117788
-0.0789371
-0.0524827
-0.0346186
-0.022655
-0.0147089
-0.00947464
-0.0060549
-0.00383895
-0.00241476
-0.00150691
-0.00093292
-0.000572977
-0.000349103
-0.000211
-0.000126505
-7.52341e-05
-4.43798e-05
-2.59658e-05
-1.50678e-05
-8.67196e-06
-4.95032e-06
-2.8038e-06
-1.57766e-06
-8.85927e-07
-5.0417e-07
-3.04903e-07
-2.20008e-07
-1664.05
-1649.7
-1621.38
-1579.81
-1526.07
-1461.47
-1387.6
-1306.15
-1218.97
-1127.88
-1034.69
-941.114
-848.724
-758.907
-672.845
-591.496
-515.592
-445.639
-381.935
-324.588
-273.538
-228.586
-189.425
-155.663
-126.853
-102.516
-82.1601
-65.3009
-51.4721
-40.2372
-31.1955
-23.9869
-18.2928
-13.8363
-10.38
-7.72374
-5.7005
-4.17315
-3.03032
-2.18271
-1.55953
-1.10532
-0.777126
-0.542012
-0.375015
-0.257406
-0.175277
-0.118406
-0.0793544
-0.0527621
-0.0348041
-0.0227771
-0.0147887
-0.00952631
-0.00608809
-0.00386009
-0.00242812
-0.00151528
-0.000938123
-0.000576184
-0.000351064
-0.000212189
-0.000127221
-7.56612e-05
-4.46326e-05
-2.61143e-05
-1.51542e-05
-8.7219e-06
-4.97895e-06
-2.82006e-06
-1.58683e-06
-8.91095e-07
-5.07111e-07
-3.06714e-07
-2.21355e-07
-1662.45
-1648.16
-1619.95
-1578.54
-1524.98
-1460.61
-1386.96
-1305.75
-1218.79
-1127.91
-1034.9
-941.478
-849.21
-759.482
-673.478
-592.16
-516.262
-446.295
-382.562
-325.173
-274.073
-229.067
-189.85
-156.034
-127.171
-102.786
-82.386
-65.4876
-51.6247
-40.3604
-31.294
-24.0647
-18.3537
-13.8834
-10.4162
-7.75119
-5.72114
-4.18853
-3.04167
-2.191
-1.56554
-1.10964
-0.780199
-0.54418
-0.376531
-0.258457
-0.175999
-0.118898
-0.079687
-0.0529849
-0.0349521
-0.0228746
-0.0148524
-0.00956756
-0.00611459
-0.00387697
-0.00243879
-0.00152197
-0.000942281
-0.000578748
-0.000352632
-0.000213141
-0.000127793
-7.60027e-05
-4.48348e-05
-2.62329e-05
-1.52233e-05
-8.7618e-06
-5.00181e-06
-2.83305e-06
-1.59415e-06
-8.95239e-07
-5.09511e-07
-3.08178e-07
-2.22397e-07
-1661.26
-1647.01
-1618.88
-1577.58
-1524.17
-1459.95
-1386.48
-1305.44
-1218.64
-1127.92
-1035.05
-941.741
-849.565
-759.906
-673.949
-592.656
-516.765
-446.789
-383.035
-325.616
-274.479
-229.434
-190.175
-156.318
-127.416
-102.993
-82.56
-65.6318
-51.7427
-40.4559
-31.3704
-24.1252
-18.4011
-13.9202
-10.4444
-7.77263
-5.73729
-4.20057
-3.05056
-2.19752
-1.57026
-1.11303
-0.782616
-0.545887
-0.377725
-0.259285
-0.176569
-0.119287
-0.0799496
-0.0531609
-0.0350691
-0.0229517
-0.0149028
-0.0096002
-0.00613557
-0.00389034
-0.00244724
-0.00152727
-0.000945574
-0.000580779
-0.000353874
-0.000213894
-0.000128246
-7.62732e-05
-4.49948e-05
-2.63269e-05
-1.5278e-05
-8.79339e-06
-5.01992e-06
-2.84336e-06
-1.59997e-06
-8.98517e-07
-5.11387e-07
-3.09301e-07
-2.2323e-07
-1660.38
-1646.16
-1618.08
-1576.87
-1523.56
-1459.46
-1386.11
-1305.2
-1218.53
-1127.91
-1035.15
-941.929
-849.823
-760.217
-674.296
-593.024
-517.139
-447.159
-383.39
-325.949
-274.786
-229.711
-190.422
-156.533
-127.602
-103.152
-82.693
-65.7422
-51.8332
-40.5292
-31.4292
-24.1718
-18.4376
-13.9486
-10.4662
-7.78925
-5.74981
-4.20992
-3.05748
-2.20258
-1.57394
-1.11568
-0.784502
-0.547219
-0.378658
-0.259933
-0.177015
-0.119591
-0.0801552
-0.0532987
-0.0351607
-0.0230121
-0.0149423
-0.0096258
-0.00615203
-0.00390083
-0.00245387
-0.00153142
-0.00094816
-0.000582373
-0.000354849
-0.000214485
-0.000128602
-7.64854e-05
-4.51205e-05
-2.64007e-05
-1.5321e-05
-8.81818e-06
-5.03412e-06
-2.85143e-06
-1.60454e-06
-9.01083e-07
-5.12824e-07
-3.10177e-07
-2.23905e-07
-1659.73
-1645.53
-1617.5
-1576.35
-1523.11
-1459.1
-1385.84
-1305.02
-1218.44
-1127.91
-1035.22
-942.063
-850.01
-760.444
-674.551
-593.295
-517.416
-447.433
-383.654
-326.198
-275.015
-229.919
-190.607
-156.696
-127.742
-103.271
-82.7939
-65.826
-51.902
-40.5851
-31.474
-24.2074
-18.4656
-13.9703
-10.483
-7.80201
-5.75944
-4.21711
-3.0628
-2.20649
-1.57678
-1.11772
-0.785959
-0.548249
-0.379381
-0.260435
-0.17736
-0.119826
-0.0803147
-0.0534058
-0.0352319
-0.0230591
-0.014973
-0.00964571
-0.00616482
-0.003909
-0.00245903
-0.00153466
-0.000950171
-0.000583613
-0.000355608
-0.000214945
-0.000128879
-7.66506e-05
-4.52182e-05
-2.6458e-05
-1.53543e-05
-8.83743e-06
-5.04513e-06
-2.85771e-06
-1.60811e-06
-9.03085e-07
-5.13954e-07
-3.10881e-07
-2.24382e-07
-1659.25
-1645.07
-1617.07
-1575.96
-1522.78
-1458.82
-1385.63
-1304.88
-1218.37
-1127.9
-1035.26
-942.159
-850.145
-760.609
-674.737
-593.493
-517.619
-447.635
-383.849
-326.382
-275.186
-230.074
-190.745
-156.817
-127.848
-103.361
-82.8698
-65.8891
-51.954
-40.6274
-31.508
-24.2344
-18.4869
-13.9869
-10.4957
-7.81173
-5.76678
-4.2226
-3.06687
-2.20947
-1.57895
-1.11929
-0.787077
-0.54904
-0.379935
-0.26082
-0.177625
-0.120008
-0.0804375
-0.0534882
-0.0352867
-0.0230953
-0.0149966
-0.00966105
-0.00617469
-0.00391529
-0.00246301
-0.00153715
-0.000951722
-0.00058457
-0.000356193
-0.0002153
-0.000129092
-7.67778e-05
-4.52935e-05
-2.65022e-05
-1.538e-05
-8.85226e-06
-5.05364e-06
-2.86254e-06
-1.61083e-06
-9.04599e-07
-5.14845e-07
-3.11417e-07
-2.24756e-07
-1658.91
-1644.74
-1616.76
-1575.68
-1522.53
-1458.63
-1385.48
-1304.78
-1218.31
-1127.89
-1035.3
-942.226
-850.241
-760.728
-674.871
-593.638
-517.768
-447.783
-383.992
-326.518
-275.312
-230.188
-190.848
-156.908
-127.926
-103.428
-82.9264
-65.9364
-51.9929
-40.659
-31.5335
-24.2547
-18.5029
-13.9993
-10.5053
-7.81907
-5.77233
-4.22676
-3.06996
-2.21174
-1.5806
-1.12047
-0.787926
-0.549641
-0.380357
-0.261113
-0.177828
-0.120146
-0.0805311
-0.053551
-0.0353286
-0.0231229
-0.0150147
-0.00967278
-0.00618223
-0.0039201
-0.00246605
-0.00153906
-0.000952908
-0.000585301
-0.00035664
-0.000215571
-0.000129255
-7.6875e-05
-4.5351e-05
-2.65359e-05
-1.53996e-05
-8.86359e-06
-5.06008e-06
-2.86618e-06
-1.61289e-06
-9.05781e-07
-5.15525e-07
-3.1182e-07
-2.25047e-07
-1658.66
-1644.49
-1616.53
-1575.47
-1522.36
-1458.48
-1385.37
-1304.71
-1218.27
-1127.88
-1035.32
-942.274
-850.31
-760.813
-674.968
-593.742
-517.876
-447.89
-384.097
-326.617
-275.404
-230.272
-190.923
-156.974
-127.984
-103.478
-82.9683
-65.9714
-52.0218
-40.6826
-31.5525
-24.2699
-18.5148
-14.0086
-10.5125
-7.82456
-5.77649
-4.22988
-3.07227
-2.21344
-1.58184
-1.12137
-0.788566
-0.550094
-0.380675
-0.261335
-0.177981
-0.12025
-0.0806019
-0.0535986
-0.0353603
-0.0231438
-0.0150284
-0.00968165
-0.00618794
-0.00392374
-0.00246835
-0.0015405
-0.000953806
-0.000585855
-0.000356978
-0.000215776
-0.000129378
-7.69486e-05
-4.53944e-05
-2.65614e-05
-1.54144e-05
-8.87212e-06
-5.06498e-06
-2.86896e-06
-1.61446e-06
-9.06694e-07
-5.16027e-07
-3.12079e-07
-2.25259e-07
-1658.48
-1644.32
-1616.37
-1575.33
-1522.23
-1458.38
-1385.29
-1304.65
-1218.24
-1127.88
-1035.33
-942.307
-850.358
-760.874
-675.038
-593.817
-517.953
-447.968
-384.173
-326.689
-275.471
-230.334
-190.978
-157.023
-128.026
-103.514
-82.9991
-65.9971
-52.043
-40.6999
-31.5665
-24.2811
-18.5236
-14.0155
-10.5179
-7.82865
-5.77959
-4.2322
-3.07399
-2.21471
-1.58276
-1.12204
-0.789044
-0.550434
-0.380914
-0.261501
-0.178095
-0.120329
-0.080655
-0.0536343
-0.035384
-0.0231595
-0.0150386
-0.00968832
-0.00619223
-0.00392647
-0.00247008
-0.00154159
-0.000954481
-0.000586271
-0.000357233
-0.00021593
-0.000129471
-7.70038e-05
-4.5427e-05
-2.65805e-05
-1.54255e-05
-8.87851e-06
-5.06865e-06
-2.87105e-06
-1.61562e-06
-9.0734e-07
-5.16403e-07
-3.12331e-07
-2.25392e-07
-1658.35
-1644.19
-1616.25
-1575.22
-1522.14
-1458.3
-1385.23
-1304.61
-1218.22
-1127.87
-1035.34
-942.33
-850.393
-760.917
-675.087
-593.871
-518.009
-448.024
-384.227
-326.741
-275.519
-230.378
-191.018
-157.058
-128.057
-103.541
-83.0215
-66.0159
-52.0586
-40.7126
-31.5767
-24.2893
-18.5301
-14.0206
-10.5218
-7.83165
-5.78187
-4.23391
-3.07527
-2.21565
-1.58345
-1.12253
-0.789398
-0.550685
-0.38109
-0.261624
-0.17818
-0.120387
-0.0806944
-0.0536608
-0.0354017
-0.0231711
-0.0150463
-0.00969328
-0.00619542
-0.00392851
-0.00247137
-0.0015424
-0.000954983
-0.00058658
-0.000357422
-0.000216045
-0.00012954
-7.70448e-05
-4.54513e-05
-2.65947e-05
-1.54338e-05
-8.88326e-06
-5.07136e-06
-2.87259e-06
-1.6165e-06
-9.07822e-07
-5.16667e-07
-3.1251e-07
-2.25522e-07
-1658.26
-1644.11
-1616.17
-1575.15
-1522.07
-1458.25
-1385.19
-1304.58
-1218.2
-1127.87
-1035.35
-942.346
-850.417
-760.947
-675.122
-593.909
-518.049
-448.064
-384.266
-326.778
-275.554
-230.41
-191.047
-157.083
-128.079
-103.56
-83.0377
-66.0295
-52.0698
-40.7219
-31.5842
-24.2952
-18.5348
-14.0243
-10.5246
-7.83385
-5.78354
-4.23517
-3.0762
-2.21634
-1.58395
-1.1229
-0.789658
-0.55087
-0.38122
-0.261715
-0.178243
-0.12043
-0.0807235
-0.0536804
-0.0354147
-0.0231798
-0.0150519
-0.00969694
-0.00619778
-0.00393001
-0.00247232
-0.00154299
-0.000955353
-0.000586808
-0.000357561
-0.00021613
-0.000129591
-7.7075e-05
-4.54691e-05
-2.66051e-05
-1.54399e-05
-8.88677e-06
-5.07335e-06
-2.87369e-06
-1.61711e-06
-9.08201e-07
-5.16905e-07
-3.12633e-07
-2.25604e-07
-1658.19
-1644.04
-1616.11
-1575.09
-1522.03
-1458.21
-1385.16
-1304.56
-1218.19
-1127.86
-1035.35
-942.357
-850.433
-760.969
-675.147
-593.935
-518.077
-448.092
-384.293
-326.804
-275.579
-230.432
-191.067
-157.101
-128.095
-103.573
-83.0494
-66.0393
-52.0779
-40.7285
-31.5896
-24.2995
-18.5383
-14.027
-10.5267
-7.83544
-5.78475
-4.23608
-3.07688
-2.21684
-1.58431
-1.12316
-0.789848
-0.551004
-0.381315
-0.261781
-0.178288
-0.120461
-0.0807448
-0.0536947
-0.0354243
-0.0231861
-0.0150561
-0.00969962
-0.00619951
-0.00393111
-0.00247302
-0.00154343
-0.000955624
-0.000586975
-0.000357663
-0.000216191
-0.000129628
-7.70971e-05
-4.54821e-05
-2.66127e-05
-1.54443e-05
-8.88933e-06
-5.0748e-06
-2.87453e-06
-1.61757e-06
-9.0844e-07
-5.17057e-07
-3.12713e-07
-2.25666e-07
-1658.15
-1644
-1616.06
-1575.05
-1521.99
-1458.18
-1385.14
-1304.55
-1218.18
-1127.86
-1035.36
-942.365
-850.445
-760.983
-675.164
-593.954
-518.096
-448.111
-384.313
-326.823
-275.596
-230.448
-191.082
-157.114
-128.106
-103.583
-83.0576
-66.0462
-52.0837
-40.7333
-31.5934
-24.3026
-18.5407
-14.0289
-10.5282
-7.83659
-5.78562
-4.23673
-3.07737
-2.2172
-1.58458
-1.12335
-0.789985
-0.551102
-0.381384
-0.261829
-0.178322
-0.120484
-0.0807602
-0.053705
-0.0354312
-0.0231906
-0.0150591
-0.00970157
-0.00620076
-0.00393191
-0.00247352
-0.00154375
-0.000955821
-0.000587096
-0.000357737
-0.000216236
-0.000129655
-7.71131e-05
-4.54916e-05
-2.66182e-05
-1.54475e-05
-8.89114e-06
-5.07585e-06
-2.87514e-06
-1.61792e-06
-9.0863e-07
-5.17163e-07
-3.1277e-07
-2.25704e-07
-1658.12
-1643.97
-1616.04
-1575.03
-1521.97
-1458.16
-1385.12
-1304.54
-1218.18
-1127.86
-1035.36
-942.37
-850.453
-760.994
-675.176
-593.967
-518.11
-448.125
-384.326
-326.836
-275.608
-230.459
-191.092
-157.123
-128.114
-103.59
-83.0635
-66.0512
-52.0878
-40.7366
-31.5962
-24.3048
-18.5424
-14.0303
-10.5293
-7.8374
-5.78624
-4.2372
-3.07772
-2.21745
-1.58477
-1.12349
-0.790083
-0.551172
-0.381433
-0.261863
-0.178345
-0.1205
-0.0807712
-0.0537125
-0.0354362
-0.0231939
-0.0150612
-0.00970297
-0.00620166
-0.00393249
-0.00247389
-0.00154397
-0.000955962
-0.000587183
-0.00035779
-0.000216268
-0.000129674
-7.71245e-05
-4.54983e-05
-2.66222e-05
-1.54497e-05
-8.89243e-06
-5.07658e-06
-2.87556e-06
-1.61818e-06
-9.08768e-07
-5.17216e-07
-3.12825e-07
-2.25755e-07
-1658.09
-1643.95
-1616.02
-1575.01
-1521.95
-1458.15
-1385.11
-1304.53
-1218.17
-1127.86
-1035.36
-942.373