/*--------------------------------*- C++ -*----------------------------------*\
  =========                 |
  \\      /  F ield         | OpenFOAM: The Open Source CFD Toolbox
   \\    /   O peration     | Website:  https://openfoam.org
    \\  /    A nd           | Version:  10
     \\/     M anipulation  |
\*---------------------------------------------------------------------------*/
FoamFile
{
    format      ascii;
    class       volScalarField;
    location    "216";
    object      T;
}
// * * * * * * * * * * * * * * * * * * * * * * * * * * * * * * * * * * * * * //

dimensions      [0 0 0 1 0 0 0];

internalField   nonuniform List<scalar> 
11250
(
249.754
167.293
138.928
126.356
119.439
115.018
111.909
109.586
107.78
106.34
105.172
104.215
103.426
102.775
102.237
101.793
101.429
101.132
100.89
100.695
100.539
100.414
100.316
100.239
100.18
100.134
100.099
100.072
100.052
100.038
100.027
100.019
100.013
100.009
100.006
100.004
100.003
100.002
100.001
100.001
100.001
100
100
100
100
100
100
100
100
100
100
100
100
100
100
100
100
100
100
100
100
100
100
100
100
100
100
100
100
100
100
100
100
100
100
331.234
247.798
201.016
173.445
155.864
143.791
134.995
128.296
123.033
118.807
115.365
112.535
110.198
108.264
106.665
105.346
104.262
103.376
102.656
102.074
101.608
101.237
100.944
100.714
100.536
100.399
100.295
100.216
100.157
100.113
100.08
100.057
100.04
100.028
100.019
100.013
100.009
100.006
100.004
100.003
100.002
100.001
100.001
100
100
100
100
100
100
100
100
100
100
100
100
100
100
100
100
100
100
100
100
100
100
100
100
100
100
100
100
100
100
100
100
358.634
291.695
243.968
210.642
186.904
169.432
156.141
145.742
137.427
130.673
125.125
120.54
116.736
113.579
110.962
108.8
107.02
105.564
104.378
103.421
102.653
102.041
101.558
101.18
100.886
100.66
100.487
100.357
100.259
100.186
100.133
100.094
100.066
100.046
100.032
100.022
100.015
100.01
100.006
100.004
100.003
100.002
100.001
100.001
100
100
100
100
100
100
100
100
100
100
100
100
100
100
100
100
100
100
100
100
100
100
100
100
100
100
100
100
100
100
100
370.266
316.456
272.64
238.417
211.882
191.128
174.657
161.387
150.556
141.63
134.223
128.054
122.908
118.618
115.051
112.096
109.658
107.66
106.033
104.716
103.658
102.816
102.15
101.629
101.224
100.911
100.673
100.493
100.358
100.258
100.184
100.13
100.091
100.063
100.044
100.03
100.02
100.014
100.009
100.006
100.004
100.003
100.002
100.001
100.001
100
100
100
100
100
100
100
100
100
100
100
100
100
100
100
100
100
100
100
100
100
100
100
100
100
100
100
100
100
100
376.275
331.325
291.89
258.732
231.362
208.87
190.337
174.982
162.189
151.483
142.498
134.949
128.611
123.302
118.869
115.185
112.139
109.638
107.596
105.942
104.613
103.552
102.714
102.056
101.545
101.152
100.851
100.623
100.453
100.326
100.233
100.165
100.115
100.08
100.055
100.038
100.026
100.017
100.011
100.008
100.005
100.003
100.002
100.001
100.001
100.001
100
100
100
100
100
100
100
100
100
100
100
100
100
100
100
100
100
100
100
100
100
100
100
100
100
100
100
100
100
379.831
340.809
305.078
273.548
246.323
223.07
203.301
186.512
172.253
160.142
149.861
141.146
133.779
127.574
122.371
118.031
114.434
111.472
109.051
107.086
105.505
104.242
103.243
102.458
101.848
101.378
101.018
100.746
100.542
100.39
100.279
100.197
100.138
100.096
100.066
100.045
100.031
100.021
100.014
100.009
100.006
100.004
100.002
100.002
100.001
100.001
100
100
100
100
100
100
100
100
100
100
100
100
100
100
100
100
100
100
100
100
100
100
100
100
100
100
100
100
100
382.122
347.161
314.322
284.411
257.742
234.288
213.84
196.108
180.792
167.604
156.288
146.613
138.378
131.403
125.528
120.611
116.523
113.149
110.384
108.137
106.326
104.879
103.732
102.83
102.129
101.588
101.174
100.86
100.625
100.45
100.322
100.228
100.16
100.111
100.077
100.052
100.035
100.024
100.016
100.01
100.007
100.004
100.003
100.002
100.001
100.001
100
100
100
100
100
100
100
100
100
100
100
100
100
100
100
100
100
100
100
100
100
100
100
100
100
100
100
100
100
383.681
351.573
320.936
292.437
266.444
243.081
222.306
203.981
187.922
173.93
161.805
151.356
142.403
134.78
128.331
122.913
118.396
114.658
111.589
109.09
107.073
105.459
104.178
103.171
102.386
101.78
101.317
100.966
100.702
100.506
100.361
100.256
100.179
100.125
100.086
100.059
100.04
100.027
100.018
100.012
100.008
100.005
100.003
100.002
100.001
100.001
100
100
100
100
100
100
100
100
100
100
100
100
100
100
100
100
100
100
100
100
100
100
100
100
100
100
100
100
100
384.779
354.72
325.749
298.415
273.081
249.94
229.047
210.366
193.799
179.217
166.471
155.409
145.873
137.713
130.781
124.938
120.051
115.997
112.662
109.942
107.742
105.98
104.58
103.478
102.619
101.955
101.447
101.061
100.772
100.556
100.397
100.281
100.198
100.137
100.095
100.065
100.044
100.029
100.02
100.013
100.008
100.005
100.004
100.002
100.001
100.001
100.001
100
100
100
100
100
100
100
100
100
100
100
100
100
100
100
100
100
100
100
100
100
100
100
100
100
100
100
100
385.571
357.008
329.296
302.896
278.149
255.274
234.381
215.498
198.59
183.581
170.367
158.825
148.823
140.225
132.894
126.693
121.493
117.169
113.604
110.692
108.334
106.442
104.937
103.751
102.826
102.111
101.563
101.147
100.834
100.602
100.43
100.305
100.214
100.149
100.103
100.07
100.047
100.032
100.021
100.014
100.009
100.006
100.004
100.002
100.002
100.001
100.001
100
100
100
100
100
100
100
100
100
100
100
100
100
100
100
100
100
100
100
100
100
100
100
100
100
100
100
100
386.151
358.694
331.935
306.273
282.023
259.411
238.578
219.591
202.459
187.147
173.582
161.67
151.3
142.35
134.691
128.195
122.733
118.181
114.422
111.346
108.851
106.846
105.25
103.992
103.009
102.248
101.665
101.223
100.89
100.642
100.459
100.325
100.228
100.159
100.11
100.075
100.051
100.034
100.023
100.015
100.01
100.006
100.004
100.003
100.002
100.001
100.001
100
100
100
100
100
100
100
100
100
100
100
100
100
100
100
100
100
100
100
100
100
100
100
100
100
100
100
100
386.581
359.947
333.912
308.827
284.986
262.613
241.864
222.833
205.558
190.031
176.207
164.013
153.355
144.125
136.202
129.465
123.787
119.045
115.122
111.907
109.296
107.196
105.522
104.201
103.168
102.369
101.755
101.289
100.939
100.677
100.484
100.343
100.241
100.168
100.116
100.079
100.054
100.036
100.024
100.016
100.01
100.007
100.004
100.003
100.002
100.001
100.001
100
100
100
100
100
100
100
100
100
100
100
100
100
100
100
100
100
100
100
100
100
100
100
100
100
100
100
100
386.901
360.885
335.398
310.762
287.25
265.084
244.426
225.386
208.021
192.343
178.329
165.921
155.041
145.59
137.458
130.525
124.67
119.773
115.715
112.384
109.676
107.495
105.755
104.381
103.306
102.472
101.833
101.347
100.981
100.708
100.506
100.359
100.252
100.176
100.121
100.083
100.056
100.038
100.025
100.017
100.011
100.007
100.005
100.003
100.002
100.001
100.001
100
100
100
100
100
100
100
100
100
100
100
100
100
100
100
100
100
100
100
100
100
100
100
100
100
100
100
100
387.141
361.588
336.519
312.229
288.979
266.985
246.414
227.383
209.964
194.182
180.029
167.462
156.411
146.788
138.489
131.4
125.403
120.379
116.21
112.784
109.995
107.747
105.952
104.533
103.422
102.561
101.899
101.396
101.017
100.734
100.525
100.372
100.262
100.182
100.126
100.086
100.058
100.039
100.026
100.017
100.011
100.007
100.005
100.003
100.002
100.001
100.001
100
100
100
100
100
100
100
100
100
100
100
100
100
100
100
100
100
100
100
100
100
100
100
100
100
100
100
100
387.321
362.117
337.363
313.34
290.297
268.444
247.95
228.937
211.486
195.633
181.38
168.693
157.512
147.756
139.327
132.115
126.005
120.878
116.619
113.115
110.261
107.957
106.117
104.661
103.52
102.635
101.955
101.437
101.047
100.756
100.541
100.384
100.27
100.188
100.13
100.089
100.06
100.04
100.027
100.018
100.012
100.008
100.005
100.003
100.002
100.001
100.001
100
100
100
100
100
100
100
100
100
100
100
100
100
100
100
100
100
100
100
100
100
100
100
100
100
100
100
100
387.456
362.514
338
314.181
291.298
269.559
249.13
230.139
212.671
196.769
182.444
169.668
158.389
148.531
140.001
132.692
126.493
121.285
116.954
113.387
110.479
108.131
106.253
104.767
103.601
102.697
102.001
101.472
101.073
100.775
100.555
100.394
100.277
100.193
100.133
100.091
100.062
100.042
100.028
100.018
100.012
100.008
100.005
100.003
100.002
100.001
100.001
100
100
100
100
100
100
100
100
100
100
100
100
100
100
100
100
100
100
100
100
100
100
100
100
100
100
100
100
387.557
362.812
338.478
314.815
292.057
270.407
250.033
231.063
213.586
197.652
183.275
170.434
159.081
149.146
140.538
133.154
126.884
121.613
117.225
113.608
110.657
108.272
106.365
104.854
103.668
102.748
102.04
101.501
101.094
100.791
100.566
100.402
100.282
100.197
100.136
100.093
100.063
100.042
100.028
100.019
100.012
100.008
100.005
100.003
100.002
100.001
100.001
100
100
100
100
100
100
100
100
100
100
100
100
100
100
100
100
100
100
100
100
100
100
100
100
100
100
100
100
387.633
363.035
338.837
315.292
292.629
271.049
250.719
231.769
214.289
198.333
183.919
171.03
159.622
149.628
140.961
133.52
127.196
121.874
117.441
113.785
110.8
108.387
106.455
104.924
103.723
102.789
102.071
101.524
101.112
100.803
100.575
100.408
100.287
100.2
100.138
100.095
100.064
100.043
100.029
100.019
100.012
100.008
100.005
100.003
100.002
100.001
100.001
100
100
100
100
100
100
100
100
100
100
100
100
100
100
100
100
100
100
100
100
100
100
100
100
100
100
100
100
387.69
363.201
339.105
315.649
293.059
271.533
251.239
232.305
214.825
198.855
184.414
171.49
160.042
150.004
141.292
133.807
127.441
122.08
117.613
113.926
110.914
108.478
106.527
104.98
103.766
102.823
102.096
101.543
101.126
100.814
100.583
100.414
100.291
100.203
100.14
100.096
100.065
100.044
100.029
100.019
100.013
100.008
100.005
100.003
100.002
100.001
100.001
100
100
100
100
100
100
100
100
100
100
100
100
100
100
100
100
100
100
100
100
100
100
100
100
100
100
100
100
387.731
363.325
339.305
315.915
293.38
271.896
251.629
232.709
215.231
199.251
184.792
171.843
160.365
150.294
141.548
134.03
127.632
122.242
117.747
114.036
111.004
108.55
106.584
105.025
103.801
102.849
102.117
101.558
101.137
100.822
100.589
100.418
100.294
100.205
100.142
100.097
100.066
100.044
100.029
100.019
100.013
100.008
100.005
100.003
100.002
100.001
100.001
100.001
100
100
100
100
100
100
100
100
100
100
100
100
100
100
100
100
100
100
100
100
100
100
100
100
100
100
100
387.762
363.416
339.452
316.112
293.619
272.166
251.921
233.012
215.536
199.55
185.078
172.111
160.611
150.516
141.745
134.201
127.779
122.367
117.851
114.123
111.074
108.606
106.629
105.06
103.828
102.87
102.133
101.57
101.146
100.828
100.594
100.421
100.297
100.207
100.143
100.098
100.066
100.045
100.03
100.02
100.013
100.008
100.005
100.003
100.002
100.001
100.001
100.001
100
100
100
100
100
100
100
100
100
100
100
100
100
100
100
100
100
100
100
100
100
100
100
100
100
100
100
387.785
363.483
339.561
316.258
293.795
272.366
252.137
233.238
215.764
199.774
185.293
172.312
160.796
150.684
141.894
134.332
127.892
122.462
117.932
114.189
111.128
108.65
106.664
105.088
103.85
102.887
102.145
101.58
101.153
100.834
100.597
100.424
100.298
100.208
100.144
100.098
100.067
100.045
100.03
100.02
100.013
100.008
100.005
100.003
100.002
100.001
100.001
100.001
100
100
100
100
100
100
100
100
100
100
100
100
100
100
100
100
100
100
100
100
100
100
100
100
100
100
100
387.802
363.533
339.641
316.365
293.924
272.514
252.297
233.405
215.933
199.94
185.453
172.463
160.936
150.81
142.007
134.43
127.977
122.535
117.993
114.239
111.169
108.683
106.69
105.109
103.866
102.899
102.155
101.587
101.158
100.838
100.6
100.426
100.3
100.209
100.145
100.099
100.067
100.045
100.03
100.02
100.013
100.008
100.005
100.003
100.002
100.001
100.001
100.001
100
100
100
100
100
100
100
100
100
100
100
100
100
100
100
100
100
100
100
100
100
100
100
100
100
100
100
387.814
363.568
339.699
316.443
294.019
272.621
252.414
233.527
216.057
200.063
185.571
172.575
161.039
150.904
142.091
134.504
128.041
122.59
118.039
114.278
111.201
108.709
106.711
105.125
103.879
102.909
102.162
101.592
101.162
100.841
100.602
100.428
100.301
100.21
100.145
100.099
100.067
100.045
100.03
100.02
100.013
100.008
100.005
100.003
100.002
100.001
100.001
100.001
100
100
100
100
100
100
100
100
100
100
100
100
100
100
100
100
100
100
100
100
100
100
100
100
100
100
100
387.823
363.594
339.741
316.499
294.088
272.7
252.499
233.616
216.148
200.153
185.658
172.657
161.115
150.973
142.153
134.559
128.088
122.63
118.073
114.306
111.224
108.728
106.726
105.137
103.888
102.916
102.168
101.597
101.165
100.843
100.604
100.429
100.302
100.211
100.146
100.1
100.068
100.045
100.03
100.02
100.013
100.008
100.005
100.003
100.002
100.001
100.001
100.001
100
100
100
100
100
100
100
100
100
100
100
100
100
100
100
100
100
100
100
100
100
100
100
100
100
100
100
387.829
363.613
339.771
316.54
294.137
272.756
252.56
233.681
216.213
200.218
185.721
172.717
161.171
151.024
142.198
134.6
128.124
122.66
118.099
114.327
111.242
108.742
106.737
105.146
103.895
102.922
102.172
101.6
101.168
100.845
100.605
100.43
100.303
100.211
100.146
100.1
100.068
100.046
100.03
100.02
100.013
100.009
100.005
100.003
100.002
100.001
100.001
100.001
100
100
100
100
100
100
100
100
100
100
100
100
100
100
100
100
100
100
100
100
100
100
100
100
100
100
100
387.833
363.626
339.793
316.569
294.172
272.796
252.604
233.727
216.261
200.265
185.767
172.76
161.211
151.061
142.232
134.629
128.149
122.682
118.117
114.343
111.255
108.752
106.746
105.153
103.9
102.926
102.175
101.602
101.17
100.846
100.606
100.431
100.303
100.211
100.146
100.1
100.068
100.046
100.03
100.02
100.013
100.009
100.005
100.003
100.002
100.001
100.001
100.001
100
100
100
100
100
100
100
100
100
100
100
100
100
100
100
100
100
100
100
100
100
100
100
100
100
100
100
387.837
363.636
339.808
316.589
294.197
272.825
252.636
233.76
216.294
200.299
185.799
172.791
161.24
151.088
142.256
134.65
128.168
122.698
118.131
114.354
111.264
108.76
106.752
105.158
103.904
102.929
102.177
101.604
101.171
100.847
100.607
100.431
100.304
100.212
100.146
100.1
100.068
100.046
100.03
100.02
100.013
100.009
100.005
100.003
100.002
100.001
100.001
100.001
100
100
100
100
100
100
100
100
100
100
100
100
100
100
100
100
100
100
100
100
100
100
100
100
100
100
100
387.839
363.642
339.819
316.604
294.215
272.845
252.658
233.784
216.318
200.322
185.822
172.813
161.261
151.107
142.273
134.665
128.181
122.71
118.14
114.363
111.271
108.766
106.756
105.161
103.907
102.931
102.179
101.605
101.172
100.848
100.608
100.432
100.304
100.212
100.146
100.1
100.068
100.046
100.031
100.02
100.013
100.009
100.005
100.003
100.002
100.001
100.001
100.001
100
100
100
100
100
100
100
100
100
100
100
100
100
100
100
100
100
100
100
100
100
100
100
100
100
100
100
387.84
363.647
339.826
316.614
294.227
272.859
252.673
233.8
216.335
200.339
185.839
172.829
161.275
151.12
142.285
134.676
128.19
122.718
118.147
114.368
111.275
108.77
106.76
105.164
103.909
102.933
102.18
101.606
101.173
100.848
100.608
100.432
100.304
100.212
100.147
100.1
100.068
100.046
100.031
100.02
100.013
100.009
100.005
100.003
100.002
100.001
100.001
100.001
100
100
100
100
100
100
100
100
100
100
100
100
100
100
100
100
100
100
100
100
100
100
100
100
100
100
100
387.842
363.65
339.831
316.621
294.236
272.869
252.684
233.811
216.347
200.351
185.85
172.84
161.286
151.129
142.293
134.684
128.197
122.724
118.152
114.373
111.279
108.772
106.762
105.165
103.91
102.934
102.181
101.607
101.173
100.849
100.608
100.432
100.304
100.212
100.147
100.1
100.068
100.046
100.031
100.02
100.013
100.009
100.006
100.004
100.002
100.001
100.001
100.001
100
100
100
100
100
100
100
100
100
100
100
100
100
100
100
100
100
100
100
100
100
100
100
100
100
100
100
387.842
363.652
339.835
316.626
294.242
272.876
252.692
233.819
216.355
200.359
185.858
172.847
161.293
151.136
142.299
134.689
128.202
122.728
118.156
114.375
111.281
108.774
106.763
105.167
103.911
102.934
102.182
101.607
101.173
100.849
100.609
100.432
100.304
100.212
100.147
100.1
100.068
100.046
100.031
100.02
100.013
100.009
100.006
100.004
100.002
100.001
100.001
100.001
100
100
100
100
100
100
100
100
100
100
100
100
100
100
100
100
100
100
100
100
100
100
100
100
100
100
100
387.843
363.654
339.837
316.629
294.246
272.881
252.697
233.825
216.36
200.364
185.863
172.852
161.297
151.14
142.303
134.693
128.205
122.731
118.158
114.377
111.283
108.776
106.765
105.168
103.912
102.935
102.182
101.608
101.174
100.849
100.609
100.432
100.304
100.212
100.147
100.1
100.068
100.046
100.031
100.02
100.013
100.009
100.006
100.004
100.002
100.001
100.001
100.001
100
100
100
100
100
100
100
100
100
100
100
100
100
100
100
100
100
100
100
100
100
100
100
100
100
100
100
387.843
363.655
339.839
316.631
294.249
272.884
252.7
233.828
216.364
200.368
185.867
172.856
161.301
151.144
142.306
134.695
128.207
122.733
118.16
114.379
111.284
108.777
106.765
105.168
103.913
102.935
102.182
101.608
101.174
100.849
100.609
100.432
100.304
100.212
100.147
100.101
100.068
100.046
100.031
100.02
100.013
100.009
100.006
100.004
100.002
100.001
100.001
100.001
100
100
100
100
100
100
100
100
100
100
100
100
100
100
100
100
100
100
100
100
100
100
100
100
100
100
100
387.843
363.655
339.84
316.633
294.25
272.886
252.703
233.831
216.367
200.371
185.87
172.858
161.303
151.146
142.308
134.697
128.209
122.734
118.161
114.38
111.285
108.777
106.766
105.169
103.913
102.936
102.183
101.608
101.174
100.849
100.609
100.432
100.304
100.212
100.147
100.101
100.068
100.046
100.031
100.02
100.013
100.009
100.006
100.004
100.002
100.001
100.001
100.001
100
100
100
100
100
100
100
100
100
100
100
100
100
100
100
100
100
100
100
100
100
100
100
100
100
100
100
387.843
363.656
339.841
316.634
294.252
272.887
252.704
233.832
216.368
200.372
185.871
172.86
161.305
151.147
142.309
134.698
128.21
122.735
118.162
114.38
111.285
108.778
106.766
105.169
103.913
102.936
102.183
101.608
101.174
100.849
100.609
100.433
100.304
100.212
100.147
100.101
100.068
100.046
100.031
100.02
100.013
100.009
100.006
100.004
100.002
100.001
100.001
100.001
100
100
100
100
100
100
100
100
100
100
100
100
100
100
100
100
100
100
100
100
100
100
100
100
100
100
100
387.844
363.656
339.841
316.634
294.252
272.888
252.705
233.834
216.369
200.373
185.872
172.861
161.306
151.148
142.31
134.699
128.21
122.735
118.162
114.381
111.286
108.778
106.766
105.169
103.913
102.936
102.183
101.608
101.174
100.849
100.609
100.433
100.304
100.212
100.147
100.101
100.068
100.046
100.031
100.02
100.013
100.009
100.006
100.004
100.002
100.001
100.001
100.001
100
100
100
100
100
100
100
100
100
100
100
100
100
100
100
100
100
100
100
100
100
100
100
100
100
100
100
387.844
363.656
339.842
316.635
294.253
272.889
252.706
233.834
216.37
200.374
185.873
172.862
161.306
151.149
142.311
134.699
128.211
122.736
118.162
114.381
111.286
108.778
106.767
105.169
103.913
102.936
102.183
101.608
101.174
100.849
100.609
100.433
100.304
100.212
100.147
100.101
100.068
100.046
100.031
100.02
100.013
100.009
100.006
100.004
100.002
100.001
100.001
100.001
100
100
100
100
100
100
100
100
100
100
100
100
100
100
100
100
100
100
100
100
100
100
100
100
100
100
100
387.844
363.657
339.842
316.635
294.253
272.889
252.706
233.835
216.371
200.375
185.874
172.862
161.307
151.149
142.311
134.7
128.211
122.736
118.163
114.381
111.286
108.778
106.767
105.169
103.914
102.936
102.183
101.608
101.174
100.849
100.609
100.433
100.304
100.212
100.147
100.101
100.068
100.046
100.031
100.02
100.013
100.009
100.006
100.004
100.002
100.001
100.001
100.001
100
100
100
100
100
100
100
100
100
100
100
100
100
100
100
100
100
100
100
100
100
100
100
100
100
100
100
387.844
363.657
339.842
316.635
294.254
272.89
252.707
233.835
216.371
200.375
185.874
172.862
161.307
151.149
142.311
134.7
128.211
122.736
118.163
114.381
111.286
108.778
106.767
105.169
103.914
102.936
102.183
101.608
101.174
100.849
100.609
100.433
100.304
100.212
100.147
100.101
100.068
100.046
100.031
100.02
100.013
100.009
100.006
100.004
100.002
100.001
100.001
100.001
100
100
100
100
100
100
100
100
100
100
100
100
100
100
100
100
100
100
100
100
100
100
100
100
100
100
100
387.844
363.657
339.842
316.635
294.254
272.89
252.707
233.835
216.371
200.375
185.874
172.863
161.307
151.149
142.311
134.7
128.211
122.736
118.163
114.381
111.286
108.778
106.767
105.169
103.914
102.936
102.183
101.608
101.174
100.849
100.609
100.433
100.304
100.212
100.147
100.101
100.068
100.046
100.031
100.02
100.013
100.009
100.006
100.004
100.002
100.001
100.001
100.001
100
100
100
100
100
100
100
100
100
100
100
100
100
100
100
100
100
100
100
100
100
100
100
100
100
100
100
387.844
363.657
339.842
316.635
294.254
272.89
252.707
233.835
216.371
200.375
185.874
172.863
161.307
151.15
142.312
134.7
128.211
122.736
118.163
114.381
111.286
108.779
106.767
105.169
103.914
102.936
102.183
101.608
101.174
100.849
100.609
100.433
100.304
100.212
100.147
100.101
100.068
100.046
100.031
100.02
100.013
100.009
100.006
100.004
100.002
100.001
100.001
100.001
100
100
100
100
100
100
100
100
100
100
100
100
100
100
100
100
100
100
100
100
100
100
100
100
100
100
100
387.844
363.657
339.842
316.635
294.254
272.89
252.707
233.835
216.371
200.375
185.874
172.863
161.307
151.15
142.312
134.7
128.212
122.736
118.163
114.382
111.286
108.779
106.767
105.169
103.914
102.936
102.183
101.608
101.174
100.849
100.609
100.433
100.304
100.212
100.147
100.101
100.068
100.046
100.031
100.02
100.013
100.009
100.006
100.004
100.002
100.001
100.001
100.001
100
100
100
100
100
100
100
100
100
100
100
100
100
100
100
100
100
100
100
100
100
100
100
100
100
100
100
387.844
363.657
339.842
316.635
294.254
272.89
252.707
233.835
216.371
200.375
185.874
172.863
161.307
151.15
142.312
134.7
128.212
122.736
118.163
114.382
111.286
108.779
106.767
105.169
103.914
102.936
102.183
101.608
101.174
100.849
100.609
100.433
100.304
100.212
100.147
100.101
100.068
100.046
100.031
100.02
100.013
100.009
100.006
100.004
100.002
100.001
100.001
100.001
100
100
100
100
100
100
100
100
100
100
100
100
100
100
100
100
100
100
100
100
100
100
100
100
100
100
100
387.844
363.657
339.842
316.635
294.254
272.89
252.707
233.836
216.371
200.376
185.874
172.863
161.307
151.15
142.312
134.7
128.212
122.736
118.163
114.382
111.286
108.779
106.767
105.169
103.914
102.936
102.183
101.608
101.174
100.849
100.609
100.433
100.304
100.212
100.147
100.101
100.068
100.046
100.031
100.02
100.013
100.009
100.006
100.004
100.002
100.001
100.001
100.001
100
100
100
100
100
100
100
100
100
100
100
100
100
100
100
100
100
100
100
100
100
100
100
100
100
100
100
387.844
363.657
339.842
316.635
294.254
272.89
252.707
233.836
216.371
200.376
185.874
172.863
161.307
151.15
142.312
134.7
128.212
122.736
118.163
114.382
111.286
108.779
106.767
105.169
103.914
102.936
102.183
101.608
101.174
100.849
100.609
100.433
100.304
100.212
100.147
100.101
100.068
100.046
100.031
100.02
100.013
100.009
100.006
100.004
100.002
100.001
100.001
100.001
100
100
100
100
100
100
100
100
100
100
100
100
100
100
100
100
100
100
100
100
100
100
100
100
100
100
100
387.844
363.657
339.842
316.636
294.254
272.89
252.707
233.836
216.371
200.376
185.874
172.863
161.307
151.15
142.312
134.7
128.212
122.736
118.163
114.382
111.286
108.779
106.767
105.169
103.914
102.936
102.183
101.608
101.174
100.849
100.609
100.433
100.304
100.212
100.147
100.101
100.068
100.046
100.031
100.02
100.013
100.009
100.006
100.004
100.002
100.001
100.001
100.001
100
100
100
100
100
100
100
100
100
100
100
100
100
100
100
100
100
100
100
100
100
100
100
100
100
100
100
387.844
363.657
339.842
316.636
294.254
272.89
252.707
233.836
216.371
200.376
185.874
172.863
161.307
151.15
142.312
134.7
128.212
122.736
118.163
114.382
111.286
108.779
106.767
105.169
103.914
102.936
102.183
101.608
101.174
100.849
100.609
100.433
100.304
100.212
100.147
100.101
100.068
100.046
100.031
100.02
100.013
100.009
100.006
100.004
100.002
100.001
100.001
100.001
100
100
100
100
100
100
100
100
100
100
100
100
100
100
100
100
100
100
100
100
100
100
100
100
100
100
100
387.844
363.657
339.842
316.636
294.254
272.89
252.707
233.836
216.371
200.376
185.874
172.863
161.307
151.15
142.312
134.7
128.212
122.736
118.163
114.382
111.286
108.779
106.767
105.169
103.914
102.936
102.183
101.608
101.174
100.849
100.609
100.433
100.304
100.212
100.147
100.101
100.068
100.046
100.031
100.02
100.013
100.009
100.006
100.004
100.002
100.001
100.001
100.001
100
100
100
100
100
100
100
100
100
100
100
100
100
100
100
100
100
100
100
100
100
100
100
100
100
100
100
387.844
363.657
339.842
316.636
294.254
272.89
252.707
233.836
216.371
200.376
185.874
172.863
161.307
151.15
142.312
134.7
128.212
122.736
118.163
114.382
111.286
108.779
106.767
105.169
103.914
102.936
102.183
101.608
101.174
100.849
100.609
100.433
100.304
100.212
100.147
100.101
100.068
100.046
100.031
100.02
100.013
100.009
100.006
100.004
100.002
100.001
100.001
100.001
100
100
100
100
100
100
100
100
100
100
100
100
100
100
100
100
100
100
100
100
100
100
100
100
100
100
100
387.844
363.657
339.842
316.636
294.254
272.89
252.707
233.836
216.371
200.376
185.874
172.863
161.307
151.15
142.312
134.7
128.212
122.736
118.163
114.382
111.286
108.779
106.767
105.169
103.914
102.936
102.183
101.608
101.174
100.849
100.609
100.433
100.304
100.212
100.147
100.101
100.068
100.046
100.031
100.02
100.013
100.009
100.006
100.004
100.002
100.001
100.001
100.001
100
100
100
100
100
100
100
100
100
100
100
100
100
100
100
100
100
100
100
100
100
100
100
100
100
100
100
387.844
363.657
339.842
316.636
294.254
272.89
252.707
233.836
216.371
200.376
185.874
172.863
161.307
151.15
142.312
134.7
128.212
122.736
118.163
114.382
111.286
108.779
106.767
105.169
103.914
102.936
102.183
101.608
101.174
100.849
100.609
100.433
100.304
100.212
100.147
100.101
100.068
100.046
100.031
100.02
100.013
100.009
100.006
100.004
100.002
100.001
100.001
100.001
100
100
100
100
100
100
100
100
100
100
100
100
100
100
100
100
100
100
100
100
100
100
100
100
100
100
100
387.844
363.657
339.842
316.636
294.254
272.89
252.707
233.836
216.371
200.376
185.874
172.863
161.307
151.15
142.312
134.7
128.212
122.736
118.163
114.382
111.286
108.779
106.767
105.169
103.914
102.936
102.183
101.608
101.174
100.849
100.609
100.433
100.304
100.212
100.147
100.101
100.068
100.046
100.031
100.02
100.013
100.009
100.006
100.004
100.002
100.001
100.001
100.001
100
100
100
100
100
100
100
100
100
100
100
100
100
100
100
100
100
100
100
100
100
100
100
100
100
100
100
387.844
363.657
339.842
316.636
294.254
272.89
252.707
233.836
216.371
200.376
185.874
172.863
161.307
151.15
142.312
134.7
128.212
122.736
118.163
114.382
111.286
108.779
106.767
105.169
103.914
102.936
102.183
101.608
101.174
100.849
100.609
100.433
100.304
100.212
100.147
100.101
100.068
100.046
100.031
100.02
100.013
100.009
100.006
100.004
100.002
100.001
100.001
100.001
100
100
100
100
100
100
100
100
100
100
100
100
100
100
100
100
100
100
100
100
100
100
100
100
100
100
100
387.844
363.657
339.842
316.636
294.254
272.89
252.707
233.836
216.371
200.376
185.874
172.863
161.307
151.15
142.312
134.7
128.212
122.736
118.163
114.382
111.286
108.779
106.767
105.169
103.914
102.936
102.183
101.608
101.174
100.849
100.609
100.433
100.304
100.212
100.147
100.101
100.068
100.046
100.031
100.02
100.013
100.009
100.006
100.004
100.002
100.001
100.001
100.001
100
100
100
100
100
100
100
100
100
100
100
100
100
100
100
100
100
100
100
100
100
100
100
100
100
100
100
387.844
363.657
339.842
316.636
294.254
272.89
252.707
233.836
216.371
200.376
185.874
172.863
161.307
151.15
142.312
134.7
128.212
122.736
118.163
114.382
111.286
108.779
106.767
105.169
103.914
102.936
102.183
101.608
101.174
100.849
100.609
100.433
100.304
100.212
100.147
100.101
100.068
100.046
100.031
100.02
100.013
100.009
100.006
100.004
100.002
100.001
100.001
100.001
100
100
100
100
100
100
100
100
100
100
100
100
100
100
100
100
100
100
100
100
100
100
100
100
100
100
100
387.844
363.657
339.842
316.636
294.254
272.89
252.707
233.836
216.371
200.376
185.874
172.863
161.307
151.15
142.312
134.7
128.212
122.736
118.163
114.382
111.286
108.779
106.767
105.169
103.914
102.936
102.183
101.608
101.174
100.849
100.609
100.433
100.304
100.212
100.147
100.101
100.068
100.046
100.031
100.02
100.013
100.009
100.006
100.004
100.002
100.001
100.001
100.001
100
100
100
100
100
100
100
100
100
100
100
100
100
100
100
100
100
100
100
100
100
100
100
100
100
100
100
387.844
363.657
339.842
316.636
294.254
272.89
252.707
233.836
216.371
200.376
185.874
172.863
161.307
151.15
142.312
134.7
128.212
122.736
118.163
114.382
111.286
108.779
106.767
105.169
103.914
102.936
102.183
101.608
101.174
100.849
100.609
100.433
100.304
100.212
100.147
100.101
100.068
100.046
100.031
100.02
100.013
100.009
100.006
100.004
100.002
100.001
100.001
100.001
100
100
100
100
100
100
100
100
100
100
100
100
100
100
100
100
100
100
100
100
100
100
100
100
100
100
100
387.844
363.657
339.842
316.636
294.254
272.89
252.707
233.836
216.371
200.376
185.874
172.863
161.307
151.15
142.312
134.7
128.212
122.736
118.163
114.382
111.286
108.779
106.767
105.169
103.914
102.936
102.183
101.608
101.174
100.849
100.609
100.433
100.304
100.212
100.147
100.101
100.068
100.046
100.031
100.02
100.013
100.009
100.006
100.004
100.002
100.001
100.001
100.001
100
100
100
100
100
100
100
100
100
100
100
100
100
100
100
100
100
100
100
100
100
100
100
100
100
100
100
387.844
363.657
339.842
316.636
294.254
272.89
252.707
233.836
216.371
200.376
185.874
172.863
161.307
151.15
142.312
134.7
128.212
122.736
118.163
114.382
111.286
108.779
106.767
105.169
103.914
102.936
102.183
101.608
101.174
100.849
100.609
100.433
100.304
100.212
100.147
100.101
100.068
100.046
100.031
100.02
100.013
100.009
100.006
100.004
100.002
100.001
100.001
100.001
100
100
100
100
100
100
100
100
100
100
100
100
100
100
100
100
100
100
100
100
100
100
100
100
100
100
100
387.844
363.657
339.842
316.636
294.254
272.89
252.707
233.836
216.371
200.376
185.874
172.863
161.307
151.15
142.312
134.7
128.212
122.736
118.163
114.382
111.286
108.779
106.767
105.169
103.914
102.936
102.183
101.608
101.174
100.849
100.609
100.433
100.304
100.212