/*--------------------------------*- C++ -*----------------------------------*\
  =========                 |
  \\      /  F ield         | OpenFOAM: The Open Source CFD Toolbox
   \\    /   O peration     | Website:  https://openfoam.org
    \\  /    A nd           | Version:  10
     \\/     M anipulation  |
\*---------------------------------------------------------------------------*/
FoamFile
{
    format      ascii;
    class       volScalarField;
    location    "359";
    object      gradTx;
}
// * * * * * * * * * * * * * * * * * * * * * * * * * * * * * * * * * * * * * //

dimensions      [0 -1 0 1 0 0 0];

internalField   nonuniform List<scalar> 
11250
(
14301.8
8109.7
5319.67
3840.49
2945.75
2348.28
1919.62
1595.61
1341.21
1135.76
966.361
824.526
704.434
601.938
513.984
438.249
372.918
316.531
267.89
225.989
189.97
159.091
132.701
110.228
91.1666
75.0655
61.5253
50.1915
40.7501
32.924
26.4696
21.1742
16.8525
13.3443
10.5119
8.23766
6.4216
4.97951
3.84079
2.94667
2.2486
1.70667
1.28835
0.967302
0.722312
0.536433
0.396214
0.291046
0.212623
0.154478
0.111617
0.0802051
0.0573158
0.0407331
0.0287885
0.0202343
0.0141433
0.00983131
0.00679619
0.0046721
0.00319412
0.00217161
0.00146826
0.000987216
0.000660088
0.000438892
0.000290163
0.000190706
0.000124534
8.06916e-05
5.16977e-05
3.24547e-05
1.94723e-05
1.0319e-05
3.22363e-06
4097.61
4708.5
4010.16
3257.91
2650.79
2182.25
1818.09
1529.48
1295.99
1103.66
942.898
806.978
691.07
591.613
505.916
431.889
367.87
312.504
264.665
223.4
187.889
157.417
131.354
109.146
90.298
74.3695
60.9689
49.7478
40.3973
32.6443
26.2487
21.0004
16.7162
13.2379
10.4292
8.17356
6.37219
4.94159
3.81182
2.92465
2.23193
1.69412
1.27895
0.960293
0.717112
0.532595
0.393396
0.288988
0.211126
0.153396
0.110839
0.0796485
0.0569197
0.0404527
0.0285911
0.020096
0.014047
0.0097646
0.00675021
0.00464059
0.00317265
0.00215705
0.00145844
0.000980631
0.000655695
0.000435978
0.000288241
0.000189445
0.000123713
8.01606e-05
5.13581e-05
3.22419e-05
1.93449e-05
1.02515e-05
3.20263e-06
1478.05
2617.35
2755.89
2532.04
2219.57
1914.56
1644.15
1411.67
1213.32
1043.92
898.671
773.589
665.459
571.718
490.303
419.539
358.04
304.644
258.36
218.331
183.809
154.131
128.709
107.018
88.5886
72.9989
59.8726
48.8732
39.7015
32.0926
25.8128
20.6572
16.447
13.0276
10.2656
8.0469
6.27453
4.86663
3.75455
2.8811
2.19897
1.6693
1.26035
0.946422
0.70682
0.524999
0.387817
0.284912
0.208164
0.151254
0.109299
0.0785463
0.0561353
0.0398974
0.0282
0.0198221
0.0138563
0.0096324
0.00665911
0.00457814
0.00313007
0.00212818
0.00143898
0.000967573
0.000646985
0.0004302
0.00028443
0.000186946
0.000122084
7.9107e-05
5.06844e-05
3.18196e-05
1.90919e-05
1.01176e-05
3.16083e-06
675.551
1527.75
1865.36
1896.61
1783.17
1614.97
1435.35
1263.12
1105.37
963.896
838.307
727.364
629.615
543.634
468.115
401.892
343.933
293.323
249.251
210.989
177.886
149.352
124.855
103.914
86.0925
70.9957
58.2687
47.5926
38.6821
31.2838
25.1734
20.1535
16.0519
12.7188
10.0253
7.86074
6.13094
4.75639
3.6703
2.81702
2.15047
1.63276
1.23296
0.925998
0.691665
0.51381
0.379599
0.278907
0.203799
0.148098
0.107028
0.0769216
0.0549789
0.0390787
0.0276235
0.0194183
0.0135749
0.00943744
0.00652474
0.00448603
0.00306727
0.0020856
0.00141025
0.000948308
0.000634134
0.000421674
0.000278805
0.000183256
0.00011968
7.7552e-05
4.96899e-05
3.11963e-05
1.87185e-05
9.91992e-06
3.09908e-06
372.218
953.55
1282.47
1407.67
1403.76
1329.45
1222.18
1103.44
984.729
871.8
767.247
671.989
586.081
509.15
440.63
379.876
326.229
279.048
237.717
201.661
170.339
143.249
119.924
99.9346
82.887
68.4195
56.2036
45.9419
37.3669
30.2394
24.347
19.5022
15.5405
12.3191
9.71409
7.6195
5.9448
4.61341
3.561
2.73386
2.0875
1.58532
1.19739
0.899465
0.671972
0.499268
0.368916
0.271099
0.198122
0.143993
0.104075
0.074808
0.0534743
0.0380134
0.0268732
0.0188927
0.0132087
0.00918366
0.00634981
0.00436611
0.0029855
0.00203014
0.00137285
0.000923217
0.000617394
0.000410568
0.000271477
0.00017845
0.000116547
7.5526e-05
4.8394e-05
3.03841e-05
1.82317e-05
9.66226e-06
3.01864e-06
232.249
632.524
904.589
1049.57
1096.95
1079.49
1023.44
946.987
861.823
775.038
690.746
611.206
537.546
470.22
409.281
354.552
305.723
262.415
224.214
190.695
161.436
136.026
114.072
95.202
79.0675
65.3446
53.7349
43.966
35.7907
28.9865
23.3547
18.7193
14.9255
11.8379
9.33924
7.32879
5.72036
4.44095
3.4291
2.63346
2.01146
1.528
1.15441
0.86739
0.64816
0.48168
0.355992
0.261652
0.191253
0.139023
0.100499
0.0722486
0.0516521
0.036723
0.0259643
0.0182559
0.0127649
0.00887607
0.00613777
0.00422072
0.00288636
0.0019629
0.00132749
0.000892789
0.000597093
0.000397097
0.000262589
0.000172619
0.000112747
7.30678e-05
4.68217e-05
2.93984e-05
1.76411e-05
9.34955e-06
2.921e-06
156.756
440.454
655.022
790.748
857.085
870.647
847.937
802.406
743.944
679.382
613.232
548.365
486.534
428.743
375.504
327.011
283.247
244.064
209.232
178.47
151.47
127.913
107.479
89.8554
74.7425
61.8556
50.9289
41.7166
33.9937
27.5562
22.2207
17.8238
14.2212
11.2864
8.90934
6.99515
5.46263
4.24279
3.27746
2.51799
1.92395
1.46202
1.10491
0.830441
0.62072
0.461407
0.341091
0.250757
0.183328
0.133289
0.0963722
0.0692942
0.0495483
0.0352328
0.0249145
0.0175203
0.0122522
0.00852066
0.00589273
0.00405269
0.00277176
0.00188517
0.00127505
0.000857604
0.000573614
0.000381517
0.000252308
0.000165875
0.00010835
7.02236e-05
4.50023e-05
2.82579e-05
1.69576e-05
8.98766e-06
2.80798e-06
111.315
318.234
485.481
602.947
672.041
700.49
698.013
673.797
635.445
588.779
538.034
486.173
435.198
386.415
340.627
298.289
259.61
224.628
193.267
165.374
140.745
119.148
100.332
84.0427
70.0281
58.0437
47.8568
39.2494
32.0196
25.9826
20.9715
16.8362
13.4437
10.677
8.43387
6.62586
5.17715
4.02314
3.10928
2.38985
1.8268
1.38873
1.0499
0.789364
0.590202
0.438851
0.324507
0.238627
0.174503
0.126902
0.0917743
0.0660017
0.0472033
0.0335715
0.0237438
0.0166998
0.0116803
0.00812413
0.00561929
0.00386516
0.00264384
0.00179839
0.0012165
0.000818313
0.000547394
0.000364115
0.000240824
0.000158339
0.000103437
6.70454e-05
4.29691e-05
2.69832e-05
1.61937e-05
8.58315e-06
2.68167e-06
81.8184
236.376
366.855
465.077
529.594
563.577
572.466
562.237
538.401
505.576
467.401
426.619
385.229
344.634
305.79
269.308
235.551
204.696
176.789
151.782
129.561
109.969
92.8192
77.9126
65.0421
54.002
44.5923
36.6224
29.9138
24.3015
19.6349
15.7781
12.6098
10.0227
7.92283
6.2286
4.86979
3.78649
2.92796
2.25161
1.72193
1.30958
0.990462
0.744956
0.557197
0.414448
0.306558
0.225494
0.164944
0.119983
0.0867913
0.0624326
0.0446605
0.0317696
0.0224739
0.0158096
0.0110596
0.00769371
0.00532243
0.00366153
0.00250492
0.00170413
0.00115289
0.000775624
0.000518901
0.000345202
0.00022834
0.000150148
9.80961e-05
6.35897e-05
4.0758e-05
2.55968e-05
1.53628e-05
8.14317e-06
2.54429e-06
61.6203
179.254
281.564
362.396
419.543
453.961
468.546
467.056
453.335
430.882
402.655
371.032
337.848
304.477
271.911
240.836
211.706
184.79
160.223
138.039
118.195
100.598
85.1204
71.6089
59.8993
49.8219
41.2077
33.8929
27.7216
22.5483
18.2389
14.6714
11.7364
9.33663
7.38642
5.8112
4.54657
3.53742
2.73698
2.1059
1.61133
1.22605
0.927699
0.698042
0.522312
0.388643
0.28757
0.211596
0.154826
0.112655
0.0815128
0.0586506
0.0419653
0.0298593
0.0211271
0.0148653
0.010401
0.00723694
0.00500734
0.00344535
0.0023574
0.00160402
0.00108533
0.000730272
0.000488626
0.000325104
0.000215073
0.000141441
9.24179e-05
5.99154e-05
3.84069e-05
2.41224e-05
1.4479e-05
7.67516e-06
2.39815e-06
47.2373
138.074
218.774
284.8
333.982
366.26
383.076
386.727
379.828
364.949
344.409
320.177
293.857
266.706
239.68
213.479
188.594
165.349
143.935
124.446
106.895
91.2402
77.4002
65.265
54.707
45.5894
37.7721
31.1159
25.4867
20.7576
16.8105
13.5373
10.8402
8.63174
6.83466
5.38141
4.21343
3.28047
2.5398
1.95535
1.49697
1.13962
0.862723
0.649447
0.486158
0.361886
0.267873
0.197173
0.14432
0.105044
0.0760285
0.05472
0.0391633
0.0278727
0.0197262
0.0138827
0.00971567
0.00676145
0.00467925
0.0032202
0.00220375
0.00149972
0.00101492
0.000683005
0.000457067
0.00030415
0.000201238
0.00013236
8.64952e-05
5.60824e-05
3.59538e-05
2.2584e-05
1.35567e-05
7.18669e-06
2.24558e-06
36.6881
107.613
171.618
225.367
266.98
295.979
313.001
319.411
316.957
307.487
292.772
274.395
253.705
231.807
209.576
187.681
166.614
146.719
128.224
111.257
95.8725
82.0696
69.8035
58.9994
49.5619
41.3831
34.3484
28.3419
23.2494
18.9615
15.3754
12.396
9.93694
7.92033
6.27712
4.94662
3.87606
3.02003
2.33976
1.80249
1.38076
1.05174
0.796612
0.599972
0.449329
0.334616
0.247788
0.182459
0.133599
0.0972731
0.0704269
0.0507038
0.0362994
0.0258414
0.0182934
0.0128775
0.00901431
0.00627475
0.00434335
0.00298964
0.00204636
0.00139287
0.000942776
0.00063456
0.000424717
0.000282666
0.000187051
0.000123046
8.04198e-05
5.21499e-05
3.34367e-05
2.10052e-05
1.26101e-05
6.68533e-06
2.089e-06
28.7724
84.6169
135.615
179.302
214.135
239.507
255.621
263.263
263.583
257.892
247.52
233.712
217.572
200.042
181.894
163.74
146.048
129.162
113.319
98.6715
85.3005
73.2326
62.4525
52.9137
44.5477
37.2713
30.9927
25.6162
21.0461
17.1891
13.9565
11.2658
9.04104
7.21374
5.72264
4.5137
3.53978
2.76016
2.13997
1.64969
1.26451
0.963765
0.73038
0.550376
0.412387
0.307247
0.227619
0.167676
0.122822
0.0894593
0.064792
0.0466621
0.0334163
0.0237959
0.01685
0.0118646
0.00830735
0.00578403
0.00400459
0.00275706
0.00188755
0.00128503
0.000869948
0.000585647
0.000392047
0.000260966
0.000172719
0.000113635
7.428e-05
4.8175e-05
3.08922e-05
1.94089e-05
1.1653e-05
6.17838e-06
1.93069e-06
22.7267
66.9729
107.753
143.236
172.183
193.994
208.646
216.573
218.522
215.415
208.235
197.947
185.439
171.495
156.777
141.829
127.079
112.853
99.3872
86.8409
75.3112
64.8441
55.4456
47.0912
39.7341
33.3119
27.7523
22.9776
18.9083
15.4657
12.5743
10.1628
8.16537
6.52209
5.17914
4.08884
3.20938
2.50456
1.94328
1.49912
1.14986
0.876929
0.664961
0.501355
0.375851
0.280162
0.207649
0.153031
0.112141
0.0817109
0.0592017
0.0426509
0.0305537
0.0217643
0.015416
0.0108579
0.0076045
0.00529601
0.0036676
0.00252564
0.00172949
0.00117767
0.000797429
0.000536931
0.000359501
0.000239345
0.000158436
0.000104255
6.81589e-05
4.42116e-05
2.83545e-05
1.78168e-05
1.06982e-05
5.6726e-06
1.7727e-06
18.0448
53.2612
85.957
114.76
138.69
157.206
170.18
177.833
180.645
179.256
174.391
166.788
157.151
146.12
134.253
122.021
109.804
97.9006
86.5356
75.8674
65.9993
56.989
48.8572
41.596
35.1757
29.5509
24.6657
20.4578
16.862
13.8126
11.2459
9.10085
7.32089
5.85407
4.65349
3.6774
2.88904
2.25647
1.75216
1.35269
1.03827
0.792336
0.601183
0.453529
0.340181
0.253703
0.188129
0.138709
0.101689
0.0741254
0.0537266
0.0387206
0.0277478
0.019772
0.0140092
0.00986999
0.00691456
0.00481681
0.0033366
0.00229826
0.00157416
0.00107214
0.000726124
0.000489019
0.000327485
0.00021807
0.000144379
9.50216e-05
6.21325e-05
4.03088e-05
2.58553e-05
1.62485e-05
9.75757e-06
5.17427e-06
1.61703e-06
14.3796
42.4978
68.7576
92.1237
111.826
127.397
138.671
145.744
148.916
148.634
145.425
139.851
132.464
123.78
114.261
104.306
94.2465
84.3498
74.8213
65.8119
57.4251
49.7243
42.7396
36.4748
30.9133
26.0234
21.7626
18.0817
14.9279
12.2469
9.98511
8.09116
6.51663
5.21689
4.15139
3.28387
2.58227
2.01862
1.56875
1.21202
0.930961
0.710927
0.539757
0.407433
0.305778
0.228167
0.169278
0.124869
0.0915841
0.0667881
0.0484279
0.0349152
0.0250299
0.0178415
0.0126455
0.00891199
0.00624528
0.00435181
0.0030153
0.00207748
0.00142329
0.000969611
0.000656832
0.000442448
0.000296359
0.000197382
0.000130706
8.60385e-05
5.62683e-05
3.65104e-05
2.34224e-05
1.47216e-05
8.84162e-06
4.68894e-06
1.46544e-06
11.4863
33.9826
55.0935
74.0329
90.1971
103.196
112.855
119.201
122.418
122.815
120.775
116.722
111.086
104.278
96.6774
88.6165
80.3793
72.1988
64.2591
56.6995
49.619
43.0821
37.1243
31.7572
26.974
22.7534
19.064
15.8674
13.1213
10.7811
8.80257
7.14238
5.7596
4.61618
3.67735
2.91184
2.2919
1.79323
1.39475
1.07844
0.828965
0.633479
0.481271
0.36351
0.272973
0.203801
0.15128
0.111648
0.0819251
0.0597706
0.0433578
0.0312722
0.0224268
0.0159918
0.0113383
0.00799336
0.00560326
0.00390559
0.00270688
0.00186549
0.00127838
0.000871106
0.000590241
0.00039768
0.00026643
0.000177485
0.000117553
7.73952e-05
5.06247e-05
3.2854e-05
2.10801e-05
1.32513e-05
7.95952e-06
4.22148e-06
1.31939e-06
9.18762
27.2056
44.1817
59.5158
72.7353
83.5192
91.7048
97.2776
100.35
101.133
99.9045
96.9834
92.7016
87.3857
81.3416
74.8444
68.1332
61.4081
54.8306
48.526
42.5861
37.0734
32.0253
27.4585
23.3728
19.7553
16.583
13.8266
11.4523
9.42417
7.7056
6.26064
5.05488
4.0561
3.23472
2.56398
2.02005
1.58196
1.23149
0.952961
0.73307
0.560598
0.426188
0.32211
0.24203
0.180801
0.13428
0.0991515
0.0727908
0.0531308
0.038558
0.0278218
0.0199602
0.0142382
0.0100986
0.00712178
0.0049939
0.00348192
0.00241396
0.00166408
0.00114066
0.000777459
0.000526916
0.000355098
0.000237954
0.000158549
0.000105033
6.91656e-05
4.52501e-05
2.93712e-05
1.88485e-05
1.18502e-05
7.11884e-06
3.77594e-06
1.18018e-06
7.35276
21.7883
35.4347
47.832
58.6103
67.5087
74.3824
79.1978
82.0197
82.9919
82.3161
80.2308
76.9916
72.8554
68.0676
62.8533
57.4112
51.9109
46.4919
41.2643
36.3113
31.6913
27.4415
23.5811
20.1145
17.0347
14.3257
11.9651
9.92655
8.18102
6.69867
5.44979
4.40571
3.53935
2.82573
2.24213
1.76821
1.38601
1.07988
0.836327
0.643845
0.492723
0.374845
0.28349
0.213142
0.159314
0.118387
0.087462
0.064241
0.0469123
0.0340604
0.024587
0.0176465
0.0125927
0.00893478
0.00630322
0.00442139
0.00308372
0.00213854
0.00147464
0.00101109
0.000689326
0.000467302
0.000314999
0.000211132
0.000140709
9.32341e-05
6.14081e-05
4.01827e-05
2.60867e-05
1.67436e-05
1.05284e-05
6.32559e-06
3.35553e-06
1.04883e-06
5.88321
17.4444
28.4046
38.41
47.1713
54.4782
60.2058
64.313
66.8345
67.868
67.5593
66.0866
63.646
60.4384
56.6594
52.4915
48.0983
43.6218
39.1805
34.8701
30.764
26.9154
23.3598
20.1172
17.195
14.5902
12.2921
10.2841
8.54556
7.05346
5.78358
4.71156
3.81367
3.06734
2.45161
1.94731
1.53721
1.20606
0.940502
0.728987
0.561649
0.430138
0.327461
0.247818
0.186439
0.139438
0.103675
0.0766346
0.0563168
0.0411456
0.0298872
0.0215839
0.0154976
0.0110636
0.00785282
0.00554192
0.00388871
0.00271309
0.00188209
0.00129819
0.000890359
0.000607182
0.000411723
0.000277602
0.000186111
0.000124061
8.22215e-05
5.41659e-05
3.54507e-05
2.3019e-05
1.47771e-05
9.29333e-06
5.5843e-06
2.96259e-06
9.26075e-07
4.70365
13.9543
22.7452
30.8037
37.9036
43.8762
48.6164
52.082
54.289
55.3036
55.2308
54.2036
52.372
49.8924
46.92
43.6013
40.07
36.4437
32.8222
29.2869
25.9019
22.7146
19.7577
17.0508
14.6029
12.414
10.4772
8.78026
7.30742
6.04045
4.95987
4.04586
3.27891
2.64033
2.11265
1.67983
1.32737
1.0424
0.813593
0.631146
0.486651
0.37298
0.284149
0.215185
0.161992
0.121227
0.0901867
0.0667005
0.049042
0.0358482
0.0260515
0.0188223
0.0135205
0.00965605
0.00685642
0.00484052
0.00339773
0.00237134
0.00164554
0.00113538
0.00077892
0.000531335
0.000360388
0.000243052
0.000162987
0.000108672
7.20384e-05
4.74676e-05
3.10731e-05
2.01804e-05
1.29571e-05
8.15004e-06
4.89795e-06
2.59871e-06
8.12391e-07
3.75569
11.147
18.1857
24.6612
30.3964
35.2572
39.156
42.0533
43.9539
44.9022
44.9737
44.2678
42.8987
40.9879
38.6575
36.0248
33.1981
30.2739
27.3351
24.4507
21.6753
19.0506
16.6059
14.3597
12.3218
10.4938
8.87185
7.44706
6.20741
5.13863
4.2252
3.45107
2.80031
2.25757
1.80838
1.43939
1.13851
0.894919
0.699104
0.542786
0.418854
0.321261
0.244923
0.185605
0.139814
0.104695
0.0779329
0.0576698
0.0424245
0.0310266
0.0225584
0.0163059
0.011718
0.0083722
0.00594715
0.00420017
0.00294931
0.00205908
0.00142933
0.000986504
0.000676987
0.000461933
0.0003134
0.000211418
0.000141809
9.45742e-05
6.27071e-05
4.13279e-05
2.70595e-05
1.75772e-05
1.12878e-05
7.10116e-06
4.26814e-06
2.26479e-06
7.0801e-07
2.99356
8.88851
14.5124
19.7023
24.3201
28.2591
31.4476
33.8501
35.4651
36.322
36.4753
35.9989
34.9796
33.5115
31.6904
29.6095
27.3559
25.0083
22.6349
20.2933
18.0298
15.8803
13.8705
12.0177
10.3312
8.81404
7.46414
6.27536
5.23863
4.34286
3.57572
2.92434
2.37579
1.91754
1.53769
1.2252
0.970045
0.76321
0.596742
0.463702
0.358112
0.27488
0.209714
0.159032
0.119875
0.0898199
0.0668998
0.0495332
0.0364583
0.0266769
0.0194053
0.0140333
0.0100892
0.00721153
0.00512473
0.00362073
0.00254336
0.00177629
0.00123343
0.000851572
0.000584568
0.000398988
0.00027077
0.000182708
0.000122583
8.17719e-05
5.42311e-05
3.57496e-05
2.3412e-05
1.52108e-05
9.76993e-06
6.14728e-06
3.69534e-06
1.96104e-06
6.13087e-07
2.38103
7.07222
11.5548
15.7026
19.4081
22.5867
25.1802
27.1577
28.5146
29.27
29.4631
29.1488
28.3931
27.2685
25.8499
24.211
22.4215
20.5449
18.6371
16.7455
14.9091
13.1582
11.5153
9.99562
8.60816
7.35651
6.23993
5.25422
4.39262
3.6466
3.00643
2.46186
2.00246
1.61806
1.29894
1.03604
0.821076
0.646605
0.506016
0.393533
0.304164
0.233648
0.178386
0.135368
0.102105
0.0765526
0.0570519
0.0422656
0.0311259
0.0227869
0.0165837
0.0119984
0.00863017
0.00617126
0.00438727
0.0031009
0.00217902
0.00152237
0.00105748
0.000730327
0.000501493
0.000342388
0.000232424
0.000156875
0.000105278
7.02458e-05
4.65979e-05
3.07245e-05
2.01254e-05
1.30781e-05
8.40163e-06
5.28722e-06
3.17879e-06
1.6871e-06
5.27496e-07
1.8892
5.61305
9.17622
12.4812
15.4441
17.9983
20.097
21.7137
22.8425
23.4956
23.7011
23.5
22.9421
22.0832
20.9817
19.6955
18.2801
16.7864
15.2598
13.7392
12.2569
10.8383
9.50258
8.26323
7.12839
6.10187
5.18381
4.37146
3.65984
3.0424
2.51156
2.05917
1.67689
1.35651
1.09013
0.870375
0.690455
0.544241
0.426283
0.331801
0.256655
0.197303
0.150746
0.114473
0.0864005
0.0648189
0.0483361
0.0358292
0.0264003
0.0193373
0.0140802
0.0101919
0.00733412
0.00524674
0.00373155
0.00263848
0.00185478
0.0012963
0.000900753
0.000622292
0.000427443
0.000291918
0.00019822
0.000133826
8.98333e-05
5.99552e-05
3.9781e-05
2.62357e-05
1.71888e-05
1.11721e-05
7.17848e-06
4.51825e-06
2.71684e-06
1.44207e-06
4.50892e-07
1.49485
4.44259
7.26659
9.89149
12.252
14.2959
15.9854
17.2989
18.2296
18.7854
18.9865
18.8631
18.453
17.7991
16.9465
15.9407
14.8256
13.6417
12.4257
11.2092
10.0186
8.87523
7.7952
6.79006
5.86713
5.03014
4.27978
3.61432
3.03014
2.52227
2.08482
1.71136
1.39526
1.12993
0.908998
0.726485
0.57686
0.455117
0.356786
0.277938
0.215161
0.16553
0.126562
0.0961738
0.0726368
0.0545274
0.040686
0.0301758
0.0222468
0.0163035
0.0118771
0.00860136
0.00619235
0.00443187
0.00315331
0.00223051
0.00156858
0.00109668
0.000762306
0.00052682
0.000361979
0.000247285
0.000167962
0.000113428
7.61609e-05
5.08429e-05
3.3743e-05
2.22587e-05
1.45863e-05
9.48244e-06
6.09396e-06
3.83627e-06
2.30707e-06
1.22467e-06
3.82951e-07
1.17928
3.50557
5.73662
7.81427
9.68784
11.3163
12.6699
13.7304
14.4918
14.9585
15.1452
15.0743
14.7742
14.2779
13.6201
12.8364
11.9613
11.027
10.0627
9.09406
8.1426
7.22578
6.35713
5.5464
4.80003
4.12148
3.51177
2.96986
2.49319
2.07798
1.7197
1.41331
1.15356
0.935202
0.753124
0.602502
0.478864
0.378142
0.296698
0.231319
0.179213
0.137977
0.105571
0.0802784
0.0606713
0.0455736
0.0340255
0.0252503
0.0186257
0.013657
0.00995413
0.00721218
0.00519463
0.00371942
0.00264751
0.00187348
0.00131801
0.000921827
0.00064099
0.000443128
0.000304571
0.00020813
0.000141408
9.55225e-05
6.41551e-05
4.28389e-05
2.84377e-05
1.87633e-05
1.22984e-05
7.9967e-06
5.14008e-06
3.23629e-06
1.94653e-06
1.03341e-06
3.23181e-07
0.927336
2.75721
4.51388
6.15249
7.63378
8.92576
10.0048
10.8562
11.4743
11.8619
12.0291
11.9928
11.7743
11.3987
10.8929
10.2844
9.60032
8.86605
8.10487
7.33724
6.58061
5.84924
5.15426
4.5039
3.90365
3.35668
2.8641
2.4254
2.03876
1.70135
1.40969
1.15986
0.94774
0.769151
0.620029
0.496506
0.394985
0.312183
0.245153
0.191288
0.148315
0.114274
0.0874972
0.0665799
0.0503514
0.0378455
0.0282725
0.020993
0.0154939
0.0113666
0.00828888
0.00600852
0.00432967
0.00310146
0.00220857
0.0015635
0.00110036
0.000769884
0.000535525
0.000370342
0.000254626
0.000174053
0.00011829
7.99282e-05
5.36958e-05
3.58639e-05
2.38132e-05
1.57156e-05
1.0303e-05
6.7006e-06
4.30777e-06
2.71268e-06
1.63182e-06
8.66415e-07
2.70946e-07
0.726725
2.16115
3.53938
4.82692
5.99341
7.01397
7.87
8.54968
9.04802
9.36649
9.51245
9.49818
9.33989
9.05657
8.66891
8.19822
7.66557
7.09096
6.49277
5.8873
5.28855
4.70807
4.15496
3.63604
3.15597
2.71752
2.32185
1.96876
1.65698
1.38442
1.14843
0.945957
0.773784
0.628622
0.507247
0.406579
0.32374
0.256097
0.201278
0.15718
0.121963
0.0940394
0.0720549
0.0548665
0.04152
0.031227
0.023342
0.0173419
0.0128062
0.00939978
0.00685806
0.00497372
0.00358566
0.00256964
0.00183063
0.00129647
0.000912777
0.000638876
0.000444553
0.000307534
0.000211511
0.000144626
9.83189e-05
6.64525e-05
4.46547e-05
2.98328e-05
1.98134e-05
1.30789e-05
8.57619e-06
5.5787e-06
3.58715e-06
2.25928e-06
1.35926e-06
7.21747e-07
2.25704e-07
0.567464
1.68782
2.76514
3.77291
4.68775
5.49037
6.1662
6.7058
7.10491
7.36423
7.48897
7.48822
7.37412
7.16111
6.865
6.50224
6.08916
5.64141
5.17342
4.6981
4.2266
3.76819
3.33028
2.91844
2.53658
2.18708
1.87105
1.5885
1.33855
1.11967
0.929853
0.766749
0.627848
0.510577
0.412393
0.330856
0.263681
0.208766
0.164214
0.128337
0.0996584
0.0768976
0.0589618
0.0449268
0.0340201
0.0256021
0.0191488
0.0142347
0.0105174
0.0077238
0.00563809
0.00409092
0.00295058
0.00211545
0.00150769
0.00106819
0.000752351
0.000526784
0.000366685
0.000253752
0.000174577
0.000119408
8.11994e-05
5.48969e-05
3.68993e-05
2.46578e-05
1.63803e-05
1.08151e-05
7.09328e-06
4.61501e-06
2.96805e-06
1.86968e-06
1.125e-06
5.97421e-07
1.86844e-07
0.441442
1.31319
2.15204
2.93769
3.65218
4.28059
4.81158
5.23766
5.55527
5.76463
5.86945
5.87642
5.79463
5.635
5.40961
5.13107
4.81202
4.46461
4.10012
3.72872
3.35924
2.99907
2.65415
2.32903
2.02692
1.74987
1.49886
1.27404
1.07482
0.90008
0.748301
0.617692
0.506307
0.41214
0.3332
0.267564
0.213426
0.169119
0.133136
0.10413
0.080921
0.0624845
0.0479435
0.0365556
0.0276987
0.0208577
0.0156094
0.0116102
0.00858287
0.00630641
0.00460574
0.00334346
0.00241258
0.00173048
0.00123385
0.000874526
0.000616184
0.000431601
0.000300536
0.000208046
0.000143178
9.79616e-05
6.66348e-05
4.50627e-05
3.02972e-05
2.0251e-05
1.34561e-05
8.88635e-06
5.82949e-06
3.7935e-06
2.44016e-06
1.53736e-06
9.25136e-07
4.91341e-07
1.53687e-07
0.342069
1.01772
1.66829
2.27826
2.83389
3.32369
3.73886
4.07351
4.32471
4.49242
4.57924
4.5901
4.53181
4.4126
4.24164
4.02859
3.78316
3.51476
3.23218
2.94334
2.65521
2.37363
2.10336
1.84805
1.61033
1.39191
1.19366
1.01578
0.857905
0.719211
0.598561
0.494591
0.405803
0.330644
0.267558
0.215043
0.171679
0.136151
0.107267
0.0839614
0.0652957
0.0504549
0.0387398
0.0295573
0.0224102
0.0168855
0.0126441
0.00940984
0.00696
0.00511662
0.00373866
0.00271531
0.00196021
0.00140662
0.00100335
0.000711442
0.00050147
0.000351379
0.000244761
0.000169493
0.000116683
7.98581e-05
5.43364e-05
3.67558e-05
2.47187e-05
1.65264e-05
1.09837e-05
7.25528e-06
4.7605e-06
3.09843e-06
1.9934e-06
1.25607e-06
7.55968e-07
4.01525e-07
1.25587e-07
0.263998
0.785546
1.28802
1.75962
2.18983
2.56985
2.89289
3.15434
3.35183
3.48517
3.55619
3.56852
3.52723
3.4385
3.30929
3.14697
2.95896
2.7525
2.53441
2.31084
2.08724
1.86821
1.65752
1.45808
1.27203
1.10077
0.945057
0.805116
0.680712
0.571261
0.475913
0.393634
0.323279
0.263647
0.213535
0.171772
0.137248
0.108933
0.0858899
0.0672792
0.0523599
0.0404874
0.0311075
0.0237494
0.0180179
0.0135842
0.0101779
0.00757864
0.00560854
0.00412521
0.00301573
0.00219129
0.00158263
0.00113617
0.000810777
0.000575123
0.000405538
0.000284264
0.00019808
0.000137212
9.44905e-05
6.46892e-05
4.4028e-05
2.97909e-05
2.00399e-05
1.34015e-05
8.90899e-06
5.88609e-06
3.8629e-06
2.51471e-06
1.61813e-06
1.01978e-06
6.13847e-07
3.2608e-07
1.01973e-07
0.202902
0.60382
0.99028
1.35332
1.68495
1.97844
2.22857
2.43176
2.58612
2.69138
2.74885
2.76116
2.73209
2.66629
2.569
2.4458
2.30238
2.14427
1.97671
1.80449
1.63181
1.46229
1.29889
1.14391
0.999074
0.865518
0.74389
0.634408
0.536937
0.451057
0.376141
0.311407
0.255985
0.208953
0.169384
0.136371
0.10905
0.0866209
0.0683496
0.0535788
0.0417272
0.0322877
0.0248238
0.0189641
0.0143963
0.0108601
0.00814153
0.00606566
0.00449123
0.00330508
0.00241735
0.00175732
0.00126977
0.000911963
0.000651049
0.000462004
0.000325898
0.000228523
0.000159294
0.000110381
7.60374e-05
5.20717e-05
3.54505e-05
2.39936e-05
1.61443e-05
1.0799e-05
7.18055e-06
4.74514e-06
3.11473e-06
2.02805e-06
1.30523e-06
8.2271e-07
4.9527e-07
2.63115e-07
8.22994e-08
0.155283
0.462159
0.758111
1.03636
1.29084
1.51645
1.70918
1.86628
1.98622
2.06876
2.11479
2.12625
2.10593
2.0573
1.98431
1.89119
1.78224
1.66169
1.53356
1.40151
1.26881
1.13827
1.01218
0.892389
0.780235
0.676648
0.582164
0.496989
0.421048
0.354047
0.295522
0.244888
0.201485
0.164609
0.13355
0.107609
0.0861188
0.0684584
0.0540583
0.0424064
0.0330491
0.0255899
0.0196871
0.0150493
0.0114313
0.00862846
0.00647214
0.00482452
0.00357411
0.00263149
0.00192561
0.00140049
0.00101239
0.000727422
0.000519518
0.000368811
0.000260257
0.000182561
0.000127299
8.82399e-05
6.08041e-05
4.16521e-05
2.83649e-05
1.9203e-05
1.29242e-05
8.64713e-06
5.75102e-06
3.80124e-06
2.49565e-06
1.62524e-06
1.04615e-06
6.59511e-07
3.97076e-07
2.10942e-07
6.59997e-08
0.118324
0.352195
0.57784
0.790148
0.984543
1.15715
1.30493
1.42575
1.51843
1.58272
1.61926
1.62944
1.61533
1.57953
1.52499
1.45488
1.37248
1.28098
1.18344
1.08268
0.981204
0.881177
0.78439
0.692271
0.605887
0.525977
0.452981
0.387083
0.328249
0.276272
0.230813
0.191437
0.157643
0.1289
0.104664
0.0844006
0.0675975
0.0537755
0.0424947
0.0333586
0.0260154
0.020157
0.0155172
0.0118691
0.00902095
0.00681301
0.00511321
0.00381356
0.00282662
0.00208217
0.00152437
0.00110918
0.000802159
0.000576608
0.000411976
0.000292579
0.00020654
0.000144932
0.000101095
7.00988e-05
4.83185e-05
3.31089e-05
2.25533e-05
1.52727e-05
1.02815e-05
6.8806e-06
4.57715e-06
3.026e-06
1.98707e-06
1.29425e-06
8.33199e-07
5.2533e-07
3.16331e-07
1.6806e-07
5.25945e-08
0.089763
0.267205
0.438476
0.599736
0.747543
0.878974
0.991723
1.08416
1.15538
1.20514
1.23389
1.24264
1.23293
1.20666
1.16606
1.11351
1.05145
0.982307
0.908409
0.831892
0.754674
0.678415
0.604499
0.534031
0.467849
0.406535
0.350447
0.299744
0.254418
0.214324
0.179215
0.148769
0.122609
0.100336
0.0815351
0.0658003
0.0527398
0.0419864
0.0332021
0.0260817
0.0203539
0.0157805
0.0121557
0.00930345
0.0070751
0.00534642
0.00401471
0.00299584
0.00222165
0.00163733
0.00119926
0.000873011
0.000631639
0.000454225
0.000324665
0.000230661
0.00016289
0.000114343
7.97849e-05
5.53402e-05
3.81572e-05
2.61537e-05
1.78204e-05
1.20708e-05
8.12802e-06
5.44069e-06
3.62005e-06
2.39375e-06
1.5722e-06
1.02423e-06
6.5948e-07
4.15837e-07
2.50435e-07
1.33083e-07
4.16315e-08
0.0677891
0.20181
0.331218
0.453141
0.564999
0.664595
0.750192
0.820553
0.874968
0.913244
0.935682
0.943024
0.936389
0.917199
0.887096
0.847859
0.801326
0.749322
0.693595
0.635769
0.577299
0.519453
0.463292
0.409668
0.359231
0.312439
0.269577
0.23078
0.196054
0.1653
0.138339
0.114931
0.0947986
0.0776382
0.0631391
0.0509926
0.040901
0.0325845
0.025785
0.0202688
0.0158278
0.0122791
0.00946435
0.00724788
0.00551502
0.00416982
0.00313285
0.00233899
0.00173541
0.00127959
0.000937666
0.000682887
0.000494293
0.000355603
0.000254274
0.00018072
0.000127669
8.96496e-05
6.25756e-05
4.34173e-05
2.99453e-05
2.0531e-05
1.39931e-05
9.48071e-06
6.38548e-06
4.27525e-06
2.84521e-06
1.88175e-06
1.23614e-06
8.05433e-07
5.18699e-07
3.27098e-07
1.97023e-07
1.04718e-07
3.27595e-08
0.0509601
0.151721
0.249047
0.340799
0.42505
0.500158
0.564818
0.618095
0.659445
0.688707
0.706087
0.712122
0.707631
0.693663
0.671433
0.642264
0.607529
0.568592
0.526768
0.483278
0.439223
0.395566
0.353114
0.31252
0.274286
0.238767
0.206191
0.176667
0.15021
0.126752
0.106164
0.0882712
0.0728652
0.0597206
0.0486038
0.039282
0.0315303
0.0251364
0.0199045
0.0156565
0.0122338
0.00949675
0.00732414
0.00561213
0.00427274
0.00323231
0.00242975
0.00181498
0.00134727
0.000993869
0.000728627
0.000530881
0.000384428
0.000276677
0.000197915
0.000140717
9.94444e-05
6.98543e-05
4.87744e-05
3.3852e-05
2.3355e-05
1.60171e-05
1.09195e-05
7.40012e-06
4.98532e-06
3.33855e-06
2.22228e-06
1.47003e-06
9.65831e-07
6.29379e-07
4.05372e-07
2.55699e-07
1.54033e-07
8.18625e-08
2.5625e-08
0.0381312
0.113534
0.18639
0.255111
0.318265
0.37463
0.423229
0.463361
0.494611
0.516847
0.530212
0.53509
0.53208
0.521952
0.505603
0.484013
0.458201
0.429183
0.397942
0.365393
0.332365
0.299582
0.267658
0.237088
0.208258
0.181441
0.156815
0.134472
0.114426
0.0966329
0.0810006
0.0674001
0.0556786
0.045668
0.0371938
0.0300814
0.0241619
0.0192751
0.0152731
0.0120211
0.00939898
0.00730053
0.00563363
0.00431921
0.00329019
0.00249033
0.00187297
0.00139976
0.00103956
0.000767225
0.000562721
0.000410178
0.000297147
0.000213945
0.0001531
0.000108894
7.69821e-05
5.4094e-05
3.77823e-05
2.6231e-05
1.81024e-05
1.24182e-05
8.46819e-06
5.74031e-06
3.86804e-06
2.59092e-06
1.72498e-06
1.14125e-06
7.49937e-07
4.88786e-07
3.14842e-07
1.98622e-07
1.1966e-07
6.36003e-08
1.98921e-08
0.0283979
0.0845588
0.138839
0.190064
0.237176
0.279266
0.315611
0.345684
0.369172
0.38597
0.396174
0.40006
0.398065
0.390751
0.378778
0.362867
0.343772
0.322248
0.299023
0.274782
0.250144
0.225652
0.201768
0.178868
0.157243
0.137104
0.11859
0.101772
0.086668
0.0732473
0.0614441
0.0511651
0.0422976
0.0347175
0.0282949
0.0228998
0.0184057
0.0146927
0.0116494
0.00917471
0.00717774
0.00557847
0.00430721
0.00330409
0.00251826
0.00190705
0.001435
0.00107298
0.000797237
0.000588654
0.000431938
0.000314981
0.000228276
0.000164423
0.000117706
8.37498e-05
5.92273e-05
4.16318e-05
2.90872e-05
2.02004e-05
1.39446e-05
9.56859e-06
6.52665e-06
4.42526e-06
2.98259e-06
1.99825e-06
1.33066e-06
8.80509e-07
5.7869e-07
3.77254e-07
2.43054e-07
1.53313e-07
9.23777e-08
4.91074e-08
1.53436e-08
0.0210485
0.0626787
0.102926
0.140926
0.175898
0.207174
0.234217
0.256635
0.274194
0.286809
0.294547
0.297604
0.296298
0.291037
0.282305
0.270632
0.256571
0.24068
0.223498
0.205533
0.187245
0.16904
0.151264
0.134199
0.118064
0.103022
0.0891772
0.0765881
0.0652697
0.0552029
0.0463409
0.0386159
0.0319456
0.0262386
0.021399
0.0173302
0.0139381
0.0111333
0.00883275
0.00696055
0.0054487