/*--------------------------------*- C++ -*----------------------------------*\
  =========                 |
  \\      /  F ield         | OpenFOAM: The Open Source CFD Toolbox
   \\    /   O peration     | Website:  https://openfoam.org
    \\  /    A nd           | Version:  10
     \\/     M anipulation  |
\*---------------------------------------------------------------------------*/
FoamFile
{
    format      ascii;
    class       volScalarField;
    location    "94";
    object      gradTx;
}
// * * * * * * * * * * * * * * * * * * * * * * * * * * * * * * * * * * * * * //

dimensions      [0 -1 0 1 0 0 0];

internalField   nonuniform List<scalar> 
11250
(
14239
7924.21
5019.7
3439.02
2459.44
1796.24
1322
972.356
710.888
514.724
368.163
259.661
180.34
123.217
82.7604
54.6147
35.396
22.5231
14.0683
8.62452
5.18883
3.06358
1.77507
1.00935
0.563287
0.308545
0.1659
0.0875722
0.0453868
0.0230992
0.0115459
0.00566885
0.0027344
0.00129599
0.000603648
0.000276367
0.000124389
5.50483e-05
2.39581e-05
1.0256e-05
4.3192e-06
1.7898e-06
7.29848e-07
2.92926e-07
1.15715e-07
4.50287e-08
1.7248e-08
6.50009e-09
2.42793e-09
8.96753e-10
3.227e-10
9.11023e-11
2.08547e-11
0
1.09762e-12
0
1.09762e-12
-2.19524e-12
0
2.19524e-12
0
1.09762e-12
0
-2.19524e-11
9.87856e-12
-1.09762e-12
-1.09762e-12
0
1.09762e-12
0
-5.48809e-12
0
-7.68332e-12
0
-9.87856e-12
4035.77
4525.77
3714.63
2862.35
2171.59
1638.2
1229.04
915.044
674.462
491.15
352.766
249.579
173.755
118.942
80.0101
52.8647
34.2966
21.8421
13.6527
8.37481
5.04123
2.97779
1.72605
0.981816
0.548093
0.300305
0.16151
0.0852735
0.0442044
0.0225015
0.0112491
0.00552395
0.00266488
0.00126321
0.000588452
0.000269441
0.000121284
5.36799e-05
2.33647e-05
1.0003e-05
4.21297e-06
1.74591e-06
7.12023e-07
2.85805e-07
1.12942e-07
4.39398e-08
1.68254e-08
6.3563e-09
2.35658e-09
8.53946e-10
2.8099e-10
8.78094e-11
8.78094e-12
8.78094e-12
-1.31714e-11
-6.5857e-12
-1.4269e-11
0
-4.39047e-12
0
0
-1.09762e-12
0
2.41476e-11
5.48809e-12
0
-1.09762e-12
1.09762e-12
-1.09762e-12
0
-8.78094e-12
0
8.78094e-12
2.19523e-12
0
1418.03
2439.99
2469.02
2148.01
1754.23
1386.11
1071.81
814.452
608.965
448.061
324.298
230.784
161.403
110.886
74.8078
49.5449
32.2062
20.5446
12.8596
7.89769
4.75891
2.81353
1.6321
0.929013
0.51893
0.28448
0.153073
0.0808541
0.0419299
0.0213513
0.0106776
0.00524486
0.00253094
0.00120002
0.000559148
0.000256078
0.000115293
5.1038e-05
2.22188e-05
9.51397e-06
4.00767e-06
1.66107e-06
6.77534e-07
2.72019e-07
1.07522e-07
4.18324e-08
1.60318e-08
6.05556e-09
2.24243e-09
7.94675e-10
2.8099e-10
8.67118e-11
4.50023e-11
2.19524e-11
0
-2.19523e-12
0
4.39047e-12
0
-2.19524e-12
0
0
0
-1.4269e-11
-1.09762e-11
2.19524e-12
3.29285e-12
2.19523e-12
0
0
3.29285e-12
8.78094e-12
0
-1.09762e-12
8.78094e-12
618.154
1358.12
1590.94
1529.16
1337.79
1108.99
887.092
690.725
525.773
392.062
286.68
205.639
144.722
99.9278
67.6916
44.9834
29.3233
18.7499
11.7598
7.23475
4.36594
2.58454
1.50097
0.855227
0.478138
0.262325
0.141251
0.0746576
0.0387388
0.0197367
0.00987484
0.00485269
0.00234264
0.00111115
0.000517917
0.000237272
0.000106858
4.7317e-05
2.06043e-05
8.82484e-06
3.71826e-06
1.54143e-06
6.28867e-07
2.52534e-07
9.98272e-08
3.8837e-08
1.48925e-08
5.60883e-09
2.06681e-09
7.32111e-10
2.70014e-10
9.43951e-11
2.96357e-11
-7.68332e-12
1.31714e-11
5.48809e-12
1.4269e-11
-4.39047e-12
5.48809e-12
6.58571e-12
0
-2.19523e-12
0
-1.09762e-12
-4.39047e-12
3.29285e-12
0
1.09762e-12
0
2.19524e-12
5.48809e-12
0
-1.09762e-12
-1.09762e-12
-5.48809e-12
318.117
793.638
1023.73
1061.1
983.518
851.778
704.269
562.335
436.375
330.299
244.367
176.929
125.454
87.1543
59.3364
39.5963
25.9025
16.6119
10.4455
6.44025
3.89388
2.30892
1.34286
0.766126
0.428815
0.235505
0.126926
0.0671418
0.0348651
0.0177752
0.00889899
0.00437563
0.00211345
0.00100293
0.000467683
0.000214348
9.65711e-05
4.27777e-05
1.8634e-05
7.98353e-06
3.3648e-06
1.3953e-06
5.69406e-07
2.28702e-07
9.04195e-08
3.51775e-08
1.34667e-08
5.07538e-09
1.8868e-09
6.98085e-10
2.51354e-10
9.43951e-11
1.20738e-11
-2.19523e-11
0
5.48809e-12
1.09762e-12
-8.78094e-12
-5.48809e-12
0
0
0
0
1.86595e-11
0
-1.09762e-12
-1.09762e-12
-3.29285e-12
0
-1.09762e-12
-9.87856e-12
-1.20738e-11
-7.68332e-12
-1.09762e-12
-1.09762e-12
181.971
483.893
664.037
727.234
705.89
634.707
540.81
442.299
349.859
268.907
201.425
147.313
105.32
73.6678
50.4409
33.8218
22.215
14.2966
9.01645
5.57355
3.37746
2.00667
1.16911
0.668028
0.374423
0.205886
0.111087
0.0588217
0.0305724
0.0155996
0.0078157
0.00384565
0.00185865
0.000882536
0.000411769
0.000188817
8.51093e-05
3.77172e-05
1.64365e-05
7.04479e-06
2.97023e-06
1.23213e-06
5.02965e-07
2.02057e-07
7.99044e-08
3.11175e-08
1.1907e-08
4.47389e-09
1.64752e-09
6.13568e-10
2.16231e-10
8.45165e-11
3.07333e-11
-4.39047e-12
-1.09762e-12
0
-1.09762e-12
2.19524e-12
1.09762e-12
-6.58571e-12
1.09762e-12
2.19523e-12
1.09762e-12
0
-1.09762e-12
-4.39047e-12
0
0
0
-2.19524e-12
4.39047e-12
1.09762e-12
-4.39047e-12
0
0
110.669
304.193
434.422
495.013
498.073
461.993
404.11
337.797
272.071
212.266
160.978
118.949
85.7756
60.4322
41.6319
28.0606
18.5131
11.96
7.56796
4.69174
2.85033
1.69728
0.990818
0.567153
0.318385
0.175321
0.094716
0.0502114
0.0261247
0.013343
0.00669098
0.0032949
0.00159365
0.000757231
0.000353531
0.000162209
7.31563e-05
3.2437e-05
1.41424e-05
6.06433e-06
2.55797e-06
1.06158e-06
4.33503e-07
1.74202e-07
6.88964e-08
2.68378e-08
1.02847e-08
3.86032e-09
1.41593e-09
5.08197e-10
1.77814e-10
7.4638e-11
2.41476e-11
4.39047e-12
0
-9.87856e-12
-1.09762e-12
-7.68332e-12
4.39047e-12
-4.39047e-12
0
-2.19523e-12
1.09762e-12
-5.48809e-12
2.19523e-12
2.19524e-12
0
0
-1.20738e-11
1.09762e-12
1.31714e-11
2.19524e-12
0
-7.68332e-12
0
69.6286
194.96
285.833
335.156
346.718
329.853
295.047
251.445
205.897
162.912
125.032
93.3282
67.8828
48.1792
33.4008
22.6353
15.0041
9.73274
6.18063
3.84369
2.34159
1.39776
0.817745
0.468997
0.263744
0.145461
0.0786965
0.041773
0.0217599
0.0111257
0.00558462
0.00275259
0.00133248
0.000633626
0.000296038
0.000135921
6.13393e-05
2.72136e-05
1.18716e-05
5.09327e-06
2.14945e-06
8.92448e-07
3.64615e-07
1.46596e-07
5.79948e-08
2.2578e-08
8.65252e-09
3.28078e-09
1.20848e-09
4.26973e-10
1.6135e-10
5.37833e-11
2.96357e-11
9.87856e-12
1.09762e-12
4.39047e-12
2.305e-11
3.29285e-12
-3.29285e-12
0
0
0
-3.29285e-12
0
0
0
7.68332e-12
-1.09762e-12
0
1.09762e-12
-1.09762e-12
0
6.5857e-12
0
4.39047e-12
44.5888
126.26
188.444
225.624
238.461
231.557
211.052
182.913
152.014
121.842
94.566
71.2765
52.2812
37.3776
26.077
17.7699
11.8359
7.71017
4.9145
3.06638
1.87351
1.12127
0.657518
0.377892
0.212911
0.117626
0.063736
0.0338796
0.0176709
0.0090457
0.00454548
0.00224266
0.00108664
0.000517168
0.000241821
0.000111112
5.01783e-05
2.22766e-05
9.72395e-06
4.17428e-06
1.76259e-06
7.32181e-07
2.99282e-07
1.20421e-07
4.76849e-08
1.85914e-08
7.13232e-09
2.71221e-09
1.0131e-09
3.60019e-10
1.29519e-10
3.95142e-11
1.64643e-11
9.87856e-12
2.19524e-12
8.78094e-12
1.4269e-11
1.4269e-11
-4.39047e-12
4.39047e-12
-1.09762e-12
2.19523e-12
8.78094e-12
0
-1.09762e-12
0
1.4269e-11
2.19523e-12
1.31714e-11
-1.09762e-12
2.19523e-12
5.48809e-12
6.58571e-12
8.78094e-12
2.19524e-12
28.772
82.0742
124.042
150.834
162.089
160.021
148.159
130.277
109.696
88.9576
69.7622
53.064
39.2366
28.2507
19.8325
13.5889
9.09508
5.95018
3.80714
2.38351
1.4607
0.876583
0.515289
0.296802
0.167557
0.0927372
0.0503327
0.0267952
0.0139951
0.00717317
0.00360875
0.00178242
0.000864503
0.00041183
0.000192734
8.86294e-05
4.00558e-05
1.77955e-05
7.77316e-06
3.339e-06
1.41073e-06
5.86365e-07
2.39845e-07
9.65607e-08
3.82882e-08
1.49452e-08
5.74493e-09
2.15682e-09
8.1992e-10
3.08431e-10
9.87856e-11
3.95142e-11
1.09762e-11
1.86595e-11
2.19524e-12
-5.48809e-12
-1.97571e-11
-1.09762e-12
2.19523e-12
-1.09762e-12
-1.09762e-12
0
1.09762e-12
-1.09762e-12
-1.09762e-12
-1.09762e-12
-6.58571e-12
0
-1.09762e-12
0
1.09762e-12
0
-6.58571e-12
0
1.09762e-12
18.5851
53.2868
81.2708
99.9877
108.858
108.918
102.173
90.9617
77.4756
63.4897
50.2626
38.5574
28.727
20.8238
14.707
10.1312
6.81328
4.47646
2.87517
1.80622
1.11033
0.668176
0.393767
0.227323
0.128599
0.0713098
0.0387698
0.0206722
0.0108128
0.00554951
0.00279537
0.00138226
0.000671136
0.000320033
0.000149913
6.8998e-05
3.1209e-05
1.38758e-05
6.06547e-06
2.60727e-06
1.10232e-06
4.5847e-07
1.87646e-07
7.55929e-08
2.99924e-08
1.16907e-08
4.48816e-09
1.68045e-09
6.21252e-10
2.50257e-10
8.23213e-11
3.84166e-11
2.85381e-11
5.48809e-12
-2.19523e-12
1.09762e-12
-1.4269e-11
0
4.39047e-12
-1.09762e-12
3.29285e-12
1.4269e-11
-8.78094e-12
0
0
-9.87856e-12
-3.7319e-11
-1.09762e-12
0
0
-3.29285e-12
-5.48809e-12
0
-2.19523e-12
-3.29285e-12
11.9629
34.4275
52.8656
65.6288
72.1924
73.0238
69.2551
62.3121
53.6076
44.3411
35.4048
27.3722
20.538
14.983
10.6429
7.36955
4.97922
3.2852
2.11804
1.33513
0.823289
0.49683
0.293538
0.169855
0.0962926
0.053499
0.0291383
0.0155621
0.00815225
0.00418987
0.00211323
0.00104622
0.000508544
0.000242755
0.000113825
5.24367e-05
2.37386e-05
1.05631e-05
4.62099e-06
1.9878e-06
8.41018e-07
3.50031e-07
1.43335e-07
5.77654e-08
2.29029e-08
8.94229e-09
3.43445e-09
1.31714e-09
4.99416e-10
2.0745e-10
1.00981e-10
5.70761e-11
2.08547e-11
1.09762e-12
2.19524e-12
-1.09762e-12
-3.29285e-12
0
-1.09762e-12
2.19524e-12
0
-1.09762e-12
5.48809e-12
0
-1.09762e-11
-5.48809e-12
-2.19524e-12
-1.09762e-12
0
1.09762e-12
0
0
4.39047e-12
0
1.09762e-12
7.64856
22.0729
34.0713
42.5963
47.2457
48.2189
46.1511
41.9018
36.3641
30.3273
24.4023
19.0006
14.35
10.5313
7.52148
5.23399
3.55225
2.35329
1.52285
0.963194
0.595765
0.360535
0.213557
0.123864
0.0703709
0.0391745
0.0213753
0.0114353
0.0059997
0.00308801
0.00155958
0.000773078
0.000376216
0.000179784
8.43849e-05
3.89117e-05
1.76318e-05
7.85245e-06
3.43798e-06
1.48005e-06
6.26638e-07
2.60984e-07
1.06917e-07
4.30859e-08
1.70745e-08
6.66583e-09
2.57172e-09
1.00103e-09
3.94045e-10
1.70131e-10
1.00981e-10
5.1588e-11
1.64643e-11
1.75619e-11
2.19524e-12
0
1.09762e-12
-8.78094e-12
-7.68332e-12
-3.29285e-12
-1.09762e-12
-1.4269e-11
1.09762e-12
-1.20738e-11
-1.09762e-12
1.09762e-11
2.305e-11
-2.19523e-12
0
0
-1.09762e-12
-4.39047e-12
-8.78094e-12
1.09762e-12
6.58571e-12
4.84557
14.0139
21.72
27.3075
30.4919
31.3508
30.2385
27.6679
24.1942
20.3253
16.4676
12.9054
9.80535
7.2361
5.19448
3.63168
2.47539
1.64635
1.06922
0.678509
0.420948
0.255448
0.151696
0.0881905
0.0502119
0.028008
0.0153105
0.00820472
0.00431155
0.0022224
0.00112395
0.000557853
0.000271803
0.000130034
6.10987e-05
2.82021e-05
1.2791e-05
5.70167e-06
2.49843e-06
1.07645e-06
4.56112e-07
1.90099e-07
7.79341e-08
3.14303e-08
1.24602e-08
4.84379e-09
1.87034e-09
7.09061e-10
2.60135e-10
1.03176e-10
5.1588e-11
2.41476e-11
9.87856e-12
2.74404e-11
-4.39047e-12
0
4.39047e-12
0
1.09762e-12
0
-1.09762e-12
-1.09762e-12
-6.5857e-12
0
1.20738e-11
8.78094e-12
2.19523e-12
0
-1.09762e-12
-2.19523e-12
-6.5857e-12
4.39047e-12
0
0
0
3.0363
8.7963
13.6777
17.2744
19.3952
20.0646
19.4793
17.9424
15.7939
13.3539
10.8863
8.58152
6.55607
4.86311
3.5077
2.46323
1.68583
1.12546
0.733468
0.466935
0.290543
0.176793
0.105251
0.0613312
0.0349944
0.0195586
0.0107114
0.00574998
0.00302643
0.00156231
0.000791218
0.000393222
0.000191825
9.18775e-05
4.32172e-05
1.99688e-05
9.0656e-06
4.04477e-06
1.77392e-06
7.64932e-07
3.24391e-07
1.35335e-07
5.55383e-08
2.24397e-08
8.91156e-09
3.48055e-09
1.36105e-09
5.00514e-10
1.77814e-10
5.26856e-11
1.09762e-12
-2.85381e-11
-2.85381e-11
-6.58571e-12
-1.4269e-11
-1.09762e-12
0
7.68332e-12
8.78094e-12
6.58571e-12
1.09762e-12
-4.39047e-12
0
1.31714e-11
9.87856e-12
0
-1.09762e-12
2.19523e-12
-4.39047e-12
0
-7.68332e-12
3.29285e-12
8.78094e-12
9.87856e-12
-3.29285e-12
1.8792
5.4516
8.49927
10.7742
12.1522
12.6367
12.3364
11.4285
10.1182
8.60389
7.05285
5.58912
4.29144
3.19837
2.3172
1.63398
1.12261
0.752144
0.49181
0.31406
0.195978
0.119568
0.0713583
0.0416764
0.0238303
0.0133452
0.00732206
0.0039373
0.00207568
0.00107312
0.000544239
0.000270836
0.000132286
6.34347e-05
2.98714e-05
1.38168e-05
6.27892e-06
2.80408e-06
1.23092e-06
5.31256e-07
2.25493e-07
9.41514e-08
3.86855e-08
1.56487e-08
6.25971e-09
2.46854e-09
9.61513e-10
3.74288e-10
1.43788e-10
4.39047e-11
-8.78094e-12
-2.74404e-11
-2.85381e-11
-2.74404e-11
1.09762e-12
-4.39047e-12
-4.39047e-12
0
8.78094e-12
-1.09762e-12
0
1.09762e-12
0
-2.19524e-12
5.48809e-12
-4.39047e-12
-1.09762e-12
-1.09762e-12
0
1.09762e-12
-4.39047e-12
-7.68332e-12
-2.19524e-12
2.19523e-12
5.48809e-12
1.14751
3.33271
5.2071
6.62118
7.49661
7.82963
7.67993
7.15015
6.36248
5.43758
4.47939
3.56675
2.75119
2.05938
1.49817
1.06053
0.731281
0.491622
0.322482
0.206541
0.129241
0.079054
0.0472928
0.0276829
0.015862
0.0089002
0.00489215
0.00263516
0.00139143
0.000720449
0.000365897
0.000182328
8.91674e-05
4.2809e-05
2.01815e-05
9.34474e-06
4.25094e-06
1.90025e-06
8.34937e-07
3.60673e-07
1.53218e-07
6.40043e-08
2.63384e-08
1.06732e-08
4.26205e-09
1.7068e-09
6.4979e-10
2.68916e-10
9.98832e-11
2.74404e-11
-5.48809e-12
2.305e-11
2.63428e-11
1.75619e-11
1.31714e-11
2.19523e-12
1.09762e-12
3.29285e-12
0
-2.19523e-12
-2.19523e-12
5.48809e-12
1.09762e-12
0
-9.87856e-12
-1.09762e-12
0
-3.29285e-12
4.39047e-12
-1.09762e-12
-3.29285e-12
5.48809e-12
-3.29285e-12
-9.87856e-12
-1.09762e-12
0.69077
2.00806
3.14311
4.007
4.55144
4.77138
4.69933
4.39411
3.92745
3.37155
2.78974
2.23096
1.72803
1.29869
0.948378
0.673774
0.466182
0.31441
0.206862
0.132865
0.0833596
0.0511162
0.0306507
0.0179806
0.0103237
0.00580377
0.00319588
0.00172437
0.000911963
0.000472898
0.000240511
0.000120008
5.87638e-05
2.8246e-05
1.33311e-05
6.17945e-06
2.81393e-06
1.25912e-06
5.53738e-07
2.39427e-07
1.01795e-07
4.25963e-08
1.75322e-08
7.10488e-09
2.81978e-09
1.12286e-09
4.21485e-10
1.51471e-10
6.80523e-11
9.87856e-12
-2.19524e-12
2.08547e-11
3.07333e-11
1.4269e-11
-2.19524e-12
5.48809e-12
-1.09762e-12
-2.19524e-12
-9.87856e-12
0
0
-4.39047e-12
0
2.19524e-12
-4.39047e-12
1.09762e-12
8.78094e-12
4.39047e-12
0
0
9.87856e-12
1.20738e-11
5.48809e-12
-5.48809e-12
-4.39047e-12
0.409648
1.19177
1.86826
2.38696
2.71874
2.85925
2.82606
2.65251
2.3801
2.05135
1.7041
1.3681
1.06372
0.802372
0.588008
0.419156
0.290941
0.196816
0.129863
0.0836349
0.052606
0.0323353
0.0194328
0.011424
0.00657225
0.00370171
0.00204197
0.0011036
0.000584576
0.000303582
0.000154616
7.72509e-05
3.78749e-05
1.82272e-05
8.61237e-06
3.99647e-06
1.82177e-06
8.15978e-07
3.5921e-07
1.55473e-07
6.61666e-08
2.77357e-08
1.1413e-08
4.62316e-09
1.87254e-09
7.34306e-10
2.89771e-10
9.43951e-11
4.28071e-11
-6.5857e-12
8.78094e-12
-4.39047e-12
1.86595e-11
8.78094e-12
1.53666e-11
-2.19523e-12
-1.09762e-12
-1.09762e-12
-1.09762e-12
2.19524e-12
-1.09762e-12
-8.78094e-12
-1.09762e-12
0
-8.78094e-12
-9.87856e-12
0
2.19523e-12
4.39047e-12
1.09762e-12
1.31714e-11
-4.39047e-12
3.29285e-12
-1.09762e-12
-1.09762e-12
0.239201
0.696362
1.09305
1.39912
1.59736
1.68458
1.67017
1.5728
1.41618
1.2249
1.02117
0.822728
0.641907
0.485829
0.357194
0.25542
0.17782
0.120635
0.0798132
0.0515335
0.0324931
0.0200184
0.0120567
0.00710234
0.00409391
0.00231005
0.00127649
0.000691021
0.000366599
0.000190661
9.72395e-05
4.86481e-05
2.38814e-05
1.15066e-05
5.44307e-06
2.52855e-06
1.15382e-06
5.17306e-07
2.2797e-07
9.87614e-08
4.20728e-08
1.76398e-08
7.27611e-09
2.95698e-09
1.19091e-09
4.6539e-10
1.96474e-10
8.45165e-11
1.53666e-11
-4.39047e-12
2.08547e-11
5.48809e-12
8.78094e-12
-3.29285e-12
1.09762e-11
3.29285e-12
1.86595e-11
0
2.19523e-12
0
0
-6.5857e-12
-1.09762e-12
3.29285e-12
0
-1.09762e-12
-7.68332e-12
0
0
1.09762e-12
-4.39047e-12
-8.78094e-12
0
0
-5.48809e-12
0.137473
0.400437
0.629245
0.806742
0.922931
0.975668
0.96994
0.916067
0.827381
0.717898
0.60042
0.48529
0.379831
0.288367
0.212654
0.152505
0.10647
0.0724236
0.0480386
0.031093
0.0196503
0.0121328
0.00732263
0.00432213
0.00249603
0.00141092
0.000780968
0.000423448
0.000224988
0.000117181
5.98458e-05
2.99795e-05
1.47353e-05
7.10825e-06
3.36632e-06
1.5655e-06
7.15104e-07
3.2093e-07
1.41558e-07
6.13788e-08
2.61968e-08
1.09861e-08
4.5606e-09
1.85827e-09
7.18939e-10
2.82088e-10
1.00981e-10
2.96357e-11
1.4269e-11
2.41476e-11
1.4269e-11
1.4269e-11
-1.53666e-11
-1.97571e-11
-1.4269e-11
-1.09762e-12
9.87856e-12
0
0
-2.19524e-12
3.29285e-12
8.78094e-12
0
-1.86595e-11
8.78094e-12
1.09762e-11
0
1.09762e-12
-4.39047e-12
0
-1.20738e-11
0
0
-3.29285e-12
2.19524e-12
0.077738
0.22655
0.356341
0.457495
0.524316
0.555446
0.5535
0.524112
0.474671
0.413031
0.346442
0.280828
0.220436
0.167832
0.12411
0.0892469
0.0624693
0.0426002
0.028325
0.0183756
0.0116388
0.00720131
0.00435498
0.0025754
0.00148999
0.000843697
0.000467766
0.000254024
0.00013517
7.05005e-05
3.60542e-05
1.80845e-05
8.89972e-06
4.29826e-06
2.03789e-06
9.48753e-07
4.33851e-07
1.94925e-07
8.6062e-08
3.73431e-08
1.59517e-08
6.679e-09
2.77039e-09
1.12835e-09
4.47828e-10
1.77814e-10
6.25642e-11
9.87856e-12
1.53666e-11
2.19523e-11
1.09762e-12
6.58571e-12
-7.68332e-12
1.09762e-12
-5.48809e-12
-2.19523e-12
-1.86595e-11
-7.68332e-12
-1.09762e-12
0
-1.09762e-12
1.09762e-11
1.09762e-12
-2.19524e-12
-1.09762e-12
-4.39047e-12
9.87856e-12
-1.09762e-12
2.19524e-12
-2.19524e-12
3.29285e-12
0
-2.19524e-12
3.29285e-12
-8.78094e-12
0.0432426
0.126075
0.198469
0.255118
0.292837
0.3108
0.310364
0.294563
0.26743
0.233297
0.196198
0.15946
0.125499
0.0958007
0.0710264
0.0512029
0.0359275
0.0245582
0.0163659
0.0106405
0.00675362
0.00418709
0.002537
0.00150306
0.000871111
0.000494085
0.00027437
0.000149226
7.95205e-05
4.15332e-05
2.12684e-05
1.06816e-05
5.26304e-06
2.54482e-06
1.20791e-06
5.62978e-07
2.57729e-07
1.15924e-07
5.12269e-08
2.22586e-08
9.48561e-09
3.97447e-09
1.63655e-09
6.55278e-10
2.67819e-10
1.09762e-10
5.81737e-11
2.41476e-11
9.87856e-12
1.53666e-11
-6.5857e-12
-1.20738e-11
5.48809e-12
-2.19523e-12
-4.39047e-12
5.48809e-12
-7.68332e-12
1.20738e-11
1.09762e-12
0
1.09762e-12
-2.19523e-12
-1.09762e-12
1.31714e-11
0
1.31714e-11
0
-2.19523e-12
0
1.09762e-12
4.39047e-12
-2.19523e-12
0
2.19523e-12
-1.09762e-12
0.0236579
0.0690009
0.108702
0.139878
0.16078
0.170924
0.171004
0.162632
0.147976
0.129388
0.109071
0.0888613
0.070106
0.0536449
0.0398669
0.0288072
0.0202592
0.0138789
0.00926891
0.00603877
0.0038405
0.00238558
0.00144811
0.000859447
0.000498942
0.000283452
0.000157647
8.58688e-05
4.58234e-05
2.39659e-05
1.22885e-05
6.17935e-06
3.04831e-06
1.47565e-06
7.01196e-07
3.27165e-07
1.49931e-07
6.75079e-08
2.9864e-08
1.29947e-08
5.53748e-09
2.33683e-09
9.47244e-10
3.7758e-10
1.71228e-10
7.90285e-11
4.50023e-11
1.97571e-11
9.87856e-12
1.31714e-11
-9.87856e-12
-2.85381e-11
-2.19523e-11
-9.87856e-12
-1.75619e-11
6.5857e-12
1.09762e-12
1.09762e-11
0
-1.09762e-12
1.09762e-12
0
-1.09762e-12
4.39047e-12
3.29285e-12
4.39047e-12
-9.87856e-12
0
-1.09762e-12
1.09762e-12
1.09762e-12
1.09762e-12
0
1.09762e-12
1.31714e-11
0.0127283
0.0371359
0.0585408
0.075402
0.0867752
0.0923849
0.0925827
0.0882125
0.0804227
0.0704668
0.0595303
0.048607
0.0384333
0.0294745
0.0219527
0.0158972
0.0112038
0.0076913
0.00514697
0.00335986
0.00214082
0.00133223
0.00081012
0.000481617
0.000280052
0.000159348
8.8757e-05
4.84147e-05
2.58719e-05
1.35491e-05
6.95616e-06
3.50225e-06
1.72972e-06
8.38278e-07
3.9879e-07
1.8628e-07
8.54638e-08
3.85198e-08
1.70833e-08
7.45941e-09
3.21273e-09
1.35995e-09
5.48809e-10
2.29402e-10
1.00981e-10
5.70761e-11
1.4269e-11
1.75619e-11
1.97571e-11
7.68332e-12
3.29285e-12
-7.68332e-12
-1.75619e-11
-1.09762e-12
4.39047e-12
-4.39047e-12
0
-3.29285e-12
-2.19523e-12
2.19524e-12
-1.09762e-12
2.19523e-12
0
6.58571e-12
-2.19523e-12
-1.31714e-11
2.19524e-12
1.09762e-12
0
-1.09762e-12
7.68332e-12
3.29285e-12
0
3.29285e-12
-4.39047e-12
0.00673389
0.0196524
0.0309978
0.0399596
0.0460369
0.0490772
0.0492561
0.0470091
0.0429348
0.037691
0.0319041
0.0261026
0.0206814
0.0158932
0.0118615
0.00860701
0.00607804
0.00418065
0.002803
0.00183315
0.00117014
0.000729443
0.000444314
0.000264574
0.000154085
8.78058e-05
4.8979e-05
2.67541e-05
1.43161e-05
7.50705e-06
3.85897e-06
1.94524e-06
9.61859e-07
4.66685e-07
2.22263e-07
1.03914e-07
4.77156e-08
2.15111e-08
9.55147e-09
4.16546e-09
1.81436e-09
7.80406e-10
3.41359e-10
1.52569e-10
6.47594e-11
3.95142e-11
1.97571e-11
3.84166e-11
2.305e-11
4.39047e-12
4.39047e-12
5.48809e-12
1.20738e-11
7.68332e-12
1.75619e-11
-6.5857e-12
-1.09762e-12
-3.29285e-12
1.09762e-12
2.19523e-12
-1.09762e-12
-2.19523e-12
2.19523e-12
-1.20738e-11
-3.29285e-12
-1.09762e-12
0
1.09762e-12
1.09762e-12
0
-7.68332e-12
0
-4.39047e-12
-1.4269e-11
-1.09762e-12
0.003503
0.010226
0.0161377
0.020819
0.0240087
0.0256243
0.0257525
0.0246147
0.0225179
0.0198019
0.0167917
0.0137638
0.0109258
0.0084122
0.00629021
0.00457295
0.00323533
0.00222944
0.00149746
0.000981046
0.000627293
0.000391691
0.000238968
0.000142519
8.31265e-05
4.74386e-05
2.64989e-05
1.44943e-05
7.76604e-06
4.07749e-06
2.09856e-06
1.05909e-06
5.24289e-07
2.54676e-07
1.214e-07
5.67984e-08
2.6086e-08
1.17544e-08
5.19502e-09
2.24902e-09
9.54927e-10
4.07216e-10
1.89888e-10
8.67118e-11
3.95142e-11
1.75619e-11
3.7319e-11
3.95142e-11
2.305e-11
0
-1.75619e-11
3.29285e-12
0
-1.4269e-11
-4.39047e-12
0
0
-7.68332e-12
4.39047e-12
-3.29285e-12
0
-1.09762e-12
-5.48809e-12
-2.08547e-11
2.19523e-12
0
-2.19524e-12
-3.29285e-12
1.09762e-12
-1.09762e-12
1.09762e-12
-2.19524e-12
0
0
1.31714e-11
0.0017918
0.00523186
0.00826026
0.0106636
0.0123082
0.0131505
0.0132324
0.012665
0.0116033
0.0102199
0.00868065
0.00712746
0.0056677
0.00437148
0.00327455
0.00238479
0.00169017
0.00116669
0.000784968
0.00051512
0.000329908
0.000206325
0.000126071
7.53e-05
4.39835e-05
2.51357e-05
1.40596e-05
7.70036e-06
4.13109e-06
2.17167e-06
1.11903e-06
5.6539e-07
2.80192e-07
1.36226e-07
6.49844e-08
3.04413e-08
1.39639e-08
6.30911e-09
2.7649e-09
1.1964e-09
4.80756e-10
1.81107e-10
6.25642e-11
2.305e-11
2.41476e-11
2.74404e-11
3.29285e-11
1.53666e-11
2.41476e-11
-2.19523e-12
-7.68332e-12
3.29285e-12
-7.68332e-12
-6.58571e-12
-4.39047e-12
-1.09762e-12
0
0
-1.09762e-12
0
0
3.29285e-12
-1.09762e-12
7.68332e-12
0
-1.09762e-12
0
0
6.58571e-12
4.39047e-12
6.5857e-12
-1.97571e-11
2.19524e-12
1.09762e-11
0
0.000901198
0.00263196
0.00415717
0.00537001
0.00620311
0.00663396
0.00668273
0.00640413
0.00587523
0.0051822
0.0044084
0.00362532
0.00288748
0.00223075
0.00167375
0.00122097
0.00086676
0.000599281
0.000403851
0.000265436
0.000170261
0.000106642
6.52573e-05
3.90327e-05
2.28311e-05
1.30651e-05
7.31755e-06
4.01285e-06
2.15546e-06
1.13445e-06
5.85243e-07
2.96022e-07
1.46849e-07
7.14516e-08
3.41052e-08
1.59758e-08
7.31562e-09
3.30602e-09
1.44776e-09
6.11373e-10
2.45866e-10
8.45165e-11
1.20738e-11
2.19523e-12
-1.09762e-12
5.48809e-12
4.39047e-12
-1.64643e-11
-3.29285e-12
5.48809e-12
1.20738e-11
-6.5857e-12
9.87856e-12
1.31714e-11
0
0
8.78094e-12
0
-1.09762e-12
-2.19523e-12
-1.09762e-12
1.09762e-12
4.39047e-12
1.86595e-11
1.09762e-12
0
-1.09762e-12
1.31714e-11
0
1.09762e-12
-7.68332e-12
0
0
0
-7.68332e-12
0.000445706
0.00130194
0.00205719
0.00265884
0.00307355
0.0032899
0.00331745
0.00318276
0.00292352
0.0025821
0.00219962
0.00181153
0.001445
0.00111805
0.000840175
0.00061384
0.000436434
0.000302215
0.000203969
0.000134261
8.62467e-05
5.40978e-05
3.31505e-05
1.98557e-05
1.16296e-05
6.66371e-06
3.73695e-06
2.05181e-06
1.10343e-06
5.81398e-07
3.00255e-07
1.52033e-07
7.54952e-08
3.67647e-08
1.75597e-08
8.22006e-09
3.76373e-09
1.68375e-09
7.44185e-10
3.05138e-10
1.13055e-10
4.06118e-11
-4.39047e-12
-1.4269e-11
-3.51238e-11
-4.17095e-11
-3.07333e-11
-2.305e-11
-2.63428e-11
-9.87856e-12
-2.19524e-12
-2.41476e-11
-1.31714e-11
-7.68332e-12
1.09762e-12
3.29285e-12
7.68332e-12
-1.20738e-11
-1.09762e-12
2.19524e-12
-1.09762e-12
-5.48809e-12
-3.29285e-12
0
0
2.19524e-12
1.09762e-12
0
-8.78094e-12
4.39047e-12
1.09762e-12
2.41476e-11
2.19524e-12
4.39047e-12
0
0.00021677
0.000633315
0.00100104
0.00129446
0.00149734
0.00160403
0.00161896
0.00155484
0.00142983
0.0012644
0.0010785
0.000889412
0.000710443
0.000550479
0.000414262
0.000303103
0.000215817
0.000149661
0.000101153
6.66781e-05
4.28924e-05
2.6941e-05
1.65313e-05
9.91457e-06
5.8145e-06
3.33588e-06
1.87303e-06
1.02964e-06
5.5436e-07
2.92423e-07
1.51184e-07
7.66104e-08
3.80895e-08
1.85596e-08
8.8468e-09
4.15558e-09
1.91424e-09
8.4297e-10
3.69897e-10
1.56959e-10
3.18309e-11
4.39047e-12
-2.19524e-12
-1.4269e-11
-2.19524e-11
-3.62214e-11
-4.93928e-11
-2.41476e-11
-3.29285e-11
-2.74404e-11
-2.41476e-11
-2.63428e-11
-3.07333e-11
-2.19524e-12
5.48809e-12
0
-8.78094e-12
-1.64643e-11
-8.78094e-12
-1.20738e-11
-3.29285e-12
-1.09762e-12
1.09762e-12
-2.19524e-12
-1.09762e-12
-1.09762e-11
1.09762e-12
-6.5857e-12
-1.09762e-12
-1.09762e-12
-2.19523e-12
0
-9.87856e-12
0
5.48809e-12
0.000103682
0.000302966
0.000479029
0.000619725
0.00071729
0.000768958
0.000776777
0.000746731
0.000687415
0.000608568
0.000519716
0.000429136
0.000343229
0.000266301
0.000200675
0.000147028
0.000104831
7.2796e-05
4.92684e-05
3.25204e-05
2.09475e-05
1.31745e-05
8.09447e-06
4.86077e-06
2.85417e-06
1.63947e-06
9.2165e-07
5.0725e-07
2.73427e-07
1.4439e-07
7.47137e-08
3.78865e-08
1.88307e-08
9.19584e-09
4.38059e-09
2.04486e-09
9.43951e-10
3.9624e-10
1.53666e-10
5.92713e-11
2.52452e-11
6.5857e-12
1.75619e-11
1.4269e-11
-7.68332e-12
-3.29285e-12
-1.09762e-11
-1.31714e-11
-5.48809e-12
-2.08547e-11
-2.08547e-11
1.09762e-11
4.39047e-12
1.4269e-11
-2.19523e-12
6.5857e-12
-7.68332e-12
7.68332e-12
-8.78094e-12
-2.19523e-12
-1.31714e-11
5.48809e-12
4.39047e-12
-7.68332e-12
1.09762e-12
-1.09762e-12
-1.09762e-12
1.09762e-12
2.19523e-12
-8.78094e-12
-1.31714e-11
-4.39047e-12
-6.5857e-12
-7.68332e-12
-1.09762e-12
4.87753e-05
0.000142546
0.000225448
0.000291789
0.000337913
0.000362498
0.000366471
0.000352608
0.000324915
0.000287949
0.000246182
0.000203513
0.00016297
0.000126601
9.55233e-05
7.00768e-05
5.00292e-05
3.47859e-05
2.35735e-05
1.55801e-05
1.00484e-05
6.32764e-06
3.89255e-06
2.34035e-06
1.37586e-06
7.91253e-07
4.45311e-07
2.45368e-07
1.32426e-07
6.9994e-08
3.62719e-08
1.84136e-08
9.14206e-09
4.47718e-09
2.13267e-09
9.74684e-10
4.37949e-10
1.77814e-10
5.59785e-11
1.64643e-11
1.53666e-11
1.09762e-11
1.4269e-11
1.09762e-12
1.53666e-11
3.29285e-12
2.74404e-11
-2.19524e-12
-7.68332e-12
-3.29285e-12
8.78094e-12
1.75619e-11
8.78094e-12
-1.86595e-11
-4.39047e-12
4.39047e-12
0
4.39047e-12
1.86595e-11
1.31714e-11
4.39047e-12
2.19523e-12
0
2.19524e-12
0
1.09762e-11
-2.19524e-12
0
0
5.48809e-12
8.78094e-12
0
9.87856e-12
2.19523e-12
-6.58571e-12
2.25699e-05
6.59697e-05
0.000104364
0.000135127
0.000156567
0.000168063
0.000170029
0.000163731
0.000151008
0.000133958
0.000114647
9.48795e-05
7.60642e-05
5.91585e-05
4.46897e-05
3.28246e-05
2.34628e-05
1.6334e-05
1.10827e-05
7.33363e-06
4.73557e-06
2.98567e-06
1.83885e-06
1.10687e-06
6.51469e-07
3.75113e-07
2.11351e-07
1.16588e-07
6.29912e-08
3.33467e-08
1.73171e-08
8.81936e-09
4.41352e-09
2.14035e-09
1.04054e-09
4.77464e-10
2.28304e-10
1.09762e-10
6.47594e-11
1.86595e-11
3.07333e-11
1.97571e-11
2.19524e-11
1.09762e-12
2.74404e-11
1.86595e-11
1.53666e-11
6.58571e-12
-1.64643e-11
8.78094e-12
1.97571e-11
1.09762e-11
1.53666e-11
1.09762e-12
3.29285e-12
-2.305e-11
-1.09762e-12
0
7.68332e-12
1.09762e-12
1.4269e-11
-2.19523e-12
-1.09762e-12
-1.09762e-12
-4.39047e-12
1.09762e-12
-1.09762e-12
1.20738e-11
0
0
2.08547e-11
9.87856e-12
6.58571e-12
4.39047e-12
0
1.0274e-05
3.00337e-05
4.75253e-05
6.15564e-05
7.13568e-05
7.66403e-05
7.75889e-05
7.47719e-05
6.90198e-05
6.12829e-05
5.24993e-05
4.34918e-05
3.49042e-05
2.71764e-05
2.05528e-05
1.51133e-05
1.08154e-05
7.53813e-06
5.12064e-06
3.39237e-06
2.19311e-06
1.3843e-06
8.53547e-07
5.14366e-07
3.03093e-07
1.74709e-07
9.85661e-08
5.44638e-08
2.94655e-08
1.56421e-08
8.13225e-09
4.16546e-09
2.09645e-09
1.01969e-09
5.23564e-10
2.39281e-10
1.21836e-10
7.68332e-11
3.51238e-11
4.39047e-12
4.17095e-11
1.4269e-11
3.62214e-11
5.26856e-11
4.06118e-11
4.60999e-11
2.52452e-11
4.06118e-11
1.4269e-11
8.78094e-12
2.19523e-11
2.85381e-11
4.50023e-11
4.50023e-11
4.39047e-12
5.48809e-12
4.39047e-12
1.4269e-11
-1.09762e-11
0
0
-2.19523e-12
-1.09762e-12
0
-3.29285e-12
0
4.39047e-12
-4.39047e-12
-2.19523e-12
-1.31714e-11
-5.48809e-12
6.5857e-12
-1.09762e-12
-5.48809e-12
2.19523e-12
4.60128e-06
1.34525e-05
2.12919e-05
2.75873e-05
3.19936e-05
3.4381e-05
3.48284e-05
3.35877e-05
3.10282e-05
2.75735e-05
2.36429e-05
1.96053e-05
1.57499e-05
1.22756e-05
9.29361e-06
6.84138e-06
4.90123e-06
3.41985e-06
2.32566e-06
1.54246e-06
9.98275e-07
6.30788e-07
3.89378e-07
2.34919e-07
1.38592e-07
7.99702e-08
4.51812e-08
2.49982e-08
1.35435e-08
7.20476e-09
3.74946e-09
1.92303e-09
9.74684e-10
4.90635e-10
2.25012e-10
9.87856e-11
4.28071e-11
3.7319e-11
6.58571e-12
1.64643e-11
9.87856e-12
1.09762e-11
1.75619e-11
5.37833e-11
4.50023e-11
4.28071e-11
1.86595e-11
1.09762e-11
3.51238e-11
1.86595e-11
3.29285e-11
4.60999e-11
4.06118e-11
2.305e-11
-3.29285e-12
1.4269e-11
1.31714e-11
2.19524e-12
2.19523e-12
0
0
-2.19523e-12
2.19524e-12
8.78094e-12
3.29285e-12
-1.09762e-12
0
-1.20738e-11
1.09762e-12
0
-1.64643e-11
-9.87856e-12
1.09762e-12
-7.68332e-12
0
2.0277e-06
5.92901e-06
9.38617e-06
1.21652e-05
1.4114e-05
1.51748e-05
1.53813e-05
1.48432e-05
1.37222e-05
1.22041e-05
1.04734e-05
8.69257e-06
6.9898e-06
5.45325e-06
4.13271e-06
3.04538e-06
2.18403e-06
1.5255e-06
1.03852e-06
6.89483e-07
4.46709e-07
2.82568e-07
1.74604e-07
1.05453e-07
6.22689e-08
3.59854e-08
2.03498e-08
1.12528e-08
6.10495e-09
3.2687e-09
1.71338e-09
8.75899e-10
4.21485e-10
2.1184e-10
8.67118e-11
5.04904e-11
1.31714e-11
2.74404e-11
2.74404e-11
4.17095e-11
8.78094e-12
1.09762e-11
-1.53666e-11
9.87856e-12
3.29285e-11
2.52452e-11
1.09762e-12
4.39047e-12
1.86595e-11
2.305e-11
1.4269e-11
2.52452e-11
4.39047e-12
4.39047e-12
-3.29285e-12
-2.08547e-11
-4.39047e-12
-4.39047e-12
1.09762e-12
0
0
-2.19523e-12
4.39047e-12
0
5.48809e-12
0
-1.09762e-12
0
6.58571e-12
1.53666e-11
5.48809e-12
-5.48809e-12
-8.78094e-12
1.09762e-12
-4.39047e-12
8.79398e-07
2.57164e-06
4.07188e-06
5.279e-06
6.12699e-06
6.59055e-06
6.68385e-06
6.45404e-06
5.97072e-06
5.31413e-06
4.56419e-06
3.79137e-06
3.05142e-06
2.38285e-06
1.80755e-06
1.33328e-06
9.5712e-07
6.69195e-07
4.56041e-07
3.0306e-07
1.96525e-07
1.24449e-07
7.69836e-08
4.65214e-08
2.74964e-08
1.59067e-08
8.99168e-09
4.9766e-09
2.70782e-09
1.46093e-09
7.81504e-10