/*--------------------------------*- C++ -*----------------------------------*\
  =========                 |
  \\      /  F ield         | OpenFOAM: The Open Source CFD Toolbox
   \\    /   O peration     | Website:  https://openfoam.org
    \\  /    A nd           | Version:  10
     \\/     M anipulation  |
\*---------------------------------------------------------------------------*/
FoamFile
{
    format      ascii;
    class       volScalarField;
    location    "94";
    object      gradTz;
}
// * * * * * * * * * * * * * * * * * * * * * * * * * * * * * * * * * * * * * //

dimensions      [0 -1 0 1 0 0 0];

internalField   nonuniform List<scalar> 
11250
(
-14408.4
-4201.19
-1575.76
-765.026
-451.668
-300.571
-213.536
-156.778
-116.714
-87.0886
-64.6571
-47.5327
-34.4886
-24.6433
-17.3136
-11.9474
-8.09157
-5.37579
-3.5023
-2.23704
-1.40072
-0.859738
-0.517278
-0.305104
-0.176431
-0.100035
-0.0556216
-0.0303327
-0.0162265
-0.00851654
-0.00438636
-0.00221733
-0.00110034
-0.000536135
-0.000256545
-0.000120582
-5.56819e-05
-2.52667e-05
-1.12687e-05
-4.94055e-06
-2.12979e-06
-9.02931e-07
-3.76542e-07
-1.54481e-07
-6.236e-08
-2.47612e-08
-9.68867e-09
-3.72422e-09
-1.40385e-09
-5.31247e-10
-2.1184e-10
-7.24428e-11
-2.08547e-11
-1.4269e-11
0
0
0
0
0
0
0
0
-2.08547e-11
-1.09762e-12
2.19523e-11
1.09762e-12
-1.09762e-12
0
1.09762e-12
-1.09762e-12
0
-5.48809e-12
-1.09762e-12
6.5857e-12
0
-8428.4
-5018.1
-2909.43
-1795.24
-1191.11
-836.869
-610.346
-454.333
-340.918
-255.636
-190.407
-140.29
-101.955
-72.9364
-51.2889
-35.417
-24
-15.9519
-10.3963
-6.64247
-4.16022
-2.55402
-1.53696
-0.906678
-0.524371
-0.297352
-0.165351
-0.0901809
-0.0482465
-0.0253243
-0.013044
-0.00659421
-0.00327252
-0.00159461
-0.000763074
-0.000358678
-0.000165636
-7.51638e-05
-3.35236e-05
-1.46983e-05
-6.33644e-06
-2.68642e-06
-1.12033e-06
-4.59651e-07
-1.85538e-07
-7.3705e-08
-2.88432e-08
-1.10925e-08
-4.20058e-09
-1.57508e-09
-5.91616e-10
-2.305e-10
-7.13451e-11
-6.5857e-12
0
0
-2.19523e-12
0
5.48809e-12
-1.09762e-12
-3.29285e-12
1.09762e-12
1.09762e-12
8.78094e-12
-1.09762e-12
-1.20738e-11
1.09762e-12
2.19523e-12
-1.09762e-12
-4.39047e-12
1.09762e-12
4.39047e-12
0
-8.78094e-12
8.78094e-12
-5846.86
-4522.33
-3239.19
-2308.07
-1675.82
-1243.12
-936.688
-711.354
-540.607
-408.785
-306.228
-226.544
-165.125
-118.388
-83.3913
-57.6609
-39.1142
-26.0197
-16.9696
-10.8485
-6.79773
-4.17492
-2.51325
-1.48306
-0.857942
-0.486618
-0.270653
-0.147638
-0.0789985
-0.0414718
-0.0213639
-0.0108015
-0.00536108
-0.00261257
-0.00125031
-0.00058775
-0.000271443
-0.000123186
-5.49457e-05
-2.40923e-05
-1.03868e-05
-4.40388e-06
-1.83665e-06
-7.53565e-07
-3.04224e-07
-1.20877e-07
-4.72711e-08
-1.8193e-08
-6.90731e-09
-2.60684e-09
-9.7688e-10
-3.4575e-10
-9.87856e-11
-3.51238e-11
-1.53666e-11
-2.19523e-12
6.58571e-12
9.87856e-12
0
5.48809e-12
0
0
1.09762e-12
5.48809e-12
-1.09762e-12
-5.48809e-12
0
0
0
-1.09762e-11
0
1.20738e-11
1.09762e-12
-1.09762e-12
-1.09762e-12
-4570.39
-3967.1
-3201.41
-2510.03
-1953.01
-1519.29
-1182
-917.177
-707.309
-540.303
-407.684
-303.186
-221.853
-159.531
-112.63
-78.0187
-53.0003
-35.2985
-23.0432
-14.7431
-9.24439
-5.68083
-3.42147
-2.01985
-1.1689
-0.663209
-0.368977
-0.201324
-0.107749
-0.0565766
-0.0291504
-0.0147408
-0.00731737
-0.0035664
-0.00170701
-0.000802532
-0.000370677
-0.000168238
-7.50476e-05
-3.29095e-05
-1.41894e-05
-6.01656e-06
-2.50938e-06
-1.02966e-06
-4.15726e-07
-1.65195e-07
-6.46178e-08
-2.48852e-08
-9.45927e-09
-3.53652e-09
-1.30068e-09
-4.64292e-10
-1.37202e-10
-5.1588e-11
-2.41476e-11
0
3.29285e-12
1.09762e-12
-2.19523e-12
0
-1.09762e-12
0
-1.20738e-11
-1.09762e-12
1.4269e-11
1.09762e-12
0
0
-2.19524e-12
0
8.78094e-12
1.09762e-12
-9.87856e-12
0
0
-3870.58
-3549.54
-3068.14
-2561.22
-2095.99
-1693.82
-1354.96
-1072.67
-839.27
-647.878
-492.651
-368.502
-270.837
-195.419
-138.336
-96.0293
-65.3477
-43.5832
-28.4847
-18.2424
-11.4479
-7.03989
-4.24257
-2.50589
-1.45084
-0.823505
-0.45832
-0.250151
-0.133919
-0.0703358
-0.036248
-0.0183337
-0.00910262
-0.00443729
-0.00212419
-0.000998809
-0.000461397
-0.00020944
-9.34378e-05
-4.09784e-05
-1.76702e-05
-7.49327e-06
-3.12554e-06
-1.2826e-06
-5.17922e-07
-2.05812e-07
-8.05015e-08
-3.10165e-08
-1.17829e-08
-4.40474e-09
-1.61569e-09
-5.87225e-10
-2.00864e-10
-5.1588e-11
-1.09762e-12
0
-5.48809e-12
0
1.20738e-11
0
-8.78094e-12
0
2.19523e-12
1.09762e-12
5.48809e-12
-2.19523e-12
-4.39047e-12
1.09762e-12
2.19523e-12
-5.48809e-12
-2.19523e-12
4.39047e-12
0
-5.48809e-12
5.48809e-12
-3458.63
-3261.49
-2933.95
-2550.24
-2162.32
-1798.54
-1471.45
-1185.07
-939.346
-732.311
-561.053
-422.099
-311.627
-225.649
-160.188
-111.453
-75.9847
-50.7555
-33.2149
-21.2947
-13.3757
-8.23184
-4.96427
-2.9339
-1.69953
-0.965098
-0.537339
-0.293385
-0.157116
-0.0825427
-0.04255
-0.0215264
-0.0106901
-0.00521217
-0.00249559
-0.00117364
-0.000542247
-0.000246175
-0.000109842
-4.81787e-05
-2.07776e-05
-8.81195e-06
-3.67598e-06
-1.50865e-06
-6.09249e-07
-2.42146e-07
-9.47222e-08
-3.6465e-08
-1.38366e-08
-5.17088e-09
-1.90327e-09
-7.03573e-10
-2.52452e-10
-6.58571e-11
2.19524e-12
0
-5.48809e-12
-6.58571e-12
6.5857e-12
4.39047e-12
-1.09762e-12
0
4.39047e-12
0
-5.48809e-12
1.09762e-12
0
0
0
-1.09762e-11
-2.19523e-12
4.39047e-12
1.09762e-12
4.39047e-12
3.29285e-12
-3204.72
-3067.47
-2824.8
-2519.36
-2188.52
-1858.9
-1547.36
-1263.62
-1012.66
-796.312
-614.246
-464.607
-344.481
-250.298
-178.182
-124.255
-84.873
-56.7817
-37.2077
-23.8814
-15.0148
-9.24824
-5.58121
-3.30058
-1.91299
-1.08684
-0.605384
-0.330665
-0.177141
-0.0930925
-0.0480019
-0.0242908
-0.0120657
-0.00588417
-0.00281791
-0.00132547
-0.000612497
-0.000278112
-0.00012411
-5.44447e-05
-2.34829e-05
-9.96054e-06
-4.15562e-06
-1.70566e-06
-6.88863e-07
-2.73811e-07
-1.07143e-07
-4.12759e-08
-1.56443e-08
-5.83823e-09
-2.14365e-09
-7.71625e-10
-2.89771e-10
-8.34189e-11
3.29285e-12
0
-2.19524e-12
0
2.19523e-12
2.19524e-12
0
1.09762e-12
-1.09762e-12
-1.09762e-12
1.09762e-12
-1.09762e-12
0
0
0
0
0
-4.39047e-12
-1.09762e-12
0
5.48809e-12
-3043.77
-2937.73
-2743.13
-2486.59
-2195.34
-1892.5
-1595.64
-1317.11
-1064.88
-843.405
-654.371
-497.301
-370.144
-269.793
-192.559
-134.571
-92.0854
-61.7007
-40.4831
-26.0124
-16.3702
-10.0914
-6.0944
-3.60633
-2.09136
-1.18877
-0.662449
-0.361976
-0.193984
-0.101976
-0.0525981
-0.0266237
-0.0132277
-0.00645229
-0.00309061
-0.00145402
-0.000672019
-0.000305189
-0.000136214
-5.97632e-05
-2.57803e-05
-1.09364e-05
-4.56335e-06
-1.87326e-06
-7.56612e-07
-3.00758e-07
-1.177e-07
-4.53349e-08
-1.71876e-08
-6.40899e-09
-2.33683e-09
-8.57239e-10
-3.227e-10
-8.8907e-11
-1.31714e-11
0
-5.48809e-12
0
8.78094e-12
0
2.19523e-12
0
3.29285e-12
0
0
-1.09762e-12
0
-1.20738e-11
0
1.31714e-11
1.09762e-12
-8.78094e-12
-8.78094e-12
4.39047e-12
1.09762e-11
-2940.13
-2851.27
-2684.61
-2458.48
-2193.82
-1910.57
-1625.77
-1352.77
-1101.2
-877.177
-683.83
-521.756
-389.63
-284.78
-203.726
-142.652
-97.7756
-65.6052
-43.0967
-27.7204
-17.4608
-10.7721
-6.50997
-3.85458
-2.23652
-1.27189
-0.709072
-0.387601
-0.207789
-0.109268
-0.056375
-0.0285429
-0.0141847
-0.00692061
-0.00331561
-0.00156017
-0.000721205
-0.00032758
-0.000146231
-6.41669e-05
-2.76837e-05
-1.17454e-05
-4.90147e-06
-2.01228e-06
-8.1288e-07
-3.23154e-07
-1.26439e-07
-4.87189e-08
-1.84992e-08
-6.88316e-09
-2.51684e-09
-9.06632e-10
-3.33676e-10
-1.10859e-10
-1.09762e-12
2.305e-11
-5.48809e-12
-2.41476e-11
0
1.09762e-12
1.09762e-12
-1.09762e-12
0
0
1.09762e-12
6.58571e-12
-1.09762e-12
-6.5857e-12
1.09762e-12
-1.09762e-12
0
1.09762e-12
0
-1.09762e-12
0
-2872.92
-2793.88
-2643.77
-2436.57
-2189.41
-1919.91
-1644.29
-1376.15
-1125.95
-900.853
-704.936
-539.586
-404.043
-295.997
-212.167
-148.812
-102.145
-68.6221
-45.1269
-29.0534
-18.3153
-11.3073
-6.83777
-4.05094
-2.35162
-1.33794
-0.746196
-0.408041
-0.218818
-0.115102
-0.0594012
-0.0300825
-0.0149532
-0.00729711
-0.00349667
-0.00164566
-0.000760854
-0.000345643
-0.000154317
-6.77245e-05
-2.92224e-05
-1.23997e-05
-5.17512e-06
-2.12485e-06
-8.58441e-07
-3.41312e-07
-1.33578e-07
-5.14541e-08
-1.95387e-08
-7.29257e-09
-2.65953e-09
-9.68099e-10
-3.53433e-10
-1.04274e-10
-1.4269e-11
1.09762e-11
0
-1.75619e-11
0
3.29285e-12
0
9.87856e-12
0
-9.87856e-12
0
1.64643e-11
1.09762e-12
-1.64643e-11
-1.09762e-12
2.19524e-12
5.48809e-12
-2.19524e-12
-5.48809e-12
0
0
-2829.29
-2756
-2615.85
-2420.43
-2184.63
-1924.5
-1655.52
-1391.24
-1142.51
-917.111
-719.723
-552.281
-414.444
-304.184
-218.387
-153.389
-105.414
-70.8931
-46.6634
-30.0669
-18.9677
-11.7175
-7.08975
-4.20231
-2.44059
-1.38911
-0.775014
-0.423939
-0.227411
-0.119654
-0.0617658
-0.0312872
-0.0155553
-0.00759238
-0.00363881
-0.00171285
-0.000792039
-0.000359863
-0.000160687
-7.05293e-05
-3.04364e-05
-1.29163e-05
-5.39128e-06
-2.21384e-06
-8.94495e-07
-3.55697e-07
-1.39228e-07
-5.36439e-08
-2.03487e-08
-7.6032e-09
-2.78575e-09
-9.93344e-10
-3.55628e-10
-1.18543e-10
-2.52452e-11
0
-1.09762e-12
-2.19523e-12
-2.19523e-12
1.09762e-12
1.09762e-12
0
-1.09762e-12
-1.09762e-12
1.09762e-12
1.09762e-12
1.09762e-12
-1.09762e-12
0
0
1.09762e-12
-6.5857e-12
0
5.48809e-12
0
-2801.05
-2731.19
-2597.07
-2408.99
-2180.48
-1926.6
-1662.24
-1400.85
-1153.42
-928.066
-729.868
-561.122
-421.777
-310.017
-222.86
-156.706
-107.8
-72.5602
-47.7972
-30.8182
-19.4533
-12.0239
-7.27862
-4.31611
-2.50764
-1.42777
-0.796833
-0.435998
-0.233941
-0.123119
-0.0635684
-0.0322068
-0.0160155
-0.00781833
-0.00374771
-0.00176437
-0.000815976
-0.000370787
-0.000165585
-7.26877e-05
-3.13712e-05
-1.33144e-05
-5.55799e-06
-2.28251e-06
-9.22343e-07
-3.66815e-07
-1.43589e-07
-5.53199e-08
-2.09689e-08
-7.8326e-09
-2.87137e-09
-1.02078e-09
-3.86361e-10
-1.35007e-10
-1.75619e-11
-2.19523e-12
0
-1.09762e-12
-1.09762e-12
3.29285e-12
1.4269e-11
-2.19523e-12
-1.31714e-11
0
-9.87856e-12
-2.08547e-11
8.78094e-12
2.19523e-11
0
0
0
0
-2.19524e-12
-3.29285e-12
5.48809e-12
-2782.89
-2715.1
-2584.64
-2401.11
-2177.24
-1927.44
-1666.23
-1406.88
-1160.49
-935.314
-736.692
-567.148
-426.833
-314.079
-226.001
-159.053
-109.499
-73.7543
-48.6135
-31.3616
-19.806
-12.2472
-7.41673
-4.39956
-2.55694
-1.45627
-0.812951
-0.444925
-0.238783
-0.125693
-0.0649094
-0.0328919
-0.0163588
-0.0079871
-0.00382913
-0.00180293
-0.000833912
-0.00037898
-0.000169262
-7.43093e-05
-3.20741e-05
-1.3614e-05
-5.68354e-06
-2.33427e-06
-9.43318e-07
-3.75163e-07
-1.46854e-07
-5.65822e-08
-2.14584e-08
-8.00163e-09
-2.93503e-09
-1.07567e-09
-4.10509e-10
-1.35007e-10
-2.74404e-11
-5.48809e-12
0
0
0
2.19524e-12
-2.19524e-12
6.5857e-12
0
-1.86595e-11
-4.39047e-12
9.87856e-12
3.29285e-12
3.29285e-12
1.09762e-12
0
-1.09762e-12
0
0
1.09762e-12
-1.09762e-12
-2771.33
-2704.77
-2576.55
-2395.81
-2174.86
-1927.69
-1668.56
-1410.63
-1164.99
-940.027
-741.195
-571.174
-430.246
-316.846
-228.157
-160.675
-110.68
-74.5896
-49.1873
-31.7453
-20.056
-12.4061
-7.51529
-4.45929
-2.59233
-1.47677
-0.824573
-0.451374
-0.242288
-0.127559
-0.0658833
-0.0333901
-0.0166088
-0.00811016
-0.00388858
-0.00183112
-0.000847035
-0.000384981
-0.000171958
-7.5499e-05
-3.25903e-05
-1.38341e-05
-5.77589e-06
-2.37235e-06
-9.58763e-07
-3.8132e-07
-1.49253e-07
-5.74976e-08
-2.17987e-08
-8.12676e-09
-2.98881e-09
-1.1042e-09
-4.21485e-10
-1.50374e-10
-3.7319e-11
-3.29285e-12
-8.78094e-12
-8.78094e-12
4.39047e-12
8.78094e-12
4.39047e-12
0
-1.20738e-11
-1.09762e-12
1.31714e-11
2.19523e-12
-2.19523e-12
-1.09762e-12
1.09762e-12
-1.09762e-12
-4.39047e-12
-7.68332e-12
3.29285e-12
1.31714e-11
-3.29285e-12
-2764.04
-2698.22
-2571.35
-2392.33
-2173.19
-1927.69
-1669.91
-1412.93
-1167.83
-943.041
-744.112
-573.81
-432.502
-318.69
-229.605
-161.772
-111.484
-75.1605
-49.5813
-32.0099
-20.2291
-12.5165
-7.58399
-4.50104
-2.61712
-1.49117
-0.832755
-0.455924
-0.244765
-0.128881
-0.066574
-0.033744
-0.0167866
-0.0081978
-0.00393096
-0.00185124
-0.000856413
-0.000389273
-0.000173888
-7.63516e-05
-3.29605e-05
-1.39921e-05
-5.84221e-06
-2.39975e-06
-9.69905e-07
-3.85753e-07
-1.50988e-07
-5.81902e-08
-2.20654e-08
-8.20908e-09
-3.01625e-09
-1.11628e-09
-4.07216e-10
-1.49276e-10
-5.37833e-11
4.39047e-12
0
-5.48809e-12
1.09762e-12
0
-2.19524e-12
0
1.09762e-12
0
4.39047e-12
0
-4.39047e-12
-1.09762e-12
0
-4.39047e-12
4.39047e-12
5.48809e-12
-4.39047e-12
1.09762e-12
-1.09762e-12
-2759.49
-2694.13
-2568.07
-2390.1
-2172.07
-1927.61
-1670.68
-1414.32
-1169.58
-944.935
-745.968
-575.504
-433.964
-319.894
-230.557
-162.497
-112.018
-75.5419
-49.8458
-32.1882
-20.3461
-12.5914
-7.63076
-4.52955
-2.6341
-1.50105
-0.838381
-0.459059
-0.246476
-0.129795
-0.0670524
-0.0339895
-0.0169101
-0.00825877
-0.00396049
-0.00186527
-0.000862959
-0.000392272
-0.000175238
-7.69485e-05
-3.32199e-05
-1.4103e-05
-5.88879e-06
-2.41897e-06
-9.77724e-07
-3.88871e-07
-1.52234e-07
-5.86819e-08
-2.22454e-08
-8.30348e-09
-3.06894e-09
-1.13603e-09
-3.99533e-10
-1.37202e-10
-3.29285e-11
1.4269e-11
-1.09762e-12
0
5.48809e-12
1.09762e-12
-8.78094e-12
-1.09762e-12
5.48809e-12
8.78094e-12
0
-8.78094e-12
0
-4.39047e-12
0
-6.58571e-12
-1.09762e-12
9.87856e-12
9.87856e-12
1.09762e-12
-8.78094e-12
-2756.7
-2691.6
-2566.03
-2388.68
-2171.33
-1927.51
-1671.12
-1415.15
-1170.65
-946.106
-747.127
-576.572
-434.893
-320.664
-231.17
-162.967
-112.366
-75.7913
-50.0194
-32.3057
-20.4235
-12.6411
-7.66188
-4.54857
-2.64546
-1.50768
-0.842162
-0.46117
-0.24763
-0.130412
-0.0673763
-0.034156
-0.016994
-0.00830021
-0.00398058
-0.00187483
-0.000867425
-0.000394321
-0.00017616
-7.7357e-05
-3.33976e-05
-1.41789e-05
-5.92071e-06
-2.43217e-06
-9.83085e-07
-3.9105e-07
-1.53083e-07
-5.90068e-08
-2.23958e-08
-8.36385e-09
-3.0865e-09
-1.13603e-09
-4.08314e-10
-1.18543e-10
-3.07333e-11
-3.29285e-12
6.5857e-12
8.78094e-12
-1.09762e-12
-8.78094e-12
0
0
-2.19523e-12
4.39047e-12
2.19523e-12
-5.48809e-12
-2.19523e-12
0
2.19523e-12
-6.5857e-12
-4.39047e-12
6.5857e-12
4.39047e-12
8.78094e-12
-7.68332e-12
-2755.01
-2690.07
-2564.78
-2387.81
-2170.86
-1927.43
-1671.36
-1415.64
-1171.3
-946.818
-747.838
-577.232
-435.472
-321.147
-231.556
-163.264
-112.587
-75.9507
-50.1309
-32.3814
-20.4736
-12.6734
-7.68213
-4.56098
-2.65288
-1.51202
-0.844646
-0.46256
-0.24839
-0.13082
-0.0675905
-0.0342663
-0.0170496
-0.00832775
-0.00399395
-0.0018812
-0.000870404
-0.000395688
-0.000176777
-7.76303e-05
-3.35165e-05
-1.42298e-05
-5.94212e-06
-2.44105e-06
-9.86689e-07
-3.92485e-07
-1.53672e-07
-5.92307e-08
-2.2488e-08
-8.40665e-09
-3.07443e-09
-1.10311e-09
-4.05021e-10
-1.50374e-10
-4.60999e-11
-1.09762e-12
-1.09762e-12
0
-1.09762e-12
0
0
1.09762e-12
-1.09762e-12
0
0
0
-1.09762e-12
0
1.09762e-12
-1.4269e-11
4.39047e-12
9.87856e-12
-3.29285e-12
4.39047e-12
-1.09762e-12
-2754.01
-2689.15
-2564.03
-2387.27
-2170.57
-1927.36
-1671.5
-1415.92
-1171.68
-947.244
-748.267
-577.633
-435.825
-321.444
-231.794
-163.449
-112.725
-76.0506
-50.2009
-32.4292
-20.5053
-12.6938
-7.69501
-4.5689
-2.65763
-1.5148
-0.846242
-0.463454
-0.248881
-0.131084
-0.0677292
-0.0343377
-0.0170857
-0.00834565
-0.00400265
-0.00188535
-0.000872346
-0.000396581
-0.00017718
-7.7809e-05
-3.35944e-05
-1.42632e-05
-5.9562e-06
-2.44689e-06
-9.89069e-07
-3.93445e-07
-1.54055e-07
-5.93635e-08
-2.25352e-08
-8.4319e-09
-3.07882e-09
-1.10201e-09
-4.12704e-10
-1.54764e-10
-4.06118e-11
1.09762e-12
-1.09762e-12
0
1.09762e-12
0
-3.29285e-12
0
3.29285e-12
0
1.09762e-12
8.78094e-12
0
-9.87856e-12
0
0
9.87856e-12
3.29285e-12
-1.4269e-11
-2.19523e-12
3.29285e-12
-2753.41
-2688.61
-2563.58
-2386.96
-2170.39
-1927.32
-1671.57
-1416.08
-1171.9
-947.494
-748.522
-577.873
-436.037
-321.623
-231.939
-163.561
-112.809
-76.1118
-50.2441
-32.4587
-20.5249
-12.7065
-7.70304
-4.57384
-2.6606
-1.51655
-0.847244
-0.464017
-0.249191
-0.13125
-0.0678169
-0.034383
-0.0171086
-0.00835702
-0.00400818
-0.00188799
-0.000873584
-0.000397151
-0.000177438
-7.79233e-05
-3.36443e-05
-1.42846e-05
-5.96523e-06
-2.45059e-06
-9.90577e-07
-3.94067e-07
-1.54311e-07
-5.94755e-08
-2.25934e-08
-8.44287e-09
-3.06894e-09
-1.09432e-09
-3.92947e-10
-1.51471e-10
-5.59785e-11
-1.86595e-11
1.09762e-12
-1.09762e-12
2.19523e-12
-2.19523e-12
-1.09762e-11
3.29285e-12
7.68332e-12
-8.78094e-12
-1.09762e-11
9.87856e-12
9.87856e-12
5.48809e-12
-1.09762e-12
-4.39047e-12
0
-1.09762e-12
0
0
1.09762e-12
-2753.07
-2688.3
-2563.33
-2386.77
-2170.28
-1927.29
-1671.61
-1416.17
-1172.02
-947.639
-748.67
-578.013
-436.162
-321.729
-232.025
-163.628
-112.86
-76.1486
-50.27
-32.4765
-20.5368
-12.7143
-7.70793
-4.57686
-2.66242
-1.51762
-0.847861
-0.464364
-0.249381
-0.131353
-0.0678712
-0.0344111
-0.0171229
-0.00836409
-0.00401163
-0.00188964
-0.000874357
-0.000397507
-0.000177599
-7.79949e-05
-3.36755e-05
-1.4298e-05
-5.97089e-06
-2.45297e-06
-9.9156e-07
-3.94441e-07
-1.54437e-07
-5.95457e-08
-2.26208e-08
-8.42751e-09
-3.06894e-09
-1.11189e-09
-4.21485e-10
-1.53666e-10
-3.40261e-11
8.78094e-12
-4.39047e-12
-1.75619e-11
1.09762e-12
0
-1.09762e-11
-1.09762e-12
1.31714e-11
0
-2.19523e-12
0
1.09762e-12
-1.09762e-12
0
-2.19524e-12
-2.19523e-12
6.58571e-12
-3.29285e-12
-7.68332e-12
8.78094e-12
-2752.87
-2688.12
-2563.18
-2386.66
-2170.22
-1927.27
-1671.63
-1416.22
-1172.09
-947.721
-748.754
-578.093
-436.234
-321.79
-232.075
-163.667
-112.89
-76.1702
-50.2854
-32.4871
-20.5439
-12.7189
-7.71085
-4.57867
-2.66352
-1.51827
-0.848232
-0.464573
-0.249497
-0.131415
-0.0679041
-0.0344281
-0.0171315
-0.00836839
-0.00401372
-0.00189064
-0.000874829
-0.000397724
-0.000177697
-7.80387e-05
-3.36947e-05
-1.43062e-05
-5.97436e-06
-2.45443e-06
-9.92153e-07
-3.94686e-07
-1.54562e-07
-5.95622e-08
-2.25988e-08
-8.44178e-09
-3.07991e-09
-1.12616e-09
-4.28071e-10
-1.49276e-10
-3.62214e-11
6.5857e-12
0
-9.87856e-12
0
0
0
0
-1.64643e-11
0
1.64643e-11
0
1.09762e-12
0
0
-1.31714e-11
0
1.20738e-11
-3.29285e-12
1.09762e-12
2.19524e-12
-2752.77
-2688.02
-2563.1
-2386.6
-2170.18
-1927.26
-1671.64
-1416.25
-1172.13
-947.767
-748.802
-578.139
-436.275
-321.825
-232.103
-163.69
-112.907
-76.1827
-50.2943
-32.4932
-20.548
-12.7215
-7.71256
-4.57973
-2.66416
-1.51864
-0.848451
-0.464697
-0.249565
-0.131452
-0.0679236
-0.0344382
-0.0171367
-0.00837095
-0.00401498
-0.00189124
-0.000875111
-0.000397855
-0.000177756
-7.8065e-05
-3.37062e-05
-1.43112e-05
-5.97644e-06
-2.45529e-06
-9.92511e-07
-3.94827e-07
-1.54605e-07
-5.95918e-08
-2.26087e-08
-8.44397e-09
-3.08321e-09
-1.11957e-09
-4.25876e-10
-1.51471e-10
-3.7319e-11
-6.5857e-12
-7.68332e-12
-1.09762e-12
7.68332e-12
1.09762e-12
0
0
0
-1.09762e-12
-4.39047e-12
1.20738e-11
4.39047e-12
-1.09762e-11
-2.19523e-12
-1.09762e-12
2.19523e-12
0
0
-1.09762e-11
1.20738e-11
-2752.71
-2687.96
-2563.05
-2386.57
-2170.16
-1927.25
-1671.64
-1416.27
-1172.16
-947.792
-748.828
-578.164
-436.298
-321.844
-232.119
-163.702
-112.916
-76.1898
-50.2993
-32.4967
-20.5503
-12.7231
-7.71353
-4.58033
-2.66452
-1.51886
-0.848577
-0.464768
-0.249604
-0.131474
-0.0679349
-0.0344441
-0.0171397
-0.00837244
-0.00401571
-0.00189159
-0.000875276
-0.000397931
-0.000177791
-7.80804e-05
-3.3713e-05
-1.43141e-05
-5.97768e-06
-2.4558e-06
-9.927e-07
-3.94894e-07
-1.54647e-07
-5.96116e-08
-2.26087e-08
-8.45605e-09
-3.10736e-09
-1.11737e-09
-4.15997e-10
-1.58057e-10
-3.18309e-11
2.19523e-12
7.68332e-12
1.09762e-12
-1.20738e-11
0
-1.09762e-12
-1.09762e-12
-2.19524e-12
0
1.75619e-11
0
-1.4269e-11
0
1.09762e-12
-5.48809e-12
-2.19523e-12
6.58571e-12
-1.09762e-12
-1.09762e-12
2.19524e-12
-2752.67
-2687.93
-2563.02
-2386.55
-2170.15
-1927.25
-1671.65
-1416.27
-1172.17
-947.806
-748.842
-578.178
-436.31
-321.855
-232.128
-163.709
-112.922
-76.1937
-50.3021
-32.4986
-20.5516
-12.7239
-7.71408
-4.58067
-2.66473
-1.51899
-0.848648
-0.464808
-0.249627
-0.131486
-0.0679414
-0.0344475
-0.0171414
-0.00837329
-0.00401612
-0.00189179
-0.00087537
-0.000397975
-0.000177811
-7.80893e-05
-3.37169e-05
-1.43158e-05
-5.97839e-06
-2.45607e-06
-9.92809e-07
-3.94954e-07
-1.54664e-07
-5.96259e-08
-2.26175e-08
-8.46263e-09
-3.12492e-09
-1.12835e-09
-4.09411e-10
-1.48178e-10
-2.19524e-11
1.53666e-11
-2.19524e-12
-3.29285e-12
-5.48809e-12
2.19524e-12
1.09762e-12
-3.29285e-12
4.39047e-12
4.39047e-12
-4.39047e-12
-2.19524e-12
0
0
0
0
0
0
1.09762e-12
1.09762e-12
-2.19524e-12
-2752.66
-2687.92
-2563.01
-2386.54
-2170.15
-1927.25
-1671.65
-1416.28
-1172.17
-947.813
-748.85
-578.185
-436.317
-321.861
-232.133
-163.713
-112.924
-76.1959
-50.3036
-32.4997
-20.5524
-12.7244
-7.71438
-4.58086
-2.66485
-1.51905
-0.848688
-0.464831
-0.249639
-0.131492
-0.067945
-0.0344493
-0.0171423
-0.00837377
-0.00401636
-0.00189191
-0.000875424
-0.000397999
-0.000177822
-7.80943e-05
-3.37191e-05
-1.43167e-05
-5.97881e-06
-2.45625e-06
-9.92871e-07
-3.94981e-07
-1.54686e-07
-5.96072e-08
-2.26186e-08
-8.47251e-09
-3.12382e-09
-1.13823e-09
-4.09411e-10
-1.37202e-10
-3.29285e-11
-3.29285e-12
8.78094e-12
-2.19523e-12
-5.48809e-12
1.09762e-12
-2.19523e-12
0
2.19523e-12
-2.19523e-12
-2.19523e-12
4.39047e-12
1.09762e-12
-3.29285e-12
0
0
2.19523e-12
0
-2.19523e-12
-5.48809e-12
5.48809e-12
-2752.65
-2687.91
-2563
-2386.53
-2170.14
-1927.25
-1671.65
-1416.28
-1172.18
-947.817
-748.854
-578.189
-436.32
-321.864
-232.136
-163.715
-112.926
-76.197
-50.3045
-32.5003
-20.5527
-12.7247
-7.71455
-4.58097
-2.66491
-1.51909
-0.848709
-0.464843
-0.249646
-0.131496
-0.0679469
-0.0344504
-0.0171428
-0.00837403
-0.00401649
-0.00189197
-0.000875453
-0.000398013
-0.000177828
-7.8097e-05
-3.37202e-05
-1.43172e-05
-5.97902e-06
-2.45635e-06
-9.92922e-07
-3.95e-07
-1.54666e-07
-5.96215e-08
-2.26493e-08
-8.48019e-09
-3.12272e-09
-1.12506e-09
-4.06118e-10
-1.43788e-10
-3.40261e-11
-3.29285e-12
0
-1.09762e-12
0
0
-2.19524e-12
0
-4.39047e-12
-1.09762e-12
5.48809e-12
1.09762e-12
0
2.19523e-12
-1.09762e-12
-6.58571e-12
0
2.19524e-12
-1.4269e-11
4.39047e-12
1.31714e-11
-2752.64
-2687.9
-2563
-2386.53
-2170.14
-1927.25
-1671.65
-1416.28
-1172.18
-947.819
-748.856
-578.191
-436.322
-321.866
-232.137
-163.716
-112.927
-76.1976
-50.3049
-32.5006
-20.5529
-12.7248
-7.71463
-4.58102
-2.66494
-1.51911
-0.848721
-0.46485
-0.24965
-0.131498
-0.067948
-0.0344509
-0.0171431
-0.00837417
-0.00401656
-0.001892
-0.000875469
-0.00039802
-0.000177831
-7.80985e-05
-3.37209e-05
-1.43175e-05
-5.97913e-06
-2.4564e-06
-9.92941e-07
-3.94983e-07
-1.54663e-07
-5.96226e-08
-2.26559e-08
-8.51532e-09
-3.12053e-09
-1.11847e-09
-4.26973e-10
-1.40495e-10
-2.08547e-11
2.19523e-12
0
1.09762e-12
0
-2.19524e-12
0
-5.48809e-12
-1.75619e-11
4.39047e-12
1.86595e-11
0
-1.09762e-12
1.09762e-12
0
0
0
0
0
8.78094e-12
-8.78094e-12
-2752.64
-2687.9
-2563
-2386.53
-2170.14
-1927.25
-1671.65
-1416.28
-1172.18
-947.82
-748.857
-578.192
-436.323
-321.866
-232.138
-163.717
-112.927
-76.1979
-50.3051
-32.5007
-20.5531
-12.7249
-7.71468
-4.58105
-2.66496
-1.51912
-0.848727
-0.464853
-0.249652
-0.131499
-0.0679485
-0.0344512
-0.0171433
-0.00837425
-0.00401659
-0.00189202
-0.000875477
-0.000398024
-0.000177833
-7.80993e-05
-3.37213e-05
-1.43177e-05
-5.97918e-06
-2.45639e-06
-9.92917e-07
-3.94991e-07
-1.5468e-07
-5.96303e-08
-2.26658e-08
-8.51422e-09
-3.11723e-09
-1.12396e-09
-4.15997e-10
-1.383e-10
-3.07333e-11
0
0
0
-1.09762e-12
0
1.09762e-12
-1.09762e-12
0
1.09762e-12
-3.29285e-12
0
3.29285e-12
9.87856e-12
3.29285e-12
-8.78094e-12
-2.41476e-11
-1.09762e-12
1.64643e-11
2.19523e-12
2.19523e-12
-2752.64
-2687.9
-2563
-2386.53
-2170.14
-1927.25
-1671.65
-1416.28
-1172.18
-947.82
-748.858
-578.192
-436.324
-321.867
-232.138
-163.717
-112.927
-76.1981
-50.3052
-32.5008
-20.5531
-12.7249
-7.7147
-4.58106
-2.66497
-1.51913
-0.84873
-0.464855
-0.249653
-0.1315
-0.0679488
-0.0344513
-0.0171433
-0.00837429
-0.00401661
-0.00189203
-0.000875481
-0.000398026
-0.000177834
-7.80997e-05
-3.37214e-05
-1.43177e-05
-5.97921e-06
-2.45641e-06
-9.92938e-07
-3.94978e-07
-1.54684e-07
-5.96292e-08
-2.26351e-08
-8.49995e-09
-3.1326e-09
-1.12177e-09
-4.07216e-10
-1.51471e-10
-3.18309e-11
1.20738e-11
-1.09762e-12
-9.87856e-12
0
-1.09762e-12
1.09762e-12
0
0
0
0
0
9.87856e-12
2.19523e-12
-9.87856e-12
-6.58571e-12
-1.09762e-12
5.48809e-12
0
0
0
-2752.64
-2687.9
-2563
-2386.53
-2170.14
-1927.25
-1671.65
-1416.28
-1172.18
-947.821
-748.858
-578.193
-436.324
-321.867
-232.138
-163.717
-112.928
-76.1981
-50.3053
-32.5009
-20.5531
-12.7249
-7.71471
-4.58107
-2.66497
-1.51913
-0.848731
-0.464856
-0.249653
-0.1315
-0.067949
-0.0344514
-0.0171434
-0.00837431
-0.00401662
-0.00189203
-0.000875483
-0.000398027
-0.000177835
-7.81e-05
-3.37215e-05
-1.43178e-05
-5.97923e-06
-2.45642e-06
-9.92945e-07
-3.94988e-07
-1.54661e-07
-5.9627e-08
-2.26526e-08
-8.48897e-09
-3.13041e-09
-1.13494e-09
-3.99533e-10
-1.24031e-10
-2.19524e-11
8.78094e-12
-1.31714e-11
-9.87856e-12
1.20738e-11
-1.09762e-12
-4.39047e-12
-3.29285e-12
4.39047e-12
3.29285e-12
0
0
1.09762e-12
-1.09762e-12
7.68332e-12
1.09762e-12
-4.39047e-12
0
-2.19524e-12
0
-2.19524e-12
-2752.64
-2687.9
-2563
-2386.53
-2170.14
-1927.25
-1671.65
-1416.28
-1172.18
-947.821
-748.858
-578.193
-436.324
-321.867
-232.138
-163.717
-112.928
-76.1982
-50.3053
-32.5009
-20.5531
-12.7249
-7.71472
-4.58107
-2.66497
-1.51913
-0.848732
-0.464856
-0.249653
-0.1315
-0.067949
-0.0344515
-0.0171434
-0.00837432
-0.00401663
-0.00189204
-0.000875485
-0.000398028
-0.000177835
-7.81001e-05
-3.37216e-05
-1.43178e-05
-5.97923e-06
-2.45643e-06
-9.92959e-07
-3.95004e-07
-1.54673e-07
-5.96105e-08
-2.26406e-08
-8.48897e-09
-3.1337e-09
-1.12835e-09
-3.84166e-10
-1.13055e-10
-2.96357e-11
-4.39047e-12
-1.75619e-11
-9.87856e-12
5.48809e-12
5.48809e-12
1.20738e-11
4.39047e-12
-2.19523e-12
0
-7.68332e-12
0
1.4269e-11
0
-4.39047e-12
-7.68332e-12
-1.09762e-12
-1.09762e-12
0
1.64643e-11
-6.5857e-12
-2752.64
-2687.9
-2563
-2386.53
-2170.14
-1927.25
-1671.65
-1416.28
-1172.18
-947.821
-748.858
-578.193
-436.324
-321.867
-232.138
-163.717
-112.928
-76.1982
-50.3053
-32.5009
-20.5532
-12.7249
-7.71472
-4.58107
-2.66498
-1.51913
-0.848732
-0.464856
-0.249653
-0.1315
-0.0679491
-0.0344515
-0.0171434
-0.00837432
-0.00401663
-0.00189204
-0.000875485
-0.000398028
-0.000177835
-7.81001e-05
-3.37216e-05
-1.43178e-05
-5.97923e-06
-2.45644e-06
-9.92963e-07
-3.94991e-07
-1.54671e-07
-5.96226e-08
-2.26603e-08
-8.50324e-09
-3.10077e-09
-1.11079e-09
-3.95142e-10
-1.30616e-10
-2.85381e-11
3.29285e-12
-1.09762e-11
-9.87856e-12
1.09762e-12
-5.48809e-12
1.09762e-12
1.31714e-11
-5.48809e-12
-1.09762e-12
6.5857e-12
0
1.09762e-12
0
-1.09762e-12
-1.31714e-11
0
6.58571e-12
-4.39047e-12
6.5857e-12
4.39047e-12
-2752.64
-2687.9
-2563
-2386.53
-2170.14
-1927.25
-1671.65
-1416.28
-1172.18
-947.821
-748.858
-578.193
-436.324
-321.867
-232.138
-163.717
-112.928
-76.1982
-50.3053
-32.5009
-20.5532
-12.7249
-7.71472
-4.58107
-2.66498
-1.51913
-0.848733
-0.464856
-0.249654
-0.1315
-0.0679491
-0.0344515
-0.0171434
-0.00837432
-0.00401663
-0.00189204
-0.000875485
-0.000398028
-0.000177835
-7.81001e-05
-3.37216e-05
-1.43178e-05
-5.97924e-06
-2.45643e-06
-9.92956e-07
-3.94992e-07
-1.5468e-07
-5.96467e-08
-2.26384e-08
-8.4758e-09
-3.11065e-09
-1.12616e-09
-4.20388e-10
-1.28421e-10
-7.68332e-12
1.09762e-12
-1.75619e-11
8.78094e-12
1.31714e-11
-8.78094e-12
2.19524e-12
0
-2.19524e-12
-1.09762e-12
1.09762e-12
-3.29285e-12
4.39047e-12
4.39047e-12
1.09762e-12
-2.19524e-12
-5.48809e-12
1.09762e-12
1.09762e-12
-1.09762e-12
0
-2752.64
-2687.9
-2563
-2386.53
-2170.14
-1927.25
-1671.65
-1416.28
-1172.18
-947.821
-748.858
-578.193
-436.324
-321.867
-232.138
-163.717
-112.928
-76.1982
-50.3053
-32.5009
-20.5532
-12.7249
-7.71472
-4.58108
-2.66498
-1.51913
-0.848733
-0.464856
-0.249654
-0.1315
-0.0679491
-0.0344515
-0.0171434
-0.00837432
-0.00401663
-0.00189204
-0.000875485
-0.000398028
-0.000177835
-7.81001e-05
-3.37216e-05
-1.43178e-05
-5.97925e-06
-2.45644e-06
-9.92945e-07
-3.95002e-07
-1.54683e-07
-5.96544e-08
-2.26614e-08
-8.46592e-09
-3.09748e-09
-1.11518e-09
-4.05021e-10
-1.43788e-10
-5.04904e-11
-2.19523e-12
9.87856e-12
0
3.29285e-12
-1.09762e-12
-2.19523e-12
-1.09762e-12
-5.48809e-12
-2.19523e-12
7.68332e-12
4.39047e-12
1.31714e-11
0
-1.31714e-11
8.78094e-12
1.31714e-11
-1.09762e-11
-1.09762e-11
-1.09762e-12
1.09762e-12
-2752.64
-2687.9
-2563
-2386.53
-2170.14
-1927.25
-1671.65
-1416.28
-1172.18
-947.821
-748.858
-578.193
-436.324
-321.867
-232.138
-163.717
-112.928
-76.1982
-50.3053
-32.5009
-20.5532
-12.7249
-7.71472
-4.58108
-2.66498
-1.51913
-0.848733
-0.464856
-0.249654
-0.1315
-0.0679491
-0.0344515
-0.0171434
-0.00837433
-0.00401663
-0.00189204
-0.000875486
-0.000398028
-0.000177835
-7.81001e-05
-3.37216e-05
-1.43178e-05
-5.9792e-06
-2.45643e-06
-9.92964e-07
-3.95007e-07
-1.54683e-07
-5.96577e-08
-2.26702e-08
-8.46922e-09
-3.09199e-09
-1.10311e-09
-4.03923e-10
-1.66838e-10
-4.71976e-11
0
-8.78094e-12
-5.48809e-12
0
0
0
0
0
-3.29285e-12
0
4.39047e-12
0
-1.09762e-12
-8.78094e-12
-6.58571e-12
1.53666e-11
5.48809e-12
-8.78094e-12
0
3.29285e-12
-2752.64
-2687.9
-2563
-2386.53
-2170.14
-1927.25
-1671.65
-1416.28
-1172.18
-947.821
-748.858
-578.193
-436.324
-321.867
-232.138
-163.717
-112.928
-76.1982
-50.3053
-32.5009
-20.5532
-12.7249
-7.71472
-4.58108
-2.66498
-1.51913
-0.848733
-0.464856
-0.249654
-0.1315
-0.0679491
-0.0344515
-0.0171434
-0.00837433
-0.00401663
-0.00189204
-0.000875486
-0.000398028
-0.000177835
-7.81001e-05
-3.37216e-05
-1.43178e-05
-5.9792e-06
-2.45641e-06
-9.92956e-07
-3.95028e-07
-1.54714e-07
-5.9639e-08
-2.26537e-08
-8.46592e-09
-3.07113e-09
-1.10859e-09
-4.26973e-10
-1.87693e-10
-6.0369e-11
1.4269e-11
0
-1.31714e-11
0
-1.09762e-12
-3.29285e-12
-1.09762e-12
4.39047e-12
0
0
0
0
1.09762e-12
-1.09762e-12
-7.68332e-12
1.09762e-12
7.68332e-12
-8.78094e-12
0
7.68332e-12
-2752.64
-2687.9
-2563
-2386.53
-2170.14
-1927.25
-1671.65
-1416.28
-1172.18
-947.821
-748.858
-578.193
-436.324
-321.867
-232.138
-163.717
-112.928
-76.1982
-50.3053
-32.5009
-20.5532
-12.7249
-7.71472
-4.58108
-2.66498
-1.51913
-0.848733
-0.464856
-0.249654
-0.1315
-0.0679491
-0.0344515
-0.0171434
-0.00837433
-0.00401663
-0.00189204
-0.000875486
-0.000398028
-0.000177835
-7.81001e-05
-3.37216e-05
-1.43178e-05
-5.97921e-06
-2.45638e-06
-9.92946e-07
-3.9504e-07
-1.54706e-07
-5.96401e-08
-2.26504e-08
-8.47251e-09
-3.08979e-09
-1.11408e-09
-4.24778e-10
-1.75619e-10
-7.13451e-11
0
4.39047e-12
0
5.48809e-12
0
-2.19523e-12
5.48809e-12
2.19523e-12
-4.39047e-12
0
-1.09762e-12
0
7.68332e-12
7.68332e-12