/*--------------------------------*- C++ -*----------------------------------*\
  =========                 |
  \\      /  F ield         | OpenFOAM: The Open Source CFD Toolbox
   \\    /   O peration     | Website:  https://openfoam.org
    \\  /    A nd           | Version:  10
     \\/     M anipulation  |
\*---------------------------------------------------------------------------*/
FoamFile
{
    format      ascii;
    class       volScalarField;
    location    "435";
    object      T;
}
// * * * * * * * * * * * * * * * * * * * * * * * * * * * * * * * * * * * * * //

dimensions      [0 0 0 1 0 0 0];

internalField   nonuniform List<scalar> 
11250
(
249.878
167.663
139.535
127.185
120.474
116.235
113.282
111.086
109.379
108.009
106.881
105.937
105.135
104.448
103.854
103.339
102.89
102.498
102.155
101.856
101.594
101.365
101.166
100.992
100.842
100.712
100.6
100.504
100.422
100.351
100.292
100.241
100.199
100.163
100.133
100.108
100.088
100.071
100.057
100.045
100.036
100.029
100.023
100.018
100.014
100.011
100.008
100.006
100.005
100.004
100.003
100.002
100.002
100.001
100.001
100.001
100.001
100
100
100
100
100
100
100
100
100
100
100
100
100
100
100
100
100
100
331.606
248.905
202.832
175.927
158.959
147.431
139.102
132.787
127.82
123.801
120.479
117.687
115.312
113.271
111.506
109.972
108.634
107.465
106.442
105.547
104.765
104.082
103.486
102.969
102.519
102.131
101.796
101.508
101.262
101.052
100.873
100.722
100.594
100.488
100.398
100.324
100.262
100.212
100.17
100.136
100.108
100.086
100.068
100.053
100.042
100.032
100.025
100.019
100.015
100.011
100.009
100.007
100.005
100.004
100.003
100.002
100.002
100.001
100.001
100.001
100
100
100
100
100
100
100
100
100
100
100
100
100
100
100
359.25
293.53
246.978
214.759
192.036
175.467
162.951
153.189
145.365
138.954
133.606
129.083
125.216
121.882
118.991
116.472
114.271
112.345
110.659
109.182
107.889
106.76
105.776
104.919
104.175
103.532
102.977
102.501
102.092
101.744
101.448
101.197
100.986
100.809
100.661
100.537
100.435
100.351
100.282
100.225
100.179
100.142
100.112
100.088
100.069
100.054
100.042
100.032
100.025
100.019
100.014
100.011
100.008
100.006
100.005
100.003
100.003
100.002
100.001
100.001
100.001
100.001
100
100
100
100
100
100
100
100
100
100
100
100
100
371.122
319.004
276.822
244.137
219.012
199.514
184.119
171.733
161.585
153.136
146.007
139.925
134.691
130.157
126.208
122.758
119.736
117.086
114.761
112.723
110.937
109.376
108.013
106.827
105.797
104.905
104.135
103.474
102.907
102.423
102.012
101.664
101.371
101.125
100.919
100.747
100.605
100.488
100.392
100.314
100.25
100.198
100.156
100.123
100.096
100.075
100.058
100.045
100.034
100.026
100.02
100.015
100.011
100.009
100.006
100.005
100.004
100.003
100.002
100.001
100.001
100.001
100.001
100
100
100
100
100
100
100
100
100
100
100
100
377.365
334.568
297.212
266.012
240.438
219.543
202.381
188.152
176.227
166.129
157.498
150.062
143.613
137.991
133.074
128.76
124.97
121.639
118.711
116.139
113.883
111.907
110.181
108.677
107.371
106.239
105.262
104.421
103.701
103.086
102.563
102.12
101.746
101.433
101.171
100.952
100.772
100.622
100.5
100.4
100.318
100.252
100.199
100.156
100.122
100.095
100.074
100.057
100.044
100.033
100.025
100.019
100.015
100.011
100.008
100.006
100.005
100.003
100.002
100.002
100.001
100.001
100.001
100
100
100
100
100
100
100
100
100
100
100
100
381.146
344.724
311.502
282.336
257.277
235.953
217.839
202.409
189.199
177.823
167.97
159.392
151.891
145.31
139.522
134.423
129.928
125.966
122.474
119.401
116.702
114.334
112.264
110.457
108.886
107.525
106.348
105.336
104.468
103.726
103.095
102.561
102.11
101.732
101.415
101.151
100.933
100.753
100.605
100.483
100.385
100.305
100.241
100.189
100.148
100.115
100.089
100.069
100.053
100.041
100.031
100.023
100.018
100.013
100.01
100.007
100.005
100.004
100.003
100.002
100.002
100.001
100.001
100.001
100
100
100
100
100
100
100
100
100
100
100
383.653
351.719
321.802
294.643
270.498
249.29
230.769
214.621
200.526
188.196
177.379
167.864
159.474
152.063
145.508
139.708
134.575
130.035
126.026
122.489
119.375
116.641
114.246
112.155
110.334
108.755
107.389
106.213
105.204
104.341
103.607
102.985
102.46
102.019
101.65
101.343
101.088
100.878
100.706
100.564
100.449
100.356
100.281
100.221
100.173
100.135
100.104
100.081
100.062
100.047
100.036
100.027
100.021
100.015
100.012
100.009
100.006
100.005
100.003
100.003
100.002
100.001
100.001
100.001
100
100
100
100
100
100
100
100
100
100
100
385.418
356.743
329.421
304.044
280.914
260.099
241.511
224.982
210.311
197.292
185.735
175.468
166.341
158.224
151.005
144.587
138.885
133.826
129.345
125.383
121.889
118.815
116.119
113.761
111.706
109.922
108.378
107.047
105.904
104.928
104.096
103.39
102.795
102.294
101.876
101.527
101.237
100.999
100.802
100.642
100.511
100.405
100.32
100.251
100.197
100.153
100.119
100.092
100.07
100.054
100.041
100.031
100.023
100.018
100.013
100.01
100.007
100.005
100.004
100.003
100.002
100.002
100.001
100.001
100.001
100
100
100
100
100
100
100
100
100
100
386.71
360.468
335.182
311.319
289.17
268.862
250.402
233.719
218.695
205.197
193.084
182.226
172.498
163.791
156.004
149.049
142.847
137.325
132.421
128.074
124.233
120.847
117.873
115.269
112.997
111.021
109.311
107.835
106.567
105.483
104.559
103.775
103.113
102.556
102.09
101.701
101.379
101.113
100.895
100.716
100.57
100.452
100.357
100.281
100.22
100.171
100.133
100.102
100.079
100.06
100.046
100.035
100.026
100.02
100.015
100.011
100.008
100.006
100.004
100.003
100.002
100.002
100.001
100.001
100.001
100
100
100
100
100
100
100
100
100
100
387.684
363.298
339.618
317.017
295.754
275.98
257.75
241.055
225.838
212.017
199.497
188.18
177.97
168.775
160.51
153.095
146.456
140.528
135.246
130.555
126.399
122.731
119.503
116.673
114.201
112.049
110.184
108.574
107.19
106.004
104.994
104.137
103.412
102.802
102.292
101.866
101.513
101.222
100.982
100.786
100.626
100.497
100.392
100.308
100.241
100.188
100.146
100.112
100.086
100.066
100.05
100.038
100.029
100.022
100.016
100.012
100.009
100.007
100.005
100.004
100.003
100.002
100.001
100.001
100.001
100
100
100
100
100
100
100
100
100
100
388.433
365.488
343.085
321.526
301.039
281.777
263.822
247.2
231.896
217.868
205.055
193.389
182.796
173.204
164.538
156.732
149.718
143.434
137.821
132.823
128.388
124.464
121.007
117.971
115.316
113.003
110.996
109.262
107.77
106.492
105.401
104.475
103.693
103.034
102.482
102.022
101.639
101.324
101.064
100.852
100.679
100.538
100.425
100.334
100.262
100.204
100.158
100.122
100.094
100.072
100.055
100.041
100.031
100.023
100.018
100.013
100.01
100.007
100.005
100.004
100.003
100.002
100.001
100.001
100.001
100.001
100
100
100
100
100
100
100
100
100
389.019
367.206
345.825
325.124
305.305
286.513
268.841
252.338
237.017
222.865
209.847
197.918
187.025
177.11
168.114
159.979
152.644
146.053
140.151
134.883
130.198
126.048
122.384
119.163
116.342
113.882
111.746
109.898
108.307
106.944
105.779
104.79
103.954
103.249
102.659
102.166
101.757
101.419
101.141
100.913
100.728
100.578
100.456
100.359
100.281
100.219
100.17
100.131
100.101
100.077
100.059
100.045
100.034
100.025
100.019
100.014
100.01
100.008
100.006
100.004
100.003
100.002
100.002
100.001
100.001
100.001
100
100
100
100
100
100
100
100
100
389.483
368.57
348.011
328.017
308.765
290.39
272.991
256.629
241.336
227.116
213.958
201.834
190.707
180.534
171.267
162.857
155.25
148.396
142.243
136.739
131.835
127.483
123.636
120.249
117.28
114.687
112.434
110.483
108.802
107.36
106.128
105.081
104.195
103.449
102.823
102.3
101.866
101.508
101.213
100.971
100.774
100.614
100.485
100.381
100.299
100.233
100.181
100.139
100.107
100.082
100.062
100.047
100.036
100.027
100.02
100.015
100.011
100.008
100.006
100.004
100.003
100.002
100.002
100.001
100.001
100.001
100
100
100
100
100
100
100
100
100
389.853
369.661
349.768
330.356
311.581
293.572
276.425
260.21
244.969
230.722
217.471
205.204
193.897
183.518
174.03
165.392
157.556
150.478
144.109
138.401
133.306
128.777
124.767
121.233
118.13
115.419
113.06
111.016
109.254
107.741
106.448
105.348
104.417
103.632
102.974
102.424
101.967
101.589
101.279
101.024
100.816
100.648
100.512
100.403
100.315
100.246
100.191
100.147
100.113
100.087
100.066
100.05
100.038
100.028
100.021
100.016
100.012
100.009
100.006
100.005
100.003
100.002
100.002
100.001
100.001
100.001
100
100
100
100
100
100
100
100
100
390.151
370.54
351.189
332.256
313.882
296.188
279.269
263.196
248.021
233.772
220.462
208.091
196.646
186.105
176.438
167.611
159.585
152.317
145.764
139.879
134.618
129.934
125.782
122.117
118.897
116.08
113.627
111.5
109.664
108.087
106.739
105.591
104.619
103.799
103.112
102.537
102.059
101.664
101.339
101.073
100.855
100.679
100.536
100.422
100.33
100.258
100.2
100.154
100.119
100.091
100.069
100.053
100.04
100.03
100.022
100.017
100.012
100.009
100.007
100.005
100.004
100.003
100.002
100.001
100.001
100.001
100
100
100
100
100
100
100
100
100
390.392
371.252
352.342
333.803
315.766
298.342
281.623
265.684
250.579
236.344
223.001
210.556
199.006
188.337
178.526
169.544
161.359
153.931
147.221
141.186
135.782
130.963
126.687
122.908
119.584
116.674
114.137
111.936
110.035
108.401
107.003
105.812
104.803
103.952
103.237
102.64
102.144
101.733
101.394
101.117
100.891
100.707
100.559
100.44
100.344
100.269
100.208
100.161
100.124
100.095
100.072
100.055
100.041
100.031
100.023
100.017
100.013
100.009
100.007
100.005
100.004
100.003
100.002
100.001
100.001
100.001
100
100
100
100
100
100
100
100
100
390.587
371.83
353.28
335.068
317.311
300.116
283.573
267.755
252.72
238.509
225.148
212.652
201.023
190.253
180.326
171.219
162.902
155.341
148.499
142.335
136.807
131.873
127.489
123.61
120.196
117.203
114.592
112.326
110.367
108.682
107.24
106.011
104.969
104.089
103.351
102.733
102.22
101.795
101.445
101.157
100.923
100.733
100.58
100.456
100.357
100.279
100.216
100.167
100.128
100.098
100.075
100.057
100.043
100.032
100.024
100.018
100.013
100.01
100.007
100.005
100.004
100.003
100.002
100.001
100.001
100.001
100.001
100
100
100
100
100
100
100
100
390.746
372.301
354.047
336.102
318.579
301.578
285.187
269.477
254.509
240.326
226.959
214.429
202.74
191.892
181.873
172.662
164.237
156.564
149.611
143.338
137.706
132.673
128.195
124.231
120.737
117.672
114.997
112.673
110.663
108.933
107.451
106.188
105.117
104.212
103.453
102.817
102.288
101.851
101.49
101.194
100.953
100.757
100.598
100.471
100.369
100.288
100.223
100.172
100.133
100.102
100.077
100.059
100.044
100.033
100.025
100.019
100.014
100.01
100.007
100.005
100.004
100.003
100.002
100.001
100.001
100.001
100.001
100
100
100
100
100
100
100
100
390.875
372.686
354.673
336.95
319.621
302.784
286.522
270.907
256.001
241.848
228.483
215.929
204.197
193.288
183.194
173.901
165.386
157.621
150.575
144.211
138.49
133.371
128.814
124.775
121.213
118.086
115.355
112.98
110.925
109.156
107.64
106.347
105.249
104.323
103.544
102.892
102.35
101.901
101.53
101.227
100.979
100.777
100.615
100.484
100.379
100.296
100.23
100.177
100.136
100.104
100.08
100.06
100.046
100.034
100.026
100.019
100.014
100.01
100.008
100.006
100.004
100.003
100.002
100.002
100.001
100.001
100.001
100
100
100
100
100
100
100
100
390.981
373
355.185
337.644
320.477
303.777
287.625
272.094
257.242
243.119
229.761
217.192
205.427
194.471
184.319
174.959
166.371
158.53
151.406
144.965
139.169
133.978
129.353
125.25
121.629
118.449
115.669
113.25
111.156
109.353
107.806
106.487
105.367
104.42
103.624
102.959
102.404
101.945
101.566
101.256
101.002
100.796
100.63
100.496
100.388
100.303
100.235
100.182
100.14
100.107
100.082
100.062
100.047
100.035
100.026
100.02
100.015
100.011
100.008
100.006
100.004
100.003
100.002
100.002
100.001
100.001
100.001
100
100
100
100
100
100
100
100
391.068
373.257
355.604
338.213
321.18
304.594
288.536
273.076
258.274
244.179
230.829
218.252
206.463
195.471
185.272
175.858
167.211
159.307
152.119
145.613
139.754
134.503
129.82
125.663
121.992
118.765
115.943
113.486
111.359
109.525
107.952
106.61
105.47
104.506
103.696
103.018
102.453
101.985
101.599
101.282
101.023
100.813
100.643
100.506
100.397
100.309
100.24
100.186
100.143
100.109
100.083
100.063
100.048
100.036
100.027
100.02
100.015
100.011
100.008
100.006
100.004
100.003
100.002
100.002
100.001
100.001
100.001
100
100
100
100
100
100
100
100
391.138
373.466
355.947
338.68
321.757
305.266
289.287
273.887
259.129
245.06
231.721
219.139
207.333
196.312
186.077
176.62
167.924
159.969
152.728
146.168
140.256
134.954
130.222
126.019
122.305
119.039
116.181
113.692
111.535
109.676
108.08
106.718
105.56
104.582
103.758
103.069
102.495
102.019
101.627
101.305
101.041
100.828
100.655
100.515
100.404
100.315
100.245
100.189
100.146
100.112
100.085
100.065
100.049
100.037
100.027
100.02
100.015
100.011
100.008
100.006
100.004
100.003
100.002
100.002
100.001
100.001
100.001
100
100
100
100
100
100
100
100
391.196
373.638
356.228
339.061
322.23
305.818
289.905
274.557
259.836
245.791
232.461
219.878
208.06
197.018
186.754
177.262
168.527
160.53
153.245
146.641
140.685
135.34
130.567
126.325
122.575
119.275
116.386
113.87
111.688
109.806
108.191
106.811
105.639
104.648
103.813
103.114
102.532
102.05
101.651
101.325
101.058
100.841
100.665
100.524
100.41
100.32
100.249
100.192
100.148
100.113
100.086
100.066
100.05
100.037
100.028
100.021
100.015
100.011
100.008
100.006
100.004
100.003
100.002
100.002
100.001
100.001
100.001
100
100
100
100
100
100
100
100
391.243
373.777
356.456
339.373
322.617
306.271
290.412
275.108
260.419
246.395
233.076
220.492
208.666
197.607
187.321
177.801
169.034
161.003
153.682
147.042
141.049
135.669
130.861
126.587
122.806
119.478
116.563
114.023
111.82
109.919
108.287
106.893
105.707
104.705
103.861
103.154
102.565
102.076
101.673
101.342
101.072
100.852
100.674
100.531
100.416
100.325
100.252
100.195
100.15
100.115
100.088
100.067
100.05
100.038
100.028
100.021
100.016
100.012
100.008
100.006
100.005
100.003
100.002
100.002
100.001
100.001
100.001
100
100
100
100
100
100
100
100
391.281
373.891
356.643
339.628
322.933
306.641
290.828
275.561
260.899
246.893
233.583
221.001
209.169
198.098
187.794
178.251
169.459
161.4
154.05
147.38
141.357
135.947
131.11
126.809
123.003
119.651
116.714
114.154
111.933
110.016
108.369
106.962
105.766
104.754
103.902
103.188
102.593
102.099
101.692
101.357
101.084
100.862
100.682
100.537
100.421
100.329
100.255
100.197
100.152
100.116
100.089
100.067
100.051
100.038
100.029
100.021
100.016
100.012
100.009
100.006
100.005
100.003
100.002
100.002
100.001
100.001
100.001
100
100
100
100
100
100
100
100
391.312
373.984
356.795
339.835
323.191
306.944
291.168
275.932
261.293
247.303
234.001
221.421
209.585
198.505
188.186
178.627
169.814
161.733
154.358
147.663
141.616
136.181
131.321
126.997
123.169
119.797
116.842
114.265
112.029
110.098
108.44
107.022
105.816
104.796
103.937
103.217
102.617
102.119
101.708
101.37
101.094
100.87
100.689
100.542
100.425
100.332
100.258
100.199
100.153
100.118
100.09
100.068
100.051
100.039
100.029
100.022
100.016
100.012
100.009
100.006
100.005
100.003
100.002
100.002
100.001
100.001
100.001
100
100
100
100
100
100
100
100
391.338
374.059
356.918
340.004
323.401
307.19
291.446
276.235
261.615
247.638
234.345
221.767
209.928
198.841
188.512
178.938
170.109
162.009
154.616
147.901
141.833
136.378
131.498
127.155
123.31
119.921
116.95
114.359
112.11
110.168
108.5
107.073
105.859
104.832
103.967
103.242
102.637
102.136
101.722
101.381
101.103
100.877
100.694
100.547
100.429
100.335
100.26
100.201
100.155
100.119
100.09
100.069
100.052
100.039
100.029
100.022
100.016
100.012
100.009
100.006
100.005
100.003
100.002
100.002
100.001
100.001
100.001
100
100
100
100
100
100
100
100
391.358
374.12
357.018
340.141
323.571
307.391
291.672
276.481
261.878
247.913
234.626
222.051
210.21
199.117
188.78
179.195
170.353
162.239
154.829
148.098
142.014
136.542
131.646
127.288
123.427
120.025
117.042
114.439
112.179
110.227
108.55
107.116
105.896
104.863
103.992
103.263
102.655
102.15
101.733
101.391
101.111
100.884
100.699
100.551
100.432
100.337
100.262
100.203
100.156
100.12
100.091
100.069
100.052
100.039
100.029
100.022
100.016
100.012
100.009
100.006
100.005
100.003
100.002
100.002
100.001
100.001
100.001
100
100
100
100
100
100
100
100
391.375
374.17
357.099
340.251
323.709
307.553
291.855
276.682
262.092
248.136
234.856
222.282
210.44
199.344
189
179.407
170.554
162.428
155.006
148.261
142.164
136.679
131.77
127.398
123.526
120.112
117.118
114.505
112.237
110.277
108.593
107.152
105.926
104.888
104.014
103.281
102.67
102.162
101.743
101.399
101.118
100.889
100.704
100.554
100.435
100.339
100.264
100.204
100.157
100.12
100.092
100.07
100.053
100.04
100.03
100.022
100.016
100.012
100.009
100.006
100.005
100.003
100.002
100.002
100.001
100.001
100.001
100
100
100
100
100
100
100
100
391.388
374.209
357.165
340.341
323.821
307.684
292.003
276.844
262.266
248.318
235.042
222.471
210.628
199.529
189.18
179.58
170.72
162.584
155.151
148.396
142.288
136.792
131.872
127.49
123.608
120.184
117.182
114.561
112.285
110.319
108.628
107.183
105.952
104.91
104.032
103.296
102.682
102.173
101.752
101.406
101.123
100.893
100.707
100.557
100.437
100.341
100.265
100.205
100.158
100.121
100.092
100.07
100.053
100.04
100.03
100.022
100.016
100.012
100.009
100.007
100.005
100.003
100.002
100.002
100.001
100.001
100.001
100
100
100
100
100
100
100
100
391.399
374.241
357.217
340.412
323.911
307.79
292.123
276.976
262.406
248.465
235.193
222.624
210.781
199.68
189.327
179.721
170.854
162.711
155.271
148.507
142.389
136.884
131.956
127.566
123.675
120.244
117.234
114.607
112.325
110.353
108.658
107.208
105.973
104.928
104.047
103.309
102.693
102.181
101.759
101.412
101.128
100.897
100.71
100.56
100.439
100.343
100.266
100.206
100.159
100.122
100.093
100.07
100.053
100.04
100.03
100.022
100.017
100.012
100.009
100.007
100.005
100.003
100.002
100.002
100.001
100.001
100.001
100
100
100
100
100
100
100
100
391.408
374.267
357.259
340.47
323.983
307.875
292.219
277.081
262.519
248.583
235.315
222.748
210.905
199.802
189.446
179.836
170.964
162.815
155.368
148.597
142.473
136.961
132.025
127.628
123.731
120.294
117.278
114.645
112.358
110.382
108.683
107.229
105.991
104.943
104.06
103.319
102.701
102.188
101.765
101.417
101.132
100.9
100.713
100.562
100.441
100.344
100.267
100.207
100.159
100.122
100.093
100.071
100.053
100.04
100.03
100.022
100.017
100.012
100.009
100.007
100.005
100.003
100.003
100.002
100.001
100.001
100.001
100
100
100
100
100
100
100
100
391.414
374.288
357.293
340.516
324.04
307.943
292.296
277.166
262.61
248.679
235.414
222.848
211.005
199.901
189.543
179.93
171.053
162.9
155.447
148.671
142.541
137.023
132.081
127.679
123.776
120.334
117.314
114.676
112.386
110.406
108.703
107.246
106.006
104.956
104.07
103.328
102.709
102.194
101.77
101.421
101.135
100.903
100.715
100.563
100.442
100.345
100.268
100.207
100.16
100.122
100.093
100.071
100.054
100.04
100.03
100.022
100.017
100.012
100.009
100.007
100.005
100.003
100.003
100.002
100.001
100.001
100.001
100
100
100
100
100
100
100
100
391.42
374.304
357.32
340.553
324.086
307.997
292.358
277.234
262.683
248.755
235.492
222.928
211.085
199.98
189.62
180.005
171.125
162.968
155.511
148.731
142.596
137.073
132.127
127.72
123.813
120.367
117.343
114.702
112.408
110.425
108.72
107.26
106.018
104.966
104.079
103.335
102.715
102.199
101.774
101.424
101.138
100.905
100.717
100.565
100.443
100.346
100.269
100.208
100.16
100.123
100.094
100.071
100.054
100.04
100.03
100.023
100.017
100.012
100.009
100.007
100.005
100.004
100.003
100.002
100.001
100.001
100.001
100
100
100
100
100
100
100
100
391.424
374.317
357.341
340.582
324.123
308.04
292.407
277.288
262.741
248.816
235.555
222.992
211.149
200.044
189.683
180.065
171.183
163.023
155.563
148.779
142.64
137.114
132.165
127.754
123.843
120.394
117.366
114.723
112.426
110.441
108.733
107.272
106.028
104.974
104.086
103.341
102.719
102.203
101.777
101.427
101.14
100.907
100.718
100.566
100.444
100.347
100.269
100.208
100.16
100.123
100.094
100.071
100.054
100.04
100.03
100.023
100.017
100.012
100.009
100.007
100.005
100.004
100.003
100.002
100.001
100.001
100.001
100
100
100
100
100
100
100
100
391.428
374.327
357.358
340.606
324.152
308.075
292.446
277.33
262.787
248.864
235.605
223.043
211.201
200.095
189.732
180.113
171.229
163.066
155.604
148.817
142.676
137.147
132.194
127.781
123.868
120.416
117.386
114.74
112.441
110.454
108.744
107.282
106.036
104.981
104.092
103.346
102.723
102.207
101.78
101.429
101.142
100.908
100.719
100.567
100.445
100.347
100.27
100.209
100.161
100.123
100.094
100.071
100.054
100.041
100.03
100.023
100.017
100.012
100.009
100.007
100.005
100.004
100.003
100.002
100.001
100.001
100.001
100
100
100
100
100
100
100
100
391.43
374.335
357.371
340.624
324.175
308.102
292.477
277.364
262.823
248.903
235.645
223.083
211.241
200.135
189.772
180.151
171.266
163.102
155.637
148.848
142.705
137.173
132.219
127.803
123.887
120.433
117.401
114.753
112.453
110.464
108.753
107.289
106.043
104.987
104.096
103.35
102.727
102.209
101.782
101.431
101.143
100.909
100.72
100.568
100.445
100.348
100.27
100.209
100.161
100.123
100.094
100.071
100.054
100.041
100.03
100.023
100.017
100.012
100.009
100.007
100.005
100.004
100.003
100.002
100.001
100.001
100.001
100
100
100
100
100
100
100
100
391.433
374.342
357.382
340.638
324.193
308.123
292.501
277.391
262.852
248.933
235.677
223.115
211.273
200.167
189.803
180.182
171.295
163.129
155.664
148.873
142.727
137.194
132.238
127.82
123.903
120.447
117.413
114.764
112.462
110.472
108.76
107.295
106.048
104.991
104.1
103.353
102.729
102.211
101.784
101.432
101.144
100.91
100.721
100.568
100.446
100.348
100.271
100.209
100.161
100.124
100.094
100.072
100.054
100.041
100.03
100.023
100.017
100.012
100.009
100.007
100.005
100.004
100.003
100.002
100.001
100.001
100.001
100
100
100
100
100
100
100
100
391.434
374.347
357.39
340.65
324.207
308.14
292.52
277.412
262.874
248.957
235.701
223.14
211.299
200.192
189.828
180.206
171.319
163.152
155.685
148.892
142.746
137.211
132.253
127.834
123.915
120.458
117.423
114.773
112.47
110.479
108.766
107.3
106.052
104.995
104.103
103.355
102.731
102.213
101.785
101.433
101.145
100.911
100.722
100.569
100.446
100.348
100.271
100.209
100.161
100.124
100.094
100.072
100.054
100.041
100.03
100.023
100.017
100.012
100.009
100.007
100.005
100.004
100.003
100.002
100.001
100.001
100.001
100
100
100
100
100
100
100
100
391.436
374.351
357.397
340.658
324.218
308.153
292.535
277.428
262.892
248.976
235.721
223.16
211.319
200.212
189.847
180.225
171.337
163.169
155.701
148.908
142.76
137.224
132.265
127.845
123.925
120.467
117.431
114.78
112.476
110.484
108.771
107.304
106.055
104.997
104.105
103.357
102.733
102.215
101.786
101.434
101.146
100.912
100.722
100.569
100.446
100.349
100.271
100.21
100.161
100.124
100.094
100.072
100.054
100.041
100.031
100.023
100.017
100.012
100.009
100.007
100.005
100.004
100.003
100.002
100.001
100.001
100.001
100
100
100
100
100
100
100
100
391.437
374.354
357.402
340.665
324.227
308.163
292.546
277.441
262.906
248.99
235.736
223.176
211.334
200.227
189.863
180.24
171.351
163.183
155.714
148.92
142.771
137.235
132.274
127.854
123.933
120.474
117.437
114.785
112.481
110.488
108.774
107.307
106.058
105
104.107
103.359
102.734
102.216
101.787
101.435
101.147
100.912
100.722
100.569
100.447
100.349
100.271
100.21
100.162
100.124
100.094
100.072
100.054
100.041
100.031
100.023
100.017
100.012
100.009
100.007
100.005
100.004
100.003
100.002
100.001
100.001
100.001
100
100
100
100
100
100
100
100
391.437
374.356
357.405
340.671
324.234
308.171
292.555
277.451
262.917
249.001
235.747
223.188
211.346
200.239
189.875
180.251
171.362
163.193
155.724
148.929
142.78
137.243
132.282
127.86
123.939
120.479
117.442
114.79
112.485
110.492
108.777
107.31
106.06
105.001
104.109
103.36
102.735
102.217
101.788
101.436
101.147
100.913
100.723
100.57
100.447
100.349
100.271
100.21
100.162
100.124
100.095
100.072
100.054
100.041
100.031
100.023
100.017
100.012
100.009
100.007
100.005
100.004
100.003
100.002
100.001
100.001
100.001
100
100
100
100
100
100
100
100
391.438
374.358
357.408
340.675
324.239
308.177
292.562
277.459
262.925
249.01
235.756
223.197
211.356
200.249
189.884
180.26
171.371
163.201
155.732
148.937
142.787
137.249
132.288
127.866
123.944
120.484
117.446
114.793
112.487
110.494
108.779
107.312
106.062
105.003
104.11
103.361
102.736
102.217
101.789
101.436
101.148
100.913
100.723
100.57
100.447
100.349
100.271
100.21
100.162
100.124
100.095
100.072
100.054
100.041
100.031
100.023
100.017
100.012
100.009
100.007
100.005
100.004
100.003
100.002
100.001
100.001
100.001
100
100
100
100
100
100
100
100
391.438
374.359
357.411
340.678
324.243
308.182
292.568
277.465
262.931
249.017
235.763
223.204
211.363
200.256
189.891
180.267
171.378
163.208
155.738
148.942
142.792
137.254
132.292
127.87
123.948
120.487
117.449
114.796
112.49
110.496
108.781
107.313
106.063
105.004
104.111
103.362
102.737
102.218
101.789
101.436
101.148
100.913
100.723
100.57
100.447
100.349
100.271
100.21
100.162
100.124
100.095
100.072
100.054
100.041
100.031
100.023
100.017
100.012
100.009
100.007
100.005
100.004
100.003
100.002
100.001
100.001
100.001
100
100
100
100
100
100
100
100
391.439
374.36
357.412
340.68
324.246
308.186
292.572
277.469
262.936
249.022
235.769
223.21
211.368
200.262
189.896
180.273
171.383
163.213
155.743
148.947
142.796
137.258
132.296
127.873
123.95
120.49
117.451
114.798
112.492
110.498
108.782
107.314
106.064
105.005
104.112
103.363
102.737
102.218
101.789
101.437
101.148
100.913
100.723
100.57
100.447
100.349
100.272
100.21
100.162
100.124
100.095
100.072
100.054
100.041
100.031
100.023
100.017
100.012
100.009
100.007
100.005
100.004
100.003
100.002
100.001
100.001
100.001
100
100
100
100
100
100
100
100
391.439
374.361
357.414
340.682
324.248
308.188
292.575
277.473
262.94
249.026
235.773
223.214
211.373
200.266
189.901
180.277
171.387
163.217
155.746
148.95
142.799
137.261
132.298
127.875
123.953
120.492
117.453
114.799
112.493
110.499
108.784
107.315
106.065
105.006
104.112
103.363
102.738
102.219
101.79
101.437
101.148
100.914
100.723
100.57
100.447
100.349
100.272
100.21
100.162
100.124
100.095
100.072
100.054
100.041
100.031
100.023
100.017
100.012
100.009
100.007
100.005
100.004
100.003
100.002
100.001
100.001
100.001
100
100
100
100
100
100
100
100
391.439
374.362
357.415
340.684
324.25
308.19
292.577
277.475
262.943
249.029
235.776
223.217
211.376
200.269
189.904
180.28
171.39
163.22
155.749
148.953
142.802
137.263
132.301
127.877
123.954
120.493
117.455
114.8
112.494
110.5
108.784
107.316
106.066
105.006
104.113
103.364
102.738
102.219
101.79
101.437
101.149
100.914
100.724
100.57
100.447
100.349
100.272
100.21
100.162
100.124
100.095
100.072
100.054
100.041
100.031
100.023
100.017
100.012
100.009
100.007
100.005
100.004
100.003
100.002
100.001
100.001
100.001
100
100
100
100
100
100
100
100
391.439
374.362
357.416
340.685
324.251
308.192
292.579
277.477
262.945
249.031
235.779
223.219
211.378
200.272
189.906
180.282
171.392
163.222
155.751
148.955
142.804
137.265
132.302
127.879
123.956
120.494
117.456
114.801
112.495
110.501
108.785
107.317
106.066
105.006
104.113
103.364
102.738
102.219
101.79
101.437
101.149
100.914
100.724
100.57
100.447
100.349
100.272
100.21
100.162
100.124
100.095
100.072
100.054
100.041
100.031
100.023
100.017
100.012
100.009
100.007
100.005
100.004
100.003
100.002
100.001
100.001
100.001
100
100
100
100
100
100
100
100
391.44
374.363
357.416
340.686
324.252
308.193
292.58
277.479
262.946
249.033
235.78
223.221
211.38
200.273
189.908
180.284
171.394
163.223
155.753
148.956
142.805
137.266
132.303
127.88
123.957
120.495
117.456
114.802
112.496
110.501
108.785
107.317
106.066
105.007
104.113
103.364
102.739
102.219
101.79
101.437
101.149
100.914
100.724
100.57
100.448
100.349
100.272
100.21
100.162
100.124
100.095
100.072
100.054
100.041
100.031
100.023
100.017
100.012
100.009
100.007
100.005
100.004
100.003
100.002
100.001
100.001
100.001
100
100
100
100
100
100
100
100
391.44
374.363
357.417
340.686
324.253
308.194
292.581
277.48
262.948
249.034
235.782
223.223
211.382
200.275
189.909
180.285
171.395
163.225
155.754
148.958
142.806
137.267
132.304
127.881
123.957
120.496
117.457
114.803
112.496
110.502
108.786
107.317
106.067
105.007
104.114
103.364
102.739
102.219
101.79
101.437
101.149
100.914
100.724
100.57
100.448
100.35
100.272
100.21
100.162
100.124
100.095
100.072
100.054
100.041
100.031
100.023
100.017
100.012
100.009
100.007
100.005
100.004
100.003
100.002
100.001
100.001
100.001
100
100
100
100
100
100
100
100
391.44
374.363
357.417
340.687
324.253
308.195
292.582
277.481
262.949
249.035
235.783
223.224
211.383
200.276
189.91
180.286
171.396
163.226
155.755
148.958
142.807
137.268
132.305
127.881
123.958
120.496
117.457
114.803
112.496
110.502
108.786
107.318
106.067
105.007
104.114
103.364
102.739
102.219
101.79
101.437
101.149
100.914
100.724
100.57
100.448
100.35
100.272
100.21
100.162
100.124
100.095
100.072
100.054
100.041
100.031
100.023
100.017
100.012
100.009
100.007
100.005
100.004
100.003
100.002
100.001
100.001
100.001
100
100
100
100
100
100
100
100
391.44
374.363
357.417
340.687
324.254
308.195
292.583
277.482
262.949
249.036
235.783
223.224
211.384
200.277
189.911
180.287
171.397
163.226
155.755
148.959
142.808
137.268
132.305
127.882
123.958
120.497
117.458
114.803
112.497
110.502
108.786
107.318
106.067
105.007
104.114
103.364
102.739
102.22
101.79
101.438
101.149
100.914
100.724
100.571
100.448
100.35
100.272
100.21
100.162
100.124
100.095
100.072
100.054
100.041
100.031
100.023
100.017
100.012
100.009
100.007
100.005
100.004
100.003
100.002
100.001
100.001
100.001
100
100
100
100
100
100
100
100
391.44
374.363
357.417
340.687
324.254
308.196
292.583
277.482
262.95
249.037
235.784
223.225
211.384
200.277
189.912
180.288
171.397
163.227
155.756
148.959
142.808
137.269
132.306
127.882
123.959
120.497
117.458
114.804
112.497
110.502
108.786
107.318
106.067
105.007
104.114
103.364
102.739
102.22
101.79