/*--------------------------------*- C++ -*----------------------------------*\
  =========                 |
  \\      /  F ield         | OpenFOAM: The Open Source CFD Toolbox
   \\    /   O peration     | Website:  https://openfoam.org
    \\  /    A nd           | Version:  10
     \\/     M anipulation  |
\*---------------------------------------------------------------------------*/
FoamFile
{
    format      ascii;
    class       volScalarField;
    location    "306";
    object      T;
}
// * * * * * * * * * * * * * * * * * * * * * * * * * * * * * * * * * * * * * //

dimensions      [0 0 0 1 0 0 0];

internalField   nonuniform List<scalar> 
11250
(
249.826
167.509
139.282
126.838
120.037
115.718
112.693
110.436
108.678
107.267
106.111
105.149
104.34
103.655
103.074
102.578
102.156
101.797
101.491
101.233
101.014
100.831
100.677
100.548
100.442
100.355
100.283
100.224
100.177
100.138
100.108
100.083
100.064
100.049
100.037
100.028
100.021
100.016
100.012
100.009
100.006
100.005
100.003
100.002
100.002
100.001
100.001
100.001
100
100
100
100
100
100
100
100
100
100
100
100
100
100
100
100
100
100
100
100
100
100
100
100
100
100
100
331.451
248.444
202.074
174.886
157.653
145.884
137.34
130.84
125.72
121.582
118.173
115.328
112.931
110.898
109.169
107.694
106.436
105.365
104.455
103.683
103.031
102.482
102.022
101.639
101.322
101.06
100.845
100.67
100.528
100.414
100.322
100.25
100.192
100.147
100.112
100.084
100.063
100.047
100.035
100.026
100.019
100.014
100.01
100.007
100.005
100.004
100.003
100.002
100.001
100.001
100.001
100
100
100
100
100
100
100
100
100
100
100
100
100
100
100
100
100
100
100
100
100
100
100
100
358.994
292.765
245.72
213.03
189.868
172.898
160.026
149.957
141.88
135.27
129.779
125.167
121.264
117.944
115.11
112.69
110.623
108.86
107.359
106.086
105.01
104.105
103.345
102.712
102.187
101.754
101.399
101.109
100.875
100.685
100.534
100.414
100.318
100.243
100.185
100.14
100.105
100.078
100.058
100.043
100.031
100.023
100.016
100.012
100.008
100.006
100.004
100.003
100.002
100.001
100.001
100.001
100
100
100
100
100
100
100
100
100
100
100
100
100
100
100
100
100
100
100
100
100
100
100
370.765
317.941
275.072
241.731
215.996
195.939
180.05
167.237
156.735
148.01
140.682
134.477
129.192
124.676
120.808
117.495
114.659
112.236
110.17
108.416
106.931
105.681
104.632
103.757
103.03
102.431
101.939
101.538
101.213
100.951
100.741
100.574
100.442
100.338
100.257
100.194
100.146
100.109
100.081
100.059
100.044
100.032
100.023
100.016
100.012
100.008
100.006
100.004
100.003
100.002
100.001
100.001
100.001
100
100
100
100
100
100
100
100
100
100
100
100
100
100
100
100
100
100
100
100
100
100
376.91
333.212
294.98
262.944
236.59
214.985
197.191
182.418
170.043
159.593
150.707
143.113
136.6
131.002
126.187
122.048
118.496
115.453
112.856
110.646
108.773
107.194
105.868
104.762
103.843
103.083
102.46
101.952
101.539
101.207
100.941
100.729
100.561
100.429
100.326
100.247
100.185
100.138
100.103
100.076
100.055
100.04
100.029
100.021
100.015
100.011
100.007
100.005
100.004
100.003
100.002
100.001
100.001
100.001
100
100
100
100
100
100
100
100
100
100
100
100
100
100
100
100
100
100
100
100
100
380.595
343.083
308.801
278.624
252.623
230.438
211.559
195.471
181.717
169.914
159.753
150.984
143.406
136.853
131.19
126.303
122.094
118.481
115.39
112.755
110.519
108.631
107.045
105.719
104.617
103.706
102.958
102.348
101.852
101.452
101.132
100.877
100.675
100.517
100.393
100.297
100.223
100.167
100.124
100.091
100.067
100.049
100.035
100.025
100.018
100.013
100.009
100.006
100.004
100.003
100.002
100.001
100.001
100.001
100
100
100
100
100
100
100
100
100
100
100
100
100
100
100
100
100
100
100
100
100
383.011
349.803
318.648
290.309
265.062
242.85
223.437
206.519
191.789
178.96
167.784
158.046
149.565
142.187
135.778
130.224
125.426
121.295
117.752
114.726
112.155
109.98
108.151
106.621
105.348
104.295
103.43
102.722
102.148
101.685
101.314
101.018
100.784
100.6
100.457
100.345
100.259
100.194
100.144
100.106
100.078
100.056
100.041
100.029
100.021
100.015
100.01
100.007
100.005
100.004
100.002
100.002
100.001
100.001
100.001
100
100
100
100
100
100
100
100
100
100
100
100
100
100
100
100
100
100
100
100
384.686
354.563
325.832
299.112
274.729
252.77
233.167
215.763
200.368
186.782
174.816
164.296
155.065
146.985
139.932
133.795
128.474
123.879
119.929
116.549
113.671
111.234
109.181
107.462
106.031
104.846
103.871
103.074
102.427
101.904
101.485
101.151
100.887
100.679
100.517
100.391
100.293
100.219
100.163
100.12
100.088
100.064
100.046
100.033
100.024
100.017
100.012
100.008
100.006
100.004
100.003
100.002
100.001
100.001
100.001
100
100
100
100
100
100
100
100
100
100
100
100
100
100
100
100
100
100
100
100
385.894
358.036
331.178
305.817
282.269
260.685
241.092
223.433
207.602
193.47
180.901
169.76
159.916
151.25
143.648
137.007
131.229
126.226
121.913
118.216
115.062
112.387
110.131
108.239
106.662
105.356
104.281
103.401
102.686
102.108
101.645
101.275
100.983
100.753
100.573
100.433
100.325
100.243
100.18
100.133
100.097
100.071
100.051
100.037
100.026
100.019
100.013
100.009
100.006
100.004
100.003
100.002
100.001
100.001
100.001
100
100
100
100
100
100
100
100
100
100
100
100
100
100
100
100
100
100
100
100
386.788
360.626
335.22
310.973
288.175
266.999
247.524
229.757
213.652
199.136
186.114
174.487
164.149
154.999
146.937
139.866
133.694
128.334
123.703
119.724
116.325
113.436
110.997
108.949
107.241
105.824
104.657
103.702
102.924
102.296
101.792
101.39
101.071
100.821
100.625
100.473
100.355
100.265
100.197
100.145
100.106
100.077
100.056
100.04
100.029
100.02
100.014
100.01
100.007
100.005
100.003
100.002
100.002
100.001
100.001
100
100
100
100
100
100
100
100
100
100
100
100
100
100
100
100
100
100
100
100
387.462
362.59
338.315
314.972
292.819
272.038
252.732
234.947
218.681
203.898
190.541
178.538
167.807
158.263
149.817
142.384
135.875
130.208
125.301
121.076
117.459
114.382
111.78
109.593
107.766
106.25
105
103.976
103.142
102.468
101.927
101.495
101.153
100.883
100.672
100.509
100.382
100.286
100.212
100.156
100.115
100.083
100.06
100.043
100.031
100.022
100.016
100.011
100.008
100.005
100.004
100.002
100.002
100.001
100.001
100
100
100
100
100
100
100
100
100
100
100
100
100
100
100
100
100
100
100
100
387.977
364.097
340.707
318.092
296.485
276.062
256.941
239.19
222.837
207.875
194.272
181.981
170.939
161.077
152.317
144.581
137.789
131.859
126.713
122.275
118.469
115.226
112.481
110.17
108.238
106.634
105.31
104.224
103.34
102.624
102.05
101.591
101.227
100.94
100.716
100.542
100.407
100.304
100.226
100.167
100.122
100.089
100.064
100.046
100.033
100.023
100.017
100.012
100.008
100.006
100.004
100.003
100.002
100.001
100.001
100.001
100
100
100
100
100
100
100
100
100
100
100
100
100
100
100
100
100
100
100
388.374
365.264
342.569
320.539
299.386
279.277
260.337
242.648
226.256
211.175
197.396
184.886
173.601
163.483
154.467
146.481
139.451
133.3
127.951
123.329
119.36
115.973
113.102
110.683
108.659
106.976
105.587
104.446
103.517
102.765
102.16
101.677
101.294
100.992
100.755
100.572
100.43
100.321
100.239
100.176
100.129
100.094
100.068
100.049
100.035
100.025
100.017
100.012
100.009
100.006
100.004
100.003
100.002
100.001
100.001
100.001
100
100
100
100
100
100
100
100
100
100
100
100
100
100
100
100
100
100
100
388.683
366.173
344.026
322.466
301.685
281.845
263.073
245.457
229.057
213.901
199.994
187.32
175.845
165.524
156.301
148.11
140.883
134.546
129.026
124.248
120.139
116.628
113.648
111.136
109.031
107.279
105.832
104.644
103.674
102.89
102.258
101.754
101.353
101.038
100.791
100.599
100.45
100.337
100.25
100.184
100.135
100.099
100.071
100.051
100.037
100.026
100.018
100.013
100.009
100.006
100.004
100.003
100.002
100.001
100.001
100.001
100
100
100
100
100
100
100
100
100
100
100
100
100
100
100
100
100
100
100
388.925
366.884
345.17
323.985
303.509
283.897
265.273
247.733
231.342
216.14
202.143
189.345
177.725
167.243
157.853
149.495
142.106
135.615
129.951
125.042
120.814
117.197
114.124
111.531
109.356
107.545
106.048
104.817
103.813
103
102.345
101.822
101.406
101.079
100.822
100.622
100.468
100.35
100.26
100.192
100.141
100.103
100.074
100.053
100.038
100.027
100.019
100.013
100.009
100.006
100.004
100.003
100.002
100.001
100.001
100.001
100
100
100
100
100
100
100
100
100
100
100
100
100
100
100
100
100
100
100
389.114
367.442
346.071
325.186
304.957
285.534
267.04
249.571
233.199
217.971
203.911
191.021
179.288
168.681
159.158
150.665
143.143
136.525
130.742
125.722
121.394
117.688
114.536
111.873
109.639
107.777
106.236
104.969
103.935
103.096
102.421
101.881
101.453
101.114
100.85
100.643
100.484
100.362
100.269
100.199
100.146
100.106
100.077
100.055
100.039
100.028
100.02
100.014
100.01
100.007
100.005
100.003
100.002
100.001
100.001
100.001
100
100
100
100
100
100
100
100
100
100
100
100
100
100
100
100
100
100
100
389.262
367.881
346.78
326.134
306.106
286.839
268.455
251.051
234.703
219.462
205.358
192.4
180.581
169.875
160.246
151.645
144.015
137.293
131.411
126.3
121.889
118.107
114.888
112.167
109.882
107.976
106.398
105.1
104.04
103.18
102.488
101.934
101.493
101.146
100.874
100.662
100.498
100.373
100.277
100.204
100.15
100.109
100.079
100.057
100.041
100.029
100.02
100.014
100.01
100.007
100.005
100.003
100.002
100.001
100.001
100.001
100
100
100
100
100
100
100
100
100
100
100
100
100
100
100
100
100
100
100
389.379
368.226
347.338
326.884
307.017
287.878
269.586
252.239
235.916
220.67
206.536
193.528
181.643
170.861
161.148
152.46
144.743
137.937
131.974
126.787
122.307
118.463
115.188
112.418
110.09
108.147
106.538
105.213
104.131
103.253
102.545
101.979
101.528
101.173
100.895
100.678
100.51
100.382
100.284
100.209
100.154
100.112
100.081
100.058
100.042
100.03
100.021
100.015
100.01
100.007
100.005
100.003
100.002
100.002
100.001
100.001
100
100
100
100
100
100
100
100
100
100
100
100
100
100
100
100
100
100
100
389.471
368.497
347.778
327.475
307.738
288.702
270.487
253.19
236.89
221.644
207.491
194.446
182.511
171.669
161.891
153.134
145.348
138.472
132.444
127.196
122.658
118.762
115.441
112.629
110.266
108.292
106.656
105.309
104.208
103.315
102.594
102.017
101.558
101.196
100.913
100.692
100.521
100.39
100.29
100.214
100.157
100.114
100.083
100.06
100.043
100.03
100.021
100.015
100.01
100.007
100.005
100.003
100.002
100.002
100.001
100.001
100
100
100
100
100
100
100
100
100
100
100
100
100
100
100
100
100
100
100
389.543
368.71
348.124
327.941
308.307
289.355
271.202
253.948
237.669
222.427
208.26
195.189
183.216
172.328
162.499
153.687
145.845
138.915
132.833
127.535
122.951
119.012
115.653
112.807
110.414
108.414
106.756
105.391
104.274
103.367
102.636
102.05
101.584
101.216
100.928
100.703
100.53
100.396
100.295
100.218
100.16
100.116
100.084
100.061
100.043
100.031
100.022
100.015
100.011
100.007
100.005
100.003
100.002
100.002
100.001
100.001
100
100
100
100
100
100
100
100
100
100
100
100
100
100
100
100
100
100
100
389.599
368.877
348.395
328.307
308.755
289.87
271.769
254.55
238.291
223.053
208.877
195.786
183.785
172.862
162.993
154.138
146.252
139.278
133.154
127.814
123.192
119.22
115.829
112.955
110.537
108.516
106.84
105.459
104.329
103.411
102.671
102.078
101.606
101.233
100.941
100.713
100.537
100.402
100.299
100.221
100.162
100.118
100.086
100.062
100.044
100.031
100.022
100.015
100.011
100.007
100.005
100.004
100.002
100.002
100.001
100.001
100
100
100
100
100
100
100
100
100
100
100
100
100
100
100
100
100
100
100
389.643
369.008
348.608
328.594
309.107
290.276
272.217
255.026
238.783
223.551
209.37
196.265
184.242
173.293
163.392
154.504
146.583
139.573
133.415
128.044
123.391
119.39
115.974
113.077
110.639
108.601
106.91
105.516
104.375
103.448
102.7
102.101
101.624
101.247
100.952
100.722
100.544
100.407
100.303
100.224
100.164
100.12
100.087
100.062
100.045
100.032
100.022
100.016
100.011
100.008
100.005
100.004
100.002
100.002
100.001
100.001
100
100
100
100
100
100
100
100
100
100
100
100
100
100
100
100
100
100
100
389.677
369.11
348.774
328.818
309.382
290.594
272.568
255.401
239.173
223.945
209.761
196.646
184.608
173.637
163.712
154.798
146.85
139.813
133.628
128.23
123.553
119.529
116.093
113.178
110.723
108.671
106.967
105.562
104.413
103.478
102.724
102.12
101.639
101.259
100.961
100.729
100.549
100.411
100.306
100.226
100.166
100.121
100.088
100.063
100.045
100.032
100.023
100.016
100.011
100.008
100.005
100.004
100.002
100.002
100.001
100.001
100
100
100
100
100
100
100
100
100
100
100
100
100
100
100
100
100
100
100
389.704
369.189
348.903
328.993
309.597
290.843
272.843
255.695
239.479
224.256
210.071
196.948
184.898
173.912
163.968
155.034
147.064
140.006
133.799
128.38
123.684
119.642
116.189
113.259
110.792
108.728
107.014
105.601
104.444
103.503
102.744
102.136
101.652
101.269
100.969
100.734
100.553
100.414
100.308
100.228
100.167
100.122
100.088
100.064
100.045
100.032
100.023
100.016
100.011
100.008
100.005
100.004
100.002
100.002
100.001
100.001
100
100
100
100
100
100
100
100
100
100
100
100
100
100
100
100
100
100
100
389.725
369.25
349.003
329.129
309.765
291.037
273.058
255.925
239.718
224.5
210.314
197.186
185.127
174.129
164.171
155.221
147.235
140.159
133.936
128.501
123.789
119.733
116.267
113.325
110.847
108.774
107.052
105.632
104.469
103.524
102.761
102.149
101.662
101.277
100.975
100.739
100.557
100.417
100.31
100.229
100.168
100.123
100.089
100.064
100.046
100.033
100.023
100.016
100.011
100.008
100.005
100.004
100.002
100.002
100.001
100.001
100
100
100
100
100
100
100
100
100
100
100
100
100
100
100
100
100
100
100
389.741
369.298
349.081
329.234
309.894
291.187
273.225
256.104
239.905
224.69
210.504
197.373
185.307
174.3
164.332
155.37
147.37
140.281
134.045
128.598
123.874
119.806
116.329
113.379
110.892
108.811
107.083
105.657
104.49
103.54
102.774
102.159
101.67
101.283
100.98
100.743
100.56
100.419
100.312
100.23
100.169
100.123
100.089
100.064
100.046
100.033
100.023
100.016
100.011
100.008
100.005
100.004
100.002
100.002
100.001
100.001
100
100
100
100
100
100
100
100
100
100
100
100
100
100
100
100
100
100
100
389.753
369.334
349.14
329.315
309.994
291.303
273.353
256.242
240.05
224.838
210.652
197.518
185.447
174.433
164.457
155.486
147.477
140.378
134.131
128.674
123.94
119.864
116.379
113.421
110.928
108.841
107.108
105.678
104.506
103.554
102.785
102.168
101.677
101.289
100.984
100.746
100.562
100.421
100.313
100.231
100.17
100.124
100.09
100.065
100.046
100.033
100.023
100.016
100.011
100.008
100.005
100.004
100.003
100.002
100.001
100.001
100
100
100
100
100
100
100
100
100
100
100
100
100
100
100
100
100
100
100
389.762
369.362
349.186
329.377
310.07
291.392
273.452
256.349
240.161
224.952
210.766
197.631
185.556
174.538
164.555
155.577
147.56
140.453
134.199
128.734
123.993
119.91
116.418
113.454
110.956
108.865
107.127
105.694
104.52
103.564
102.793
102.175
101.682
101.293
100.987
100.749
100.564
100.423
100.314
100.232
100.171
100.124
100.09
100.065
100.046
100.033
100.023
100.016
100.011
100.008
100.005
100.004
100.003
100.002
100.001
100.001
100.001
100
100
100
100
100
100
100
100
100
100
100
100
100
100
100
100
100
100
389.77
369.384
349.221
329.424
310.129
291.46
273.528
256.431
240.247
225.04
210.854
197.718
185.64
174.618
164.631
155.647
147.625
140.512
134.251
128.781
124.034
119.946
116.449
113.481
110.978
108.883
107.143
105.707
104.53
103.573
102.8
102.18
101.686
101.296
100.99
100.751
100.566
100.424
100.315
100.233
100.171
100.125
100.09
100.065
100.047
100.033
100.023
100.016
100.011
100.008
100.005
100.004
100.003
100.002
100.001
100.001
100.001
100
100
100
100
100
100
100
100
100
100
100
100
100
100
100
100
100
100
389.775
369.4
349.247
329.46
310.173
291.511
273.586
256.493
240.312
225.107
210.922
197.784
185.705
174.68
164.689
155.702
147.675
140.558
134.292
128.817
124.066
119.974
116.473
113.501
110.995
108.898
107.155
105.717
104.538
103.58
102.805
102.184
101.69
101.299
100.992
100.752
100.567
100.425
100.316
100.234
100.171
100.125
100.091
100.065
100.047
100.033
100.023
100.016
100.011
100.008
100.005
100.004
100.003
100.002
100.001
100.001
100.001
100
100
100
100
100
100
100
100
100
100
100
100
100
100
100
100
100
100
389.779
369.412
349.267
329.487
310.207
291.551
273.63
256.54
240.362
225.158
210.973
197.835
185.755
174.727
164.734
155.743
147.713
140.593
134.324
128.845
124.091
119.995
116.492
113.517
111.009
108.909
107.164
105.724
104.545
103.585
102.809
102.188
101.692
101.301
100.993
100.754
100.568
100.425
100.316
100.234
100.172
100.125
100.091
100.065
100.047
100.033
100.023
100.016
100.011
100.008
100.005
100.004
100.003
100.002
100.001
100.001
100.001
100
100
100
100
100
100
100
100
100
100
100
100
100
100
100
100
100
100
389.782
369.421
349.282
329.507
310.232
291.58
273.663
256.576
240.4
225.197
211.012
197.873
185.792
174.763
164.768
155.775
147.743
140.619
134.348
128.866
124.11
120.012
116.506
113.529
111.019
108.918
107.172
105.73
104.549
103.589
102.813
102.19
101.694
101.302
100.995
100.755
100.569
100.426
100.317
100.234
100.172
100.125
100.091
100.065
100.047
100.033
100.024
100.016
100.011
100.008
100.005
100.004
100.003
100.002
100.001
100.001
100.001
100
100
100
100
100
100
100
100
100
100
100
100
100
100
100
100
100
100
389.785
369.428
349.293
329.523
310.251
291.602
273.687
256.603
240.428
225.226
211.041
197.902
185.82
174.79
164.794
155.799
147.765
140.64
134.366
128.883
124.124
120.024
116.517
113.539
111.027
108.925
107.177
105.735
104.553
103.592
102.815
102.192
101.696
101.304
100.996
100.755
100.569
100.426
100.317
100.235
100.172
100.126
100.091
100.066
100.047
100.033
100.024
100.017
100.012
100.008
100.005
100.004
100.003
100.002
100.001
100.001
100.001
100
100
100
100
100
100
100
100
100
100
100
100
100
100
100
100
100
100
389.786
369.433
349.302
329.534
310.265
291.619
273.706
256.623
240.449
225.247
211.063
197.924
185.842
174.811
164.813
155.817
147.782
140.655
134.38
128.895
124.135
120.034
116.526
113.546
111.033
108.93
107.182
105.739
104.556
103.594
102.817
102.194
101.697
101.305
100.996
100.756
100.57
100.427
100.318
100.235
100.172
100.126
100.091
100.066
100.047
100.033
100.024
100.017
100.012
100.008
100.005
100.004
100.003
100.002
100.001
100.001
100.001
100
100
100
100
100
100
100
100
100
100
100
100
100
100
100
100
100
100
389.788
369.437
349.308
329.543
310.276
291.631
273.72
256.637
240.464
225.263
211.079
197.94
185.857
174.826
164.828
155.831
147.794
140.666
134.391
128.905
124.143
120.041
116.532
113.551
111.038
108.934
107.185
105.741
104.558
103.596
102.819
102.195
101.698
101.305
100.997
100.756
100.57
100.427
100.318
100.235
100.172
100.126
100.091
100.066
100.047
100.033
100.024
100.017
100.012
100.008
100.005
100.004
100.003
100.002
100.001
100.001
100.001
100
100
100
100
100
100
100
100
100
100
100
100
100
100
100
100
100
100
389.788
369.44
349.312
329.549
310.283
291.64
273.73
256.648
240.476
225.275
211.091
197.952
185.869
174.837
164.838
155.841
147.803
140.675
134.398
128.911
124.15
120.047
116.537
113.555
111.041
108.937
107.187
105.743
104.56
103.597
102.82
102.196
101.699
101.306
100.997
100.757
100.57
100.427
100.318
100.235
100.173
100.126
100.091
100.066
100.047
100.033
100.024
100.017
100.012
100.008
100.005
100.004
100.003
100.002
100.001
100.001
100.001
100
100
100
100
100
100
100
100
100
100
100
100
100
100
100
100
100
100
389.789
369.442
349.316
329.553
310.289
291.647
273.737
256.656
240.485
225.284
211.1
197.961
185.878
174.846
164.846
155.849
147.81
140.681
134.404
128.917
124.154
120.051
116.54
113.558
111.044
108.939
107.189
105.745
104.561
103.598
102.82
102.196
101.699
101.306
100.998
100.757
100.571
100.427
100.318
100.235
100.173
100.126
100.091
100.066
100.047
100.033
100.024
100.017
100.012
100.008
100.005
100.004
100.003
100.002
100.001
100.001
100.001
100
100
100
100
100
100
100
100
100
100
100
100
100
100
100
100
100
100
389.79
369.443
349.318
329.557
310.293
291.652
273.743
256.662
240.491
225.291
211.107
197.968
185.884
174.852
164.852
155.854
147.815
140.686
134.408
128.92
124.158
120.054
116.543
113.561
111.046
108.941
107.19
105.746
104.562
103.599
102.821
102.197
101.7
101.307
100.998
100.757
100.571
100.427
100.318
100.235
100.173
100.126
100.091
100.066
100.047
100.033
100.024
100.017
100.012
100.008
100.005
100.004
100.003
100.002
100.001
100.001
100.001
100
100
100
100
100
100
100
100
100
100
100
100
100
100
100
100
100
100
389.79
369.444
349.32
329.559
310.296
291.655
273.746
256.667
240.495
225.295
211.112
197.972
185.889
174.856
164.857
155.858
147.819
140.689
134.411
128.923
124.16
120.056
116.545
113.562
111.047
108.942
107.191
105.747
104.563
103.6
102.822
102.197
101.7
101.307
100.998
100.757
100.571
100.428
100.318
100.235
100.173
100.126
100.091
100.066
100.047
100.033
100.024
100.017
100.012
100.008
100.005
100.004
100.003
100.002
100.001
100.001
100.001
100
100
100
100
100
100
100
100
100
100
100
100
100
100
100
100
100
100
389.79
369.445
349.321
329.561
310.298
291.658
273.749
256.67
240.499
225.299
211.115
197.976
185.892
174.86
164.86
155.861
147.822
140.692
134.414
128.925
124.162
120.057
116.546
113.563
111.048
108.943
107.192
105.747
104.563
103.6
102.822
102.198
101.7
101.307
100.998
100.757
100.571
100.428
100.318
100.235
100.173
100.126
100.091
100.066
100.047
100.033
100.024
100.017
100.012
100.008
100.005
100.004
100.003
100.002
100.001
100.001
100.001
100
100
100
100
100
100
100
100
100
100
100
100
100
100
100
100
100
100
389.79
369.446
349.322
329.562
310.3
291.659
273.751
256.672
240.501
225.301
211.117
197.978
185.895
174.862
164.862
155.863
147.824
140.694
134.415
128.927
124.163
120.058
116.547
113.564
111.049
108.943
107.193
105.748
104.564
103.6
102.822
102.198
101.7
101.307
100.998
100.758
100.571
100.428
100.318
100.235
100.173
100.126
100.091
100.066
100.047
100.033
100.024
100.017
100.012
100.008
100.005
100.004
100.003
100.002
100.001
100.001
100.001
100
100
100
100
100
100
100
100
100
100
100
100
100
100
100
100
100
100
389.791
369.446
349.323
329.563
310.301
291.661
273.753
256.673
240.503
225.303
211.119
197.98
185.896
174.864
164.863
155.865
147.825
140.695
134.416
128.928
124.164
120.059
116.548
113.565
111.05
108.944
107.193
105.748
104.564
103.601
102.822
102.198
101.701
101.307
100.998
100.758
100.571
100.428
100.318
100.235
100.173
100.126
100.091
100.066
100.047
100.033
100.024
100.017
100.012
100.008
100.006
100.004
100.003
100.002
100.001
100.001
100.001
100
100
100
100
100
100
100
100
100
100
100
100
100
100
100
100
100
100
389.791
369.446
349.323
329.564
310.302
291.662
273.754
256.675
240.504
225.304
211.12
197.981
185.897
174.865
164.865
155.866
147.826
140.696
134.417
128.929
124.165
120.06
116.548
113.565
111.05
108.944
107.193
105.748
104.564
103.601
102.822
102.198
101.701
101.307
100.998
100.758
100.571
100.428
100.318
100.235
100.173
100.126
100.091
100.066
100.047
100.033
100.024
100.017
100.012
100.008
100.006
100.004
100.003
100.002
100.001
100.001
100.001
100
100
100
100
100
100
100
100
100
100
100
100
100
100
100
100
100
100
389.791
369.447
349.324
329.564
310.302
291.662
273.755
256.675
240.505
225.305
211.121
197.982
185.898
174.866
164.865
155.866
147.827
140.697
134.418
128.929
124.165
120.06
116.549
113.566
111.05
108.944
107.194
105.749
104.564
103.601
102.822
102.198
101.701
101.307
100.998
100.758
100.571
100.428
100.318
100.235
100.173
100.126
100.091
100.066
100.047
100.033
100.024
100.017
100.012
100.008
100.006
100.004
100.003
100.002
100.001
100.001
100.001
100
100
100
100
100
100
100
100
100
100
100
100
100
100
100
100
100
100
389.791
369.447
349.324
329.564
310.303
291.663
273.755
256.676
240.505
225.305
211.122
197.983
185.899
174.866
164.866
155.867
147.827
140.697
134.418
128.929
124.166
120.061
116.549
113.566
111.051
108.944
107.194
105.749
104.564
103.601
102.823
102.198
101.701
101.307
100.999
100.758
100.571
100.428
100.318
100.235
100.173
100.126
100.091
100.066
100.047
100.033
100.024
100.017
100.012
100.008
100.006
100.004
100.003
100.002
100.001
100.001
100.001
100
100
100
100
100
100
100
100
100
100
100
100
100
100
100
100
100
100
389.791
369.447
349.324
329.565
310.303
291.663
273.755
256.676
240.506
225.306
211.122
197.983
185.899
174.867
164.866
155.867
147.828
140.697
134.419
128.93
124.166
120.061
116.549
113.566
111.051
108.945
107.194
105.749
104.565
103.601
102.823
102.198
101.701
101.307
100.999
100.758
100.571
100.428
100.318
100.235
100.173
100.126
100.091
100.066
100.047
100.033
100.024
100.017
100.012
100.008
100.006
100.004
100.003
100.002
100.001
100.001
100.001
100
100
100
100
100
100
100
100
100
100
100
100
100
100
100
100
100
100
389.791
369.447
349.324
329.565
310.303
291.663
273.756
256.677
240.506
225.306
211.123
197.983
185.9
174.867
164.867
155.868
147.828
140.698
134.419
128.93
124.166
120.061
116.549
113.566
111.051
108.945
107.194
105.749
104.565
103.601
102.823
102.198
101.701
101.307
100.999
100.758
100.571
100.428
100.318
100.235
100.173
100.126
100.091
100.066
100.047
100.033
100.024
100.017
100.012
100.008
100.006
100.004
100.003
100.002
100.001
100.001
100.001
100
100
100
100
100
100
100
100
100
100
100
100
100
100
100
100
100
100
389.791
369.447
349.324
329.565
310.303
291.663
273.756
256.677
240.506
225.306
211.123
197.984
185.9
174.867
164.867
155.868
147.828
140.698
134.419
128.93
124.166
120.061
116.549
113.566
111.051
108.945
107.194
105.749
104.565
103.601
102.823
102.198
101.701
101.307
100.999
100.758
100.571
100.428
100.318
100.235
100.173
100.126
100.091
100.066
100.047
100.033
100.024
100.017
100.012
100.008
100.006
100.004
100.003
100.002
100.001
100.001
100.001
100
100
100
100
100
100
100
100
100
100
100
100
100
100
100
100
100
100
389.791
369.447
349.324
329.565
310.303
291.663
273.756
256.677
240.506
225.306
211.123
197.984
185.9
174.867
164.867
155.868
147.828
140.698
134.419
128.93
124.166
120.061
116.549
113.566
111.051
108.945
107.194
105.749
104.565
103.601
102.823
102.198
101.701
101.307
100.999
100.758
100.571
100.428
100.318
100.235
100.173
100.126
100.091
100.066
100.047
100.033
100.024
100.017
100.012
100.008
100.006
100.004
100.003
100.002
100.001
100.001
100.001
100
100
100
100
100
100
100
100
100
100
100
100
100
100
100
100
100
100
389.791
369.447
349.324
329.565
310.303
291.664
273.756
256.677
240.506
225.307
211.123
197.984
185.9
174.867
164.867
155.868
147.828
140.698
134.419
128.93
124.166
120.061
116.549
113.566
111.051
108.945
107.194
105.749
104.565
103.601
102.823
102.198
101.701
101.307
100.999
100.758
100.571
100.428
100.318
100.235
100.173
100.126
100.091
100.066
100.047
100.033
100.024
100.017
100.012
100.008
100.006
100.004
100.003
100.002
100.001
100.001
100.001
100
100
100
100
100
100
100
100
100
100
100
100
100
100
100
100
100
100
389.791
369.447
349.324
329.565
310.304
291.664
273.756
256.677
240.506
225.307
211.123
197.984
185.9
174.867
164.867
155.868
147.828
140.698
134.419
128.93
124.166
120.061
116.549
113.566
111.051
108.945
107.194
105.749
104.565
103.601
102.823
102.198
101.701
101.307
100.999
100.758
100.571
100.428
100.318
100.235
100.173
100.126
100.091
100.066
100.047
100.033
100.024
100.017
100.012
100.008
100.006
100.004
100.003
100.002
100.001
100.001
100.001
100
100
100
100
100
100
100
100
100
100
100
100
100
100
100
100
100
100
389.791
369.447
349.324
329.565
310.304
291.664
273.756
256.677
240.506
225.307
211.123
197.984
185.9
174.867
164.867
155.868
147.829
140.698
134.419
128.93
124.166
120.061
116.549
113.566
111.051
108.945
107.194
105.749
104.565
103.601
102.823
102.198
101.701
101.307
100.999
100.758
100.571
100.428
100.318
100.235
100.173
100.126
100.091
100.066
100.047
100.033
100.024
100.017
100.012
100.008
100.006
100.004
100.003
100.002
100.001
100.001
100.001
100
100
100
100
100
100
100
100
100
100
100
100
100
100
100
100
100
100
389.791
369.447
349.324
329.565
310.304
291.664
273.756
256.677
240.506
225.307
211.123
197.984
185.9
174.867
164.867
155.868
147.829
140.698
134.419
128.93
124.166
120.061
116.549
113.566
111.051
108.945
107.194
105.749
104.565
103.601
102.823
102.198
101.701
101.307
100.999
100.758
100.571
100.428
100.318
100.235
100.173
100.126
100.091
100.066
100.047
100.033
100.024
100.017
100.012
100.008
100.006
100.004
100.003
100.002
100.001
100.001
100.001
100
100
100
100
100
100
100
100
100
100
100
100
100
100
100
100
100
100
389.791
369.447
349.324
329.565
310.304
291.664
273.756
256.677
240.506
225.307
211.123
197.984
185.9
174.867
164.867
155.868
147.829
140.698
134.419
128.93
124.166
120.061
116.549
113.566
111.051
108.945
107.194
105.749
104.565
103.601
102.823
102.198
101.701
101.307
100.999
100.758
100.571
100.428
100.318
100.235
100.173
100.126
100.091
100.066
100.047
100.033
100.024
100.017
100.012
100.008
100.006
100.004
100.003
100.002
100.001
100.001
100.001
100
100
100
100
100
100
100
100
100
100
100
100
100
100
100
100
100
100
389.791
369.447
349.324
329.565
310.304
291.664
273.756
256.677
240.506
225.307
211.123
197.984
185.9
174.867
164.867
155.868
147.829
140.698
134.419
128.93
124.166
120.061
116.549
113.566
111.051
108.945
107.194
105.749
104.565
103.601
102.823
102.198
101.701
101.307
100.999
100.758
100.571
100.428
100.318
100.235
100.173
100.126
100.091
100.066
100.047
100.033
100.024
100.017
100.012
100.008
100.006
100.004
100.003
100.002
100.001
100.001
100.001
100
100
100
100
100
100
100
100
100
100
100
100
100
100
100
100
100
100
389.791
369.447
349.324
329.565
310.304
291.664
273.756
256.677
240.506
225.307
211.123
197.984
185.9
174.867
164.867
155.868
147.829
140.698
134.419
128.93
124.166
120.061
116.549
113.566
111.051
108.945
107.194
105.749
104.565
103.601
102.823
102.198
101.701
101.307
100.999
100.758
100.571
100.428
100.318
100.235
100.173
100.126
100.091
100.066
100.047
100.033
100.024
100.017
100.012
100.008
100.006
100.004
100.003
100.002
100.001
100.001
100.001
100
100
100
100
100
100
100
100
100
100
100
100
100
100
100
100
100
100
389.791
369.447
349.324
329.565
310.304
291.664
273.756
256.677
240.506
225.307
211.123
197.984
185.9
174.867
164.867
155.868
147.829
140.698
134.419
128.93
124.166
120.061
116.549
113.566
111.051
108.945
107.194
105.749
104.565
103.601
102.823
102.198